 Start File for LAMMPS   10391.0537

 32000 atoms

 2 atom types

 -0.5  71.5800018 xlo xhi
 -0.5  143.660004 ylo yhi
 -0.5  71.5800018 zlo zhi

 Masses

 1  22.9899998
 2  35.4500008

 Atoms

 1 2  63.0699959  142.357986  45.0499992
 2 1  50.4560013  118.932007  14.4160013
 3 2  9.00999928  27.0300007  41.4459991
 4 1  50.4560013  122.536003  21.6239986
 5 2  12.6139994  34.237999  70.2779999
 6 1  3.60400009  36.0400009  39.644001
 7 1  10.8120003  50.4560013  68.4759979
 8 1  43.2480011  72.0799942  32.4360008
 9 1  61.2679977  32.4360008  54.0599976
 10 1  68.4759979  72.0799942  10.8120003
 11 1  43.2480011 -2.98023224E-08  10.8120003
 12 1  18.0200005  100.912003 -2.98023224E-08
 13 2  27.0300007  48.6539955  45.0499992
 14 1  25.2279987  3.60400009  43.2480011
 15 2  55.8619995  77.4860077  1.80200028
 16 2  41.4459991  135.150009  70.2779999
 17 2  5.40600014  23.4260006  34.237999
 18 2  5.40600014  52.2580032  9.00999928
 19 2  5.40600014  66.6740036  45.0499992
 20 1  28.8320007  104.516006  43.2480011
 21 1  21.6239986  21.6239986 -2.98023224E-08
 22 2  70.2779999  142.357986  70.2779999
 23 2  63.0699959  52.2580032  34.237999
 24 1  46.8519974  82.8919983  25.2279987
 25 2  34.237999  113.525993  16.2180004
 26 1 -2.98023224E-08  57.6639977  54.0599976
 27 2  37.8420029  91.9020081  63.0699959
 28 1  10.8120003  136.951996 -2.98023224E-08
 29 1  68.4759979  86.4960022  43.2480011
 30 1 -2.98023224E-08  18.0200005  57.6639977
 31 2  30.6339989  120.734009  63.0699959
 32 1  61.2679977  57.6639977  10.8120003
 33 2  12.6139994  12.6139994  5.40600014
 34 1  57.6639977  93.7040024  61.2679977
 35 1  68.4759979  72.0799942  28.8320007
 36 1  39.644001  54.0599976 -2.98023224E-08
 37 1  25.2279987  108.119995  50.4560013
 38 2  27.0300007  63.0699959  70.2779999
 39 2  37.8420029  9.00999928  30.6339989
 40 2  12.6139994  52.2580032  66.6740036
 41 2  5.40600014  12.6139994  55.8619995
 42 1  36.0400009  10.8120003  57.6639977
 43 1  28.8320007  7.20799971  7.20799971
 44 1  36.0400009  140.556  3.60400009
 45 2  37.8420029  88.2979965  16.2180004
 46 2  5.40600014  142.357986  12.6139994
 47 2  1.80200028  138.753998  1.80200028
 48 1  39.644001  82.8919983  61.2679977
 49 1  10.8120003  111.723991  3.60400009
 50 1 -2.98023224E-08  100.912003  3.60400009
 51 1  57.6639977  39.644001  50.4560013
 52 2  9.00999928  106.318001  41.4459991
 53 2  30.6339989  16.2180004  37.8420029
 54 1  10.8120003  97.3079987  54.0599976
 55 2  5.40600014  73.8820038  59.4659996
 56 1  3.60400009  136.951996  54.0599976
 57 2  41.4459991  23.4260006  37.8420029
 58 1  28.8320007  72.0799942  7.20799971
 59 2  16.2180004  27.0300007  1.80200028
 60 2  23.4260006  102.714005  30.6339989
 61 2  1.80200028  52.2580032  9.00999928
 62 2  45.0499992  84.6940002  70.2779999
 63 1  39.644001  115.328003  3.60400009
 64 1  50.4560013  79.288002  10.8120003
 65 1  10.8120003  28.8320007  14.4160013
 66 1  46.8519974  72.0799942  3.60400009
 67 1  39.644001  115.328003  46.8519974
 68 1  7.20799971  126.139992  36.0400009
 69 2  27.0300007  34.237999  34.237999
 70 1  28.8320007  97.3079987  36.0400009
 71 1  39.644001  108.119995  3.60400009
 72 2  34.237999  41.4459991  23.4260006
 73 1  68.4759979  136.951996  64.8720016
 74 2  55.8619995  95.5060043  63.0699959
 75 2  70.2779999  16.2180004  34.237999
 76 1  39.644001  32.4360008  64.8720016
 77 2  30.6339989  120.734009  12.6139994
 78 2  41.4459991  138.753998  34.237999
 79 1  3.60400009  54.0599976  28.8320007
 80 2  23.4260006  30.6339989  52.2580032
 81 2  5.40600014  55.8619995  48.6539955
 82 1  54.0599976  3.60400009  61.2679977
 83 1  21.6239986  10.8120003  50.4560013
 84 2  41.4459991  113.525993  37.8420029
 85 1  18.0200005  18.0200005  7.20799971
 86 1  7.20799971  57.6639977  18.0200005
 87 1 -2.98023224E-08  100.912003  32.4360008
 88 2  19.8220005  48.6539955  59.4659996
 89 2  27.0300007  73.8820038  9.00999928
 90 1  39.644001  82.8919983  54.0599976
 91 1  43.2480011  108.119995  54.0599976
 92 1  14.4160013  72.0799942  7.20799971
 93 1  57.6639977  14.4160013  7.20799971
 94 2  1.80200028  9.00999928  48.6539955
 95 2  34.237999  102.714005  37.8420029
 96 1  21.6239986  97.3079987  54.0599976
 97 1  64.8720016  46.8519974  64.8720016
 98 1  18.0200005  46.8519974  21.6239986
 99 2  70.2779999  16.2180004  63.0699959
 100 2  34.237999  59.4659996  9.00999928
 101 1  3.60400009  104.516006  57.6639977
 102 2  16.2180004  124.337997  34.237999
 103 2  30.6339989  59.4659996  19.8220005
 104 2  37.8420029  27.0300007  34.237999
 105 1  46.8519974  118.932007  57.6639977
 106 1  57.6639977  36.0400009  46.8519974
 107 2  19.8220005  19.8220005  23.4260006
 108 1  21.6239986  75.6840134  3.60400009
 109 2  9.00999928  12.6139994  9.00999928
 110 2  59.4659996  131.546005  66.6740036
 111 1  57.6639977  118.932007  7.20799971
 112 2  55.8619995  127.942001  37.8420029
 113 2  52.2580032  1.80200028  63.0699959
 114 2  16.2180004  48.6539955  55.8619995
 115 2  37.8420029  127.942001  52.2580032
 116 2  55.8619995  117.130005  12.6139994
 117 1  61.2679977  18.0200005  25.2279987
 118 2  59.4659996  19.8220005  9.00999928
 119 1  50.4560013  129.743988  3.60400009
 120 1  10.8120003  108.119995  28.8320007
 121 1  64.8720016  129.743988 -2.98023224E-08
 122 1  32.4360008  97.3079987  32.4360008
 123 2  59.4659996  45.0499992  41.4459991
 124 1  61.2679977  39.644001  50.4560013
 125 1  21.6239986  118.932007  50.4560013
 126 1  7.20799971  72.0799942  46.8519974
 127 1  7.20799971  93.7040024  3.60400009
 128 2  48.6539955  120.734009  45.0499992
 129 2  30.6339989  63.0699959  27.0300007
 130 2  45.0499992  23.4260006  59.4659996
 131 2  5.40600014  59.4659996  27.0300007
 132 1  36.0400009  133.348007  61.2679977
 133 1  39.644001  32.4360008  54.0599976
 134 2  59.4659996  16.2180004  27.0300007
 135 1 -2.98023224E-08  14.4160013  36.0400009
 136 2  23.4260006  9.00999928  66.6740036
 137 1  7.20799971  97.3079987  64.8720016
 138 2  41.4459991  120.734009  66.6740036
 139 1  21.6239986  28.8320007  57.6639977
 140 2  59.4659996  113.525993  59.4659996
 141 1  36.0400009  46.8519974  46.8519974
 142 2  59.4659996  127.942001  23.4260006
 143 2  27.0300007  30.6339989  70.2779999
 144 1 -2.98023224E-08  75.6840134  36.0400009
 145 1  3.60400009  90.0999985  14.4160013
 146 2  30.6339989  99.1100006  34.237999
 147 1  36.0400009  100.912003  18.0200005
 148 2  52.2580032  120.734009  16.2180004
 149 2  16.2180004  12.6139994  34.237999
 150 2  16.2180004  117.130005  9.00999928
 151 2  16.2180004  5.40600014  55.8619995
 152 1  61.2679977  25.2279987  21.6239986
 153 1  18.0200005  36.0400009  32.4360008
 154 1  7.20799971  108.119995  18.0200005
 155 1  50.4560013  126.139992  3.60400009
 156 2  19.8220005  1.80200028  70.2779999
 157 2  45.0499992  84.6940002  16.2180004
 158 1  68.4759979  140.556  39.644001
 159 1  36.0400009  82.8919983  57.6639977
 160 1  54.0599976  140.556  50.4560013
 161 2  48.6539955  81.090004  66.6740036
 162 1  50.4560013 -2.98023224E-08  25.2279987
 163 2  66.6740036  106.318001  16.2180004
 164 2  27.0300007  63.0699959  48.6539955
 165 1  54.0599976  104.516006  50.4560013
 166 1  7.20799971  43.2480011  28.8320007
 167 1  21.6239986  111.723991  46.8519974
 168 1  61.2679977 -2.98023224E-08  10.8120003
 169 2  23.4260006  77.4860077  52.2580032
 170 1  7.20799971  57.6639977  61.2679977
 171 2  9.00999928  37.8420029  12.6139994
 172 2  9.00999928  9.00999928  5.40600014
 173 2  48.6539955  84.6940002  9.00999928
 174 2  41.4459991  120.734009  52.2580032
 175 2  45.0499992  95.5060043  70.2779999
 176 1 -2.98023224E-08  25.2279987  50.4560013
 177 1  14.4160013  32.4360008  68.4759979
 178 2  30.6339989  1.80200028  55.8619995
 179 2  19.8220005  66.6740036  70.2779999
 180 2  30.6339989  120.734009  23.4260006
 181 2  23.4260006  12.6139994  27.0300007
 182 1  28.8320007  75.6840134  64.8720016
 183 2  30.6339989  34.237999  9.00999928
 184 2  19.8220005  77.4860077  45.0499992
 185 2  23.4260006  88.2979965  5.40600014
 186 2  37.8420029  120.734009  63.0699959
 187 2  30.6339989  59.4659996  5.40600014
 188 2  27.0300007  117.130005  16.2180004
 189 1  46.8519974  46.8519974  18.0200005
 190 2  45.0499992  63.0699959  63.0699959
 191 1  46.8519974  72.0799942  64.8720016
 192 2  48.6539955  19.8220005  34.237999
 193 2  48.6539955  99.1100006  48.6539955
 194 2  37.8420029  120.734009  34.237999
 195 1  39.644001  3.60400009  14.4160013
 196 2  66.6740036  142.357986  55.8619995
 197 1  54.0599976  32.4360008  25.2279987
 198 1  10.8120003  72.0799942  39.644001
 199 1  28.8320007  64.8720016  43.2480011
 200 1  7.20799971  126.139992  21.6239986
 201 1  18.0200005  61.2679977  36.0400009
 202 1  28.8320007 -2.98023224E-08  46.8519974
 203 2  48.6539955  48.6539955  9.00999928
 204 1  7.20799971  46.8519974  18.0200005
 205 1  39.644001  115.328003  64.8720016
 206 2  5.40600014  113.525993  27.0300007
 207 2  48.6539955  16.2180004  16.2180004
 208 2  52.2580032  120.734009  30.6339989
 209 1  3.60400009  122.536003  50.4560013
 210 2  9.00999928  52.2580032  41.4459991
 211 2  55.8619995  45.0499992  23.4260006
 212 1  61.2679977  126.139992  36.0400009
 213 2  12.6139994  9.00999928  63.0699959
 214 2  27.0300007  34.237999  37.8420029
 215 2  27.0300007  59.4659996  19.8220005
 216 2  30.6339989  135.150009  63.0699959
 217 1  7.20799971  140.556  28.8320007
 218 1  46.8519974  133.348007  50.4560013
 219 2  59.4659996  142.357986  23.4260006
 220 2  19.8220005  84.6940002  1.80200028
 221 2  34.237999  5.40600014  59.4659996
 222 2  70.2779999  131.546005  34.237999
 223 1  39.644001  61.2679977  64.8720016
 224 1  18.0200005  39.644001  28.8320007
 225 2  30.6339989  113.525993  27.0300007
 226 1  7.20799971  93.7040024  57.6639977
 227 1  64.8720016  46.8519974  57.6639977
 228 1  18.0200005  72.0799942  43.2480011
 229 1  32.4360008  104.516006  10.8120003
 230 2  70.2779999  106.318001  63.0699959
 231 1  18.0200005  18.0200005  57.6639977
 232 2  12.6139994  109.922005  30.6339989
 233 1  68.4759979  43.2480011  32.4360008
 234 1  28.8320007  86.4960022  7.20799971
 235 2  70.2779999  55.8619995  19.8220005
 236 1  61.2679977  90.0999985  3.60400009
 237 2  19.8220005  5.40600014  16.2180004
 238 1  21.6239986  108.119995  46.8519974
 239 2  30.6339989  73.8820038  45.0499992
 240 2  16.2180004  66.6740036  9.00999928
 241 2  52.2580032  70.2779999  48.6539955
 242 1  39.644001  100.912003  61.2679977
 243 1 -2.98023224E-08  14.4160013  50.4560013
 244 1  3.60400009  126.139992  61.2679977
 245 1  54.0599976  14.4160013 -2.98023224E-08
 246 1 -2.98023224E-08  136.951996  54.0599976
 247 2  5.40600014  84.6940002  66.6740036
 248 2  27.0300007  48.6539955  41.4459991
 249 1  50.4560013  50.4560013  61.2679977
 250 2  45.0499992  1.80200028  66.6740036
 251 1 -2.98023224E-08  75.6840134  18.0200005
 252 1  64.8720016  54.0599976  25.2279987
 253 2  70.2779999  117.130005  37.8420029
 254 1  7.20799971  50.4560013  21.6239986
 255 1  14.4160013  50.4560013  54.0599976
 256 1  43.2480011  61.2679977  50.4560013
 257 1  64.8720016  133.348007  14.4160013
 258 1  32.4360008  72.0799942  54.0599976
 259 2  1.80200028  91.9020081  27.0300007
 260 1  25.2279987  3.60400009  50.4560013
 261 2  70.2779999  30.6339989  48.6539955
 262 2  37.8420029  138.753998  5.40600014
 263 2  59.4659996  120.734009  12.6139994
 264 2  70.2779999  99.1100006  55.8619995
 265 2  30.6339989  19.8220005  63.0699959
 266 1  14.4160013  25.2279987  18.0200005
 267 1 -2.98023224E-08  61.2679977  28.8320007
 268 2  27.0300007  124.337997  41.4459991
 269 2  48.6539955  45.0499992  16.2180004
 270 2  23.4260006  99.1100006  66.6740036
 271 1  64.8720016  136.951996  64.8720016
 272 1  32.4360008  18.0200005  43.2480011
 273 2  9.00999928  12.6139994  52.2580032
 274 2  59.4659996  9.00999928  12.6139994
 275 2  70.2779999  131.546005  66.6740036
 276 2  1.80200028  131.546005  48.6539955
 277 1  7.20799971  10.8120003  10.8120003
 278 1  32.4360008  97.3079987  46.8519974
 279 1  36.0400009  111.723991  64.8720016
 280 2  1.80200028  109.922005  19.8220005
 281 2  1.80200028  102.714005  66.6740036
 282 1  18.0200005  14.4160013  10.8120003
 283 2  70.2779999  12.6139994  48.6539955
 284 1  21.6239986  21.6239986  10.8120003
 285 1  18.0200005  79.288002 -2.98023224E-08
 286 2  70.2779999  120.734009  27.0300007
 287 2  45.0499992  45.0499992  16.2180004
 288 1  50.4560013  82.8919983  50.4560013
 289 1  14.4160013  3.60400009  14.4160013
 290 1  39.644001  46.8519974  64.8720016
 291 1  61.2679977  136.951996  18.0200005
 292 1  10.8120003  75.6840134  61.2679977
 293 2  12.6139994  95.5060043  70.2779999
 294 1  61.2679977  25.2279987 -2.98023224E-08
 295 2  12.6139994  70.2779999  9.00999928
 296 1  36.0400009  82.8919983  61.2679977
 297 2  45.0499992  5.40600014  48.6539955
 298 2  52.2580032  113.525993  5.40600014
 299 2  59.4659996  70.2779999  55.8619995
 300 2  48.6539955  23.4260006  34.237999
 301 2  59.4659996  81.090004  5.40600014
 302 1  3.60400009  97.3079987  3.60400009
 303 1  14.4160013  54.0599976  39.644001
 304 2  30.6339989  109.922005  27.0300007
 305 1  14.4160013  100.912003  57.6639977
 306 1  54.0599976  54.0599976  68.4759979
 307 2  52.2580032  106.318001  1.80200028
 308 2  52.2580032  138.753998  1.80200028
 309 2  16.2180004  5.40600014  63.0699959
 310 1  46.8519974  54.0599976  61.2679977
 311 2  52.2580032  138.753998  66.6740036
 312 1  32.4360008  21.6239986  57.6639977
 313 2  9.00999928  12.6139994  23.4260006
 314 1  46.8519974  28.8320007  7.20799971
 315 2  45.0499992  91.9020081  41.4459991
 316 2  30.6339989  131.546005  9.00999928
 317 1  21.6239986  39.644001  64.8720016
 318 2  45.0499992  41.4459991  45.0499992
 319 1  54.0599976  32.4360008  46.8519974
 320 1  39.644001  104.516006  21.6239986
 321 2  16.2180004  19.8220005  12.6139994
 322 1  28.8320007  25.2279987  10.8120003
 323 1  36.0400009  36.0400009  10.8120003
 324 2  55.8619995  12.6139994  34.237999
 325 1  10.8120003  25.2279987  18.0200005
 326 2  66.6740036  55.8619995  1.80200028
 327 1  18.0200005  25.2279987  28.8320007
 328 1  57.6639977  68.4759979  61.2679977
 329 2  37.8420029  131.546005  16.2180004
 330 2  1.80200028  52.2580032  27.0300007
 331 2  27.0300007  73.8820038  59.4659996
 332 2  48.6539955  63.0699959  30.6339989
 333 2  52.2580032  113.525993  41.4459991
 334 1  39.644001  90.0999985  68.4759979
 335 2  16.2180004  113.525993  45.0499992
 336 1  10.8120003  57.6639977  39.644001
 337 2  9.00999928  48.6539955  1.80200028
 338 2  34.237999  102.714005  34.237999
 339 2  16.2180004  70.2779999  63.0699959
 340 1  10.8120003  136.951996  28.8320007
 341 1  3.60400009  7.20799971  43.2480011
 342 1  43.2480011  14.4160013  28.8320007
 343 1  50.4560013  21.6239986  21.6239986
 344 2  45.0499992  81.090004  27.0300007
 345 1  64.8720016  64.8720016  64.8720016
 346 1  57.6639977  39.644001  32.4360008
 347 2  5.40600014  27.0300007  37.8420029
 348 1  21.6239986  97.3079987  68.4759979
 349 1  7.20799971  3.60400009  10.8120003
 350 1  68.4759979  108.119995  14.4160013
 351 2  48.6539955  23.4260006  45.0499992
 352 1  10.8120003  122.536003  43.2480011
 353 2  70.2779999  41.4459991  5.40600014
 354 1 -2.98023224E-08 -2.98023224E-08  64.8720016
 355 2  63.0699959  81.090004  16.2180004
 356 2  5.40600014  84.6940002  55.8619995
 357 1  61.2679977  100.912003  3.60400009
 358 1  50.4560013  82.8919983  57.6639977
 359 2  5.40600014  120.734009  70.2779999
 360 1  61.2679977  54.0599976  54.0599976
 361 2  16.2180004  106.318001  41.4459991
 362 1 -2.98023224E-08  133.348007  54.0599976
 363 1  46.8519974  86.4960022  21.6239986
 364 2  30.6339989  99.1100006  27.0300007
 365 2  30.6339989  1.80200028  9.00999928
 366 1  57.6639977  86.4960022  46.8519974
 367 1 -2.98023224E-08  36.0400009  25.2279987
 368 1  46.8519974  10.8120003  32.4360008
 369 2  52.2580032  138.753998  34.237999
 370 2  70.2779999  9.00999928  45.0499992
 371 1  32.4360008  46.8519974  36.0400009
 372 1  25.2279987  140.556  57.6639977
 373 1  46.8519974  7.20799971  50.4560013
 374 1  18.0200005  115.328003  43.2480011
 375 2  30.6339989  45.0499992  19.8220005
 376 1  36.0400009  136.951996  32.4360008
 377 1  32.4360008  118.932007  50.4560013
 378 1  50.4560013  50.4560013  64.8720016
 379 1  14.4160013  104.516006  64.8720016
 380 1  68.4759979  64.8720016  64.8720016
 381 2  45.0499992  109.922005  70.2779999
 382 1  7.20799971  28.8320007  14.4160013
 383 1  21.6239986  10.8120003  64.8720016
 384 2  41.4459991  5.40600014  12.6139994
 385 1  32.4360008  57.6639977 -2.98023224E-08
 386 2  23.4260006  120.734009  23.4260006
 387 1  68.4759979  122.536003  39.644001
 388 1  10.8120003  14.4160013  50.4560013
 389 2  27.0300007  23.4260006  19.8220005
 390 2  19.8220005  109.922005  59.4659996
 391 2  48.6539955  77.4860077  63.0699959
 392 1  46.8519974  39.644001  46.8519974
 393 1  46.8519974  93.7040024 -2.98023224E-08
 394 1  57.6639977  75.6840134  46.8519974
 395 2  52.2580032  95.5060043  19.8220005
 396 1  64.8720016  140.556  39.644001
 397 1  57.6639977  39.644001  14.4160013
 398 1  57.6639977  82.8919983  3.60400009
 399 1  36.0400009  97.3079987  46.8519974
 400 1  61.2679977  104.516006  39.644001
 401 1  7.20799971  79.288002  57.6639977
 402 1  10.8120003  54.0599976  21.6239986
 403 2  34.237999  16.2180004  52.2580032
 404 1  25.2279987 -2.98023224E-08  64.8720016
 405 2  1.80200028  9.00999928  16.2180004
 406 2  52.2580032  77.4860077  1.80200028
 407 2  63.0699959  73.8820038  41.4459991
 408 2  16.2180004  48.6539955  9.00999928
 409 2  59.4659996  30.6339989  1.80200028
 410 1  25.2279987  64.8720016 -2.98023224E-08
 411 2  12.6139994  41.4459991  19.8220005
 412 2  27.0300007  30.6339989  59.4659996
 413 1  64.8720016  75.6840134  3.60400009
 414 1  68.4759979  97.3079987 -2.98023224E-08
 415 1  50.4560013  3.60400009  10.8120003
 416 1  46.8519974  25.2279987  32.4360008
 417 1  50.4560013  72.0799942  61.2679977
 418 1  28.8320007  97.3079987  50.4560013
 419 2  63.0699959  23.4260006  55.8619995
 420 1  68.4759979  93.7040024  21.6239986
 421 2  41.4459991  99.1100006  9.00999928
 422 2  45.0499992  1.80200028  27.0300007
 423 1 -2.98023224E-08  32.4360008  10.8120003
 424 1  14.4160013  21.6239986  68.4759979
 425 2  63.0699959  73.8820038  34.237999
 426 2  27.0300007  12.6139994  63.0699959
 427 1  36.0400009  100.912003  46.8519974
 428 1  14.4160013  32.4360008  64.8720016
 429 2  70.2779999  73.8820038  52.2580032
 430 1  39.644001  75.6840134  18.0200005
 431 1  57.6639977  14.4160013  57.6639977
 432 1  61.2679977  54.0599976  25.2279987
 433 1  18.0200005  25.2279987  50.4560013
 434 1  7.20799971  104.516006  10.8120003
 435 1  10.8120003  133.348007  10.8120003
 436 1  3.60400009  3.60400009  39.644001
 437 2  9.00999928  5.40600014  9.00999928
 438 1  64.8720016  36.0400009 -2.98023224E-08
 439 1  3.60400009  97.3079987  21.6239986
 440 2  45.0499992  109.922005  12.6139994
 441 1  61.2679977  82.8919983  10.8120003
 442 2  55.8619995  77.4860077  27.0300007
 443 2  59.4659996  124.337997  41.4459991
 444 2  37.8420029  1.80200028  19.8220005
 445 2  70.2779999  37.8420029  34.237999
 446 2  45.0499992  19.8220005  34.237999
 447 1  57.6639977  136.951996  46.8519974
 448 2  37.8420029  45.0499992  45.0499992
 449 1  50.4560013  90.0999985  28.8320007
 450 2  19.8220005  70.2779999  66.6740036
 451 1  32.4360008  68.4759979  3.60400009
 452 2  41.4459991  27.0300007  16.2180004
 453 2  41.4459991  23.4260006  52.2580032
 454 2  48.6539955  30.6339989  55.8619995
 455 1  3.60400009  129.743988 -2.98023224E-08
 456 2  37.8420029  9.00999928  63.0699959
 457 1  57.6639977  54.0599976  28.8320007
 458 2  45.0499992  102.714005  9.00999928
 459 2  5.40600014  106.318001  66.6740036
 460 2  16.2180004  70.2779999  66.6740036
 461 1  61.2679977  108.119995  54.0599976
 462 1  3.60400009  68.4759979  21.6239986
 463 1  57.6639977  79.288002  7.20799971
 464 1  43.2480011  3.60400009  14.4160013
 465 1  7.20799971  115.328003  3.60400009
 466 2  63.0699959  9.00999928  66.6740036
 467 1  46.8519974  108.119995  18.0200005
 468 2  37.8420029  9.00999928  19.8220005
 469 1  68.4759979  3.60400009  54.0599976
 470 2  59.4659996  138.753998  5.40600014
 471 1 -2.98023224E-08  122.536003  54.0599976
 472 2  59.4659996  23.4260006  12.6139994
 473 2  48.6539955  135.150009  34.237999
 474 1  64.8720016  90.0999985  7.20799971
 475 1  18.0200005  57.6639977  43.2480011
 476 2  27.0300007  109.922005  45.0499992
 477 1  54.0599976 -2.98023224E-08  32.4360008
 478 2  70.2779999  84.6940002  66.6740036
 479 1  50.4560013  126.139992  46.8519974
 480 1  7.20799971  64.8720016  39.644001
 481 1  32.4360008  108.119995  10.8120003
 482 2  63.0699959  52.2580032  59.4659996
 483 1  57.6639977  111.723991  25.2279987
 484 2  63.0699959  102.714005  16.2180004
 485 2  19.8220005  91.9020081  16.2180004
 486 2  34.237999  59.4659996  30.6339989
 487 2  66.6740036  84.6940002  37.8420029
 488 1  36.0400009  140.556  14.4160013
 489 2  37.8420029  34.237999  23.4260006
 490 2  48.6539955  41.4459991  48.6539955
 491 2  27.0300007  113.525993  55.8619995
 492 2  70.2779999  117.130005  19.8220005
 493 2  41.4459991  1.80200028  1.80200028
 494 2  23.4260006  59.4659996  70.2779999
 495 1  39.644001  140.556  10.8120003
 496 1  3.60400009  93.7040024  39.644001
 497 2  55.8619995  63.0699959  1.80200028
 498 2  23.4260006  55.8619995  16.2180004
 499 1  64.8720016  79.288002  21.6239986
 500 1  50.4560013  10.8120003  54.0599976
 501 1  39.644001  3.60400009  7.20799971
 502 1  36.0400009  93.7040024  46.8519974
 503 2  55.8619995  9.00999928  1.80200028
 504 2  52.2580032  81.090004  9.00999928
 505 1  18.0200005  43.2480011  3.60400009
 506 2  59.4659996  102.714005  27.0300007
 507 1  28.8320007  140.556  10.8120003
 508 2  1.80200028  81.090004  23.4260006
 509 2  19.8220005  102.714005  55.8619995
 510 1  7.20799971  7.20799971 -2.98023224E-08
 511 1  25.2279987  115.328003  43.2480011
 512 1  32.4360008  90.0999985  14.4160013
 513 2  70.2779999  124.337997  52.2580032
 514 1  14.4160013  25.2279987  46.8519974
 515 1  68.4759979  10.8120003  28.8320007
 516 2  70.2779999  34.237999  12.6139994
 517 1  54.0599976  21.6239986  21.6239986
 518 2  1.80200028  91.9020081  23.4260006
 519 2  37.8420029  37.8420029  16.2180004
 520 2  23.4260006  124.337997  16.2180004
 521 2  70.2779999  16.2180004  41.4459991
 522 2  30.6339989  124.337997  16.2180004
 523 2  30.6339989  124.337997  5.40600014
 524 1  36.0400009  10.8120003  25.2279987
 525 2  70.2779999  34.237999  52.2580032
 526 1  21.6239986  57.6639977  46.8519974
 527 1  7.20799971  54.0599976  50.4560013
 528 2  23.4260006  41.4459991  59.4659996
 529 2  12.6139994  1.80200028  52.2580032
 530 1  36.0400009  104.516006  64.8720016
 531 1  64.8720016  50.4560013  39.644001
 532 2  48.6539955  16.2180004  34.237999
 533 2  66.6740036  1.80200028  70.2779999
 534 1  68.4759979  54.0599976 -2.98023224E-08
 535 2  16.2180004  30.6339989  1.80200028
 536 2  27.0300007  135.150009  5.40600014
 537 1  39.644001  93.7040024  61.2679977
 538 1  32.4360008  115.328003  10.8120003
 539 1  25.2279987  75.6840134 -2.98023224E-08
 540 1  28.8320007  46.8519974  28.8320007
 541 2  41.4459991  70.2779999  41.4459991
 542 2  70.2779999  73.8820038  55.8619995
 543 2  55.8619995  106.318001  45.0499992
 544 1  39.644001  108.119995  64.8720016
 545 2  16.2180004  135.150009  59.4659996
 546 1  21.6239986  3.60400009  36.0400009
 547 1  57.6639977  54.0599976  50.4560013
 548 2  55.8619995  106.318001  63.0699959
 549 2  70.2779999  91.9020081  59.4659996
 550 1  21.6239986  122.536003  10.8120003
 551 1  57.6639977  136.951996  18.0200005
 552 2  63.0699959  113.525993  16.2180004
 553 1  7.20799971  136.951996  46.8519974
 554 1  68.4759979  64.8720016  43.2480011
 555 2  16.2180004  127.942001  52.2580032
 556 1  54.0599976  50.4560013  18.0200005
 557 1  7.20799971  68.4759979 -2.98023224E-08
 558 2  5.40600014  52.2580032  23.4260006
 559 2  27.0300007  117.130005  27.0300007
 560 1  18.0200005  136.951996  61.2679977
 561 1  18.0200005  93.7040024  36.0400009
 562 2  37.8420029  9.00999928  55.8619995
 563 1  46.8519974  21.6239986  57.6639977
 564 1  25.2279987  18.0200005  43.2480011
 565 2  1.80200028  1.80200028  45.0499992
 566 2  12.6139994  9.00999928  9.00999928
 567 1  28.8320007  57.6639977  14.4160013
 568 1  57.6639977  50.4560013  25.2279987
 569 1  46.8519974  3.60400009  50.4560013
 570 1  61.2679977  126.139992  43.2480011
 571 1  3.60400009  10.8120003  3.60400009
 572 2  41.4459991  16.2180004  34.237999
 573 2  45.0499992  34.237999  19.8220005
 574 2  41.4459991  142.357986  16.2180004
 575 1  64.8720016  97.3079987  10.8120003
 576 1  28.8320007  133.348007 -2.98023224E-08
 577 1  18.0200005  10.8120003  54.0599976
 578 1  7.20799971  122.536003  28.8320007
 579 1  28.8320007  97.3079987  39.644001
 580 2  27.0300007  37.8420029  1.80200028
 581 1  68.4759979  18.0200005  46.8519974
 582 2  30.6339989  5.40600014  27.0300007
 583 2  66.6740036  91.9020081  9.00999928
 584 1  10.8120003  93.7040024  32.4360008
 585 1  3.60400009  118.932007  39.644001
 586 1  18.0200005  3.60400009  57.6639977
 587 1  54.0599976  140.556  32.4360008
 588 1  54.0599976  90.0999985  14.4160013
 589 1 -2.98023224E-08  100.912003  68.4759979
 590 2  41.4459991  48.6539955  23.4260006
 591 1  28.8320007  36.0400009  28.8320007
 592 2  1.80200028  88.2979965  34.237999
 593 2  12.6139994  37.8420029  12.6139994
 594 1  14.4160013  57.6639977  18.0200005
 595 1  7.20799971  136.951996  10.8120003
 596 1  57.6639977  21.6239986  43.2480011
 597 2  63.0699959  1.80200028  30.6339989
 598 2  5.40600014  113.525993  1.80200028
 599 2  27.0300007  81.090004  45.0499992
 600 2  70.2779999  109.922005  12.6139994
 601 1  32.4360008  57.6639977  28.8320007
 602 2  1.80200028  138.753998  27.0300007
 603 2  34.237999  88.2979965  55.8619995
 604 1  28.8320007  126.139992  43.2480011
 605 2  27.0300007  135.150009  63.0699959
 606 1  68.4759979  61.2679977  50.4560013
 607 2  59.4659996  88.2979965  16.2180004
 608 1  3.60400009  7.20799971  39.644001
 609 2  1.80200028  30.6339989  34.237999
 610 2  52.2580032  102.714005  27.0300007
 611 2  55.8619995  142.357986  45.0499992
 612 1  46.8519974  115.328003  18.0200005
 613 2  48.6539955  91.9020081  9.00999928
 614 1  14.4160013  36.0400009  43.2480011
 615 1  54.0599976  43.2480011  28.8320007
 616 1  14.4160013  79.288002  43.2480011
 617 2  55.8619995  102.714005  27.0300007
 618 2  19.8220005  88.2979965  23.4260006
 619 1  7.20799971  3.60400009  18.0200005
 620 1  36.0400009  129.743988  7.20799971
 621 2  48.6539955  138.753998  59.4659996
 622 2  59.4659996  41.4459991  55.8619995
 623 2  12.6139994  95.5060043  34.237999
 624 2  37.8420029  37.8420029  19.8220005
 625 2  55.8619995  127.942001  55.8619995
 626 1  46.8519974  108.119995  28.8320007
 627 2  27.0300007  106.318001  55.8619995
 628 2  1.80200028  27.0300007  19.8220005
 629 1  32.4360008 -2.98023224E-08  18.0200005
 630 1  54.0599976  72.0799942  28.8320007
 631 1  3.60400009  108.119995  36.0400009
 632 1  64.8720016  21.6239986  25.2279987
 633 1 -2.98023224E-08  108.119995  50.4560013
 634 1  68.4759979  7.20799971  25.2279987
 635 1  46.8519974  25.2279987  68.4759979
 636 2  5.40600014  91.9020081  52.2580032
 637 1  64.8720016  100.912003  57.6639977
 638 1  3.60400009  126.139992  54.0599976
 639 1  32.4360008  75.6840134  43.2480011
 640 2  30.6339989  27.0300007  41.4459991
 641 2  37.8420029  45.0499992  63.0699959
 642 2  5.40600014  77.4860077  12.6139994
 643 1  64.8720016  43.2480011  25.2279987
 644 2  55.8619995  45.0499992  55.8619995
 645 1  10.8120003  14.4160013  14.4160013
 646 1  54.0599976  68.4759979  46.8519974
 647 2  23.4260006  138.753998  34.237999
 648 1 -2.98023224E-08  64.8720016  54.0599976
 649 2  16.2180004  77.4860077  59.4659996
 650 1  3.60400009  28.8320007  54.0599976
 651 2  12.6139994  9.00999928  41.4459991
 652 1  3.60400009  21.6239986  46.8519974
 653 2  9.00999928  27.0300007  59.4659996
 654 2  59.4659996  37.8420029  16.2180004
 655 2  52.2580032  16.2180004  63.0699959
 656 2  52.2580032  131.546005  45.0499992
 657 1  10.8120003  68.4759979  64.8720016
 658 1  64.8720016  10.8120003  61.2679977
 659 1  25.2279987  82.8919983 -2.98023224E-08
 660 1  68.4759979  28.8320007  32.4360008
 661 1  54.0599976  140.556  54.0599976
 662 1  14.4160013  28.8320007  18.0200005
 663 1  36.0400009  136.951996 -2.98023224E-08
 664 2  41.4459991  77.4860077  66.6740036
 665 2  27.0300007  16.2180004  41.4459991
 666 1  43.2480011  18.0200005  57.6639977
 667 2  41.4459991  106.318001  66.6740036
 668 2  34.237999  59.4659996  37.8420029
 669 1  14.4160013  64.8720016 -2.98023224E-08
 670 1  68.4759979  50.4560013  46.8519974
 671 1  61.2679977  64.8720016  64.8720016
 672 1  36.0400009  50.4560013  57.6639977
 673 2  55.8619995  63.0699959  59.4659996
 674 1  10.8120003  50.4560013  36.0400009
 675 2  55.8619995  88.2979965  1.80200028
 676 1  39.644001  118.932007  61.2679977
 677 1  25.2279987  86.4960022  36.0400009
 678 2  5.40600014  99.1100006  9.00999928
 679 2  48.6539955  95.5060043  45.0499992
 680 2  41.4459991  52.2580032  59.4659996
 681 1  28.8320007  61.2679977  50.4560013
 682 1  39.644001  115.328003  28.8320007
 683 2  70.2779999  23.4260006  1.80200028
 684 2  23.4260006  59.4659996  48.6539955
 685 1  18.0200005  64.8720016  7.20799971
 686 2  41.4459991  30.6339989  48.6539955
 687 2  70.2779999  81.090004  16.2180004
 688 2  52.2580032  81.090004  37.8420029
 689 1  21.6239986  18.0200005  28.8320007
 690 1  61.2679977  61.2679977  18.0200005
 691 2  9.00999928  52.2580032  30.6339989
 692 1  46.8519974  32.4360008  43.2480011
 693 1  61.2679977  140.556  46.8519974
 694 2  27.0300007  131.546005  5.40600014