LAMMPS Atom File

         4500 atoms
         3000 bonds
         1500 angles
            0 dihedrals
            0 impropers

        2 atom types
        1 bond types
        1 angle types

     0.02645   35.53280  xlo xhi
     0.02645   35.53280  ylo yhi
     0.02641   35.47360  zlo zhi

Masses

	1	15.9994
	2	1.00794

Atoms

      1    1  1 -0.8472   12.12456   28.09298   22.27452  0  1  0
      2    1  2  0.4236   12.53683   28.75606   22.89928  0  1  0
      3    1  2  0.4236   11.49482   28.56390   21.65678  0  1  0
      4    2  1 -0.8472    1.17079   29.37777   23.72984  1 -1  0
      5    2  2  0.4236    1.91804   29.48483   23.07399  1 -1  0
      6    2  2  0.4236    0.40074   28.91964   23.28586  1 -1  0
      7    3  1 -0.8472   29.68313   14.73733   21.62793 -1  0  0
      8    3  2  0.4236   30.54284   14.93741   21.15800 -1  0  0
      9    3  2  0.4236   29.73135   15.07344   22.56848 -1  0  0
     10    4  1 -0.8472   10.87272    7.00153   35.10920  0  1  0
     11    4  2  0.4236   11.11057    6.21663   34.53712  0  1  0
     12    4  2  0.4236    9.95658    7.32301   34.86983  0  1  0
     13    5  1 -0.8472    9.46588    6.43648   19.79899  0  1  0
     14    5  2  0.4236    9.04840    6.32936   18.89668  0  1  0
     15    5  2  0.4236   10.31722    5.91326   19.83657  0  1  0
     16    6  1 -0.8472    3.17905   29.69801   22.11922  0  0  0
     17    6  2  0.4236    3.19240   30.63289   21.76465  0  0  0
     18    6  2  0.4236    3.38651   29.05797   21.37944  0  0  0
     19    7  1 -0.8472   23.38618   11.29979   30.78238  0  0  0
     20    7  2  0.4236   23.69882   10.46688   31.23897  0  0  0
     21    7  2  0.4236   24.17354   11.79208   30.41132  0  0  0
     22    8  1 -0.8472   11.03761   10.46106   30.14741  0  1  0
     23    8  2  0.4236   10.94682   11.45112   30.25464  0  1  0
     24    8  2  0.4236   11.60678   10.09680   30.88450  0  1  0
     25    9  1 -0.8472   26.24001   25.40937   21.06754  0  0  0
     26    9  2  0.4236   25.67045   26.09258   21.52442  0  0  0
     27    9  2  0.4236   26.22311   25.56759   20.08030  0  0  0
     28   10  1 -0.8472   10.84087   35.33915   19.78347  0 -1  0
     29   10  2  0.4236   10.20697    0.54421   19.48018  0  0  0
     30   10  2  0.4236   11.06253   34.74012   19.01405  0 -1  0
     31   11  1 -0.8472   20.07383    4.95885   33.62365  0  1  0
     32   11  2  0.4236   19.77359    5.87080   33.90322  0  1  0
     33   11  2  0.4236   20.68149    4.57954   34.32139  0  1  0
     34   12  1 -0.8472   12.43897   28.56656   17.39837  0  0  0
     35   12  2  0.4236   12.80348   27.99505   18.13354  0  0  0
     36   12  2  0.4236   11.63887   28.12177   16.99597  0  0  0
     37   13  1 -0.8472   14.80338    7.14199    1.42116  0  0  0
     38   13  2  0.4236   14.86001    6.68442    0.53382  0  0  0
     39   13  2  0.4236   14.13589    6.67036    1.99737  0  0  0
     40   14  1 -0.8472   15.87968   22.18330   24.13468  1 -1  0
     41   14  2  0.4236   15.97100   22.71526   23.29285  1 -1  0
     42   14  2  0.4236   16.69618   22.30846   24.69826  1 -1  0
     43   15  1 -0.8472   13.29194   18.30473   12.37157  1  0  0
     44   15  2  0.4236   12.55838   18.63231   12.96701  1  0  0
     45   15  2  0.4236   13.24823   18.78335   11.49467  1  0  0
     46   16  1 -0.8472   20.27409   23.94157   15.50212  0  0  0
     47   16  2  0.4236   20.17851   24.67734   14.83167  0  0  0
     48   16  2  0.4236   20.62006   23.12024   15.04857  0  0  0
     49   17  1 -0.8472   30.10203   10.78182   14.24321  1  0  0
     50   17  2  0.4236   29.40171   11.00523   13.56532  1  0  0
     51   17  2  0.4236   29.70120   10.21329   14.96159  1  0  0
     52   18  1 -0.8472   19.71525   12.98975   25.40578  0  0  0
     53   18  2  0.4236   20.21522   13.35852   26.18938  0  0  0
     54   18  2  0.4236   18.75253   12.87297   25.64962  0  0  0
     55   19  1 -0.8472    4.22362   18.99305   32.62946  1  0  0
     56   19  2  0.4236    4.05067   18.17865   32.07556  1  0  0
     57   19  2  0.4236    3.38513   19.53353   32.69833  1  0  0
     58   20  1 -0.8472   17.67279   30.86798   34.86933  1 -1  0
     59   20  2  0.4236   17.18866   31.74218   34.90528  1 -1  0
     60   20  2  0.4236   18.18607   30.80612   34.01339  1 -1  0
     61   21  1 -0.8472    7.49194   27.84024   34.65598  0  0  0
     62   21  2  0.4236    7.36412   27.37987   33.77752  0  0  0
     63   21  2  0.4236    7.83650   27.18529   35.32848  0  0  0
     64   22  1 -0.8472    9.58199    8.75878   28.38767  0  0  0
     65   22  2  0.4236    8.89931    8.96106   27.68557  0  0  0
     66   22  2  0.4236    9.61451    9.50981   29.04713  0  0  0
     67   23  1 -0.8472   18.15447    7.97877    4.02967  1  0  0
     68   23  2  0.4236   17.65379    8.02465    3.16529  1  0  0
     69   23  2  0.4236   17.56073    7.59903    4.73904  1  0  0
     70   24  1 -0.8472   13.45467   10.30195   21.94603  0  0  0
     71   24  2  0.4236   14.12655   11.01716   21.75366  0  0  0
     72   24  2  0.4236   13.15542   10.37304   22.89754  0  0  0
     73   25  1 -0.8472   28.77370    1.83495    6.23711  0  0  0
     74   25  2  0.4236   29.55410    1.23316    6.06742  0  0  0
     75   25  2  0.4236   28.43863    1.69170    7.16831  0  0  0
     76   26  1 -0.8472   21.17410    3.00906    4.56251  0  1  0
     77   26  2  0.4236   21.00772    2.96011    5.54734  0  1  0
     78   26  2  0.4236   21.17488    3.96581    4.27178  0  1  0
     79   27  1 -0.8472   15.86257   20.77629   10.34675  1 -1  0
     80   27  2  0.4236   15.84751   19.99231   10.96732  1 -1  0
     81   27  2  0.4236   15.76759   20.45695    9.40393  1 -1  0
     82   28  1 -0.8472   19.37283    6.41248   28.33230  0  0  0
     83   28  2  0.4236   19.86925    6.14505   27.50645  0  0  0
     84   28  2  0.4236   19.23659    7.40311   28.33322  0  0  0
     85   29  1 -0.8472   19.69874   26.80111   22.56675 -1 -1  0
     86   29  2  0.4236   20.51873   26.54536   22.05471 -1 -1  0
     87   29  2  0.4236   19.52519   26.12131   23.27927 -1 -1  0
     88   30  1 -0.8472   10.44934    1.95847    4.23874  1  1  0
     89   30  2  0.4236   10.99436    1.49085    4.93460  1  1  0
     90   30  2  0.4236   10.84502    2.85816    4.05448  1  1  0
     91   31  1 -0.8472    6.35411   29.19722   23.17920  0  0  0
     92   31  2  0.4236    5.50252   29.65394   23.43641  0  0  0
     93   31  2  0.4236    7.01350   29.87731   22.85887  0  0  0
     94   32  1 -0.8472   27.70305   33.63868    1.45545  0  0  0
     95   32  2  0.4236   27.45511   34.56848    1.72731  0  0  0
     96   32  2  0.4236   28.23820   33.21008    2.18338  0  0  0
     97   33  1 -0.8472   34.54150   25.90721   10.97268  0  0  0
     98   33  2  0.4236   34.26945   25.07242   10.49403  0  0  0
     99   33  2  0.4236   34.74630   26.62266   10.30478  0  0  0
    100   34  1 -0.8472   35.13701   10.35159   32.75388 -1  0  0
    101   34  2  0.4236   35.31674    9.89658   31.88174 -1  0  0
    102   34  2  0.4236   35.40693    9.74994   33.50557 -1  0  0
    103   35  1 -0.8472   19.45549   25.22953   13.06888  1  0  0
    104   35  2  0.4236   18.63554   25.79082   12.95680  1  0  0
    105   35  2  0.4236   19.57263   24.64638   12.26505  1  0  0
    106   36  1 -0.8472    8.76637   34.60601   24.20146  0  0  0
    107   36  2  0.4236    9.50956   34.70873   24.86259  0  0  0
    108   36  2  0.4236    9.11640   34.17220   23.37125  0  0  0
    109   37  1 -0.8472   18.52185   34.00287   24.76220  0  0  0
    110   37  2  0.4236   19.50193   33.87409   24.61123  0  0  0
    111   37  2  0.4236   18.00811   33.44318   24.11196  0  0  0
    112   38  1 -0.8472    5.46879   16.75651   12.09359  0 -1  0
    113   38  2  0.4236    5.19937   17.67659   11.80934  0 -1  0
    114   38  2  0.4236    5.65240   16.75172   13.07654  0 -1  0
115  39  1  -0.8472  26.78187  26.54273  35.17124  1  0  0
116  39  2  0.4236  27.38399  26.93341  0.42029  1  0  1
117  39  2  0.4236  27.18089  25.69431  34.82353  1  0  0
    118   40  1 -0.8472   14.04248   15.27305   12.41517  0  0  0
    119   40  2  0.4236   14.36157   15.76500   13.22517  0  0  0
    120   40  2  0.4236   14.30963   15.77579   11.59307  0  0  0
    121   41  1 -0.8472    6.75576    6.34672    6.04938  1  1  0
    122   41  2  0.4236    7.58170    5.78427    6.08735  1  1  0
    123   41  2  0.4236    5.98388    5.83092    6.42094  1  1  0
    124   42  1 -0.8472   10.86576   34.93065   25.98166  0  0  0
    125   42  2  0.4236   10.69405   35.32452   26.88460  0  0  0
    126   42  2  0.4236   11.59169   35.44574   25.52591  0  0  0
    127   43  1 -0.8472   18.34531   30.51202   26.27445  0  0  0
    128   43  2  0.4236   18.04166   30.29551   25.34662  0  0  0
    129   43  2  0.4236   19.17552   31.06784   26.23227  0  0  0
    130   44  1 -0.8472   13.18486    0.77946   20.62491 -1  1  0
    131   44  2  0.4236   13.44906    0.56426   21.56501 -1  1  0
    132   44  2  0.4236   12.29152    0.37510   20.42885 -1  1  0
    133   45  1 -0.8472   24.47790   24.05885   28.20937 -1  0  0
    134   45  2  0.4236   24.15706   23.14172   27.97301 -1  0  0
    135   45  2  0.4236   23.74391   24.71952   28.05213 -1  0  0
136  46  1  -0.8472  30.79103  15.33785  34.86738  0  0  0
137  46  2  0.4236  31.17614  15.32312  0.34290  0  0  1
138  46  2  0.4236  29.97833  14.75605  34.83605  0  0  0
    139   47  1 -0.8472   18.30892   19.76908   34.23734  0  0  0
    140   47  2  0.4236   17.75981   20.19846   33.52035  0  0  0
    141   47  2  0.4236   19.04827   19.24096   33.81970  0  0  0
    142   48  1 -0.8472   24.18923   16.21113   25.53917  0  0  0
    143   48  2  0.4236   24.35093   17.17602   25.33219  0  0  0
    144   48  2  0.4236   24.25573   16.06630   26.52637  0  0  0
    145   49  1 -0.8472    9.29176    8.02479   32.23837 -1 -1  0
    146   49  2  0.4236   10.25650    7.88688   32.46243 -1 -1  0
    147   49  2  0.4236    8.95956    7.24816   31.70319 -1 -1  0
    148   50  1 -0.8472    5.32982    1.15354   27.64551  0  0  0
    149   50  2  0.4236    4.51900    0.59091   27.48437  0  0  0
    150   50  2  0.4236    5.05010    2.09452   27.83594  0  0  0
    151   51  1 -0.8472   22.89850   21.33836   11.63894  1  0  0
    152   51  2  0.4236   23.24391   20.51986   12.09802  1  0  0
    153   51  2  0.4236   22.43572   21.07543   10.79239  1  0  0
    154   52  1 -0.8472   16.88462   32.60779   23.16332 -1  0  0
    155   52  2  0.4236   15.90624   32.80151   23.09101 -1  0  0
    156   52  2  0.4236   17.01667   31.65114   23.42276 -1  0  0
    157   53  1 -0.8472   29.24409    7.09722   23.70701 -1  0  0
    158   53  2  0.4236   28.47748    7.53121   24.18023 -1  0  0
    159   53  2  0.4236   29.54220    7.68009   22.95113 -1  0  0
    160   54  1 -0.8472   34.29952    6.85677    2.08156 -1  0  0
    161   54  2  0.4236   34.97347    6.89704    1.34390 -1  0  0
    162   54  2  0.4236   33.70962    7.66305    2.03849 -1  0  0
    163   55  1 -0.8472   32.95408   29.26891   19.25970 -1 -1  0
    164   55  2  0.4236   32.57416   28.37248   19.48784 -1 -1  0
    165   55  2  0.4236   33.66659   29.16225   18.56621 -1 -1  0
    166   56  1 -0.8472    9.78186   33.73160   21.96701  0 -1  0
    167   56  2  0.4236    9.24351   33.11436   21.39330  0 -1  0
    168   56  2  0.4236   10.15276   34.47066   21.40475  0 -1  0
    169   57  1 -0.8472    7.86139    6.97451    8.72713  0  0  0
    170   57  2  0.4236    8.16632    6.08021    9.05452  0  0  0
    171   57  2  0.4236    7.15204    6.85123    8.03315  0  0  0
    172   58  1 -0.8472   34.25223   27.81706   31.79312 -1 -1  0
    173   58  2  0.4236   34.70046   28.60821   31.37704 -1 -1  0
    174   58  2  0.4236   33.75216   28.10807   32.60872 -1 -1  0
    175   59  1 -0.8472   34.94048   26.84844   19.52041 -1 -1  0
    176   59  2  0.4236   35.40459   26.00577   19.79339 -1 -1  0
    177   59  2  0.4236   34.15050   26.62404   18.94986 -1 -1  0
    178   60  1 -0.8472   21.76411   32.20568   20.89158  0  0  0
    179   60  2  0.4236   22.66239   31.82480   21.11072  0  0  0
    180   60  2  0.4236   21.76667   33.18956   21.07031  0  0  0
    181   61  1 -0.8472   34.30787    3.43694   14.24158 -1  0  0
    182   61  2  0.4236   34.88829    2.82261   13.70711 -1  0  0
    183   61  2  0.4236   34.87977    4.10183   14.72200 -1  0  0
    184   62  1 -0.8472   17.88110   18.91029   14.42187  0  1  0
    185   62  2  0.4236   17.92538   18.97676   15.41864  0  1  0
    186   62  2  0.4236   18.59574   19.48109   14.01766  0  1  0
    187   63  1 -0.8472   19.08402   14.22906   20.78379  0  0  0
    188   63  2  0.4236   19.62169   13.82628   21.52446  0  0  0
    189   63  2  0.4236   18.62450   13.50292   20.27246  0  0  0
    190   64  1 -0.8472    7.85997   17.97828    9.48138  1  0  0
    191   64  2  0.4236    7.51843   18.85870    9.15243  1  0  0
    192   64  2  0.4236    8.12328   17.41050    8.70147  1  0  0
    193   65  1 -0.8472    0.30367   23.18327    0.38100  1 -1  0
    194   65  2  0.4236   35.34479   24.06840    0.38922  0 -1  0
    195   65  2  0.4236   35.13158   22.44974    0.42108  0 -1  0
    196   66  1 -0.8472    4.53675   21.21621   29.86203  1  0  0
    197   66  2  0.4236    5.08827   22.03780   29.71779  1  0  0
    198   66  2  0.4236    5.02017   20.59411   30.47781  1  0  0
    199   67  1 -0.8472    3.76321    1.66558   34.11622  0  0  0
    200   67  2  0.4236    4.72980    1.83277   33.92193  0  0  0
    201   67  2  0.4236    3.56027    1.93821   35.05667  0  0  0
    202   68  1 -0.8472   35.17951   34.70220    7.53093  0  0  0
    203   68  2  0.4236   34.22070   34.47397    7.36203  0  0  0
    204   68  2  0.4236    0.09341   33.98533    8.08720  1  0  0
    205   69  1 -0.8472   24.82000    8.21485   16.09338  0  0  0
    206   69  2  0.4236   25.55821    8.87272   15.94450  0  0  0
    207   69  2  0.4236   25.00950    7.68219   16.91816  0  0  0
    208   70  1 -0.8472    4.18282   28.52828   29.70840  1  0  0
    209   70  2  0.4236    5.11675   28.38566   30.03614  1  0  0
    210   70  2  0.4236    4.20438   29.05790   28.86047  1  0  0
    211   71  1 -0.8472   26.43717   31.27303    3.91741 -1  0  0
    212   71  2  0.4236   26.51838   30.56852    3.21243 -1  0  0
    213   71  2  0.4236   27.32007   31.72670    4.03853 -1  0  0
    214   72  1 -0.8472   35.11244    7.70363   27.08017 -1  0  0
    215   72  2  0.4236   35.17419    7.38841   28.02717 -1  0  0
    216   72  2  0.4236   34.54388    7.07077   26.55463 -1  0  0
    217   73  1 -0.8472   21.45404   34.05655    2.90167  0  0  0
    218   73  2  0.4236   21.02487   33.76274    3.75574  0  0  0
    219   73  2  0.4236   22.28101   34.57992    3.10701  0  0  0
    220   74  1 -0.8472   31.21242    3.31299   25.80396 -1  1  0
    221   74  2  0.4236   30.72513    4.00625   25.27307 -1  1  0
    222   74  2  0.4236   31.51511    3.70889   26.67093 -1  1  0
    223   75  1 -0.8472    7.36998    1.04818   25.83115  0  0  0
    224   75  2  0.4236    7.49443    0.23812   25.25822  0  0  0
    225   75  2  0.4236    6.65222    0.87278   26.50493  0  0  0
    226   76  1 -0.8472   30.34479    6.09271   15.73480 -1  1  0
    227   76  2  0.4236   30.87025    5.55980   15.07161 -1  1  0
    228   76  2  0.4236   30.41783    5.66752   16.63693 -1  1  0
    229   77  1 -0.8472   34.94002   25.15376   32.03668 -1  0  0
    230   77  2  0.4236   34.65462   24.57426   32.80000 -1  0  0
    231   77  2  0.4236   34.57715   26.07671   32.16507 -1  0  0
    232   78  1 -0.8472    0.48609   26.41083    7.95690  1  0  0
    233   78  2  0.4236   35.24442   26.06137    7.39276  0  0  0
    234   78  2  0.4236    0.34398   27.38491    8.13268  1  0  0
    235   79  1 -0.8472   28.55527   15.83548   29.53063  0  0  0
    236   79  2  0.4236   28.35434   16.81126   29.61648  0  0  0
    237   79  2  0.4236   29.51472   15.71387   29.27644  0  0  0
    238   80  1 -0.8472   18.14783   14.69040    4.78991  0  0  0
    239   80  2  0.4236   18.53030   15.52266    5.19110  0  0  0
    240   80  2  0.4236   17.28957   14.90833    4.32534  0  0  0
    241   81  1 -0.8472   23.98866   17.79905    4.00089  0  0  0
    242   81  2  0.4236   24.91076   17.80239    3.61409  0  0  0
    243   81  2  0.4236   23.56034   16.91103    3.83379  0  0  0
    244   82  1 -0.8472   27.78613   18.39989   29.82640  0  0  0
    245   82  2  0.4236   27.08378   18.93614   30.29448  0  0  0
    246   82  2  0.4236   28.35313   19.00694   29.26967  0  0  0
    247   83  1 -0.8472   32.55865   20.99313   23.15964 -1  0  0
    248   83  2  0.4236   33.14482   20.54010   22.48798 -1  0  0
    249   83  2  0.4236   32.46068   21.95876   22.91902 -1  0  0
    250   84  1 -0.8472    0.52838   10.68840   20.51354  1  0  0
    251   84  2  0.4236   35.18409   10.69540   21.03922  0  0  0
    252   84  2  0.4236    1.10279   11.45563   20.79882  1  0  0
    253   85  1 -0.8472   24.98681    7.82783   20.94061  0  0  0
    254   85  2  0.4236   25.90983    7.94912   20.57557  0  0  0
    255   85  2  0.4236   24.31734    8.12211   20.25857  0  0  0
    256   86  1 -0.8472   22.84393   20.12521    4.77949 -1  0  0
    257   86  2  0.4236   23.21948   19.20137    4.85318 -1  0  0
    258   86  2  0.4236   23.56755   20.75818    4.50442 -1  0  0
    259   87  1 -0.8472   33.53546   10.01481   10.45635  0  1  0
    260   87  2  0.4236   32.83119    9.35450   10.71703  0  1  0
    261   87  2  0.4236   34.10172   10.22977   11.25204  0  1  0
    262   88  1 -0.8472   16.00583   10.01890    6.93528  0  0  0
    263   88  2  0.4236   16.41480   10.74688    6.38507  0  0  0
    264   88  2  0.4236   15.01766   10.16046    6.99384  0  0  0
    265   89  1 -0.8472   29.81145   30.32235   24.40624  0  0  0
    266   89  2  0.4236   29.91989   30.02878   25.35598  0  0  0
    267   89  2  0.4236   29.93572   29.53794   23.79868  0  0  0
    268   90  1 -0.8472    4.63663    9.89409   32.09045  0  0  0
    269   90  2  0.4236    4.00394    9.69969   31.34088  0  0  0
    270   90  2  0.4236    5.49457    9.40350   31.93817  0  0  0
    271   91  1 -0.8472   32.85747   18.79237   15.26420 -1  0  0
    272   91  2  0.4236   33.07562   17.88380   15.62037 -1  0  0
    273   91  2  0.4236   33.39393   19.47988   15.75358 -1  0  0
    274   92  1 -0.8472    0.61908    7.95150   15.25321  1  1  0
    275   92  2  0.4236    0.05994    7.85361   16.07647  1  1  0
    276   92  2  0.4236   35.53017    8.04513   14.45519  0  1  0
    277   93  1 -0.8472    2.41100    1.86682   23.94422  0  0  0
    278   93  2  0.4236    2.46310    1.85101   22.94575  0  0  0
    279   93  2  0.4236    2.78298    1.01413   24.31096  0  0  0
    280   94  1 -0.8472   35.13183    4.79424   16.91501  0  1  0
    281   94  2  0.4236   34.79462    5.73186   16.83068  0  1  0
    282   94  2  0.4236   34.48810    4.25622   17.45916  0  1  0
    283   95  1 -0.8472    0.97118   31.04426   15.17959  1  0  0
    284   95  2  0.4236   35.51597   31.29963   15.28033  0  0  0
    285   95  2  0.4236    1.24465   30.46576   15.94801  1  0  0
    286   96  1 -0.8472    2.19969    4.72227   17.02777  0  0  0
    287   96  2  0.4236    2.38681    5.64899   17.35356  0  0  0
    288   96  2  0.4236    1.21985    4.62094   16.85574  0  0  0
    289   97  1 -0.8472   11.32464    9.43507   18.23393  0  0  0
    290   97  2  0.4236   11.35628    9.66113   17.26037  0  0  0
    291   97  2  0.4236   10.41863    9.65219   18.59726  0  0  0
    292   98  1 -0.8472    1.17633   29.87451    2.30651  1 -1  0
    293   98  2  0.4236    0.77781   30.54458    1.68034  1 -1  0
    294   98  2  0.4236    2.08692   30.17937    2.58550  1 -1  0
    295   99  1 -0.8472   30.89603    1.46693    1.97982 -1  0  0
    296   99  2  0.4236   31.66382    1.01488    2.43382 -1  0  0
    297   99  2  0.4236   30.67056    0.97609    1.13828 -1  0  0
    298  100  1 -0.8472    5.03295    1.93998   10.31545  1  0  0
    299  100  2  0.4236    4.31256    1.98624   11.00745  1  0  0
    300  100  2  0.4236    4.62804    2.03388    9.40598  1  0  0
    301  101  1 -0.8472   12.08877    2.72082    8.77105  0  0  0
    302  101  2  0.4236   11.73932    2.99595    9.66666  0  0  0
    303  101  2  0.4236   12.21940    3.53177    8.20074  0  0  0
    304  102  1 -0.8472   33.01497    6.97472   32.69727  0  1  0
    305  102  2  0.4236   32.33382    6.98790   31.96528  0  1  0
    306  102  2  0.4236   33.92894    7.07439   32.30391  0  1  0
    307  103  1 -0.8472   24.19758    6.71414    6.62083  0  0  0
    308  103  2  0.4236   24.48496    5.94255    6.05339  0  0  0
    309  103  2  0.4236   23.34354    7.09140    6.26267  0  0  0
    310  104  1 -0.8472   11.20786   33.66002   13.73986  0  0  0
    311  104  2  0.4236   11.08611   33.96434   12.79516  0  0  0
    312  104  2  0.4236   12.16057   33.79345   14.01284  0  0  0
    313  105  1 -0.8472    9.04560   20.24739   13.13311  0  0  0
    314  105  2  0.4236    8.82766   19.47789   13.73338  0  0  0
    315  105  2  0.4236    9.27855   19.90464   12.22304  0  0  0
    316  106  1 -0.8472    8.42921   16.29486    7.43324  1  0  0
    317  106  2  0.4236    9.19124   15.72058    7.13424  1  0  0
    318  106  2  0.4236    7.64285   15.71749    7.65276  1  0  0
    319  107  1 -0.8472    8.18016   30.95703   14.07257  0 -1  0
    320  107  2  0.4236    7.61764   30.47123   14.74149  0 -1  0
    321  107  2  0.4236    7.67505   31.74583   13.72246  0 -1  0
    322  108  1 -0.8472   17.76414   27.72204   30.17860 -1  0  0
    323  108  2  0.4236   17.65280   28.63562   29.78755 -1  0  0
    324  108  2  0.4236   17.44856   27.72492   31.12746 -1  0  0
    325  109  1 -0.8472   17.45769   25.85512   16.78307  0  1  0
    326  109  2  0.4236   18.01645   26.62724   17.08576  0  1  0
    327  109  2  0.4236   17.96426   25.00368   16.91877  0  1  0
    328  110  1 -0.8472   28.59997   12.45467   18.30443  0  0  0
    329  110  2  0.4236   28.86886   12.50061   17.34240  0  0  0
    330  110  2  0.4236   28.32838   13.36441   18.61842  0  0  0
    331  111  1 -0.8472   20.03964   19.60707   21.61488  0 -1  0
    332  111  2  0.4236   19.21429   19.35873   22.12192  0 -1  0
    333  111  2  0.4236   20.56705   20.27317   22.14227  0 -1  0
    334  112  1 -0.8472   24.43021   31.08112   15.27434  0  0  0
    335  112  2  0.4236   24.67230   31.05676   14.30439  0  0  0
    336  112  2  0.4236   23.62159   31.65540   15.40173  0  0  0
    337  113  1 -0.8472   14.03481    4.28377   28.23021  0  1  0
    338  113  2  0.4236   13.71830    5.06061   27.68592  0  1  0
    339  113  2  0.4236   14.81307    3.85222   27.77408  0  1  0
    340  114  1 -0.8472    3.18866    1.92022    1.25228  0  1  0
    341  114  2  0.4236    3.95739    2.04883    1.87873  0  1  0
    342  114  2  0.4236    2.56934    1.22782    1.62238  0  1  0
    343  115  1 -0.8472   22.54465   23.60224    9.46826  0  0  0
    344  115  2  0.4236   22.81528   22.78339    8.96211  0  0  0
    345  115  2  0.4236   23.34546   23.99391    9.92131  0  0  0
    346  116  1 -0.8472    6.44525    3.02083   18.87605  1  0  0
    347  116  2  0.4236    5.96940    2.76314   19.71693  1  0  0
    348  116  2  0.4236    5.93293    2.68338   18.08636  1  0  0
    349  117  1 -0.8472   12.31665   10.94306   26.18378  0  0  0
    350  117  2  0.4236   11.78278   11.60820   26.70581  0  0  0
    351  117  2  0.4236   12.52820   10.15648   26.76387  0  0  0
    352  118  1 -0.8472    8.93649    1.70958   18.81431 -1  0  0
    353  118  2  0.4236    9.43794    2.41836   19.31046 -1  0  0
    354  118  2  0.4236    8.03395    2.05639   18.55926 -1  0  0
    355  119  1 -0.8472    2.23387   20.21809    0.67571  0  0  0
    356  119  2  0.4236    1.96454   19.32973    0.30400  0  0  0
    357  119  2  0.4236    1.48917   20.87294    0.54693  0  0  0
    358  120  1 -0.8472   32.34699   18.13646   22.38224  0  0  0
    359  120  2  0.4236   31.75911   18.90777   22.62608  0  0  0
    360  120  2  0.4236   32.85409   17.83551   23.18984  0  0  0
    361  121  1 -0.8472   20.24600   32.09543   18.49475 -1  0  0
    362  121  2  0.4236   19.37450   32.56379   18.64008 -1  0  0
    363  121  2  0.4236   20.82295   32.20632   19.30394 -1  0  0
    364  122  1 -0.8472   32.44396   13.48495   19.54721  0  0  0
    365  122  2  0.4236   32.49225   14.27437   20.15914  0  0  0
    366  122  2  0.4236   31.99587   13.75157   18.69393  0  0  0
    367  123  1 -0.8472   35.26586   18.21614    1.39574 -1  0  0
    368  123  2  0.4236    0.12239   18.40827    2.30752  0  0  0
    369  123  2  0.4236   34.49009   17.58963    1.47095 -1  0  0
    370  124  1 -0.8472    3.39252   26.43728    7.35930  0  1  0
    371  124  2  0.4236    2.42858   26.42070    7.62480  0  1  0
    372  124  2  0.4236    3.52347   25.87316    6.54412  0  1  0
    373  125  1 -0.8472   15.94721   21.75698   15.77077  0  0  0
    374  125  2  0.4236   16.58200   22.15497   15.10848  0  0  0
    375  125  2  0.4236   15.22931   21.25758   15.28582  0  0  0
    376  126  1 -0.8472   20.49377   23.57178    7.41254  0  0  0
    377  126  2  0.4236   19.70411   23.45223    8.01425  0  0  0
    378  126  2  0.4236   21.29088   23.83328    7.95669  0  0  0
    379  127  1 -0.8472    6.64565    4.33685    1.91046  0  1  0
    380  127  2  0.4236    6.29368    4.91344    1.17318  0  1  0
    381  127  2  0.4236    7.51811    4.70392    2.23304  0  1  0
    382  128  1 -0.8472   26.70656   32.89276    9.89051  1  0  0
    383  128  2  0.4236   26.59749   31.89883    9.88051  1  0  0
    384  128  2  0.4236   27.36144   33.14912   10.60140  1  0  0
    385  129  1 -0.8472    5.48704   32.63030   12.93174  0 -1  0
    386  129  2  0.4236    5.73825   33.49250   13.37160  0 -1  0
    387  129  2  0.4236    4.53739   32.40792   13.15229  0 -1  0
    388  130  1 -0.8472    3.37091    5.95470    9.99334  1  1  0
    389  130  2  0.4236    3.99627    6.57052   10.47252  1  1  0
    390  130  2  0.4236    3.39679    5.05241   10.42360  1  1  0
    391  131  1 -0.8472    2.63445    9.37840   30.00842  1  0  0
    392  131  2  0.4236    2.81625    9.87705   29.16095  1  0  0
    393  131  2  0.4236    1.69314    9.04098   30.00123  1  0  0
    394  132  1 -0.8472    0.97785    8.01694    8.99862  1  1  0
    395  132  2  0.4236    1.85940    8.12605    8.53940  1  1  0
    396  132  2  0.4236    0.38758    8.79268    8.77566  1  1  0
    397  133  1 -0.8472    2.73822   11.52983   15.38585  1  1  0
    398  133  2  0.4236    3.54689   11.84375   15.88332  1  1  0
    399  133  2  0.4236    2.92713   10.64019   14.97013  1  1  0
    400  134  1 -0.8472   18.35568   23.16903   17.37047  0  0  0
    401  134  2  0.4236   17.78374   22.43717   17.00005  0  0  0
    402  134  2  0.4236   19.06840   23.40230   16.70899  0  0  0
    403  135  1 -0.8472    9.13053    4.89654    5.72398  1  1  0
    404  135  2  0.4236    9.75352    5.64004    5.96693  1  1  0
    405  135  2  0.4236    9.45310    4.04375    6.13467  1  1  0
    406  136  1 -0.8472    7.31448   35.35133   12.86442  0  0  0
    407  136  2  0.4236    7.78778   35.16424   13.72519  0  0  0
    408  136  2  0.4236    6.36291    0.08760   13.05321  0  1  0
    409  137  1 -0.8472    0.52118   24.39975   19.66486  0 -1  0
    410  137  2  0.4236    0.83476   23.57085   20.12801  0 -1  0
    411  137  2  0.4236    0.24832   24.17585   18.72923  0 -1  0
    412  138  1 -0.8472   11.64306   23.42080   11.52906  0  0  0
    413  138  2  0.4236   12.61679   23.64677   11.50116  0  0  0
    414  138  2  0.4236   11.14825   24.13853   12.01894  0  0  0
    415  139  1 -0.8472    3.45756    3.18529   19.12957  0  0  0
    416  139  2  0.4236    3.12124    3.74194   18.36997  0  0  0
    417  139  2  0.4236    3.81274    3.78249   19.84869  0  0  0
    418  140  1 -0.8472   20.63306   31.64067   26.89364  0  0  0
    419  140  2  0.4236   21.22839   31.75801   26.09881  0  0  0
    420  140  2  0.4236   20.82429   32.35914   27.56232  0  0  0
    421  141  1 -0.8472   27.87238   20.32866    9.33395  0  0  0
    422  141  2  0.4236   27.02686   20.77238    9.03698  0  0  0
    423  141  2  0.4236   27.66058   19.63412   10.02149  0  0  0
    424  142  1 -0.8472   31.29036   11.93464    0.40169 -1  0  0
    425  142  2  0.4236   31.37881   12.03516    1.39266 -1  0  0
    426  142  2  0.4236   30.32288   11.95452    0.14970 -1  0  0
    427  143  1 -0.8472   21.39492    7.42434    2.71837  0  0  0
    428  143  2  0.4236   22.26919    6.94124    2.67113  0  0  0
    429  143  2  0.4236   21.01752    7.34108    3.64064  0  0  0
    430  144  1 -0.8472   20.01912   19.53687   17.16647  0  0  0
    431  144  2  0.4236   19.03559   19.42765   17.02256  0  0  0
    432  144  2  0.4236   20.17677   20.10021   17.97747  0  0  0
    433  145  1 -0.8472    3.61472   34.67433   24.72232  0 -1  0
    434  145  2  0.4236    3.58465   34.54040   25.71283  0 -1  0
    435  145  2  0.4236    4.55220   34.54959   24.39742  0 -1  0
    436  146  1 -0.8472   23.41665   19.55686   18.89810 -1 -1  0
    437  146  2  0.4236   24.10125   19.00406   18.42300 -1 -1  0
    438  146  2  0.4236   22.99870   20.19654   18.25307 -1 -1  0
    439  147  1 -0.8472   13.01993    3.81803    4.38911  1  0  0
    440  147  2  0.4236   13.38071    3.06814    3.83464  1  0  0
    441  147  2  0.4236   12.92360    4.63574    3.82163  1  0  0
    442  148  1 -0.8472   15.28417   28.36986   13.07087  0 -1  0
    443  148  2  0.4236   15.75033   28.86687   12.33902  0 -1  0
    444  148  2  0.4236   14.37943   28.08353   12.75556  0 -1  0
    445  149  1 -0.8472   31.07288    4.64018   29.64410 -1  1  0
    446  149  2  0.4236   30.89042    5.35240   30.32192 -1  1  0
    447  149  2  0.4236   31.28496    5.06438   28.76373 -1  1  0
    448  150  1 -0.8472   18.66998   22.71969    9.28241  0  0  0
    449  150  2  0.4236   19.43319   22.68014    9.92730  0  0  0
    450  150  2  0.4236   18.18674   21.84425    9.28383  0  0  0