FCC(001) cell with dimension 8 x 8 x 8

512  atoms
  1  atom types

     0.00000000     20.44952811 xlo xhi
     0.00000000     17.70981084 ylo yhi
     0.00000000     16.69696978 zlo zhi
    10.22476405     10.22476405      5.90327028 xy xz yz

Atoms

  1  1      0.00000000      0.00000000      0.00000000
  2  1      2.55619101      0.00000000      0.00000000
  3  1      5.11238203      0.00000000      0.00000000
  4  1      7.66857304      0.00000000      0.00000000
  5  1     10.22476406      0.00000000      0.00000000
  6  1     12.78095507      0.00000000      0.00000000
  7  1     15.33714608      0.00000000      0.00000000
  8  1     17.89333710      0.00000000      0.00000000
  9  1      1.27809551      2.21372636      0.00000000
 10  1      3.83428652      2.21372636      0.00000000
 11  1      6.39047753      2.21372636      0.00000000
 12  1      8.94666855      2.21372636      0.00000000
 13  1     11.50285956      2.21372636      0.00000000
 14  1     14.05905058      2.21372636      0.00000000
 15  1     16.61524159      2.21372636      0.00000000
 16  1     19.17143260      2.21372636      0.00000000
 17  1      2.55619101      4.42745271      0.00000000
 18  1      5.11238203      4.42745271      0.00000000
 19  1      7.66857304      4.42745271      0.00000000
 20  1     10.22476406      4.42745271      0.00000000
 21  1     12.78095507      4.42745271      0.00000000
 22  1     15.33714608      4.42745271      0.00000000
 23  1     17.89333710      4.42745271      0.00000000
 24  1     20.44952811      4.42745271      0.00000000
 25  1      3.83428652      6.64117907      0.00000000
 26  1      6.39047753      6.64117907      0.00000000
 27  1      8.94666855      6.64117907      0.00000000
 28  1     11.50285956      6.64117907      0.00000000
 29  1     14.05905058      6.64117907      0.00000000
 30  1     16.61524159      6.64117907      0.00000000
 31  1     19.17143260      6.64117907      0.00000000
 32  1     21.72762362      6.64117907      0.00000000
 33  1      5.11238203      8.85490542      0.00000000
 34  1      7.66857304      8.85490542      0.00000000
 35  1     10.22476406      8.85490542      0.00000000
 36  1     12.78095507      8.85490542      0.00000000
 37  1     15.33714608      8.85490542      0.00000000
 38  1     17.89333710      8.85490542      0.00000000
 39  1     20.44952811      8.85490542      0.00000000
 40  1     23.00571913      8.85490542      0.00000000
 41  1      6.39047753     11.06863178      0.00000000
 42  1      8.94666855     11.06863178      0.00000000
 43  1     11.50285956     11.06863178      0.00000000
 44  1     14.05905058     11.06863178      0.00000000
 45  1     16.61524159     11.06863178      0.00000000
 46  1     19.17143260     11.06863178      0.00000000
 47  1     21.72762362     11.06863178      0.00000000
 48  1     24.28381463     11.06863178      0.00000000
 49  1      7.66857304     13.28235813      0.00000000
 50  1     10.22476406     13.28235813      0.00000000
 51  1     12.78095507     13.28235813      0.00000000
 52  1     15.33714608     13.28235813      0.00000000
 53  1     17.89333710     13.28235813      0.00000000
 54  1     20.44952811     13.28235813      0.00000000
 55  1     23.00571913     13.28235813      0.00000000
 56  1     25.56191014     13.28235813      0.00000000
 57  1      8.94666855     15.49608449      0.00000000
 58  1     11.50285956     15.49608449      0.00000000
 59  1     14.05905058     15.49608449      0.00000000
 60  1     16.61524159     15.49608449      0.00000000
 61  1     19.17143260     15.49608449      0.00000000
 62  1     21.72762362     15.49608449      0.00000000
 63  1     24.28381463     15.49608449      0.00000000
 64  1     26.84000565     15.49608449      0.00000000
 65  1      1.27809551      0.73790879      2.08712122
 66  1      3.83428652      0.73790879      2.08712122
 67  1      6.39047753      0.73790879      2.08712122
 68  1      8.94666855      0.73790879      2.08712122
 69  1     11.50285956      0.73790879      2.08712122
 70  1     14.05905058      0.73790879      2.08712122
 71  1     16.61524159      0.73790879      2.08712122
 72  1     19.17143260      0.73790879      2.08712122
 73  1      2.55619101      2.95163514      2.08712122
 74  1      5.11238203      2.95163514      2.08712122
 75  1      7.66857304      2.95163514      2.08712122
 76  1     10.22476406      2.95163514      2.08712122
 77  1     12.78095507      2.95163514      2.08712122
 78  1     15.33714608      2.95163514      2.08712122
 79  1     17.89333710      2.95163514      2.08712122
 80  1     20.44952811      2.95163514      2.08712122
 81  1      3.83428652      5.16536150      2.08712122
 82  1      6.39047753      5.16536150      2.08712122
 83  1      8.94666855      5.16536150      2.08712122
 84  1     11.50285956      5.16536150      2.08712122
 85  1     14.05905058      5.16536150      2.08712122
 86  1     16.61524159      5.16536150      2.08712122
 87  1     19.17143260      5.16536150      2.08712122
 88  1     21.72762362      5.16536150      2.08712122
 89  1      5.11238203      7.37908785      2.08712122
 90  1      7.66857304      7.37908785      2.08712122
 91  1     10.22476406      7.37908785      2.08712122
 92  1     12.78095507      7.37908785      2.08712122
 93  1     15.33714608      7.37908785      2.08712122
 94  1     17.89333710      7.37908785      2.08712122
 95  1     20.44952811      7.37908785      2.08712122
 96  1     23.00571913      7.37908785      2.08712122
 97  1      6.39047753      9.59281421      2.08712122
 98  1      8.94666855      9.59281421      2.08712122
 99  1     11.50285956      9.59281421      2.08712122
100  1     14.05905058      9.59281421      2.08712122
101  1     16.61524159      9.59281421      2.08712122
102  1     19.17143260      9.59281421      2.08712122
103  1     21.72762362      9.59281421      2.08712122
104  1     24.28381463      9.59281421      2.08712122
105  1      7.66857304     11.80654056      2.08712122
106  1     10.22476406     11.80654056      2.08712122
107  1     12.78095507     11.80654056      2.08712122
108  1     15.33714608     11.80654056      2.08712122
109  1     17.89333710     11.80654056      2.08712122
110  1     20.44952811     11.80654056      2.08712122
111  1     23.00571913     11.80654056      2.08712122
112  1     25.56191014     11.80654056      2.08712122
113  1      8.94666855     14.02026692      2.08712122
114  1     11.50285956     14.02026692      2.08712122
115  1     14.05905058     14.02026692      2.08712122
116  1     16.61524159     14.02026692      2.08712122
117  1     19.17143260     14.02026692      2.08712122
118  1     21.72762362     14.02026692      2.08712122
119  1     24.28381463     14.02026692      2.08712122
120  1     26.84000565     14.02026692      2.08712122
121  1     10.22476406     16.23399327      2.08712122
122  1     12.78095507     16.23399327      2.08712122
123  1     15.33714608     16.23399327      2.08712122
124  1     17.89333710     16.23399327      2.08712122
125  1     20.44952811     16.23399327      2.08712122
126  1     23.00571913     16.23399327      2.08712122
127  1     25.56191014     16.23399327      2.08712122
128  1     28.11810115     16.23399327      2.08712122
129  1      2.55619101      1.47581757      4.17424245
130  1      5.11238203      1.47581757      4.17424245
131  1      7.66857304      1.47581757      4.17424245
132  1     10.22476406      1.47581757      4.17424245
133  1     12.78095507      1.47581757      4.17424245
134  1     15.33714608      1.47581757      4.17424245
135  1     17.89333710      1.47581757      4.17424245
136  1     20.44952811      1.47581757      4.17424245
137  1      3.83428652      3.68954393      4.17424245
138  1      6.39047753      3.68954393      4.17424245
139  1      8.94666855      3.68954393      4.17424245
140  1     11.50285956      3.68954393      4.17424245
141  1     14.05905058      3.68954393      4.17424245
142  1     16.61524159      3.68954393      4.17424245
143  1     19.17143260      3.68954393      4.17424245
144  1     21.72762362      3.68954393      4.17424245
145  1      5.11238203      5.90327028      4.17424245
146  1      7.66857304      5.90327028      4.17424245
147  1     10.22476406      5.90327028      4.17424245
148  1     12.78095507      5.90327028      4.17424245
149  1     15.33714608      5.90327028      4.17424245
150  1     17.89333710      5.90327028      4.17424245
151  1     20.44952811      5.90327028      4.17424245
152  1     23.00571913      5.90327028      4.17424245
153  1      6.39047753      8.11699664      4.17424245
154  1      8.94666855      8.11699664      4.17424245
155  1     11.50285956      8.11699664      4.17424245
156  1     14.05905058      8.11699664      4.17424245
157  1     16.61524159      8.11699664      4.17424245
158  1     19.17143260      8.11699664      4.17424245
159  1     21.72762362      8.11699664      4.17424245
160  1     24.28381463      8.11699664      4.17424245
161  1      7.66857304     10.33072299      4.17424245
162  1     10.22476406     10.33072299      4.17424245
163  1     12.78095507     10.33072299      4.17424245
164  1     15.33714608     10.33072299      4.17424245
165  1     17.89333710     10.33072299      4.17424245
166  1     20.44952811     10.33072299      4.17424245
167  1     23.00571913     10.33072299      4.17424245
168  1     25.56191014     10.33072299      4.17424245
169  1      8.94666855     12.54444935      4.17424245
170  1     11.50285956     12.54444935      4.17424245
171  1     14.05905058     12.54444935      4.17424245
172  1     16.61524159     12.54444935      4.17424245
173  1     19.17143260     12.54444935      4.17424245
174  1     21.72762362     12.54444935      4.17424245
175  1     24.28381463     12.54444935      4.17424245
176  1     26.84000565     12.54444935      4.17424245
177  1     10.22476406     14.75817570      4.17424245
178  1     12.78095507     14.75817570      4.17424245
179  1     15.33714608     14.75817570      4.17424245
180  1     17.89333710     14.75817570      4.17424245
181  1     20.44952811     14.75817570      4.17424245
182  1     23.00571913     14.75817570      4.17424245
183  1     25.56191014     14.75817570      4.17424245
184  1     28.11810115     14.75817570      4.17424245
185  1     11.50285956     16.97190206      4.17424245
186  1     14.05905058     16.97190206      4.17424245
187  1     16.61524159     16.97190206      4.17424245
188  1     19.17143260     16.97190206      4.17424245
189  1     21.72762362     16.97190206      4.17424245
190  1     24.28381463     16.97190206      4.17424245
191  1     26.84000565     16.97190206      4.17424245
192  1     29.39619666     16.97190206      4.17424245
193  1      3.83428652      2.21372636      6.26136367
194  1      6.39047753      2.21372636      6.26136367
195  1      8.94666855      2.21372636      6.26136367
196  1     11.50285956      2.21372636      6.26136367
197  1     14.05905058      2.21372636      6.26136367
198  1     16.61524159      2.21372636      6.26136367
199  1     19.17143260      2.21372636      6.26136367
200  1     21.72762362      2.21372636      6.26136367
201  1      5.11238203      4.42745271      6.26136367
202  1      7.66857304      4.42745271      6.26136367
203  1     10.22476406      4.42745271      6.26136367
204  1     12.78095507      4.42745271      6.26136367
205  1     15.33714608      4.42745271      6.26136367
206  1     17.89333710      4.42745271      6.26136367
207  1     20.44952811      4.42745271      6.26136367
208  1     23.00571913      4.42745271      6.26136367
209  1      6.39047753      6.64117907      6.26136367
210  1      8.94666855      6.64117907      6.26136367
211  1     11.50285956      6.64117907      6.26136367
212  1     14.05905058      6.64117907      6.26136367
213  1     16.61524159      6.64117907      6.26136367
214  1     19.17143260      6.64117907      6.26136367
215  1     21.72762362      6.64117907      6.26136367
216  1     24.28381463      6.64117907      6.26136367
217  1      7.66857304      8.85490542      6.26136367
218  1     10.22476406      8.85490542      6.26136367
219  1     12.78095507      8.85490542      6.26136367
220  1     15.33714608      8.85490542      6.26136367
221  1     17.89333710      8.85490542      6.26136367
222  1     20.44952811      8.85490542      6.26136367
223  1     23.00571913      8.85490542      6.26136367
224  1     25.56191014      8.85490542      6.26136367
225  1      8.94666855     11.06863178      6.26136367
226  1     11.50285956     11.06863178      6.26136367
227  1     14.05905058     11.06863178      6.26136367
228  1     16.61524159     11.06863178      6.26136367
229  1     19.17143260     11.06863178      6.26136367
230  1     21.72762362     11.06863178      6.26136367
231  1     24.28381463     11.06863178      6.26136367
232  1     26.84000565     11.06863178      6.26136367
233  1     10.22476406     13.28235813      6.26136367
234  1     12.78095507     13.28235813      6.26136367
235  1     15.33714608     13.28235813      6.26136367
236  1     17.89333710     13.28235813      6.26136367
237  1     20.44952811     13.28235813      6.26136367
238  1     23.00571913     13.28235813      6.26136367
239  1     25.56191014     13.28235813      6.26136367
240  1     28.11810115     13.28235813      6.26136367
241  1     11.50285956     15.49608449      6.26136367
242  1     14.05905058     15.49608449      6.26136367
243  1     16.61524159     15.49608449      6.26136367
244  1     19.17143260     15.49608449      6.26136367
245  1     21.72762362     15.49608449      6.26136367
246  1     24.28381463     15.49608449      6.26136367
247  1     26.84000565     15.49608449      6.26136367
248  1     29.39619666     15.49608449      6.26136367
249  1     12.78095507     17.70981084      6.26136367
250  1     15.33714608     17.70981084      6.26136367
251  1     17.89333710     17.70981084      6.26136367
252  1     20.44952811     17.70981084      6.26136367
253  1     23.00571913     17.70981084      6.26136367
254  1     25.56191014     17.70981084      6.26136367
255  1     28.11810115     17.70981084      6.26136367
256  1     30.67429217     17.70981084      6.26136367
257  1      5.11238203      2.95163514      8.34848489
258  1      7.66857304      2.95163514      8.34848489
259  1     10.22476406      2.95163514      8.34848489
260  1     12.78095507      2.95163514      8.34848489
261  1     15.33714608      2.95163514      8.34848489
262  1     17.89333710      2.95163514      8.34848489
263  1     20.44952811      2.95163514      8.34848489
264  1     23.00571913      2.95163514      8.34848489
265  1      6.39047753      5.16536150      8.34848489
266  1      8.94666855      5.16536150      8.34848489
267  1     11.50285956      5.16536150      8.34848489
268  1     14.05905058      5.16536150      8.34848489
269  1     16.61524159      5.16536150      8.34848489
270  1     19.17143260      5.16536150      8.34848489
271  1     21.72762362      5.16536150      8.34848489
272  1     24.28381463      5.16536150      8.34848489
273  1      7.66857304      7.37908785      8.34848489
274  1     10.22476406      7.37908785      8.34848489
275  1     12.78095507      7.37908785      8.34848489
276  1     15.33714608      7.37908785      8.34848489
277  1     17.89333710      7.37908785      8.34848489
278  1     20.44952811      7.37908785      8.34848489
279  1     23.00571913      7.37908785      8.34848489
280  1     25.56191014      7.37908785      8.34848489
281  1      8.94666855      9.59281421      8.34848489
282  1     11.50285956      9.59281421      8.34848489
283  1     14.05905058      9.59281421      8.34848489
284  1     16.61524159      9.59281421      8.34848489
285  1     19.17143260      9.59281421      8.34848489
286  1     21.72762362      9.59281421      8.34848489
287  1     24.28381463      9.59281421      8.34848489
288  1     26.84000565      9.59281421      8.34848489
289  1     10.22476406     11.80654056      8.34848489
290  1     12.78095507     11.80654056      8.34848489
291  1     15.33714608     11.80654056      8.34848489
292  1     17.89333710     11.80654056      8.34848489
293  1     20.44952811     11.80654056      8.34848489
294  1     23.00571913     11.80654056      8.34848489
295  1     25.56191014     11.80654056      8.34848489
296  1     28.11810115     11.80654056      8.34848489
297  1     11.50285956     14.02026692      8.34848489
298  1     14.05905058     14.02026692      8.34848489
299  1     16.61524159     14.02026692      8.34848489
300  1     19.17143260     14.02026692      8.34848489
301  1     21.72762362     14.02026692      8.34848489
302  1     24.28381463     14.02026692      8.34848489
303  1     26.84000565     14.02026692      8.34848489
304  1     29.39619666     14.02026692      8.34848489
305  1     12.78095507     16.23399327      8.34848489
306  1     15.33714608     16.23399327      8.34848489
307  1     17.89333710     16.23399327      8.34848489
308  1     20.44952811     16.23399327      8.34848489
309  1     23.00571913     16.23399327      8.34848489
310  1     25.56191014     16.23399327      8.34848489
311  1     28.11810115     16.23399327      8.34848489
312  1     30.67429217     16.23399327      8.34848489
313  1     14.05905058     18.44771963      8.34848489
314  1     16.61524159     18.44771963      8.34848489
315  1     19.17143260     18.44771963      8.34848489
316  1     21.72762362     18.44771963      8.34848489
317  1     24.28381463     18.44771963      8.34848489
318  1     26.84000565     18.44771963      8.34848489
319  1     29.39619666     18.44771963      8.34848489
320  1     31.95238767     18.44771963      8.34848489
321  1      6.39047753      3.68954393     10.43560612
322  1      8.94666855      3.68954393     10.43560612
323  1     11.50285956      3.68954393     10.43560612
324  1     14.05905058      3.68954393     10.43560612
325  1     16.61524159      3.68954393     10.43560612
326  1     19.17143260      3.68954393     10.43560612
327  1     21.72762362      3.68954393     10.43560612
328  1     24.28381463      3.68954393     10.43560612
329  1      7.66857304      5.90327028     10.43560612
330  1     10.22476406      5.90327028     10.43560612
331  1     12.78095507      5.90327028     10.43560612
332  1     15.33714608      5.90327028     10.43560612
333  1     17.89333710      5.90327028     10.43560612
334  1     20.44952811      5.90327028     10.43560612
335  1     23.00571913      5.90327028     10.43560612
336  1     25.56191014      5.90327028     10.43560612
337  1      8.94666855      8.11699664     10.43560612
338  1     11.50285956      8.11699664     10.43560612
339  1     14.05905058      8.11699664     10.43560612
340  1     16.61524159      8.11699664     10.43560612
341  1     19.17143260      8.11699664     10.43560612
342  1     21.72762362      8.11699664     10.43560612
343  1     24.28381463      8.11699664     10.43560612
344  1     26.84000565      8.11699664     10.43560612
345  1     10.22476406     10.33072299     10.43560612
346  1     12.78095507     10.33072299     10.43560612
347  1     15.33714608     10.33072299     10.43560612
348  1     17.89333710     10.33072299     10.43560612
349  1     20.44952811     10.33072299     10.43560612
350  1     23.00571913     10.33072299     10.43560612
351  1     25.56191014     10.33072299     10.43560612
352  1     28.11810115     10.33072299     10.43560612
353  1     11.50285956     12.54444935     10.43560612
354  1     14.05905058     12.54444935     10.43560612
355  1     16.61524159     12.54444935     10.43560612
356  1     19.17143260     12.54444935     10.43560612
357  1     21.72762362     12.54444935     10.43560612
358  1     24.28381463     12.54444935     10.43560612
359  1     26.84000565     12.54444935     10.43560612
360  1     29.39619666     12.54444935     10.43560612
361  1     12.78095507     14.75817570     10.43560612
362  1     15.33714608     14.75817570     10.43560612
363  1     17.89333710     14.75817570     10.43560612
364  1     20.44952811     14.75817570     10.43560612
365  1     23.00571913     14.75817570     10.43560612
366  1     25.56191014     14.75817570     10.43560612
367  1     28.11810115     14.75817570     10.43560612
368  1     30.67429217     14.75817570     10.43560612
369  1     14.05905058     16.97190206     10.43560612
370  1     16.61524159     16.97190206     10.43560612
371  1     19.17143260     16.97190206     10.43560612
372  1     21.72762362     16.97190206     10.43560612
373  1     24.28381463     16.97190206     10.43560612
374  1     26.84000565     16.97190206     10.43560612
375  1     29.39619666     16.97190206     10.43560612
376  1     31.95238767     16.97190206     10.43560612
377  1     15.33714608     19.18562841     10.43560612
378  1     17.89333710     19.18562841     10.43560612
379  1     20.44952811     19.18562841     10.43560612
380  1     23.00571913     19.18562841     10.43560612
381  1     25.56191014     19.18562841     10.43560612
382  1     28.11810115     19.18562841     10.43560612
383  1     30.67429217     19.18562841     10.43560612
384  1     33.23048318     19.18562841     10.43560612
385  1      7.66857304      4.42745271     12.52272734
386  1     10.22476406      4.42745271     12.52272734
387  1     12.78095507      4.42745271     12.52272734
388  1     15.33714608      4.42745271     12.52272734
389  1     17.89333710      4.42745271     12.52272734
390  1     20.44952811      4.42745271     12.52272734
391  1     23.00571913      4.42745271     12.52272734
392  1     25.56191014      4.42745271     12.52272734
393  1      8.94666855      6.64117907     12.52272734
394  1     11.50285956      6.64117907     12.52272734
395  1     14.05905058      6.64117907     12.52272734
396  1     16.61524159      6.64117907     12.52272734
397  1     19.17143260      6.64117907     12.52272734
398  1     21.72762362      6.64117907     12.52272734
399  1     24.28381463      6.64117907     12.52272734
400  1     26.84000565      6.64117907     12.52272734
401  1     10.22476406      8.85490542     12.52272734
402  1     12.78095507      8.85490542     12.52272734
403  1     15.33714608      8.85490542     12.52272734
404  1     17.89333710      8.85490542     12.52272734
405  1     20.44952811      8.85490542     12.52272734
406  1     23.00571913      8.85490542     12.52272734
407  1     25.56191014      8.85490542     12.52272734
408  1     28.11810115      8.85490542     12.52272734
409  1     11.50285956     11.06863178     12.52272734
410  1     14.05905058     11.06863178     12.52272734
411  1     16.61524159     11.06863178     12.52272734
412  1     19.17143260     11.06863178     12.52272734
413  1     21.72762362     11.06863178     12.52272734
414  1     24.28381463     11.06863178     12.52272734
415  1     26.84000565     11.06863178     12.52272734
416  1     29.39619666     11.06863178     12.52272734
417  1     12.78095507     13.28235813     12.52272734
418  1     15.33714608     13.28235813     12.52272734
419  1     17.89333710     13.28235813     12.52272734
420  1     20.44952811     13.28235813     12.52272734
421  1     23.00571913     13.28235813     12.52272734
422  1     25.56191014     13.28235813     12.52272734
423  1     28.11810115     13.28235813     12.52272734
424  1     30.67429217     13.28235813     12.52272734
425  1     14.05905058     15.49608449     12.52272734
426  1     16.61524159     15.49608449     12.52272734
427  1     19.17143260     15.49608449     12.52272734
428  1     21.72762362     15.49608449     12.52272734
429  1     24.28381463     15.49608449     12.52272734
430  1     26.84000565     15.49608449     12.52272734
431  1     29.39619666     15.49608449     12.52272734
432  1     31.95238767     15.49608449     12.52272734
433  1     15.33714608     17.70981084     12.52272734
434  1     17.89333710     17.70981084     12.52272734
435  1     20.44952811     17.70981084     12.52272734
436  1     23.00571913     17.70981084     12.52272734
437  1     25.56191014     17.70981084     12.52272734
438  1     28.11810115     17.70981084     12.52272734
439  1     30.67429217     17.70981084     12.52272734
440  1     33.23048318     17.70981084     12.52272734
441  1     16.61524159     19.92353720     12.52272734
442  1     19.17143260     19.92353720     12.52272734
443  1     21.72762362     19.92353720     12.52272734
444  1     24.28381463     19.92353720     12.52272734
445  1     26.84000565     19.92353720     12.52272734
446  1     29.39619666     19.92353720     12.52272734
447  1     31.95238767     19.92353720     12.52272734
448  1     34.50857869     19.92353720     12.52272734
449  1      8.94666855      5.16536150     14.60984856
450  1     11.50285956      5.16536150     14.60984856
451  1     14.05905058      5.16536150     14.60984856
452  1     16.61524159      5.16536150     14.60984856
453  1     19.17143260      5.16536150     14.60984856
454  1     21.72762362      5.16536150     14.60984856
455  1     24.28381463      5.16536150     14.60984856
456  1     26.84000565      5.16536150     14.60984856
457  1     10.22476406      7.37908785     14.60984856
458  1     12.78095507      7.37908785     14.60984856
459  1     15.33714608      7.37908785     14.60984856
460  1     17.89333710      7.37908785     14.60984856
461  1     20.44952811      7.37908785     14.60984856
462  1     23.00571913      7.37908785     14.60984856
463  1     25.56191014      7.37908785     14.60984856
464  1     28.11810115      7.37908785     14.60984856
465  1     11.50285956      9.59281421     14.60984856
466  1     14.05905058      9.59281421     14.60984856
467  1     16.61524159      9.59281421     14.60984856
468  1     19.17143260      9.59281421     14.60984856
469  1     21.72762362      9.59281421     14.60984856
470  1     24.28381463      9.59281421     14.60984856
471  1     26.84000565      9.59281421     14.60984856
472  1     29.39619666      9.59281421     14.60984856
473  1     12.78095507     11.80654056     14.60984856
474  1     15.33714608     11.80654056     14.60984856
475  1     17.89333710     11.80654056     14.60984856
476  1     20.44952811     11.80654056     14.60984856
477  1     23.00571913     11.80654056     14.60984856
478  1     25.56191014     11.80654056     14.60984856
479  1     28.11810115     11.80654056     14.60984856
480  1     30.67429217     11.80654056     14.60984856
481  1     14.05905058     14.02026692     14.60984856
482  1     16.61524159     14.02026692     14.60984856
483  1     19.17143260     14.02026692     14.60984856
484  1     21.72762362     14.02026692     14.60984856
485  1     24.28381463     14.02026692     14.60984856
486  1     26.84000565     14.02026692     14.60984856
487  1     29.39619666     14.02026692     14.60984856
488  1     31.95238767     14.02026692     14.60984856
489  1     15.33714608     16.23399327     14.60984856
490  1     17.89333710     16.23399327     14.60984856
491  1     20.44952811     16.23399327     14.60984856
492  1     23.00571913     16.23399327     14.60984856
493  1     25.56191014     16.23399327     14.60984856
494  1     28.11810115     16.23399327     14.60984856
495  1     30.67429217     16.23399327     14.60984856
496  1     33.23048318     16.23399327     14.60984856
497  1     16.61524159     18.44771963     14.60984856
498  1     19.17143260     18.44771963     14.60984856
499  1     21.72762362     18.44771963     14.60984856
500  1     24.28381463     18.44771963     14.60984856
501  1     26.84000565     18.44771963     14.60984856
502  1     29.39619666     18.44771963     14.60984856
503  1     31.95238767     18.44771963     14.60984856
504  1     34.50857869     18.44771963     14.60984856
505  1     17.89333710     20.66144598     14.60984856
506  1     20.44952811     20.66144598     14.60984856
507  1     23.00571913     20.66144598     14.60984856
508  1     25.56191014     20.66144598     14.60984856
509  1     28.11810115     20.66144598     14.60984856
510  1     30.67429217     20.66144598     14.60984856
511  1     33.23048318     20.66144598     14.60984856
512  1     35.78667420     20.66144598     14.60984856
