Created by charmm2lammps v1.8.1 on Mi 27. Jan 08:43:59 CET 2016

       892  atoms
        906  bonds
        1626  angles
        2501  dihedrals
         137  impropers

          28  atom types
          51  bond types
         120  angle types
         232  dihedral types
          15  improper types

  -10    50 xlo xhi
  -10    50 ylo yhi
  -30    30 zlo zhi

Masses

       1      1.008  # H
       2      1.008  # HC
       3      1.008  # HA
       4      1.008  # HP
       5      1.008  # HB
       6     12.011  # C
       7     12.011  # CA
       8     12.011  # CT1
       9     12.011  # CT2
      10     12.011  # CT3
      11     12.011  # CP1
      12     12.011  # CP2
      13     12.011  # CP3
      14     12.011  # CC
      15     14.007  # N
      16     14.007  # NH1
      17     14.007  # NH2
      18     14.007  # NH3
      19     14.007  # NC2
      20     15.999  # O
      21     15.999  # OC
      22     15.999  # OH1
      23      32.06  # S
      24      32.06  # SM
      25      1.008  # HT
      26    15.9994  # OT
      27      35.45  # CLA
      28   22.98977  # SOD

Pair Coeffs

       1      0.046  0.4000135    #  0.046  0.4000135  # H
       2      0.046  0.4000135    #  0.046  0.4000135  # HC
       3      0.022   2.351973    #  0.022   2.351973  # HA
       4       0.03   2.420037    #   0.03   2.420037  # HP
       5      0.022   2.351973    #  0.022   2.351973  # HB
       6       0.11   3.563595    #   0.11   3.563595  # C
       7       0.07   3.550053    #   0.07   3.550053  # CA
       8       0.02   4.053589    #   0.01   3.385415  # CT1
       9      0.055   3.875409    #   0.01   3.385415  # CT2
      10       0.08   3.670503    #   0.01   3.385415  # CT3
      11       0.02   4.053589    #   0.01   3.385415  # CP1
      12      0.055   3.875409    #   0.01   3.385415  # CP2
      13      0.055   3.875409    #   0.01   3.385415  # CP3
      14       0.07   3.563595    #   0.07   3.563595  # CC
      15        0.2   3.296325    # 0.0001   3.296325  # N
      16        0.2   3.296325    #    0.2   2.761786  # NH1
      17        0.2   3.296325    #    0.2   3.296325  # NH2
      18        0.2   3.296325    #    0.2   3.296325  # NH3
      19        0.2   3.296325    #    0.2   3.296325  # NC2
      20       0.12   3.029056    #   0.12   2.494516  # O
      21       0.12   3.029056    #   0.12   3.029056  # OC
      22     0.1521   3.153781    # 0.1521   3.153781  # OH1
      23       0.45   3.563595    #   0.45   3.563595  # S
      24       0.38    3.51905    #   0.38    3.51905  # SM
      25      0.046  0.4000135    #  0.046  0.4000135  # HT
      26     0.1521   3.150574    # 0.1521   3.150574  # OT
      27       0.15    4.04468    #   0.15    4.04468  # CLA
      28     0.0469   2.429926    # 0.0469   2.429926  # SOD

Atoms

       1       1    18      -0.3      26.465      27.452       -2.49  # NH3
       2       1     2      0.33      25.974        27.9      -3.237  # HC
       3       1     2      0.33      27.052      26.729      -2.853  # HC
       4       1     2      0.33      27.017      28.122      -1.994  # HC
       5       1     8      0.21      25.497      26.862      -1.573  # CT1
       6       1     5       0.1      24.903      27.657      -1.139  # HB
       7       1     9     -0.18      24.583      25.804      -2.239  # CT2
       8       1     3      0.09      23.666      25.736      -1.606  # HA
       9       1     3      0.09      24.244      26.177      -3.231  # HA
      10       1     9     -0.18      25.091      24.375      -2.409  # CT2
      11       1     3      0.09      26.018        24.4      -3.023  # HA
      12       1     3      0.09      25.402       23.98      -1.414  # HA
      13       1     9       0.2      24.019      23.428      -2.996  # CT2
      14       1     3      0.09      24.459      22.415      -3.141  # HA
      15       1     3      0.09      23.136      23.341       -2.32  # HA
      16       1    19      -0.7      23.591      24.028      -4.287  # NC2
      17       1     2      0.44      22.696      24.486      -4.233  # HC
      18       1     6      0.64      24.299      23.972      -5.389  # C
      19       1    19      -0.8      25.432      23.261       -5.44  # NC2
      20       1     2      0.46      25.978      23.241      -6.266  # HC
      21       1     2      0.46      25.754      22.877      -4.572  # HC
      22       1    19      -0.8      23.721      24.373      -6.467  # NC2
      23       1     2      0.46      24.178      24.271      -7.339  # HC
      24       1     2      0.46      22.753      24.577      -6.407  # HC
      25       1     6      0.51      26.193      26.179      -0.437  # C
      26       1    20     -0.51       27.27      25.549      -0.624  # O
      27       2    15     -0.29      25.667      26.396       0.708  # N
      28       2    13         0      24.606      27.382       0.978  # CP3
      29       2     3      0.09      25.478      27.982       0.631  # HA
      30       2     3      0.09      23.663      27.767       0.526  # HA
      31       2    11      0.02      26.222       25.76       1.891  # CP1
      32       2     5      0.09      27.241      26.099       2.038  # HB
      33       2    12     -0.18       25.26      26.207       3.033  # CP2
      34       2     3      0.09      25.583      27.203       3.411  # HA
      35       2     3      0.09      25.237      25.491       3.879  # HA
      36       2    12     -0.18      24.512      27.428       2.493  # CP2
      37       2     3      0.09      24.117      28.082       3.295  # HA
      38       2     3      0.09      23.672      27.087       1.845  # HA
      39       2     6      0.51      26.207      24.242        1.83  # C
      40       2    20     -0.51        25.4      23.576       1.139  # O
      41       3    16     -0.47       27.17      23.634       2.462  # NH1
      42       3     1      0.31      27.898      24.092       2.965  # H
      43       3     8      0.07      27.284      22.163       2.498  # CT1
      44       3     5      0.09      27.355      21.833       1.468  # HB
      45       3     9     -0.28      28.425      21.747       3.461  # CT2
      46       3     3      0.09       28.41      22.407       4.351  # HA
      47       3     3      0.09      28.288      20.701         3.8  # HA
      48       3    14      0.62      29.791      21.886       2.787  # CC
      49       3    21     -0.76      29.875      22.104       1.543  # OC
      50       3    21     -0.76      30.806      21.501       3.431  # OC
      51       3     6      0.51      26.043      21.506       3.085  # C
      52       3    20     -0.51      25.752       20.35       2.705  # O
      53       4    16     -0.47      25.394      22.184       4.041  # NH1
      54       4     1      0.31       25.64      23.072       4.425  # H
      55       4     8      0.07      24.172      21.585       4.618  # CT1
      56       4     5      0.09      24.485      20.603       4.953  # HB
      57       4     9     -0.18      23.692      22.331       5.862  # CT2
      58       4     3      0.09      22.822      21.792       6.297  # HA
      59       4     3      0.09      24.483      22.359       6.642  # HA
      60       4     7         0      23.192      23.779       5.639  # CA
      61       4     7    -0.115      21.961      24.002        5.06  # CA
      62       4     4     0.115      21.356      23.161       4.748  # HP
      63       4     7    -0.115      21.497      25.281       4.869  # CA
      64       4     4     0.115      20.524      25.443       4.428  # HP
      65       4     7    -0.115      22.277      26.363       5.249  # CA
      66       4     4     0.115      21.941      27.378       5.091  # HP
      67       4     7    -0.115      23.951      24.841        6.05  # CA
      68       4     4     0.115      24.913      24.671       6.513  # HP
      69       4     7    -0.115       23.51      26.124       5.854  # CA
      70       4     4     0.115      24.122      26.958       6.169  # HP
      71       4     6      0.51      23.009      21.375       3.624  # C
      72       4    20     -0.51      22.082      20.603       3.921  # O
      73       5    16     -0.47      23.095      22.004       2.522  # NH1
      74       5     1      0.31      23.843      22.631       2.313  # H
      75       5     8      0.07      22.106      21.863       1.467  # CT1
      76       5     5      0.09      21.135      21.942       1.941  # HB
      77       5     9      -0.1      22.358      22.904       0.371  # CT2
      78       5     3      0.09      23.411      22.778       0.032  # HA
      79       5     3      0.09      21.722      22.681      -0.514  # HA
      80       5    24     -0.08      22.145      24.592       0.888  # SM
      81       5     6      0.51      22.192      20.518        0.83  # C
      82       5    20     -0.51       21.23      20.068       0.167  # O
      83       6    16     -0.47      23.326      19.826       1.008  # NH1
      84       6     1      0.31      24.141      20.141        1.49  # H
      85       6     8      0.07      23.436       18.46       0.459  # CT1
      86       6     5      0.09      22.788      18.447      -0.408  # HB
      87       6     9     -0.18      24.898      18.084       0.131  # CT2
      88       6     3      0.09      25.443      18.006         1.1  # HA
      89       6     3      0.09      24.918      17.065      -0.316  # HA
      90       6     8     -0.09      25.572      19.129      -0.776  # CT1
      91       6     3      0.09      25.596      20.032      -0.119  # HA
      92       6    10     -0.27      27.037      18.695      -1.116  # CT3
      93       6     3      0.09      27.509      19.424      -1.809  # HA
      94       6     3      0.09      27.654      18.642      -0.193  # HA
      95       6     3      0.09      27.048      17.697      -1.603  # HA
      96       6    10     -0.27      24.791      19.488      -2.049  # CT3
      97       6     3      0.09      25.338      20.259      -2.633  # HA
      98       6     3      0.09       24.65      18.606      -2.706  # HA
      99       6     3      0.09       23.79      19.895      -1.789  # HA
     100       6     6      0.51      22.958      17.365       1.407  # C
     101       6    20     -0.51      22.938       16.18       0.999  # O
     102       7    16     -0.47      22.545      17.716       2.628  # NH1
     103       7     1      0.31      22.529      18.626       3.032  # H
     104       7     8      0.07      22.039      16.646       3.528  # CT1
     105       7     5      0.09      22.645      15.758       3.402  # HB
     106       7     9     -0.18      21.764      17.217        4.92  # CT2
     107       7     3      0.09      20.871       17.88       4.853  # HA
     108       7     3      0.09      21.483      16.395       5.616  # HA
     109       7     9     -0.28      22.814      18.035       5.647  # CT2
     110       7     3      0.09       23.61      17.365        6.02  # HA
     111       7     3      0.09      23.261      18.794       4.975  # HA
     112       7    14      0.62      22.152      18.707        6.87  # CC
     113       7    21     -0.76       22.98        19.1       7.718  # OC
     114       7    21     -0.76      21.086      19.404       6.779  # OC
     115       7     6      0.51      20.616      16.285       3.113  # C
     116       7    20     -0.51       19.86      17.136       2.576  # O
     117       8    15     -0.29      20.254      15.031       3.334  # N
     118       8    13         0      21.107      14.009       3.934  # CP3
     119       8     3      0.09      21.793      13.937       3.059  # HA
     120       8     3      0.09      21.689      14.134       4.876  # HA
     121       8    11      0.02      18.892      14.554       3.034  # CP1
     122       8     5      0.09      18.556      14.845       2.045  # HB
     123       8    12     -0.18       18.91      13.045       3.274  # CP2
     124       8     3      0.09      19.279      12.536       2.355  # HA
     125       8     3      0.09      17.911       12.64       3.534  # HA
     126       8    12     -0.18      20.226      12.742       4.021  # CP2
     127       8     3      0.09      20.561      11.693       3.898  # HA
     128       8     3      0.09      20.092      12.964       5.105  # HA
     129       8     6      0.51      17.954       15.16       4.079  # C
     130       8    20     -0.51      18.443      15.606       5.146  # O
     131       9    15     -0.29      16.682      15.232       3.767  # N
     132       9    13         0       16.09      14.597       2.574  # CP3
     133       9     3      0.09      16.462      15.319       1.812  # HA
     134       9     3      0.09      16.367      13.555       2.292  # HA
     135       9    11      0.02       15.69      15.852       4.661  # CP1
     136       9     5      0.09      15.977      16.859       4.942  # HB
     137       9    12     -0.18      14.367      15.707       3.867  # CP2
     138       9     3      0.09      14.274       16.56       3.158  # HA
     139       9     3      0.09      13.473      15.685       4.523  # HA
     140       9    12     -0.18      14.571      14.716        2.71  # CP2
     141       9     3      0.09      13.847      14.861       1.884  # HA
     142       9     3      0.09      14.485      13.675       3.099  # HA
     143       9     6      0.51       15.55      15.006       5.916  # C
     144       9    20     -0.51      15.693      13.769       5.836  # O
     145      10    16     -0.47      15.365       15.63       7.042  # NH1
     146      10     1      0.31      15.251      16.618       7.126  # H
     147      10     8      0.07       15.31      14.908       8.298  # CT1
     148      10     5      0.09      15.352      13.849       8.072  # HB
     149      10     9     -0.18      16.532      15.383       9.122  # CT2
     150      10     3      0.09      17.465       15.08       8.598  # HA
     151      10     3      0.09      16.545      16.492       9.202  # HA
     152      10     7         0      16.608      14.781      10.525  # CA
     153      10     7    -0.115      17.132      13.535      10.707  # CA
     154      10     4     0.115      17.465      12.962       9.852  # HP
     155      10     7    -0.115      17.216      12.999      11.982  # CA
     156      10     4     0.115      17.594      11.999      12.134  # HP
     157      10     7      0.11      16.808      13.746      13.047  # CA
     158      10    22     -0.54      16.878      13.192      14.372  # OH1
     159      10     1      0.43       16.62      13.882      14.987  # H
     160      10     7    -0.115      16.155      15.523      11.588  # CA
     161      10     4     0.115      15.689      16.484      11.417  # HP
     162      10     7    -0.115      16.266      14.985      12.862  # CA
     163      10     4     0.115      15.902      15.542      13.712  # HP
     164      10     6      0.51      13.953      15.177       8.952  # C
     165      10    20     -0.51      13.699       16.32       9.382  # O
     166      11    16     -0.47      13.161      14.146       9.088  # NH1
     167      11     1      0.31      13.387      13.203       8.845  # H
     168      11     8      0.07      11.802      14.321       9.642  # CT1
     169      11     5      0.09      11.434      15.257       9.244  # HB
     170      11     8      0.14      10.963      13.105       9.273  # CT1
     171      11     3      0.09      11.604      12.213       9.477  # HA
     172      11    22     -0.66      10.706      13.192       7.854  # OH1
     173      11     1      0.43      10.166      12.423       7.643  # H
     174      11    10     -0.27       9.611      13.152      10.045  # CT3
     175      11     3      0.09        9.03       12.22       9.881  # HA
     176      11     3      0.09       9.791      13.254      11.136  # HA
     177      11     3      0.09        8.99      14.012       9.713  # HA
     178      11     6      0.51      11.855      14.484      11.146  # C
     179      11    20     -0.51      11.105      15.314      11.759  # O
     180      12    16     -0.47      12.789       13.76      11.726  # NH1
     181      12     1      0.31      13.385      13.097      11.274  # H
     182      12     9     -0.02      13.002      13.922      13.198  # CT2
     183      12     5      0.09      12.706       14.92       13.49  # HB
     184      12     5      0.09      14.026      13.674      13.441  # HB
     185      12     6      0.51      12.107      12.944      13.909  # C
     186      12    20     -0.51      11.333      12.212      13.239  # O
     187      13    15     -0.29      12.235      12.905       15.21  # N
     188      13    13         0      13.281      13.627      15.925  # CP3
     189      13     3      0.09       14.19      13.183       15.46  # HA
     190      13     3      0.09      13.319      14.739      15.871  # HA
     191      13    11      0.02      11.516      11.958      16.067  # CP1
     192      13     5      0.09      11.509      11.001      15.559  # HB
     193      13    12     -0.18      12.272      11.936       17.37  # CP2
     194      13     3      0.09      13.113      11.212      17.289  # HA
     195      13     3      0.09      11.634      11.652      18.231  # HA
     196      13    12     -0.18      13.164      13.172      17.399  # CP2
     197      13     3      0.09      14.034      13.061      18.075  # HA
     198      13     3      0.09       12.56      14.053      17.715  # HA
     199      13     6      0.51      10.094      12.319      16.468  # C
     200      13    20     -0.51        9.44      11.442      17.052  # O
     201      14    16     -0.47       9.629      13.519      16.214  # NH1
     202      14     1      0.31      10.174      14.196      15.723  # H
     203      14     8      0.07        8.29       13.98      16.616  # CT1
     204      14     5      0.09       8.005      13.387      17.477  # HB
     205      14     9      -0.1       8.279      15.441      16.967  # CT2
     206      14     3      0.09       8.747      15.988      16.118  # HA
     207      14     3      0.09        7.23      15.807      17.027  # HA
     208      14    24     -0.08       9.221      15.735       18.49  # SM
     209      14     6      0.51       7.268       13.72      15.515  # C
     210      14    20     -0.51       7.672      13.397      14.387  # O
     211      15    16     -0.47       6.027       13.68      15.869  # NH1
     212      15     1      0.31       5.692      13.952       16.77  # H
     213      15     8      0.07       5.005       13.22      14.945  # CT1
     214      15     5      0.09       5.517      12.984       14.02  # HB
     215      15     9     -0.18        4.31      11.998      15.592  # CT2
     216      15     3      0.09        3.83      12.354      16.533  # HA
     217      15     3      0.09       3.484      11.658      14.928  # HA
     218      15     9     -0.18       5.273      10.848      15.913  # CT2
     219      15     3      0.09       6.171      11.258      16.428  # HA
     220      15     3      0.09       4.776      10.146      16.621  # HA
     221      15     9     -0.18       5.781      10.034      14.702  # CT2
     222      15     3      0.09        4.91       9.522      14.232  # HA
     223      15     3      0.09       6.193      10.748      13.952  # HA
     224      15     9      0.21       6.855       9.016      15.126  # CT2
     225      15     3      0.05       7.711       9.533      15.615  # HA
     226      15     3      0.05       6.433       8.279      15.844  # HA
     227      15    18      -0.3       7.357       8.291      13.953  # NH3
     228      15     2      0.33       8.084       7.605      14.242  # HC
     229      15     2      0.33       6.571       7.789      13.493  # HC
     230      15     2      0.33       7.771       8.967       13.28  # HC
     231      15     6      0.51       3.964      14.283       14.63  # C
     232      15    20     -0.51       2.777      13.949      14.377  # O
     233      16    16     -0.47       4.325      15.549      14.618  # NH1
     234      16     1      0.31       5.223      15.809      14.972  # H
     235      16     8      0.07       3.513       16.64      14.122  # CT1
     236      16     5      0.09       2.471      16.527      14.397  # HB
     237      16    10     -0.27       3.984      17.995       14.67  # CT3
     238      16     3      0.09       3.892      18.002      15.777  # HA
     239      16     3      0.09        5.05       18.18      14.415  # HA
     240      16     3      0.09       3.373      18.833       14.27  # HA
     241      16     6      0.51       3.561      16.615      12.586  # C
     242      16    20     -0.51        4.27      15.752      12.023  # O
     243      17    16     -0.47       2.781      17.425      11.943  # NH1
     244      17     1      0.31       2.214      18.113       12.39  # H
     245      17     8      0.07         2.7      17.355      10.457  # CT1
     246      17     5      0.09       3.523      16.758      10.082  # HB
     247      17     9     -0.18        1.32      16.787        9.97  # CT2
     248      17     3      0.09       0.533      17.418      10.449  # HA
     249      17     3      0.09       1.217      16.948       8.874  # HA
     250      17     9     -0.18       1.186      15.339      10.395  # CT2
     251      17     3      0.09       2.055      14.771       9.997  # HA
     252      17     3      0.09       1.272      15.278      11.504  # HA
     253      17     9       0.2       -0.17      14.751       9.963  # CT2
     254      17     3      0.09      -0.324      14.936       8.875  # HA
     255      17     3      0.09      -0.217      13.653      10.148  # HA
     256      17    19      -0.7      -1.132      15.455      10.801  # NC2
     257      17     2      0.44      -1.421      16.339      10.415  # HC
     258      17     6      0.64      -1.531      14.913      11.939  # C
     259      17    19      -0.8      -1.172      13.658      12.165  # NC2
     260      17     2      0.46      -1.463      13.191      12.988  # HC
     261      17     2      0.46       -0.72      13.182      11.408  # HC
     262      17    19      -0.8      -2.202      15.647      12.795  # NC2
     263      17     2      0.46      -2.431      15.281      13.686  # HC
     264      17     2      0.46      -2.273      16.616      12.596  # HC
     265      17     6      0.51       2.875      18.731       9.887  # C
     266      17    20     -0.51       1.878       19.47       9.653  # O
     267      18    16     -0.47       4.154       19.11       9.817  # NH1
     268      18     1      0.31       4.899       18.49      10.057  # H
     269      18     8      0.07       4.595      20.444       9.391  # CT1
     270      18     5      0.09         3.7      21.045       9.289  # HB
     271      18     8     -0.09        5.59      20.988      10.452  # CT1
     272      18     3      0.09       6.369      20.189      10.542  # HA
     273      18    10     -0.27       5.985      22.451      10.085  # CT3
     274      18     3      0.09       6.811      22.808      10.736  # HA
     275      18     3      0.09       6.334      22.515       9.033  # HA
     276      18     3      0.09       5.122      23.139      10.211  # HA
     277      18     9     -0.18       4.792      21.062      11.815  # CT2
     278      18     3      0.09       3.918      21.742      11.703  # HA
     279      18     3      0.09       4.393       20.05      12.055  # HA
     280      18    10     -0.27       5.689      21.536      12.955  # CT3
     281      18     3      0.09        5.13      21.527      13.915  # HA
     282      18     3      0.09       6.573      20.871      13.061  # HA
     283      18     3      0.09       6.047      22.572      12.776  # HA
     284      18     6      0.51       5.249      20.388       8.012  # C
     285      18    20     -0.51       6.193      19.612       7.834  # O
     286      19    16     -0.47       4.586      20.956       7.035  # NH1
     287      19     1      0.31        3.72      21.449       7.084  # H
     288      19     8      0.07       5.154      20.879       5.697  # CT1
     289      19     5      0.09       5.609      19.902       5.597  # HB
     290      19     8     -0.09       4.095      21.205       4.648  # CT1
     291      19     3      0.09         3.8      22.263       4.867  # HA
     292      19    10     -0.27       4.655       20.93        3.25  # CT3
     293      19     3      0.09       3.961      21.306        2.47  # HA
     294      19     3      0.09        5.63      21.441       3.107  # HA
     295      19     3      0.09       4.802      19.841       3.088  # HA
     296      19     9     -0.18       2.836      20.317       4.886  # CT2
     297      19     3      0.09       2.375      20.572       5.866  # HA
     298      19     3      0.09       2.081      20.543       4.098  # HA
     299      19    10     -0.27       3.122      18.814        4.85  # CT3
     300      19     3      0.09       2.178      18.239       4.968  # HA
     301      19     3      0.09       3.586      18.526       3.882  # HA
     302      19     3      0.09       3.809      18.519       5.671  # HA
     303      19     6      0.51       6.286      21.912       5.572  # C
     304      19    20     -0.51       6.156      23.146       5.785  # O
     305      20    16     -0.47       7.451      21.372       5.297  # NH1
     306      20     1      0.31        7.62      20.391       5.235  # H
     307      20     8      0.07       8.602      22.257        5.06  # CT1
     308      20     5      0.09       8.274       23.29       5.042  # HB
     309      20     9     -0.18       9.698      21.897       6.092  # CT2
     310      20     3      0.09       9.848      20.793        6.02  # HA
     311      20     3      0.09      10.663      22.358       5.786  # HA
     312      20     9     -0.18       9.226        22.3       7.493  # CT2
     313      20     3      0.09       8.229      21.842       7.676  # HA
     314      20     3      0.09       9.907      21.846       8.249  # HA
     315      20     9       0.2       9.248       23.85       7.622  # CT2
     316      20     3      0.09      10.282      24.222       7.439  # HA
     317      20     3      0.09        8.56      24.331       6.888  # HA
     318      20    19      -0.7        8.81      24.311       8.962  # NC2
     319      20     2      0.44       7.852      24.619       8.981  # HC
     320      20     6      0.64       9.575      24.336      10.075  # C
     321      20    19      -0.8      10.888      24.077      10.044  # NC2
     322      20     2      0.46      11.422      24.077      10.878  # HC
     323      20     2      0.46      11.257      23.755       9.169  # HC
     324      20    19      -0.8        9.05      24.893       11.17  # NC2
     325      20     2      0.46       9.607       25.01       11.98  # HC
     326      20     2      0.46       8.182       25.36      11.063  # HC
     327      20     6      0.51        9.15       21.95       3.673  # C
     328      20    20     -0.51        8.84      20.896       3.088  # O
     329      21    16     -0.47      10.178      22.695       3.318  # NH1
     330      21     1      0.31      10.494      23.474       3.858  # H
     331      21     8      0.07      10.959      22.444       2.085  # CT1
     332      21     5      0.09      10.473      21.613       1.588  # HB
     333      21     9     -0.18      10.997       23.77       1.282  # CT2
     334      21     3      0.09       11.22       24.61       1.976  # HA
     335      21     3      0.09      11.808      23.746       0.523  # HA
     336      21     7         0       9.641      24.038       0.627  # CA
     337      21     7    -0.115       8.639      24.592       1.399  # CA
     338      21     4     0.115       8.818      24.797       2.446  # HP
     339      21     7    -0.115       7.403      24.861       0.831  # CA
     340      21     4     0.115       6.605      25.281       1.425  # HP
     341      21     7      0.11       7.215      24.576      -0.494  # CA
     342      21    22     -0.54       5.879      24.769       -1.06  # OH1
     343      21     1      0.43       5.937      24.595      -2.002  # H
     344      21     7    -0.115       9.451      23.725      -0.691  # CA
     345      21     4     0.115      10.242      23.247      -1.252  # HP
     346      21     7    -0.115       8.213      23.993      -1.249  # CA
     347      21     4     0.115       8.019      23.725      -2.277  # HP
     348      21     6      0.51      12.407       22.01       2.386  # C
     349      21    20     -0.51      12.987      22.512       3.378  # O
     350      22    16     -0.47      12.977      21.141       1.535  # NH1
     351      22     1      0.31      12.513      20.621        0.82  # H
     352      22     8      0.07      14.449      20.892       1.626  # CT1
     353      22     5      0.09      14.882      21.676       2.235  # HB
     354      22     9     -0.18      14.664      19.435       2.142  # CT2
     355      22     3      0.09      15.746      19.277       2.345  # HA
     356      22     3      0.09      14.123      19.265       3.098  # HA
     357      22     7         0      14.283      18.276       1.191  # CA
     358      22     7    -0.115       15.29      17.639       0.506  # CA
     359      22     4     0.115      16.318      17.933        0.67  # HP
     360      22     7    -0.115      14.981      16.632      -0.392  # CA
     361      22     4     0.115      15.771      16.117       -0.92  # HP