LAMMPS (9 Nov 2016)
Processor partition = 2
# LJ particles
variable        lambda world 400 405 410 415
variable        rep world 0 1 2 3
#variable        walker world 1 0 2 3

variable        T0 equal 300.0
variable        press equal 0.0

units           real
atom_style      full
pair_style      lj/cut 5.0

read_data       "lj.data"
  orthogonal box = (1.06874 1.06874 1.06874) to (23.9313 23.9313 23.9313)
  1 by 1 by 1 MPI processor grid
  reading atoms ...
  500 atoms
  reading velocities ...
  500 velocities
  0 = max # of 1-2 neighbors
  0 = max # of 1-3 neighbors
  0 = max # of 1-4 neighbors
  1 = max # of special neighbors

thermo          10
thermo_style    custom step temp pe etotal press vol

timestep        1.0

fix             fxnpt all npt temp ${T0} ${T0} 1000.0 iso ${press} ${press} 10000.0
fix             fxnpt all npt temp 300 ${T0} 1000.0 iso ${press} ${press} 10000.0
fix             fxnpt all npt temp 300 300 1000.0 iso ${press} ${press} 10000.0
fix             fxnpt all npt temp 300 300 1000.0 iso 0 ${press} 10000.0
fix             fxnpt all npt temp 300 300 1000.0 iso 0 0 10000.0
fix             fxgREM all grem ${lambda} -.01 -30000 fxnpt
fix             fxgREM all grem 410 -.01 -30000 fxnpt
thermo_modify   press fxgREM_press

grem            5000 100 ${lambda} fxgREM fxnpt 10294 98392 #${walker}
grem            5000 100 410 fxgREM fxnpt 10294 98392 
Neighbor list info ...
  1 neighbor list requests
  update every 1 steps, delay 10 steps, check yes
  max neighbors/atom: 2000, page size: 100000
  master list distance cutoff = 7
  ghost atom cutoff = 7
  binsize = 3.5 -> bins = 7 7 7
Memory usage per processor = 5.37943 Mbytes
Step Temp PotEng TotEng Press Volume 
       0    305.69499   -3177.6423   -2722.9442   -33.763847    11950.115 
      10    310.97848   -3181.6232   -2719.0663   -128.71274    11950.114 
      20    311.30708   -3183.9629   -2720.9172    -143.3426    11950.111 
      30    306.14136   -3180.0716   -2724.7096   -28.204379    11950.105 
      40    297.66477   -3175.4315   -2732.6777    127.61053    11950.099 
      50    290.22432   -3169.5474   -2737.8608    280.80151    11950.095 
      60    287.43268    -3166.011   -2738.4767    354.38425    11950.097 
      70    289.22705   -3167.7991   -2737.5958     314.7585    11950.107 
      80    292.67967    -3169.962   -2734.6232    247.29486    11950.123 
      90    294.53149   -3171.3933      -2733.3    198.87069    11950.145 
     100    293.62042   -3170.4881     -2733.75    202.49123    11950.171 
     110    291.03961   -3168.6701   -2735.7707    236.27128    11950.201 
     120    288.52969   -3168.7415   -2739.5754    254.18267    11950.236 
     130    287.45341   -3168.6405   -2741.0753    265.85231    11950.277 
     140    288.33115   -3168.9867    -2740.116    259.12445    11950.324 
     150    290.38134   -3170.8133   -2738.8931    231.20019    11950.375 
     160    291.37384   -3171.7632   -2738.3667     228.6077    11950.432 
     170    289.27665   -3168.8347   -2738.5577    299.91035    11950.494 
     180    284.51106   -3163.6315   -2740.4428    421.67204    11950.562 
     190    279.55125   -3158.9507   -2743.1394      537.795     11950.64 
     200    276.90949   -3157.6057   -2745.7238    590.69088    11950.728 
     210    277.74964    -3158.569   -2745.4374    578.99477    11950.829 
     220    281.84194   -3161.9477   -2742.7292    504.25009    11950.942 
     230    288.23723   -3166.2846   -2737.5535    395.07151    11951.066 
     240    295.14381   -3170.4512   -2731.4471    286.20852    11951.198 
     250    299.93948    -3174.582   -2728.4448    204.02172    11951.336 
     260    300.95598   -3175.3974   -2727.7482    202.94146    11951.479 
     270     298.2498   -3173.4641   -2729.8401    275.36278    11951.626 
     280    293.32436   -3168.6578     -2732.36    404.85476    11951.779 
     290    288.21316   -3166.3523   -2737.6571    505.53843     11951.94 
     300    284.79965   -3162.8722   -2739.2543    593.44324    11952.112 
     310    284.13853   -3162.6394   -2740.0049    604.95747    11952.297 
     320    286.33057   -3164.8038   -2738.9088    546.65108    11952.494 
     330    290.95622   -3168.0168   -2735.2415    438.82033    11952.703 
     340    297.20072   -3173.0222   -2730.9587    284.45396    11952.921 
     350    303.93112   -3177.5794   -2725.5049    124.36784    11953.145 
     360    309.88514    -3181.067   -2720.1363   -14.642107    11953.371 
     370    313.49545   -3182.6424   -2716.3416   -100.20607    11953.598 
     380    313.04208   -3181.3651   -2715.7387   -101.76403    11953.823 
     390    307.70817   -3175.7357   -2718.0431     5.080894    11954.046 
     400    298.42294   -3169.1714   -2725.2899    169.67183     11954.27 
     410    288.09243   -3161.1081   -2732.5924    396.63263    11954.497 
     420    280.05211   -3156.4079   -2739.8516    535.47265    11954.732 
     430    277.31756   -3156.0927   -2743.6038    568.83124    11954.979 
     440    279.76398   -3159.8054   -2743.6777    501.17959    11955.237 
     450    284.38813   -3162.9935   -2739.9877    414.88106    11955.506 
     460    287.74884   -3164.0744   -2736.0698    365.48227    11955.784 
     470    287.97788    -3164.452   -2736.1067    358.38828     11956.07 
     480    285.87088   -3161.5523   -2736.3411    414.87743    11956.363 
     490    284.25793   -3160.3268   -2737.5147    452.50875    11956.665 
     500    285.44387   -3162.1868   -2737.6107    429.14204    11956.977 
     510    290.52036   -3166.4896   -2734.3626     313.3303    11957.297 
     520    297.63066   -3170.1113   -2727.4082    208.72377    11957.624 
     530    303.16132   -3173.9362   -2723.0067    113.99059    11957.956 
     540    304.89291   -3173.2483   -2719.7433    102.63142     11958.29 
     550    303.22093   -3172.6677   -2721.6496    122.14881    11958.626 
     560    300.42033   -3169.9782   -2723.1257    175.43507    11958.966 
     570    299.36239   -3169.4369    -2724.158    192.14718    11959.309 
     580    300.21815   -3168.2689   -2721.7172    205.05816    11959.656 
     590    299.75056   -3165.9065   -2720.0503    249.16236    11960.007 
     600    295.23835   -3164.2535   -2725.1089    326.74257    11960.364 
     610    287.29061   -3158.1434   -2730.8204    452.40354    11960.728 
     620    280.22654   -3152.9055   -2736.0898    581.14668    11961.101 
     630    277.71625    -3151.933   -2738.8511      611.226    11961.486 
     640    281.13795    -3153.264   -2735.0926    553.08706    11961.884 
     650    288.87274   -3159.7514   -2730.0751    393.42554    11962.293 
     660    297.73677   -3165.6843   -2722.8234    229.78771    11962.711 
     670    304.50388   -3171.2447   -2718.3183    93.286758    11963.134 
     680    307.65987   -3174.6179   -2716.9972    19.724389    11963.559 
     690    307.92911   -3174.5894   -2716.5682    16.194056    11963.985 
     700     306.6337   -3173.7659   -2717.6715    40.430297    11964.411 
     710    304.53682   -3171.9259   -2718.9505    52.958373    11964.838 
     720    302.29698   -3170.6527   -2721.0089    83.955607    11965.266 
     730    300.13009   -3171.0079   -2724.5871    88.302239    11965.696 
     740     298.3463   -3169.5077   -2725.7402    100.80361    11966.128 
     750     297.3236   -3170.4768   -2728.2305    68.771047    11966.562 
     760    297.90152   -3169.2019    -2726.096    38.856611    11966.998 
     770    300.65882   -3170.2682    -2723.061   -42.189441    11967.435 
     780    305.61368    -3173.559   -2718.9818   -167.42288    11967.871 
     790    311.66613   -3177.5624   -2713.9826   -306.46687    11968.303 
     800    317.17072   -3180.9471   -2709.1797   -425.13124    11968.729 
     810     320.2172   -3182.4619    -2706.163   -488.93235    11969.147 
     820    319.66522    -3182.943   -2707.4652   -492.70047    11969.554 
     830    315.37907   -3180.4597   -2711.3572   -413.73799    11969.951 
     840    308.49068   -3175.0941   -2716.2376   -263.98773     11970.34 
     850    300.89389   -3171.2457   -2723.6888   -109.86029    11970.724 
     860    294.20788   -3166.0258   -2728.4138    60.370859    11971.105 
     870    289.39125    -3163.079   -2732.6315    192.32125    11971.488 
     880    285.96445   -3160.1199   -2734.7694    307.89003    11971.875 
     890    283.08373   -3158.3046    -2737.239    395.33049    11972.268 
     900    280.91369   -3156.2929   -2738.4551    462.78941     11972.67 
     910    280.34431    -3156.112   -2739.1211    476.49883    11973.081 
     920    282.15921   -3156.3002   -2736.6098    444.94863    11973.503 
     930    286.76859   -3159.7525    -2733.206    335.62184    11973.933 
     940    293.64404   -3163.8906   -2727.1173    188.16766    11974.371 
     950    300.97129   -3166.8775   -2719.2055    45.578889    11974.814 
     960    306.71487   -3169.2198   -2713.0046   -73.338556    11975.257 
     970    310.03593   -3172.0833   -2710.9283   -168.52195    11975.698 
     980    311.33778    -3174.417   -2711.3257   -230.49999    11976.137 
     990    311.69412   -3174.4233   -2710.8019   -251.38499     11976.57 
    1000    312.28359   -3175.6314   -2711.1332   -281.87051    11976.999 
    1010    313.32465   -3176.3486   -2710.3019   -306.88335    11977.421 
    1020    313.93594   -3175.7331   -2708.7771   -311.33857    11977.837 
    1030    313.28754   -3175.4783   -2709.4868   -306.55098    11978.247 
    1040    311.56044   -3174.5173   -2711.0947   -282.69988     11978.65 
    1050    309.94852   -3172.8471   -2711.8222   -249.96941    11979.047 
    1060    308.99417    -3173.712   -2714.1066   -250.60936     11979.44 
    1070    308.50636   -3173.5676   -2714.6878   -246.76956    11979.827 
    1080    308.59071   -3172.6129   -2713.6076   -242.62652    11980.209 
    1090    308.96362   -3172.3751   -2712.8152   -251.90845    11980.586 
    1100    308.91243   -3172.6486   -2713.1648   -267.35487    11980.957 
    1110    308.69773   -3171.2391   -2712.0746   -264.01575    11981.324 
    1120    308.36185   -3171.3274   -2712.6625   -274.48218    11981.685 
    1130    307.71006   -3171.9992   -2714.3038    -287.0411     11982.04 
    1140    307.40161   -3172.1061   -2714.8695   -295.27454    11982.389 
    1150    308.18477   -3170.4263   -2712.0248   -289.97031    11982.733 
    1160    309.05139   -3169.7227   -2710.0322   -292.46297     11983.07 
    1170    308.23586   -3169.1051   -2710.6277   -277.18026    11983.402 
    1180    305.18711   -3167.2923   -2713.3496   -225.53096    11983.728 
    1190    301.16975   -3163.7975   -2715.8304   -144.90346    11984.049 
    1200    298.68368   -3162.7461   -2718.4768   -103.25977    11984.367 
    1210    299.63256   -3161.8366   -2716.1558   -94.241758    11984.683 
    1220    304.05594   -3166.2151   -2713.9549   -174.93541    11984.997 
    1230    309.56035    -3169.064   -2708.6165   -248.50931    11985.308 
    1240     312.9787   -3170.4196   -2704.8875   -285.37842    11985.613 
    1250      312.357   -3169.0057   -2704.3984   -252.10832    11985.912 
    1260    307.87336   -3165.5946   -2707.6563   -158.39652    11986.207 
    1270    301.19032   -3161.4082   -2713.4104   -33.200594    11986.498 
    1280    294.28127   -3158.2635   -2720.5424    82.844386    11986.788 
    1290    289.27186   -3154.6501   -2724.3801    185.15521     11987.08 
    1300     286.8747   -3152.7377   -2726.0334    238.68878    11987.377 
    1310    286.54506    -3154.144     -2727.93    225.33046    11987.678 
    1320    288.62399   -3156.1946   -2726.8883    169.03667    11987.983 
    1330    294.62516   -3160.2783   -2722.0457    44.226965    11988.293 
    1340    304.45365   -3166.5957    -2713.744   -145.76125    11988.603 
    1350    314.76219    -3172.697   -2704.5121   -339.97415    11988.911 
    1360    321.22242   -3175.6244   -2697.8304   -464.04708    11989.211 
    1370    322.30869   -3177.0126   -2697.6029   -516.27822    11989.502 
    1380    319.26554   -3174.2595   -2699.3762   -476.02117    11989.783 
    1390      314.551    -3170.811   -2702.9402    -404.2344    11990.054 
    1400     311.0798    -3169.232   -2706.5244   -357.03427    11990.316 
    1410     310.8523   -3168.7199   -2706.3506   -347.08983     11990.57 
    1420    313.11527   -3168.7863   -2703.0511   -364.76841    11990.818 
    1430     314.9999    -3171.364   -2702.8255   -405.51567    11991.057 
    1440    314.25558   -3172.3547   -2704.9234    -400.6197    11991.289 
    1450    310.29191   -3170.8524   -2709.3167   -333.13938    11991.512 
    1460    304.19055   -3164.2737   -2711.8133   -185.66372    11991.728 
    1470    298.17649   -3159.4656   -2715.9507   -57.336615    11991.941 
    1480    294.56442    -3158.197   -2720.0547    5.5637051    11992.152 
    1490    295.26961   -3158.5623   -2719.3711    4.2464623    11992.364 
    1500    300.68941   -3162.1298   -2714.8771   -80.906136    11992.575 
    1510    308.50386   -3167.3903   -2708.5142    -209.3938    11992.785 
    1520    314.97972   -3171.1187   -2702.6102   -310.50563    11992.991 
    1530    317.96258   -3173.6154   -2700.6702   -367.42618     11993.19 
    1540    318.25274   -3173.8259   -2700.4491   -372.55746    11993.382 
    1550    317.89429    -3173.223   -2700.3793   -359.59086    11993.565 
    1560    317.88687   -3172.5867    -2699.754   -346.81212    11993.742 
    1570    317.42363    -3170.866   -2698.7224   -317.67179    11993.911 
    1580    315.69713   -3168.1868   -2698.6112   -267.52051    11994.073 
    1590    313.03844   -3168.7154   -2703.0945   -244.70465     11994.23 
    1600    310.17074   -3166.8756   -2705.5201   -194.42516    11994.382 
    1610    307.68602   -3163.9709   -2706.3113   -139.68452     11994.53 
    1620    306.60528   -3164.6131    -2708.561   -142.46066    11994.675 
    1630    307.84994   -3167.4284   -2709.5249   -194.45917    11994.817 
    1640    310.66948   -3170.0897   -2707.9924   -261.38058    11994.954 
    1650    312.97693    -3171.365   -2705.8355    -310.1848    11995.087 
    1660     313.5335   -3171.3624   -2705.0051   -329.20496    11995.213 
    1670    312.15193   -3169.4386   -2705.1363   -306.20307    11995.332 
    1680    308.43019   -3167.4341   -2708.6676   -256.51242    11995.444 
    1690    302.78535   -3162.2028   -2711.8326   -150.36054    11995.552 
    1700    297.84308   -3160.0633   -2717.0443   -80.770933    11995.656 
    1710    296.37823   -3160.5868   -2719.7466   -64.718118    11995.759 
    1720    297.69308   -3162.5278   -2719.7319   -83.295132     11995.86 
    1730    298.93935   -3161.0021   -2716.3525   -59.389603     11995.96 
    1740    298.50644   -3159.1674   -2715.1617   -13.895792    11996.059 
    1750    296.22685   -3156.6525   -2716.0375    55.867244    11996.157 
    1760    293.05844    -3154.479   -2718.5768    127.46817    11996.257 
    1770    290.96247   -3153.6561   -2720.8714    169.25459    11996.359 
    1780    292.26446    -3153.604   -2718.8827     166.7164    11996.465 
    1790    297.45633    -3157.139   -2714.6953    86.221353    11996.574 
    1800    303.96966   -3160.6101   -2708.4783    -10.09881    11996.685 
    1810    308.96828   -3163.6163   -2704.0494    -95.03319    11996.796 
    1820    312.54516   -3164.5104   -2699.6232    -148.6175    11996.906 
    1830      315.687   -3165.9053   -2696.3448   -204.17852    11997.012 
    1840    317.35299   -3168.1783   -2696.1398   -254.15534    11997.114 
    1850    315.90875   -3168.0275   -2698.1371    -243.3597     11997.21 
    1860    311.59575   -3165.4758   -2702.0007   -171.80583    11997.302 
    1870    306.83767   -3162.5071   -2706.1093   -81.878959     11997.39 
    1880    303.48486   -3158.8779   -2707.4672    11.171874    11997.477 
    1890    301.37475    -3157.901   -2709.6289    65.358194    11997.564 
    1900    300.21017   -3156.3574   -2709.8176    114.11907    11997.652 
    1910    300.45889   -3156.7848    -2709.875    120.91366    11997.743 
    1920    302.86235   -3157.1709   -2706.6862    99.277302    11997.836 
    1930    307.62414     -3161.59   -2704.0224    3.3490761    11997.932 
    1940    313.99583   -3164.8223   -2697.7772   -101.03002    11998.027 
    1950     319.9658   -3168.4475   -2692.5226   -210.07054    11998.121 
    1960    322.89282   -3169.4284   -2689.1498   -264.78372     11998.21 
    1970     322.2163   -3168.8436   -2689.5712   -269.59118    11998.294 
    1980     319.8637   -3167.6913   -2691.9183   -250.25521    11998.372 
    1990    318.06759   -3165.3272   -2692.2258   -217.06095    11998.446 
    2000    317.08261   -3164.1519   -2692.5156    -199.5142    11998.514 
    2010    316.25009   -3162.7904   -2692.3924   -146.80163    11998.579 
    2020    315.57597   -3165.0872   -2695.6919   -158.95695    11998.641 
    2030    314.45927   -3163.8009   -2696.0666   -118.99028      11998.7 
    2040    311.07061   -3161.7606   -2699.0667   -47.105532    11998.756 
    2050    305.90251   -3158.1216   -2703.1148    56.072016    11998.811 
    2060    301.53217   -3156.4729   -2707.9667    127.20205    11998.868 
    2070    299.45557   -3154.5358   -2709.1183    175.80958    11998.927 
    2080    299.34824   -3153.4066   -2708.1487    189.26874     11998.99 
    2090     300.6288   -3154.6627   -2707.5002    155.25251    11999.057 
    2100    302.90657    -3155.667   -2705.1164    107.29053    11999.127 
    2110    304.97712   -3157.8884    -2704.258     71.54209      11999.2 
    2120    305.83305   -3156.8912   -2701.9877    52.670392    11999.275 
    2130    306.06242   -3157.4222   -2702.1775    22.820948     11999.35 
    2140    306.95434   -3158.1534   -2701.5821   -12.186266    11999.426 
    2150    308.72433   -3158.9752   -2699.7712   -50.453856    11999.502 
    2160    310.68627   -3160.1939   -2698.0717   -86.429525    11999.577 
    2170    312.16275   -3161.2046   -2696.8862    -105.1038    11999.651 
    2180    312.44109    -3162.689   -2697.9566   -107.87228    11999.722 
    2190    310.69761   -3161.3061   -2699.1669   -52.071321    11999.791 
    2200    306.46595   -3157.3877   -2701.5429     61.25986     11999.86 
    2210    300.18089   -3151.2653   -2704.7689    186.20884    11999.929 
    2220    293.99072   -3147.1881   -2709.8992    309.68548    12000.003 
    2230    290.05429   -3140.9573   -2709.5236    428.84661    12000.083 
    2240    289.85243   -3140.8004   -2709.6669    441.09607    12000.173 
    2250    293.11883   -3143.9091    -2707.917    381.79677    12000.271 
    2260    298.42707   -3147.2097   -2703.3221    302.62801    12000.378 
    2270    303.41306   -3150.5523   -2699.2484    228.22578    12000.492 
    2280    305.92752   -3153.3983   -2698.3543     180.2003     12000.61 
    2290    306.23567   -3154.0931   -2698.5907    172.24563    12000.732 
    2300    306.02563   -3153.9125   -2698.7226    173.41714    12000.859 
    2310    305.79857   -3152.3908   -2697.5386    214.26713    12000.989 
    2320    304.87277      -3151.3   -2697.8249    225.46435    12001.124 
    2330    303.19482   -3148.6282   -2697.6489    258.21826    12001.263 
    2340    301.65054   -3146.7086   -2698.0262     280.8875    12001.408 
    2350    301.11543   -3145.4966   -2697.6102    291.05985     12001.56 
    2360    300.91531   -3145.3088   -2697.7201     295.5086    12001.717 
    2370     299.7022   -3146.3804   -2700.5961    304.08124    12001.881 
    2380    297.91734   -3144.6821   -2701.5526    357.26096    12002.052 
    2390    297.17286   -3143.5836   -2701.5615    401.08838     12002.23 
    2400    298.11835   -3142.8787   -2699.4503    430.18296    12002.417 
    2410    299.43812   -3145.4599   -2700.0684    421.43034    12002.613 
    2420    298.91341   -3144.6414   -2700.0304    464.58852    12002.818 
    2430    295.44367   -3141.4902   -2702.0401    554.35309    12003.032 
    2440    290.59917   -3138.4291   -2706.1848     645.3012    12003.259 
    2450    287.97651   -3136.9269   -2708.5837    686.53666      12003.5 
    2460    290.00809   -3139.0805   -2707.7155    633.33591    12003.754 
    2470    295.92199   -3142.3725    -2702.211    521.11201    12004.023 
    2480    303.01328   -3146.0938   -2695.3845    386.50135    12004.302 
    2490    308.56892   -3150.5736   -2691.6007     254.2697     12004.59 
    2500     311.5202   -3152.6956   -2689.3329    171.76077    12004.884 
    2510    312.37222   -3152.6868   -2688.0568    133.64064    12005.182 
    2520    312.07162   -3152.5246   -2688.3417    111.70945    12005.482 
    2530    310.88344   -3152.6657   -2690.2502    100.71044    12005.785 
    2540    308.67426   -3150.6434   -2691.5138    128.85939    12006.091 
    2550    305.94912   -3148.5215   -2693.4454    167.17257    12006.399 
    2560    303.89814   -3145.9555     -2693.93    209.49473    12006.711 
    2570    302.92372   -3145.1973   -2694.6212    225.10647    12007.028 
    2580    303.20144   -3147.2917   -2696.3025    198.38455    12007.349 
    2590    305.61042   -3149.5659   -2694.9936    151.55683    12007.675 
    2600    310.44753   -3152.4894   -2690.7222    77.658317    12008.004 
    2610    316.05303   -3154.2422   -2684.1373    12.954658    12008.335 
    2620    319.81873   -3156.5422    -2680.836   -35.184112    12008.667 
    2630    320.27518   -3156.6494   -2680.2643   -24.212068    12008.998 
    2640    318.20956   -3154.0678   -2680.7552    44.726257    12009.329 
    2650    315.10024    -3153.128   -2684.4403    109.85862    12009.661 
    2660    311.98415   -3150.8741   -2686.8213    194.49216    12009.995 
    2670    308.35496    -3148.789   -2690.1344    284.93732    12010.334 
    2680    303.14062   -3143.0993   -2692.2006    429.49234    12010.679 
    2690    296.69495   -3137.4713     -2696.16    580.36332    12011.033 
    2700    291.47691   -3132.8384   -2699.2886    701.87058      12011.4 
    2710    289.98607   -3133.5833    -2702.251     721.1395    12011.782 
    2720    292.12066   -3135.6855   -2701.1782    682.14406    12012.178 
    2730    295.58479   -3138.0615   -2698.4015    617.22898     12012.59 
    2740    298.49946   -3140.0468   -2696.0515    552.90418    12013.014 
    2750    300.15882   -3141.1489   -2694.6854    504.02029    12013.451 
    2760    300.51674   -3140.9441   -2693.9483    480.01995    12013.899 
    2770    299.68227   -3140.0369   -2694.2823    476.74984    12014.356 
    2780    298.36439   -3138.3926   -2694.5982    491.39596    12014.825 
    2790     297.9511   -3136.9915   -2693.8119    502.60682    12015.304 
    2800    299.29047   -3138.2672   -2693.0953      475.728    12015.793 
    2810    301.76796   -3139.4228   -2690.5658    446.94995    12016.293 
    2820    303.59013   -3140.5086   -2688.9413    425.55444    12016.803 
    2830    304.31151   -3140.4248   -2687.7845    423.55419    12017.322 
    2840    304.97805   -3139.5151   -2685.8834    424.40161    12017.851 
    2850    306.52955   -3138.7024    -2682.763    409.08735    12018.388 
    2860    308.45021   -3139.8585   -2681.0622    363.78291    12018.935 
    2870    309.43098   -3140.7509   -2680.4957    326.35125    12019.489 
    2880      308.988   -3139.9854   -2680.3892    318.00763    12020.051 
    2890    307.94257   -3140.2512   -2682.2099    304.62164    12020.619 
    2900    307.40092   -3139.8199   -2682.5843    296.94019    12021.194 
    2910    307.89328   -3141.6901   -2683.7221    256.07975    12021.776 
    2920    309.71068   -3142.1247   -2681.4536    218.48728    12022.363 
    2930    313.08145   -3144.8323   -2679.1473    138.23357    12022.955 
    2940    318.03788   -3149.5738   -2676.5165    17.111024    12023.551 
    2950    324.02188   -3154.5129   -2672.5549   -117.55916    12024.146 
    2960    329.73387   -3159.7882   -2669.3341   -249.35954     12024.74 
    2970    333.15033   -3164.3737   -2668.8378   -343.89336    12025.328 
    2980    332.80018   -3162.7664   -2667.7513   -325.95995     12025.91 
    2990     328.9652    -3159.378   -2670.0672   -246.88439    12026.486 
    3000    323.42508   -3154.5379   -2673.4676    -130.5729    12027.056 
    3010    318.41323   -3151.3949   -2677.7794   -35.159813    12027.624 
    3020    314.86111   -3149.1519   -2680.8199    36.723017    12028.191 
    3030    312.67242   -3148.2638   -2683.1872    78.532197     12028.76 
    3040     311.7758   -3146.5756   -2682.8327    115.39722     12029.33 
    3050    311.57689   -3147.2208   -2683.7738    121.07125    12029.902 
    3060     310.7875   -3145.3526   -2683.0798    162.68938    12030.478 
    3070    308.44813   -3143.4494   -2684.6562     222.0605    12031.057 
    3080    304.87635   -3140.0274   -2686.5469    309.95227    12031.642 
    3090    301.83066   -3137.1154   -2688.1652    385.94281    12032.233 
    3100    300.91325   -3135.0361   -2687.4504    429.87105    12032.833 
    3110    301.95322   -3135.9092   -2686.7767    417.54364    12033.441 
    3120    303.44368   -3135.5198   -2684.1704    404.82498    12034.059 
    3130    304.68043    -3135.876   -2682.6869    374.38934    12034.686 
    3140    306.52601    -3135.343   -2679.4088    338.29738    12035.322 
    3150    309.92883    -3137.613   -2676.6173     253.2452    12035.964 
    3160     313.8875   -3140.9293   -2674.0454     154.8534    12036.612 
    3170    315.91331   -3141.8408   -2671.9437    105.33389    12037.264 
    3180    314.74654   -3140.9089   -2672.7473    111.08848    12037.919 
    3190    310.99219   -3137.5077   -2674.9304    170.45968    12038.576 
    3200     307.0184   -3135.6657   -2678.9991    211.77992    12039.238 
    3210    305.69644   -3135.1626   -2680.4623    206.63748    12039.904 
    3220    308.04358   -3137.7601   -2679.5686    124.40056    12040.574 
    3230    312.63833   -3139.6937   -2674.6679    19.678059    12041.248 
    3240    317.66185   -3142.4551   -2669.9572   -103.61196    12041.922 
    3250    322.54665   -3144.4645   -2664.7008   -216.34191    12042.595 
    3260    327.44787   -3146.6174   -2659.5635   -323.80232    12043.263 
    3270    331.64172   -3148.6728   -2655.3809   -410.44609    12043.924 
    3280    333.35391   -3150.0411   -2654.2024   -452.10738    12044.577 
    3290    331.73777   -3149.7376   -2656.3028   -431.42528    12045.221 
    3300    327.47092   -3145.7415   -2658.6533   -337.37932    12045.856 
    3310    322.63655   -3142.9166   -2663.0192    -281.2467    12046.484 
    3320    319.95816   -3141.1675    -2665.254   -228.98009    12047.106 
    3330    320.65909   -3141.0523   -2664.0962   -227.77576    12047.724 
    3340     323.3194   -3143.1835   -2662.2704   -269.09579    12048.336 
    3350    324.47801   -3144.9605    -2662.324   -289.75441    12048.944 
    3360    321.78183   -3143.2159   -2664.5898    -230.8629    12049.545 
    3370    315.65372   -3141.6506   -2672.1396   -136.64031    12050.142 
    3380    308.56753   -3136.5491   -2677.5783    7.3866562    12050.737 
    3390    303.56937   -3132.7321   -2681.1957    116.00309    12051.332 
    3400    302.75633   -3131.0898   -2680.7627    153.68697    12051.929 
    3410    306.26778   -3133.9506   -2678.4005    91.985149     12052.53 
    3420    311.65871   -3138.4799   -2674.9112   -15.751352    12053.133 
    3430      316.323   -3142.1209   -2671.6144   -114.62141    12053.735 
    3440    319.32023   -3143.4531   -2668.4885   -176.71384    12054.336 
    3450    321.02054    -3142.858   -2665.3643   -204.52954    12054.934 
    3460    320.86352   -3143.9021    -2666.642   -230.59152    12055.527 
    3470    317.81521   -3141.6786   -2668.9526   -191.56561    12056.116 
    3480    312.51929    -3136.752   -2671.9032   -101.58602      12056.7 
    3490    308.10327   -3136.5054   -2678.2251   -72.843615    12057.283 
    3500    308.13753   -3136.2438   -2677.9126   -85.824876    12057.865 
    3510    313.03499   -3138.2221   -2672.6063    -167.9092    12058.445 
    3520    319.91997   -3141.2784   -2665.4216   -280.02335    12059.021 
    3530    326.03387   -3144.6082   -2659.6575   -385.09651    12059.592 
    3540    330.29026   -3146.9456   -2655.6638    -456.3187    12060.155 
    3550    332.85586   -3149.8538   -2654.7559   -511.36493    12060.709 
    3560    333.96221    -3149.148   -2652.4046   -508.03895    12061.252 
    3570    333.35384   -3149.1315   -2653.2929   -493.98924    12061.785 
    3580    330.80294   -3147.8026   -2655.7582   -448.15261    12062.307 
    3590    326.83869   -3146.3133   -2660.1655   -387.68316     12062.82 
    3600    322.14254   -3143.9345   -2664.7719   -310.69429    12063.325 
    3610    316.72297   -3140.6836   -2669.5822   -184.83151    12063.824 
    3620    310.34903    -3136.631   -2675.0104   -72.369719    12064.319 
    3630    304.83831   -3134.1032   -2680.6793     13.85196    12064.813 
    3640    301.98436   -3131.7312   -2682.5524    69.834798    12065.307 
    3650    302.22672    -3132.056   -2682.5167    64.136722    12065.803 
    3660    304.05975   -3133.2327   -2680.9669    30.862574    12066.301 
    3670    305.07446   -3134.7562   -2680.9811   -4.1573591    12066.799 
    3680    304.10519   -3135.2839   -2682.9505   -12.970356    12067.298 
    3690    301.74735   -3132.7357   -2683.9094    21.487218    12067.796 
    3700    300.13392   -3133.2054   -2686.7789    13.027078    12068.295 
    3710    300.83899   -3132.8056   -2685.3304   -8.5560538    12068.795 
    3720    303.59548   -3135.2872    -2683.712   -83.234058    12069.295 
    3730    307.86069   -3136.7221   -2678.8026    -161.2591    12069.793 
    3740    312.75046   -3139.3856    -2674.193   -255.31925    12070.288 
    3750     316.6196   -3143.0457    -2672.098   -343.81735    12070.778 
    3760    317.71822   -3143.3196   -2670.7378   -361.62059    12071.261 
    3770    315.37251   -3140.5207    -2671.428   -306.58418    12071.736 
    3780    310.42752   -3136.6945   -2674.9571   -209.75681    12072.205 
    3790    303.94323   -3131.9245    -2679.832   -88.152374    12072.671 
    3800    297.30587    -3128.754    -2686.534    12.347233    12073.134 
    3810    292.83413    -3125.421   -2689.8524     116.8258    12073.598 
    3820    292.96429   -3125.0237   -2689.2615    112.77709    12074.065 
    3830    298.07568   -3127.7152   -2684.3502    24.138758    12074.534 
    3840    304.76552   -3132.3413   -2679.0257    -102.7168    12075.004 
    3850    309.27168   -3136.4335   -2676.4153   -203.85808    12075.472 
    3860    311.21883   -3137.7471   -2674.8327    -248.7521    12075.937 
    3870    312.56959   -3137.1868   -2672.2632    -264.6333    12076.396 
    3880    314.22789   -3140.2735   -2672.8833   -319.85059    12076.849 
    3890    315.65672   -3142.2757   -2672.7602   -357.68243    12077.296 
    3900     316.0227   -3143.6377   -2673.5778   -376.03409    12077.736 
    3910    314.93972   -3142.6361   -2674.1871   -352.49827    12078.168 
    3920    312.78247   -3139.8033   -2674.5631    -295.2431    12078.593 
    3930    309.97496   -3137.6847   -2676.6204   -234.86602    12079.011 
    3940    306.31796   -3134.8187   -2679.1939   -157.83829    12079.425 
    3950    302.31368   -3131.4401   -2681.7714   -73.754819    12079.836 
    3960    298.70143   -3128.8692   -2684.5735   -6.4257907    12080.245 
    3970    296.07365   -3127.9356   -2687.5485    28.648703    12080.655 
    3980    295.10896   -3128.4717   -2689.5195    25.172987    12081.065 
    3990    296.40855    -3129.859   -2688.9737   -15.712752    12081.476 
    4000    299.64713   -3132.2597   -2686.5573   -90.148021    12081.886 
    4010    303.56281   -3134.6271   -2683.1004   -173.40151    12082.296 
    4020    306.79667   -3136.3686   -2680.0318   -243.59027    12082.701 
    4030    308.40401   -3136.0079   -2677.2803   -271.82152    12083.102 
    4040    308.23571    -3133.043   -2674.5657   -249.02094    12083.497 
    4050    306.91343   -3131.7428   -2675.2323   -225.39083    12083.888 
    4060     305.0299   -3130.5623   -2676.8534   -189.76022    12084.273 
    4070    303.25777   -3129.7265   -2678.6535   -151.10942    12084.655 
    4080    302.13734   -3128.5771   -2679.1707   -106.77371    12085.034 
    4090    301.19051   -3128.0795   -2680.0814   -66.544944    12085.411 
    4100    299.87121   -3127.3102   -2681.2745    -19.21176    12085.786 
    4110    298.85269   -3129.1484   -2684.6277   -35.074226    12086.161 
    4120    299.26887   -3130.2865   -2685.1468   -34.052925    12086.536 
    4130    300.49574   -3130.8035   -2683.8389    -43.37618     12086.91 
    4140    301.50321   -3131.5621   -2683.0989   -63.349833    12087.283 
    4150    301.83429     -3131.06   -2682.1044   -73.300751    12087.655 
    4160    302.58903   -3131.6424   -2681.5641   -107.88395    12088.026 
    4170     305.3615   -3132.9824   -2678.7803   -175.22863    12088.394 
    4180    310.19762   -3135.2459   -2673.8505   -273.77813    12088.759 
    4190    315.47001   -3138.0795   -2668.8418   -381.55193    12089.118 
    4200    319.63672   -3141.8506   -2666.4152   -485.44338     12089.47 
    4210    322.07146   -3144.5426   -2665.4857   -552.86884    12089.811 
    4220    322.27589   -3147.3837   -2668.0228   -592.43018    12090.141 
    4230    320.09018   -3146.1835   -2670.0736   -560.25784    12090.458 
    4240    316.35088   -3143.1057   -2672.5578   -491.42907    12090.763 
    4250    312.64908   -3141.2423   -2676.2005   -437.60037    12091.059 
    4260    310.22612   -3140.8048   -2679.3669   -413.25419    12091.345 
    4270    308.93429   -3138.7958   -2679.2794   -384.56868    12091.622 
    4280    307.99457    -3137.165   -2679.0464   -362.20806    12091.891 
    4290     306.5131   -3135.6806   -2679.7656   -333.09945    12092.153 
    4300    303.98017   -3132.2766   -2680.1292   -267.20645    12092.408 
    4310    299.85627   -3132.2646   -2686.2511   -185.41241    12092.658 
    4320    293.89486   -3128.5491   -2691.4028   -67.150697    12092.903 
    4330    287.36564   -3123.5002   -2696.0656    72.562604    12093.148 
    4340    281.94103   -3118.0672   -2698.7013    200.19066    12093.394 
    4350    279.12288   -3115.0478   -2699.8736    265.71204    12093.645 
    4360    279.91475   -3115.5623   -2699.2103    247.26544    12093.901 
    4370    284.07329   -3117.9883   -2695.4508    166.37983    12094.162 
    4380      290.091   -3122.4191   -2690.9308    37.637998    12094.427 
    4390    296.48186   -3126.8594   -2685.8651   -98.276949    12094.694 
    4400    302.27271   -3130.9992   -2681.3915   -221.50713    12094.958 
    4410    307.08283    -3136.156   -2679.3935   -363.92073    12095.217 
    4420    309.58516   -3137.7213   -2677.2369   -407.23266    12095.469 
    4430    308.63689   -3136.5985   -2677.5245    -379.8398    12095.712 
    4440     305.0146   -3135.3138   -2681.6277   -320.35226    12095.948 
    4450    301.02386    -3131.932   -2684.1818   -232.10677    12096.176 
    4460    298.28516   -3131.2669   -2687.5903   -186.61043      12096.4 
    4470    296.95844   -3131.8586   -2690.1554   -172.78163     12096.62 
    4480    296.41038   -3132.2046   -2691.3166   -171.14183    12096.836 
    4490    296.72664   -3132.2345   -2690.8761   -180.78238    12097.049 
    4500    298.46824   -3133.9188   -2689.9699   -225.98782    12097.258 
    4510    301.27763   -3136.0917   -2687.9641   -288.49594    12097.462 
    4520     303.8495    -3137.702   -2685.7489   -344.25621    12097.661 
    4530    305.35188   -3136.8551   -2682.6673   -363.01026    12097.852 
    4540    305.66834    -3136.759   -2682.1005   -379.87254    12098.035 
    4550    305.66907   -3138.2822   -2683.6226   -415.05984    12098.211 
    4560     307.0143   -3139.8295    -2683.169   -464.79736    12098.378 
    4570    310.36924   -3142.3902   -2680.7395   -543.90903    12098.535 
    4580     314.5999    -3145.834   -2677.8905   -639.77322     12098.68 
    4590    317.96497   -3149.1998    -2676.251   -723.88612    12098.812 
    4600    319.36618   -3149.8765   -2674.8435   -756.27811    12098.929 
    4610    318.75106   -3148.0922   -2673.9742   -738.13317    12099.029 
    4620    316.30568    -3146.604   -2676.1233   -701.87895    12099.114 
    4630    312.20759   -3146.4577   -2682.0726   -663.06808    12099.184 
    4640    307.17047   -3143.6801   -2686.7873    -589.7951    12099.239 
    4650    302.96866   -3140.7005   -2690.0576   -526.86559    12099.283 
    4660    301.61901   -3141.0363   -2692.4009   -530.58166    12099.314 
    4670    303.80709   -3142.0108   -2690.1208   -574.18511    12099.335 
    4680    307.56577   -3145.6704   -2688.1896   -658.14064    12099.342 
    4690    309.87188   -3148.4442   -2687.5332   -714.05667    12099.336 
    4700    309.61756   -3147.3196   -2686.7869    -696.8596    12099.315 
    4710    307.75995   -3144.4155   -2686.6459    -638.1485    12099.279 
    4720    305.37398    -3143.639   -2689.4183    -593.1022    12099.229 
    4730    302.92073   -3141.3687   -2690.7971   -531.82555    12099.167 
    4740    301.23679   -3139.1131   -2691.0462    -483.0381    12099.093 
    4750    301.23998   -3138.0401   -2689.9685   -468.72592    12099.009 
    4760    302.85568   -3136.9153   -2686.4404   -474.45849    12098.915 
    4770    305.18186   -3138.6548   -2684.7199    -522.6055    12098.811 
    4780    307.00146   -3140.3072   -2683.6658   -568.98579    12098.695 
    4790     307.8172   -3141.2603   -2683.4056   -599.79597    12098.568 
    4800    307.94704    -3142.395   -2684.3471   -624.17815    12098.427 
    4810    307.16923   -3142.2184   -2685.3275   -593.18514    12098.274 
    4820    305.05762   -3139.6269   -2685.8768   -547.01268    12098.107 
    4830    302.07485   -3135.8789   -2686.5654   -477.41834    12097.929 
    4840    299.68541   -3134.9292   -2689.1698   -440.80353    12097.741 
    4850    298.34987   -3134.3501   -2690.5773   -417.98447    12097.543 
    4860    296.99298   -3132.8363   -2691.0818   -385.01494    12097.336 
    4870    293.92598   -3130.2116   -2693.0189   -323.71387    12097.121 
    4880    288.65311   -3128.2193   -2698.8696   -249.45926    12096.899 
    4890    282.97027    -3125.007   -2704.1102   -161.93597    12096.671 
    4900    280.21575   -3122.8614   -2706.0617   -118.56654     12096.44 
    4910    282.56422   -3125.0097   -2704.7168    -201.6575    12096.206 
    4920    288.92237   -3130.1005   -2700.3504    -336.8392    12095.967 
    4930    296.84644   -3133.9252   -2692.3886    -479.5295    12095.721 
    4940    304.37797   -3138.1365   -2685.3974   -623.46829    12095.465 
    4950    310.19395   -3143.7828   -2682.3928   -761.19482    12095.195 
    4960    313.84791   -3146.9973   -2680.1723   -842.62578    12094.909 
    4970    315.40211   -3148.7432   -2679.6065   -876.34092    12094.605 
    4980    314.70747   -3146.5488   -2678.4453   -833.90687    12094.282 
    4990    311.68379   -3145.3534   -2681.7473   -772.68638    12093.941 
    5000    307.19734   -3141.9533   -2685.0206   -672.07843    12093.584 
Loop time of 1.61533 on 1 procs for 5000 steps with 500 atoms

Performance: 267.437 ns/day, 0.090 hours/ns, 3095.335 timesteps/s
98.8% CPU use with 1 MPI tasks x no OpenMP threads

MPI task timing breakdown:
Section |  min time  |  avg time  |  max time  |%varavg| %total
---------------------------------------------------------------
Pair    | 1.3187     | 1.3187     | 1.3187     |   0.0 | 81.64
Bond    | 0.0004375  | 0.0004375  | 0.0004375  |   0.0 |  0.03
Neigh   | 0.024624   | 0.024624   | 0.024624   |   0.0 |  1.52
Comm    | 0.046152   | 0.046152   | 0.046152   |   0.0 |  2.86
Output  | 0.0049086  | 0.0049086  | 0.0049086  |   0.0 |  0.30
Modify  | 0.18126    | 0.18126    | 0.18126    |   0.0 | 11.22
Other   |            | 0.03922    |            |       |  2.43

Nlocal:    500 ave 500 max 500 min
Histogram: 1 0 0 0 0 0 0 0 0 0
Nghost:    1592 ave 1592 max 1592 min
Histogram: 1 0 0 0 0 0 0 0 0 0
Neighs:    14649 ave 14649 max 14649 min
Histogram: 1 0 0 0 0 0 0 0 0 0

Total # of neighbors = 14649
Ave neighs/atom = 29.298
Ave special neighs/atom = 0
Neighbor list builds = 25
Dangerous builds = 0

#write_data      lj-out.data
Total wall time: 0:00:01
