LAMMPS (9 Nov 2016)
Processor partition = 0
# LJ particles
variable        lambda world 400 405 410 415
variable        rep world 0 1 2 3
#variable        walker world 1 0 2 3

variable        T0 equal 300.0
variable        press equal 0.0

units           real
atom_style      full
pair_style      lj/cut 5.0

read_data       "lj.data"
  orthogonal box = (1.06874 1.06874 1.06874) to (23.9313 23.9313 23.9313)
  1 by 1 by 1 MPI processor grid
  reading atoms ...
  500 atoms
  reading velocities ...
  500 velocities
  0 = max # of 1-2 neighbors
  0 = max # of 1-3 neighbors
  0 = max # of 1-4 neighbors
  1 = max # of special neighbors

thermo          10
thermo_style    custom step temp pe etotal press vol

timestep        1.0

fix             fxnpt all npt temp ${T0} ${T0} 1000.0 iso ${press} ${press} 10000.0
fix             fxnpt all npt temp 300 ${T0} 1000.0 iso ${press} ${press} 10000.0
fix             fxnpt all npt temp 300 300 1000.0 iso ${press} ${press} 10000.0
fix             fxnpt all npt temp 300 300 1000.0 iso 0 ${press} 10000.0
fix             fxnpt all npt temp 300 300 1000.0 iso 0 0 10000.0
fix             fxgREM all grem ${lambda} -.01 -30000 fxnpt
fix             fxgREM all grem 400 -.01 -30000 fxnpt
thermo_modify   press fxgREM_press

grem            5000 100 ${lambda} fxgREM fxnpt 10294 98392 #${walker}
grem            5000 100 400 fxgREM fxnpt 10294 98392 
Neighbor list info ...
  1 neighbor list requests
  update every 1 steps, delay 10 steps, check yes
  max neighbors/atom: 2000, page size: 100000
  master list distance cutoff = 7
  ghost atom cutoff = 7
  binsize = 3.5 -> bins = 7 7 7
Memory usage per processor = 5.37943 Mbytes
Step Temp PotEng TotEng Press Volume 
       0    305.69499   -3177.6423   -2722.9442   -91.741776    11950.115 
      10    312.30124   -3182.2257   -2717.7013   -203.95075    11950.113 
      20    314.94567    -3186.456   -2717.9982   -265.56737    11950.108 
      30      312.229   -3183.7641   -2719.3472   -196.90499    11950.097 
      40    305.94068   -3180.7085   -2725.6449   -92.562221    11950.083 
      50    300.42281   -3176.5838   -2729.7277    10.896769    11950.066 
      60    299.16747   -3174.1939    -2729.205    50.094171     11950.05 
      70    301.65965   -3176.0918    -2727.396  0.096901939    11950.035 
      80    304.77876   -3178.2699   -2724.9346   -64.001022    11950.019 
      90    305.60598   -3178.9517    -2724.386   -93.672879    11950.003 
     100     303.8005   -3177.5156   -2725.6354   -74.516709    11949.985 
     110    300.86776   -3175.4773   -2727.9593    -34.22655    11949.965 
     120    298.70177   -3175.6488   -2731.3526   -19.014898    11949.944 
     130    298.39686   -3176.3792   -2732.5365   -21.293245    11949.923 
     140    300.00669   -3177.7032    -2731.466   -40.992937    11949.902 
     150    301.85665   -3178.1312   -2729.1423   -45.715505     11949.88 
     160    301.20597   -3177.3218   -2729.3007   -10.104082    11949.857 
     170    297.01134   -3172.7462   -2730.9643    99.298381    11949.833 
     180      291.279   -3168.3513   -2735.0958    219.47549    11949.812 
     190    287.13954   -3165.1287   -2738.0304    309.36947    11949.796 
     200    286.57735   -3165.2951    -2739.033    323.96954    11949.786 
     210    289.83941   -3167.8245   -2736.7103    271.77305    11949.783 
     220    296.12858   -3171.8054   -2731.3366     172.4056    11949.785 
     230    303.82424   -3176.3108   -2724.3952    56.711479    11949.791 
     240    309.95738   -3180.9789   -2719.9408   -40.992898    11949.798 
     250     312.0405   -3182.3473   -2718.2107   -57.591676    11949.805 
     260    309.65444   -3181.0587   -2720.4712    3.3540332     11949.81 
     270    304.40001   -3176.5798   -2723.8078    130.77028    11949.816 
     280    298.65985   -3174.1505   -2729.9166    237.63562    11949.825 
     290    294.78709   -3170.9701   -2732.4966    326.94924    11949.838 
     300    294.03216   -3169.9567   -2732.6062    349.85486    11949.859 
     310    296.44397   -3172.8519    -2731.914    284.80897    11949.886 
     320    301.41027   -3175.9697   -2727.6447     179.4647     11949.92 
     330    307.88911   -3181.2615   -2723.2998    24.702414    11949.957 
     340    314.73138   -3186.0047   -2717.8656    -132.6263    11949.995 
     350    320.55591   -3187.8509   -2711.0483   -245.88468    11950.031 
     360    323.50274   -3188.9994   -2707.8136   -314.73676    11950.062 
     370    321.61539   -3187.1233   -2708.7448   -293.17446    11950.086 
     380    314.37275    -3181.484   -2713.8784   -169.00448    11950.104 
     390    303.54884   -3174.1675   -2722.6616    12.923999    11950.119 
     400    293.40432   -3167.0348   -2730.6181     187.6624    11950.135 
     410    288.09827   -3165.0462   -2736.5219    288.73219    11950.154 
     420    288.39894    -3167.506   -2738.5345    257.02659    11950.179 
     430    292.44842   -3170.3988    -2735.404    183.32415     11950.21 
     440    296.41903   -3172.5819    -2731.681    119.04878    11950.245 
     450    297.42556   -3172.6229   -2730.2249    110.32185    11950.282 
     460    295.21265   -3170.3483   -2731.2419    161.45782    11950.322 
     470    292.47314   -3168.7682   -2733.7366    214.63619    11950.365 
     480    292.27285   -3168.6447    -2733.911    229.77842    11950.413 
     490    295.93672   -3171.0089   -2730.8254    179.87611    11950.465 
     500    302.21964   -3175.6738    -2726.145    77.320406    11950.521 
     510    308.54629   -3179.5673   -2720.6281   -47.366713    11950.578 
     520    312.01308   -3181.4533   -2717.3575   -99.871864    11950.635 
     530     311.7909   -3182.3734   -2718.6081   -110.61989     11950.69 
     540    309.69086   -3179.6991   -2719.0574   -64.786636    11950.742 
     550    308.61394   -3179.2755   -2720.2356   -49.497159    11950.793 
     560    309.24282   -3177.7344   -2717.7592    -29.06707    11950.843 
     570    308.54187   -3176.6384   -2717.7057    5.2462375    11950.893 
     580    303.45834   -3173.8643    -2722.493    100.76596    11950.943 
     590    294.26292   -3166.8272   -2729.1334    278.24879    11950.996 
     600     284.7829   -3160.7924   -2737.1994    441.46378    11951.054 
     610    279.66528    -3157.473   -2741.4921    525.40741    11951.121 
     620    281.84135    -3158.908   -2739.6903    482.49197    11951.199 
     630    290.32334   -3165.1191   -2733.2851    324.44044    11951.287 
     640    300.96633   -3172.2155   -2724.5509    136.70988    11951.382 
     650    308.97301   -3179.0417   -2719.4678   -21.970723     11951.48 
     660    312.18152   -3182.4699   -2718.1236   -94.902022    11951.578 
     670    311.69432   -3182.6936   -2719.0719   -92.195857    11951.674 
     680     309.2545   -3180.7243   -2720.7317   -42.192638    11951.768 
     690    305.48621   -3177.0999   -2722.7123    38.109043    11951.861 
     700    301.05395   -3174.7507   -2726.9557    106.17351    11951.955 
     710     296.6425   -3173.3653    -2732.132    187.04139    11952.052 
     720    292.55798   -3171.5372   -2736.3794    232.92497    11952.153 
     730    289.91084   -3169.2361   -2738.0157    259.34878    11952.258 
     740    289.91764   -3168.9977   -2737.7672    229.48347    11952.369 
     750    292.77303   -3171.2149   -2735.7372    139.76844    11952.485 
     760    297.68367   -3173.6402   -2730.8583    27.815102    11952.603 
     770    303.19777   -3177.6604   -2726.6767   -103.75586    11952.723 
     780    307.93216   -3180.7583   -2722.7325   -209.65467     11952.84 
     790    310.76421   -3181.7763   -2719.5381   -261.20492    11952.953 
     800    310.63887   -3183.8182   -2721.7664   -280.50085    11953.061 
     810    306.99261   -3181.2342   -2724.6059   -199.74738    11953.163 
     820    300.34358   -3176.7466   -2730.0083   -54.943971    11953.261 
     830    292.38181   -3173.4771   -2738.5813     101.9182    11953.358 
     840    285.06556   -3167.2231   -2743.2097    294.52217    11953.458 
     850    279.60561   -3163.6758   -2747.7836    442.70856    11953.563 
     860    275.68302   -3160.2469   -2750.1893    570.38012    11953.678 
     870    272.55958   -3156.0426   -2750.6308    687.13537    11953.804 
     880    270.55307   -3153.7748   -2751.3476    755.67364    11953.946 
     890    270.48151   -3154.2589   -2751.9382    756.91745    11954.103 
     900    272.88003   -3155.6271   -2749.7387    706.31567    11954.275 
     910    277.94504   -3160.5083   -2747.0861    576.74515    11954.463 
     920    284.76717   -3165.7866    -2742.217      416.762    11954.663 
     930    291.45669   -3168.7375   -2735.2178    280.04569    11954.872 
     940    296.43697   -3170.7936   -2729.8661    174.25093    11955.086 
     950    298.69809   -3172.4539   -2728.1631    106.09201    11955.305 
     960    298.43187   -3172.5297   -2728.6349     86.85884    11955.526 
     970    297.12572    -3172.556    -2730.604    83.494565    11955.749 
     980    297.07542   -3174.6156   -2732.7385    49.658882    11955.974 
     990    299.50975   -3175.7339   -2730.2359    6.0669253    11956.199 
    1000     303.0793   -3176.7002   -2725.8927   -44.704399    11956.426 
    1010     305.2172   -3178.0123   -2724.0248     -85.3392    11956.651 
    1020    304.76861   -3177.7011   -2724.3809   -83.371269    11956.874 
    1030    302.72268    -3176.177      -2725.9   -50.597584    11957.096 
    1040    300.44254    -3174.362   -2727.4765   -11.425678    11957.317 
    1050    298.96723   -3173.2253   -2728.5342    11.641514    11957.538 
    1060    298.81282   -3173.3764    -2728.915    4.5079253    11957.759 
    1070    299.18608   -3174.6777   -2729.6611   -26.003691     11957.98 
    1080    299.29319   -3175.3996   -2730.2237   -53.131885    11958.201 
    1090    299.63061   -3174.4354   -2728.7576   -64.942874    11958.421 
    1100    300.35633   -3176.3665   -2729.6092     -110.316     11958.64 
    1110    300.90695   -3175.9428   -2728.3666   -124.41459    11958.856 
    1120    300.96627   -3176.7654   -2729.1009   -143.37723     11959.07 
    1130    300.83431   -3176.4031   -2728.9349   -141.51879    11959.281 
    1140    300.30707   -3175.3838   -2728.6998   -123.44934    11959.489 
    1150    298.99717   -3172.2524   -2727.5167   -70.637292    11959.694 
    1160    297.18299   -3168.6465   -2726.6093   -4.2528971    11959.899 
    1170    295.22567   -3168.4958     -2729.37    27.003366    11960.103 
    1180    293.41029    -3168.309   -2731.8835    57.440283    11960.307 
    1190    292.41387   -3168.1499   -2733.2064    79.016859    11960.514 
    1200    293.08599     -3167.28   -2731.3368    91.528319    11960.722 
    1210    295.26961   -3168.2229   -2729.0318    67.548828    11960.931 
    1220    297.59685    -3168.867   -2726.2143    43.516344    11961.143 
    1230    298.47173   -3170.1028   -2726.1487    26.029628    11961.355 
    1240     296.8965   -3169.5456   -2727.9346     51.28056    11961.569 
    1250    293.10091   -3166.8255   -2730.8601    123.20572    11961.783 
    1260    288.17135   -3164.1272   -2735.4942    205.71715        11962 
    1270    283.71613   -3161.3549   -2739.3487     285.3574    11962.222 
    1280    280.26348   -3159.1296   -2742.2589    346.37442    11962.449 
    1290    277.97437   -3157.9536   -2744.4878    378.34077    11962.684 
    1300    277.72177   -3158.1535   -2745.0635    366.53439    11962.927 
    1310    281.19795   -3162.5869   -2744.3263    263.42264    11963.178 
    1320    289.34082   -3170.3093   -2739.9367    75.047754    11963.434 
    1330    300.20775   -3175.8021   -2729.2659   -114.57935    11963.692 
    1340    309.45011   -3181.9038   -2721.6202   -292.48279    11963.948 
    1350     313.4937   -3184.3443   -2718.0462   -374.67466    11964.197 
    1360    311.63332   -3183.3059   -2719.7749   -352.92624    11964.439 
    1370    305.40475   -3177.2028   -2722.9364   -224.55427    11964.674 
    1380     297.8551   -3170.7344   -2727.6975   -75.998893    11964.905 
    1390    292.78087   -3168.0489   -2732.5595    4.5668859    11965.134 
    1400    292.46682   -3168.8542   -2733.8319   -4.0234885    11965.363 
    1410    295.95696   -3169.6073   -2729.3938   -54.335794    11965.592 
    1420    300.10339   -3172.5137   -2726.1326   -137.39149    11965.819 
    1430    301.57168   -3173.8657   -2725.3007    -174.4038    11966.044 
    1440     298.7411   -3172.1665   -2727.8117   -130.56988    11966.266 
    1450    292.83246   -3167.2001    -2731.634   -15.053448    11966.485 
    1460    286.89893    -3163.267   -2736.5266    93.055107    11966.704 
    1470      283.892   -3161.1883   -2738.9205    151.64693    11966.925 
    1480    285.70627   -3161.8445   -2736.8781    132.32222    11967.149 
    1490    291.61776   -3167.2494     -2733.49    18.652171    11967.376 
    1500    298.82629   -3172.6104    -2728.129   -110.32079    11967.604 
    1510    304.74121   -3175.2492   -2721.9697   -197.72403     11967.83 
    1520    308.15026   -3177.3697   -2719.0195    -256.0438    11968.051 
    1530    309.75424   -3181.0296   -2720.2936   -312.46175    11968.268 
    1540     310.4805   -3180.5452    -2718.729   -313.51048    11968.478 
    1550    310.34161   -3179.4738   -2717.8642   -298.12922    11968.682 
    1560    308.45347   -3181.4235   -2722.6223   -298.08532    11968.879 
    1570    304.21758   -3177.4452   -2724.9446   -208.15555    11969.071 
    1580    297.97795   -3173.2914   -2730.0718   -94.339841    11969.258 
    1590    291.61299   -3169.7108   -2735.9586    16.822161    11969.444 
    1600    287.06539   -3166.4405   -2739.4525    108.89327    11969.629 
    1610    283.69326   -3163.8843   -2741.9121    207.05025    11969.818 
    1620    280.67366   -3163.2791   -2745.7983    246.67299    11970.011 
    1630    279.33963   -3160.9612   -2745.4646     280.2696    11970.209 
    1640     281.2411   -3163.4091   -2745.0843    221.04273    11970.413 
    1650    286.80659   -3166.5872   -2739.9841    111.18269    11970.621 
    1660     294.7532   -3169.5926   -2731.1695   -20.981741    11970.832 
    1670    301.96613   -3173.1319   -2723.9802   -146.83188    11971.043 
    1680    304.93014   -3173.9437   -2720.3832   -192.44684    11971.251 
    1690    302.18639   -3170.6123   -2721.1329   -125.54022    11971.455 
    1700    295.20298   -3166.0112   -2726.9191    7.3991923    11971.657 
    1710    287.35682   -3159.9421   -2732.5207    141.32935    11971.859 
    1720    282.46111   -3158.2508   -2738.1113    228.80562    11972.063 
    1730    281.54152   -3158.7262   -2739.9545    252.74063    11972.273 
    1740     283.4366   -3157.8147   -2736.2242    260.74675    11972.488 
    1750    286.24401   -3158.5687   -2732.8024    237.11242    11972.708 
    1760    288.87022   -3160.3788   -2730.7063    200.98313    11972.934 
    1770    290.74741   -3160.3616   -2727.8969    191.36933    11973.163 
    1780    291.51633   -3160.1183   -2726.5099    193.10294    11973.397 
    1790    291.87887   -3161.1746   -2727.0269     180.9888    11973.635 
    1800      293.126   -3161.3807    -2725.378    165.60527    11973.877 
    1810    295.74927   -3163.9614   -2724.0567    106.94883    11974.122 
    1820    299.19731   -3167.3607   -2722.3274    28.021726     11974.37 
    1830    302.65491    -3170.632   -2720.4558   -49.625883    11974.618 
    1840    305.20943   -3172.4987   -2718.5228   -99.928846    11974.865 
    1850    306.08831   -3171.5159   -2716.2327    -98.75798     11975.11 
    1860    305.07664   -3169.5157   -2715.7373   -64.605171    11975.354 
    1870    302.43919   -3166.1476   -2716.2922    3.8834278    11975.596 
    1880    298.52049   -3165.5959   -2721.5693    52.971712    11975.838 
    1890    294.48111   -3165.4852   -2727.4668    93.814765    11976.082 
    1900    292.11241   -3163.2201    -2728.725    134.51081    11976.328 
    1910    292.94196   -3164.1736   -2728.4446    100.13717    11976.577 
    1920    296.86993   -3166.9568   -2725.3853    7.5984128    11976.828 
    1930    302.07271   -3169.8107   -2720.5004   -103.41081    11977.079 
    1940    306.02591   -3172.7369   -2717.5466   -205.00711    11977.328 
    1950    306.94241   -3172.4166    -2715.863   -238.87709    11977.573 
    1960    304.69868   -3171.3994   -2718.1832   -228.58312    11977.814 
    1970    300.62656   -3166.6433   -2719.4841   -152.72698    11978.049 
    1980    296.71963   -3164.1046   -2722.7567   -96.894027    11978.282 
    1990    294.55675   -3163.5381   -2725.4073    -72.66868    11978.513 
    2000    293.86172   -3162.3881   -2725.2911    -51.29064    11978.742 
    2010    293.56969   -3162.8319   -2726.1692   -80.777964    11978.969 
    2020    293.48987   -3162.6254   -2726.0814   -80.333988    11979.196 
    2030    294.02748   -3163.6096    -2726.266   -100.54017     11979.42 
    2040    295.89767   -3164.4076   -2724.2823   -131.62486    11979.643 
    2050    299.39902   -3167.1875   -2721.8542   -197.78346    11979.862 
    2060    304.32805    -3169.715   -2717.0501   -269.03798    11980.078 
    2070    309.62259   -3171.6865   -2711.1464   -329.93483    11980.289 
    2080    313.32984   -3172.2249   -2706.1705   -353.62345    11980.493 
    2090    314.14288   -3170.8676   -2703.6039   -321.85066    11980.689 
    2100    311.86588   -3169.4659    -2705.589   -254.47997    11980.879 
    2110    307.08094   -3167.8759   -2711.1163   -160.16805    11981.063 
    2120     301.4608   -3163.7734   -2715.3733   -34.736681    11981.245 
    2130    298.18266   -3160.4112    -2716.887    53.003553    11981.426 
    2140    299.93013   -3162.0414   -2715.9181    32.580583    11981.607 
    2150    305.77267   -3165.6822   -2710.8685   -55.124653     11981.79 
    2160    312.18505   -3168.7716     -2704.42   -148.47486    11981.971 
    2170     316.0279    -3171.232   -2701.1645   -214.03175     11982.15 
    2180    315.87602   -3170.2961   -2700.4545   -205.49734    11982.324 
    2190    312.00352   -3169.0348   -2704.9532   -161.59708    11982.495 
    2200    307.05252   -3163.1279   -2706.4105   -62.369758    11982.662 
    2210    305.27287   -3162.8436   -2708.7733   -57.585381    11982.827 
    2220    308.45091   -3166.5891   -2707.7918   -143.26048    11982.992 
    2230    314.16862    -3170.017    -2702.715   -248.46519    11983.153 
    2240    318.37883    -3173.114   -2699.5496   -334.82741     11983.31 
    2250    318.42563   -3174.5427   -2700.9087   -360.92132    11983.459 
    2260    314.32979   -3170.6372   -2703.0954   -285.15337    11983.601 
    2270    308.16092   -3166.5674   -2708.2013   -184.25674    11983.738 
    2280    302.53083   -3161.6739   -2711.6822   -74.504663     11983.87 
    2290    299.03899   -3158.9676   -2714.1697   -6.7572255    11984.001 
    2300     298.7152   -3158.8526   -2714.5363      3.20611    11984.132 
    2310    301.94039   -3160.0051   -2710.8917   -31.885946    11984.263 
    2320     307.2963    -3161.885    -2704.805   -91.546582    11984.393 
    2330    312.39725     -3164.78   -2700.1127   -157.84241    11984.522 
    2340    316.16919   -3166.4121   -2696.1344   -193.47764    11984.647 
    2350    318.17056   -3166.2301   -2692.9755   -188.20494    11984.768 
    2360    317.81148   -3167.2683   -2694.5478   -173.65225    11984.886 
    2370    315.54476   -3164.1729    -2694.824   -99.286876        11985 
    2380    313.17409   -3164.0376   -2698.2149   -61.194459    11985.113 
    2390    311.96997   -3162.6931   -2698.6614   -26.384928    11985.224 
    2400    311.96474   -3162.6604   -2698.6365   -20.526656    11985.334 
    2410     312.0769   -3163.2299   -2699.0392   -23.879557    11985.444 
    2420    311.35675   -3164.5728   -2701.4532   -26.841066    11985.554 
    2430    309.59976   -3163.7956   -2703.2894    3.6914315    11985.664 
    2440    307.78075   -3163.1115    -2705.311    32.649374    11985.773 
    2450    307.22326   -3161.0178   -2704.0465    65.011167    11985.884 
    2460    308.37317   -3162.7999   -2704.1182    38.261374    11985.995 
    2470    310.48228   -3165.4707   -2703.6519   -8.6057608    11986.108 
    2480    311.58397   -3166.8278   -2703.3703   -34.667393     11986.22 
    2490    310.34807   -3167.7106   -2706.0914   -38.688218    11986.332 
    2500    307.87605   -3164.8946   -2706.9523    3.5292314    11986.443 
    2510    306.59168   -3163.5137   -2707.4818    15.186095    11986.555 
    2520    307.61064   -3163.6399   -2706.0923    -13.58088    11986.666 
    2530    310.25345   -3164.4296   -2702.9511   -66.841543    11986.778 
    2540    313.11147   -3167.4672   -2701.7376   -147.58033    11986.888 
    2550    315.07143   -3166.7602   -2698.1153   -175.68575    11986.995 
    2560    315.73106    -3167.177    -2697.551    -197.0929    11987.099 
    2570    315.48981   -3165.4325   -2696.1653   -174.55877    11987.199 
    2580    314.32113   -3165.1872   -2697.6583    -145.5958    11987.295 
    2590    311.58979   -3162.8717   -2699.4055   -68.496951    11987.389 
    2600    307.70684   -3159.9427   -2702.2521    31.035113    11987.481 
    2610    304.16106   -3157.7639   -2705.3474    120.03921    11987.574 
    2620    302.18014   -3156.8692   -2707.3992    177.99078     11987.67 
    2630     302.5761    -3157.659      -2707.6    192.12172    11987.769 
    2640    305.08447   -3158.1171   -2704.3271    189.28096    11987.873 
    2650    307.45255   -3159.2739   -2701.9615    177.29118    11987.981 
    2660    307.69693   -3159.6982   -2702.0224    188.84521    11988.092 
    2670     306.4505   -3159.9416   -2704.1197    212.69873    11988.208 
    2680    306.07053   -3160.0937   -2704.8369    225.89068    11988.328 
    2690    308.14875   -3159.8791   -2701.5312    216.46898    11988.453 
    2700    311.98495   -3161.0747   -2697.0208    170.89006    11988.583 
    2710    315.08554   -3164.4188   -2695.7529    100.53052    11988.717 
    2720    315.78785   -3165.2779   -2695.5674    70.614261    11988.852 
    2730    314.34834   -3164.4818   -2696.9124    68.803693     11988.99 
    2740    312.72004    -3163.434   -2698.2866    64.298038    11989.129 
    2750    312.76537   -3162.4271   -2697.2123    40.734922     11989.27 
    2760     314.7884   -3163.2381   -2695.0142   -17.832498    11989.411 
    2770    317.15209    -3165.324   -2693.5843   -85.150024    11989.552 
    2780    317.56096   -3166.0081   -2693.6602   -106.82797    11989.692 
    2790    314.20697   -3165.0249   -2697.6659   -63.632056    11989.829 
    2800    307.11585   -3159.7658   -2702.9543    67.698388    11989.966 
    2810    299.33812   -3155.3785   -2710.1357    198.29965    11990.103 
    2820    295.28866   -3152.9041   -2713.6846    273.72823    11990.245 
    2830    297.17867   -3153.9061   -2711.8753    256.32807    11990.393 
    2840    303.04513   -3156.4482   -2705.6916    184.69168    11990.546 
    2850    309.02791   -3159.7255   -2700.0699    100.93891    11990.704 
    2860    312.94471   -3161.6499   -2696.1684    47.308497    11990.863 
    2870    315.12529   -3162.9706   -2694.2457    10.981353    11991.024 
    2880    317.38869   -3164.6113   -2692.5196   -34.263401    11991.185 
    2890    320.61665   -3165.3056   -2688.4126   -80.652788    11991.346 
    2900    323.61362    -3167.037   -2685.6862   -140.09662    11991.505 
    2910    324.89004   -3168.4363    -2685.187   -182.55767    11991.662 
    2920    323.75042   -3166.6808   -2685.1266   -169.94052    11991.814 
    2930    321.15253   -3165.9501     -2688.26   -154.19159    11991.964 
    2940    318.94337   -3166.1336   -2691.7296   -147.69589     11992.11 
    2950    318.03881   -3165.3329   -2692.2743   -136.09331    11992.252 
    2960    317.58285   -3164.9557   -2692.5753   -131.08799    11992.393 
    2970    316.80983   -3165.5597   -2694.3291   -135.54913     11992.53 
    2980    315.72709   -3164.1222   -2694.5021   -119.25988    11992.665 
    2990     314.6729   -3164.4154   -2696.3634   -125.66784    11992.797 
    3000    313.60243   -3163.2556   -2696.7957   -119.06495    11992.927 
    3010    313.16275   -3161.9827   -2696.1768    -117.0338    11993.055 
    3020     314.1186   -3162.6734   -2695.4458   -146.04191    11993.179 
    3030    316.44308    -3163.734   -2693.0489   -185.51809    11993.301 
    3040     318.9675   -3166.6384   -2692.1984   -239.84428     11993.42 
    3050    319.86518   -3166.9038   -2691.1286   -243.72136    11993.533 
    3060    318.16294   -3166.5258   -2693.2825   -212.85038    11993.641 
    3070    315.37945   -3163.8675   -2694.7645   -142.71094    11993.745 
    3080    313.46373    -3161.514   -2695.2605   -78.763138    11993.846 
    3090    311.92375   -3158.4908   -2694.5279   -7.9341643    11993.946 
    3100    309.59422   -3157.0532   -2696.5553    50.119002    11994.045 
    3110    307.77364   -3155.4254   -2697.6354    103.04678    11994.145 
    3120    308.34302   -3157.2027   -2698.5658    96.232126    11994.248 
    3130    310.87863   -3159.8661   -2697.4577    61.218672    11994.353 
    3140     313.3158   -3159.7028   -2693.6693    53.838717    11994.459 
    3150    315.19885   -3159.8401   -2691.0057    41.596376    11994.567 
    3160    318.05051   -3162.0562   -2688.9801   -7.5012204    11994.676 
    3170     322.1036   -3165.0615   -2685.9568   -80.228111    11994.784 
    3180    325.33277    -3167.399   -2683.4911   -143.28768    11994.891 
    3190    326.13838   -3168.5506   -2683.4445   -175.20333    11994.995 
    3200    324.27764    -3166.651   -2684.3125   -149.76628    11995.096 
    3210      320.241   -3162.9407   -2686.6065   -81.782178    11995.193 
    3220    314.98472   -3158.5702   -2690.0543    8.0100877    11995.289 
    3230    309.87578   -3155.0899   -2694.1731    89.075165    11995.386 
    3240    306.07545   -3152.9908   -2697.7267    145.22831    11995.484 
    3250    303.19662   -3151.7553   -2700.7733    182.98279    11995.585 
    3260    300.17132   -3150.6889   -2704.2068    217.46781    11995.691 
    3270    297.18914   -3149.9141   -2707.8678    244.39461    11995.801 
    3280    295.82701   -3149.2737   -2709.2535    251.01231    11995.916 
    3290    297.58376   -3150.2745   -2707.6412    208.92322    11996.037 
    3300    302.66162   -3155.0212    -2704.835    96.336878    11996.162 
    3310    309.45424   -3157.7273   -2697.4376   -4.4234984     11996.29 
    3320    315.17399   -3159.8669   -2691.0695   -81.469775    11996.417 
    3330    317.58532   -3159.5849   -2687.2008    -93.06535    11996.543 
    3340    316.18474   -3159.7103   -2689.4095   -66.010176    11996.668 
    3350    312.25302   -3156.3472   -2691.8945    27.919241    11996.791 
    3360    308.25084   -3153.8624   -2695.3627    114.04202    11996.915 
    3370    306.30999   -3152.0617   -2696.4488    171.23601    11997.042 
    3380    307.33621   -3152.5958   -2695.4565     170.1511    11997.172 
    3390    310.86706   -3155.4207   -2693.0295    112.21039    11997.306 
    3400    315.62154   -3159.0456   -2689.5825    26.897988    11997.442 
    3410    319.85629   -3161.4142   -2685.6522   -41.990477     11997.58 
    3420    321.90094    -3163.801   -2684.9977   -92.369477    11997.716 
    3430    322.07981   -3164.5804   -2685.5111   -107.09077    11997.851 
    3440    321.76365   -3163.4623   -2684.8633   -94.253875    11997.984 
    3450    321.38962     -3162.84   -2684.7973    -85.26403    11998.115 
    3460    320.66018   -3164.0903   -2687.1326   -93.593161    11998.244 
    3470    319.58569   -3162.2249   -2686.8654   -65.607717    11998.371 
    3480    318.88711   -3161.9205   -2687.6001   -59.160604    11998.497 
    3490    319.10349   -3160.1135   -2685.4713   -43.287132    11998.622 
    3500    319.59663   -3160.9871   -2685.6114   -57.607376    11998.746 
    3510    319.38406   -3160.0883   -2685.0287   -47.146495    11998.869 
    3520    318.83421   -3160.2871   -2686.0454   -46.462817    11998.991 
    3530    318.98044   -3158.9688   -2684.5095   -33.595329    11999.112 
    3540    320.08561   -3159.5961   -2683.4931   -45.505268    11999.233 
    3550    320.57577   -3160.2214   -2683.3892   -44.514723    11999.353 
    3560     317.9443   -3158.4181      -2685.5    16.046718    11999.472 
    3570    311.82658     -3155.39   -2691.5716    122.87268    11999.592 
    3580    304.61906   -3150.3412   -2697.2435    255.95258    11999.714 
    3590     299.9834   -3147.7588   -2701.5562    327.32916    11999.842 
    3600    300.30619   -3148.8068   -2702.1241    298.72719    11999.977 
    3610    305.09112   -3154.0812   -2700.2812    166.99562    12000.118 
    3620    311.94672    -3158.075   -2694.0779    19.188622    12000.262 
    3630    318.19146   -3161.2804   -2687.9947   -118.27384    12000.408 
    3640    321.38537   -3163.6829   -2685.6465   -214.41869    12000.551 
    3650    319.78386   -3162.4343   -2686.7801   -215.18858     12000.69 
    3660    313.45173   -3160.2034   -2693.9677   -147.63981    12000.825 
    3670    304.49009   -3155.9953   -2703.0894   -23.030803    12000.956 
    3680    296.37102   -3151.4192   -2710.5898    104.46091    12001.088 
    3690    292.07404    -3148.284    -2713.846    181.80782    12001.221 
    3700    292.89909   -3149.1443   -2713.4791    163.96914    12001.359 
    3710     297.5166    -3151.934   -2709.4006    112.65315      12001.5 
    3720    302.95091   -3154.6237   -2704.0071    25.329385    12001.644 
    3730    306.78794   -3158.2056   -2701.8818   -55.443143    12001.788 
    3740    308.15495   -3158.8023   -2700.4451   -77.657777    12001.932 
    3750    308.12637    -3158.719   -2700.4043   -75.401968    12002.074 
    3760    307.87962   -3158.7511   -2700.8035   -68.618454    12002.215 
    3770    307.48508   -3159.2114   -2701.8506   -63.079713    12002.355 
    3780    306.50785   -3157.5672     -2701.66   -29.228449    12002.493 
    3790    305.16038   -3156.7268   -2702.8239  -0.80311861     12002.63 
    3800    303.98297   -3154.5547   -2702.4031    43.165942    12002.768 
    3810    302.92337   -3152.7273   -2702.1517    86.045685    12002.907 
    3820    301.73247   -3153.5758   -2704.7716    103.72193    12003.048 
    3830    300.66042    -3152.794   -2705.5845    138.30479    12003.191 
    3840    300.45546   -3152.9929   -2706.0882    151.03613    12003.337 
    3850    301.87278   -3153.5056   -2704.4927     140.8039    12003.487 
    3860    304.89013   -3155.3648   -2701.8638    95.845376    12003.639 
    3870    308.52287   -3156.8507   -2697.9463    44.778673    12003.794 
    3880    311.51966   -3158.5666   -2695.2047   -6.6360574     12003.95 
    3890     313.5085   -3161.3167   -2694.9965    -58.95437    12004.106 
    3900     314.4886   -3161.4138   -2693.6358   -68.460008    12004.261 
    3910    314.23457     -3160.28   -2692.8799   -48.362006    12004.414 
    3920    312.42608   -3158.8847   -2694.1746   -7.4714716    12004.567 
    3930    309.05343   -3158.0124   -2698.3189    42.443428     12004.72 
    3940    304.69987   -3155.0281   -2701.8102     119.9258    12004.874 
    3950    300.53346   -3151.7792   -2704.7585    190.20737     12005.03 
    3960    297.57454   -3151.1893   -2708.5697    209.20731    12005.191 
    3970    296.31895   -3150.8289   -2710.0769     198.5232    12005.356 
    3980    296.96425   -3152.4156   -2710.7038    139.40644    12005.525 
    3990    299.55739   -3154.7934   -2709.2245      49.4055    12005.698 
    4000    303.18382   -3155.3753   -2704.4124   -30.011834    12005.872 
    4010    306.12559    -3156.154   -2700.8154   -101.59735    12006.045 
    4020    307.36128   -3156.1736    -2698.997   -141.35263    12006.216 
    4030    307.03316    -3155.399   -2698.7104   -146.75821    12006.385 
    4040    305.79229   -3155.7158    -2700.873   -143.23468     12006.55 
    4050    303.90014   -3155.0704   -2703.0419   -112.46544    12006.713 
    4060    301.25763   -3151.6788   -2703.5809    -37.98648    12006.874 
    4070    298.00544   -3150.3761   -2707.1156    18.714844    12007.034 
    4080    295.43586   -3148.7452   -2709.3068    67.914839    12007.194 
    4090    295.19689   -3151.5863   -2712.5033    41.446963    12007.356 
    4100    297.50451   -3152.0737   -2709.5583    11.823239    12007.519 
    4110    302.11867   -3153.4838   -2704.1051   -80.646798    12007.682 
    4120    307.92401   -3158.8269   -2700.8132   -203.57818    12007.844 
    4130    313.37285   -3160.9164   -2694.7981     -290.764    12008.001 
    4140    317.75735   -3162.7109   -2690.0709   -364.87345    12008.153 
    4150    320.82305   -3165.7517   -2688.5517   -435.81268    12008.296 
    4160    321.72255   -3166.7298   -2688.1919   -457.22554    12008.431 
    4170    319.41775   -3166.0124   -2690.9027   -424.92279    12008.557 
    4180    314.15076   -3162.0512   -2694.7758   -325.03418    12008.674 
    4190    307.22147   -3156.6104   -2699.6418   -192.79969    12008.784 
    4200    300.71344   -3153.2874   -2705.9989    -89.70648     12008.89 
    4210    296.83395   -3149.1777   -2707.6597   -7.1867327    12008.994 
    4220    296.96475   -3149.3919   -2707.6793   -15.913014    12009.098 
    4230    300.95187   -3152.6514   -2705.0083   -99.957113    12009.201 
    4240     307.4099   -3157.5245   -2700.2756   -229.56455    12009.303 
    4250    314.46209   -3162.3985     -2694.66   -364.25104    12009.399 
    4260    319.34474   -3166.2611     -2691.26   -462.86289    12009.489 
    4270    319.43596   -3165.6821   -2690.5453   -461.49344    12009.568 
    4280    314.69748   -3165.1086     -2697.02   -409.32138    12009.638 
    4290    307.84968   -3161.5846   -2703.6815   -298.38146      12009.7 
    4300    301.51438    -3158.788   -2710.3082   -196.42366    12009.755 
    4310    297.09967   -3155.6999   -2713.7867   -80.832821    12009.807 
    4320    295.45695   -3155.6651   -2716.1952   -55.513275    12009.856 
    4330    296.83309   -3154.3868   -2712.8701   -44.309935    12009.905 
    4340    298.85725   -3156.1818   -2711.6543   -72.569322    12009.953 
    4350    299.12009   -3156.6517   -2711.7332   -72.832154    12009.999 
    4360    297.85913   -3157.1442   -2714.1013   -63.268407    12010.044 
    4370    297.00948   -3156.6026   -2714.8235   -50.946025    12010.088 
    4380    298.06022   -3157.7406   -2714.3986   -79.060499     12010.13 
    4390     300.5694   -3159.8671   -2712.7929   -134.73153    12010.171 
    4400    302.68572   -3161.0773   -2710.8552   -177.33064    12010.209 
    4410     303.2289   -3161.9927   -2710.9627   -229.69922    12010.243 
    4420    302.27026   -3160.4786   -2710.8745   -212.52921    12010.273 
    4430    300.53518   -3160.8257   -2713.8024   -205.90588    12010.298 
    4440    298.65782   -3157.9273   -2713.6964   -161.64061    12010.318 
    4450    297.71374   -3157.0836    -2714.257   -149.27291    12010.336 
    4460    298.83123   -3158.8995   -2714.4107     -188.271     12010.35 
    4470    302.09324   -3160.9344   -2711.5936   -253.60153     12010.36 
    4480    305.66639   -3163.3074   -2708.6518   -331.77079    12010.365 
    4490     307.6141   -3164.4893   -2706.9367   -387.27454    12010.362 
    4500    307.67151   -3164.1757   -2706.5377   -410.52097    12010.352 
    4510    307.01696   -3164.5861   -2707.9217   -431.70214    12010.334 
    4520    306.60908   -3163.4493   -2707.3916   -430.25693    12010.306 
    4530    306.02007   -3164.4315   -2709.2498   -439.36463    12010.269 
    4540    303.86902   -3162.1579   -2710.1758   -390.25708    12010.223 
    4550    300.54342   -3160.6956     -2713.66   -334.61034    12010.169 
    4560    298.15229   -3157.0807   -2713.6018   -261.45903    12010.107 
    4570    297.89454   -3158.1452   -2715.0496   -260.61644     12010.04 
    4580    299.68695   -3160.2872   -2714.5256   -293.88356    12009.968 
    4590     302.6513   -3162.9336   -2712.7627   -346.51445    12009.889 
    4600     304.9911   -3165.5686   -2711.9175   -394.01027    12009.803 
    4610     304.7439   -3165.3333   -2712.0498   -385.97344    12009.709 
    4620    301.63965   -3161.5248   -2712.8587   -313.66379    12009.607 
    4630    297.85282   -3159.7664   -2716.7329   -259.37886    12009.498 
    4640    296.33272   -3157.7764   -2717.0039   -223.66823    12009.384 
    4650    298.21803   -3158.0107    -2714.434   -246.30031    12009.265 
    4660     302.4913   -3162.0388   -2712.1059   -338.66187    12009.141 
    4670    307.63216   -3164.7995     -2707.22   -430.15295    12009.009 
    4680    312.56506   -3166.7701   -2701.8533   -511.40326    12008.868 
    4690    316.15749   -3169.7113    -2699.451   -586.92398    12008.717 
    4700    317.30282    -3171.192   -2699.2281    -613.8992    12008.553 
    4710    314.90959   -3170.6255   -2702.2213   -573.60403    12008.376 
    4720    308.37345   -3168.8003   -2710.1182   -471.13001    12008.188 
    4730    298.80347   -3163.5431   -2719.0956   -297.64795    12007.989 
    4740    289.63642   -3158.8075   -2727.9953   -134.88607    12007.784 
    4750    284.95559   -3156.5994   -2732.7496   -47.538504    12007.576 
    4760    286.38948   -3157.3265   -2731.3438   -59.339868    12007.367 
    4770    292.15489   -3161.6709   -2727.1126   -163.67906    12007.157 
    4780    298.66844   -3166.1157    -2721.869   -287.98557    12006.943 
    4790    302.65747   -3167.9957   -2717.8156   -370.65102    12006.723 
    4800    303.16924   -3167.9978   -2717.0565   -405.67026    12006.495 
    4810     301.3508   -3168.0189   -2719.7824   -387.98884    12006.259 
    4820    298.90895   -3166.6972   -2722.0927   -372.15831    12006.015 
    4830    297.71411    -3165.822   -2722.9948    -365.1311    12005.763 
    4840    298.40594   -3167.0163     -2723.16   -388.07202    12005.503 
    4850    299.91086    -3167.183   -2721.0883   -397.09203    12005.234 
    4860    300.49056   -3168.0381   -2721.0812   -394.51206    12004.957 
    4870    298.71671   -3167.9549   -2723.6364   -350.90236    12004.672 
    4880    295.03125   -3162.4958   -2723.6592   -226.44177     12004.38 
    4890     291.8972   -3161.2205   -2727.0456   -151.25293    12004.082 
    4900    290.67819   -3159.6598    -2727.298   -92.943002    12003.781 
    4910    290.77748   -3161.7466   -2729.2372   -122.94087    12003.478 
    4920    290.96729   -3161.2565   -2728.4647   -109.38752    12003.172 
    4930    290.74711   -3160.2319   -2727.7676   -98.738561    12002.863 
    4940    291.60269   -3164.1191   -2730.3822   -159.93842    12002.553 
    4950    294.63927   -3166.7958   -2728.5422   -230.80232    12002.239 
    4960    298.66352   -3171.5701   -2727.3308   -334.59643     12001.92 
    4970    301.12321   -3171.2457   -2723.3478   -368.09662    12001.594 
    4980    300.70746   -3172.3288   -2725.0492   -393.01029    12001.259 
    4990    298.88151   -3170.5167   -2725.9531   -375.09192    12000.917 
    5000     298.2112   -3172.2171   -2728.6505   -408.05702    12000.567 
Loop time of 1.61522 on 1 procs for 5000 steps with 500 atoms

Performance: 267.455 ns/day, 0.090 hours/ns, 3095.550 timesteps/s
99.9% CPU use with 1 MPI tasks x no OpenMP threads

MPI task timing breakdown:
Section |  min time  |  avg time  |  max time  |%varavg| %total
---------------------------------------------------------------
Pair    | 1.3038     | 1.3038     | 1.3038     |   0.0 | 80.72
Bond    | 0.00038171 | 0.00038171 | 0.00038171 |   0.0 |  0.02
Neigh   | 0.023943   | 0.023943   | 0.023943   |   0.0 |  1.48
Comm    | 0.046373   | 0.046373   | 0.046373   |   0.0 |  2.87
Output  | 0.0046856  | 0.0046856  | 0.0046856  |   0.0 |  0.29
Modify  | 0.17719    | 0.17719    | 0.17719    |   0.0 | 10.97
Other   |            | 0.05886    |            |       |  3.64

Nlocal:    500 ave 500 max 500 min
Histogram: 1 0 0 0 0 0 0 0 0 0
Nghost:    1623 ave 1623 max 1623 min
Histogram: 1 0 0 0 0 0 0 0 0 0
Neighs:    14680 ave 14680 max 14680 min
Histogram: 1 0 0 0 0 0 0 0 0 0

Total # of neighbors = 14680
Ave neighs/atom = 29.36
Ave special neighs/atom = 0
Neighbor list builds = 24
Dangerous builds = 0

#write_data      lj-out.data
Total wall time: 0:00:01
