LAMMPS (9 Nov 2016)
Processor partition = 0
# LJ particles
variable        lambda world 400 410 420 430
variable        rep world 1 2 3 4
#variable        walker world 1 2 3 4

variable        T0 equal 300.0
variable        press equal 0.0

units           real
atom_style      full
pair_style      lj/cut 5.0

read_data       "lj.data"
  orthogonal box = (1.06874 1.06874 1.06874) to (23.9313 23.9313 23.9313)
  1 by 1 by 1 MPI processor grid
  reading atoms ...
  500 atoms
  reading velocities ...
  500 velocities
  0 = max # of 1-2 neighbors
  0 = max # of 1-3 neighbors
  0 = max # of 1-4 neighbors
  1 = max # of special neighbors

thermo          10
thermo_style    custom step temp pe etotal press vol

timestep        1.0

fix             fxnpt all npt temp ${T0} ${T0} 1000.0 iso ${press} ${press} 10000.0
fix             fxnpt all npt temp 300 ${T0} 1000.0 iso ${press} ${press} 10000.0
fix             fxnpt all npt temp 300 300 1000.0 iso ${press} ${press} 10000.0
fix             fxnpt all npt temp 300 300 1000.0 iso 0 ${press} 10000.0
fix             fxnpt all npt temp 300 300 1000.0 iso 0 0 10000.0
fix             fxgREM all grem ${lambda} -.01 -30000 fxnpt
fix             fxgREM all grem 400 -.01 -30000 fxnpt
thermo_modify   press fxgREM_press

grem            10000 1000 ${lambda} fxgREM fxnpt 10294 98392
grem            10000 1000 400 fxgREM fxnpt 10294 98392
Neighbor list info ...
  1 neighbor list requests
  update every 1 steps, delay 10 steps, check yes
  max neighbors/atom: 2000, page size: 100000
  master list distance cutoff = 7
  ghost atom cutoff = 7
  binsize = 3.5 -> bins = 7 7 7
Memory usage per processor = 5.37943 Mbytes
Step Temp PotEng TotEng Press Volume 
       0    305.69499   -3177.6423   -2722.9442   -91.741776    11950.115 
      10    312.30124   -3182.2257   -2717.7013   -203.95075    11950.113 
      20    314.94567    -3186.456   -2717.9982   -265.56737    11950.108 
      30      312.229   -3183.7641   -2719.3472   -196.90499    11950.097 
      40    305.94068   -3180.7085   -2725.6449   -92.562221    11950.083 
      50    300.42281   -3176.5838   -2729.7277    10.896769    11950.066 
      60    299.16747   -3174.1939    -2729.205    50.094171     11950.05 
      70    301.65965   -3176.0918    -2727.396  0.096901939    11950.035 
      80    304.77876   -3178.2699   -2724.9346   -64.001022    11950.019 
      90    305.60598   -3178.9517    -2724.386   -93.672879    11950.003 
     100     303.8005   -3177.5156   -2725.6354   -74.516709    11949.985 
     110    300.86776   -3175.4773   -2727.9593    -34.22655    11949.965 
     120    298.70177   -3175.6488   -2731.3526   -19.014898    11949.944 
     130    298.39686   -3176.3792   -2732.5365   -21.293245    11949.923 
     140    300.00669   -3177.7032    -2731.466   -40.992937    11949.902 
     150    301.85665   -3178.1312   -2729.1423   -45.715505     11949.88 
     160    301.20597   -3177.3218   -2729.3007   -10.104082    11949.857 
     170    297.01134   -3172.7462   -2730.9643    99.298381    11949.833 
     180      291.279   -3168.3513   -2735.0958    219.47549    11949.812 
     190    287.13954   -3165.1287   -2738.0304    309.36947    11949.796 
     200    286.57735   -3165.2951    -2739.033    323.96954    11949.786 
     210    289.83941   -3167.8245   -2736.7103    271.77305    11949.783 
     220    296.12858   -3171.8054   -2731.3366     172.4056    11949.785 
     230    303.82424   -3176.3108   -2724.3952    56.711479    11949.791 
     240    309.95738   -3180.9789   -2719.9408   -40.992898    11949.798 
     250     312.0405   -3182.3473   -2718.2107   -57.591676    11949.805 
     260    309.65444   -3181.0587   -2720.4712    3.3540332     11949.81 
     270    304.40001   -3176.5798   -2723.8078    130.77028    11949.816 
     280    298.65985   -3174.1505   -2729.9166    237.63562    11949.825 
     290    294.78709   -3170.9701   -2732.4966    326.94924    11949.838 
     300    294.03216   -3169.9567   -2732.6062    349.85486    11949.859 
     310    296.44397   -3172.8519    -2731.914    284.80897    11949.886 
     320    301.41027   -3175.9697   -2727.6447     179.4647     11949.92 
     330    307.88911   -3181.2615   -2723.2998    24.702414    11949.957 
     340    314.73138   -3186.0047   -2717.8656    -132.6263    11949.995 
     350    320.55591   -3187.8509   -2711.0483   -245.88468    11950.031 
     360    323.50274   -3188.9994   -2707.8136   -314.73676    11950.062 
     370    321.61539   -3187.1233   -2708.7448   -293.17446    11950.086 
     380    314.37275    -3181.484   -2713.8784   -169.00448    11950.104 
     390    303.54884   -3174.1675   -2722.6616    12.923999    11950.119 
     400    293.40432   -3167.0348   -2730.6181     187.6624    11950.135 
     410    288.46351    -3165.273   -2736.2054    252.20051    11950.154 
     420    290.31387    -3168.604   -2736.7841    193.73816    11950.178 
     430    296.35519     -3173.09   -2732.2841    81.521847    11950.207 
     440    301.92973   -3175.4344   -2726.3368   -1.8329439    11950.237 
     450    303.76205    -3176.777   -2724.9539   -35.002096    11950.267 
     460    301.71619   -3174.2731   -2725.4932    14.977875    11950.296 
     470    298.92404   -3172.9921   -2728.3652    64.224747    11950.326 
     480    298.80164   -3172.5329   -2728.0881    82.781347    11950.358 
     490    302.71589   -3175.3703   -2725.1034    27.223049     11950.39 
     500    309.10665   -3179.3013   -2719.5285   -65.460658    11950.424 
     510    314.36408   -3183.2854   -2715.6927   -151.19245    11950.456 
     520    315.71154   -3183.5328   -2713.9358   -163.19151    11950.485 
     530    313.31886   -3182.2521    -2716.214    -125.5741    11950.511 
     540    309.81847   -3178.9358   -2718.1043    -55.55841    11950.534 
     550    308.29687    -3177.837   -2719.2688    -24.39371    11950.556 
     560    308.75927   -3176.3265   -2717.0705   0.93689833    11950.578 
     570    307.52811   -3175.8145   -2718.3897    35.502429      11950.6 
     580    301.75074   -3173.1208   -2724.2894    136.29625    11950.622 
     590    292.37743   -3165.5806   -2730.6913    319.75957    11950.648 
     600    283.57627   -3159.8617   -2738.0635    471.28045     11950.68 
     610    279.85172   -3157.4557   -2741.1975    530.72699    11950.722 
     620    283.40879   -3160.5911    -2739.042    455.28104    11950.775 
     630    292.53718   -3166.3125   -2731.1856    296.63465    11950.838 
     640    302.81112   -3173.3096    -2722.901    113.80844    11950.907 
     650    309.83321   -3179.3684    -2718.515   -26.499431    11950.978 
     660     312.1283   -3182.7335   -2718.4663   -89.363745    11951.049 
     670    311.16363    -3181.867   -2719.0347   -69.370989    11951.118 
     680    308.51041   -3180.6869    -2721.801   -25.972987    11951.186 
     690    304.64393   -3176.8751   -2723.7403    56.592367    11951.254 
     700    300.24456   -3175.4797   -2728.8887    112.34442    11951.323 
     710    296.35785   -3172.9705   -2732.1607    168.18009    11951.394 
     720    293.78145   -3172.1065   -2735.1289    182.81082    11951.468 
     730    293.25707   -3170.8715   -2734.6738    171.04236    11951.547 
     740    295.33219   -3172.9109   -2733.6266    91.351362    11951.629 
     750    299.69136   -3175.2574   -2729.4892   -16.266404    11951.713 
     760     305.2281   -3177.9836   -2723.9799   -137.30615    11951.796 
     770    310.59309   -3182.7053   -2720.7216   -272.72961    11951.877 
     780    314.65573   -3183.4212   -2715.3947     -341.231    11951.952 
     790    316.48606     -3185.44    -2714.691   -388.53602     11952.02 
     800    315.15897    -3186.846   -2718.0709   -384.28316     11952.08 
     810    310.43559   -3183.6648   -2721.9154   -282.61999    11952.133 
     820    303.22265    -3178.464   -2727.4433   -121.47565    11952.179 
     830    295.36843   -3175.4771   -2736.1389    33.066504    11952.223 
     840    288.69698   -3169.5813   -2740.1664    216.10697    11952.268 
     850    283.82649   -3165.7822   -2743.6118    359.56896    11952.317 
     860    280.04102   -3162.8228    -2746.283    475.61942    11952.374 
     870    277.10059   -3159.6212   -2747.4551     572.5432    11952.441 
     880    275.76549   -3158.2545   -2748.0743    616.43304     11952.52 
     890    276.82327   -3158.9703   -2747.2166    596.08147    11952.612 
     900    280.72135   -3162.0637   -2744.5119    506.33695    11952.716 
     910     287.1035   -3167.4388   -2740.3941    356.68688    11952.831 
     920    294.28041   -3171.6218    -2733.902    206.06394    11952.953 
     930    300.36009   -3173.9046   -2727.1418    88.047911     11953.08 
     940    303.86761   -3175.5599   -2723.5798    7.6846808    11953.209 
     950    304.42957   -3176.0831   -2723.2672    -25.15496    11953.339 
     960    303.13982   -3176.0534   -2725.1559   -28.715178    11953.467 
     970    302.30166   -3176.9758    -2727.325   -43.264668    11953.596 
     980    303.93331   -3178.9891   -2726.9114   -88.434034    11953.723 
     990    307.36223   -3180.7316   -2723.5535   -145.46208    11953.849 
    1000    310.09574    -3181.101   -2719.8571   -180.39125    11953.972 
    1010      310.235   -3181.4868   -2720.0358   -191.90411    11954.091 
    1020    308.19801   -3179.7928   -2721.3716   -159.20904    11954.207 
    1030    305.54392   -3179.0117   -2724.5383   -129.70776    11954.319 
    1040    303.55533   -3177.7487   -2726.2332   -101.16033    11954.428 
    1050    302.97012   -3177.4031    -2726.758   -98.393131    11954.536 
    1060    303.42471   -3177.9978   -2726.6766   -120.57409    11954.641 
    1070    303.87651   -3178.5943    -2726.601   -148.24951    11954.744 
    1080    304.42623   -3178.8603   -2726.0493    -175.2792    11954.844 
    1090    305.40115   -3179.9333   -2725.6723   -212.59449    11954.941 
    1100    306.17511   -3179.9535   -2724.5412      -233.07    11955.033 
    1110    306.22139   -3180.6845   -2725.2034    -250.8617     11955.12 
    1120    305.78058   -3180.8355     -2726.01    -251.9505    11955.202 
    1130    304.86475   -3179.4899   -2726.0267   -226.67045    11955.279 
    1140    303.31666   -3177.3407   -2726.1802   -182.01795    11955.351 
    1150    301.33654   -3175.4385   -2727.2233   -132.87524     11955.42 
    1160    299.16563   -3172.3592    -2727.373   -67.361492    11955.486 
    1170    297.09051    -3172.761   -2730.8613   -40.893524    11955.551 
    1180    295.95023   -3170.8791   -2730.6756   0.76662937    11955.614 
    1190    296.88586   -3171.5389   -2729.9437   -6.3458493    11955.678 
    1200    299.75641   -3172.4112   -2726.5463    -35.65643    11955.742 
    1210    302.86154   -3174.2268   -2723.7432   -78.962518    11955.805 
    1220    304.07719   -3176.5166   -2724.2248   -110.61585    11955.866 
    1230    302.16824   -3174.6626   -2725.2102    -67.60929    11955.926 
    1240    297.55291   -3171.9636   -2729.3762    10.691533    11955.984 
    1250    291.94047   -3169.6672   -2735.4279    95.146558    11956.042 
    1260    286.95926   -3167.1232   -2740.2931    177.62365    11956.103 
    1270    283.10733   -3164.2658   -2743.1651    249.98609    11956.167 
    1280    280.89114   -3163.6587   -2745.8544    274.94804    11956.237 
    1290    281.71881   -3164.7725   -2745.7371    242.59041    11956.312 
    1300    287.22269   -3170.9111   -2743.6891    103.63222    11956.392 
    1310     297.0102   -3177.4841   -2735.7039   -84.194729    11956.475 
    1320    307.82776   -3182.7641   -2724.8936   -267.23443    11956.556 
    1330    315.24856   -3186.4834   -2717.5751   -397.54845    11956.631 
    1340    316.71829    -3187.894   -2716.7996   -440.53544    11956.698 
    1350     312.6517   -3185.8174   -2720.7717   -383.17636    11956.756 
    1360    305.10529   -3179.2337   -2725.4127   -235.08904    11956.806 
    1370    297.49121   -3173.1349   -2730.6393   -90.197964    11956.852 
    1380    293.59852   -3172.4913   -2735.7858   -44.805673    11956.895 
    1390    294.92757     -3172.63   -2733.9476   -63.231926    11956.937 
    1400    299.43586   -3173.6647   -2728.2765   -126.91432    11956.978 
    1410    303.43092   -3177.7856   -2726.4551   -220.12437    11957.016 
    1420      303.756   -3179.1149   -2727.3009   -245.35037     11957.05 
    1430    300.01509   -3175.8142   -2729.5645   -176.03009    11957.078 
    1440    294.37783   -3172.9857   -2735.1209    -89.60781    11957.103 
    1450    289.90685   -3168.6833   -2737.4688    3.9026843    11957.127 
    1460    289.06387   -3168.8573   -2738.8967    13.153725     11957.15 
    1470    292.53617   -3172.3725   -2737.2471   -55.096619    11957.174 
    1480    298.44193   -3176.9565   -2733.0467   -159.37163    11957.196 
    1490    304.26808   -3180.4384   -2727.8627    -251.6623    11957.216 
    1500    308.46869   -3182.9932   -2724.1694   -319.10546     11957.23 
    1510    310.88045   -3184.2501    -2721.839   -354.72047    11957.238 
    1520    311.98627   -3185.1848   -2721.1288   -374.13811    11957.238 
    1530    312.29439   -3185.8625   -2721.3483   -382.98305     11957.23 
    1540    311.73245   -3188.0771   -2724.3987   -400.56415    11957.215 
    1550      309.602   -3186.1128   -2725.6033   -354.80462    11957.191 
    1560    304.72457   -3182.7519   -2729.4972   -265.31354     11957.16 
    1570    297.51581   -3178.9208   -2736.3886   -147.25636    11957.123 
    1580    290.61089   -3174.2345   -2741.9729   -20.375298    11957.084 
    1590    285.68563   -3171.7637    -2746.828    62.004097    11957.043 
    1600     283.1016    -3169.241   -2748.1488    116.83347    11957.005 
    1610    283.31839   -3169.5986    -2748.184    104.61606    11956.968 
    1620    286.87277   -3171.7422   -2745.0407    33.084549    11956.934 
    1630    293.62805   -3177.2961   -2740.5466   -110.37635      11956.9 
    1640    301.90519   -3181.7447   -2732.6837   -256.29026    11956.864 
    1650    308.73106   -3186.0374   -2726.8234   -381.47702    11956.822 
    1660    310.87442   -3186.0903   -2723.6881   -409.28329    11956.773 
    1670    307.52768   -3182.8195   -2725.3954   -341.36015    11956.716 
    1680    300.62507   -3177.0949   -2729.9379   -205.94279    11956.652 
    1690     293.1845   -3171.4143   -2735.3246   -60.953819    11956.583 
    1700    287.83634   -3169.4681   -2741.3334    25.781605    11956.513 
    1710    285.91002   -3168.9694   -2743.6999    65.096471    11956.443 
    1720    286.69755   -3168.3977   -2741.9568    77.365974    11956.375 
    1730    288.64176     -3170.16   -2740.8273    50.041914    11956.308 
    1740    290.84317   -3170.5135   -2737.9063    35.012664    11956.243 
    1750    292.51315      -3172.1   -2737.0089    10.409708    11956.178 
    1760    293.01272   -3172.7924   -2736.9581    4.0969725    11956.113 
    1770    293.05051   -3172.6556   -2736.7651     7.379416    11956.049 
    1780    293.94346   -3172.8156    -2735.597   -4.5446589    11955.985 
    1790    296.15824   -3175.2895   -2734.7765   -58.878082     11955.92 
    1800    299.43884    -3177.671   -2732.2784   -124.97055    11955.855 
    1810    302.93828   -3180.2012   -2729.6035   -194.89401    11955.787 
    1820    305.35731   -3183.3411   -2729.1453   -259.05284    11955.715 
    1830    305.66827   -3182.6095   -2727.9511   -257.63931    11955.638 
    1840    304.30538   -3181.9698   -2729.3386   -237.43625    11955.555 
    1850    302.16183   -3181.2153   -2731.7725   -206.04429    11955.467 
    1860    299.64505    -3179.033   -2733.3337    -156.6912    11955.376 
    1870    297.16989   -3177.4083   -2735.3906    -117.8597    11955.281 
    1880    295.24618   -3177.7205   -2738.5642   -112.21945    11955.183 
    1890    294.39905   -3176.6339   -2738.7377   -109.48343    11955.083 
    1900    295.20565   -3178.2066   -2739.1106   -156.94456    11954.981 
    1910    297.22174   -3179.5193   -2737.4245   -214.06365    11954.876 
    1920     298.6524    -3179.139   -2734.9161   -245.10666    11954.766 
    1930    297.92083   -3180.3701   -2737.2354   -269.92288    11954.651 
    1940    295.09054   -3179.0462   -2740.1214   -243.11558    11954.531 
    1950    291.85566   -3175.8794   -2741.7663   -189.07461    11954.406 
    1960    290.44373   -3176.4031   -2744.3901   -190.70549    11954.277 
    1970    292.03935   -3179.0253   -2744.6389   -238.83643    11954.144 
    1980    294.88525   -3181.8076   -2743.1881   -297.06242    11954.005 
    1990    296.12213   -3183.4099   -2742.9506   -326.69136    11953.861 
    2000    294.99168   -3182.6733   -2743.8955   -307.22321     11953.71 
    2010    292.87033    -3179.054   -2743.4315     -244.754    11953.552 
    2020     291.6095   -3176.6561    -2742.909   -200.59965     11953.39 
    2030    292.26913   -3176.5646   -2741.8364   -198.45231    11953.223 
    2040    295.14251   -3177.6596   -2738.6575   -227.30805    11953.052 
    2050    298.72288   -3181.4549   -2737.1272   -288.30372    11952.876 
    2060    300.46384   -3182.6062    -2735.689   -297.43704    11952.695 
    2070    298.70498   -3179.2342   -2734.9332    -220.4673    11952.507 
    2080    294.14884   -3176.2697   -2738.7456     -121.542    11952.315 
    2090    289.85249    -3172.685   -2741.5514   -20.633843     11952.12 
    2100    288.88805   -3172.8536   -2743.1545    3.3764862    11951.925 
    2110     291.5973   -3174.8964   -2741.1675   -34.063279     11951.73 
    2120    296.05289   -3177.6897   -2737.3335   -102.78281    11951.534 
    2130    299.83902   -3180.3117   -2734.3239   -168.59531    11951.335 
    2140    301.54876   -3181.0534   -2732.5224   -197.84799    11951.134 
    2150    301.66906   -3182.3369   -2733.6271   -215.60298    11950.928 
    2160    300.83544   -3181.6847   -2734.2148   -196.91498    11950.718 
    2170    298.90562   -3182.1565   -2737.5571   -175.18892    11950.503 
    2180    296.02925    -3180.563    -2740.242   -120.28322    11950.285 
    2190    293.45204   -3178.7706   -2742.2829   -67.164115    11950.065 
    2200     292.2229   -3179.9602   -2745.3007   -60.835792    11949.842 
    2210    291.66716   -3178.8312   -2744.9984   -37.491078    11949.619 
    2220    290.59722   -3179.5999   -2747.3585   -31.828017    11949.395 
    2230    288.44703   -3180.0557   -2751.0126   -13.963284     11949.17 
    2240    285.62134   -3178.2272   -2753.3871    35.127843    11948.945 
    2250    283.06741   -3175.5206   -2754.4793    90.466527    11948.721 
    2260    281.86142   -3175.1426   -2755.8951    105.75394    11948.498 
    2270    282.38692    -3174.972   -2754.9428    99.344175    11948.278 
    2280    284.34278   -3176.5253   -2753.5869    56.958797     11948.06 
    2290     287.2123   -3176.7016   -2749.4951    19.330676    11947.843 
    2300    290.26182   -3179.6278   -2747.8854   -51.640856    11947.627 
    2310    292.48299   -3181.6202   -2746.5739   -106.37416    11947.409 
    2320    293.37997   -3182.2218   -2745.8413   -135.21956    11947.189 
    2330    293.65192   -3182.8092   -2746.0242   -156.92361    11946.967 
    2340    293.90281   -3183.2523   -2746.0942   -175.14854    11946.741 
    2350     293.9358   -3182.7633    -2745.556    -177.0812    11946.512 
    2360    292.88764   -3182.6213   -2746.9731   -167.88266    11946.279 
    2370    290.45591    -3180.254   -2748.2229   -116.25222    11946.042 
    2380    287.35203   -3178.2375   -2750.8231   -57.542574    11945.803 
    2390    284.73699   -3178.2465   -2754.7218   -24.442348    11945.563 
    2400    284.13674   -3177.8591   -2755.2272   -4.7049138    11945.322 
    2410    285.90176   -3179.5431   -2754.2859   -30.557837    11945.081 
    2420    288.90085   -3182.4314   -2752.7133   -82.220028     11944.84 
    2430    291.58858   -3186.6943   -2752.9784   -147.65926    11944.596 
    2440    293.22264   -3187.2448   -2751.0983   -166.11803     11944.35 
    2450    294.49514   -3187.9523   -2749.9131   -185.43519      11944.1 
    2460    295.78275   -3189.1949   -2749.2405   -214.54627    11943.847 
    2470    296.40981   -3188.3007   -2747.4136    -219.4114    11943.589 
    2480    295.46118   -3187.8198   -2748.3437   -220.84108    11943.326 
    2490    293.05589   -3185.5989   -2749.7005   -194.61514    11943.059 
    2500    290.30423   -3182.4904   -2750.6849   -156.89678    11942.788 
    2510    288.30713   -3179.8729   -2751.0379   -127.77116    11942.513 
    2520     287.3943   -3180.8568   -2753.3795    -141.3194    11942.236 
    2530    287.15137   -3181.8826   -2754.7667   -152.37296    11941.956 
    2540    286.47359   -3182.7532   -2756.6455   -150.05424    11941.673 
    2550    284.88932   -3180.6615   -2756.9102   -99.650653    11941.386 
    2560    282.78905   -3181.2566   -2760.6293    -70.56885    11941.098 
    2570    281.11981   -3179.8938   -2761.7494    -23.00045    11940.808 
    2580    280.68923   -3177.3675   -2759.8635    25.968822    11940.517 
    2590    281.24654   -3176.9312   -2758.5983    42.874715    11940.227 
    2600    281.32224   -3175.9137   -2757.4682    68.822692    11939.938 
    2610    279.77821   -3174.3596   -2758.2108    109.73538     11939.65 
    2620    277.46501   -3172.1698   -2759.4617     157.1825    11939.365 
    2630    276.80102   -3171.8426    -2760.122    160.87322    11939.083 
    2640    279.47093   -3174.0866   -2758.3947     101.3472    11938.804 
    2650    283.90437   -3176.2977   -2754.0115    25.277622    11938.527 
    2660    286.80726    -3178.957   -2752.3529    -41.78442    11938.251 
    2670    286.88319   -3179.5052   -2752.7882   -57.171332    11937.974 
    2680    285.02121   -3179.1782   -2755.2308   -41.227355    11937.696 
    2690    282.13823   -3177.1313    -2757.472    4.9320185    11937.417 
    2700    278.72897   -3174.7361   -2760.1478    56.696151    11937.138 
    2710    276.27863    -3174.673   -2763.7294    67.970239     11936.86 
    2720     276.8258   -3173.8046   -2762.0472    54.814465    11936.584 
    2730    281.03375    -3175.854   -2757.8376   -26.592124    11936.309 
    2740    287.43685   -3179.7344   -2752.1939   -146.71381    11936.033 
    2750    293.85978   -3184.0233   -2746.9292   -264.43575    11935.753 
    2760    298.08463     -3188.06   -2744.6817   -347.78039    11935.469 
    2770    298.44715   -3187.8606   -2743.9431    -334.2637    11935.177 
    2780    294.63685   -3185.5896   -2747.3396   -249.12873    11934.878 
    2790    288.87519   -3184.1476   -2754.4676   -149.00687    11934.574 
    2800    284.29622    -3183.082   -2760.2129   -64.128687    11934.267 
    2810    282.84952   -3182.8772     -2762.16   -23.377089    11933.959 
    2820    283.92477   -3184.4499   -2762.1333   -38.853521     11933.65 
    2830    285.89703    -3185.162   -2759.9118   -68.688697     11933.34 
    2840    287.52243   -3186.8277   -2759.1599   -118.39229    11933.029 
    2850    288.22429   -3185.5223   -2756.8105   -132.44375    11932.716 
    2860    287.66876   -3184.7058   -2756.8203   -140.25412    11932.399 
    2870    286.07264   -3185.4466   -2759.9352   -150.71663     11932.08 
    2880    283.87937   -3183.9551    -2761.706   -124.41379    11931.758 
    2890    281.40595   -3182.6715   -2764.1015   -91.107298    11931.433 
    2900    278.92038   -3182.1645   -2767.2915   -63.227744    11931.106 
    2910    277.33599   -3181.9826   -2769.4663   -46.166948    11930.778 
    2920    277.54639   -3180.7333   -2767.9041   -33.923084    11930.449 
    2930    279.78841   -3182.1267   -2765.9627   -70.031423     11930.12 
    2940    283.42591   -3183.9048   -2762.3303   -122.84213    11929.788 
    2950    287.00885   -3186.4368   -2759.5329   -182.01823    11929.454 
    2960    289.13191   -3188.6691   -2758.6073   -221.78192    11929.117 
    2970    289.80242   -3190.8712   -2759.8121    -242.5833    11928.774 
    2980    289.71882    -3188.501   -2757.5662   -200.61433    11928.427 
    2990    289.28792   -3187.7463   -2757.4524   -167.81517    11928.075 
    3000    288.29093   -3185.8293   -2757.0184   -113.91257     11927.72 
    3010    286.39995   -3185.0377   -2759.0394   -63.647292    11927.363 
    3020    283.03299   -3182.0947   -2761.1046    18.016417    11927.004 
    3030    279.13908   -3179.5897   -2764.3915    91.266711    11926.645 
    3040    277.00886   -3178.3675   -2766.3378    126.10413    11926.289 
    3050    277.52922   -3179.9286   -2767.1249    97.473449    11925.934 
    3060    279.28022   -3180.9789   -2765.5707    56.169213    11925.582 
    3070    280.50581   -3181.4221    -2764.191    21.871616    11925.231 
    3080    280.71535   -3181.4577   -2763.9149   -1.2399493     11924.88 
    3090    280.71008   -3181.0876   -2763.5526   -16.652802     11924.53 
    3100    281.39093   -3180.2449   -2761.6972   -31.661576    11924.179 
    3110    283.53785   -3181.6699   -2759.9289   -83.489368    11923.827 
    3120    287.32332   -3182.5923   -2755.2206   -141.54147    11923.473 
    3130    291.60126   -3184.4923   -2750.7575   -211.84824    11923.117 
    3140     294.4416   -3187.1605    -2749.201   -273.97119    11922.756 
    3150    294.57182   -3187.0052   -2748.8519   -275.06646    11922.389 
    3160    292.05122    -3185.247    -2750.843   -229.30659    11922.017 
    3170    288.22896   -3184.4793   -2755.7606   -178.48488     11921.64 
    3180    284.84441   -3183.8618   -2760.1774   -131.85841    11921.259 
    3190    283.24213   -3183.4856   -2762.1844   -105.96531    11920.876 
    3200    284.17962   -3185.6887    -2762.993   -136.18119     11920.49 
    3210    288.01984   -3188.0803   -2759.6726   -197.80401    11920.101 
    3220     293.9284   -3193.2702    -2756.074   -307.53632    11919.708 
    3230    299.28038   -3196.3883   -2751.2314   -383.77893    11919.308 
    3240    301.19028   -3198.9654   -2750.9676   -415.01387    11918.901 
    3250    298.38677   -3197.4068   -2753.5791   -350.58386    11918.485 
    3260    291.54244   -3192.5447   -2758.8974   -210.42711    11918.061 
    3270    283.01232   -3187.2364    -2766.277   -52.406204    11917.634 
    3280    276.18303   -3183.3012   -2772.4999    67.754649    11917.205 
    3290    274.15441   -3182.1114   -2774.3275    104.52121    11916.777 
    3300    278.04739   -3184.6555    -2771.081    42.022709    11916.351 
    3310    285.55599   -3188.9081   -2764.1652   -70.101989    11915.926 
    3320    292.18331   -3192.4509   -2757.8504   -160.95457    11915.499 
    3330    294.67853   -3193.2901   -2754.9781   -175.17489    11915.069 
    3340    292.24257   -3192.2166    -2757.528   -114.35983    11914.636 
    3350    286.13305   -3187.9495   -2762.3482    20.110178      11914.2 
    3360    279.21252    -3183.414   -2768.1066    164.45532    11913.765 
    3370    274.92976   -3180.4702    -2771.533    262.22476    11913.333 
    3380    275.21707   -3180.1172   -2770.7527    283.69333    11912.906 
    3390    278.74263   -3183.4542   -2768.8456    229.98097    11912.485 
    3400     282.2098   -3185.0407    -2765.275    192.81709    11912.068 
    3410     283.3655   -3186.2992   -2764.8145    176.90258    11911.656 
    3420    282.90623   -3185.7084   -2764.9068    194.07928    11911.247 
    3430    283.44887   -3185.2447    -2763.636      198.414    11910.843 
    3440    287.02155   -3187.9413   -2761.0185    138.44974    11910.442 
    3450    292.45517   -3192.1208   -2757.1159    43.964699    11910.044 
    3460    296.12661   -3194.2256   -2753.7597   -13.734504    11909.648 
    3470    295.79267   -3193.3139   -2753.3447   -4.1454565     11909.25 
    3480    292.30412   -3191.3898   -2756.6096    41.931086    11908.853 
    3490    288.47984   -3189.1152   -2760.0233    91.985259    11908.457 
    3500    287.01977   -3188.6494   -2761.7293    98.066683    11908.062 
    3510    288.66178   -3189.4233   -2760.0608    60.214289     11907.67 
    3520    292.21668   -3192.6282   -2757.9781   -21.335317    11907.278 
    3530    296.18748   -3194.5245    -2753.968   -89.793169    11906.886 
    3540    299.76114   -3195.2398   -2749.3678   -135.30522    11906.492 
    3550    301.69069   -3195.6686   -2746.9266   -155.40989    11906.095 
    3560    300.91235   -3195.6398   -2748.0555   -138.28584    11905.695 
    3570    297.49837   -3191.7818   -2749.2755   -48.793788    11905.292 
    3580    292.47814   -3186.8738   -2751.8347    70.009135    11904.888 
    3590    287.13824   -3182.9383   -2755.8419    179.14135    11904.485 
    3600    283.33095   -3181.4517   -2760.0184    242.79869    11904.086 
    3610    282.79047   -3179.3376   -2758.7082    278.12934    11903.692 
    3620    285.66197   -3181.1603   -2756.2598    232.33707    11903.303 
    3630    290.18733   -3186.1656    -2754.534     129.6244    11902.919 
    3640    293.79793   -3189.1281    -2752.126    51.519342    11902.538 
    3650    295.06711   -3189.5019    -2750.612     19.35454    11902.158 
    3660    294.56935   -3190.4271   -2752.2776   -4.3082228    11901.779 
    3670    293.90408     -3189.14     -2751.98   0.33053389    11901.399 
    3680    293.54239   -3188.9725   -2752.3505   -5.4791073    11901.019 
    3690    292.44266   -3188.3238   -2753.3375    5.9055348     11900.64 
    3700    290.13911   -3186.3544   -2754.7944    47.874604     11900.26 
    3710    288.13723   -3186.8152   -2758.2329    65.230296    11899.881 
    3720    288.58973   -3186.7774   -2757.5221    71.819121    11899.504 
    3730     291.3207   -3187.1746   -2753.8571    58.344201    11899.128 
    3740    293.79103   -3188.4514   -2751.4595    40.324397    11898.753 
    3750     294.1208   -3190.0378   -2752.5554    39.531206    11898.378 
    3760    292.81324   -3189.3662   -2753.8287    78.976055    11898.005 
    3770    291.85745   -3188.3983   -2754.2825    120.92947    11897.634 
    3780     291.6508   -3189.7594   -2755.9509    132.44415    11897.265 
    3790    291.26529    -3189.687    -2756.452    163.16782    11896.898 
    3800    290.06525   -3188.8189   -2757.3688    212.88591    11896.535 
    3810     287.5932   -3186.7195   -2758.9464    290.32833    11896.177 
    3820    283.93992    -3184.503   -2762.1639    379.81111    11895.824 
    3830      280.321    -3180.996   -2764.0398    477.37381     11895.48 
    3840    278.86365    -3181.002   -2766.2135    508.71444    11895.145 
    3850    280.44014   -3181.6742   -2764.5408    496.47254    11894.821 
    3860    284.24408   -3186.6905    -2763.899    406.83197    11894.506 
    3870    289.19592   -3188.7723   -2758.6153    333.23842      11894.2 
    3880    294.55292    -3192.692   -2754.5669     232.8333    11893.901 
    3890    299.29151   -3194.6279   -2749.4545    162.07617    11893.607 
    3900    301.58127   -3194.8307   -2746.2514    136.92412    11893.316 
    3910    300.31795   -3195.0721   -2748.3719    148.35298    11893.028 
    3920    296.08215    -3194.159   -2753.7592     204.2273    11892.743 
    3930    290.79318   -3189.2657   -2756.7329    316.93648    11892.463 
    3940    286.86202   -3185.0006   -2758.3151    411.19413    11892.189 
    3950    285.44347   -3185.0101   -2760.4345    434.30675    11891.924 
    3960    285.44284     -3185.68   -2761.1054    434.17629    11891.667 
    3970    285.46491   -3186.0961   -2761.4887    433.68526    11891.419 
    3980    285.28945   -3185.3295   -2760.9831    446.27005     11891.18 
    3990    286.01737   -3185.0177   -2759.5886    442.96278    11890.951 
    4000    289.35136   -3187.3279   -2756.9397     385.4958     11890.73 
    4010    294.93595   -3189.9216   -2751.2267    301.55375    11890.517 
    4020    300.71539   -3191.9829   -2744.6915    217.68431    11890.311 
    4030    304.89246   -3194.3064   -2740.8019     141.5885    11890.109 
    4040    306.17798   -3195.6557   -2740.2392    100.10824     11889.91 
    4050    304.12915   -3194.1685   -2741.7994     119.0255    11889.713 
    4060    300.23596   -3192.0033   -2745.4251    163.81987    11889.518 
    4070    297.08207   -3189.5296   -2747.6425    210.15236    11889.327 
    4080    296.22104   -3188.2919   -2747.6856    230.63286    11889.141 
    4090    296.75813   -3187.4434   -2746.0381    245.52941    11888.959 
    4100    296.34426   -3189.2574   -2748.4677    250.56466    11888.782 
    4110    293.52157   -3187.1282   -2750.5371    331.58379    11888.611 
    4120    288.69507   -3182.7667   -2753.3547    462.56782    11888.447 
    4130     283.7448   -3181.3523   -2759.3034    564.23767    11888.292 
    4140     280.1599   -3178.1992   -2761.4826    671.11082     11888.15 
    4150    277.86015   -3176.2785   -2762.9826    747.36184     11888.02 
    4160    276.19273   -3176.0821   -2765.2663    792.78732    11887.907 
    4170    274.52722   -3174.5692   -2766.2308     844.9549     11887.81 
    4180    273.61236   -3172.7548   -2765.7771    883.22109     11887.73 
    4190    275.93653   -3176.8667    -2766.432    815.61212    11887.669 
    4200    282.94963   -3182.4571    -2761.591    681.14421    11887.624 
    4210    292.41865   -3188.0683   -2753.1177    515.36836    11887.594 
    4220    300.95619   -3193.1972   -2745.5477    354.82653    11887.574 
    4230    307.14313   -3197.7041    -2740.852    217.38369    11887.562 
    4240    311.47473   -3201.6518   -2738.3568    102.90389    11887.554 
    4250    314.45965   -3202.3526   -2734.6177    41.580937    11887.549 
    4260    315.81119   -3202.1129   -2732.3677    12.898915    11887.545 
    4270    315.47254   -3201.4224   -2732.1809    12.797997    11887.541 
    4280    314.07114   -3199.6451   -2732.4881    45.347212    11887.538 
    4290    311.66446   -3196.4238   -2732.8466    111.60509    11887.536 
    4300    307.88836   -3192.9686   -2735.0081    198.15257    11887.536 
    4310    302.24374   -3189.0836    -2739.519    306.58959    11887.541 
    4320    295.65081   -3184.3203   -2744.5622    429.19908    11887.551 
    4330    290.71575   -3181.5655   -2749.1479    509.38582    11887.571 
    4340    289.45699   -3181.3474   -2750.8021    525.34787    11887.602 
    4350    291.39289   -3183.6101   -2750.1853     484.8807    11887.643 
    4360    294.17764   -3185.2367   -2747.6698     442.8699    11887.694 
    4370    296.20085   -3186.4947   -2745.9184     411.9539    11887.755 
    4380     297.5942   -3186.5493   -2743.9004    403.69876    11887.824 
    4390    299.00078   -3187.0061   -2742.2651    393.87439    11887.902 
    4400    300.23901   -3188.2732   -2741.6904    380.40822    11887.988 
    4410    300.42665   -3188.0615   -2741.1996    396.58249    11888.082 
    4420    300.12959   -3187.6659   -2741.2459     423.4334    11888.184 
    4430    300.87596   -3187.0333   -2739.5032    448.07165    11888.296 
    4440    303.07008   -3187.8719   -2737.0781    445.78512    11888.416 
    4450    305.64057   -3190.5336   -2735.9164    417.88533    11888.546 
    4460    307.80943   -3192.0103   -2734.1671    401.20024    11888.685 
    4470    309.70713   -3192.9158   -2732.2499    385.70261    11888.832 
    4480    311.53298   -3193.6431   -2730.2614    367.69519    11888.988 
    4490    312.46935   -3194.4471   -2729.6727    355.30126    11889.151 
    4500    311.42442   -3194.8781   -2731.6579    365.22916    11889.322 
    4510    308.41057   -3192.3135   -2733.5761    427.92569      11889.5 
    4520    304.15749   -3187.8896   -2735.4784    523.35446    11889.688 
    4530      299.482   -3184.3778    -2738.921    610.10071    11889.887 
    4540    295.49355   -3183.0308   -2743.5066    660.55199    11890.098 
    4550    293.76209   -3181.7148   -2744.7659    682.48823    11890.323 
    4560     295.7337   -3181.3721   -2741.4906    654.76542    11890.563 
    4570    300.94278   -3184.7242   -2737.0947    554.90815    11890.816 
    4580     306.8315   -3187.4663   -2731.0777    457.11308    11891.081 
    4590    310.82355   -3190.5396   -2728.2131    377.71024    11891.356 
    4600    311.55978   -3191.8834   -2728.4618    355.20363    11891.639 
    4610    308.71355    -3190.227    -2731.039    407.83104     11891.93 
    4620    302.70573   -3184.8013   -2734.5494    536.75917    11892.229 
    4630    295.23308   -3179.3454   -2740.2085    679.71992     11892.54 
    4640    289.07429   -3173.8335   -2743.8575    806.68637    11892.865 
    4650    286.87521   -3171.1737   -2744.4685    859.36525    11893.207 
    4660      289.383   -3172.6409   -2742.2056    817.22061    11893.567 
    4670    294.53231   -3176.6201   -2738.5256    716.45645    11893.944 
    4680    299.19478   -3180.2778   -2735.2483     617.5589    11894.336 
    4690     302.1475    -3181.372   -2731.9504    557.59925    11894.742 
    4700     304.7035   -3183.7822   -2730.5588    484.10041    11895.159 
    4710    307.97755   -3186.6666   -2728.5733    401.45226    11895.587 
    4720    310.41452   -3190.4491    -2728.731    323.36858    11896.023 
    4730    309.52445   -3188.9021    -2728.508    343.48999    11896.467 
    4740    305.23668   -3186.4532   -2732.4368     415.2921    11896.918 
    4750    299.42298   -3181.8283   -2736.4593      533.802    11897.378 
    4760    294.15574   -3177.9615   -2740.4272    642.73124     11897.85 
    4770    291.67726   -3176.0492   -2742.2013    702.91767    11898.335 
    4780    294.03678   -3177.5655   -2740.2081    679.39579    11898.835 
    4790    300.04386   -3180.5411   -2734.2486    604.12831    11899.349 
    4800    306.13768   -3183.0511   -2727.6945    530.43672    11899.877 
    4810    309.16388   -3184.9955   -2725.1377     488.3761    11900.416 
    4820    308.10332   -3182.8247   -2724.5443    523.97687    11900.965 
    4830    304.71837   -3181.5065    -2728.261    566.97889    11901.525 
    4840    301.23224   -3178.8131    -2730.753    621.97595    11902.098 
    4850    298.83007   -3177.3579   -2732.8708    648.91992    11902.684 
    4860    297.82895    -3175.767    -2732.769    658.29387    11903.284 
    4870    298.77407   -3177.5577   -2733.1539    608.34999    11903.897 
    4880    301.80556   -3179.5257   -2730.6128    536.70243    11904.524 
    4890    306.05363    -3181.763   -2726.5314    451.14625    11905.162 
    4900    310.24636   -3184.3559   -2722.8879    365.47724     11905.81 
    4910    312.76041   -3185.0643   -2719.8569    319.78536    11906.467 
    4920    312.98297   -3186.2503   -2720.7119    291.53237     11907.13 
    4930    312.20449   -3184.1556   -2719.7751    310.98383      11907.8 
    4940    312.01399   -3183.5034   -2719.4062    311.92634    11908.477 
    4950    312.92601   -3182.9141   -2717.4604     304.7554    11909.161 
    4960    314.24071   -3185.2208   -2717.8116    261.78331    11909.851 
    4970    314.93981   -3186.2086   -2717.7595    237.58245    11910.547 
    4980    314.51563   -3184.0983   -2716.2801    257.29722    11911.249 
    4990    313.23302   -3183.1423    -2717.232    274.31377    11911.957 
    5000    311.06982   -3183.8487   -2721.1559    283.13109    11912.671 
    5010     308.0476    -3181.105   -2722.9075    340.51377    11913.391 
    5020    305.27407   -3178.7899   -2724.7178    394.35755    11914.119 
    5030    304.23282   -3177.0841   -2724.5609    431.74273    11914.856 
    5040    304.27882   -3175.3032   -2722.7115    465.47513    11915.602 
    5050     303.2807   -3173.7644   -2722.6574    505.37905    11916.359 
    5060    300.70672   -3170.5403   -2723.2619    572.39804    11917.126 
    5070    298.28246   -3170.1777   -2726.5051    598.45175    11917.906 
    5080    297.74887   -3168.1589     -2725.28    617.07943    11918.699 
    5090    299.33405   -3170.5519   -2725.3152    558.71945    11919.505 
    5100    302.66349   -3172.1093   -2721.9203    490.54109    11920.323 
    5110    306.45947   -3175.6839   -2719.8487    397.46284    11921.152 
    5120    308.39646   -3177.7803    -2719.064       341.18     11921.99 
    5130    307.23031   -3176.7985   -2719.8167    349.85224    11922.836 
    5140    304.17362   -3175.9001   -2723.4649    375.73453    11923.689 
    5150    301.63053   -3172.8388   -2724.1862    424.02143    11924.551 
    5160    300.66373   -3172.9163   -2725.7018    425.74922    11925.423 
    5170    300.91128   -3173.1299   -2725.5472    416.60006    11926.303 
    5180    301.87371   -3173.5491   -2724.5349    401.09543    11927.194 
    5190    303.57395   -3174.1884   -2722.6452    378.95645    11928.093 
    5200    305.95019   -3176.5846   -2721.5069    332.87492        11929 
    5210    308.33853   -3177.8055   -2719.1753    300.21127    11929.915 
    5220    310.15938   -3176.2904   -2714.9518     302.5324    11930.838 
    5230    311.50839   -3178.4148   -2715.0697    266.35985    11931.767 
    5240    312.91345   -3179.3951   -2713.9601    237.43406    11932.702 
    5250     314.7969   -3180.5597   -2712.3231    198.28424    11933.642 
    5260     316.6332   -3180.9071   -2709.9392     165.9427    11934.588 
    5270    317.12069   -3181.2935   -2709.6005     144.9462    11935.538 
    5280     314.7395   -3180.5982   -2712.4471    162.15743    11936.491 
    5290    308.95697   -3177.2901   -2717.7401    239.86272    11937.449 
    5300     300.9919   -3172.2994   -2724.5968    356.09661    11938.412 
    5310    293.88991   -3168.0083   -2730.8694    457.10431    11939.383 
    5320    290.55439   -3167.6273   -2735.4497    483.05986    11940.365 
    5330    291.14242   -3168.8885   -2735.8362    459.76889    11941.357 
    5340    293.11113     -3170.26   -2734.2794    425.13974    11942.359 
    5350     294.1063   -3170.8649    -2733.404    408.70342    11943.371 
    5360    293.37349   -3170.4691   -2734.0983    419.16904    11944.392 
    5370    291.20485   -3168.8735   -2735.7284     452.3818    11945.423 
    5380    288.91058   -3166.5389   -2736.8063    488.01878    11946.464 
    5390    288.52962   -3164.9289   -2735.7629    489.57889    11947.516 
    5400    291.62573   -3165.9825   -2732.2113    425.86474    11948.579 
    5410    297.05442   -3168.1632   -2726.3172    325.20808    11949.651 
    5420    302.04048   -3170.1828   -2720.9205    225.17256    11950.731 
    5430    304.93822   -3172.6795   -2719.1071    132.58858    11951.816 
    5440    306.49063   -3173.3778   -2717.4962     67.44468    11952.905 
    5450    308.17596   -3174.6899   -2716.3015    -8.864409    11953.995 
    5460    310.58726    -3175.949    -2713.974   -94.634729    11955.087 
    5470    314.02725   -3177.8788    -2710.787   -198.32366    11956.177 
    5480    318.64207    -3180.843   -2706.8871   -317.39932    11957.263 
    5490    322.32776   -3183.8565   -2704.4184   -417.44647    11958.344 
    5500    322.71504    -3185.242   -2705.2278    -458.4954    11959.417 
    5510    319.57172   -3183.1434   -2707.8047   -418.34725    11960.481 
    5520    314.10454   -3180.0542   -2712.8475   -336.79775    11961.537 
    5530    308.20808   -3175.1121   -2716.6759   -225.40727    11962.587 
    5540    303.96229     -3174.54   -2722.4192    -173.4848    11963.632 
    5550    302.19295   -3173.0902   -2723.6011   -131.77126    11964.675 
    5560    302.28987   -3173.2522   -2723.6189   -122.61911    11965.715 
    5570     302.6213   -3174.6246   -2724.4984   -126.29703    11966.754 
    5580    301.09491   -3174.1252   -2726.2694   -91.523617    11967.791 
    5590     297.0163   -3170.7756   -2728.9863   -3.1369371    11968.827 
    5600    291.78217   -3166.8046   -2732.8007    98.559133    11969.863 
    5610    287.87971   -3164.7585   -2736.5593    160.99242    11970.902 
    5620    286.95524   -3164.3939   -2737.5697    170.16893    11971.945 
    5630    289.10254   -3165.3728   -2735.3547    127.01058    11972.993 
    5640    293.71079   -3167.1701   -2730.2976    43.597744    11974.043 
    5650    299.66019     -3170.37   -2724.6482   -73.155869    11975.096 
    5660    305.33425   -3174.5686   -2720.4071   -200.01273    11976.147 
    5670    309.25476   -3176.3049   -2716.3119   -281.10625    11977.195 
    5680    310.61505    -3176.632   -2714.6156   -317.28669    11978.238 
    5690    309.48097    -3173.751   -2713.4215   -287.51599    11979.275 
    5700    306.81817   -3173.5587   -2717.1899   -265.46028    11980.306 
    5710    303.53252   -3171.6487   -2720.1671    -216.1791    11981.333 
    5720    300.74278   -3169.6714   -2722.3393   -172.11034    11982.356 
    5730    299.47977   -3169.6096   -2724.1561   -168.10892    11983.375 
    5740    300.16393   -3171.3476   -2724.8765   -208.97801    11984.392 
    5750    302.41866   -3171.6134   -2721.7886   -253.13703    11985.405 
    5760     305.0089   -3173.6735   -2719.9959   -321.55983    11986.413 
    5770    306.76289   -3174.7952   -2718.5086    -368.0815    11987.416 
    5780    307.12384   -3174.2181   -2717.3947   -374.62601    11988.411 
    5790    305.92998   -3173.1515   -2718.1039    -351.3157    11989.399 
    5800    303.69044   -3170.6143   -2718.8977   -292.18167     11990.38 
    5810    301.78667   -3169.0886   -2720.2038   -238.82319    11991.356 
    5820    301.08057   -3168.7385    -2720.904   -204.96524    11992.327 
    5830    300.67154   -3170.4274   -2723.2012   -198.92655    11993.295 
    5840    299.59894   -3169.1803   -2723.5496    -162.1511    11994.259 
    5850    298.71963   -3168.5898    -2724.267   -141.57665     11995.22 
    5860    299.08503   -3171.0452   -2726.1789   -169.08163    11996.179 
    5870    299.60558   -3171.2359   -2725.5953    -173.7058    11997.135 
    5880    298.06255   -3170.4735    -2727.128   -150.35809    11998.088 
    5890     293.8512   -3165.3388   -2728.2574   -57.610373    11999.039 
    5900    289.20251   -3161.4983   -2731.3315    21.914522    11999.989 
    5910    287.33193   -3159.9976   -2732.6131    47.788235    12000.941 
    5920    289.63284    -3160.694   -2729.8871    9.6583351    12001.893 
    5930    294.61048   -3163.0043   -2724.7936   -71.795028    12002.847 
    5940    299.57011   -3166.8766   -2721.2888   -171.95479      12003.8 
    5950    302.91591   -3168.3793   -2717.8148   -234.34389    12004.749 
    5960    304.94715   -3169.6819   -2716.0961   -285.61935    12005.695 
    5970    306.83324   -3170.7579   -2714.3667   -336.13539    12006.635 
    5980    309.44054   -3171.9126   -2711.6432   -397.46131    12007.569 
    5990    312.67501    -3172.034   -2706.9537   -455.15122    12008.495 
    6000    315.39503   -3174.4453    -2705.319   -533.82643    12009.411 
    6010    316.54109    -3176.226   -2705.3952   -588.48228    12010.317 
    6020    315.62464   -3176.6599   -2707.1921   -605.06641    12011.212 
    6030    313.10329   -3174.4697   -2708.7523   -573.88048    12012.094 
    6040    310.09975   -3173.1516   -2711.9017   -546.99864    12012.964 
    6050    307.56541   -3169.7764   -2712.2961   -501.70864    12013.824 
    6060    305.10546   -3168.2892   -2714.4679   -479.11067    12014.673 
    6070    302.05244   -3166.9463   -2717.6661   -455.56476    12015.513 
    6080    298.67184   -3163.5487   -2719.2969   -407.79229    12016.344 
    6090    295.46027   -3161.9709   -2722.4962   -381.73279    12017.167 
    6100    292.70794   -3159.7723   -2724.3914   -351.46637    12017.982 
    6110    290.36373   -3158.2338   -2726.3398   -330.53755     12018.79 
    6120    288.33728   -3155.7184   -2726.8386   -301.25581    12019.592 
    6130    287.35117   -3154.1441    -2726.731    -291.3705    12020.388 
    6140     288.8293   -3154.4396   -2724.8279   -323.28246    12021.178 
    6150    292.93598   -3156.3166   -2720.5965   -394.17876    12021.962 
    6160    297.42812   -3159.8904   -2717.4886   -486.31943    12022.738 
    6170    300.25245   -3163.0323   -2716.4295   -557.76889    12023.504 
    6180    301.38548   -3163.4881      -2715.2   -580.83078    12024.259 
    6190    301.46689     -3164.05   -2715.6409   -590.06483    12025.002 
    6200     300.6041   -3163.8645   -2716.7387   -576.56454    12025.733 
    6210    298.60597   -3162.8075   -2718.6538   -539.32743    12026.452 
    6220    295.80051   -3161.6176   -2721.6368   -492.56613    12027.161 
    6230    293.58649   -3159.2348   -2722.5471   -438.47777    12027.859 
    6240    293.67325    -3158.882   -2722.0653   -427.85747    12028.549 
    6250    296.12585   -3159.6757    -2719.211   -452.13712    12029.229 
    6260    299.17014   -3161.1202   -2716.1273   -493.08537    12029.901 
    6270    301.58793   -3163.5992     -2715.01   -544.38949    12030.563 
    6280    303.41399   -3164.7715   -2713.4662   -580.57998    12031.213 
    6290    305.15622   -3165.8921   -2711.9954   -619.03767    12031.852 
    6300    306.39984   -3166.4242   -2710.6777   -647.44108    12032.477 
    6310    305.69798   -3166.8703   -2712.1677   -657.13662     12033.09 
    6320    302.54985   -3164.9294   -2714.9094   -617.54332    12033.689 
    6330    298.35453   -3161.1246   -2717.3448   -544.33046    12034.275 
    6340    294.87135   -3159.2328    -2720.634   -496.00454     12034.85 
    6350      293.183   -3157.7246   -2721.6371   -468.78148    12035.415 
    6360     293.5045   -3159.1026   -2722.5369   -494.16077    12035.971 
    6370    295.22073   -3161.2603   -2722.1419   -546.53147    12036.516 
    6380    297.76095   -3162.7703   -2719.8734   -606.35997    12037.049 
    6390    301.19434   -3165.2563   -2717.2525   -688.74981    12037.571 
    6400    304.79975   -3169.0399   -2715.6733   -784.58518    12038.078 
    6410    305.97765   -3168.7375    -2713.619   -809.91242    12038.569 
    6420    303.66332   -3169.5772   -2717.9011   -812.50271    12039.042 
    6430    299.34576   -3166.7451   -2721.4909   -751.72907      12039.5 
    6440    294.80476   -3162.3188   -2723.8191    -667.0827    12039.941 
    6450    290.97651    -3161.516   -2728.7105   -628.05734    12040.369 
    6460    288.56202   -3159.0066   -2729.7925   -584.20361    12040.783 
    6470    287.95517    -3160.567   -2732.2555   -602.29914    12041.185 
    6480    288.58774   -3161.7529   -2732.5005   -627.72678    12041.575 
    6490    289.58539   -3163.0438   -2732.3075   -655.80996    12041.952 
    6500    290.90677   -3163.4902   -2730.7884   -674.59743    12042.315 
    6510    293.59819   -3163.9095   -2727.2045   -701.74077    12042.664 
    6520    298.15842    -3166.864    -2723.376   -770.62997    12042.998 
    6530    303.52019   -3168.4997   -2717.0364   -828.94418    12043.317 
    6540    307.41181   -3172.2028    -2714.951   -895.28501    12043.617 
    6550    308.17997   -3172.6825   -2714.2881   -897.60809    12043.899 
    6560     305.6076   -3170.8509   -2716.2828   -842.03302    12044.163 
    6570    299.53788   -3167.3958   -2721.8559   -739.36018    12044.408 
    6580     290.7601    -3161.123   -2728.6394   -587.64054    12044.639 
    6590    281.97406   -3153.5302   -2734.1151   -429.54735    12044.856 
    6600    276.72396   -3149.6926   -2738.0867   -351.87619    12045.065 
    6610     276.7436   -3148.2361   -2736.6009   -353.46526    12045.266 
    6620     281.0433   -3150.3574   -2732.3268   -434.71766     12045.46 
    6630    286.93414   -3153.6481   -2726.8553   -544.12637    12045.645 
    6640    292.37089   -3157.8243   -2722.9447   -659.78865    12045.818 
    6650    296.81886   -3162.0101   -2720.5145   -767.19915    12045.977 
    6660    301.06925   -3163.9618   -2716.1441   -848.58266     12046.12 
    6670    306.42764   -3167.4239    -2711.636   -955.15995    12046.245 
    6680    312.96481   -3172.7153   -2707.2039   -1087.2006     12046.35 
    6690    318.24322   -3177.0541   -2703.6914   -1189.8688    12046.432 
    6700    319.04673   -3177.0259   -2702.4681   -1196.4702    12046.489 
    6710    314.68319   -3174.4146   -2706.3472   -1119.6919    12046.521 
    6720    307.55352   -3167.5012   -2710.0387   -964.62544    12046.529 
    6730     301.1315   -3162.8948   -2714.9845   -838.60863    12046.516 
    6740    297.15523   -3160.5452   -2718.5493   -762.39033    12046.486 
    6750    295.71183   -3160.2391   -2720.3901   -737.10727    12046.439 
    6760    296.33723   -3160.1033   -2719.3241   -737.91156    12046.377 
    6770    298.27111   -3160.8184   -2717.1628   -763.06447    12046.299 
    6780    300.05128   -3161.4357   -2715.1322   -786.40066    12046.204 
    6790    300.21335   -3160.7328   -2714.1882   -779.23619    12046.093 
    6800    298.32341   -3159.8767   -2716.1433   -749.78039    12045.965 
    6810    295.39703   -3157.2894   -2717.9087   -689.82503    12045.822 
    6820    293.07293    -3154.309   -2718.3853   -628.11163    12045.663 
    6830    291.60695   -3156.2275   -2722.4843   -626.78369    12045.491 
    6840    290.19812   -3156.0767    -2724.429   -603.79249    12045.306 
    6850    288.87685   -3156.7724     -2727.09   -591.60601    12045.108 
    6860    288.76167    -3156.017   -2726.5059   -576.12653    12044.897 
    6870     290.8763   -3156.4518   -2723.7953    -595.5799    12044.674 
    6880    294.71569   -3159.4598   -2721.0925   -660.93737    12044.438 
    6890    298.81593   -3163.0278   -2718.5617   -735.24501    12044.188 
    6900     302.0112   -3164.5644   -2715.3456   -776.56077    12043.923 
    6910    303.15409   -3164.6289   -2713.7101   -779.09214    12043.641 
    6920    301.10834   -3161.9537   -2714.0779   -721.22412    12043.342 
    6930    296.91721   -3158.2713   -2716.6295   -636.09921    12043.028 
    6940    293.69825   -3156.1437   -2719.2898   -581.88237      12042.7 
    6950    293.49621   -3154.8014   -2718.2481   -571.22824     12042.36 
    6960    296.45606   -3156.0515   -2715.0956   -623.09079    12042.007 
    6970    300.98272   -3158.5831   -2710.8941   -705.89976    12041.641 
    6980    304.89454   -3160.7159   -2707.2084   -777.13842     12041.26 
    6990    306.48522   -3162.9152   -2707.0417   -820.95655    12040.862 
    7000    305.25281   -3161.1683   -2707.1278   -785.02268    12040.446 
    7010    301.21723   -3158.7085   -2710.6707   -645.64295    12040.014 
    7020    295.09797   -3154.9128   -2715.9769   -519.66232    12039.569 
    7030    289.50443   -3151.4876   -2720.8717   -397.56364    12039.112 
    7040    286.60266   -3150.0807   -2723.7809   -324.37479    12038.646 
    7050    286.89474    -3151.571   -2724.8368   -320.05367    12038.173 
    7060    289.14938   -3153.3842   -2723.2964   -347.91007    12037.693 
    7070    291.88393   -3156.1909   -2722.0357   -402.34535    12037.205 
    7080    294.70425   -3156.8236   -2718.4733   -439.59656    12036.708 
    7090    297.22557    -3157.508   -2715.4075   -475.31901    12036.202 
    7100    298.58033   -3158.9509   -2714.8353   -504.92731    12035.686 
    7110    298.09501   -3159.4943   -2716.1006   -502.27258    12035.158 
    7120    296.46579   -3158.4458   -2717.4754   -465.34425     12034.62 
    7130    294.99917   -3158.4312   -2719.6423   -435.46942    12034.071 
    7140    294.16646   -3156.3664   -2718.8161   -384.78011    12033.513 
    7150     293.3692   -3156.0325    -2719.668     -350.002    12032.947 
    7160    291.68057   -3155.3356   -2721.4828   -299.05166    12032.373 
    7170    288.69391   -3153.5951   -2724.1848   -221.07398    12031.792 
    7180    284.90803   -3150.8966   -2727.1175   -123.03179    12031.206 
    7190    281.18104   -3147.4483   -2729.2128   -19.769349    12030.618 
    7200    278.44569   -3146.5345   -2732.3677    38.796426    12030.028 
    7210    277.80326   -3145.3771   -2732.1658    68.943518    12029.439 
    7220     280.2175   -3146.6208   -2729.8185    29.267707    12028.851 
    7230    285.99621   -3152.3304   -2726.9327   -103.86354    12028.263 
    7240    293.86679   -3157.4019   -2720.2973   -259.34653    12027.673 
    7250     301.7369   -3163.0022   -2714.1914    -425.0053    12027.077 
    7260    307.58186    -3166.656   -2709.1513   -549.89596    12026.472 
    7270    310.34805   -3167.8863    -2706.267   -613.09087    12025.855 
    7280    310.06847   -3167.8998   -2706.6964   -625.53313    12025.225 
    7290    307.55933   -3165.1639   -2707.6927   -576.53282    12024.581 
    7300     303.6016   -3163.7773   -2712.1929   -518.08883    12023.925 
    7310    298.92602   -3160.1784   -2715.5486   -419.82789    12023.258 
    7320    294.47368   -3155.6856   -2717.6783    -308.6521    12022.581 
    7330    290.99569   -3153.1916   -2720.3576   -225.75457    12021.898 
    7340     288.4092   -3151.5854   -2722.5986   -162.29779    12021.209 
    7350    286.83887   -3150.9532   -2724.3022   -123.95584    12020.516 
    7360    287.39225   -3150.4936   -2723.0194   -111.79739    12019.821 
    7370    290.47313   -3152.0689   -2720.0121   -146.99372    12019.123 
    7380    294.23435   -3156.3578   -2718.7065   -218.62916    12018.421 
    7390     296.4723   -3159.8391    -2718.859   -266.23774    12017.714 
    7400    296.45914   -3160.2909   -2719.3304   -257.41043    12017.001 
    7410    294.47593   -3158.0424   -2720.0318   -197.30075    12016.283 
    7420    291.07858   -3154.4068   -2721.4495   -106.99596     12015.56 
    7430    287.30701   -3153.1387   -2725.7913   -41.130882    12014.834 
    7440    284.32251   -3149.6613   -2726.7531    36.162066    12014.107 
    7450    282.86396    -3146.991   -2726.2523    81.257406    12013.381 
    7460    283.30544   -3147.7538   -2726.3584    61.615707    12012.655 
    7470    285.71729   -3151.3431   -2726.3603   -14.900559    12011.931 
    7480    289.91005   -3154.2087   -2722.9895   -102.38319    12011.206 
    7490    295.00622   -3156.3926   -2717.5932   -184.42991    12010.478 
    7500    299.26429   -3161.0117   -2715.8788   -273.66943    12009.746 
    7510    301.32815   -3160.9303   -2712.7275     -274.801    12009.008 
    7520    300.39006   -3159.5291   -2712.7216   -217.28059    12008.264 
    7530    296.58697   -3156.5137   -2715.3631   -103.11644    12007.515 
    7540    291.35149   -3153.1502    -2719.787    33.055503    12006.763 
    7550     286.7259   -3150.4772   -2723.9941    151.71191    12006.012 
    7560    284.56793   -3148.3508   -2725.0776    231.92048    12005.263 
    7570    285.59307   -3150.0341   -2725.2361    229.02479    12004.518 
    7580    288.93055   -3152.1544   -2722.3921    189.13345    12003.778 
    7590     292.7488   -3153.8216   -2718.3799    141.42814    12003.042 
    7600    295.47568   -3156.1641   -2716.6665    90.144313    12002.308 
    7610    297.04487   -3156.6421   -2714.8104    67.777119    12001.576 
    7620    298.55979   -3158.2659   -2714.1808    33.261499    12000.844 
    7630    300.53464   -3158.6327   -2711.6102    10.648862    12000.113 
    7640     301.5911   -3161.5104   -2712.9165   -29.001458    11999.382 
    7650    300.32865   -3159.7341    -2713.018    6.3529417     11998.65 
    7660    296.98087   -3157.1507   -2715.4142    69.879012    11997.918 
    7670    293.36988   -3154.3826   -2718.0171    135.97911    11997.187 
    7680    291.40563   -3152.2463   -2718.8025    177.49821    11996.458 
    7690    291.90294   -3152.3614   -2718.1779     167.7614    11995.732 
    7700    294.71979   -3154.4973    -2716.124    110.96845     11995.01 
    7710    298.91474   -3157.5995   -2712.9865    30.526136     11994.29 
    7720    302.57492   -3160.4578   -2710.4006   -39.540823     11993.57 
    7730    304.12773   -3163.2814   -2710.9144    -84.17618    11992.848 
    7740    303.94599   -3164.3584   -2712.2618   -86.498788    11992.125 
    7750    304.05192   -3165.2458   -2712.9917   -82.542943      11991.4 
    7760    305.79064    -3165.704   -2710.8636   -83.937565    11990.672 
    7770    308.50946   -3167.5058   -2708.6214   -108.50832    11989.943 
    7780    311.41699   -3167.9922    -2704.783   -120.34333     11989.21 
    7790    313.81471   -3169.5693   -2702.7937   -139.01178    11988.475 
    7800    314.53572   -3171.9416   -2704.0936   -146.89872    11987.736 
    7810    312.26295   -3170.6325   -2706.1651    -82.80606    11986.995 
    7820    307.31597   -3167.3137   -2710.2045    31.870675    11986.251 
    7830    301.48935   -3162.7206    -2714.278    168.07902    11985.507 
    7840    297.27756   -3160.9707   -2718.7929    252.51815    11984.766 
    7850    296.37224   -3158.9174   -2718.0862    301.35739     11984.03 
    7860     298.4473   -3159.7435   -2715.8258    280.38927      11983.3 
    7870    301.86704   -3159.2752   -2710.2708    250.75989    11982.576 
    7880    304.96072   -3161.4718   -2707.8659    187.91875    11981.856 
    7890    306.07934   -3161.2304   -2705.9606    166.53126     11981.14 
    7900    304.00101   -3158.6107   -2706.4322    200.77967    11980.427 
    7910    298.63012   -3155.2596   -2711.0699    274.94222    11979.718 
    7920     291.8185   -3151.8215   -2717.7636    365.45615    11979.015 
    7930    286.40802   -3150.0229   -2724.0127    427.28064    11978.319 
    7940    284.34529   -3148.3351   -2725.3931    457.04967    11977.631 
    7950     286.1687   -3149.8998   -2724.2456    415.97336    11976.953 
    7960    290.40735    -3152.629   -2720.6701    341.96706    11976.282 
    7970    294.61776   -3155.8625   -2717.6409    268.78166    11975.619 
    7980     296.8507   -3156.6493   -2715.1064    248.12491    11974.961 
    7990    296.71959   -3154.5933   -2713.2454    287.64069    11974.309 
    8000    294.65057   -3153.2808   -2715.0105    340.14326    11973.662 
    8010    292.69637   -3152.0151   -2716.6515    329.85803    11973.021 
    8020    294.44862   -3152.1195   -2714.1495    320.27687    11972.387 
    8030    300.83657   -3158.1419   -2710.6703    201.07477    11971.759 
    8040    309.75382   -3163.8411   -2703.1058    66.106066    11971.135 
    8050    316.97137   -3170.4055   -2698.9346   -56.401095    11970.512 
    8060    319.60795   -3170.5578   -2695.1652   -58.880033    11969.888 
    8070    318.27184   -3170.0904   -2696.6852    -12.60027    11969.262 
    8080    315.42674   -3166.6668   -2697.4934    80.957913    11968.636 
    8090    312.88203   -3164.7573    -2699.369    149.03645     11968.01 
    8100    311.65768   -3164.2368   -2700.6696    178.90826    11967.388 
    8110    312.45237   -3163.5874   -2698.8382    180.72641    11966.769 
    8120    315.43559   -3165.2881   -2696.1016    129.52964    11966.153 
    8130    320.10243   -3167.6913   -2691.5632    54.920345     11965.54 
    8140    325.14848   -3170.6124   -2686.9787   -22.019267    11964.927 
    8150    328.50149   -3172.6904   -2684.0693   -62.643334    11964.314 
    8160    328.37662   -3173.5502   -2685.1149   -44.665579    11963.699 
    8170    324.63014   -3172.8373   -2689.9745    36.229958    11963.083 
    8180    318.96877   -3170.0892   -2695.6474    164.39837    11962.467 
    8190    313.62028   -3168.2047   -2701.7183    280.22679    11961.855 
    8200    309.76508   -3167.1641    -2706.412    368.28218    11961.248 
    8210    307.25647   -3165.8229   -2708.8022    435.32526    11960.648 
    8220    306.35609   -3163.5597   -2707.8782     484.3183    11960.057 
    8230    307.13439   -3164.7609   -2707.9218    466.89687    11959.476 
    8240    308.97063   -3164.5447   -2704.9743    447.16951    11958.905 
    8250    310.79334   -3164.0572   -2701.7757    426.41509    11958.342 
    8260    312.36455   -3165.1153   -2700.4967    392.32013    11957.788 
    8270    314.30763   -3164.4447   -2696.9359    379.23085    11957.243 
    8280    317.27081   -3167.7281   -2695.8119    321.62325    11956.704 
    8290    320.37242   -3168.3414   -2691.8117    297.97149    11956.173 
    8300    321.83409   -3169.1998    -2690.496    288.08532    11955.647 
    8310    320.66111   -3168.6021   -2691.6429    316.42715    11955.127 
    8320    317.74368   -3165.2902   -2692.6705    389.59586    11954.613 
    8330    314.43679   -3164.3551   -2696.6542    439.65693    11954.108 
    8340    311.37724   -3162.4017   -2699.2516    497.83454    11953.611 
    8350    308.79294   -3158.5228   -2699.2167    571.97835    11953.124 
    8360    306.94636   -3155.9149   -2699.3555     623.0561     11952.65 
    8370    306.78567   -3156.6438   -2700.3234    621.14667    11952.187 
    8380    308.82878   -3159.4686   -2700.1092    577.04559    11951.738 
    8390    311.76014   -3160.3736    -2696.654    546.29508    11951.301 
    8400    313.65154   -3162.9697   -2696.4368     504.7198    11950.875 
    8410    313.97687   -3162.8315   -2695.8147    504.88012    11950.459 
    8420    313.61499   -3162.5082   -2696.0297    509.92521    11950.054 
    8430    313.74227   -3164.2162   -2697.5484    483.56958    11949.659 
    8440    315.51699   -3164.8975   -2695.5899      448.873    11949.274 
    8450    319.61307   -3167.7514   -2692.3512    367.31707    11948.898 
    8460    325.11135   -3170.3395    -2686.761    278.26287    11948.529 
    8470     329.3615   -3172.1166   -2682.2164     213.1551    11948.167 
    8480    330.66554   -3171.7031   -2679.8631    203.52488    11947.808 
    8490    330.01785    -3172.783   -2681.9065    200.11425    11947.454 
    8500    328.53519   -3170.5572    -2681.886    245.83876    11947.104 
    8510    325.37328   -3166.7168   -2682.7487    325.65541    11946.759 
    8520    320.10349   -3163.0769   -2686.9472    421.19013     11946.42 
    8530    314.08943   -3161.8475   -2694.6633    492.61166     11946.09 
    8540    310.03369   -3160.0597    -2698.908    548.69752     11945.77 
    8550    309.65535    -3160.802   -2700.2132    542.97088    11945.461 
    8560    312.13653   -3163.9394     -2699.66     485.1114    11945.164 
    8570    315.52272   -3166.6129   -2697.2967    425.79514    11944.876 
    8580    318.38253   -3169.7356   -2696.1657    369.15087    11944.597 
    8590    320.15701   -3170.9671   -2694.7578    347.01165    11944.326 
    8600    320.59762   -3169.2228   -2692.3582    373.96408    11944.062 
    8610    319.72212   -3168.4614    -2692.899    404.87885    11943.806 
    8620    318.12728   -3166.3153   -2693.1251    457.39791    11943.558 
    8630    317.02128   -3165.4107   -2693.8656    489.75588    11943.319 
    8640    317.16775   -3166.6366   -2694.8736    481.62158     11943.09 
    8650    318.68163   -3167.3123   -2693.2975    459.86535    11942.872 
    8660    321.04835   -3166.0464   -2688.5113    443.81746    11942.663 
    8670    323.56136   -3167.7711   -2686.4981    388.49604    11942.463 
    8680    325.35208   -3168.8965     -2684.96    342.43957    11942.271 
    8690    326.64691   -3171.4097   -2685.5472    285.52724    11942.086 
    8700    328.75306   -3172.0903   -2683.0951    247.55138    11941.907 
    8710     331.9022   -3174.3741   -2680.6947    191.61175    11941.733 
    8720    333.80386   -3175.9796   -2679.4717    161.70298    11941.564 
    8730    332.10547   -3176.1576   -2682.1759    183.17302    11941.398 
    8740    327.68444   -3172.8499   -2685.4442    266.57505    11941.236 
    8750    324.51182    -3168.915   -2686.2283    342.72858    11941.079 
    8760    325.39778   -3170.1342   -2686.1296     323.5603    11940.929 
    8770    328.09538   -3173.4604   -2685.4433    262.58566    11940.786 
    8780    328.60248   -3173.5163    -2684.745     255.6286    11940.649 
    8790    325.76764    -3171.395   -2686.8403    301.40164    11940.517 
    8800    321.58507    -3166.819   -2688.4856    389.39602    11940.391 
    8810    317.90128   -3163.7594   -2690.9053    461.70543    11940.273 
    8820    315.10306   -3161.6722   -2692.9803    520.52154    11940.166 
    8830    313.07237   -3161.7993   -2696.1279    548.34028    11940.069 
    8840    312.45576   -3162.7218   -2697.9675    553.49842    11939.983 
    8850    313.49888    -3162.885   -2696.5792    548.83473    11939.909 
    8860    315.75598   -3163.4491    -2693.786    523.77648    11939.847 
    8870    318.35515   -3165.5542   -2692.0251    473.59656    11939.796 
    8880    320.25988   -3167.9977   -2691.6354     422.6445    11939.754 
    8890    321.25671   -3168.4038   -2690.5588     401.3543    11939.721 
    8900    322.22059   -3169.7149   -2690.4362    373.97715    11939.697 
    8910    323.31327   -3170.1949   -2689.2909    361.03404    11939.681 
    8920    323.59086   -3171.1958   -2689.8789    355.48541    11939.673 
    8930    321.94898   -3169.6365   -2690.7618    399.53166    11939.672 
    8940    318.07151    -3166.357   -2693.2497    485.52741     11939.68 
    8950    312.90904   -3163.0293   -2697.6009    584.09434    11939.698 
    8960    308.20632   -3159.0844   -2700.6509    682.32565    11939.728 
    8970    305.38704   -3157.9491   -2703.7091    726.58854    11939.772 
    8980    304.98159   -3158.7867   -2705.1497    719.63264    11939.832 
    8990    307.49402   -3161.1362   -2703.7621    663.61473    11939.907 
    9000    312.83299   -3163.4903    -2698.175      581.821    11939.996 
    9010    318.81583   -3164.9591   -2690.7447    507.50452    11940.097 
    9020    322.65028   -3167.6589   -2687.7411    441.66632    11940.209 
    9030    323.50647   -3170.2607   -2689.0694    406.88186    11940.331 
    9040    322.49704   -3169.6774   -2689.9875    428.24748    11940.461 
    9050    320.99428   -3170.8824   -2693.4277    436.07132      11940.6 
    9060    319.25297   -3168.9133   -2694.0487    479.60594    11940.749 
    9070    316.63651    -3166.243   -2695.2702    533.51285    11940.908 
    9080     313.4126   -3165.2825    -2699.105    566.27253    11941.078 
    9090    311.14094      -3163.5   -2700.7014    593.18145    11941.261 
    9100    310.76757   -3164.9364   -2702.6932    564.48058    11941.456 
    9110    311.94081   -3165.0171   -2701.0288    538.19953    11941.663 
    9120    314.08303   -3167.0492   -2699.8745    488.72093    11941.882 
    9130    315.80449   -3168.0232   -2698.2879    464.50099    11942.111 
    9140    314.98136   -3167.6049    -2699.094    485.08285     11942.35 
    9150    311.02935   -3166.3308   -2703.6982    542.88402      11942.6 
    9160    306.33372    -3163.786   -2708.1378    613.13643    11942.861 
    9170    304.55638   -3160.5193   -2707.5147     655.7442    11943.136 
    9180    306.44681    -3160.835   -2705.0186    616.70847    11943.424 
    9190    310.06049   -3163.4617   -2702.2702    527.39106    11943.725 
    9200    313.72253   -3166.5181   -2699.8796    428.75277    11944.038 
    9210    315.99065   -3168.1468   -2698.1347    360.16864     11944.36 
    9220    315.91547   -3168.5138   -2698.6135    331.40645     11944.69 
    9230    314.30312   -3166.6997   -2699.1976    346.97656    11945.028 
    9240    312.65493   -3164.4722   -2699.4217    374.81464    11945.373 
    9250    311.13093    -3162.856   -2700.0724    397.71159    11945.727 
    9260    310.17672   -3162.4019   -2701.0376     401.3342    11946.089 
    9270    311.37363   -3162.3068   -2699.1621    378.47529     11946.46 
    9280    315.14195   -3164.5514   -2695.8016    304.61975     11946.84 
    9290    319.76039    -3168.019   -2692.3997    210.02018    11947.226 
    9300    323.49655   -3170.1298   -2688.9532    143.42757    11947.617 
    9310    325.41623   -3172.6397   -2688.6078    97.691274    11948.012 
    9320    325.06471    -3172.884   -2689.3749    107.49086    11948.409 
    9330    322.59384   -3171.6175   -2691.7836    161.86285    11948.809 
    9340    318.62613    -3168.853   -2694.9208    249.84833    11949.213 
    9350    314.11176   -3167.0484   -2699.8309    328.54795    11949.623 
    9360    310.23909   -3163.6931    -2702.236     407.9812    11950.039 
    9370    308.09971   -3161.8697   -2703.5947    437.99598    11950.465 
    9380     308.5721   -3163.0697   -2704.0921    395.68667    11950.901 
    9390    311.43781   -3166.4948   -2703.2546    297.48946    11951.344 
    9400    315.15448   -3169.2958   -2700.5274    195.83071    11951.795 
    9410    317.35922   -3172.1693   -2700.1215     111.0037     11952.25 
    9420    316.41674   -3172.0713   -2701.4254     93.73548    11952.709 
    9430    313.04438   -3171.0424   -2705.4126    116.77334    11953.169 
    9440     309.1791   -3167.7221   -2707.8417    177.55718    11953.633 
    9450    306.49498   -3166.0961   -2710.2081    217.06653    11954.101 
    9460    305.28186   -3163.9849   -2709.9012    253.52485    11954.574 
    9470    305.01173   -3166.1741   -2712.4922    238.80627    11955.053 
    9480    304.51754   -3164.9293   -2711.9826    266.84706    11955.538 
    9490    303.24727   -3163.4451   -2712.3878    303.59564    11956.028 
    9500    302.35816   -3163.5235   -2713.7886    316.30104    11956.526 
    9510    303.55752   -3165.4947   -2713.9759    283.96114    11957.031 
    9520    306.93241   -3166.1253   -2709.5866    237.99004    11957.542 
    9530    311.01624   -3168.6689   -2706.0558    153.07219    11958.059 
    9540    314.18973   -3169.9671   -2702.6337    77.495945    11958.579 
    9550    316.03772   -3170.5312    -2700.449    12.457217    11959.102 
    9560    317.22424   -3172.3793   -2700.5323   -63.089686    11959.626 
    9570    317.89313   -3172.5777   -2699.7358   -113.09718    11960.149 
    9580    317.58325   -3173.0596   -2700.6786     -150.203     11960.67 
    9590    316.01247    -3172.063   -2702.0184   -149.67754    11961.189 
    9600    313.31183   -3171.1163   -2705.0886   -129.95303    11961.706 
    9610    309.68716   -3170.6142    -2709.978   -98.906312     11962.22 
    9620     305.6122   -3168.1077   -2713.5327   -37.121677    11962.733 
    9630     302.4584   -3167.1197   -2717.2358    3.3924479    11963.245 
    9640    301.38152   -3167.4867   -2719.2045    11.662198    11963.758 
    9650    302.59406   -3166.7149   -2716.6292    13.935221    11964.272 
    9660    304.77886   -3166.9743   -2713.6388   -1.3661487    11964.787 
    9670    306.03959   -3167.4184   -2712.2077   -7.3660025    11965.302 
    9680     305.6647   -3167.3186   -2712.6656     11.83626    11965.818 
    9690    304.33169    -3165.935   -2713.2647    58.695012    11966.335 
    9700    303.05663   -3163.5346   -2712.7608    117.99344    11966.854 
    9710    302.77322   -3163.6199   -2713.2677    139.97658    11967.376 
    9720    303.93987   -3166.0978   -2714.0103    121.40133    11967.901 
    9730    305.72851   -3167.2735   -2712.5255    108.34671     11968.43 
    9740     306.8993   -3169.3603   -2712.8708    86.123309    11968.961 
    9750    306.84562   -3170.5132   -2714.1036    82.339174    11969.495 
    9760    305.28332   -3170.6792   -2716.5934    100.03299    11970.031 
    9770    302.36114   -3169.2944   -2719.5552     143.2519    11970.571 
    9780    298.77116   -3167.6022   -2723.2027    190.48164    11971.113 
    9790    295.51775   -3164.6781   -2725.1178    239.68198    11971.661 
    9800     293.6626   -3163.7117   -2726.9108    242.64278    11972.214 
    9810    294.13618   -3164.1311   -2726.6258    197.81149    11972.773 
    9820     296.9716     -3166.09   -2724.3672     106.4095    11973.336 
    9830    300.80292   -3168.9596    -2721.538   -8.3332441    11973.902 
    9840     303.8119   -3173.9216   -2722.0244   -137.15312    11974.469 
    9850     304.9145   -3173.4283   -2719.8911   -181.35967    11975.034 
    9860    304.36441   -3174.2217   -2721.5027   -214.78996    11975.596 
    9870    303.48349   -3172.2958   -2720.8871   -205.41691    11976.154 
    9880    303.40032   -3172.2024   -2720.9174   -218.04261    11976.708 
    9890    304.60348   -3174.0019   -2720.9273   -261.35352    11977.258 
    9900    306.77745   -3174.5914   -2718.2831   -300.40889    11977.804 
    9910    309.04034    -3176.421   -2716.7469   -353.78891    11978.343 
    9920    310.28193   -3177.9771   -2716.4562   -394.52185    11978.876 
    9930    310.02599   -3177.7633   -2716.6231   -399.98591    11979.401 
    9940    308.42122   -3177.1915   -2718.4383   -383.67139    11979.919 
    9950    305.56721   -3175.4089   -2720.9009   -334.82761    11980.429 
    9960     301.3332   -3173.1126   -2724.9023   -258.88237    11980.932 
    9970     295.6934   -3171.7353   -2731.9138   -173.54723    11981.431 
    9980     289.5911   -3167.0262   -2736.2814   -46.256166    11981.927 
    9990    285.54388   -3165.4944   -2740.7695    24.670732    11982.422 
   10000    285.58052   -3167.0156   -2742.2362    17.213393    11982.918 
Loop time of 3.1044 on 1 procs for 10000 steps with 500 atoms

Performance: 278.314 ns/day, 0.086 hours/ns, 3221.231 timesteps/s
100.0% CPU use with 1 MPI tasks x no OpenMP threads

MPI task timing breakdown:
Section |  min time  |  avg time  |  max time  |%varavg| %total
---------------------------------------------------------------
Pair    | 2.4765     | 2.4765     | 2.4765     |   0.0 | 79.77
Bond    | 0.00093579 | 0.00093579 | 0.00093579 |   0.0 |  0.03
Neigh   | 0.047002   | 0.047002   | 0.047002   |   0.0 |  1.51
Comm    | 0.087644   | 0.087644   | 0.087644   |   0.0 |  2.82
Output  | 0.0091796  | 0.0091796  | 0.0091796  |   0.0 |  0.30
Modify  | 0.33669    | 0.33669    | 0.33669    |   0.0 | 10.85
Other   |            | 0.1465     |            |       |  4.72

Nlocal:    500 ave 500 max 500 min
Histogram: 1 0 0 0 0 0 0 0 0 0
Nghost:    1588 ave 1588 max 1588 min
Histogram: 1 0 0 0 0 0 0 0 0 0
Neighs:    14723 ave 14723 max 14723 min
Histogram: 1 0 0 0 0 0 0 0 0 0

Total # of neighbors = 14723
Ave neighs/atom = 29.446
Ave special neighs/atom = 0
Neighbor list builds = 50
Dangerous builds = 0

#write_data      lj-out.data
Total wall time: 0:00:03
