LAMMPS (9 Nov 2016)
Processor partition = 1
Reading data file ...
  orthogonal box = (1.06874 1.06874 1.06874) to (23.9313 23.9313 23.9313)
  1 by 1 by 1 MPI processor grid
  reading atoms ...
  500 atoms
  reading velocities ...
  500 velocities
Finding 1-2 1-3 1-4 neighbors ...
 Special bond factors lj:   0          0          0         
 Special bond factors coul: 0          0          0         
  0 = max # of 1-2 neighbors
  0 = max # of 1-3 neighbors
  0 = max # of 1-4 neighbors
  1 = max # of special neighbors
Neighbor list info ...
  1 neighbor list requests
  update every 1 steps, delay 10 steps, check yes
  max neighbors/atom: 2000, page size: 100000
  master list distance cutoff = 7
  ghost atom cutoff = 7
  binsize = 3.5, bins = 7 7 7
Setting up Verlet run ...
  Unit style    : real
  Current step  : 0
  Time step     : 1
Memory usage per processor = 5.37943 Mbytes
Step Temp PotEng TotEng Press Volume 
       0    305.69499   -3177.6423   -2722.9442   -33.763847    11950.115 
      10    310.97848   -3181.6232   -2719.0663   -128.71274    11950.114 
      20    311.30708   -3183.9629   -2720.9172    -143.3426    11950.111 
      30    306.14136   -3180.0716   -2724.7096   -28.204379    11950.105 
      40    297.66477   -3175.4315   -2732.6777    127.61053    11950.099 
      50    290.22432   -3169.5474   -2737.8608    280.80151    11950.095 
      60    287.43268    -3166.011   -2738.4767    354.38425    11950.097 
      70    289.22705   -3167.7991   -2737.5958     314.7585    11950.107 
      80    292.67967    -3169.962   -2734.6232    247.29486    11950.123 
      90    294.53149   -3171.3933      -2733.3    198.87069    11950.145 
     100    293.62042   -3170.4881     -2733.75    202.49123    11950.171 
     110    291.03961   -3168.6701   -2735.7707    236.27128    11950.201 
     120    288.52969   -3168.7415   -2739.5754    254.18267    11950.236 
     130    287.45341   -3168.6405   -2741.0753    265.85231    11950.277 
     140    288.33115   -3168.9867    -2740.116    259.12445    11950.324 
     150    290.38134   -3170.8133   -2738.8931    231.20019    11950.375 
     160    291.37384   -3171.7632   -2738.3667     228.6077    11950.432 
     170    289.27665   -3168.8347   -2738.5577    299.91035    11950.494 
     180    284.51106   -3163.6315   -2740.4428    421.67204    11950.562 
     190    279.55125   -3158.9507   -2743.1394      537.795     11950.64 
     200    276.90949   -3157.6057   -2745.7238    590.69088    11950.728 
     210    277.74964    -3158.569   -2745.4374    578.99477    11950.829 
     220    281.84194   -3161.9477   -2742.7292    504.25009    11950.942 
     230    288.23723   -3166.2846   -2737.5535    395.07151    11951.066 
     240    295.14381   -3170.4512   -2731.4471    286.20852    11951.198 
     250    299.93948    -3174.582   -2728.4448    204.02172    11951.336 
     260    300.95598   -3175.3974   -2727.7482    202.94146    11951.479 
     270     298.2498   -3173.4641   -2729.8401    275.36278    11951.626 
     280    293.32436   -3168.6578     -2732.36    404.85476    11951.779 
     290    288.21316   -3166.3523   -2737.6571    505.53843     11951.94 
     300    284.79965   -3162.8722   -2739.2543    593.44324    11952.112 
     310    284.13853   -3162.6394   -2740.0049    604.95747    11952.297 
     320    286.33057   -3164.8038   -2738.9088    546.65108    11952.494 
     330    290.95622   -3168.0168   -2735.2415    438.82033    11952.703 
     340    297.20072   -3173.0222   -2730.9587    284.45396    11952.921 
     350    303.93112   -3177.5794   -2725.5049    124.36784    11953.145 
     360    309.88514    -3181.067   -2720.1363   -14.642107    11953.371 
     370    313.49545   -3182.6424   -2716.3416   -100.20607    11953.598 
     380    313.04208   -3181.3651   -2715.7387   -101.76403    11953.823 
     390    307.70817   -3175.7357   -2718.0431     5.080894    11954.046 
     400    298.42294   -3169.1714   -2725.2899    169.67183     11954.27 
     410    288.17404   -3161.4095   -2732.7725    359.79773    11954.497 
     420      281.162   -3157.4985   -2739.2913    474.33946    11954.731 
     430    280.10698   -3158.6937   -2742.0558    469.75044    11954.975 
     440    284.24398   -3163.4018   -2740.6104    371.26888    11955.229 
     450    289.99244   -3167.0053   -2735.6635    267.57689    11955.491 
     460    293.69695   -3168.6422   -2731.7902    207.85603    11955.759 
     470    293.66788   -3168.7055   -2731.8968    206.30134    11956.031 
     480    291.18781    -3165.598   -2732.4782    268.85623    11956.308 
     490    289.46102   -3164.0705   -2733.5192    311.45471     11956.59 
     500    290.93049   -3166.2373   -2733.5002    283.49455    11956.879 
     510    295.79024   -3170.2567   -2730.2911    201.81655    11957.174 
     520    301.52871   -3172.2641    -2723.763    131.51293    11957.474 
     530    305.01075   -3174.7874    -2721.107    74.627366    11957.776 
     540    304.83693   -3173.1622   -2719.7404    95.914264     11958.08 
     550    301.97392    -3171.885   -2722.7217     137.5521    11958.386 
     560    299.02361   -3169.3634   -2724.5885    192.76632    11958.695 
     570    298.52517   -3168.6935   -2724.6599    207.71066    11959.008 
     580    299.72371   -3168.0348   -2722.2185    213.00971    11959.325 
     590     298.9547   -3166.2584   -2721.5859    254.21456    11959.647 
     600    293.81153   -3163.5112   -2726.4888    349.57178    11959.975 
     610    285.43963   -3157.8402   -2733.2703    505.60988     11960.31 
     620    277.72774   -3151.3217   -2738.2228     659.5606    11960.656 
     630    274.37512   -3149.4393   -2741.3271    712.23482    11961.016 
     640    276.85005   -3152.1702   -2740.3767    651.04327    11961.391 
     650    283.64629   -3156.2197   -2734.3174    528.80101    11961.779 
     660    291.74792   -3161.9718   -2728.0189     374.5315    11962.179 
     670    298.05534     -3167.38   -2724.0453    243.58474    11962.587 
     680    301.08261    -3171.267   -2723.4294    164.72777        11963 
     690    301.48894   -3172.1313   -2723.6894     149.1854    11963.417 
     700    300.44888   -3170.6666   -2723.7716    177.47543    11963.837 
     710    298.22879   -3167.5845   -2723.9918    235.55116    11964.261 
     720    294.98141   -3166.0176   -2727.2551    283.66748     11964.69 
     730    291.31189   -3165.5961   -2732.2918    317.28193    11965.125 
     740    287.97379   -3163.8323   -2735.4931    353.99044    11965.566 
     750    285.75351   -3162.1944   -2737.1577     367.4938    11966.016 
     760    285.58929   -3160.4184    -2735.626    353.33732    11966.473 
     770    287.85936   -3162.3211   -2734.1521    267.76993    11966.937 
     780    292.31967   -3165.3686   -2730.5653    145.65943    11967.407 
     790    298.02352   -3169.0197   -2725.7323    7.2200071    11967.881 
     800    303.62934   -3172.9976    -2721.372   -126.62032    11968.354 
     810     307.5497    -3175.656   -2718.1991   -218.67533    11968.825 
     820    308.58839   -3175.2334   -2716.2316    -233.6471    11969.292 
     830    306.24657   -3174.1463   -2718.6277   -191.61332    11969.754 
     840    300.87315   -3171.3235   -2723.7975    -85.91177    11970.213 
     850    293.92235   -3166.3461   -2729.1589     74.20595    11970.669 
     860    286.97628   -3162.1661   -2735.3106    236.11946    11971.127 
     870    281.51531   -3157.3196   -2738.5869    397.23776    11971.591 
     880    277.78911   -3155.5342    -2742.344      506.951    11972.062 
     890    274.98904   -3153.4747   -2744.4493    603.30738    11972.545 
     900    272.59734   -3150.5174   -2745.0496    692.36288     11973.04 
     910    271.21835   -3149.3207   -2745.9039    735.97591     11973.55 
     920     271.5025   -3149.0219   -2745.1825    734.79277    11974.075 
     930    273.87251   -3149.3923   -2742.0277    687.31678    11974.616 
     940    278.62261   -3154.4529   -2740.0229    551.36757    11975.171 
     950     285.0372   -3158.1735   -2734.2023    406.09927    11975.738 
     960    291.48936   -3160.7306   -2727.1623    271.50137    11976.314 
     970    296.35913   -3163.7497    -2722.938    150.53473    11976.896 
     980    299.18259   -3165.4598   -2720.4484    71.840834    11977.481 
     990    300.45666   -3165.9506   -2719.0441     30.56559    11978.068 
    1000    301.05051   -3167.8003   -2720.0104   -12.327192    11978.655 
    1010    301.75499    -3168.938   -2720.1003   -42.975476    11979.242 
    1020    302.61291   -3169.3912   -2719.2774   -63.337088    11979.829 
    1030    302.88715   -3169.4341   -2718.9124    -72.20449    11980.414 
    1040    302.17834   -3167.8652   -2718.3978   -52.958516    11980.999 
    1050    300.84987   -3167.0435   -2719.5521   -34.985633    11981.582 
    1060    299.68497   -3165.0222   -2719.2635    -4.499174    11982.165 
    1070    298.96668   -3165.0245   -2720.3342  -0.52830966    11982.747 
    1080    298.49501   -3165.8576   -2721.8689   -10.482491     11983.33 
    1090    298.51107   -3165.5823   -2721.5697   -16.607677    11983.913 
    1100    299.05572   -3165.6766   -2720.8538   -34.233286    11984.495 
    1110    299.37245   -3165.6073   -2720.3135   -50.896572    11985.077 
    1120    299.42048   -3164.6921   -2719.3268   -56.838316    11985.658 
    1130    299.32624   -3163.9403   -2718.7152   -61.594854    11986.238 
    1140    298.88396   -3165.0457   -2720.4785     -81.0191    11986.817 
    1150    298.33875   -3164.3666   -2720.6103   -78.353563    11987.395 
    1160    298.56256   -3164.2292     -2720.14   -86.751705    11987.971 
    1170     299.5323   -3163.2978   -2717.7663   -89.779505    11988.545 
    1180    299.64815   -3161.1089    -2715.405   -68.080047    11989.118 
    1190    297.60141   -3161.3426    -2718.683   -48.283738    11989.689 
    1200    293.32641   -3157.7778   -2721.4769    36.643528     11990.26 
    1210    288.59832   -3154.0254   -2724.7572    129.26324    11990.831 
    1220    286.06774   -3152.4771    -2726.973    176.58544    11991.406 
    1230    287.64776   -3152.6274   -2724.7731    164.27133    11991.984 
    1240     293.0489   -3157.1646   -2721.2766    65.770272    11992.565 
    1250    299.57682   -3161.4362   -2715.8384    -41.20105    11993.148 
    1260     304.0287   -3162.1386   -2709.9189   -87.089878    11993.731 
    1270    304.37781   -3162.0618   -2709.3229    -81.58756    11994.311 
    1280    300.71235   -3160.3497   -2713.0628   -14.410166    11994.891 
    1290    294.40509   -3154.4194   -2716.5141    129.08175     11995.47 
    1300    287.41764   -3149.7265   -2722.2146    266.01244    11996.052 
    1310    282.26597   -3147.7736   -2727.9244    353.93488     11996.64 
    1320    279.98666   -3146.1266   -2729.6676    406.05315    11997.235 
    1330    279.83854   -3144.6541   -2728.4155    426.35836    11997.839 
    1340    281.37341   -3146.8588   -2728.3371    377.94916    11998.452 
    1350     285.3735   -3150.1278   -2725.6564    283.19776    11999.073 
    1360    292.33978   -3155.4731   -2720.6398    129.68196      11999.7 
    1370    300.59208   -3161.0553   -2713.9474   -42.934471     12000.33 
    1380    306.89196   -3164.0785   -2707.5999   -170.28347    12000.959 
    1390    309.34777   -3166.6318   -2706.5004   -252.71773    12001.585 
    1400    308.41863   -3166.0191   -2707.2697   -259.20867    12002.206 
    1410     305.2592   -3161.6075   -2707.5576   -194.51619    12002.821 
    1420    301.70389   -3157.8413   -2709.0796   -127.74647    12003.433 
    1430    300.33415   -3158.2394   -2711.5151   -124.51484    12004.042 
    1440    302.29291   -3159.1356   -2709.4979   -157.17191    12004.648 
    1450    305.73281    -3161.858   -2707.1037   -223.19092    12005.252 
    1460    307.86229   -3162.0806   -2704.1588   -245.65515     12005.85 
    1470    307.06021   -3162.7417   -2706.0129   -237.43088    12006.444 
    1480    303.21746   -3159.1651   -2708.1521   -144.37622    12007.033 
    1490    297.46808   -3154.2563   -2711.7951   -12.508893    12007.619 
    1500    291.84554    -3151.677   -2717.5788    92.854629    12008.205 
    1510    288.50406    -3149.913   -2720.7851    161.87389    12008.793 
    1520     289.2519   -3149.9657   -2719.7254     163.6932    12009.385 
    1530    294.37718   -3154.4029   -2716.5391    69.690039    12009.979 
    1540    301.53815   -3158.8152   -2710.3001   -46.787668    12010.576 
    1550    307.51336   -3162.1285   -2704.7257   -141.46542    12011.172 
    1560    310.54612   -3163.2425   -2701.3287   -183.59292    12011.765 
    1570    310.97527   -3163.8401   -2701.2879   -192.77573    12012.354 
    1580    310.26365   -3164.4304   -2702.9368    -188.5003     12012.94 
    1590    309.68454   -3162.3549   -2701.7226   -155.25371    12013.522 
    1600      309.239   -3161.9539   -2701.9843    -143.2955      12014.1 
    1610    308.22169   -3160.4951   -2702.0387   -116.39194    12014.676 
    1620    305.93687   -3158.9371   -2703.8792   -79.992371     12015.25 
    1630     302.4681   -3154.1857   -2704.2874   0.10392184    12015.822 
    1640    298.83524   -3152.2145   -2707.7197    49.290063    12016.394 
    1650    296.68673   -3151.4233   -2710.1243    66.838759    12016.967 
    1660    297.64538   -3153.2069   -2710.4819    22.888039    12017.542 
    1670    301.30984   -3155.1802   -2707.0046   -51.591897    12018.118 
    1680    305.35945   -3158.6024   -2704.4034   -146.07359    12018.692 
    1690    307.36695   -3158.6184   -2701.4334   -182.81458    12019.264 
    1700    306.62713   -3158.0247   -2701.9401   -183.75005    12019.832 
    1710    303.88179   -3155.4948   -2703.4936   -139.06389    12020.396 
    1720    300.09955   -3152.6378   -2706.2624   -74.697521    12020.958 
    1730    296.23855   -3151.4392   -2710.8068   -22.402977    12021.518 
    1740    293.39567   -3148.3284   -2711.9246    45.735083    12022.078 
    1750    291.89451   -3147.0839    -2712.913    83.668088    12022.639 
    1760    291.25268   -3144.2072   -2710.9909    134.06291    12023.203 
    1770    290.87052   -3143.8784   -2711.2306    156.41081    12023.768 
    1780    290.23906   -3142.8507   -2711.1421    191.11918    12024.338 
    1790    288.78666   -3141.5141   -2711.9658    237.30083    12024.912 
    1800     286.6474    -3140.354   -2713.9878    285.67115     12025.49 
    1810    284.87136   -3138.0028   -2714.2783    336.24968    12026.075 
    1820    285.53476   -3138.0175   -2713.3062    329.75434    12026.668 
    1830    289.85757   -3141.6517   -2710.5105    241.41332    12027.267 
    1840    296.70049   -3145.9987   -2704.6792    114.56148    12027.871 
    1850    303.72943   -3150.4699   -2698.6953   -21.127066    12028.479 
    1860    309.34745   -3153.8194   -2693.6885   -132.76559    12029.086 
    1870    312.64714   -3156.0654   -2691.0265   -207.59746     12029.69 
    1880    312.60033   -3155.0467   -2690.0773   -209.56472     12030.29 
    1890    308.91727   -3153.9778   -2694.4867    -170.0156    12030.887 
    1900    303.44156   -3150.8705   -2699.5241    -83.88359    12031.479 
    1910    298.97171   -3146.3714   -2701.6736    14.311076    12032.071 
    1920    296.57541   -3143.2032   -2702.0698    83.032093    12032.662 
    1930    295.36621    -3142.972   -2703.6371    109.89804    12033.256 
    1940    294.63475   -3143.0793   -2704.8325    127.02547    12033.852 
    1950    294.70413   -3142.4335   -2704.0834    142.96809    12034.451 
    1960    295.93312   -3143.9198   -2703.7417    122.95898    12035.053 
    1970    298.03159   -3145.4875   -2702.1881    91.850979    12035.658 
    1980    300.66621   -3146.7751   -2699.5569    55.323883    12036.265 
    1990    304.03971   -3147.2663   -2695.0302    16.495089    12036.874 
    2000    307.50221   -3149.1375   -2691.7513   -40.761926    12037.483 
    2010    309.05946   -3151.9075   -2692.2049   -94.068902    12038.091 
    2020    307.89189   -3150.0038   -2692.0379   -74.289092    12038.698 
    2030    305.25099    -3147.993   -2693.9553    -42.75548    12039.304 
    2040    303.71745   -3146.5029   -2694.7462   -27.348557    12039.909 
    2050    304.79398   -3146.9763   -2693.6184   -55.399307    12040.513 
    2060    307.87711   -3147.8104   -2689.8666   -104.26605    12041.117 
    2070    311.31051    -3150.996   -2687.9452   -178.55637    12041.718 
    2080    313.03832   -3152.7251   -2687.1043    -214.8678    12042.316 
    2090     311.5049    -3149.406   -2686.0661   -161.19668    12042.909 
    2100    307.23139   -3146.6702   -2689.6868   -85.558583    12043.499 
    2110    302.24953   -3144.6274   -2695.0541   -12.600215    12044.088 
    2120    298.98576   -3140.6364   -2695.9177    61.260517    12044.677 
    2130    298.59706   -3141.6907   -2697.5502    45.384654    12045.267 
    2140    300.59395   -3143.3648   -2696.2541   -6.3215622    12045.858 
    2150    303.22307   -3143.6472   -2692.6259   -51.389455    12046.449 
    2160    304.60429   -3145.1554   -2692.0796   -97.705015    12047.039 
    2170    304.32424   -3145.3695   -2692.7102   -111.77293    12047.627 
    2180    303.64774   -3143.4689   -2691.8158   -95.585409    12048.214 
    2190    304.05328   -3144.4327   -2692.1765    -118.2261    12048.798 
    2200    305.87005   -3145.7312   -2690.7726   -156.37484     12049.38 
    2210    308.01691   -3148.4463   -2690.2945   -213.03772    12049.958 
    2220    309.44014   -3149.7345   -2689.4658   -248.22013    12050.533 
    2230    310.55076   -3150.1492   -2688.2285   -271.18416    12051.102 
    2240    312.01195   -3149.2322    -2685.138    -280.7334    12051.666 
    2250    312.69254   -3148.9577   -2683.8513   -289.78634    12052.223 
    2260     311.2427     -3147.98   -2685.0301   -272.83657    12052.775 
    2270    307.84057   -3145.1111   -2687.2216   -218.19058    12053.322 
    2280    303.80818   -3142.7243   -2690.8326   -163.00234    12053.864 
    2290    300.57712   -3139.9823   -2692.8967   -108.71289    12054.403 
    2300    298.91464   -3138.6101   -2693.9972   -78.880574    12054.939 
    2310    298.93003   -3138.0221   -2693.3863   -66.025612    12055.475 
    2320    299.54981   -3138.9098   -2693.3521   -67.521984    12056.008 
    2330     298.9553   -3138.1567   -2693.4833    -34.46034    12056.541 
    2340    296.87142   -3137.1494   -2695.5756    15.299838    12057.073 
    2350    295.27395   -3134.7775   -2695.5799    72.705252    12057.605 
    2360    295.88615   -3135.2694   -2695.1611     73.43701    12058.139 
    2370    298.11515   -3137.0268   -2693.6031    39.297356    12058.674 
    2380    300.16557   -3137.8696   -2691.3961     10.81102    12059.211 
    2390    301.55241   -3138.5109   -2689.9745   -12.487692    12059.748 
    2400    302.72605   -3139.9258   -2689.6437   -41.010484    12060.285 
    2410    303.36543   -3141.2299   -2689.9968   -60.085855    12060.821 
    2420    302.44989   -3140.7885   -2690.9172   -44.150454    12061.356 
    2430    299.63704   -3137.5713   -2691.8839    21.289403    12061.891 
    2440    295.55168   -3135.1744   -2695.5637    87.925751    12062.426 
    2450    292.07655   -3131.8921   -2697.4504    153.22642    12062.963 
    2460    291.21243    -3130.835   -2697.6786    161.38073    12063.504 
    2470    293.70879   -3134.6311   -2697.7616    75.003827    12064.048 
    2480    298.73712   -3137.0471   -2692.6982   -28.472424    12064.594 
    2490    304.32998   -3140.7767   -2688.1089   -159.67191     12065.14 
    2500    309.20188   -3143.6109   -2683.6965   -278.40534    12065.682 
    2510    313.19595    -3146.354   -2680.4988   -386.71357    12066.219 
    2520    316.37693   -3148.2654   -2677.6787   -471.65263    12066.747 
    2530    317.96794   -3149.3289   -2676.3756   -524.30957    12067.266 
    2540    317.15405   -3147.5213   -2675.7787   -517.00018    12067.774 
    2550    314.68379   -3146.2679   -2678.1996   -494.28385    12068.271 
    2560     312.2369   -3145.4274   -2680.9986   -472.88508    12068.757 
    2570    311.13786   -3145.2757   -2682.4817   -469.20402    12069.234 
    2580    311.18774   -3144.7481   -2681.8799   -472.73147    12069.701 
    2590    311.79176   -3145.1365   -2681.3698   -490.82529    12070.158 
    2600    311.97491   -3143.9177   -2679.8786   -484.09595    12070.605 
    2610    310.66629   -3141.9169   -2679.8243   -452.24871    12071.041 
    2620    308.31509   -3139.8447   -2681.2494   -407.69324    12071.468 
    2630    306.49188   -3139.4575    -2683.574   -384.74626    12071.886 
    2640    306.64137   -3139.1429   -2683.0371   -378.28247    12072.297 
    2650    307.60085   -3137.9516   -2680.4186    -369.2333    12072.699 
    2660    306.73198   -3138.1074   -2681.8668   -360.43418    12073.094 
    2670       303.47   -3135.9274   -2684.5387   -307.10785    12073.481 
    2680    299.81845   -3131.6396   -2685.6823   -228.12316    12073.861 
    2690     297.9226   -3130.1614   -2687.0241   -194.44935    12074.237 
    2700    298.24758   -3131.1626    -2687.542   -204.34784    12074.609 
    2710    299.64165   -3132.6494   -2686.9552   -225.12943    12074.976 
    2720    300.86256   -3135.4605   -2687.9503   -255.20189    12075.339 
    2730    301.04735   -3136.0992   -2688.3141   -250.39733    12075.697 
    2740    300.01365   -3134.5681   -2688.3205   -210.94883     12076.05 
    2750    298.61938    -3133.966   -2689.7923   -183.72572    12076.398 
    2760    298.33722   -3134.9359   -2691.1819   -191.87278    12076.742 
    2770    299.42719   -3137.0017   -2691.6265    -233.5188    12077.083 
    2780    301.39042   -3138.6245   -2690.3291   -285.36655    12077.418 
    2790     304.1117   -3140.7792   -2688.4361    -351.7601    12077.747 
    2800    307.35125   -3143.1678   -2686.0062   -420.59313    12078.069 
    2810    309.79763    -3143.816   -2683.0156   -451.06296    12078.383 
    2820    309.23317   -3142.7504   -2682.7895   -420.23216    12078.686 
    2830    304.53387   -3139.7059   -2686.7348   -318.43884    12078.981 
    2840    297.58897   -3134.5616   -2691.9205   -168.10728     12079.27 
    2850     292.1066   -3130.4452   -2695.9588   -44.444879    12079.555 
    2860    290.68029   -3129.7003   -2697.3354   -3.7928141    12079.838 
    2870    293.43818    -3130.834   -2694.3669   -33.973945    12080.122 
    2880    298.52278   -3134.1209   -2690.0909    -120.2108    12080.405 
    2890    303.88195   -3137.7321   -2685.7308   -220.23314    12080.686 
    2900    308.33583   -3140.4474   -2681.8212    -303.8345    12080.962 
    2910    311.06371   -3141.9529   -2679.2692   -353.70068    12081.232 
    2920    311.22724   -3142.0565   -2679.1296   -357.41522    12081.495 
    2930    308.42133   -3140.4759   -2681.7226    -309.2788     12081.75 
    2940    303.07804    -3137.644   -2686.8384   -220.35831    12081.999 
    2950    296.45445   -3133.3901   -2692.4366   -106.11003    12082.244 
    2960    290.45152   -3128.5192   -2696.4946  0.038907928    12082.486 
    2970    287.03913   -3126.7798   -2699.8308    32.063901    12082.728 
    2980    288.22124   -3128.3892    -2699.682   -32.775767    12082.971 
    2990    294.86956    -3133.167   -2694.5709   -197.20132    12083.213 
    3000    305.24726   -3139.6403   -2685.6082   -419.49879    12083.452 
    3010    315.37549   -3147.6518   -2678.5547   -650.91019    12083.681 
    3020    321.77859   -3151.0832   -2672.4619   -782.27664    12083.897 
    3030    323.06304    -3152.109   -2671.5772   -816.41908    12084.096 
    3040      319.297   -3148.9356   -2674.0055   -732.40568    12084.278 
    3050    311.54718   -3144.1558    -2680.753   -574.60151    12084.445 
    3060    302.57565   -3137.8682   -2687.8099   -379.61207      12084.6 
    3070    295.96251   -3133.2345   -2693.0127   -224.36185    12084.746 
    3080    293.43666   -3130.2833   -2693.8185   -135.34899    12084.888 
    3090    294.70869   -3129.7287   -2691.3719   -125.13454    12085.027 
    3100    298.85135   -3134.3429   -2689.8242   -214.49204    12085.163 
    3110    303.98689   -3137.9411   -2685.7836   -313.55491    12085.295 
    3120     307.8202   -3141.9442    -2684.085    -411.2759     12085.42 
    3130    309.42277   -3142.8064   -2682.5635   -455.10534    12085.536 
    3140    309.23445   -3141.3603   -2681.3975   -456.28539    12085.643 
    3150    308.39301     -3140.38   -2681.6688   -455.82766     12085.74 
    3160    308.06591   -3139.4993   -2681.2746   -458.99083    12085.828 
    3170    308.47198   -3138.3445   -2679.5158   -464.33785    12085.906 
    3180    309.09957   -3139.9759   -2680.2137   -500.36179    12085.974 
    3190    308.96726   -3140.0246   -2680.4592   -510.87572    12086.031 
    3200     307.5736   -3138.7948   -2681.3024   -495.19635    12086.077 
    3210    305.22214   -3138.8675   -2684.8727   -485.52153    12086.113 
    3220    302.79152   -3137.3097   -2686.9303   -456.90229    12086.139 
    3230    300.81068   -3138.0373   -2690.6042   -453.65204    12086.155 
    3240    298.60789   -3135.3231   -2691.1665   -404.83956    12086.161 
    3250    295.34542    -3131.996   -2692.6921   -332.83111    12086.159 
    3260    291.31126   -3129.4415    -2696.138    -257.6558    12086.149 
    3270    288.13234   -3126.6985   -2698.1235   -185.19241    12086.135 
    3280    287.24166   -3125.9523   -2698.7021   -153.42372    12086.116 
    3290    288.66507   -3127.6129   -2698.2455   -168.89491    12086.094 
    3300    291.48929   -3129.8605   -2696.2923   -204.95394    12086.068 
    3310    294.90425    -3132.915   -2694.2673   -256.85253    12086.038 
    3320    298.26488   -3134.4856   -2690.8392   -294.39981    12086.003 
    3330    300.81624    -3137.462   -2690.0206   -343.53742    12085.961 
    3340    301.92846   -3136.5357     -2687.44   -340.55812    12085.912 
    3350    301.47691   -3135.4353   -2687.0113   -326.00319    12085.856 
    3360    300.35726   -3133.9966    -2687.238   -305.28261    12085.793 
    3370    299.91794    -3134.746   -2688.6408   -316.73615    12085.724 
    3380    301.12897   -3134.0207   -2686.1141    -325.1917    12085.648 
    3390    303.32581   -3136.4846   -2685.3105   -372.01808    12085.564 
    3400    304.61715   -3137.0017   -2683.9067   -382.58924    12085.473 
    3410    303.89119   -3137.6811    -2685.666   -371.82096    12085.374 
    3420    301.51324   -3137.4635   -2688.9854   -334.09833    12085.267 
    3430    298.66336   -3134.6807   -2690.4416   -266.40343    12085.153 
    3440    297.00872   -3133.5252   -2691.7472   -232.82111    12085.034 
    3450    297.56188   -3133.3934   -2690.7927   -237.35252    12084.909 
    3460    299.72538   -3134.2562   -2688.4374    -272.8253    12084.779 
    3470    301.99366   -3136.3764   -2687.1838   -328.96862    12084.644 
    3480    304.17586   -3137.7778   -2685.3393   -381.54397    12084.501 
    3490    306.99949   -3140.9481   -2684.3096   -460.69484     12084.35 
    3500    310.00607   -3141.7503   -2680.6398   -515.52091     12084.19 
    3510    311.68507   -3144.7792   -2681.1713   -580.42262    12084.018 
    3520    310.74417   -3143.8678   -2681.6594   -573.63572    12083.835 
    3530    307.53202   -3143.0739   -2685.6433   -541.46776    12083.639 
    3540    304.26629   -3139.7458   -2687.1727   -474.33735    12083.431 
    3550    302.50885   -3138.7933   -2688.8344   -439.89973    12083.214 
    3560    301.94892   -3138.5468   -2689.4207   -419.39803    12082.987 
    3570    302.07791   -3138.6533   -2689.3353   -405.80786    12082.751 
    3580    302.38844   -3140.2004   -2690.4205   -408.18122    12082.506 
    3590    302.47372     -3142.64   -2692.7333    -419.5417    12082.252 
    3600    302.78283   -3144.0549   -2693.6884   -423.59724     12081.99 
    3610    304.36722    -3144.788   -2692.0648    -436.4091    12081.718 
    3620    308.45795   -3148.8594   -2690.0516   -511.33689    12081.437 
    3630    314.11217    -3153.111   -2685.8929   -601.77693    12081.145 
    3640    317.70907   -3155.2627   -2682.6946   -651.43587     12080.84 
    3650    316.60802   -3152.8059   -2681.8755   -611.15453    12080.521 
    3660    311.57595   -3149.4321   -2685.9865   -530.29574    12080.189 
    3670    306.05797   -3145.0607   -2689.8227   -440.61841    12079.846 
    3680    303.32596   -3143.0409   -2691.8665   -407.54739    12079.493 
    3690    303.60327   -3142.2114   -2690.6245   -419.36502    12079.132 
    3700    304.83124   -3142.8402   -2689.4268   -459.82293    12078.761 
    3710    305.71203   -3141.2513   -2686.5278   -475.65963     12078.38 
    3720    306.49348   -3141.8315   -2685.9457   -513.77852    12077.989 
    3730    307.40633   -3142.6358   -2685.3922   -552.41815    12077.587 
    3740    308.18307   -3144.2645   -2685.8656   -591.93378    12077.173 
    3750     308.3852    -3143.518   -2684.8183    -590.6859    12076.746 
    3760    307.81028    -3142.494   -2684.6495   -570.16514    12076.307 
    3770    307.00937    -3139.865   -2683.2118   -521.59576    12075.856 
    3780    307.08147   -3140.6111   -2683.8507   -510.99881    12075.393 
    3790    308.63412   -3143.1851   -2684.1152   -527.79822    12074.919 
    3800    310.46507   -3145.9584   -2684.1652   -545.07411    12074.434 
    3810    310.29118   -3147.8531   -2686.3185   -535.67508    12073.937 
    3820    307.66691   -3146.0552   -2688.4239   -470.77106    12073.428 
    3830    305.11812   -3143.3882   -2689.5482   -408.14195     12072.91 
    3840    305.68155   -3145.4044   -2690.7262   -437.79524    12072.383 
    3850    310.10339   -3147.1046   -2685.8494   -509.53969    12071.846 
    3860    316.42783   -3151.7233   -2681.0609   -636.59976    12071.298 
    3870    322.09817   -3153.1244   -2674.0277   -721.31756    12070.737 
    3880    325.12706   -3155.5705   -2671.9686    -782.6817     12070.16 
    3890    323.70274   -3155.2928   -2673.8095    -757.8125    12069.566 
    3900    317.27811   -3150.8492   -2678.9221   -625.90083    12068.957 
    3910    307.53955   -3145.0008    -2687.559   -437.72798    12068.334 
    3920    297.57685   -3138.9975   -2696.3745   -242.42263    12067.701 
    3930    290.03016   -3132.1862   -2700.7883   -64.278417    12067.064 
    3940    286.24745   -3129.0649   -2703.2935    30.771913    12066.424 
    3950    286.40054   -3128.8278   -2702.8287    47.625605    12065.785 
    3960    290.02475   -3131.2847   -2699.8948   -5.5412449    12065.147 
    3970    295.55431   -3136.5252   -2696.9105   -111.71642    12064.508 
    3980    300.55125   -3142.4485   -2695.4013   -221.87168    12063.867 
    3990    303.24441   -3145.4416   -2694.3885   -276.79701    12063.221 
    4000    303.36175   -3145.8407   -2694.6131   -276.08215     12062.57 
    4010    301.69648   -3144.8575   -2696.1068    -242.9725    12061.912 
    4020    299.94901   -3143.5524    -2697.401   -206.45059    12061.249 
    4030    299.71928   -3142.7874   -2696.9777   -191.67548    12060.582 
    4040    301.41584   -3142.1893   -2693.8561   -198.12449     12059.91 
    4050    304.25788   -3145.1591   -2692.5986   -255.71328    12059.234 
    4060     307.2831   -3146.5485   -2689.4882   -296.66694    12058.553 
    4070    309.49927   -3148.9511   -2688.5944   -337.38974    12057.865 
    4080     310.0624   -3149.9333    -2688.739   -341.73083     12057.17 
    4090    308.81827   -3147.8079   -2688.4641   -291.07217    12056.468 
    4100    306.81954   -3148.1774   -2691.8066   -259.24967     12055.76 
    4110    305.79776   -3147.7858   -2692.9348   -227.55933    12055.045 
    4120    306.23488   -3149.0774   -2693.5762   -229.82872    12054.326 
    4130    307.30202   -3149.7614    -2692.673     -235.269    12053.602 
    4140    308.23058   -3149.6908   -2691.2211   -234.87005    12052.873 
    4150    308.65326   -3151.1066   -2692.0083   -250.43812    12052.138 
    4160    308.65965   -3149.8649    -2690.757     -235.448    12051.399 
    4170    308.33209   -3150.4964   -2691.8758    -238.2057    12050.654 
    4180    307.94071   -3151.2147   -2693.1762   -237.90468    12049.904 
    4190    307.72129   -3150.3444   -2692.6323   -215.49177    12049.149 
    4200    307.45425   -3152.2035   -2694.8886     -214.842    12048.389 
    4210       306.25   -3150.3804   -2694.8567   -158.62375    12047.624 
    4220    303.33575   -3148.1467   -2696.9577   -79.108719    12046.856 
    4230    299.26707   -3144.9701    -2699.833    19.277203    12046.086 
    4240    295.83003   -3143.2873   -2703.2625     90.16684    12045.317 
    4250     294.0353   -3142.8894   -2705.5342    124.12789    12044.549 
    4260     293.6392   -3142.4157   -2705.6496    135.64852    12043.783 
    4270    294.54998   -3142.7278    -2704.607     116.1472     12043.02 
    4280    297.26136   -3142.3312   -2700.1774    79.844251     12042.26 
    4290    301.98665   -3146.3722     -2697.19   -26.381388    12041.501 
    4300    307.60039   -3150.3835   -2692.8513   -140.21601    12040.741 
    4310    312.63582   -3152.2817   -2687.2596   -222.64596    12039.978 
    4320     316.4214   -3153.9675   -2683.3146   -286.79289     12039.21 
    4330    319.45279    -3156.969   -2681.8072   -350.84796    12038.435 
    4340    321.95561   -3159.4736    -2680.589   -393.64204    12037.654 
    4350    322.52387   -3158.6518    -2678.922   -370.26436    12036.864 
    4360    319.47366   -3158.7128   -2683.5199   -313.70813    12036.066 
    4370    313.14543   -3155.1543   -2689.3742   -182.36866    12035.261 
    4380    305.89089   -3149.8968   -2694.9073   -24.502132    12034.452 
    4390    300.26763   -3145.2559   -2698.6305    104.22099    12033.643 
    4400    298.06009   -3142.8791   -2699.5373    164.71137    12032.835 
    4410    299.80656   -3143.8038   -2697.8642    141.43731     12032.03 
    4420      304.444   -3145.5693   -2692.7319     75.92017    12031.229 
    4430    309.66708    -3150.908   -2690.3017   -36.535732    12030.428 
    4440    313.21687    -3155.472   -2689.5856   -123.85023    12029.627 
    4450    314.00505   -3154.0221   -2686.9634   -113.66048    12028.823 
    4460    312.02502   -3153.1343   -2689.0207   -79.535807    12028.017 
    4470    308.54513   -3151.7208   -2692.7833   -25.617977    12027.209 
    4480    305.35472   -3150.5085   -2696.3165    18.125859      12026.4 
    4490    303.78724   -3148.7249   -2696.8644    44.057986    12025.591 
    4500    304.47353   -3149.7084   -2696.8271     9.564339    12024.783 
    4510    307.42969   -3153.3393    -2696.061   -80.653659    12023.975 
    4520    311.72601    -3157.783   -2694.1142   -190.77865    12023.165 
    4530    315.25663   -3161.3015   -2692.3812   -277.14415    12022.351 
    4540    316.18231   -3162.6014   -2692.3042   -304.22106    12021.531 
    4550    313.64607   -3162.2617    -2695.737   -269.00499    12020.704 
    4560    308.12271   -3157.4549   -2699.1457   -146.99624    12019.872 
    4570    301.75779   -3154.0308    -2705.189   -25.106212    12019.036 
    4580    297.08283   -3150.3431   -2708.4549    87.068512      12018.2 
    4590    295.53316   -3149.2406   -2709.6574     142.4249    12017.365 
    4600    296.65927   -3149.4907   -2708.2325    155.81224    12016.533 
    4610    298.86978   -3150.3705   -2705.8244    146.86808    12015.704 
    4620    301.25178   -3154.3952    -2706.306    95.173297    12014.878 
    4630    304.03744   -3157.2613   -2705.0287    46.451809    12014.053 
    4640    306.95271   -3157.4587   -2700.8898    19.168886     12013.23 
    4650    309.01208   -3158.2448   -2698.6127   -14.060559    12012.407 
    4660    309.86835   -3158.7134   -2697.8078   -38.408364    12011.583 
    4670    309.68014   -3158.3211   -2697.6954   -45.653719    12010.759 
    4680    308.22447   -3155.5907   -2697.1302   -14.974869    12009.934 
    4690    305.55756   -3154.9043   -2700.4105    6.5002718    12009.108 
    4700    302.60379   -3154.1495   -2704.0493    35.943175    12008.282 
    4710    300.53628   -3152.7004   -2705.6754    69.355548    12007.456 
    4720    300.46334   -3151.2036   -2704.2872    90.135444    12006.632 
    4730    302.00415   -3152.8138   -2703.6055    67.844097     12005.81 
    4740    303.22941   -3153.9424   -2702.9117     57.59276    12004.989 
    4750    303.18775   -3154.3118    -2703.343    71.913917    12004.169 
    4760    301.99935   -3152.9571   -2703.7559    119.94071     12003.35 
    4770    300.00696   -3149.8535   -2703.6159    195.58075    12002.534 
    4780    297.47086   -3148.2091   -2705.7438    256.73728    12001.721 
    4790    294.77812   -3146.5837   -2708.1236    312.19725    12000.914 
    4800    292.73804   -3145.2853   -2709.8596    349.70212    12000.114 
    4810    292.22409   -3146.8956   -2712.2344    332.73757     11999.32 
    4820    293.76487   -3147.4491   -2710.4961    302.56307    11998.534 
    4830    296.91219   -3150.3183   -2708.6839    229.84921    11997.754 
    4840    299.94263   -3152.0547   -2705.9128    171.93788    11996.978 
    4850     301.3481   -3154.4944   -2706.2619    124.74376    11996.206 
    4860     301.7097   -3156.1985   -2707.4282     100.9174    11995.436 
    4870    302.23896   -3157.8927   -2708.3351     82.41145    11994.668 
    4880    302.88404   -3156.3842   -2705.8671    107.04033    11993.902 
    4890    302.90155   -3156.0091    -2705.466    131.21799    11993.138 
    4900    302.41495   -3155.1495   -2705.3302    169.36986    11992.377 
    4910    302.11449   -3153.7635   -2704.3911    214.24759    11991.619 
    4920    302.27546   -3154.5432   -2704.9314    230.63923    11990.865 
    4930    302.40931   -3152.8062   -2702.9953    270.49807    11990.117 
    4940    302.09561   -3153.5178   -2704.1735    280.76431    11989.373 
    4950    301.56277   -3151.8405   -2703.2888    312.48885    11988.636 
    4960     301.1964   -3154.2273   -2706.2205    293.59082    11987.905 
    4970    300.56006    -3154.845   -2707.7847    292.81261     11987.18 
    4980    299.46236   -3154.2168   -2708.7892    306.42361    11986.461 
    4990    299.27343   -3153.9632   -2708.8166    309.76778    11985.748 
    5000    300.83895   -3155.6004   -2708.1253    280.28422    11985.041 
    5010    303.53673   -3156.7201   -2705.2322    249.99856    11984.341 
    5020    306.28353   -3158.6625   -2703.0889    212.21612    11983.645 
    5030    308.47252     -3159.56   -2700.7305    191.55055    11982.954 
    5040     310.0132    -3161.454   -2700.3329    166.08389    11982.267 
    5050    310.96249   -3164.1173   -2701.5842    137.27007    11981.583 
    5060    310.85908   -3165.1255   -2702.7462    136.08422    11980.902 
    5070    309.16917    -3165.544   -2705.6783    155.10153    11980.224 
    5080    306.47458   -3164.9957   -2709.1379    194.35982    11979.549 
    5090    303.92591   -3162.5766   -2710.5098    253.70036    11978.878 
    5100    302.53563   -3162.5464   -2712.5476    276.19407    11978.212 
    5110    302.90808   -3163.4941   -2712.9413    273.07687    11977.552 
    5120    304.77704   -3165.4948    -2712.162    247.34781    11976.897 
    5130    307.14664   -3167.7167   -2710.8593    217.98745    11976.247 
    5140    308.89227   -3168.5834   -2709.1296    212.04162    11975.602 
    5150    309.13244   -3169.3145   -2709.5034    221.02894    11974.961 
    5160    307.99083   -3168.9464   -2710.8334    253.71836    11974.325 
    5170     306.1828   -3167.1864   -2711.7627    305.43778    11973.694 
    5180    304.23576   -3166.2505   -2713.7228    343.51632    11973.069 
    5190    302.68208   -3165.4593   -2715.2426     368.1868    11972.452 
    5200    302.07498   -3165.0674   -2715.7538    370.36471    11971.842 
    5210    302.68725   -3164.8734   -2714.6491    350.47817     11971.24 
    5220    304.32594   -3165.2716   -2712.6098    308.43296    11970.645 
    5230    306.57786   -3166.3674   -2710.3561    252.63442    11970.056 
    5240     308.3809   -3165.8357   -2707.1424     222.8243    11969.473 
    5250    308.12513   -3165.4389   -2707.1261    216.70133    11968.894 
    5260    304.72128   -3164.2763   -2711.0265    254.27227     11968.32 
    5270    299.31794   -3161.3126   -2716.0999      334.917    11967.751 
    5280    295.26455   -3159.1586    -2719.975    398.70197    11967.189 
    5290    294.91283   -3158.4211   -2719.7606    416.65054    11966.635 
    5300    297.56135   -3159.2634   -2716.6635     392.1745    11966.089 
    5310    300.68045   -3163.0705   -2715.8311    331.99698    11965.552 
    5320    301.98636   -3164.2899   -2715.1081    318.24678    11965.022 
    5330    300.77314   -3163.3453   -2715.9681    353.53247    11964.498 
    5340    298.03852   -3161.3295   -2718.0198    419.11666    11963.982 
    5350    294.55543   -3157.4732   -2719.3443    517.84414    11963.474 
    5360    289.71754   -3153.8452   -2722.9123    628.19861    11962.978 
    5370     284.1307   -3149.8142   -2727.1914    746.23819    11962.494 
    5380    281.08346   -3145.7231   -2727.6327    835.74906    11962.026 
    5390    282.92821   -3147.6917   -2726.8575    806.99632    11961.575 
    5400     287.3655   -3150.4273   -2722.9929    738.13365    11961.141 
    5410    290.90136   -3153.9775   -2721.2837    659.62115    11960.723 
    5420    292.96559   -3154.3903   -2718.6262    621.45542    11960.318 
    5430    295.09383   -3154.8476   -2715.9178    577.93408    11959.926 
    5440    298.39979   -3157.5811    -2713.734    498.19495    11959.546 
    5450    302.85626   -3160.8608   -2710.3851    403.36467    11959.177 
    5460    307.93031   -3166.1564   -2708.1334    282.32255    11958.816 
    5470    312.89663   -3168.8832   -2703.4732    192.87058    11958.461 
    5480    317.12623   -3172.1486   -2700.4474    108.07395     11958.11 
    5490     320.1905   -3175.5201    -2699.261    39.696103    11957.761 
    5500    320.94191   -3176.2188    -2698.842    31.685313    11957.413 
    5510    317.69726   -3173.1883   -2700.6377    112.77035    11957.066 
    5520    309.67448    -3168.116   -2707.4987    269.63586    11956.722 
    5530    298.14609   -3160.7052   -2717.2355    489.29086    11956.383 
    5540    286.79874   -3154.6013   -2728.0099    689.72649    11956.054 
    5550    281.02166   -3150.9567   -2732.9583    802.59776     11955.74 
    5560    284.30528   -3152.4858   -2729.6032    765.34679    11955.442 
    5570    294.64542   -3160.8111   -2722.5484    580.66711     11955.16 
    5580    306.14017   -3169.6938   -2714.3335     377.6462    11954.889 
    5590    313.03096   -3174.5634   -2708.9536    266.18384    11954.627 
    5600    312.00948   -3173.2168   -2709.1263    301.75176    11954.371 
    5610    303.56812   -3167.5703   -2716.0357    454.45658    11954.121 
    5620    292.19863   -3159.5995   -2724.9762     651.6213    11953.881 
    5630    284.90161    -3155.275   -2731.5054    759.28756    11953.654 
    5640    285.00443   -3155.0905    -2731.168    741.89486    11953.442 
    5650    289.44374   -3158.8725   -2728.3469    634.47736    11953.246 
    5660    293.69242   -3161.5995   -2724.7543    541.47808    11953.064 
    5670    295.77992   -3160.9648   -2721.0146    513.60452    11952.893 
    5680    295.76559   -3162.6677   -2722.7388    491.88838    11952.733 
    5690     294.3857   -3162.2256   -2724.3492    514.97004    11952.583 
    5700    293.55782   -3162.1673   -2725.5223    528.62187    11952.444 
    5710    295.52125   -3162.6244    -2723.059     504.5476    11952.316 
    5720    301.01043    -3167.264   -2719.5338    391.98861    11952.199 
    5730    309.27653   -3175.4394    -2715.414     205.8885    11952.089 
    5740      318.213   -3181.7268   -2708.4091    30.076165    11951.984 
    5750    325.00807   -3185.2023   -2701.7774   -92.198319     11951.88 
    5760    327.09754   -3188.1346   -2701.6018   -155.63791    11951.774 
    5770    323.18256    -3185.925   -2705.2155   -95.396777    11951.666 
    5780    314.46172   -3179.8068   -2712.0689    61.022098    11951.555 
    5790    304.53519   -3172.1822   -2719.2091    249.25324    11951.445 
    5800    296.88231   -3165.2342   -2723.6443    410.00935    11951.341 
    5810    292.44671    -3161.203   -2726.2107    504.45201    11951.245 
    5820    291.20431   -3159.6715   -2726.5271     535.2424     11951.16 
    5830    292.81313   -3160.5359   -2724.9985      509.444    11951.086 
    5840    295.56438   -3162.4642   -2722.8346     459.6155    11951.023 
    5850    297.66584   -3164.9862   -2722.2308    409.45112    11950.969 
    5860    298.35817   -3164.9416   -2721.1564    403.55344    11950.924 
    5870    297.39418   -3164.5185   -2722.1672    418.06601    11950.888 
    5880     295.2842   -3164.3427   -2725.1298     437.6854     11950.86 
    5890    293.30336   -3162.6762   -2726.4096    465.52041    11950.842 
    5900    293.20572   -3163.3807   -2727.2594    439.57466    11950.834 
    5910    296.23356   -3166.1483   -2725.5233    354.48839    11950.834 
    5920    301.40225   -3169.5014   -2721.1884    238.65279    11950.843 
    5930    306.30779   -3175.3011   -2719.6915    100.61324    11950.856 
    5940    308.53198   -3177.6394   -2718.7215     31.95941    11950.871 
    5950    307.59786   -3176.0474   -2718.5189    46.163437    11950.887 
    5960    304.63215   -3173.5512    -2720.434    102.08112    11950.905 
    5970    300.53739   -3169.8676    -2722.841    192.41704    11950.924 
    5980    295.35325   -3166.3358   -2727.0203    298.09303    11950.948 
    5990    288.96528   -3161.9562   -2732.1422     425.3625    11950.978 
    6000    282.34038   -3158.0595   -2738.0996    546.86748    11951.017 
    6010    277.13182   -3152.9219   -2740.7093    662.54301    11951.068 
    6020    275.08109   -3151.1792   -2742.0169     701.6723    11951.133 
    6030    277.34034   -3152.3221   -2739.7994    656.53708    11951.212 
    6040    283.79837   -3157.7287   -2735.6001    515.10706    11951.305 
    6050    292.58975   -3163.8521    -2728.647    336.65688    11951.408 
    6060    301.85372   -3170.0448   -2721.0603    150.35201    11951.519 
    6070    310.32643   -3176.3442   -2714.7571   -26.034179    11951.633 
    6080    316.51386   -3181.3059   -2710.5155   -157.64092    11951.747 
    6090    318.81114   -3183.7989   -2709.5915   -214.97343    11951.858 
    6100    316.40214   -3183.7706   -2713.1464    -189.3185    11951.964 
    6110    309.95962   -3178.5395    -2717.498   -59.463228    11952.067 
    6120    301.34157   -3173.7508   -2725.5281    92.369161    11952.169 
    6130     292.3786   -3168.4561   -2733.5651    255.18275    11952.273 
    6140     284.5864   -3162.6665   -2739.3658    411.57865    11952.382 
    6150    278.70543   -3157.2961   -2742.7429    542.07352      11952.5 
    6160      275.515    -3154.994   -2745.1863    610.59179     11952.63 
    6170    275.88427   -3155.3167   -2744.9597    613.31525    11952.772 
    6180    279.95436   -3159.2878   -2742.8769    539.15148    11952.927 
    6190    286.06563   -3165.4774   -2739.9765    422.17095    11953.093 
    6200    291.30967   -3169.2168   -2735.9157    342.02297    11953.269 
    6210    293.74967   -3172.0396   -2735.1092    298.60215    11953.452 
    6220    293.60957   -3171.2041   -2734.4821    319.72291    11953.641 
    6230    291.99274   -3170.6425   -2736.3255    351.96443    11953.837 
    6240    289.50153   -3168.6788   -2738.0672    404.81643    11954.041 
    6250    287.16387   -3166.2951   -2739.1606    455.64464    11954.253 
    6260    286.51848   -3165.6238   -2739.4493    467.75003    11954.475 
    6270     288.0026   -3166.5764   -2738.1944    438.84352    11954.707 
    6280    290.34847   -3167.2134    -2735.342    403.89772    11954.948 
    6290    291.23047    -3167.476   -2734.2928    385.29816    11955.199 
    6300    289.42407   -3167.1624    -2736.666    395.32347    11955.457 
    6310     286.4292   -3165.2241   -2739.1824    430.19069    11955.724 
    6320    284.92513   -3163.4105   -2739.6059    445.18637    11956.001 
    6330    286.19998   -3165.3845   -2739.6837      387.893    11956.287 
    6340    289.82345   -3166.9041   -2735.8137    308.42102    11956.581 
    6350    294.32876   -3170.4875   -2732.6957    196.28269    11956.882 
    6360    297.54694    -3172.904   -2730.3255    114.22054    11957.188 
    6370    297.71169   -3172.3831   -2729.5596    102.81262    11957.496 
    6380    294.30977    -3170.409   -2732.6455    150.42725    11957.807 
    6390    288.75866   -3166.1349   -2736.6283    252.08652    11958.121 
    6400     283.6125   -3163.4607   -2741.6086    337.20033    11958.441 
    6410    280.77136   -3161.6142   -2743.9881     391.8975    11958.768 
    6420    280.40765   -3161.1109   -2744.0258     403.3479    11959.104 
    6430    281.78641   -3162.7495   -2743.6135    367.73098    11959.448 
    6440    284.08581   -3163.1882   -2740.6321    330.67547      11959.8 
    6450    287.16692   -3166.2806   -2739.1416    255.32064    11960.159 
    6460    290.62007   -3168.7108   -2736.4354    185.94019    11960.524 
    6470    292.78914   -3170.7657   -2735.2641    138.27747    11960.893 
    6480    292.19723   -3169.2969   -2734.6757    159.48584    11961.265 
    6490    289.74919   -3167.5764   -2736.5964    203.36598    11961.641 
    6500    287.56534   -3166.4346   -2738.7029    238.96426    11962.021 
    6510    286.75377   -3165.3361   -2738.8116    259.19304    11962.407 
    6520     287.0476   -3166.1975   -2739.2359    244.26574    11962.798 
    6530    287.71002   -3166.0048   -2738.0579    233.95391    11963.195 
    6540    288.03513   -3165.5701   -2737.1397    224.73251    11963.597 
    6550    287.81678   -3165.5387   -2737.4331    207.37057    11964.004 
    6560    288.44677   -3165.1827     -2736.14    176.93657    11964.416 
    6570    291.20863   -3165.0074   -2731.8567    117.63603    11964.831 
    6580    295.98331   -3168.3501   -2728.0974   -1.2094388    11965.249 
    6590    301.43134   -3171.6379   -2723.2817   -122.15127    11965.668 
    6600    305.74784   -3173.8693   -2719.0926   -212.16553    11966.084 
    6610    307.45824   -3175.7179    -2718.397   -259.88709    11966.496 
    6620    305.74694    -3173.449   -2718.6736   -216.31652    11966.904 
    6630    301.04855   -3169.7406   -2721.9537   -119.98169    11967.307 
    6640    295.08766    -3166.331   -2727.4105    -12.23836    11967.707 
    6650    289.71955   -3163.7333   -2732.7974    76.672407    11968.108 
    6660    286.49547   -3161.9837   -2735.8434    127.78529    11968.511 
    6670    285.86408   -3163.5024   -2738.3012     109.5941    11968.916 
    6680     286.4671   -3163.7823   -2737.6842     86.54309    11969.324 
    6690    286.77875   -3165.0356    -2738.474    52.002726    11969.735 
    6700    287.34203   -3164.7579   -2737.3585    36.986807    11970.146 
    6710    288.53218   -3164.3908   -2735.2211    29.110687    11970.559 
    6720    288.70683   -3163.8369   -2734.4074    45.311287    11970.973 
    6730    286.23152   -3165.1022   -2739.3545    74.860851    11971.388 
    6740    281.62297   -3161.8427   -2742.9499    178.21303    11971.805 
    6750    277.33417   -3158.6755   -2746.1619     273.5348    11972.227 
    6760    276.11334   -3157.6615   -2746.9638    305.19939    11972.654 
    6770     278.8993   -3158.1435   -2743.3019    266.59363    11973.088 
    6780    284.75762   -3161.4375   -2737.8821    153.03062    11973.528 
    6790     291.8595   -3165.9962   -2731.8774    1.8140338    11973.972 
    6800    298.77006   -3171.4727   -2727.0749   -161.55976    11974.415 
    6810    303.81862   -3174.4575   -2722.5503   -275.14239    11974.856 
    6820    305.02413   -3175.2698   -2721.5695   -316.91845    11975.292 
    6830    301.56817   -3173.4613   -2724.9015   -274.77434    11975.721 
    6840    295.36409   -3167.6233   -2728.2916   -150.96229    11976.145 
    6850    289.19993   -3165.1015   -2734.9385   -57.252912    11976.566 
    6860    285.42125   -3163.0717   -2738.5292    11.259253    11976.987 
    6870    284.86414   -3163.8316   -2740.1178    16.806267    11977.407 
    6880    286.99628   -3164.6387   -2737.7534   -7.0501224    11977.828 
    6890    290.74223   -3167.8882   -2735.4311   -75.011236     11978.25 
    6900    294.83732   -3171.5172   -2732.9691   -149.89369     11978.67 
    6910    297.90126   -3172.8428   -2729.7372   -185.99586    11979.087 
    6920      298.622   -3172.9139   -2728.7363    -184.2181    11979.501 
    6930    297.36638   -3172.2537   -2729.9438   -155.10847    11979.912 
    6940    295.76763   -3171.0929    -2731.161   -119.15898    11980.319 
    6950    295.18771   -3171.0414    -2731.972   -108.28112    11980.724 
    6960    295.86945   -3170.8253   -2730.7419   -111.17354    11981.128 
    6970    297.00808   -3171.5888   -2729.8118   -131.83456    11981.529 
    6980    297.28623    -3171.879   -2729.6883   -140.38556    11981.928 
    6990    296.18961   -3169.6223   -2729.0627   -106.87309    11982.325 
    7000    294.53236   -3167.7607   -2729.6662   -70.029966    11982.719 
    7010    294.34278   -3165.7551   -2727.9425   -99.860298    11983.112 
    7020    296.75275   -3168.4775   -2727.0803   -149.00523    11983.503 
    7030    299.79536   -3170.1655   -2724.2427   -191.97371    11983.892 
    7040    300.85397   -3171.0835    -2723.586   -208.21095    11984.276 
    7050    298.84352   -3169.4694   -2724.9623   -169.03593    11984.657 
    7060    295.34991   -3167.1515   -2727.8408   -113.77683    11985.035 
    7070    294.00507   -3166.6309   -2729.3206   -104.99179     11985.41 
    7080    297.09584   -3169.4045    -2727.497   -181.47837    11985.783 
    7090    303.73679   -3175.1539   -2723.3684   -330.30517    11986.152 
    7100    310.59499     -3179.73   -2717.7435   -474.00253    11986.515 
    7110    314.80687   -3180.6037   -2712.3523   -554.47868    11986.869 
    7120     315.5986   -3179.6427   -2710.2137   -578.44802    11987.211 
    7130    313.52404    -3179.176   -2712.8327   -575.59037    11987.541 
    7140    310.06284   -3176.0974   -2714.9025   -524.56421    11987.859 
    7150    306.81452   -3174.3429   -2717.9796   -484.51033    11988.167 
    7160     305.2461   -3173.2949   -2719.2645   -460.42327    11988.465 
    7170    305.45298   -3173.5385   -2719.2003   -456.83394    11988.753 
    7180    305.74245   -3174.1006   -2719.3319   -449.49393    11989.031 
    7190    304.64339   -3174.0202   -2720.8862   -417.50089    11989.301 
    7200    301.72983   -3172.7545   -2723.9542   -353.87971    11989.562 
    7210    297.73891   -3169.4701    -2726.606   -259.96133    11989.816 
    7220    294.73138   -3166.0392   -2727.6486   -178.58275    11990.065 
    7230    294.75308   -3164.4578    -2726.035   -152.86494     11990.31 
    7240    298.21855   -3167.2265    -2723.649    -216.0565    11990.552 
    7250    304.03391   -3170.3457   -2718.1183   -311.86999    11990.789 
    7260    310.19016   -3174.3462   -2712.9618   -424.26222     11991.02 
    7270    314.56347   -3175.7368   -2707.8474   -491.57967    11991.243 
    7280    315.78158   -3176.3837   -2706.6825   -518.33292    11991.455 
    7290    313.86725   -3176.1684   -2709.3146   -501.96219    11991.657 
    7300    310.45659   -3174.0592   -2712.2785   -444.53566    11991.849 
    7310    307.55029   -3172.8069   -2715.3491   -395.33068    11992.031 
    7320    305.99822   -3171.1248   -2715.9756   -351.34148    11992.205 
    7330    305.67469    -3170.905   -2716.2371   -335.78715    11992.372 
    7340    306.43906   -3175.2101   -2719.4052   -383.22186    11992.531 
    7350    307.77194   -3176.8629   -2719.0755   -410.92079    11992.683 
    7360    308.37607   -3175.8037   -2717.1176   -405.90283    11992.826 
    7370    307.20644    -3174.511   -2717.5647   -383.54359    11992.961 
    7380    304.34773    -3172.377   -2719.6828     -335.861    11993.088 
    7390    300.27902   -3169.3225   -2722.6802   -266.44148    11993.208 
    7400    295.45954   -3166.0384   -2726.5647   -189.65619    11993.323 
    7410    291.18515   -3162.7183   -2729.6024   -122.61309    11993.434 
    7420     289.3713   -3162.0576   -2731.6397   -114.46098    11993.542 
    7430    291.40069   -3163.6397   -2730.2033   -172.10976    11993.648 
    7440    296.34336   -3166.9932   -2726.2049   -279.64985     11993.75 
    7450    301.12463   -3169.4521    -2721.552   -377.86822    11993.847 
    7460    303.50849   -3170.2106   -2718.7647   -436.08271    11993.935 
    7470    303.97999   -3169.5916   -2717.4444   -458.96349    11994.015 
    7480    304.40122   -3171.0416   -2718.2679    -498.2418    11994.085 
    7490    305.90539   -3172.2796   -2717.2685   -537.67365    11994.145 
    7500    308.16228   -3173.3554   -2714.9874   -572.70526    11994.193 
    7510    309.64426   -3173.6622   -2713.0898    -583.5648    11994.229 
    7520    308.99433   -3173.2382   -2713.6326   -561.17635    11994.254 
    7530      306.428   -3171.9544   -2716.1659   -509.56727    11994.266 
    7540     304.1008   -3169.7749   -2717.4481    -451.3343    11994.268 
    7550    304.46411   -3169.2246   -2716.3573    -438.2202     11994.26 
    7560    307.83226   -3171.5607   -2713.6836   -487.47315    11994.243 
    7570    312.06431   -3173.6708   -2709.4988   -547.06621    11994.215 
    7580    315.04554   -3176.9395   -2708.3332   -611.78703    11994.176 
    7590    316.17362   -3177.6841   -2707.3998   -630.65797    11994.125 
    7600    315.41809    -3177.595   -2708.4345   -617.25079     11994.06 
    7610    312.40999   -3177.3526   -2712.6664   -572.37469    11993.982 
    7620    306.63745   -3173.7233   -2717.6234   -455.77971    11993.892 
    7630      298.592   -3167.5605   -2723.4275   -283.40183    11993.793 
    7640    290.29574   -3162.0243   -2730.2314   -112.71642    11993.687 
    7650    284.29806    -3158.647   -2735.7752    12.218049    11993.579 
    7660    282.06022   -3157.4581   -2737.9149    71.852101    11993.472 
    7670    283.82977   -3158.3538   -2736.1786    59.281411    11993.365 
    7680    289.06805   -3162.0387   -2732.0718   -31.197398     11993.26 
    7690    296.70048   -3166.3644   -2725.0449   -166.08456    11993.154 
    7700    304.93272   -3171.3488   -2717.7845   -325.96277    11993.044 
    7710    312.02884   -3176.3845   -2712.2653   -481.07563    11992.928 
    7720    317.46847    -3179.813   -2707.6027    -599.6906    11992.801 
    7730    321.15532   -3182.3634   -2704.6692   -680.78835    11992.662 
    7740    322.14949   -3182.2394   -2703.0664   -692.00526    11992.508 
    7750    319.54291   -3179.6333   -2704.3374   -631.42519     11992.34 
    7760    314.31728   -3175.8406   -2708.3174   -527.58169    11992.159 
    7770    309.06993   -3173.0895   -2713.3714   -431.99629    11991.966 
    7780    305.56394    -3171.214   -2716.7108   -362.93646    11991.765 
    7790    303.95332   -3171.7596    -2719.652   -341.57196    11991.555 
    7800    303.78734   -3171.8048   -2719.9441   -332.15059    11991.338 
    7810    304.09842   -3172.2939   -2719.9706   -335.06008    11991.114 
    7820    303.28999   -3171.9175   -2720.7966   -322.66375    11990.883 
    7830    301.18317    -3170.562   -2722.5748   -292.60268    11990.644 
    7840    299.76819   -3170.0525     -2724.17   -280.75729      11990.4 
    7850    300.88681   -3170.5411   -2722.9948   -299.46002     11990.15 
    7860     303.4539   -3173.4261   -2722.0615   -352.44857    11989.893 
    7870    305.18272   -3173.9203   -2719.9841   -367.67646    11989.628 
    7880    305.34043   -3174.0483   -2719.8775   -362.04489    11989.356 
    7890    304.91422   -3175.1099   -2721.5731   -360.39216    11989.076 
    7900    305.31216   -3175.5259   -2721.3972   -360.10561    11988.788 
    7910    306.99951   -3176.2607   -2719.6222   -376.79784    11988.492 
    7920    308.95443   -3177.0408   -2717.4945   -398.39714    11988.188 
    7930     309.6676   -3176.8765   -2716.2694   -399.94933    11987.876 
    7940    308.52195   -3175.6296   -2716.7265   -372.31969    11987.555 
    7950    306.08835   -3175.6488   -2720.3656   -343.49284    11987.226 
    7960     303.5257   -3172.2964   -2720.8249   -270.74867     11986.89 
    7970    301.51895   -3169.8308   -2721.3443   -208.52885    11986.547 
    7980    300.03259   -3170.0729   -2723.7971   -180.44854      11986.2 
    7990    299.26692   -3168.6795   -2723.5426   -143.49985    11985.849 
    8000    299.93476   -3167.8296   -2721.6994   -132.39704    11985.495 
    8010    301.86231   -3168.9472   -2719.9499   -100.63927    11985.138 
    8020    303.54986   -3170.5605   -2719.0531   -125.64045    11984.779 
    8030    303.78061   -3170.7555   -2718.9049   -115.07755    11984.418 
    8040    301.25032   -3169.8014   -2721.7144   -58.649616    11984.053 
    8050    295.40713   -3166.7809   -2727.3852    56.857628    11983.688 
    8060    287.51559   -3162.4498   -2734.7922    205.28606    11983.323 
    8070    280.95995   -3155.8993   -2737.9927    358.07034    11982.963 
    8080    279.13777   -3155.1722   -2739.9759    391.13472     11982.61 
    8090     282.2801   -3157.7957   -2737.9255    326.70422    11982.264 
    8100    287.96961    -3161.809    -2733.476    207.94093    11981.925 
    8110    293.71881   -3166.1287   -2729.2442    73.170983     11981.59 
    8120     298.0771   -3168.9462   -2725.5791   -37.843318    11981.257 
    8130    300.42941   -3169.4359   -2722.5699    -104.0607    11980.923 
    8140    300.50573   -3169.6412   -2722.6617    -143.2756    11980.586 
    8150    298.77467   -3166.2085   -2721.8038   -121.22191    11980.247 
    8160    296.56167   -3164.9357   -2723.8227   -113.42507    11979.904 
    8170    295.29799   -3164.4629   -2725.2295   -117.13252    11979.559 
    8180    295.37936   -3165.0651   -2725.7107   -137.55716    11979.212 
    8190    296.27508   -3166.1048   -2725.4181   -161.12028    11978.861 
    8200    297.41836   -3166.3975   -2724.0102   -167.79147    11978.507 
    8210    298.01243   -3167.7524   -2724.4815   -171.68388    11978.149 
    8220    297.46861   -3167.2549   -2724.7929   -136.62034    11977.788 
    8230    295.49089   -3166.4081   -2726.8878   -81.773392    11977.423 
    8240    292.72023   -3164.7403   -2729.3411   -14.861735    11977.056 
    8250     291.0923   -3163.4766   -2730.4989    29.877378    11976.689 
    8260    292.31619   -3165.5318   -2730.7336     5.506194    11976.322 
    8270    295.96459   -3169.0278   -2728.8028   -60.907718    11975.955 
    8280    299.40214   -3169.8756   -2724.5377   -96.447882    11975.587 
    8290    299.83576   -3170.9829   -2724.9999    -104.9685    11975.216 
    8300    296.90172   -3168.1438    -2726.525   -37.496371    11974.843 
    8310    293.10203   -3166.4037   -2730.4366    27.047517    11974.469 
    8320    291.30801   -3166.4673   -2733.1687    52.995317    11974.095 
    8330    292.61578   -3167.5258    -2732.282    39.219381    11973.721 
    8340    295.77078   -3170.8033   -2730.8667   -14.140739    11973.349 
    8350    298.39101    -3172.786   -2728.9519   -44.159506    11972.976 
    8360    298.10189   -3173.3808   -2729.9768   -27.946061    11972.601 
    8370    293.90666    -3172.017   -2734.8531    46.373273    11972.226 
    8380    287.65681   -3167.3648   -2739.4971     169.9564    11971.852 
    8390    282.81715   -3162.5229   -2741.8539    272.88061    11971.482 
    8400    281.18612   -3159.7986   -2741.5556    308.78336    11971.116 
    8410    283.31566    -3162.345   -2740.9344    236.31558    11970.757 
    8420    289.70067   -3167.3507   -2736.4429    87.637815    11970.402 
    8430     298.9618   -3171.7472   -2727.0642   -81.494261    11970.049 
    8440    307.25872   -3175.8645   -2718.8404   -231.02263    11969.694 
    8450    311.00578   -3178.6272   -2716.0297   -311.19967    11969.335 
    8460    310.25693   -3177.9683   -2716.4846   -295.69319    11968.968 
    8470    307.90467   -3175.1309   -2717.1461   -223.62336    11968.596 
    8480    305.86867   -3173.4398   -2718.4833   -153.48404    11968.218 
    8490    304.11194   -3173.6533   -2721.3098    -100.5022    11967.837 
    8500    302.10981   -3172.1163   -2722.7508   -23.971193    11967.453 
    8510    299.09624   -3169.6063   -2724.7233    70.700473    11967.069 
    8520    295.00663    -3167.521    -2728.721    163.32728    11966.686 
    8530    291.81955    -3163.964   -2729.9045    253.99712    11966.307 
    8540    291.82148   -3163.1724   -2729.1101    275.72834    11965.932 
    8550    294.77188   -3165.1106   -2726.6598    232.35883    11965.563 
    8560    298.52081   -3168.5311    -2724.504    160.96273    11965.198 
    8570    300.81163   -3170.5338   -2723.0993    118.47866    11964.837 
    8580    300.54804   -3169.9492   -2722.9067     129.5578    11964.478 
    8590    298.37955   -3168.8163   -2724.9994    165.32348    11964.122 
    8600    295.75532   -3166.3103   -2726.3967    218.92478    11963.768 
    8610    293.90467   -3165.1363   -2727.9754    246.00371    11963.419 
    8620    293.74473   -3164.3595   -2727.4365    248.23642    11963.076 
    8630    295.54323   -3165.2209   -2725.6227    211.67697    11962.736 
    8640    298.76998   -3168.1398   -2723.7421    139.60045    11962.402 
    8650    302.73213   -3170.6531    -2720.362    70.114967     11962.07 
    8660    306.44145   -3174.8344    -2719.026   -7.7080526    11961.739 
    8670    308.60911   -3175.9576   -2716.9249   -30.358348    11961.408 
    8680    308.66378   -3176.2558   -2717.1418   -21.260854    11961.077 
    8690    307.67798   -3175.2981   -2717.6504     14.19562    11960.744 
    8700    306.87657   -3176.0478   -2719.5921    32.128199    11960.412 
    8710     306.3098   -3176.4389   -2720.8263    55.051486    11960.081 
    8720    304.90358   -3174.3984   -2720.8775    115.28268     11959.75 
    8730    301.83603    -3172.112   -2723.1537    194.09477    11959.422 
    8740     297.3449    -3169.086    -2726.808    290.44025    11959.097 
    8750    292.81054   -3166.2951   -2730.7616    379.11813    11958.778 
    8760     290.0197   -3164.4625   -2733.0802     434.5258    11958.467 
    8770    290.11778   -3166.5031   -2734.9748    412.68496    11958.165 
    8780    292.83468   -3168.4088   -2732.8394    361.47604    11957.871 
    8790     296.7412    -3171.938   -2730.5579    277.69625    11957.584 
    8800    299.85064   -3174.9072    -2728.902    206.24683    11957.303 
    8810     300.5379   -3174.9919   -2727.9646    189.33035    11957.027 
    8820    298.85016   -3175.7733   -2731.2563    188.31311    11956.754 
    8830    296.74545   -3171.5242   -2730.1379    247.85273    11956.485 
    8840    296.42019   -3170.2395   -2729.3369    259.73201    11956.221 
    8850    297.83092    -3171.883   -2728.8821    225.87537    11955.962 
    8860    299.19032   -3170.9902   -2725.9672    221.78072    11955.708 
    8870    299.61512   -3170.4919   -2724.8371    222.95934    11955.458 
    8880     299.1752   -3171.7552   -2726.7548     212.8509    11955.213 
    8890    298.65571   -3173.6178     -2729.39    196.83684    11954.972 
    8900    298.76248    -3173.687   -2729.3005    193.51179    11954.736 
    8910    299.09809   -3172.3388    -2727.453    201.02217    11954.503 
    8920    298.90805   -3171.2778   -2726.6748     205.5402    11954.274 
    8930      298.566   -3169.3205   -2725.2262    218.63462    11954.049 
    8940    298.96801   -3170.6458   -2725.9536    187.23222    11953.829 
    8950    300.78382   -3172.5688   -2725.1756    136.11204    11953.613 
    8960    303.84938     -3174.19   -2722.2371    78.555116    11953.399 
    8970    306.88357   -3174.3429   -2717.8768    41.349383    11953.187 
    8980    308.26746   -3175.1791   -2716.6546    15.830082    11952.976 
    8990    307.73338   -3175.7148   -2717.9847    16.174136    11952.765 
    9000    306.30771   -3174.9742   -2719.3647    44.743447    11952.554 
    9010     304.9225   -3173.9972   -2720.4481    83.354366    11952.345 
    9020    303.39682   -3171.8709   -2720.5911    141.82344    11952.136 
    9030    301.42819   -3169.9602   -2721.6086    204.43033    11951.931 
    9040    299.57827   -3168.6594   -2723.0594    258.37949     11951.73 
    9050    299.07865   -3166.9869   -2722.1301    299.93091    11951.534 
    9060    300.75514   -3169.0833   -2721.7328    275.15223    11951.344 
    9070    303.58169   -3170.6716   -2719.1168    241.45424     11951.16 
    9080    305.29881   -3173.1925   -2719.0836    206.33285    11950.981 
    9090    304.32299   -3170.7926   -2718.1352     252.6714    11950.807 
    9100    300.45413   -3167.9414   -2721.0387    332.61828    11950.637 
    9110    294.91477   -3164.9697   -2726.3063    427.86128    11950.475 
    9120    289.90625   -3161.1868   -2729.9732    520.81591    11950.321 
    9130     287.4756   -3158.5556   -2730.9574    567.83903    11950.178 
    9140    288.17831   -3157.0723   -2728.4289    560.53439    11950.047 
    9150    291.81223    -3161.196   -2727.1475    452.21227    11949.927 
    9160     297.9854   -3166.8382   -2723.6075    296.17442    11949.817 
    9170    305.49259   -3171.1832   -2716.7861    140.98067    11949.713 
    9180    311.76065   -3177.4228   -2713.7024   -20.605866    11949.612 
    9190    314.65161   -3181.0291   -2713.0087    -115.0222    11949.511 
    9200     314.1292   -3180.2621   -2713.0187   -118.93367    11949.407 
    9210    311.60405   -3180.1965   -2716.7091   -99.838603    11949.301 
    9220     308.2546   -3176.5269   -2718.0215   -22.562037    11949.193 
    9230    304.54513   -3175.6302   -2722.6424    36.399758    11949.084 
    9240    300.77191   -3171.7976   -2724.4222    134.83476    11948.976 
    9250    297.44373   -3168.1451   -2725.7201    228.84122    11948.871 
    9260    295.14123   -3167.1849   -2728.1847    282.99638     11948.77 
    9270    293.97746   -3166.7612    -2729.492    317.35762    11948.676 
    9280    293.90443   -3166.4478   -2729.2873    335.29336    11948.587 
    9290    294.81292   -3167.4805   -2728.9686    324.41173    11948.506 
    9300     296.0145   -3167.6647   -2727.3656    316.50912    11948.432 
    9310    296.29934   -3169.0478    -2728.325    302.65673    11948.365 
    9320    295.11401   -3167.2918    -2728.332    337.46046    11948.304 
    9330    293.29202   -3164.8259   -2728.5762    385.16042     11948.25 
    9340    292.09456   -3165.6928   -2731.2243    390.09021    11948.203 
    9350    291.31163   -3163.9538   -2730.6499    418.34161    11948.166 
    9360    290.03909   -3161.2114   -2729.8003    457.34136    11948.137 
    9370    289.13686   -3160.1724   -2730.1032    466.31697    11948.117 
    9380    291.36655   -3161.0715   -2727.6858     421.6508    11948.108 
    9390      297.522   -3166.1711   -2723.6296    298.65869    11948.107 
    9400    304.49552   -3171.1919   -2718.2778    179.74196    11948.113 
    9410    307.78537   -3175.5978   -2717.7904    115.28797    11948.122 
    9420     305.1427   -3173.2037   -2719.3271    193.31205    11948.135 
    9430    297.95534   -3169.3277   -2726.1417    336.00429    11948.151 
    9440    290.14248   -3163.5653   -2732.0003    503.09326    11948.175 
    9450     285.4908   -3159.8934   -2735.2475    605.18211    11948.209 
    9460    286.06408   -3159.6248   -2734.1261    602.13534    11948.256 
    9470    291.62666   -3165.0953   -2731.3227    470.68015    11948.315 
    9480    299.61834   -3172.1392   -2726.4796     285.2639    11948.384 
    9490      306.739   -3176.9941   -2720.7431    125.46134    11948.459 
    9500    310.91883   -3180.3078   -2717.8396    7.9698516    11948.538 
    9510    312.67238   -3180.9966   -2715.9202   -56.468739    11948.616 
    9520    313.95138   -3180.9609   -2713.9821   -102.18373    11948.694 
    9530    315.07564   -3180.4199   -2711.7687   -131.44836     11948.77 
    9540    314.38482   -3180.3173   -2712.6937    -138.5079    11948.844 
    9550    310.98476   -3177.3896   -2714.8233    -78.54627    11948.914 
    9560     305.8372   -3173.8955   -2718.9859    16.124992    11948.984 
    9570    300.26581   -3169.0535   -2722.4309    142.01717    11949.053 
    9580    295.16618   -3166.3859   -2727.3486    248.61521    11949.126 
    9590    291.24693    -3161.913   -2728.7053    365.40774    11949.204 
    9600    289.69977   -3162.7897   -2731.8833    396.46921     11949.29 
    9610    291.53219   -3165.6428   -2732.0107    366.27323    11949.384 
    9620    296.48065   -3171.0815    -2730.089    269.74999    11949.486 
    9630    302.68913   -3173.3301   -2723.1029     190.2297    11949.594 
    9640    307.86073   -3176.9512   -2719.0317    101.50328    11949.706 
    9650    310.98729   -3179.0044   -2716.4344    49.807942    11949.821 
    9660    312.25383   -3180.1453   -2715.6914    28.681013    11949.936 
    9670    311.99123   -3178.7665   -2714.7032    53.962747    11950.053 
    9680    310.20263   -3177.4983   -2716.0954    95.702317    11950.171 
    9690    307.26466   -3174.8997   -2717.8668    164.05967    11950.291 
    9700     304.0194   -3172.4793   -2720.2735    232.17933    11950.415 
    9710    301.27172   -3171.3328    -2723.214    277.68901    11950.544 
    9720    299.85361   -3170.5941   -2724.5846    300.53122    11950.678 
    9730    300.60525    -3171.643   -2724.5154    279.54276    11950.819 
    9740    303.17078   -3173.5722   -2722.6287    231.72539    11950.967 
    9750     305.5349   -3175.0955   -2720.6355    190.95058    11951.119 
    9760    305.83529   -3175.3016   -2720.3948    185.41238    11951.276 
    9770    303.65021    -3173.367   -2721.7103    228.13796    11951.437 
    9780    299.81475   -3170.5341   -2724.5823    297.90934    11951.603 
    9790    295.65959    -3167.741   -2727.9698    370.82491    11951.776 
    9800     292.4245   -3165.3346   -2730.3753    429.62856    11951.956 
    9810    290.18041   -3163.6229   -2732.0015    468.74701    11952.146 
    9820    287.97226   -3162.1962   -2733.8593    497.37598    11952.346 
    9830    285.86198   -3159.9193   -2734.7213    523.09826    11952.557 
    9840    285.77482   -3159.1928   -2734.1244    500.28162    11952.779 
    9850    290.22497   -3163.6226    -2731.935    371.07334    11953.011 
    9860    299.01727   -3170.5756   -2725.8101    173.96576    11953.251 
    9870    307.95276   -3176.9735   -2718.9171   -10.077063    11953.496 
    9880    312.09278   -3181.0519   -2716.8376    -110.6734     11953.74 
    9890    309.83881    -3178.005   -2717.1433   -56.033852    11953.984 
    9900    303.28231    -3174.959   -2723.8495    53.541143    11954.226 
    9910     296.5472   -3168.5039   -2727.4124    212.13427     11954.47 
    9920    292.74067   -3166.2158   -2730.7862    299.94596    11954.719 
    9930    292.27212   -3166.6641   -2731.9314    322.45349    11954.974 
    9940    293.79892    -3167.592   -2730.5884    313.81526    11955.236 
    9950    295.68526   -3168.7709   -2728.9614    293.39957    11955.505 
    9960    296.45398   -3169.4283   -2728.4755    286.13518    11955.781 
    9970    295.28187   -3167.1393   -2727.9299    327.72321    11956.063 
    9980    292.46983   -3166.1984   -2731.1717    368.01395    11956.352 
    9990    289.30448   -3163.4299   -2733.1114    428.95905     11956.65 
   10000     287.2552   -3162.6278   -2735.3575    452.79176    11956.957 
   10010    287.08045   -3162.2198   -2735.2094      449.903    11957.273 
   10020    288.62875   -3162.8884    -2733.575    413.97173      11957.6 
   10030    291.56697   -3164.9266   -2731.2429    345.74119    11957.935 
   10040    295.34605   -3167.1586   -2727.8537     265.3226    11958.278 
   10050    299.39057    -3168.788   -2723.4673    189.11408    11958.627 
   10060    303.44642   -3171.6069   -2720.2534    100.26307    11958.981 
   10070    307.46481   -3173.4783   -2716.1477    22.904164    11959.337 
   10080    311.25463   -3174.6605   -2711.6928   -43.015366    11959.694 
   10090    314.46502   -3177.0128   -2709.2699   -110.84882     11960.05 
   10100    316.51964   -3178.0301   -2707.2311    -144.4483    11960.405 
   10110    317.29852   -3178.8119   -2706.8544   -152.72988    11960.757 
   10120    317.46148    -3178.635   -2706.4351   -135.96022    11961.107 
   10130    318.33894    -3179.752   -2706.2469   -131.85552    11961.454 
   10140    319.98725   -3181.8098    -2705.853   -137.74574    11961.798 
   10150    320.54857   -3183.1057    -2706.314   -122.41249    11962.141 
   10160    318.59528   -3182.3712   -2708.4849   -61.209853    11962.481 
   10170    313.93232   -3179.4739   -2712.5234     47.37488    11962.821 
   10180    307.03991   -3174.7494   -2718.0508    192.56887    11963.162 
   10190    298.71424   -3168.7584   -2724.4437    356.15944    11963.508 
   10200    290.88005   -3162.5886   -2729.9266    505.47589    11963.862 
   10210    286.21351    -3161.275   -2735.5541    559.16186    11964.226 
   10220    286.23767   -3162.5977   -2736.8409    529.63279    11964.603 
   10230      289.731   -3165.9591   -2735.0062    435.93962    11964.991 
   10240    293.96325   -3169.1827   -2731.9346     328.5617     11965.39 
   10250      296.742    -3169.408   -2728.0268    260.84292    11965.795 
   10260    297.60001   -3169.3329   -2726.6754    210.80227    11966.207 
   10270    297.48491   -3169.8896   -2727.4034    164.80531    11966.624 
   10280    297.34755   -3168.8532   -2726.5713    141.22952    11967.044 
   10290     297.7657   -3168.7324   -2725.8285    109.43224    11967.469 
   10300    299.02024   -3167.3559   -2722.5859    93.372249    11967.896 
   10310    300.82135   -3169.6509   -2722.2019    42.053769    11968.325 
   10320     302.2352   -3169.9628   -2720.4109    27.127918    11968.757 
   10330    302.38797   -3169.9154   -2720.1362    39.717954    11969.189 
   10340    300.98173   -3168.2462   -2720.5586    89.364563    11969.623 
   10350    299.28581   -3166.3736   -2721.2086    139.89661    11970.059 
   10360    299.39856   -3165.6405   -2720.3079    152.98646    11970.499 
   10370    302.04349   -3168.3937   -2719.1269    93.439446    11970.942 
   10380    305.85036   -3169.5983    -2714.669    30.358092    11971.388 
   10390    308.74718   -3173.0553   -2713.8173   -57.193032    11971.836 
   10400    310.19402   -3173.1268   -2711.7367    -97.70211    11972.283 
   10410     310.9816   -3174.0509   -2711.4894   -138.81171    11972.728 
   10420    311.45899   -3174.4946    -2711.223   -166.39244    11973.171 
   10430     310.5863   -3173.8612   -2711.8876   -165.40389    11973.612 
   10440    307.24168   -3171.2291   -2714.2304   -119.11612    11974.049 
   10450     302.7299   -3168.4347   -2718.1469   -64.113544    11974.485 
   10460     300.6325   -3168.1259   -2720.9578   -64.106136     11974.92 
   10470     303.4794   -3170.7669   -2719.3643   -146.00486    11975.354 
   10480    309.98219   -3174.4018   -2713.3268   -273.26228    11975.786 
   10490    316.11875   -3176.5928   -2706.3901   -377.15608    11976.212 
   10500    318.12307   -3178.1185   -2704.9345    -428.4413    11976.631 
   10510    314.72514   -3175.4539   -2707.3241   -375.23022    11977.042 
   10520    307.44651   -3171.3795   -2714.0762   -260.78346    11977.446 
   10530    299.03641   -3165.8581   -2721.0641   -112.57078    11977.844 
[...]
   97500    293.01317   -3369.5674   -2933.7325    134.50579    11450.965 
   97510    291.23632   -3367.6882   -2934.4963    174.15696    11451.456 
   97520    292.57309   -3368.1581   -2932.9778    150.85539    11451.952 
   97530    295.83312   -3370.3938   -2930.3645    83.118299     11452.45 
   97540    298.59596   -3371.8803   -2927.7415    25.333198    11452.951 
   97550    299.58713   -3372.6318   -2927.0186   -10.003212    11453.453 
   97560    299.54342   -3372.1207   -2926.5726   -23.364864    11453.955 
   97570    299.75178   -3371.9216   -2926.0636   -46.122268    11454.457 
   97580    300.98986   -3374.0344   -2926.3348   -108.12274    11454.959 
   97590     303.1247   -3375.0793   -2924.2043    -166.7123    11455.459 
   97600    305.08257   -3375.8662    -2922.079   -217.24641    11455.957 
   97610    305.56345   -3375.7354    -2921.233   -236.30271    11456.451 
   97620    304.31374   -3374.1095   -2921.4658   -214.46699    11456.941 
   97630    302.43322   -3372.4272   -2922.5807   -181.78148    11457.427 
   97640     301.4249   -3372.6865   -2924.3398   -180.41552    11457.911 
   97650    302.26967   -3374.0036   -2924.4004   -215.28193    11458.391 
   97660    305.35189    -3377.182   -2922.9942    -298.6015    11458.868 
   97670    309.58101   -3380.1286   -2919.6503   -392.98779    11459.339 
   97680    312.86359   -3382.7974   -2917.4365   -472.71639    11459.804 
   97690    313.30902   -3382.3944    -2916.371   -483.92825    11460.259 
   97700    310.44048   -3379.8938   -2918.1371   -434.07848    11460.707 
   97710    305.84605   -3376.1642   -2921.2413   -350.49206    11461.146 
   97720    302.19333   -3373.6332   -2924.1435    -287.9188    11461.579 
   97730    300.83997   -3372.7466     -2925.27   -264.23635    11462.006 
   97740    300.72741   -3371.8252    -2924.516   -250.87854    11462.429 
   97750    300.68801   -3372.0074   -2924.7567   -248.70026    11462.848 
   97760     300.0631   -3372.1696   -2925.8485   -240.22711    11463.262 
   97770    298.70203    -3372.202   -2927.9054   -225.99408    11463.672 
   97780    297.46737   -3371.6689   -2929.2087   -212.52883    11464.078 
   97790    297.79863   -3372.5153   -2929.5624   -236.74188     11464.48 
   97800    300.05245   -3372.8932    -2926.588   -278.78147    11464.879 
   97810    302.16023    -3375.537   -2926.0965   -345.43635    11465.272 
   97820    300.99388     -3375.32   -2927.6144   -344.93774    11465.659 
   97830    296.09486   -3372.8383   -2932.4196   -281.23086     11466.04 
   97840    290.19095   -3367.9311    -2936.294   -181.55725    11466.416 
   97850    286.41561   -3366.3813   -2940.3598   -147.29815    11466.788 
   97860    286.73648   -3365.7761   -2939.2773   -172.51486    11467.159 
   97870    291.71171   -3368.3545   -2934.4555   -285.05372    11467.526 
   97880    299.93437   -3374.8287   -2928.6991   -473.40335    11467.888 
   97890    308.35639   -3380.1347   -2921.4779   -643.41344    11468.241 
   97900     314.0686   -3385.8816   -2918.7284   -779.97068    11468.582 
   97910    315.51984   -3387.6744   -2918.3626   -815.88632    11468.908 
   97920    312.89264   -3386.6918   -2921.2877   -769.35837     11469.22 
   97930     308.3067   -3382.7356   -2924.1528   -663.50617    11469.516 
   97940    304.53743   -3379.6257   -2926.6493   -572.86897    11469.801 
   97950     302.5592   -3378.8505   -2928.8166   -527.53722    11470.074 
   97960    301.42529   -3378.0201   -2929.6728   -494.45119    11470.338 
   97970    300.32477   -3376.8201   -2930.1098    -463.3098    11470.592 
   97980    299.19597   -3375.3381   -2930.3068   -434.97061    11470.837 
   97990    298.23037   -3375.4207   -2931.8256    -432.0534    11471.075 
   98000    297.77038   -3375.2062   -2932.2953   -435.53123    11471.304 
   98010    298.41069    -3376.171   -2932.3077   -465.58467    11471.525 
   98020    299.96116    -3377.788   -2931.6185   -510.03495    11471.738 
   98030    300.90413   -3377.9216   -2930.3495    -527.7358    11471.941 
   98040    300.17093   -3377.7814   -2931.2999   -519.97859    11472.134 
   98050    297.52765   -3376.4123   -2933.8624   -474.42745    11472.318 
   98060    293.52486   -3373.1524   -2936.5565   -393.08476    11472.492 
   98070    289.95589   -3370.5939   -2939.3065   -326.50654    11472.659 
   98080     288.7824   -3370.4006   -2940.8587   -314.05094     11472.82 
   98090    290.32901   -3371.0938   -2939.2514   -341.81535    11472.975 
   98100    293.28475   -3373.5803   -2937.3415   -407.14068    11473.124 
   98110    296.35254   -3376.1481   -2935.3461   -475.03507    11473.265 
   98120    298.93774   -3377.7144   -2933.0671   -523.92226    11473.397 
   98130    300.49873   -3378.6878   -2931.7187   -551.13344    11473.519 
   98140    300.13583   -3379.4725   -2933.0432    -553.2304    11473.631 
   98150    297.51376   -3378.1189   -2935.5897   -508.06896    11473.732 
   98160    293.89478   -3373.5546   -2936.4084   -417.19797    11473.824 
   98170    291.14933   -3372.3763   -2939.3138   -375.67175    11473.907 
   98180    290.15581   -3371.9206   -2940.3358   -359.88731    11473.984 
   98190    289.97794   -3371.2554   -2939.9351   -348.31016    11474.054 
   98200    288.96878   -3370.6544   -2940.8352   -326.85663    11474.117 
   98210    286.57975   -3368.1489   -2941.8833   -266.98448    11474.173 
   98220    283.95743   -3367.9733   -2945.6081   -230.38526    11474.225 
   98230    283.00053   -3368.1925   -2947.2506   -215.31559    11474.273 
   98240    284.62548   -3369.1981   -2945.8393   -237.39568    11474.316 
   98250    288.14077    -3371.813   -2943.2255   -300.36329    11474.355 
   98260    291.93745   -3374.8946   -2940.6598   -377.11015    11474.388 
   98270    295.16233   -3376.6469   -2937.6153   -439.13628    11474.414 
   98280    298.25941   -3379.1002   -2935.4619   -512.44973    11474.432 
   98290     301.8095   -3382.1416   -2933.2228   -599.47189    11474.439 
   98300    305.50618   -3384.6338   -2930.2165   -682.13828    11474.436 
   98310      308.355   -3385.2086   -2926.5539   -731.48037    11474.419 
   98320    309.43361   -3385.4457   -2925.1866   -754.28854    11474.388 
   98330    308.79894   -3384.8558   -2925.5408   -745.65675    11474.343 
   98340    307.75112   -3383.5765     -2925.82   -720.14035    11474.283 
   98350    307.44527   -3383.3545   -2926.0529   -710.36654    11474.209 
   98360    307.72408   -3384.0778   -2926.3615   -716.84988    11474.122 
   98370     307.9377   -3384.4946   -2926.4606   -721.06205     11474.02 
   98380    307.72607   -3383.5584   -2925.8392   -707.80929    11473.905 
   98390    306.79769    -3383.822   -2927.4837    -702.7164    11473.776 
   98400    304.89604   -3383.1299   -2929.6202   -675.92234    11473.634 
   98410    301.82559   -3381.0777    -2932.135    -619.9937    11473.478 
   98420    297.62482     -3378.35   -2935.6556    -543.6711    11473.311 
   98430    292.96481   -3376.2162   -2940.4533   -468.94938    11473.133 
   98440    288.84384    -3373.672   -2944.0386   -395.68755    11472.945 
   98450     285.7405    -3371.852   -2946.8347   -343.84209     11472.75 
   98460    284.05639   -3369.7244   -2947.2121   -305.97854    11472.548 
   98470    284.45094   -3369.4731   -2946.3739   -312.86648     11472.34 
   98480    286.76459   -3371.7721   -2945.2315   -367.49034    11472.126 
   98490    289.35181   -3374.2649    -2943.876   -424.10268    11471.904 
   98500    290.67692   -3375.5966   -2943.2367   -450.82726    11471.674 
   98510    291.22454   -3375.9765   -2942.8021   -455.09334    11471.436 
   98520    292.92711   -3376.6534   -2940.9465   -469.83706    11471.188 
   98530    296.09947   -3379.0391   -2938.6136   -516.46873    11470.931 
   98540    299.23347   -3381.6623   -2936.5752   -565.36948    11470.664 
   98550     300.7043   -3383.1003   -2935.8254   -586.77451    11470.386 
   98560    300.15691   -3383.0988   -2936.6381   -574.00537    11470.097 
   98570    298.21981   -3381.3186   -2937.7393   -527.84113    11469.797 
   98580    295.49248    -3379.893   -2940.3703   -478.08131    11469.486 
   98590    292.24189   -3376.9101   -2942.2225   -406.16971    11469.166 
   98600    289.07191   -3374.6387   -2944.6661   -345.02423    11468.837 
   98610    287.01772   -3373.1618   -2946.2447   -306.46349    11468.502 
   98620    286.60777   -3372.7229   -2946.4156   -299.54666    11468.161 
   98630    287.53153   -3374.2857   -2946.6043   -332.64748    11467.814 
   98640    289.31247   -3375.0112   -2944.6809   -367.62324     11467.46 
   98650    291.68126   -3377.2082   -2943.3544   -426.82889    11467.099 
   98660    294.32098   -3379.2053   -2941.4251   -485.89287    11466.729 
   98670    296.81426   -3381.3626   -2939.8739    -542.5872     11466.35 
   98680    298.80333   -3381.7135   -2937.2662    -568.7196     11465.96 
   98690    299.89978   -3382.3491   -2936.2709   -582.13295    11465.559 
   98700    299.67359   -3382.5687    -2936.827   -569.03222    11465.146 
   98710    298.09649   -3381.2976   -2937.9016    -518.3009    11464.722 
   98720    295.71355   -3379.9776   -2940.1261   -455.01859    11464.288 
   98730    293.22569   -3378.4491   -2942.2981   -386.90373    11463.845 
   98740    291.05239   -3377.2753   -2944.3569   -327.55504    11463.395 
   98750    289.42327   -3375.4348   -2944.9396   -270.15678    11462.937 
   98760    288.64612   -3375.5147   -2946.1754   -249.53868    11462.474 
   98770        289.1   -3376.0759   -2946.0616    -252.9373    11462.006 
   98780    290.64402   -3377.6776   -2945.3667    -283.6664    11461.533 
   98790    292.30847   -3378.3132   -2943.5265   -308.29229    11461.054 
   98800    293.10953   -3378.8593   -2942.8811    -326.1086    11460.568 
   98810    292.60243   -3378.7353   -2943.5113    -325.3183    11460.076 
   98820    291.10487   -3378.0327   -2945.0362   -310.43348    11459.578 
   98830    289.91596   -3377.0235   -2945.7955   -298.70693    11459.073 
   98840    290.84487   -3377.3904   -2944.7807   -327.45818    11458.562 
   98850    294.19557   -3380.4061   -2942.8125   -413.38776    11458.044 
   98860    298.59138   -3383.3821   -2939.2501   -510.76704    11457.518 
   98870    302.81847   -3387.5537   -2937.1342   -617.46221    11456.982 
   98880    305.72956   -3390.6586    -2935.909   -693.81118    11456.434 
   98890    306.25393   -3391.2749   -2935.7454   -712.45536    11455.872 
   98900    304.26505   -3390.2276   -2937.6564   -681.97776    11455.296 
   98910    301.04538    -3388.697   -2940.9148   -627.75705    11454.707 
   98920    297.91777   -3385.9167   -2942.7866   -554.60527    11454.105 
   98930    295.33286   -3383.7848   -2944.4996   -488.52718    11453.492 
   98940    292.94792   -3382.7156   -2946.9777   -431.37633    11452.869 
   98950    290.15809   -3381.6186   -2950.0305   -365.74536    11452.237 
   98960    286.32754   -3378.9868   -2953.0963   -270.51923    11451.598 
   98970    281.51866   -3375.1263   -2956.3886   -155.43387    11450.954 
   98980    277.22268   -3372.9429   -2960.5952   -74.384192    11450.306 
   98990    275.81709   -3372.1579   -2961.9009   -50.944672    11449.656 
   99000    279.28036   -3374.7097   -2959.3014   -125.87645    11449.005 
   99010    289.21274   -3380.9969   -2950.8148    -368.3135     11448.35 
   99020    303.79401   -3391.4178   -2939.5472     -651.316    11447.687 
   99030      317.727   -3399.4503   -2926.8555   -895.79121    11447.012 
   99040    325.78522   -3404.2476   -2919.6668   -1034.7884    11446.319 
   99050    325.47124   -3405.0652   -2920.9514   -1034.2516    11445.605 
   99060    318.75537   -3400.4446   -2926.3201   -898.78202    11444.872 
   99070    310.59763    -3393.946   -2931.9556   -719.57869    11444.121 
   99080    304.61708   -3390.0779    -2936.983   -588.00879    11443.356 
   99090    301.23485   -3389.5135   -2941.4495   -521.75701    11442.579 
   99100    299.42819   -3388.9437    -2943.567   -474.98203    11441.791 
   99110    297.96966   -3387.8137   -2944.6064   -430.27213    11440.993 
   99120    296.27551   -3386.7884    -2946.101    -388.6655    11440.187 
   99130    294.75699    -3385.747   -2947.3183   -350.19842    11439.372 
   99140    294.05898   -3384.9839   -2947.5934   -324.11781    11438.551 
   99150    294.74326   -3385.7951   -2947.3869    -331.3145    11437.722 
   99160    296.94974   -3387.3557   -2945.6655   -364.35178    11436.887 
   99170    299.91212    -3389.946   -2943.8494   -418.64959    11436.044 
   99180    301.88727   -3391.3564   -2942.3219   -452.21826    11435.192 
   99190    301.73069   -3390.5631   -2941.7616   -441.12371    11434.332 
   99200    300.12333   -3388.6734   -2942.2627    -404.5152    11433.462 
   99210    299.03287   -3389.1004   -2944.3117   -400.50077    11432.584 
   99220     300.0004   -3390.4998   -2944.2719    -426.3862    11431.698 
   99230    302.81166   -3392.5983   -2942.1889   -475.66022    11430.804 
   99240    305.92456    -3394.242   -2939.2024   -521.13982    11429.899 
   99250    308.12635   -3395.9407   -2937.6261   -556.68513    11428.984 
   99260    309.14577   -3397.5108   -2937.6799   -576.34273    11428.058 
   99270    309.33689   -3398.4035   -2938.2883   -575.25172     11427.12 
   99280    308.82135   -3397.1195   -2937.7712   -539.10759    11426.171 
   99290    307.60027   -3395.2358   -2937.7038   -488.79142     11425.21 
   99300    305.89156   -3393.6867   -2938.6962   -439.26461     11424.24 
   99310    304.10464      -3393.4   -2941.0674   -407.52568    11423.261 
   99320    302.98717   -3392.5051   -2941.8347   -379.90206    11422.273 
   99330    303.31898   -3392.8359    -2941.672   -383.46007    11421.277 
   99340    304.83664    -3393.825   -2940.4036   -405.70396    11420.274 
   99350     305.8728   -3394.1017   -2939.1391    -411.0222    11419.262 
   99360    304.63548   -3393.3932    -2940.271   -379.15265    11418.241 
   99370    301.29123   -3391.6803   -2943.5324   -311.38789    11417.213 
   99380     297.4857   -3389.7892   -2947.3017    -233.7988    11416.178 
   99390    294.71335    -3388.451   -2950.0873    -170.7934    11415.138 
   99400    293.80775   -3388.6124   -2951.5956   -143.30453    11414.094 
   99410    294.74504    -3389.603   -2951.1921   -144.02107    11413.047 
   99420    296.31788   -3389.8332   -2949.0828   -144.27738    11411.996 
   99430    297.48231   -3391.2385   -2948.7561    -158.2749    11410.942 
   99440    298.47659   -3392.2688   -2948.3075   -171.55013    11409.884 
   99450    300.28652   -3394.1028   -2947.4493   -206.18926    11408.823 
   99460    303.09995   -3396.6068   -2945.7686   -262.25954    11407.757 
   99470    306.16975   -3398.3631   -2942.9588   -312.88504    11406.685 
   99480    308.35479   -3399.6671   -2941.0127   -346.91574    11405.606 
   99490    309.18514   -3399.9413   -2940.0518   -348.08364    11404.521 
   99500    308.31714   -3398.8244    -2940.226    -307.7853    11403.428 
   99510    305.93695   -3398.1469   -2943.0889   -250.19757    11402.328 
   99520    303.61968   -3396.4589   -2944.8477   -177.59897    11401.223 
   99530    303.26938   -3395.8143   -2944.7241   -136.37578    11400.115 
   99540    304.86013   -3396.4606   -2943.0043   -134.64004    11399.002 
   99550     307.3392   -3397.6987    -2940.555   -157.26654    11397.887 
   99560    310.43235   -3398.9523   -2937.2077   -192.80058    11396.768 
   99570    313.90065   -3401.1183   -2934.2149   -243.29113    11395.645 
   99580    315.97247   -3402.6235   -2932.6384   -269.65537    11394.516 
   99590    314.42244    -3401.989   -2934.3094   -231.92666    11393.382 
   99600    308.75286   -3399.2715    -2940.025   -125.20126    11392.243 
   99610    300.71612   -3393.7952   -2946.5027    39.575914    11391.101 
   99620    293.52467   -3390.7178   -2954.1221     167.7461    11389.959 
   99630    290.33929   -3388.7199   -2956.8622    241.90143    11388.819 
   99640    292.25489   -3390.2371   -2955.5301    222.85662    11387.683 
   99650    297.48776   -3394.3545    -2951.864    139.92539    11386.551 
   99660    302.57844   -3396.6715    -2946.609      77.2242    11385.421 
   99670     305.1621   -3399.1658   -2945.2603    35.061369    11384.291 
   99680    304.83149   -3398.2778   -2944.8641    59.796919    11383.162 
   99690    302.39495   -3396.5165   -2946.7269     113.5072    11382.034 
   99700    299.74254   -3394.3483    -2948.504    170.26236    11380.907 
   99710    299.07731   -3394.1572   -2949.3024    183.78793    11379.782 
   99720    300.30105   -3395.3535   -2948.6784    163.47431     11378.66 
   99730     301.6343   -3397.6746   -2949.0164     130.7976    11377.541 
   99740    301.55461   -3398.1366    -2949.597    134.99687    11376.424 
   99750    299.94703   -3396.7919   -2950.6434    175.99108    11375.309 
   99760    298.36864   -3396.3871   -2952.5864    206.73641    11374.196 
   99770    298.64963   -3397.0854   -2952.8667    206.69362    11373.087 
   99780    301.21933   -3398.7816   -2950.7407    172.65784    11371.981 
   99790    305.01478   -3401.9515   -2948.2652    108.69208    11370.878 
   99800    308.67537   -3404.9034   -2945.7721    49.590482    11369.776 
   99810    310.63796   -3406.9937   -2944.9433    21.022183    11368.675 
   99820    309.48008   -3406.0903   -2945.7622    60.879169    11367.573 
   99830    305.51125   -3403.8434   -2949.4186     146.8396    11366.473 
   99840    300.42006   -3400.8481   -2953.9961    253.55332    11365.374 
   99850    296.17037   -3396.3057   -2955.7748    369.04319     11364.28 
   99860    294.09712   -3394.3893   -2956.9421    428.79064    11363.192 
   99870    294.81851   -3394.5889   -2956.0687    431.79926    11362.111 
   99880    297.54621   -3397.0448   -2954.4674    384.29807    11361.038 
   99890    300.46726   -3398.1846   -2951.2623    346.60139    11359.972 
   99900    302.47235   -3400.4265   -2950.5218    303.47522    11358.912 
   99910    303.64183   -3401.9827   -2950.3384    278.02642    11357.857 
   99920    304.40134    -3402.609   -2949.8351    270.01343    11356.807 
   99930    304.85439   -3402.9023   -2949.4545    270.95656    11355.761 
   99940     304.8802   -3402.6503   -2949.1641    283.65581     11354.72 
   99950    304.92575   -3402.9372   -2949.3832    291.98865    11353.684 
   99960      305.227   -3402.8696   -2948.8676    307.70996    11352.653 
   99970    304.32567   -3402.3968   -2949.7354    345.15395    11351.627 
   99980    301.22437   -3401.1166   -2953.0681     416.5792    11350.608 
   99990    297.60563   -3399.3585   -2956.6927    500.02621    11349.595 
  100000    296.32117   -3397.7018   -2956.9465    558.85768    11348.592 
Loop time of 34.1068 on 1 procs for 100000 steps with 500 atoms

Performance: 253.322 ns/day, 0.095 hours/ns, 2931.969 timesteps/s
100.0% CPU use with 1 MPI tasks x no OpenMP threads

MPI task timing breakdown:
Section |  min time  |  avg time  |  max time  |%varavg| %total
---------------------------------------------------------------
Pair    | 28.462     | 28.462     | 28.462     |   0.0 | 83.45
Bond    | 0.0081434  | 0.0081434  | 0.0081434  |   0.0 |  0.02
Neigh   | 0.31651    | 0.31651    | 0.31651    |   0.0 |  0.93
Comm    | 0.99889    | 0.99889    | 0.99889    |   0.0 |  2.93
Output  | 0.098229   | 0.098229   | 0.098229   |   0.0 |  0.29
Modify  | 3.7916     | 3.7916     | 3.7916     |   0.0 | 11.12
Other   |            | 0.4314     |            |       |  1.26

Nlocal:    500 ave 500 max 500 min
Histogram: 1 0 0 0 0 0 0 0 0 0
Nghost:    1612 ave 1612 max 1612 min
Histogram: 1 0 0 0 0 0 0 0 0 0
Neighs:    15135 ave 15135 max 15135 min
Histogram: 1 0 0 0 0 0 0 0 0 0

Total # of neighbors = 15135
Ave neighs/atom = 30.27
Ave special neighs/atom = 0
Neighbor list builds = 300
Dangerous builds = 0
Total wall time: 0:00:34
