 LAMMPS Description
 
          8 atoms
 
           2 atom types
 
   0.0000000000000000        2.000000000000000      xlo xhi
   0.0000000000000000        2.000000000000000      ylo yhi
   0.0000000000000000        2.000000000000000      zlo zhi
 
 Masses
 
              1   22.98976928     
              2   35.45
 
 Atoms
 
    1    1    1   1.0    0.0    0.0     0.0
    2    1    2   -1.0   1.0    0.0     0.0
    3    1    2   -1.0   0.0    1.0     0.0
    4    1    1   1.0    1.0    1.0     0.0
    5    1    2   -1.0   0.0    0.0     1.0
    6    1    1   1.0    1.0    0.0     1.0
    7    1    1   1.0    0.0    1.0     1.0
    8    1    2   -1.0   1.0    1.0     1.0
