LAMMPS Description

1000 atoms

1 atom types

-51.5 51.5 xlo xhi 
-51.5 51.5 ylo yhi 
-51.5 51.5 zlo zhi 

Masses

1  1.0

Atoms

1  1 1 0.5 0.5 0
2  1 1 0.468393 0.5 0.001
3  1 1 0.5 0.544677 0.002
4  1 -1 0.5 0.44531 0.003
5  1 -1 0.544632 0.544632 0.004
6  1 1 0.450125 0.450125 0.005
7  1 1 0.445392 0.554608 0.006
8  1 -1 0.558953 0.441047 0.007
9  1 -1 0.582303 0.534091 0.008
10  1 -1 0.412748 0.463859 0.009
11  1 -1 0.461923 0.591925 0.01
12  1 -1 0.539915 0.403637 0.011
13  1 -1 0.541669 0.600597 0.012
14  1 -1 0.456652 0.395348 0.013
15  1 -1 0.391453 0.544962 0.014
16  1 1 0.6123 0.453484 0.015
17  1 1 0.623064 0.524479 0.016
18  1 1 0.373213 0.47478 0.017
19  1 1 0.474063 0.630397 0.018
20  1 1 0.526635 0.366099 0.019
21  1 1 0.57778 0.616406 0.02
22  1 -1 0.42034 0.38078 0.021
23  1 1 0.378037 0.581493 0.022
24  1 -1 0.62464 0.416718 0.023
25  1 1 0.627256 0.585029 0.024
26  1 1 0.370187 0.413262 0.025
27  1 1 0.411589 0.632316 0.026
28  1 -1 0.590049 0.365233 0.027
29  1 -1 0.532185 0.661803 0.028
30  1 -1 0.467263 0.335418 0.029
31  1 1 0.332691 0.53328 0.03
32  1 -1 0.669987 0.466187 0.031
33  1 -1 0.675153 0.517251 0.032
34  1 1 0.322224 0.482491 0.033
35  1 -1 0.482236 0.680356 0.034
36  1 1 0.518014 0.317105 0.035
37  1 -1 0.618181 0.644004 0.036
38  1 1 0.380251 0.354085 0.037
39  1 -1 0.352203 0.621294 0.038
40  1 -1 0.649651 0.377185 0.039
41  1 -1 0.672821 0.592375 0.04
42  1 -1 0.325124 0.406527 0.041
43  1 -1 0.405443 0.676904 0.042
44  1 1 0.595626 0.321096 0.043
45  1 -1 0.559536 0.696264 0.044
46  1 1 0.439823 0.301622 0.045
47  1 1 0.299535 0.56081 0.046
48  1 -1 0.702526 0.438564 0.047
49  1 1 0.704562 0.562053 0.048
50  1 -1 0.293427 0.437337 0.049
51  1 1 0.436734 0.70856 0.05
52  1 -1 0.563862 0.289475 0.051
53  1 -1 0.604663 0.69581 0.052
54  1 1 0.394391 0.30242 0.053
55  1 -1 0.30067 0.606544 0.054
56  1 -1 0.701061 0.392531 0.055
57  1 -1 0.677732 0.645861 0.056
58  1 1 0.320783 0.352921 0.057
59  1 1 0.351715 0.680686 0.058
60  1 1 0.649479 0.31786 0.059
61  1 -1 0.523278 0.736343 0.06
62  1 1 0.476542 0.261822 0.061
63  1 -1 0.260006 0.523637 0.062
64  1 -1 0.741793 0.476185 0.063
65  1 1 0.744458 0.512009 0.064
66  1 1 0.253771 0.487904 0.065
67  1 -1 0.487817 0.747983 0.066
68  1 1 0.512268 0.250279 0.067
69  1 -1 0.669062 0.686531 0.068
70  1 1 0.329791 0.312203 0.069
71  1 -1 0.310949 0.671346 0.07
72  1 1 0.690295 0.327527 0.071
73  1 1 0.73367 0.610518 0.072
74  1 -1 0.264839 0.388777 0.073
75  1 1 0.388079 0.736638 0.074
76  1 -1 0.612614 0.261897 0.075
77  1 -1 0.589275 0.749507 0.076
78  1 1 0.410188 0.248992 0.077
79  1 1 0.247505 0.590344 0.078
80  1 -1 0.753971 0.409128 0.079
81  1 1 0.763163 0.565919 0.08
82  1 -1 0.235341 0.433706 0.081
83  1 -1 0.433335 0.766142 0.082
84  1 -1 0.567034 0.232386 0.083
85  1 1 0.642606 0.737923 0.084
86  1 -1 0.356626 0.260795 0.085
87  1 -1 0.259524 0.644136 0.086
88  1 -1 0.741738 0.355108 0.087
89  1 -1 0.727545 0.668759 0.088
90  1 -1 0.271292 0.330378 0.089
91  1 1 0.329522 0.729863 0.09
92  1 1 0.671329 0.26899 0.091
93  1 -1 0.542409 0.785898 0.092
94  1 -1 0.457385 0.212711 0.093
95  1 -1 0.21133 0.54282 0.094
96  1 -1 0.790041 0.456976 0.095
97  1 -1 0.791403 0.543226 0.096
98  1 1 0.207246 0.456574 0.097
99  1 -1 0.456375 0.794097 0.098
100  1 1 0.543823 0.204571 0.099
101  1 -1 0.67871 0.740962 0.1
102  1 -1 0.320499 0.25797 0.101
103  1 -1 0.256911 0.680287 0.102
104  1 1 0.744142 0.318932 0.103
105  1 1 0.761831 0.656935 0.104
106  1 -1 0.23706 0.3424 0.105
107  1 -1 0.34174 0.764041 0.106
108  1 1 0.658916 0.234865 0.107
109  1 1 0.575416 0.801079 0.108
110  1 1 0.424278 0.1977 0.109
111  1 1 0.196487 0.576026 0.11
112  1 -1 0.804718 0.423672 0.111
113  1 1 0.796931 0.606244 0.112
114  1 -1 0.201914 0.393343 0.113
115  1 1 0.392933 0.799233 0.114
116  1 -1 0.607475 0.199627 0.115
117  1 -1 0.636914 0.78948 0.116
118  1 1 0.362575 0.20944 0.117
119  1 1 0.208366 0.637933 0.118
120  1 1 0.792701 0.361563 0.119
121  1 1 0.740781 0.718231 0.12
122  1 -1 0.258356 0.280986 0.121
123  1 1 0.280208 0.742503 0.122
124  1 -1 0.720565 0.256644 0.123
125  1 1 0.516172 0.829185 0.124
126  1 1 0.483772 0.169679 0.125
127  1 1 0.16855 0.516283 0.126
128  1 -1 0.832572 0.483662 0.127
129  1 1 0.833989 0.508199 0.128
130  1 1 0.164901 0.491774 0.129
131  1 1 0.491747 0.836202 0.13
132  1 -1 0.50828 0.162701 0.131
133  1 1 0.733403 0.745151 0.132
134  1 -1 0.265849 0.254064 0.133
135  1 1 0.253284 0.734894 0.134
136  1 1 0.747492 0.264368 0.135
137  1 -1 0.813381 0.638912 0.136
138  1 -1 0.185651 0.360659 0.137
139  1 1 0.360232 0.815311 0.138
140  1 1 0.640192 0.183732 0.139
141  1 1 0.624879 0.823736 0.14
142  1 -1 0.374749 0.175298 0.141
143  1 -1 0.174339 0.625621 0.142
144  1 1 0.826615 0.374011 0.143
145  1 1 0.842559 0.576924 0.144
146  1 -1 0.156454 0.422854 0.145
147  1 1 0.422634 0.844526 0.146
148  1 1 0.577585 0.154498 0.147
149  1 1 0.689978 0.800007 0.148
150  1 1 0.309494 0.199157 0.149
151  1 -1 0.198327 0.691032 0.15
152  1 -1 0.802499 0.308445 0.151
153  1 1 0.79353 0.706727 0.152
154  1 1 0.20568 0.292716 0.153
155  1 -1 0.292163 0.795106 0.154
156  1 1 0.708388 0.204112 0.155
157  1 1 0.562034 0.857513 0.156
158  1 -1 0.437804 0.141555 0.157
159  1 1 0.140629 0.562357 0.158
160  1 1 0.860292 0.437483 0.159
161  1 1 0.863849 0.544876 0.16
162  1 1 0.135233 0.45501 0.161
163  1 -1 0.454898 0.86568 0.162
164  1 -1 0.545214 0.133412 0.163
165  1 1 0.727805 0.791905 0.164
166  1 -1 0.271638 0.207381 0.165
167  1 -1 0.206672 0.728916 0.166
168  1 1 0.794034 0.270533 0.167
169  1 -1 0.825296 0.684278 0.168
170  1 1 0.173933 0.315285 0.169
171  1 1 0.314851 0.826833 0.17
172  1 1 0.685581 0.172404 0.171
173  1 1 0.600652 0.86371 0.172
174  1 1 0.399117 0.135454 0.173
175  1 -1 0.134623 0.601113 0.174
176  1 1 0.866203 0.398658 0.175
177  1 -1 0.861599 0.619456 0.176
178  1 1 0.137595 0.380277 0.177
179  1 -1 0.380013 0.863207 0.178
180  1 1 0.620251 0.135996 0.179
181  1 1 0.672735 0.843166 0.18
182  1 1 0.326891 0.156092 0.181
183  1 -1 0.155354 0.67348 0.182
184  1 -1 0.84538 0.32615 0.183
185  1 -1 0.793406 0.753094 0.184
186  1 -1 0.205978 0.246375 0.185
187  1 -1 0.245846 0.794635 0.186
188  1 1 0.75468 0.204756 0.187
189  1 1 0.528743 0.889654 0.188
190  1 1 0.471199 0.109552 0.189
191  1 1 0.108762 0.528859 0.19
192  1 -1 0.892024 0.471083 0.191
193  1 -1 0.892806 0.528975 0.192
194  1 1 0.106416 0.470968 0.193
195  1 1 0.47091 0.894357 0.194
196  1 1 0.529146 0.104873 0.195
197  1 1 0.759289 0.800588 0.196
198  1 1 0.240212 0.198834 0.197
199  1 -1 0.198258 0.760284 0.198
200  1 -1 0.802314 0.239222 0.199
201  1 -1 0.85729 0.679845 0.2
202  1 -1 0.142042 0.319819 0.201
203  1 1 0.319485 0.858623 0.202
204  1 -1 0.680848 0.140716 0.203
205  1 -1 0.626404 0.88263 0.204
206  1 -1 0.373366 0.116674 0.205
207  1 1 0.115982 0.626862 0.206
208  1 -1 0.884707 0.37291 0.207
209  1 -1 0.891174 0.608253 0.208
210  1 -1 0.108134 0.391556 0.209
211  1 -1 0.391366 0.892554 0.21
212  1 -1 0.608824 0.106762 0.211
213  1 1 0.70146 0.855626 0.212
214  1 1 0.298194 0.143762 0.213
215  1 -1 0.143154 0.702151 0.214
216  1 1 0.857451 0.297506 0.215
217  1 -1 0.824416 0.753177 0.216
218  1 1 0.175042 0.2464 0.217
219  1 -1 0.245979 0.825498 0.218
220  1 -1 0.75444 0.173965 0.219
221  1 -1 0.550708 0.911131 0.22
222  1 1 0.449209 0.0881999 0.221
223  1 1 0.0875343 0.550873 0.222
224  1 -1 0.913128 0.449046 0.223
225  1 1 0.910784 0.571278 0.224
226  1 1 0.0885655 0.428609 0.225
227  1 1 0.428497 0.912082 0.226
228  1 1 0.571615 0.0872745 0.227
229  1 -1 0.741576 0.843012 0.228
230  1 1 0.258052 0.15646 0.229
231  1 -1 0.155934 0.742319 0.23
232  1 1 0.844589 0.257313 0.231
233  1 1 0.85662 0.725827 0.232
234  1 -1 0.142845 0.273834 0.233
235  1 -1 0.273497 0.857687 0.234
236  1 -1 0.726838 0.141783 0.235
237  1 -1 0.593035 0.914305 0.236
238  1 1 0.406829 0.0850902 0.237
239  1 1 0.0844883 0.593306 0.238
240  1 -1 0.91611 0.406559 0.239
241  1 1 0.898465 0.653705 0.24
242  1 1 0.100968 0.346076 0.241
243  1 1 0.345859 0.899595 0.242
244  1 1 0.654357 0.099844 0.243
245  1 -1 0.674048 0.892646 0.244
246  1 1 0.325711 0.10681 0.245
247  1 -1 0.106269 0.674529 0.246
248  1 -1 0.894268 0.325233 0.247
249  1 -1 0.812767 0.797779 0.248
250  1 1 0.186811 0.201819 0.249
251  1 1 0.20142 0.813608 0.25
252  1 1 0.798977 0.185975 0.251
253  1 1 0.510655 0.93403 0.252
254  1 -1 0.489331 0.0654 0.253
255  1 -1 0.0648335 0.510683 0.254
256  1 -1 0.93573 0.489303 0.255
257  1 -1 0.936389 0.505356 0.256
258  1 1 0.0630535 0.494638 0.257
259  1 -1 0.494631 0.937501 0.258
260  1 -1 0.505376 0.0619474 0.259
261  1 1 0.806332 0.813944 0.26
262  1 1 0.193287 0.185665 0.261
263  1 -1 0.185277 0.807092 0.262
264  1 1 0.815109 0.192531 0.263
265  1 -1 0.905145 0.673671 0.264
266  1 -1 0.0943645 0.326118 0.265
267  1 -1 0.325909 0.906124 0.266
268  1 1 0.674299 0.0933911 0.267
269  1 -1 0.664463 0.911252 0.268
270  1 1 0.335343 0.0882633 0.269
271  1 -1 0.0877809 0.66485 0.27
272  1 -1 0.912699 0.334958 0.271
273  1 -1 0.935341 0.592162 0.272
274  1 -1 0.0641588 0.407732 0.273
275  1 -1 0.407626 0.936338 0.274
276  1 -1 0.592478 0.0631673 0.275
277  1 -1 0.743769 0.874701 0.276
278  1 -1 0.255958 0.124881 0.277
279  1 1 0.124464 0.744313 0.278
280  1 -1 0.87595 0.255418 0.279
281  1 1 0.87024 0.754013 0.28
282  1 1 0.129357 0.245711 0.281
283  1 -1 0.245436 0.871043 0.282
284  1 1 0.754838 0.128558 0.283
285  1 1 0.582539 0.943318 0.284
286  1 -1 0.417373 0.056212 0.285
287  1 -1 0.0557451 0.582714 0.286
288  1 -1 0.944719 0.4172 0.287
289  1 1 0.950072 0.549912 0.288
290  1 1 0.049464 0.450037 0.289
291  1 -1 0.449985 0.950997 0.29
292  1 1 0.550066 0.0485441 0.291
293  1 -1 0.784113 0.854987 0.292
294  1 1 0.215602 0.144656 0.293
295  1 1 0.144302 0.784681 0.294
296  1 -1 0.85605 0.215037 0.295
297  1 -1 0.899918 0.720113 0.296
298  1 1 0.0996916 0.279673 0.297
299  1 -1 0.279459 0.900696 0.298
300  1 1 0.720753 0.0989177 0.299
301  1 -1 0.627634 0.940125 0.3
302  1 -1 0.372245 0.0594575 0.301
303  1 -1 0.0590421 0.627875 0.302
304  1 1 0.941371 0.372005 0.303
305  1 -1 0.938504 0.638917 0.304
306  1 -1 0.0610908 0.360954 0.305
307  1 -1 0.360827 0.939312 0.306
308  1 1 0.6393 0.0602882 0.307
309  1 -1 0.712615 0.909794 0.308
310  1 1 0.287194 0.0898385 0.309
311  1 -1 0.0894727 0.712996 0.31
312  1 -1 0.910891 0.286815 0.311
313  1 1 0.85451 0.798293 0.312
314  1 -1 0.145181 0.201446 0.313
315  1 -1 0.201187 0.855127 0.314
316  1 1 0.79907 0.144568 0.315
317  1 -1 0.539888 0.963199 0.316
318  1 1 0.460078 0.0364083 0.317
319  1 -1 0.0360177 0.539956 0.318
320  1 1 0.96437 0.460011 0.319
321  1 -1 0.965598 0.528605 0.32
322  1 -1 0.0340178 0.471372 0.321
323  1 1 0.471348 0.966364 0.322
324  1 -1 0.528675 0.0332573 0.323
325  1 -1 0.810011 0.850596 0.324
326  1 -1 0.189741 0.149123 0.325
327  1 1 0.148844 0.810506 0.326
328  1 1 0.851433 0.189249 0.327
329  1 1 0.921914 0.705924 0.328
330  1 -1 0.0777578 0.293916 0.329
331  1 -1 0.293757 0.922568 0.33
332  1 1 0.706401 0.077108 0.331
333  1 -1 0.653199 0.945316 0.332
334  1 -1 0.346686 0.054348 0.333
335  1 -1 0.0540141 0.653429 0.334
336  1 -1 0.946318 0.346457 0.335
337  1 1 0.956741 0.620383 0.336
338  1 1 0.0429248 0.379529 0.337
339  1 1 0.379441 0.957407 0.338
340  1 -1 0.620646 0.0422625 0.339
341  1 1 0.738531 0.909272 0.34
342  1 -1 0.2613 0.0904377 0.341
343  1 -1 0.0901489 0.738868 0.342
344  1 1 0.910138 0.260965 0.343
345  1 -1 0.878055 0.787643 0.344
346  1 -1 0.121684 0.212159 0.345
347  1 -1 0.211963 0.878574 0.346
348  1 1 0.788233 0.121169 0.347
349  1 1 0.564106 0.972003 0.348
350  1 -1 0.435852 0.0276823 0.349
351  1 -1 0.0273696 0.564191 0.35
352  1 -1 0.972941 0.435767 0.351
353  1 -1 0.971529 0.57587 0.352
354  1 -1 0.028166 0.424081 0.353
355  1 1 0.424033 0.972137 0.354
356  1 -1 0.576016 0.0275631 0.355
357  1 -1 0.780489 0.888059 0.356
358  1 1 0.219336 0.111698 0.357
359  1 -1 0.111457 0.780839 0.358
360  1 1 0.888782 0.218989 0.359
361  1 1 0.90865 0.751803 0.36
362  1 1 0.0911022 0.248045 0.361
363  1 1 0.247893 0.909143 0.362
364  1 -1 0.752257 0.0906132 0.363
365  1 -1 0.611173 0.968129 0.364
366  1 -1 0.388762 0.0315974 0.365
367  1 -1 0.0313256 0.611303 0.366
368  1 1 0.968944 0.388633 0.367
369  1 1 0.952042 0.668029 0.368
370  1 -1 0.0477021 0.331876 0.369
371  1 1 0.331782 0.952551 0.37
372  1 -1 0.668311 0.0471973 0.371
373  1 -1 0.701276 0.939436 0.372
374  1 1 0.298614 0.0603244 0.373
375  1 1 0.0600867 0.701495 0.374
376  1 -1 0.940149 0.298397 0.375
377  1 -1 0.854883 0.82967 0.376
378  1 -1 0.14493 0.170157 0.377
379  1 -1 0.169985 0.855255 0.378
380  1 -1 0.830185 0.144561 0.379
381  1 -1 0.517866 0.985058 0.38
382  1 1 0.482125 0.0146965 0.381
383  1 1 0.0144527 0.517884 0.382
384  1 -1 0.985789 0.482107 0.383
385  1 1 0.986028 0.517901 0.384
386  1 1 0.0137344 0.48209 0.385
387  1 -1 0.482081 0.986501 0.386
388  1 -1 0.517927 0.0132664 0.387
389  1 1 0.831653 0.857018 0.388
390  1 -1 0.168191 0.142814 0.389
391  1 1 0.142648 0.831963 0.39
392  1 -1 0.857517 0.167884 0.391
393  1 1 0.943853 0.7033 0.392
394  1 1 0.0559471 0.296609 0.393
395  1 -1 0.296518 0.944251 0.394
396  1 -1 0.703572 0.0555526 0.395
397  1 1 0.670399 0.958419 0.396
398  1 -1 0.329527 0.0413825 0.397
399  1 -1 0.0411862 0.670546 0.398
400  1 1 0.959008 0.329382 0.399
401  1 -1 0.976641 0.613195 0.4
402  1 -1 0.0231611 0.386758 0.401
403  1 1 0.386712 0.977034 0.402
404  1 1 0.613334 0.0227722 0.403
405  1 1 0.757415 0.917758 0.404
406  1 1 0.242483 0.0820765 0.405
407  1 -1 0.0819126 0.757618 0.406
408  1 -1 0.918249 0.242282 0.407
409  1 1 0.89831 0.787898 0.408
410  1 -1 0.101539 0.211993 0.409
411  1 1 0.211885 0.89861 0.41
412  1 1 0.788221 0.101243 0.411
413  1 -1 0.578189 0.985945 0.412
414  1 -1 0.421783 0.0138796 0.413
415  1 -1 0.0137062 0.578245 0.414
416  1 -1 0.986465 0.421727 0.415
417  1 1 0.988409 0.566334 0.416
418  1 -1 0.0114227 0.433643 0.417
419  1 -1 0.433621 0.988743 0.418
420  1 -1 0.566401 0.0110932 0.419
421  1 -1 0.798855 0.892792 0.42
422  1 -1 0.201047 0.10708 0.421
423  1 1 0.106953 0.799049 0.422
424  1 1 0.893172 0.200856 0.423
425  1 1 0.926967 0.748844 0.424
426  1 -1 0.0729011 0.251079 0.425
427  1 -1 0.251003 0.927229 0.426
428  1 -1 0.749071 0.0726425 0.427
429  1 1 0.626105 0.978449 0.428
430  1 -1 0.373858 0.0214111 0.429
431  1 1 0.0212734 0.626178 0.43
432  1 -1 0.978862 0.373786 0.431
433  1 -1 0.968411 0.661144 0.432
434  1 1 0.0314604 0.338812 0.433
435  1 1 0.338768 0.968666 0.434
436  1 -1 0.661275 0.0312086 0.435
437  1 -1 0.717504 0.945641 0.436
438  1 -1 0.28244 0.0542439 0.437
439  1 -1 0.0541307 0.717616 0.438
440  1 1 0.945981 0.28233 0.439
441  1 1 0.871862 0.828815 0.44
442  1 -1 0.128049 0.171106 0.441
443  1 1 0.171028 0.87204 0.442
444  1 1 0.829049 0.127874 0.443
445  1 -1 0.530467 0.995919 0.444
446  1 -1 0.469526 0.00396944 0.445
447  1 -1 0.00385999 0.530481 0.446
448  1 1 0.996247 0.469512 0.447
449  1 -1 0.995455 0.542666 0.448
450  1 1 0.00444188 0.457325 0.449
451  1 1 0.457316 0.995659 0.45
452  1 -1 0.542692 0.00424161 0.451
453  1 1 0.820429 0.880817 0.452
454  1 -1 0.17951 0.11911 0.453
455  1 1 0.119039 0.820551 0.454
456  1 1 0.881031 0.179391 0.455
457  1 1 0.942098 0.729376 0.456
458  1 1 0.0578245 0.270584 0.457
459  1 -1 0.270544 0.942251 0.458
460  1 -1 0.729494 0.0576748 0.459
461  1 1 0.650519 0.975125 0.46
462  1 1 0.349457 0.0247992 0.461
463  1 -1 0.0247255 0.650566 0.462
464  1 -1 0.975346 0.349411 0.463
465  1 1 0.978969 0.638898 0.464
466  1 1 0.0209627 0.361082 0.465
467  1 1 0.361062 0.979104 0.466
468  1 -1 0.638956 0.0208318 0.467
469  1 -1 0.740598 0.937137 0.468
470  1 1 0.259372 0.0628077 0.469
471  1 -1 0.0627541 0.740658 0.47
472  1 1 0.937298 0.259314 0.471
473  1 -1 0.889756 0.811939 0.472
474  1 1 0.110201 0.188026 0.473
475  1 1 0.187993 0.88984 0.474
476  1 1 0.812039 0.11012 0.475
477  1 1 0.555048 0.996381 0.476
478  1 1 0.444947 0.00357257 0.477
479  1 1 0.0035278 0.555058 0.478
480  1 -1 0.996515 0.444938 0.479
481  1 1 0.991159 0.591447 0.48
482  1 1 0.00880229 0.408546 0.481
483  1 1 0.408539 0.991234 0.482
484  1 -1 0.591467 0.00873146 0.483
485  1 1 0.782721 0.912084 0.484
486  1 1 0.217261 0.0878909 0.485
487  1 -1 0.087867 0.782755 0.486
488  1 1 0.912155 0.21723 0.487
489  1 -1 0.918992 0.772584 0.488
490  1 1 0.0809891 0.227403 0.489
491  1 -1 0.227392 0.919029 0.49
492  1 1 0.772618 0.0809555 0.491
493  1 -1 0.603542 0.989096 0.492
494  1 -1 0.396454 0.0108893 0.493
495  1 -1 0.0108765 0.603548 0.494
496  1 1 0.989134 0.396449 0.495
497  1 -1 0.964238 0.685653 0.496
498  1 1 0.0357553 0.314345 0.497
499  1 1 0.314343 0.964249 0.498
500  1 -1 0.685658 0.0357479 0.499
501  1 1 0.696996 0.959557 0.5
502  1 -1 0.303004 0.040444 0.501
503  1 -1 0.0404468 0.696994 0.502
504  1 -1 0.959549 0.303008 0.503
505  1 -1 0.857854 0.849177 0.504
506  1 1 0.142152 0.150829 0.505
507  1 -1 0.150837 0.85784 0.506
508  1 -1 0.849154 0.14217 0.507
509  1 1 0.506135 0.999898 0.508
510  1 1 0.493865 0.00011865 0.509
511  1 1 0.000137652 0.506135 0.51
512  1 -1 0.999841 0.493866 0.511
513  1 -1 0.999847 0.503067 0.512
514  1 1 0.000178438 0.496933 0.513
515  1 1 0.496933 0.999795 0.514
516  1 -1 0.503067 0.000234459 0.515
517  1 -1 0.851197 0.855534 0.516
518  1 1 0.148826 0.14449 0.517
519  1 1 0.144514 0.85115 0.518
520  1 1 0.855459 0.148876 0.519
521  1 -1 0.960388 0.694017 0.52
522  1 1 0.0396495 0.305999 0.521
523  1 -1 0.306016 0.960311 0.522
524  1 -1 0.693967 0.0397307 0.523
525  1 -1 0.688286 0.962571 0.524
526  1 1 0.311732 0.0374741 0.525
527  1 -1 0.0375214 0.688249 0.526
528  1 1 0.962429 0.311771 0.527
529  1 -1 0.989016 0.600395 0.528
530  1 -1 0.0110396 0.399617 0.529
531  1 1 0.399629 0.988902 0.53
532  1 -1 0.600359 0.0111574 0.531
533  1 1 0.774665 0.916576 0.532
534  1 1 0.225371 0.0834787 0.533
535  1 -1 0.0835348 0.774592 0.534
536  1 -1 0.916407 0.225446 0.535
537  1 -1 0.912948 0.779603 0.536
538  1 -1 0.0871126 0.220438 0.537
539  1 1 0.22048 0.912825 0.538
540  1 1 0.779477 0.0872389 0.539
541  1 -1 0.594231 0.989408 0.54
542  1 1 0.405784 0.0106715 0.541
543  1 -1 0.0107533 0.5942 0.542
544  1 -1 0.989163 0.405816 0.543
545  1 1 0.995353 0.551859 0.544
546  1 1 0.0047358 0.44815 0.545
547  1 -1 0.44816 0.995173 0.546
548  1 -1 0.55183 0.00491958 0.547
549  1 -1 0.813365 0.88665 0.548
550  1 1 0.186696 0.113426 0.549
551  1 1 0.113503 0.813241 0.55
552  1 -1 0.886418 0.186823 0.551
553  1 1 0.937123 0.737107 0.552
554  1 -1 0.06297 0.262943 0.553
555  1 1 0.262995 0.936935 0.554
556  1 1 0.736953 0.063161 0.555
557  1 -1 0.641309 0.976336 0.556
558  1 1 0.358723 0.0237733 0.557
559  1 1 0.0238843 0.641244 0.558
560  1 1 0.976003 0.35879 0.559
561  1 -1 0.97412 0.647005 0.56
562  1 1 0.0259968 0.353031 0.561
563  1 -1 0.353067 0.973885 0.562
564  1 -1 0.646895 0.0262355 0.563
565  1 1 0.731072 0.938759 0.564
566  1 -1 0.268989 0.0613556 0.565
567  1 1 0.0614726 0.73095 0.566
568  1 1 0.938409 0.269113 0.567
569  1 -1 0.880979 0.816593 0.568
570  1 1 0.119128 0.183495 0.569
571  1 1 0.183585 0.880764 0.57
572  1 1 0.816324 0.119345 0.571
573  1 -1 0.545476 0.992695 0.572
574  1 1 0.454538 0.00745132 0.573
575  1 1 0.00759931 0.545448 0.574
576  1 -1 0.992251 0.454565 0.575
577  1 -1 0.993437 0.527277 0.576
578  1 1 0.00671769 0.472732 0.577
579  1 1 0.47274 0.993126 0.578
580  1 1 0.527251 0.00703308 0.579
581  1 -1 0.829203 0.86773 0.58
582  1 1 0.170905 0.132392 0.581
583  1 -1 0.132515 0.828984 0.582
584  1 1 0.86736 0.171127 0.583
585  1 1 0.944269 0.713469 0.584
586  1 -1 0.0558856 0.286605 0.585
587  1 -1 0.28668 0.943958 0.586
588  1 1 0.713244 0.0562003 0.587
589  1 1 0.662969 0.964432 0.588
590  1 -1 0.337091 0.0357376 0.589
591  1 1 0.0359093 0.662849 0.59
592  1 -1 0.963917 0.337212 0.591
593  1 1 0.975993 0.622339 0.592
594  1 -1 0.0241894 0.377708 0.593
595  1 -1 0.377756 0.975626 0.594
596  1 -1 0.622197 0.0245602 0.595
597  1 -1 0.749682 0.922425 0.596
598  1 1 0.250418 0.0777441 0.597
599  1 -1 0.0779153 0.74948 0.598
600  1 1 0.921912 0.250622 0.599
601  1 1 0.891692 0.794241 0.6
602  1 1 0.108472 0.205882 0.601
603  1 -1 0.206007 0.891362 0.602
604  1 1 0.793867 0.108806 0.603
605  1 1 0.568791 0.984202 0.604
606  1 1 0.431239 0.0160094 0.605
607  1 1 0.0162231 0.568731 0.606
608  1 1 0.983561 0.4313 0.607
609  1 1 0.982464 0.574595 0.608
610  1 1 0.0177556 0.425439 0.609
611  1 -1 0.425473 0.982023 0.61
612  1 1 0.574492 0.0182014 0.611
613  1 -1 0.787874 0.893172 0.612
614  1 1 0.212262 0.107014 0.613
615  1 -1 0.107202 0.7876 0.614
616  1 1 0.892608 0.212539 0.615
617  1 -1 0.915621 0.752593 0.616
618  1 -1 0.0845837 0.247532 0.617
619  1 1 0.247657 0.91521 0.618
620  1 -1 0.752216 0.0849988 0.619
621  1 1 0.615048 0.971555 0.62
622  1 -1 0.385011 0.0286864 0.621
623  1 -1 0.0289298 0.61493 0.622
624  1 1 0.970825 0.38513 0.623
625  1 -1 0.955055 0.665978 0.624
626  1 1 0.0451863 0.33411 0.625
627  1 -1 0.334199 0.95457 0.626
628  1 1 0.665711 0.0456755 0.627
629  1 1 0.703969 0.938193 0.628
630  1 -1 0.296143 0.0620486 0.629
631  1 1 0.0622917 0.703744 0.63
632  1 1 0.937463 0.296371 0.631
633  1 -1 0.855338 0.826053 0.632
634  1 -1 0.144864 0.174132 0.633
635  1 -1 0.17432 0.854932 0.634
636  1 -1 0.825491 0.145274 0.635
637  1 -1 0.52066 0.980705 0.636
638  1 -1 0.479353 0.0195786 0.637
639  1 -1 0.0198644 0.520635 0.638
640  1 -1 0.979848 0.479377 0.639
641  1 1 0.979774 0.514724 0.64
642  1 1 0.0205185 0.485285 0.641
643  1 -1 0.485294 0.979187 0.642
644  1 -1 0.514697 0.0211107 0.643
645  1 1 0.828028 0.8488 0.644
646  1 -1 0.172178 0.15142 0.645
647  1 1 0.151642 0.827613 0.646
648  1 -1 0.848135 0.172597 0.647
649  1 1 0.935425 0.696216 0.648
650  1 1 0.0648583 0.303912 0.649
651  1 -1 0.30404 0.934856 0.65
652  1 -1 0.69583 0.0654317 0.651
653  1 1 0.668701 0.945462 0.652
654  1 -1 0.331413 0.0548379 0.653
655  1 1 0.0551396 0.668473 0.654
656  1 -1 0.944557 0.331642 0.655
657  1 1 0.962851 0.606924 0.656
658  1 1 0.0374699 0.39315 0.657
659  1 1 0.393225 0.962207 0.658
660  1 1 0.6067 0.0381189 0.659
661  1 1 0.750973 0.901762 0.66
662  1 -1 0.249207 0.0985254 0.661
663  1 -1 0.0988149 0.750612 0.662
664  1 -1 0.900894 0.24957 0.663
665  1 1 0.884501 0.774341 0.664
666  1 1 0.115783 0.225861 0.665
667  1 -1 0.226065 0.883932 0.666
668  1 1 0.77373 0.116356 0.667
669  1 -1 0.577663 0.964483 0.668
670  1 -1 0.422396 0.03587 0.669
671  1 1 0.0362254 0.577544 0.67
672  1 1 0.963417 0.422516 0.671
673  1 -1 0.965593 0.560328 0.672
674  1 -1 0.0347718 0.439719 0.673
675  1 1 0.439767 0.964861 0.674
676  1 -1 0.560185 0.0355081 0.675
677  1 -1 0.785659 0.870706 0.676
678  1 1 0.214571 0.129593 0.677
679  1 1 0.129894 0.785197 0.678
680  1 -1 0.869804 0.215036 0.679
681  1 -1 0.904456 0.732411 0.68
682  1 1 0.0958792 0.267782 0.681
683  1 -1 0.267976 0.903783 0.682
684  1 -1 0.731829 0.0965569 0.683
685  1 -1 0.621247 0.948824 0.684
686  1 1 0.378857 0.051559 0.685
687  1 -1 0.0519446 0.621039 0.686
688  1 -1 0.947667 0.379066 0.687
689  1 -1 0.939026 0.648028 0.688
690  1 -1 0.06136 0.352102 0.689
691  1 -1 0.352232 0.938252 0.69
692  1 1 0.647636 0.0621385 0.691
693  1 1 0.705036 0.913638 0.692
694  1 1 0.295149 0.0867361 0.693
695  1 -1 0.0871122 0.704665 0.694
696  1 -1 0.91251 0.295523 0.695
697  1 1 0.846453 0.80258 0.696
698  1 -1 0.153869 0.197702 0.697
699  1 1 0.197984 0.845807 0.698
700  1 1 0.801731 0.154519 0.699
701  1 1 0.530907 0.957214 0.7
702  1 -1 0.469123 0.0432226 0.701
703  1 1 0.0436619 0.530847 0.702
704  1 1 0.955896 0.469182 0.703
705  1 -1 0.955039 0.536374 0.704
706  1 -1 0.0454073 0.463661 0.705
707  1 1 0.463697 0.954143 0.706
708  1 1 0.536267 0.0463088 0.707
709  1 -1 0.794868 0.846105 0.708
710  1 1 0.20543 0.154244 0.709
711  1 -1 0.154595 0.794271 0.71
712  1 1 0.845051 0.20603 0.711
713  1 1 0.903223 0.706076 0.712
714  1 1 0.0971952 0.294138 0.713
715  1 1 0.294353 0.902384 0.714
716  1 1 0.705431 0.0980386 0.715
717  1 -1 0.638821 0.929037 0.716
718  1 -1 0.361327 0.07142 0.717
719  1 -1 0.0718796 0.638524 0.718
720  1 1 0.927658 0.361625 0.719
721  1 1 0.931991 0.622407 0.72
722  1 1 0.0684813 0.377727 0.721
723  1 -1 0.377862 0.931043 0.722
724  1 -1 0.622003 0.0694348 0.723
725  1 -1 0.717943 0.890288 0.724
726  1 1 0.282302 0.110151 0.725
727  1 1 0.110592 0.717452 0.726
728  1 -1 0.888965 0.282796 0.727
729  1 -1 0.84912 0.775919 0.728
730  1 -1 0.151283 0.224399 0.729
731  1 1 0.22472 0.848311 0.73
732  1 1 0.774958 0.152096 0.731
733  1 -1 0.55152 0.939911 0.732
734  1 -1 0.448542 0.0606106 0.733
735  1 1 0.0611352 0.551397 0.734
736  1 1 0.938337 0.448665 0.735
737  1 1 0.933839 0.578023 0.736
738  1 1 0.0666893 0.422072 0.737
739  1 1 0.422167 0.932779 0.738
740  1 -1 0.577737 0.0677547 0.739
741  1 1 0.750364 0.860164 0.74
742  1 -1 0.249949 0.140287 0.741
743  1 -1 0.14074 0.749736 0.742
744  1 1 0.858805 0.250581 0.743
745  1 1 0.867273 0.735743 0.744
746  1 -1 0.133199 0.26456 0.745
747  1 -1 0.264865 0.866327 0.746
748  1 -1 0.734829 0.13415 0.747
749  1 -1 0.592524 0.924188 0.748
750  1 1 0.407598 0.0763718 0.749
751  1 1 0.0769344 0.592279 0.75
752  1 1 0.9225 0.407844 0.751
753  1 -1 0.901953 0.657891 0.752
754  1 1 0.0985912 0.342323 0.753
755  1 -1 0.342538 0.900861 0.754
756  1 -1 0.657245 0.099689 0.755
757  1 -1 0.671636 0.893707 0.756
758  1 1 0.328603 0.106841 0.757
759  1 1 0.107392 0.671157 0.758
760  1 -1 0.892055 0.329085 0.759
761  1 1 0.807501 0.796384 0.76
762  1 1 0.192939 0.20404 0.761
763  1 1 0.204466 0.80662 0.762
764  1 -1 0.795106 0.193824 0.763
765  1 -1 0.507816 0.92455 0.764
766  1 -1 0.492196 0.076073 0.765
767  1 -1 0.0766996 0.507793 0.766
768  1 -1 0.922671 0.492219 0.767
769  1 1 0.922037 0.50777 0.768
770  1 -1 0.078599 0.492242 0.769
771  1 1 0.492254 0.920761 0.77
772  1 1 0.507734 0.0798819 0.771
773  1 -1 0.791151 0.802072 0.772
774  1 1 0.2093 0.198396 0.773
775  1 1 0.198867 0.790246 0.774
776  1 1 0.80066 0.21021 0.775
777  1 -1 0.882184 0.666612 0.776
778  1 1 0.118425 0.333653 0.777
779  1 1 0.33392 0.880964 0.778
780  1 -1 0.665812 0.119651 0.779
781  1 -1 0.651454 0.885567 0.78
782  1 1 0.348794 0.115064 0.781
783  1 -1 0.115698 0.650957 0.782
784  1 -1 0.883665 0.349293 0.783
785  1 1 0.902061 0.587698 0.784
786  1 -1 0.098615 0.41245 0.785
787  1 -1 0.412598 0.900705 0.786
788  1 -1 0.587253 0.0999777 0.787
789  1 1 0.720782 0.843964 0.788
790  1 -1 0.2796 0.15663 0.789
791  1 1 0.157228 0.720016 0.79
792  1 -1 0.842172 0.280369 0.791
793  1 1 0.833266 0.731667 0.792
794  1 1 0.167326 0.268745 0.793
795  1 1 0.269159 0.832079 0.794
796  1 1 0.730425 0.16852 0.795
797  1 1 0.571327 0.896606 0.796
798  1 1 0.428803 0.104119 0.797
799  1 1 0.104847 0.571066 0.798
800  1 1 0.89442 0.429066 0.799
801  1 1 0.897285 0.546527 0.8
802  1 -1 0.103462 0.45356 0.801
803  1 -1 0.453648 0.895787 0.802
804  1 1 0.546264 0.104968 0.803
805  1 1 0.746143 0.811444 0.804
806  1 -1 0.254333 0.189158 0.805
807  1 1 0.189764 0.745189 0.806
808  1 1 0.809628 0.255293 0.807
809  1 1 0.843889 0.692033 0.808
810  1 1 0.156796 0.308349 0.809
811  1 1 0.308734 0.842516 0.81
812  1 1 0.69088 0.158176 0.811
813  1 -1 0.606516 0.875913 0.812
814  1 -1 0.393702 0.124858 0.813
815  1 1 0.125632 0.606079 0.814
816  1 1 0.873589 0.394142 0.815
817  1 1 0.868666 0.619287 0.816
818  1 -1 0.132112 0.380965 0.817
819  1 1 0.381218 0.867106 0.818
820  1 -1 0.618528 0.13368 0.819
821  1 1 0.674837 0.842099 0.82
822  1 1 0.325543 0.158644 0.821
823  1 1 0.159392 0.674075 0.822
824  1 -1 0.839856 0.326309 0.823
825  1 -1 0.789881 0.746967 0.824
826  1 1 0.210768 0.253586 0.825
827  1 -1 0.254142 0.788579 0.826
828  1 -1 0.745299 0.212077 0.827
829  1 1 0.530071 0.87618 0.828
830  1 1 0.469999 0.124688 0.829
831  1 1 0.125562 0.529931 0.83
832  1 1 0.87356 0.470139 0.831
833  1 1 0.873015 0.525215 0.832
834  1 -1 0.127873 0.474845 0.833
835  1 -1 0.474905 0.871233 0.834
836  1 1 0.525034 0.129665 0.835
837  1 1 0.74357 0.778887 0.836
838  1 1 0.257029 0.221799 0.837
839  1 1 0.222488 0.742369 0.838
840  1 -1 0.776819 0.258236 0.839
841  1 -1 0.828467 0.662818 0.84
842  1 1 0.172367 0.337595 0.841
843  1 1 0.33801 0.826796 0.842
844  1 -1 0.661572 0.174047 0.843
845  1 -1 0.615933 0.843836 0.844
846  1 -1 0.384371 0.157064 0.845
847  1 -1 0.15797 0.615324 0.846
848  1 -1 0.841119 0.384983 0.847
849  1 -1 0.846597 0.593631 0.848
850  1 1 0.154342 0.406623 0.849
851  1 1 0.406878 0.844715 0.85
852  1 -1 0.592866 0.156234 0.851
853  1 1 0.676921 0.807888 0.852
854  1 -1 0.323575 0.192974 0.853
855  1 -1 0.193841 0.675927 0.854
856  1 1 0.805288 0.324574 0.855
857  1 1 0.7781 0.714299 0.856
858  1 1 0.222705 0.286322 0.857
859  1 -1 0.286946 0.776485 0.858
860  1 1 0.712426 0.22433 0.859
861  1 1 0.544587 0.84411 0.86
862  1 -1 0.455547 0.156921 0.861
863  1 1 0.157959 0.544319 0.862
864  1 1 0.840997 0.455816 0.863
865  1 1 0.838095 0.55653 0.864
866  1 1 0.162955 0.443645 0.865
867  1 1 0.443822 0.835988 0.866
868  1 -1 0.556 0.165075 0.867
869  1 -1 0.6966 0.775544 0.868
870  1 -1 0.304033 0.225344 0.869
871  1 -1 0.226237 0.69533 0.87
872  1 -1 0.772865 0.305311 0.871
873  1 1 0.783348 0.677002 0.872
874  1 1 0.217599 0.32359 0.873
875  1 -1 0.324185 0.781448 0.874
876  1 -1 0.675216 0.219511 0.875
877  1 -1 0.574184 0.821124 0.876
878  1 -1 0.426074 0.179991 0.877
879  1 -1 0.181113 0.573667 0.878
880  1 -1 0.817759 0.426594 0.879
881  1 1 0.803899 0.61509 0.88
882  1 1 0.197198 0.385326 0.881
883  1 1 0.385744 0.801698 0.882
884  1 -1 0.613835 0.199413 0.883
885  1 -1 0.631562 0.791951 0.884
886  1 1 0.368932 0.209146 0.885
887  1 1 0.21025 0.630571 0.886
888  1 -1 0.78864 0.36993 0.887
889  1 -1 0.729733 0.716052 0.888
890  1 1 0.271166 0.284793 0.889
891  1 -1 0.285644 0.727929 0.89
892  1 1 0.713499 0.272982 0.891
893  1 1 0.509521 0.810234 0.892
894  1 -1 0.490518 0.191032 0.893
895  1 -1 0.192307 0.509443 0.894
896  1 -1 0.806409 0.490597 0.895
897  1 1 0.804979 0.513107 0.896
898  1 1 0.196321 0.486949 0.897