LAMMPS (29 Jun 2018)
OMP_NUM_THREADS environment is not set. Defaulting to 1 thread. (src/comm.cpp:87)
  using 1 OpenMP thread(s) per MPI task

units		lj
atom_style  charge

read_data data.cloud_wall
  orthogonal box = (0 0 0) to (10 10 10)
  1 by 1 by 2 MPI processor grid
  reading atoms ...
  300 atoms

velocity	all set 0.0 0.0 0.0 mom no

pair_style	zero 1.0
pair_coeff	* *

neighbor	1.0 bin
neigh_modify	delay 0

fix     1 all nve
kspace_style scafacos p2nfft  0.001
kspace_modify scafacos tolerance field

timestep	0.005

thermo_style custom step atoms cpu temp pe ke etotal ecoul

run_style verlet

#dump simple all custom 1000 id x y z vx vy vz
#dump dmp    all custom 1000 part.dump id mol x y z vx vy vz fx fy fz q mass
#dump dmpvtk all vtk 1000 vtk/part_*.vtk id mol x y z vx vy vz fx fy fz q mass
#dump_modify dmpvtk pad 7

thermo 10
run	100
Setting up ScaFaCoS with solver p2nfft ...
Neighbor list info ...
  update every 1 steps, delay 0 steps, check yes
  max neighbors/atom: 2000, page size: 100000
  master list distance cutoff = 2
  ghost atom cutoff = 2
  binsize = 1, bins = 10 10 10
  1 neighbor lists, perpetual/occasional/extra = 1 0 0
  (1) pair zero, perpetual
      attributes: half, newton on
      pair build: half/bin/atomonly/newton
      stencil: half/bin/3d/newton
      bin: standard
Per MPI rank memory allocation (min/avg/max) = 3.354 | 3.354 | 3.355 Mbytes
Step Atoms CPU Temp PotEng KinEng TotEng E_coul 
       0      300            0            0   0.49683273            0   0.49683273            0 
      10      300  0.049199581  0.015479312   0.47369009  0.023141571   0.49683166            0 
      20      300   0.09860301  0.062386358   0.40356181  0.093267605   0.49682941            0 
      30      300   0.14826894   0.14331637    0.2825636   0.21425798   0.49682157            0 
      40      300   0.19769144   0.53041843  0.089505208   0.79297556   0.88248077            0 
      50      300   0.24735355    1.1948397 -0.083317439    1.7862853    1.7029679            0 
      60      300   0.29692888    1.3915614  -0.37745551    2.0803842    1.7029287            0 
      70      300   0.34639764    1.7061978  -0.84746071    2.5507657     1.703305            0 
      80      300   0.39633083    20.692093     -3.32971     30.93468     27.60497            0 
      90      300   0.44779778    48.999403   -2.1632167    73.254107    71.090891            0 
     100      300   0.49988627    51.199785  -0.81127924    76.543678    75.732399            0 
Loop time of 0.499909 on 2 procs for 100 steps with 300 atoms

Performance: 86415.782 tau/day, 200.037 timesteps/s
99.5% CPU use with 2 MPI tasks x 1 OpenMP threads

MPI task timing breakdown:
Section |  min time  |  avg time  |  max time  |%varavg| %total
---------------------------------------------------------------
Pair    | 9.0599e-06 | 1.3709e-05 | 1.8358e-05 |   0.0 |  0.00
Kspace  | 0.49314    | 0.49365    | 0.49416    |   0.1 | 98.75
Neigh   | 0.0016146  | 0.0021083  | 0.0026021  |   1.1 |  0.42
Comm    | 0.002754   | 0.0028276  | 0.0029013  |   0.1 |  0.57
Output  | 0.00015783 | 0.00019348 | 0.00022912 |   0.0 |  0.04
Modify  | 0.00049257 | 0.00049472 | 0.00049686 |   0.0 |  0.10
Other   |            | 0.0006217  |            |       |  0.12

Nlocal:    150 ave 157 max 143 min
Histogram: 1 0 0 0 0 0 0 0 0 1
Nghost:    399 ave 402 max 396 min
Histogram: 1 0 0 0 0 0 0 0 0 1
Neighs:    1230.5 ave 1756 max 705 min
Histogram: 1 0 0 0 0 0 0 0 0 1

Total # of neighbors = 2461
Ave neighs/atom = 8.20333
Neighbor list builds = 15
Dangerous builds = 0
Total wall time: 0:00:00
