LAMMPS (29 Jun 2018)
OMP_NUM_THREADS environment is not set. Defaulting to 1 thread. (src/comm.cpp:87)
  using 1 OpenMP thread(s) per MPI task
# Point dipoles in a 2d box

units		lj
atom_style  charge

read_data data.NaCl
  orthogonal box = (0 0 0) to (2 2 2)
  2 by 2 by 2 MPI processor grid
  reading atoms ...
  8 atoms

replicate 8 8 8
  orthogonal box = (0 0 0) to (16 16 16)
  2 by 2 by 2 MPI processor grid
  4096 atoms
  Time spent = 0.000281811 secs

velocity	all create 1.5 49893

neighbor	1.0 bin
neigh_modify	delay 0

fix             1 all nve

# LAMMPS computes pairwise and long-range Coulombics

#pair_style      coul/long 3.0
#pair_coeff      * *
#kspace_style    pppm 1.0e-3

# Scafacos computes entire long-range Coulombics
# use dummy pair style to perform atom sorting

pair_style	zero 1.0
pair_coeff	* *

#fix		2 all scafacos p3m tolerance field 0.001

kspace_style    scafacos ewald 0.001
kspace_modify    scafacos tolerance field

timestep	0.005
thermo          10

run		100
Setting up ScaFaCoS with solver ewald ...
Neighbor list info ...
  update every 1 steps, delay 0 steps, check yes
  max neighbors/atom: 2000, page size: 100000
  master list distance cutoff = 2
  ghost atom cutoff = 2
  binsize = 1, bins = 16 16 16
  1 neighbor lists, perpetual/occasional/extra = 1 0 0
  (1) pair zero, perpetual
      attributes: half, newton on
      pair build: half/bin/atomonly/newton
      stencil: half/bin/3d/newton
      bin: standard
Per MPI rank memory allocation (min/avg/max) = 3.416 | 3.416 | 3.416 Mbytes
Step Temp E_pair E_mol TotEng Press 
       0          1.5  -0.87413076            0    1.3753199    1.4996338 
      10    1.5001095  -0.85040058            0    1.3992143    1.4997433 
      20    1.5002258  -0.85039456            0    1.3993947    1.4998595 
      30    1.5003395  -0.85038368            0    1.3995761    1.4999732 
      40    1.5004452  -0.85035944            0    1.3997589    1.5000789 
      50    1.5005354  -0.85030783            0    1.3999457     1.500169 
      60    1.5006008  -0.85021779            0    1.4001339    1.5002344 
      70     1.500632   -0.8500769            0    1.4003215    1.5002656 
      80    1.5006197  -0.84987187            0    1.4005081    1.5002533 
      90    1.5005554  -0.84959251            0     1.400691     1.500189 
     100     1.500432  -0.84916846            0    1.4009301    1.5000657 
Loop time of 86.1477 on 8 procs for 100 steps with 4096 atoms

Performance: 501.464 tau/day, 1.161 timesteps/s
99.9% CPU use with 8 MPI tasks x 1 OpenMP threads

MPI task timing breakdown:
Section |  min time  |  avg time  |  max time  |%varavg| %total
---------------------------------------------------------------
Pair    | 0.000314   | 0.00033289 | 0.00035048 |   0.0 |  0.00
Kspace  | 86.136     | 86.136     | 86.136     |   0.0 | 99.99
Neigh   | 0          | 0          | 0          |   0.0 |  0.00
Comm    | 0.0069821  | 0.0073864  | 0.0077834  |   0.3 |  0.01
Output  | 0.00038719 | 0.00041264 | 0.00047517 |   0.0 |  0.00
Modify  | 0.0018711  | 0.0019454  | 0.0020905  |   0.1 |  0.00
Other   |            | 0.001762   |            |       |  0.00

Nlocal:    512 ave 512 max 512 min
Histogram: 8 0 0 0 0 0 0 0 0 0
Nghost:    1685 ave 1685 max 1685 min
Histogram: 8 0 0 0 0 0 0 0 0 0
Neighs:    8192 ave 8192 max 8192 min
Histogram: 8 0 0 0 0 0 0 0 0 0

Total # of neighbors = 65536
Ave neighs/atom = 16
Neighbor list builds = 0
Dangerous builds = 0
Total wall time: 0:01:28
