LAMMPS (29 Jun 2018)
OMP_NUM_THREADS environment is not set. Defaulting to 1 thread. (src/comm.cpp:87)
  using 1 OpenMP thread(s) per MPI task
units	    lj
atom_style  charge

read_data data.cloud_wall
  orthogonal box = (0 0 0) to (10 10 10)
  1 by 1 by 2 MPI processor grid
  reading atoms ...
  300 atoms

velocity	all set 0.0 0.0 0.0 mom no

pair_style	zero 1.0
pair_coeff	* *

neighbor	1.0 bin
neigh_modify	delay 0

fix     1 all nve


#pair_style      coul/long 3.0
#pair_coeff      * *
#kspace_style    pppm 1.0e-3

kspace_style scafacos fmm 1.0e-3
kspace_modify scafacos tolerance energy_rel
kspace_modify scafacos fmm_tuning 1
ScaFaCoS setting fmm inhomogen tuning ...3

timestep	0.005

thermo_style custom step atoms cpu temp pe ke etotal ecoul

run_style verlet

#dump simple all custom 1000 id x y z vx vy vz
#dump dmp    all custom 1000 part.dump id mol x y z vx vy vz fx fy fz q mass
#dump dmpvtk all vtk 1000 vtk/part_*.vtk id mol x y z vx vy vz fx fy fz q mass
#dump_modify dmpvtk pad 7

thermo 10
run	100
Setting up ScaFaCoS with solver fmm ...
Neighbor list info ...
  update every 1 steps, delay 0 steps, check yes
  max neighbors/atom: 2000, page size: 100000
  master list distance cutoff = 2
  ghost atom cutoff = 2
  binsize = 1, bins = 10 10 10
  1 neighbor lists, perpetual/occasional/extra = 1 0 0
  (1) pair zero, perpetual
      attributes: half, newton on
      pair build: half/bin/atomonly/newton
      stencil: half/bin/3d/newton
      bin: standard
Per MPI rank memory allocation (min/avg/max) = 3.354 | 3.354 | 3.355 Mbytes
Step Atoms CPU Temp PotEng KinEng TotEng E_coul 
       0      300            0            0   0.49646402            0   0.49646402            0 
      10      300  0.021326542  0.015455559   0.47335833   0.02310606   0.49646439            0 
      20      300  0.043129683   0.06229069   0.40334177  0.093124582   0.49646635            0 
      30      300  0.064425707   0.14310163   0.28254277   0.21393694   0.49647971            0 
      40      300  0.085822344   0.52929788  0.089669015   0.79130033   0.88096934            0 
      50      300   0.10737753    1.1963022 -0.082792461    1.7884718    1.7056794            0 
      60      300   0.12947297    1.3928167  -0.37659239     2.082261    1.7056686            0 
      70      300   0.15108895    1.7069009  -0.84571914    2.5518169    1.7060978            0 
      80      300   0.17378163    15.358343    -3.368063    22.960722    19.592659            0 
      90      300   0.19809985    42.280432   -2.1623864    63.209247     61.04686            0 
     100      300   0.22268319     41.48079  -0.89904529    62.013782    61.114736            0 
Loop time of 0.222696 on 2 procs for 100 steps with 300 atoms

Performance: 193986.156 tau/day, 449.042 timesteps/s
98.4% CPU use with 2 MPI tasks x 1 OpenMP threads

MPI task timing breakdown:
Section |  min time  |  avg time  |  max time  |%varavg| %total
---------------------------------------------------------------
Pair    | 1.1683e-05 | 1.5378e-05 | 1.9073e-05 |   0.0 |  0.01
Kspace  | 0.21627    | 0.2168     | 0.21734    |   0.1 | 97.35
Neigh   | 0.0016344  | 0.0021609  | 0.0026875  |   1.1 |  0.97
Comm    | 0.0022857  | 0.0023286  | 0.0023715  |   0.1 |  1.05
Output  | 0.00015521 | 0.00019228 | 0.00022936 |   0.0 |  0.09
Modify  | 0.00052834 | 0.00054049 | 0.00055265 |   0.0 |  0.24
Other   |            | 0.0006541  |            |       |  0.29

Nlocal:    150 ave 159 max 141 min
Histogram: 1 0 0 0 0 0 0 0 0 1
Nghost:    392 ave 395 max 389 min
Histogram: 1 0 0 0 0 0 0 0 0 1
Neighs:    1229.5 ave 1773 max 686 min
Histogram: 1 0 0 0 0 0 0 0 0 1

Total # of neighbors = 2459
Ave neighs/atom = 8.19667
Neighbor list builds = 15
Dangerous builds = 0
Total wall time: 0:00:01
