LAMMPS (2 Aug 2018)
OMP_NUM_THREADS environment is not set. Defaulting to 1 thread. (src/comm.cpp:87)
  using 1 OpenMP thread(s) per MPI task
# Point dipoles in a 2d box

units		lj
atom_style  charge

read_data data.hammersley_shphere
  orthogonal box = (-50.5 -50.5 -50.5) to (51.5 51.5 51.5)
  1 by 1 by 2 MPI processor grid
  reading atoms ...
  1000 atoms
change_box all boundary f f f

velocity	all create 1.5 49893

neighbor	1.0 bin
neigh_modify	delay 0

fix             1 all nve

# LAMMPS computes pairwise and long-range Coulombics

#pair_style      coul/long 3.0
#pair_coeff      * *
#kspace_style    pppm 1.0e-3

# Scafacos computes entire long-range Coulombics
# use dummy pair style to perform atom sorting

pair_style	zero 1.0
pair_coeff	* *

#fix		2 all scafacos p3m tolerance field 0.001

kspace_style    scafacos p2nfft 0.001
kspace_modify scafacos tolerance potential

timestep	0.005
thermo          1

run		20
Setting up ScaFaCoS with solver p2nfft ...
Neighbor list info ...
  update every 1 steps, delay 0 steps, check yes
  max neighbors/atom: 2000, page size: 100000
  master list distance cutoff = 2
  ghost atom cutoff = 2
  binsize = 1, bins = 102 102 102
  1 neighbor lists, perpetual/occasional/extra = 1 0 0
  (1) pair zero, perpetual
      attributes: half, newton on
      pair build: half/bin/atomonly/newton
      stencil: half/bin/3d/newton
      bin: standard
Per MPI rank memory allocation (min/avg/max) = 6.48 | 6.861 | 7.243 Mbytes
Step Temp E_pair E_mol TotEng Press 
       0          1.5  -0.62417787            0    1.6235721 0.0015678854 
       1    18.780041   -10.770002            0    17.371889  0.016718957 
       2    65.289192   -11.084705            0    86.751149  0.060353634 
       3    121.92987   -7.0625759            0    175.64933   0.11404974 
       4    185.78164   -5.8777511            0    272.51603   0.17462194 
       5    286.36221   -4.3820531            0    424.73172   0.26918925 
       6    481.42203   -4.3095567            0    717.10136   0.45274086 
       7    488.59165   -3.8685193            0    728.28607   0.45956865 
       8    497.85288   -3.0417938            0    742.99075   0.46838117 
       9    499.61619   -3.4190063            0    745.25585   0.46983349 
      10    502.63691   -2.8360951            0    750.36531   0.47280815 
      11     504.4847   -2.7628089            0    753.20751   0.47462802 
      12    506.54494   -2.8460319            0    756.21157    0.4765145 
      13     508.2722   -2.7309328            0    758.91497   0.47813761 
      14    510.57053   -2.6094792            0    762.48045   0.48031438 
      15    513.14804   -2.7150819            0    766.23726   0.48275234 
      16    515.78127   -2.3961749            0    770.50206   0.48526336 
      17    515.70267   -2.2982581            0    770.48219   0.48526619 
      18    515.70813   -2.1516075            0    770.63702   0.48530395 
      19    515.74908   -2.0581483            0    770.79185   0.48530979 
      20    515.70881    -1.892235            0    770.89742   0.48527104 
Loop time of 0.701267 on 2 procs for 20 steps with 1000 atoms

Performance: 12320.557 tau/day, 28.520 timesteps/s
99.6% CPU use with 2 MPI tasks x 1 OpenMP threads

MPI task timing breakdown:
Section |  min time  |  avg time  |  max time  |%varavg| %total
---------------------------------------------------------------
Pair    | 0.0002265  | 0.00022769 | 0.00022888 |   0.0 |  0.03
Kspace  | 0.60195    | 0.62374    | 0.64554    |   2.8 | 88.95
Neigh   | 0.05268    | 0.074592   | 0.096504   |   8.0 | 10.64
Comm    | 0.0015199  | 0.0016934  | 0.0018668  |   0.4 |  0.24
Output  | 0.00031519 | 0.00041544 | 0.0005157  |   0.0 |  0.06
Modify  | 0.00029492 | 0.00030565 | 0.00031638 |   0.0 |  0.04
Other   |            | 0.000288   |            |       |  0.04

Nlocal:    500 ave 516 max 484 min
Histogram: 1 0 0 0 0 0 0 0 0 1
Nghost:    456.5 ave 475 max 438 min
Histogram: 1 0 0 0 0 0 0 0 0 1
Neighs:    123908 ave 172139 max 75678 min
Histogram: 1 0 0 0 0 0 0 0 0 1

Total # of neighbors = 247817
Ave neighs/atom = 247.817
Neighbor list builds = 19
Dangerous builds = 18
Total wall time: 0:00:00
