LAMMPS (29 Jun 2018)
OMP_NUM_THREADS environment is not set. Defaulting to 1 thread. (src/comm.cpp:87)
  using 1 OpenMP thread(s) per MPI task
units	    lj
atom_style  charge

read_data data.cloud_wall
  orthogonal box = (0 0 0) to (10 10 10)
  2 by 2 by 2 MPI processor grid
  reading atoms ...
  300 atoms

velocity	all set 0.0 0.0 0.0 mom no

pair_style	zero 1.0
pair_coeff	* *

neighbor	1.0 bin
neigh_modify	delay 0

fix     1 all nve


#pair_style      coul/long 3.0
#pair_coeff      * *
#kspace_style    pppm 1.0e-3

kspace_style scafacos fmm 1.0e-3
kspace_modify scafacos tolerance energy_rel
kspace_modify scafacos fmm_tuning 1
ScaFaCoS setting fmm inhomogen tuning ...3

timestep	0.005

thermo_style custom step atoms cpu temp pe ke etotal ecoul

run_style verlet

#dump simple all custom 1000 id x y z vx vy vz
#dump dmp    all custom 1000 part.dump id mol x y z vx vy vz fx fy fz q mass
#dump dmpvtk all vtk 1000 vtk/part_*.vtk id mol x y z vx vy vz fx fy fz q mass
#dump_modify dmpvtk pad 7

thermo 10
run	100
Setting up ScaFaCoS with solver fmm ...
Neighbor list info ...
  update every 1 steps, delay 0 steps, check yes
  max neighbors/atom: 2000, page size: 100000
  master list distance cutoff = 2
  ghost atom cutoff = 2
  binsize = 1, bins = 10 10 10
  1 neighbor lists, perpetual/occasional/extra = 1 0 0
  (1) pair zero, perpetual
      attributes: half, newton on
      pair build: half/bin/atomonly/newton
      stencil: half/bin/3d/newton
      bin: standard
Per MPI rank memory allocation (min/avg/max) = 3.317 | 3.317 | 3.317 Mbytes
Step Atoms CPU Temp PotEng KinEng TotEng E_coul 
       0      300            0            0   0.49646402            0   0.49646402            0 
      10      300  0.016258478  0.015455559   0.47335833   0.02310606   0.49646439            0 
      20      300  0.031442165   0.06229069   0.40334177  0.093124582   0.49646635            0 
      30      300  0.046462774   0.14310163   0.28254277   0.21393694   0.49647971            0 
      40      300  0.061176538   0.52929788  0.089669015   0.79130033   0.88096934            0 
      50      300  0.076244354    1.1963022 -0.082792461    1.7884718    1.7056794            0 
      60      300  0.091396809    1.3928167  -0.37659239     2.082261    1.7056686            0 
      70      300   0.10625911    1.7069009  -0.84571914    2.5518169    1.7060978            0 
      80      300    0.1204896    15.358343    -3.368063    22.960722    19.592659            0 
      90      300   0.13657618    42.280432   -2.1623864    63.209247     61.04686            0 
     100      300   0.15163732     41.48079  -0.89904529    62.013782    61.114736            0 
Loop time of 0.151654 on 8 procs for 100 steps with 300 atoms

Performance: 284858.554 tau/day, 659.395 timesteps/s
97.7% CPU use with 8 MPI tasks x 1 OpenMP threads

MPI task timing breakdown:
Section |  min time  |  avg time  |  max time  |%varavg| %total
---------------------------------------------------------------
Pair    | 1.3828e-05 | 1.6987e-05 | 1.955e-05  |   0.0 |  0.01
Kspace  | 0.14633    | 0.14689    | 0.14725    |   0.1 | 96.86
Neigh   | 0.00047135 | 0.00067887 | 0.00094771 |   0.0 |  0.45
Comm    | 0.0027649  | 0.0029218  | 0.0032592  |   0.3 |  1.93
Output  | 0.00022578 | 0.00024724 | 0.00030136 |   0.0 |  0.16
Modify  | 0.00018954 | 0.00021681 | 0.0002358  |   0.0 |  0.14
Other   |            | 0.0006794  |            |       |  0.45

Nlocal:    37.5 ave 45 max 31 min
Histogram: 1 1 1 1 1 0 1 0 1 1
Nghost:    200 ave 209 max 189 min
Histogram: 1 0 0 0 1 4 0 0 0 2
Neighs:    307.375 ave 514 max 115 min
Histogram: 2 1 0 1 1 0 0 0 1 2

Total # of neighbors = 2459
Ave neighs/atom = 8.19667
Neighbor list builds = 15
Dangerous builds = 0
Total wall time: 0:00:01
