LAMMPS (2 Aug 2018)
OMP_NUM_THREADS environment is not set. Defaulting to 1 thread. (src/comm.cpp:87)
  using 1 OpenMP thread(s) per MPI task
# Point dipoles in a 2d box

units		lj
atom_style  charge

read_data data.hammersley_shphere
  orthogonal box = (-50.5 -50.5 -50.5) to (51.5 51.5 51.5)
  1 by 1 by 2 MPI processor grid
  reading atoms ...
  1000 atoms
change_box all boundary f f f

velocity	all create 1.5 49893

neighbor	1.0 bin
neigh_modify	delay 0

fix             1 all nve

# LAMMPS computes pairwise and long-range Coulombics

#pair_style      coul/long 3.0
#pair_coeff      * *
#kspace_style    pppm 1.0e-3

# Scafacos computes entire long-range Coulombics
# use dummy pair style to perform atom sorting

pair_style	zero 1.0
pair_coeff	* *

#fix		2 all scafacos p3m tolerance field 0.001

kspace_style    scafacos direct 0.001

timestep	0.005
thermo          1
run		20
Setting up ScaFaCoS with solver direct ...
Neighbor list info ...
  update every 1 steps, delay 0 steps, check yes
  max neighbors/atom: 2000, page size: 100000
  master list distance cutoff = 2
  ghost atom cutoff = 2
  binsize = 1, bins = 102 102 102
  1 neighbor lists, perpetual/occasional/extra = 1 0 0
  (1) pair zero, perpetual
      attributes: half, newton on
      pair build: half/bin/atomonly/newton
      stencil: half/bin/3d/newton
      bin: standard
Per MPI rank memory allocation (min/avg/max) = 6.48 | 6.861 | 7.243 Mbytes
Step Temp E_pair E_mol TotEng Press 
       0          1.5  -0.62417787            0    1.6235721 0.0015678854 
       1    18.780041   -10.770002            0    17.371889  0.016718957 
       2    65.289192   -11.084705            0    86.751149  0.060353634 
       3    121.92987   -7.0625759            0    175.64933   0.11404974 
       4    185.78164   -5.8777512            0    272.51604   0.17462195 
       5    286.36222    -4.382053            0    424.73173   0.26918926 
       6    481.42206   -4.3095567            0     717.1014   0.45274088 
       7    488.59167   -3.8685194            0     728.2861   0.45956866 
       8    497.85287   -3.0417966            0    742.99073   0.46838116 
       9    499.61615    -3.419003            0     745.2558   0.46983345 
      10    502.63684   -2.8360961            0    750.36521   0.47280809 
      11     504.4846   -2.7628105            0    753.20736   0.47462793 
      12    506.54485   -2.8460356            0    756.21142   0.47651441 
      13    508.27211    -2.730935            0    758.91482   0.47813752 
      14    510.57045   -2.6094877            0    762.48033   0.48031431 
      15    513.14798   -2.7150827            0    766.23717   0.48275229 
      16    515.78124   -2.3961811            0    770.50201   0.48526333 
      17    515.70265   -2.2982683            0    770.48215   0.48526617 
      18     515.7081   -2.1515983            0    770.63699   0.48530393 
      19    515.74906   -2.0581436            0    770.79182   0.48530977 
      20    515.70883   -1.8922577            0    770.89742   0.48527105 
Loop time of 0.284007 on 2 procs for 20 steps with 1000 atoms

Performance: 30421.778 tau/day, 70.421 timesteps/s
99.1% CPU use with 2 MPI tasks x 1 OpenMP threads

MPI task timing breakdown:
Section |  min time  |  avg time  |  max time  |%varavg| %total
---------------------------------------------------------------
Pair    | 0.00022578 | 0.00022626 | 0.00022674 |   0.0 |  0.08
Kspace  | 0.18253    | 0.20503    | 0.22752    |   5.0 | 72.19
Neigh   | 0.05363    | 0.076239   | 0.098848   |   8.2 | 26.84
Comm    | 0.0014737  | 0.0016443  | 0.0018148  |   0.4 |  0.58
Output  | 0.000247   | 0.00032353 | 0.00040007 |   0.0 |  0.11
Modify  | 0.00029159 | 0.00029731 | 0.00030303 |   0.0 |  0.10
Other   |            | 0.0002506  |            |       |  0.09

Nlocal:    500 ave 516 max 484 min
Histogram: 1 0 0 0 0 0 0 0 0 1
Nghost:    456.5 ave 475 max 438 min
Histogram: 1 0 0 0 0 0 0 0 0 1
Neighs:    123908 ave 172139 max 75678 min
Histogram: 1 0 0 0 0 0 0 0 0 1

Total # of neighbors = 247817
Ave neighs/atom = 247.817
Neighbor list builds = 19
Dangerous builds = 18
Total wall time: 0:00:00
