LAMMPS (29 Jun 2018)
OMP_NUM_THREADS environment is not set. Defaulting to 1 thread. (src/comm.cpp:87)
  using 1 OpenMP thread(s) per MPI task
# Point dipoles in a 2d box

units		lj
atom_style  charge

read_data data.hammersley_shphere
  orthogonal box = (-50.5 -50.5 -50.5) to (51.5 51.5 51.5)
  1 by 1 by 1 MPI processor grid
  reading atoms ...
  1000 atoms
change_box all boundary f f f

velocity	all create 1.5 49893

neighbor	1.0 bin
neigh_modify	delay 0

fix             1 all nve

# LAMMPS computes pairwise and long-range Coulombics

#pair_style      coul/long 3.0
#pair_coeff      * *
#kspace_style    pppm 1.0e-3

# Scafacos computes entire long-range Coulombics
# use dummy pair style to perform atom sorting

pair_style	zero 1.0
pair_coeff	* *

#fix		2 all scafacos p3m tolerance field 0.001

kspace_style    scafacos p2nfft 0.001
kspace_modify scafacos tolerance potential

timestep	0.005
thermo          1

run		20
Setting up ScaFaCoS with solver p2nfft ...
Neighbor list info ...
  update every 1 steps, delay 0 steps, check yes
  max neighbors/atom: 2000, page size: 100000
  master list distance cutoff = 2
  ghost atom cutoff = 2
  binsize = 1, bins = 102 102 102
  1 neighbor lists, perpetual/occasional/extra = 1 0 0
  (1) pair zero, perpetual
      attributes: half, newton on
      pair build: half/bin/atomonly/newton
      stencil: half/bin/3d/newton
      bin: standard
Per MPI rank memory allocation (min/avg/max) = 10.3 | 10.3 | 10.3 Mbytes
Step Temp E_pair E_mol TotEng Press 
       0          1.5  -0.62417787            0    1.6235721   0.00141207 
       1    18.780041   -10.770002            0    17.371889  0.017679155 
       2    65.289192   -11.084705            0    86.751149   0.06146194 
       3    121.92987   -7.0625759            0    175.64933   0.11478234 
       4    185.78164   -5.8777511            0    272.51603   0.17489112 
       5    286.36221   -4.3820531            0    424.73172   0.26957566 
       6    481.42203   -4.3095567            0    717.10136   0.45320108 
       7    488.59165   -3.8685193            0    728.28607   0.45995042 
       8    497.85288   -3.0417938            0    742.99075   0.46866875 
       9    499.61619   -3.4190063            0    745.25585   0.47032869 
      10    502.63691   -2.8360951            0    750.36531   0.47317234 
      11     504.4847   -2.7628089            0    753.20751   0.47491181 
      12    506.54494   -2.8460319            0    756.21157   0.47685128 
      13     508.2722   -2.7309328            0    758.91497   0.47847729 
      14    510.57053   -2.6094792            0    762.48045   0.48064089 
      15    513.14804   -2.7150819            0    766.23726   0.48306731 
      16    515.78127   -2.3961749            0    770.50206   0.48554618 
      17    515.70267   -2.2982581            0    770.48219   0.48547219 
      18    515.70813   -2.1516075            0    770.63702   0.48547732 
      19    515.74908   -2.0581483            0    770.79185   0.48551588 
      20    515.70881    -1.892235            0    770.89742   0.48547797 
Loop time of 1.34132 on 1 procs for 20 steps with 1000 atoms

Performance: 6441.409 tau/day, 14.911 timesteps/s
100.0% CPU use with 1 MPI tasks x 1 OpenMP threads

MPI task timing breakdown:
Section |  min time  |  avg time  |  max time  |%varavg| %total
---------------------------------------------------------------
Pair    | 0.00028849 | 0.00028849 | 0.00028849 |   0.0 |  0.02
Kspace  | 1.1744     | 1.1744     | 1.1744     |   0.0 | 87.56
Neigh   | 0.16435    | 0.16435    | 0.16435    |   0.0 | 12.25
Comm    | 0.00021219 | 0.00021219 | 0.00021219 |   0.0 |  0.02
Output  | 0.00051928 | 0.00051928 | 0.00051928 |   0.0 |  0.04
Modify  | 0.00079513 | 0.00079513 | 0.00079513 |   0.0 |  0.06
Other   |            | 0.0007439  |            |       |  0.06

Nlocal:    1000 ave 1000 max 1000 min
Histogram: 1 0 0 0 0 0 0 0 0 0
Nghost:    0 ave 0 max 0 min
Histogram: 1 0 0 0 0 0 0 0 0 0
Neighs:    247817 ave 247817 max 247817 min
Histogram: 1 0 0 0 0 0 0 0 0 0

Total # of neighbors = 247817
Ave neighs/atom = 247.817
Neighbor list builds = 19
Dangerous builds = 18
Total wall time: 0:00:01
