LAMMPS (2 Jul 2021)
variable number	equal 1
variable ofreq	equal 1000
variable efreq	equal 1000
variable T      equal 0.1
variable rhos   equal 0.2

units lj

dimension 3

newton on

boundary  p p p

atom_style hybrid bond ellipsoid oxdna
WARNING: Atom style hybrid defines both, per-type and per-atom masses; both must be set, but only per-atom masses will be used (../atom_vec_hybrid.cpp:157)
atom_modify sort 0 1.0

# Pair interactions require lists of neighbours to be calculated
neighbor 2.0 bin
neigh_modify every 1 delay 0 check yes

read_data data.duplex1
Reading data file ...
  orthogonal box = (-20.000000 -20.000000 -20.000000) to (20.000000 20.000000 20.000000)
  1 by 1 by 1 MPI processor grid
  reading atoms ...
  10 atoms
  reading velocities ...
  10 velocities
  scanning bonds ...
  1 = max bonds/atom
  10 ellipsoids
  reading bonds ...
  8 bonds
Finding 1-2 1-3 1-4 neighbors ...
  special bond factors lj:    0        0        0       
  special bond factors coul:  0        0        0       
     2 = max # of 1-2 neighbors
     2 = max # of 1-3 neighbors
     2 = max # of 1-4 neighbors
     4 = max # of special neighbors
  special bonds CPU = 0.000 seconds
  read_data CPU = 0.003 seconds

set atom * mass 3.1575
Setting atom values ...
  10 settings made for mass

group all type 1 4
10 atoms in group all

# oxDNA2 bond interactions - FENE backbone
bond_style oxdna2/fene
bond_coeff * 2.0 0.25 0.7564
special_bonds lj 0 1 1
Finding 1-2 1-3 1-4 neighbors ...
  special bond factors lj:    0        1        1       
  special bond factors coul:  0        0        0       
     2 = max # of 1-2 neighbors
     2 = max # of 1-3 neighbors
     2 = max # of 1-4 neighbors
     4 = max # of special neighbors
  special bonds CPU = 0.000 seconds

# oxDNA2 pair interactions
pair_style hybrid/overlay oxdna2/excv oxdna2/stk oxdna2/hbond oxdna2/xstk oxdna2/coaxstk oxdna2/dh
pair_coeff * * oxdna2/excv    2.0 0.7 0.675 2.0 0.515 0.5 2.0 0.33 0.32
pair_coeff * * oxdna2/stk     seqav ${T} 1.3523 2.6717 6.0 0.4 0.9 0.32 0.75 1.3 0 0.8 0.9 0 0.95 0.9 0 0.95 2.0 0.65 2.0 0.65
pair_coeff * * oxdna2/stk     seqav 0.1 1.3523 2.6717 6.0 0.4 0.9 0.32 0.75 1.3 0 0.8 0.9 0 0.95 0.9 0 0.95 2.0 0.65 2.0 0.65
pair_coeff * * oxdna2/hbond   seqav 0.0 8.0 0.4 0.75 0.34 0.7 1.5 0 0.7 1.5 0 0.7 1.5 0 0.7 0.46 3.141592653589793 0.7 4.0 1.5707963267948966 0.45 4.0 1.5707963267948966 0.45
pair_coeff 1 4 oxdna2/hbond   seqav 1.0678 8.0 0.4 0.75 0.34 0.7 1.5 0 0.7 1.5 0 0.7 1.5 0 0.7 0.46 3.141592653589793 0.7 4.0 1.5707963267948966 0.45 4.0 1.5707963267948966 0.45
pair_coeff 2 3 oxdna2/hbond   seqav 1.0678 8.0 0.4 0.75 0.34 0.7 1.5 0 0.7 1.5 0 0.7 1.5 0 0.7 0.46 3.141592653589793 0.7 4.0 1.5707963267948966 0.45 4.0 1.5707963267948966 0.45
pair_coeff * * oxdna2/xstk    47.5 0.575 0.675 0.495 0.655 2.25 0.791592653589793 0.58 1.7 1.0 0.68 1.7 1.0 0.68 1.5 0 0.65 1.7 0.875 0.68 1.7 0.875 0.68
pair_coeff * * oxdna2/coaxstk 58.5 0.4 0.6 0.22 0.58 2.0 2.891592653589793 0.65 1.3 0 0.8 0.9 0 0.95 0.9 0 0.95 40.0 3.116592653589793
pair_coeff * * oxdna2/dh      ${T} ${rhos} 0.815
pair_coeff * * oxdna2/dh      0.1 ${rhos} 0.815
pair_coeff * * oxdna2/dh      0.1 0.2 0.815

# NVE ensemble
fix 1 all nve/asphere
#fix 2 all langevin ${T} ${T} 2.5 457145 angmom 10

timestep 1e-5

#comm_style tiled
fix 3 all balance 1000 1.03 shift xyz 10 1.03
comm_modify cutoff 3.8

compute quat all property/atom quatw quati quatj quatk

compute erot all erotate/asphere
compute ekin all ke
compute epot all pe
variable erot equal c_erot
variable ekin equal c_ekin
variable epot equal c_epot
variable etot equal c_erot+c_ekin+c_epot
fix 5 all print ${efreq} "$(step)  ekin = ${ekin} |  erot = ${erot} | epot = ${epot} | etot = ${etot}" screen yes
fix 5 all print 1000 "$(step)  ekin = ${ekin} |  erot = ${erot} | epot = ${epot} | etot = ${etot}" screen yes

dump out all custom ${ofreq} out.${number}.lammpstrj id mol type x y z ix iy iz vx vy vz c_quat[1] c_quat[2] c_quat[3] c_quat[4] angmomx angmomy angmomz
dump out all custom 1000 out.${number}.lammpstrj id mol type x y z ix iy iz vx vy vz c_quat[1] c_quat[2] c_quat[3] c_quat[4] angmomx angmomy angmomz
dump out all custom 1000 out.1.lammpstrj id mol type x y z ix iy iz vx vy vz c_quat[1] c_quat[2] c_quat[3] c_quat[4] angmomx angmomy angmomz
dump_modify out sort id
dump_modify out format line "%d %d %d  %22.15le %22.15le %22.15le  %d %d %d  %22.15le %22.15le %22.15le  %22.15le %22.15le %22.15le %22.15le  %22.15le %22.15le %22.15le"

run 1000000
Neighbor list info ...
  update every 1 steps, delay 0 steps, check yes
  max neighbors/atom: 2000, page size: 100000
  master list distance cutoff = 5.6389877
  ghost atom cutoff = 5.6389877
  binsize = 2.8194939, bins = 15 15 15
  5 neighbor lists, perpetual/occasional/extra = 5 0 0
  (1) pair oxdna2/excv, perpetual
      attributes: half, newton on
      pair build: half/bin/newton
      stencil: half/bin/3d
      bin: standard
  (2) pair oxdna2/hbond, perpetual, copy from (1)
      attributes: half, newton on
      pair build: copy
      stencil: none
      bin: none
  (3) pair oxdna2/xstk, perpetual, copy from (1)
      attributes: half, newton on
      pair build: copy
      stencil: none
      bin: none
  (4) pair oxdna2/coaxstk, perpetual, copy from (1)
      attributes: half, newton on
      pair build: copy
      stencil: none
      bin: none
  (5) pair oxdna2/dh, perpetual, copy from (1)
      attributes: half, newton on
      pair build: copy
      stencil: none
      bin: none
WARNING: Communication cutoff adjusted to 5.638987723814632 (../comm.cpp:739)
0  ekin = 1.10853632272819 |  erot = 2.81573649976629 | epot = -12.298895791142 | etot = -8.37462296864751
Per MPI rank memory allocation (min/avg/max) = 9.198 | 9.198 | 9.198 Mbytes
Step Temp E_pair E_mol TotEng Press Volume 
       0  0.082113802   -1.3370157   0.10712616   -1.1190359 -6.6192825e-05        64000 
1000  ekin = 1.07640077431763 |  erot = 2.90684392233817 | epot = -12.357867665527 | etot = -8.37462296887116
2000  ekin = 1.05363107794411 |  erot = 2.99414178935849 | epot = -12.4223958364622 | etot = -8.37462296915965
3000  ekin = 1.04083382823095 |  erot = 3.07274362339771 | epot = -12.4882004210899 | etot = -8.37462296946123
4000  ekin = 1.03780093165924 |  erot = 3.13815143503914 | epot = -12.550575336422 | etot = -8.37462296972364
5000  ekin = 1.04371581655899 |  erot = 3.18681185449856 | epot = -12.6051506409707 | etot = -8.37462296991315
6000  ekin = 1.05738085799295 |  erot = 3.21642353087479 | epot = -12.6484273588876 | etot = -8.37462297001983
7000  ekin = 1.07739394884042 |  erot = 3.22597832036696 | epot = -12.677995239256 | etot = -8.37462297004867
8000  ekin = 1.10226637472087 |  erot = 3.21563966301732 | epot = -12.6925290077505 | etot = -8.37462297001231
9000  ekin = 1.13051291055326 |  erot = 3.18656247631366 | epot = -12.6916983567816 | etot = -8.37462296991465
10000  ekin = 1.16073704358063 |  erot = 3.14076972913372 | epot = -12.6761297424775 | etot = -8.37462296976311
11000  ekin = 1.19170449380505 |  erot = 3.08098965164652 | epot = -12.6473171150236 | etot = -8.37462296957204
12000  ekin = 1.22238189802729 |  erot = 3.01040253468266 | epot = -12.6074074020775 | etot = -8.37462296936753
13000  ekin = 1.25192691881487 |  erot = 2.93230261872824 | epot = -12.5588525067181 | etot = -8.37462296917498
14000  ekin = 1.27963857618757 |  erot = 2.84975156813381 | epot = -12.5040131133432 | etot = -8.37462296902179
15000  ekin = 1.30489368750123 |  erot = 2.76534813925014 | epot = -12.444864795638 | etot = -8.37462296888666
16000  ekin = 1.32709913751461 |  erot = 2.6811818478553 | epot = -12.3829039541517 | etot = -8.37462296878182
17000  ekin = 1.34568132349844 |  erot = 2.5986128569079 | epot = -12.3189171492215 | etot = -8.37462296881515
18000  ekin = 1.36011712604124 |  erot = 2.51802979978579 | epot = -12.2527698947086 | etot = -8.37462296888154
19000  ekin = 1.3700055901564 |  erot = 2.43889875259719 | epot = -12.1835273117078 | etot = -8.37462296895424
20000  ekin = 1.37516683465212 |  erot = 2.36049590954913 | epot = -12.1102857132061 | etot = -8.37462296900481
21000  ekin = 1.37575335509454 |  erot = 2.28221618930094 | epot = -12.0325925134033 | etot = -8.37462296900785
22000  ekin = 1.37235802310946 |  erot = 2.20383846967473 | epot = -11.9508194617285 | etot = -8.37462296894431
23000  ekin = 1.36610326249347 |  erot = 2.12570839352804 | epot = -11.8664346248253 | etot = -8.37462296880382
24000  ekin = 1.35869525710689 |  erot = 2.04881568638621 | epot = -11.7821339120795 | etot = -8.3746229685864
25000  ekin = 1.35242255125593 |  erot = 1.97475968439782 | epot = -11.7018052039589 | etot = -8.37462296830517
26000  ekin = 1.3500701244009 |  erot = 1.90560954362746 | epot = -11.6303026360115 | etot = -8.37462296798316
27000  ekin = 1.35474332970461 |  erot = 1.843676291157 | epot = -11.573042588521 | etot = -8.37462296765941
28000  ekin = 1.36954369410747 |  erot = 1.79121252282618 | epot = -11.5353791843194 | etot = -8.37462296738577
29000  ekin = 1.39711560919894 |  erot = 1.75006009044062 | epot = -11.5217986668613 | etot = -8.37462296722172
30000  ekin = 1.43911092490998 |  erot = 1.72127833748021 | epot = -11.5350122296156 | etot = -8.37462296722543
31000  ekin = 1.49567630461185 |  erot = 1.70480588615783 | epot = -11.5751051582055 | etot = -8.37462296743583
32000  ekin = 1.56511285114173 |  erot = 1.69923538983358 | epot = -11.6389712088327 | etot = -8.37462296785736
33000  ekin = 1.64385110263233 |  erot = 1.70198396265071 | epot = -11.7204580336836 | etot = -8.37462296840058
34000  ekin = 1.72681002365018 |  erot = 1.70946314344897 | epot = -11.8108961361853 | etot = -8.37462296908616
35000  ekin = 1.80812188596362 |  erot = 1.71712980816865 | epot = -11.8998746638723 | etot = -8.37462296974007
36000  ekin = 1.88201893971536 |  erot = 1.72067857993906 | epot = -11.9773204899106 | etot = -8.37462297025618
37000  ekin = 1.94364733336808 |  erot = 1.71680208569968 | epot = -12.0350723896309 | etot = -8.37462297056312
38000  ekin = 1.98961498615624 |  erot = 1.70370907929488 | epot = -12.0679470360927 | etot = -8.37462297064162
39000  ekin = 2.01818359901078 |  erot = 1.68126711282219 | epot = -12.0740736823535 | etot = -8.37462297052054
40000  ekin = 2.02914332282544 |  erot = 1.65077260628057 | epot = -12.0545388993641 | etot = -8.37462297025811
41000  ekin = 2.02349103018079 |  erot = 1.61448262351112 | epot = -12.012596623611 | etot = -8.37462296991906
42000  ekin = 2.00304412554487 |  erot = 1.57509121259578 | epot = -11.9527583076989 | etot = -8.37462296955828
43000  ekin = 1.97008148028931 |  erot = 1.5352951062099 | epot = -11.8799995557137 | etot = -8.3746229692145
44000  ekin = 1.92705109571046 |  erot = 1.49750726070831 | epot = -11.7991813253589 | etot = -8.37462296894018
45000  ekin = 1.87634986385838 |  erot = 1.46354390598906 | epot = -11.714516738533 | etot = -8.37462296868559
46000  ekin = 1.82016797429729 |  erot = 1.43491031451222 | epot = -11.6297012572909 | etot = -8.37462296848135
47000  ekin = 1.76039182008996 |  erot = 1.41286016407003 | epot = -11.5478749524839 | etot = -8.37462296832397
48000  ekin = 1.69856949274756 |  erot = 1.39838217522426 | epot = -11.4715746361766 | etot = -8.37462296820474
49000  ekin = 1.6359395498873 |  erot = 1.39228918140579 | epot = -11.4028516994048 | etot = -8.37462296811169
50000  ekin = 1.57351801537284 |  erot = 1.39530041169495 | epot = -11.3434413950981 | etot = -8.37462296803028
51000  ekin = 1.51222872476347 |  erot = 1.40810650340941 | epot = -11.2949581961199 | etot = -8.37462296794708
52000  ekin = 1.45305245526488 |  erot = 1.43140550730924 | epot = -11.2590809304256 | etot = -8.37462296785146
53000  ekin = 1.39716366086918 |  erot = 1.46589567493529 | epot = -11.2376823035411 | etot = -8.37462296773663
54000  ekin = 1.34602153837047 |  erot = 1.51222067984183 | epot = -11.2328651858297 | etot = -8.37462296761736
55000  ekin = 1.30138436197332 |  erot = 1.57077970891814 | epot = -11.2467870384005 | etot = -8.37462296750909
56000  ekin = 1.26522647192232 |  erot = 1.64151101613075 | epot = -11.2813604554938 | etot = -8.37462296744077
57000  ekin = 1.23956119808437 |  erot = 1.72363092633031 | epot = -11.337815091859 | etot = -8.37462296744431
58000  ekin = 1.22620283906725 |  erot = 1.81539828229235 | epot = -11.4162240889032 | etot = -8.3746229675436
59000  ekin = 1.22652758768648 |  erot = 1.91400381193546 | epot = -11.5151543673675 | etot = -8.37462296774558
60000  ekin = 1.24129579501613 |  erot = 2.01564970996742 | epot = -11.6315684730212 | etot = -8.37462296803768
61000  ekin = 1.27057003505312 |  erot = 2.11581304358673 | epot = -11.7610060470473 | etot = -8.37462296840743
62000  ekin = 1.31372115356085 |  erot = 2.20955642503253 | epot = -11.8979005473869 | etot = -8.37462296879357
63000  ekin = 1.36947667734256 |  erot = 2.29224896410242 | epot = -12.0363486106153 | etot = -8.37462296917035
64000  ekin = 1.43596184816363 |  erot = 2.35998108781816 | epot = -12.1705659055152 | etot = -8.37462296953339
65000  ekin = 1.5108757081497 |  erot = 2.40947275989103 | epot = -12.294971437873 | etot = -8.37462296983226
66000  ekin = 1.59162978656338 |  erot = 2.43872351537743 | epot = -12.404976271986 | etot = -8.37462297004522
67000  ekin = 1.67546349074575 |  erot = 2.4472618699926 | epot = -12.4973483309005 | etot = -8.37462297016214
68000  ekin = 1.75953613825208 |  erot = 2.43621057967599 | epot = -12.5703696881156 | etot = -8.37462297018751
69000  ekin = 1.84098201456571 |  erot = 2.40815676459644 | epot = -12.6237617493037 | etot = -8.37462297014158
70000  ekin = 1.91692810522256 |  erot = 2.36682660300834 | epot = -12.6583776782867 | etot = -8.37462297005584
71000  ekin = 1.98449380473026 |  erot = 2.31661131420489 | epot = -12.6757280888525 | etot = -8.37462296991739
72000  ekin = 2.04081287193495 |  erot = 2.26215174487671 | epot = -12.6775875867425 | etot = -8.37462296993079
73000  ekin = 2.08263291328341 |  erot = 2.2074336386418 | epot = -12.6646895218716 | etot = -8.37462296994644
74000  ekin = 2.10698584150829 |  erot = 2.15544421118361 | epot = -12.6370530226944 | etot = -8.37462297000245
75000  ekin = 2.11136525908711 |  erot = 2.10816940675056 | epot = -12.5941576359035 | etot = -8.37462297006578
76000  ekin = 2.09405873141393 |  erot = 2.06669472630755 | epot = -12.535376427811 | etot = -8.37462297008955
77000  ekin = 2.05455135347901 |  erot = 2.03147933575638 | epot = -12.4606536592623 | etot = -8.37462297002688
78000  ekin = 1.99386684227692 |  erot = 2.00268171013299 | epot = -12.3711715222582 | etot = -8.37462296984828
79000  ekin = 1.91474155283387 |  erot = 1.98040758803641 | epot = -12.2697721104227 | etot = -8.37462296955247
80000  ekin = 1.82155513477569 |  erot = 1.96479734780216 | epot = -12.1609754517455 | etot = -8.37462296916766
81000  ekin = 1.71999782481688 |  erot = 1.95595086125338 | epot = -12.0505716548134 | etot = -8.37462296874317
82000  ekin = 1.61651478139496 |  erot = 1.95375810375259 | epot = -11.9448958534856 | etot = -8.37462296833801
83000  ekin = 1.51761134750078 |  erot = 1.9577277486063 | epot = -11.8499620641159 | etot = -8.37462296800882
84000  ekin = 1.42912416355165 |  erot = 1.96688313409194 | epot = -11.7706302654422 | etot = -8.37462296779863
85000  ekin = 1.35556895555397 |  erot = 1.97976517498676 | epot = -11.7099570982742 | etot = -8.37462296773344
86000  ekin = 1.29966988136848 |  erot = 1.99452593271691 | epot = -11.6688187819009 | etot = -8.37462296781547
87000  ekin = 1.26213747948968 |  erot = 2.00910214170779 | epot = -11.6458625892978 | etot = -8.3746229681003
88000  ekin = 1.24134500163873 |  erot = 2.02122064243461 | epot = -11.6371886124846 | etot = -8.37462296841123
89000  ekin = 1.23421644947624 |  erot = 2.02900530500587 | epot = -11.6378447232196 | etot = -8.37462296873754
90000  ekin = 1.2369060424358 |  erot = 2.03136372571833 | epot = -11.6428927371716 | etot = -8.37462296901748
91000  ekin = 1.24531053049757 |  erot = 2.02816188261836 | epot = -11.6480953823213 | etot = -8.37462296920538
92000  ekin = 1.2556439422707 |  erot = 2.02032873397327 | epot = -11.6505956455254 | etot = -8.37462296928141
93000  ekin = 1.26484018817427 |  erot = 2.00975004471085 | epot = -11.6492132021398 | etot = -8.37462296925464
94000  ekin = 1.27076152680841 |  erot = 1.99896253062549 | epot = -11.6443470265804 | etot = -8.3746229691465
95000  ekin = 1.27224696211181 |  erot = 1.99076889271338 | epot = -11.6376388238184 | etot = -8.37462296899321
96000  ekin = 1.26905385172917 |  erot = 1.98776908505807 | epot = -11.6314459056163 | etot = -8.37462296882905
97000  ekin = 1.26173398384347 |  erot = 1.99196117307496 | epot = -11.628318125602 | etot = -8.37462296868355
98000  ekin = 1.25146122958142 |  erot = 2.00445279489013 | epot = -11.6305369930529 | etot = -8.37462296858135
99000  ekin = 1.23981039935408 |  erot = 2.02529911459885 | epot = -11.6397324824951 | etot = -8.37462296854214
100000  ekin = 1.22848889431686 |  erot = 2.05346079777955 | epot = -11.6565726606777 | etot = -8.37462296858124
101000  ekin = 1.21904296342426 |  erot = 2.08686922543178 | epot = -11.6805351575624 | etot = -8.37462296870635
102000  ekin = 1.21258708443142 |  erot = 2.12259257652707 | epot = -11.7098026298712 | etot = -8.37462296891269
103000  ekin = 1.20962138127609 |  erot = 2.15710417867589 | epot = -11.7413485291306 | etot = -8.37462296917863
104000  ekin = 1.20999435064749 |  erot = 2.18665201736524 | epot = -11.7712693374785 | etot = -8.37462296946577
105000  ekin = 1.21303379771948 |  erot = 2.20771017012375 | epot = -11.7953669375665 | etot = -8.37462296972326
106000  ekin = 1.21781939160539 |  erot = 2.21746426398198 | epot = -11.8099066254851 | etot = -8.37462296989777
107000  ekin = 1.22352668485511 |  erot = 2.21425769941191 | epot = -11.8124073542125 | etot = -8.37462296994543
108000  ekin = 1.22975371616707 |  erot = 2.19791821277296 | epot = -11.8022948987809 | etot = -8.37462296984092
109000  ekin = 1.23675326669538 |  erot = 2.16990174522961 | epot = -11.781277981508 | etot = -8.37462296958301
110000  ekin = 1.24552660594304 |  erot = 2.13322593016559 | epot = -11.7533755053021 | etot = -8.37462296919346
111000  ekin = 1.2577699492819 |  erot = 2.09220325002851 | epot = -11.7245961680235 | etot = -8.37462296871309
112000  ekin = 1.27568807280479 |  erot = 2.05200951342181 | epot = -11.7023205544238 | etot = -8.37462296819724
113000  ekin = 1.30169744977575 |  erot = 2.01813224570252 | epot = -11.6944526631898 | etot = -8.37462296771154
114000  ekin = 1.33804251858973 |  erot = 1.99574344242881 | epot = -11.7084089283454 | etot = -8.3746229673269
115000  ekin = 1.3864743192957 |  erot = 1.98903581447781 | epot = -11.750133100834 | etot = -8.37462296706049
116000  ekin = 1.44876446583433 |  erot = 2.00047074173032 | epot = -11.8238581746956 | etot = -8.37462296713092
117000  ekin = 1.52378581535601 |  erot = 2.03044339408209 | epot = -11.9288521768895 | etot = -8.37462296745144
118000  ekin = 1.60840594184234 |  erot = 2.07707436259026 | epot = -12.0601032724464 | etot = -8.3746229680138
119000  ekin = 1.69804077960537 |  erot = 2.13624566567642 | epot = -12.208909414054 | etot = -8.3746229687722
120000  ekin = 1.78696647862329 |  erot = 2.20199105617507 | epot = -12.3635805044452 | etot = -8.37462296964685
121000  ekin = 1.86883508536353 |  erot = 2.26718837407865 | epot = -12.5106464299777 | etot = -8.37462297053554
122000  ekin = 1.93731263285391 |  erot = 2.32446087034982 | epot = -12.6363964745349 | etot = -8.37462297133115
123000  ekin = 1.98673587945814 |  erot = 2.3671448998553 | epot = -12.7285037512518 | etot = -8.37462297193835
124000  ekin = 2.01268857483506 |  erot = 2.39015976226587 | epot = -12.77747130939 | etot = -8.37462297228912
125000  ekin = 2.01242153120634 |  erot = 2.3906292535681 | epot = -12.7776737571268 | etot = -8.37462297235236
126000  ekin = 1.98507290328086 |  erot = 2.36815351492882 | epot = -12.7278493903459 | etot = -8.37462297213621
127000  ekin = 1.93167931643415 |  erot = 2.32470375634614 | epot = -12.6310060444627 | etot = -8.37462297168245
128000  ekin = 1.85500076916878 |  erot = 2.26419178968044 | epot = -12.4938155299045 | etot = -8.37462297105528
129000  ekin = 1.75920795598134 |  erot = 2.19182812292603 | epot = -12.3256590492355 | etot = -8.37462297032817
130000  ekin = 1.6494941584018 |  erot = 2.11340935726337 | epot = -12.1375264852354 | etot = -8.37462296957026
131000  ekin = 1.5316714306691 |  erot = 2.03466319553995 | epot = -11.940957595048 | etot = -8.37462296883898
132000  ekin = 1.41179399813973 |  erot = 1.96073697301916 | epot = -11.747153939335 | etot = -8.37462296817611
133000  ekin = 1.29582771791038 |  erot = 1.89586175533292 | epot = -11.5663124408531 | etot = -8.37462296760982
134000  ekin = 1.18933366770483 |  erot = 1.84313053331003 | epot = -11.407087168276 | etot = -8.37462296726118
135000  ekin = 1.09698845763049 |  erot = 1.80418246558928 | epot = -11.27579389016 | etot = -8.37462296694027
136000  ekin = 1.0227090445408 |  erot = 1.77989195852182 | epot = -11.1772239698136 | etot = -8.37462296675101
137000  ekin = 0.969402888595114 |  erot = 1.77022137974227 | epot = -11.1142472350348 | etot = -8.3746229666974
138000  ekin = 0.938766242876417 |  erot = 1.77423425797178 | epot = -11.0876234676251 | etot = -8.37462296677689
139000  ekin = 0.931209536918657 |  erot = 1.79022284403554 | epot = -11.0960553479296 | etot = -8.37462296697544
140000  ekin = 0.945902360873822 |  erot = 1.81588277986714 | epot = -11.1364081080071 | etot = -8.37462296726611
141000  ekin = 0.980951010695237 |  erot = 1.84854552854019 | epot = -11.2041195068463 | etot = -8.37462296761087
142000  ekin = 1.03368854660442 |  erot = 1.88546172258912 | epot = -11.2937732371596 | etot = -8.37462296796605
143000  ekin = 1.10102464558818 |  erot = 1.92410215903288 | epot = -11.3997497729128 | etot = -8.37462296829172
144000  ekin = 1.17978371180494 |  erot = 1.96241851789353 | epot = -11.5168251982593 | etot = -8.37462296856084
145000  ekin = 1.26696389973302 |  erot = 1.99907135517284 | epot = -11.6406582236461 | etot = -8.37462296874025
146000  ekin = 1.35987698631762 |  erot = 2.03338468070444 | epot = -11.767884635915 | etot = -8.37462296889291
147000  ekin = 1.45616095203023 |  erot = 2.06502561999191 | epot = -11.8958095410392 | etot = -8.37462296901703
148000  ekin = 1.5536968549114 |  erot = 2.09388144715375 | epot = -12.0222012712078 | etot = -8.37462296914268
149000  ekin = 1.65047924324489 |  erot = 2.1197667162033 | epot = -12.1448689287442 | etot = -8.37462296929601
150000  ekin = 1.74448791629898 |  erot = 2.14217867903565 | epot = -12.2612895648267 | etot = -8.37462296949208
151000  ekin = 1.83359650490197 |  erot = 2.16016451670454 | epot = -12.3683839913411 | etot = -8.3746229697346
152000  ekin = 1.91553611044715 |  erot = 2.17231614291486 | epot = -12.4624752233745 | etot = -8.37462297001245
153000  ekin = 1.98791755611589 |  erot = 2.17689716712731 | epot = -12.5394376935492 | etot = -8.37462297030604
154000  ekin = 2.0483072299909 |  erot = 2.17205709329807 | epot = -12.5949872938792 | etot = -8.37462297059021
155000  ekin = 2.09434778140709 |  erot = 2.15608363214675 | epot = -12.6250543843915 | etot = -8.37462297083769
156000  ekin = 2.12391577783728 |  erot = 2.12765251039858 | epot = -12.6261912592573 | etot = -8.37462297102139
157000  ekin = 2.13531004697561 |  erot = 2.08604574913232 | epot = -12.5959787672234 | etot = -8.37462297111547
158000  ekin = 2.12746223168599 |  erot = 2.03132820631849 | epot = -12.5334134091002 | etot = -8.37462297109568
159000  ekin = 2.10015103339202 |  erot = 1.96448478928985 | epot = -12.4392587936245 | etot = -8.37462297094262
160000  ekin = 2.0541841606366 |  erot = 1.88751839461918 | epot = -12.3163255258996 | etot = -8.37462297064381
161000  ekin = 1.99149541371268 |  erot = 1.80350457154626 | epot = -12.1696229554605 | etot = -8.37462297020154
162000  ekin = 1.91510266104675 |  erot = 1.71656915682347 | epot = -12.0062947875074 | etot = -8.37462296963722
163000  ekin = 1.82889680262201 |  erot = 1.63175766791047 | epot = -11.8352774395234 | etot = -8.3746229689909
164000  ekin = 1.73727850175332 |  erot = 1.55477450557411 | epot = -11.6666759756462 | etot = -8.37462296831882
165000  ekin = 1.64470875439839 |  erot = 1.49159241029549 | epot = -11.5109241323761 | etot = -8.37462296768223
166000  ekin = 1.55526715399568 |  erot = 1.44796523954016 | epot = -11.3778553606751 | etot = -8.37462296713925
167000  ekin = 1.47230568197306 |  erot = 1.42890789301289 | epot = -11.2758365417201 | etot = -8.37462296673413
168000  ekin = 1.39825202215286 |  erot = 1.43822523216026 | epot = -11.2111002208049 | etot = -8.3746229664918
169000  ekin = 1.33457196190104 |  erot = 1.47816740254126 | epot = -11.1873623308593 | etot = -8.37462296641698
170000  ekin = 1.28186404086271 |  erot = 1.54925939136745 | epot = -11.2057463987274 | etot = -8.37462296649723
171000  ekin = 1.24010532837011 |  erot = 1.65031493319945 | epot = -11.2650432281453 | etot = -8.37462296657577
172000  ekin = 1.20973432363878 |  erot = 1.77850842430668 | epot = -11.362865714917 | etot = -8.37462296697156
173000  ekin = 1.18958106737811 |  erot = 1.9293947268165 | epot = -11.4935987616334 | etot = -8.37462296743879
174000  ekin = 1.17780375666777 |  erot = 2.09752621801777 | epot = -11.6499529426375 | etot = -8.37462296795192
175000  ekin = 1.17250284106912 |  erot = 2.27682305293096 | epot = -11.8239488624907 | etot = -8.37462296849064
176000  ekin = 1.17177313417491 |  erot = 2.46086230703702 | epot = -12.0072584102488 | etot = -8.37462296903687
177000  ekin = 1.17372471418875 |  erot = 2.64315812275379 | epot = -12.191505806514 | etot = -8.37462296957146
178000  ekin = 1.17649725816054 |  erot = 2.81745378599562 | epot = -12.3685740142275 | etot = -8.37462297007139
179000  ekin = 1.17828959842921 |  erot = 2.97803885665107 | epot = -12.5309514255904 | etot = -8.37462297051008
180000  ekin = 1.17741681900998 |  erot = 3.12008209304855 | epot = -12.6721218829184 | etot = -8.37462297085991
181000  ekin = 1.17239479280082 |  erot = 3.23994177497927 | epot = -12.7869595388779 | etot = -8.37462297109781
182000  ekin = 1.16204161674185 |  erot = 3.33528346670118 | epot = -12.8719480549261 | etot = -8.37462297148306
183000  ekin = 1.14544700201186 |  erot = 3.40346825728235 | epot = -12.9235382308529 | etot = -8.37462297155868
184000  ekin = 1.12187454429756 |  erot = 3.4438269073915 | epot = -12.9403244231946 | etot = -8.37462297150555
185000  ekin = 1.09113819766574 |  erot = 3.45752421108284 | epot = -12.9232853800834 | etot = -8.3746229713348
186000  ekin = 1.05375177637567 |  erot = 3.44681260248443 | epot = -12.8751873499234 | etot = -8.37462297106327
187000  ekin = 1.01100426926464 |  erot = 3.41470705189616 | epot = -12.800334291871 | etot = -8.37462297071016
188000  ekin = 0.964980950088649 |  erot = 3.36467106156785 | epot = -12.7042749819527 | etot = -8.37462297029619
189000  ekin = 0.918502012521078 |  erot = 3.30025095733196 | epot = -12.5933759397276 | etot = -8.3746229698746
190000  ekin = 0.874955375625722 |  erot = 3.22483721777127 | epot = -12.4744155628186 | etot = -8.37462296942164
191000  ekin = 0.838012694189963 |  erot = 3.14179385100163 | epot = -12.3544295141824 | etot = -8.37462296899082
192000  ekin = 0.811264586710992 |  erot = 3.05421641257329 | epot = -12.2401039678969 | etot = -8.37462296861265
193000  ekin = 0.797833231457456 |  erot = 2.96485918306279 | epot = -12.1373153828318 | etot = -8.37462296831155
194000  ekin = 0.800032366300627 |  erot = 2.87610608236578 | epot = -12.0507614167681 | etot = -8.37462296810165
195000  ekin = 0.819137512919833 |  erot = 2.78998115247748 | epot = -11.9837416333826 | etot = -8.37462296798529
196000  ekin = 0.855301818719356 |  erot = 2.70818765526146 | epot = -11.9381124419351 | etot = -8.37462296795424
197000  ekin = 0.907617485284665 |  erot = 2.63215574475441 | epot = -11.9143961980334 | etot = -8.37462296799427
198000  ekin = 0.974291517584257 |  erot = 2.56307623018399 | epot = -11.9119907158566 | etot = -8.37462296808839
199000  ekin = 1.05288651878767 |  erot = 2.50190471363121 | epot = -11.9294142006406 | etot = -8.37462296822169
200000  ekin = 1.14057530731218 |  erot = 2.44933274089538 | epot = -11.9645310165904 | etot = -8.37462296838287
201000  ekin = 1.23436945655772 |  erot = 2.40573577404698 | epot = -12.0147281991691 | etot = -8.37462296856442
202000  ekin = 1.33129982084466 |  erot = 2.37111655194155 | epot = -12.0770393415472 | etot = -8.37462296876096
203000  ekin = 1.42854451444427 |  erot = 2.34506402190567 | epot = -12.1482315053186 | etot = -8.37462296896862
204000  ekin = 1.52351160571853 |  erot = 2.32674290434264 | epot = -12.2248774792437 | etot = -8.37462296918254
205000  ekin = 1.61388837060062 |  erot = 2.31491995505471 | epot = -12.3034312950525 | etot = -8.37462296939715
206000  ekin = 1.6976677526079 |  erot = 2.30802500400466 | epot = -12.3803157262185 | etot = -8.37462296960589
207000  ekin = 1.7731587468784 |  erot = 2.30423562983894 | epot = -12.4520173465218 | etot = -8.37462296980448
208000  ekin = 1.83898325555922 |  erot = 2.30156289475855 | epot = -12.5151691203036 | etot = -8.37462296998581
209000  ekin = 1.8940606525466 |  erot = 2.29797193080362 | epot = -12.5666555534955 | etot = -8.37462297014531
210000  ekin = 1.93758171355956 |  erot = 2.29149245614553 | epot = -12.6036971399837 | etot = -8.37462297027863
211000  ekin = 1.96897499678811 |  erot = 2.28032999988876 | epot = -12.6239279670587 | etot = -8.37462297038181
212000  ekin = 1.98787057423958 |  erot = 2.26297816329946 | epot = -12.6254717079902 | etot = -8.37462297045112
213000  ekin = 1.9940661531065 |  erot = 2.23834847729537 | epot = -12.6070376008835 | etot = -8.37462297048167
214000  ekin = 1.98749971048334 |  erot = 2.20579329600804 | epot = -12.5679159769729 | etot = -8.37462297048154
215000  ekin = 1.96823269345713 |  erot = 2.16512069835555 | epot = -12.50797636226 | etot = -8.37462297044735
216000  ekin = 1.93645036858781 |  erot = 2.11663233289542 | epot = -12.4277056718665 | etot = -8.37462297038329
217000  ekin = 1.89249565101126 |  erot = 2.06105227365498 | epot = -12.3281708949562 | etot = -8.37462297028998
218000  ekin = 1.83696296100957 |  erot = 1.99944931813304 | epot = -12.2110352493002 | etot = -8.37462297015758
219000  ekin = 1.77087997199992 |  erot = 1.93321768349696 | epot = -12.0787206254576 | etot = -8.37462296996071
220000  ekin = 1.69598414200819 |  erot = 1.86416918368551 | epot = -11.9347762953548 | etot = -8.37462296966108
221000  ekin = 1.61504938765088 |  erot = 1.79472971030197 | epot = -11.7844020671754 | etot = -8.37462296922251
222000  ekin = 1.53214607791996 |  erot = 1.72813764736931 | epot = -11.6349066939255 | etot = -8.3746229686362
223000  ekin = 1.45266240883145 |  erot = 1.66846349300071 | epot = -11.4957488697764 | etot = -8.37462296794429
224000  ekin = 1.38293292450132 |  erot = 1.62027927221214 | epot = -11.3778351639601 | etot = -8.37462296724662
225000  ekin = 1.32944348952763 |  erot = 1.58793473617097 | epot = -11.2920011923816 | etot = -8.37462296668304
226000  ekin = 1.29777350141001 |  erot = 1.57457480049465 | epot = -11.2469712682749 | etot = -8.37462296637022
227000  ekin = 1.2915871154549 |  erot = 1.58136206120083 | epot = -11.2475721430407 | etot = -8.37462296638494
228000  ekin = 1.3119916055049 |  erot = 1.60705168356014 | epot = -11.2936662557524 | etot = -8.37462296668736
229000  ekin = 1.35720775781584 |  erot = 1.6487242796873 | epot = -11.3805550048115 | etot = -8.37462296730835
230000  ekin = 1.42320705813345 |  erot = 1.70117239435449 | epot = -11.4990024205433 | etot = -8.37462296805538
231000  ekin = 1.50467169677602 |  erot = 1.75808746579058 | epot = -11.6373821313703 | etot = -8.37462296880375
232000  ekin = 1.59576180204816 |  erot = 1.81345446216761 | epot = -11.7838392336753 | etot = -8.37462296945955
233000  ekin = 1.69077156764805 |  erot = 1.8623377060858 | epot = -11.9277322437063 | etot = -8.37462296997249
234000  ekin = 1.78453671679948 |  erot = 1.90129507954632 | epot = -12.0604547666799 | etot = -8.37462297033413
235000  ekin = 1.87261122259015 |  erot = 1.92842207171143 | epot = -12.1756562648651 | etot = -8.37462297056357
236000  ekin = 1.95129507586097 |  erot = 1.94312673772433 | epot = -12.2690447842764 | etot = -8.37462297069106
237000  ekin = 2.01688127570934 |  erot = 1.945878385496 | epot = -12.3373826321098 | etot = -8.37462297090445
238000  ekin = 2.06554471096668 |  erot = 1.93754713481341 | epot = -12.3777148167617 | etot = -8.37462297098157
239000  ekin = 2.09498833917127 |  erot = 1.91896908743888 | epot = -12.388580397607 | etot = -8.37462297099681
240000  ekin = 2.10387887335875 |  erot = 1.8911406789343 | epot = -12.3696425232258 | etot = -8.3746229709327
241000  ekin = 2.09205058134753 |  erot = 1.85524232773675 | epot = -12.3219158798526 | etot = -8.37462297076831
242000  ekin = 2.06070692356709 |  erot = 1.81270484104086 | epot = -12.2480347350935 | etot = -8.37462297048556
243000  ekin = 2.01255526288362 |  erot = 1.76529169809244 | epot = -12.152469931059 | etot = -8.37462297008292
244000  ekin = 1.95178746173521 |  erot = 1.71512317980711 | epot = -12.0415336111134 | etot = -8.37462296957109
245000  ekin = 1.88387514784669 |  erot = 1.66462101119846 | epot = -11.9231191280349 | etot = -8.37462296898979
246000  ekin = 1.81512558267746 |  erot = 1.61637080971478 | epot = -11.8061193607923 | etot = -8.37462296840006
247000  ekin = 1.75197548737566 |  erot = 1.5728912903863 | epot = -11.6994897456374 | etot = -8.37462296787547
248000  ekin = 1.70016015194902 |  erot = 1.5363664174364 | epot = -11.6111495368736 | etot = -8.37462296748817
249000  ekin = 1.66404391454297 |  erot = 1.50839677555172 | epot = -11.5470636572543 | etot = -8.3746229671596
250000  ekin = 1.64635032469229 |  erot = 1.48977166427928 | epot = -11.5107449561774 | etot = -8.37462296720584
251000  ekin = 1.64670868822414 |  erot = 1.48021150770257 | epot = -11.5015431633557 | etot = -8.37462296742897
252000  ekin = 1.66264181464383 |  erot = 1.47871062656297 | epot = -11.5159754089801 | etot = -8.37462296777332
253000  ekin = 1.69027564040396 |  erot = 1.48380069510011 | epot = -11.5486993036766 | etot = -8.37462296817249
254000  ekin = 1.72505301291723 |  erot = 1.49382397147224 | epot = -11.593499952956 | etot = -8.37462296856652
255000  ekin = 1.76239471231517 |  erot = 1.50720813838028 | epot = -11.6442258196118 | etot = -8.37462296891633
256000  ekin = 1.79816893498569 |  erot = 1.52259254469775 | epot = -11.6953844488861 | etot = -8.37462296920265
257000  ekin = 1.82895095239692 |  erot = 1.53887801863897 | epot = -11.7424519404559 | etot = -8.37462296941997
258000  ekin = 1.85212386739561 |  erot = 1.55528591409788 | epot = -11.7820327510626 | etot = -8.37462296956908
259000  ekin = 1.86588413888215 |  erot = 1.57137656836564 | epot = -11.8118836768993 | etot = -8.37462296965154
260000  ekin = 1.86922537289867 |  erot = 1.58707491263398 | epot = -11.8309232551859 | etot = -8.37462296965327
261000  ekin = 1.86194745777955 |  erot = 1.60277606186355 | epot = -11.8393464893234 | etot = -8.3746229696803
262000  ekin = 1.84441202421295 |  erot = 1.61874454524355 | epot = -11.8377795390081 | etot = -8.37462296955161
263000  ekin = 1.81775632997606 |  erot = 1.63584439963916 | epot = -11.8282236989399 | etot = -8.37462296932469
264000  ekin = 1.78414336143448 |  erot = 1.65581672859407 | epot = -11.8145830590343 | etot = -8.37462296900574
265000  ekin = 1.74659811333657 |  erot = 1.68088156362787 | epot = -11.8021026455966 | etot = -8.37462296863215
266000  ekin = 1.70875551588584 |  erot = 1.71332387538078 | epot = -11.7967023595414 | etot = -8.37462296827477
267000  ekin = 1.67443624978574 |  erot = 1.7550108928448 | epot = -11.8040701106191 | etot = -8.37462296798853
268000  ekin = 1.64712713207523 |  erot = 1.80695733277667 | epot = -11.8287074326935 | etot = -8.37462296784159
269000  ekin = 1.62949021142684 |  erot = 1.8688326756718 | epot = -11.8729458549715 | etot = -8.37462296787285
270000  ekin = 1.62285159922472 |  erot = 1.93872810894281 | epot = -11.9362026762891 | etot = -8.37462296812156
271000  ekin = 1.6268863104375 |  erot = 2.01317767222039 | epot = -12.0146869512063 | etot = -8.37462296854845
272000  ekin = 1.63981668010415 |  erot = 2.08746423747643 | epot = -12.1019038866665 | etot = -8.37462296908593
273000  ekin = 1.65880091169022 |  erot = 2.15626799363764 | epot = -12.1896918749698 | etot = -8.37462296964197
274000  ekin = 1.68050753849913 |  erot = 2.2144872213087 | epot = -12.2696177299304 | etot = -8.37462297012254
275000  ekin = 1.70172643739792 |  erot = 2.25805265702192 | epot = -12.3344020648724 | etot = -8.37462297045251
276000  ekin = 1.71987527696161 |  erot = 2.28456562448906 | epot = -12.3790638720395 | etot = -8.37462297058887
277000  ekin = 1.73331269261593 |  erot = 2.29364905663789 | epot = -12.4015847197774 | etot = -8.37462297052361
278000  ekin = 1.74143735013745 |  erot = 2.28698125838894 | epot = -12.4030415787994 | etot = -8.37462297027302
279000  ekin = 1.74460802870594 |  erot = 2.26806682992263 | epot = -12.3872978285229 | etot = -8.37462296989437
280000  ekin = 1.74394008412444 |  erot = 2.24171314051926 | epot = -12.3602761940829 | etot = -8.37462296943918
281000  ekin = 1.74088698058183 |  erot = 2.21312908436282 | epot = -12.3286390340534 | etot = -8.37462296910875
282000  ekin = 1.7366965645871 |  erot = 2.18704204449556 | epot = -12.2983615778781 | etot = -8.37462296879543
283000  ekin = 1.732290073716 |  erot = 2.16744679622838 | epot = -12.2743598385787 | etot = -8.37462296863431
284000  ekin = 1.72792109204538 |  erot = 2.15675164213738 | epot = -12.2592957028517 | etot = -8.3746229686689
285000  ekin = 1.72297480902862 |  erot = 2.15537559427286 | epot = -12.2529733722001 | etot = -8.37462296889862
286000  ekin = 1.71598432453039 |  erot = 2.16179000838375 | epot = -12.2523973021716 | etot = -8.37462296925743
287000  ekin = 1.70498524220327 |  erot = 2.17315503013707 | epot = -12.2527632419523 | etot = -8.37462296961193
288000  ekin = 1.68823578051942 |  erot = 2.18649203663142 | epot = -12.2493507869533 | etot = -8.37462296980243
289000  ekin = 1.66510970376211 |  erot = 2.19999055777926 | epot = -12.2397232312615 | etot = -8.37462296972011
290000  ekin = 1.63674302037987 |  erot = 2.21381252699345 | epot = -12.2251785167484 | etot = -8.37462296937506
291000  ekin = 1.60601874197424 |  erot = 2.22992661048329 | epot = -12.2105683213541 | etot = -8.37462296889661
292000  ekin = 1.57682389343777 |  erot = 2.25107800691089 | epot = -12.2025248687821 | etot = -8.37462296843347
293000  ekin = 1.55301992418707 |  erot = 2.27950943304611 | epot = -12.2071523254135 | etot = -8.37462296818029
294000  ekin = 1.53731454048196 |  erot = 2.31583078837889 | epot = -12.2277682970271 | etot = -8.37462296816629
295000  ekin = 1.53083265562523 |  erot = 2.35873605655292 | epot = -12.2641916805469 | etot = -8.37462296836872
296000  ekin = 1.53318706455254 |  erot = 2.4052808467906 | epot = -12.3130908800621 | etot = -8.37462296871895
297000  ekin = 1.54281493583631 |  erot = 2.45151931863468 | epot = -12.3689572236285 | etot = -8.37462296915754
298000  ekin = 1.55733608765133 |  erot = 2.49306411731949 | epot = -12.4250231746883 | etot = -8.37462296971744
299000  ekin = 1.57407386288266 |  erot = 2.52498633848769 | epot = -12.473683171534 | etot = -8.37462297016362
300000  ekin = 1.59001535760027 |  erot = 2.54349315182865 | epot = -12.5081314800016 | etot = -8.37462297057271
301000  ekin = 1.60189886822636 |  erot = 2.54585083166192 | epot = -12.5223726708137 | etot = -8.3746229709254
302000  ekin = 1.60620251585623 |  erot = 2.53039812867646 | epot = -12.5112236158409 | etot = -8.37462297130826
303000  ekin = 1.59914065240599 |  erot = 2.49598280993792 | epot = -12.4697464340452 | etot = -8.37462297170129
304000  ekin = 1.57679795693766 |  erot = 2.44177332378527 | epot = -12.3931942527977 | etot = -8.37462297207482
305000  ekin = 1.53574304374055 |  erot = 2.36761905414217 | epot = -12.2779850699661 | etot = -8.37462297208338
306000  ekin = 1.4739286655962 |  erot = 2.27453104047924 | epot = -12.1230826782583 | etot = -8.37462297218286
307000  ekin = 1.39050823398577 |  erot = 2.16376504506915 | epot = -11.9288962509201 | etot = -8.37462297186516
308000  ekin = 1.28961522980587 |  erot = 2.039776672584 | epot = -11.7040148706632 | etot = -8.37462296827334
309000  ekin = 1.0578293749372 |  erot = 1.83361716570652 | epot = -11.2660695010506 | etot = -8.37462296040685
310000  ekin = 1.14450415449021 |  erot = 1.58483272602451 | epot = -11.103959838692 | etot = -8.37462295817728
311000  ekin = 1.41922601312504 |  erot = 1.45460499880731 | epot = -11.2484540448428 | etot = -8.37462303291044
312000  ekin = 1.45261330232178 |  erot = 1.37611906651658 | epot = -11.2033554015526 | etot = -8.37462303271421
313000  ekin = 1.47884377174098 |  erot = 1.31854286229477 | epot = -11.1720096664216 | etot = -8.37462303238585
314000  ekin = 1.49756299811574 |  erot = 1.28320357876905 | epot = -11.1553896088949 | etot = -8.37462303201008
315000  ekin = 1.51332559187953 |  erot = 1.27043025389329 | epot = -11.1583788774965 | etot = -8.37462303172366
316000  ekin = 1.53080061117969 |  erot = 1.27925593275756 | epot = -11.1846795755424 | etot = -8.37462303160514
317000  ekin = 1.55378721590823 |  erot = 1.30719554367504 | epot = -11.2356057912733 | etot = -8.37462303169002
318000  ekin = 1.58370434541029 |  erot = 1.34913652060387 | epot = -11.3074638985376 | etot = -8.37462303252346
319000  ekin = 1.61943484148203 |  erot = 1.39801478359231 | epot = -11.3920726581924 | etot = -8.37462303311802
320000  ekin = 1.65864783760474 |  erot = 1.44696670459029 | epot = -11.4802375759965 | etot = -8.37462303380145
321000  ekin = 1.69766983847289 |  erot = 1.48920524279011 | epot = -11.561498115728 | etot = -8.37462303446499
322000  ekin = 1.73222385846008 |  erot = 1.51888544570663 | epot = -11.6257323391488 | etot = -8.37462303498212
323000  ekin = 1.75834700852284 |  erot = 1.53202956630737 | epot = -11.6649996100693 | etot = -8.37462303523908
324000  ekin = 1.7732465004629 |  erot = 1.5273259702946 | epot = -11.6751955059262 | etot = -8.37462303516874
325000  ekin = 1.77583924216924 |  erot = 1.50655389358375 | epot = -11.6570161705538 | etot = -8.37462303480081
326000  ekin = 1.76682929376817 |  erot = 1.47436928283839 | epot = -11.6158216107554 | etot = -8.37462303414888
327000  ekin = 1.74834602231073 |  erot = 1.4379436720269 | epot = -11.5609127276988 | etot = -8.37462303336115
328000  ekin = 1.72331109821176 |  erot = 1.40578615079664 | epot = -11.5037202815769 | etot = -8.37462303256846
329000  ekin = 1.69488797673317 |  erot = 1.3863558002332 | epot = -11.4558668088442 | etot = -8.37462303187786
330000  ekin = 1.66566513334694 |  erot = 1.38702252391914 | epot = -11.4273106886493 | etot = -8.37462303138319
331000  ekin = 1.6373218516614 |  erot = 1.41331220646666 | epot = -11.4252570892349 | etot = -8.37462303110686
332000  ekin = 1.61073968003952 |  erot = 1.46826665363511 | epot = -11.453629364732 | etot = -8.37462303105739
333000  ekin = 1.5860523210645 |  erot = 1.55220559043164 | epot = -11.5128809427305 | etot = -8.37462303123435
334000  ekin = 1.56284415922285 |  erot = 1.66255678080492 | epot = -11.600023971619 | etot = -8.37462303159123
335000  ekin = 1.54014240613776 |  erot = 1.79443783502794 | epot = -11.7092032732475 | etot = -8.37462303208181
336000  ekin = 1.5167045521657 |  erot = 1.94117931563298 | epot = -11.8325069004484 | etot = -8.3746230326497
337000  ekin = 1.49128277555494 |  erot = 2.09492414345281 | epot = -11.9608299522434 | etot = -8.37462303323563
338000  ekin = 1.46282625482992 |  erot = 2.24735936520941 | epot = -12.0848086538231 | etot = -8.37462303378375
339000  ekin = 1.43063896798261 |  erot = 2.39044100153422 | epot = -12.1957030037649 | etot = -8.37462303424805
340000  ekin = 1.39448012483982 |  erot = 2.51702660359006 | epot = -12.2861297630263 | etot = -8.3746230345964
341000  ekin = 1.35460313822206 |  erot = 2.6213528403744 | epot = -12.3505790134087 | etot = -8.37462303481223
342000  ekin = 1.31173936863004 |  erot = 2.69933546749698 | epot = -12.385697871018 | etot = -8.37462303489103
343000  ekin = 1.26704159860198 |  erot = 2.74871044551737 | epot = -12.390375078956 | etot = -8.37462303483662
344000  ekin = 1.22200654509472 |  erot = 2.76906107654549 | epot = -12.3656906562962 | etot = -8.37462303465604
345000  ekin = 1.17839357225688 |  erot = 2.7617768946551 | epot = -12.3147935012699 | etot = -8.37462303435793
346000  ekin = 1.13814730560306 |  erot = 2.72996678569835 | epot = -12.2427371252557 | etot = -8.37462303395427
347000  ekin = 1.10331757839143 |  erot = 2.67831421953948 | epot = -12.1562548313949 | etot = -8.374623033464
348000  ekin = 1.07595787263669 |  erot = 2.61283600667651 | epot = -12.0634169122313 | etot = -8.37462303291812
349000  ekin = 1.05798147191732 |  erot = 2.54050407789418 | epot = -11.9731085821733 | etot = -8.37462303236178
350000  ekin = 1.05096760963779 |  erot = 2.46871550808003 | epot = -11.8943061495696 | etot = -8.37462303185175
351000  ekin = 1.055934374293 |  erot = 2.40463774698031 | epot = -11.8351951527218 | etot = -8.37462303144848
352000  ekin = 1.07311971186474 |  erot = 2.35449555191691 | epot = -11.802238294989 | etot = -8.37462303120734
353000  ekin = 1.10182415540774 |  erot = 2.32288867128237 | epot = -11.7993358578587 | etot = -8.37462303116861
354000  ekin = 1.14036300464639 |  erot = 2.31223409502398 | epot = -11.8272201310208 | etot = -8.37462303135046
355000  ekin = 1.18615564007818 |  erot = 2.32242185962034 | epot = -11.8832005314415 | etot = -8.37462303174298
356000  ekin = 1.23595386569849 |  erot = 2.35076326964225 | epot = -11.9613401676472 | etot = -8.37462303230647
357000  ekin = 1.28618457758612 |  erot = 2.39228504524977 | epot = -12.0530926558097 | etot = -8.37462303297378
358000  ekin = 1.33335672484009 |  erot = 2.44036693764229 | epot = -12.1483466961434 | etot = -8.37462303366097
359000  ekin = 1.3744661142348 |  erot = 2.48763760748978 | epot = -12.2367267560058 | etot = -8.37462303428119
360000  ekin = 1.40733698540061 |  erot = 2.52696891747122 | epot = -12.3089289376309 | etot = -8.37462303475905
361000  ekin = 1.4308523011706 |  erot = 2.55266032656765 | epot = -12.35813566267 | etot = -8.37462303493178
362000  ekin = 1.4449802341948 |  erot = 2.56161192448427 | epot = -12.3812151936927 | etot = -8.37462303501366
363000  ekin = 1.45080808015421 |  erot = 2.55177253019042 | epot = -12.3772036452516 | etot = -8.37462303490699
364000  ekin = 1.45046982069901 |  erot = 2.52283864584328 | epot = -12.3479315011827 | etot = -8.37462303464038
365000  ekin = 1.44693366151984 |  erot = 2.47609933176712 | epot = -12.2976560275503 | etot = -8.3746230342633
366000  ekin = 1.44366094468002 |  erot = 2.41401126337658 | epot = -12.2322952418937 | etot = -8.37462303383704
367000  ekin = 1.44416618229162 |  erot = 2.33969773429716 | epot = -12.1584869500125 | etot = -8.37462303342374
368000  ekin = 1.45154164412073 |  erot = 2.25648465085064 | epot = -12.0826493280453 | etot = -8.37462303307398
369000  ekin = 1.46802482611055 |  erot = 2.16757470029821 | epot = -12.010222559226 | etot = -8.37462303281721
370000  ekin = 1.49468484157952 |  erot = 2.07591739973062 | epot = -11.9452252739688 | etot = -8.37462303265869
371000  ekin = 1.53128479294091 |  erot = 1.98426522628829 | epot = -11.8901730518129 | etot = -8.37462303258368
372000  ekin = 1.57634160155613 |  erot = 1.8953362606454 | epot = -11.8463008947685 | etot = -8.374623032567
373000  ekin = 1.62736107596715 |  erot = 1.81196417168806 | epot = -11.8139482802385 | etot = -8.37462303258332
374000  ekin = 1.68119274504245 |  erot = 1.73713269144088 | epot = -11.7929484690968 | etot = -8.37462303261351
375000  ekin = 1.73444043052933 |  erot = 1.67385884334656 | epot = -11.7829223065195 | etot = -8.37462303264361
376000  ekin = 1.78387586144014 |  erot = 1.62497473906331 | epot = -11.7834736331733 | etot = -8.37462303266983
377000  ekin = 1.82648186091977 |  erot = 1.59275354369161 | epot = -11.7938584374902 | etot = -8.37462303287884
378000  ekin = 1.85889028460836 |  erot = 1.57838589666623 | epot = -11.8118992141858 | etot = -8.37462303291125
379000  ekin = 1.87974734421412 |  erot = 1.58231910072821 | epot = -11.8366894778907 | etot = -8.37462303294839
380000  ekin = 1.88876618247971 |  erot = 1.6039785204282 | epot = -11.8673677359262 | etot = -8.37462303301827
381000  ekin = 1.88634387025615 |  erot = 1.6416225350766 | epot = -11.9025894384717 | etot = -8.37462303313899
382000  ekin = 1.87329602399987 |  erot = 1.69239968364314 | epot = -11.9403187409513 | etot = -8.37462303330827
383000  ekin = 1.8506776691208 |  erot = 1.75260724973969 | epot = -11.9779079523648 | etot = -8.37462303350427
384000  ekin = 1.81972884480745 |  erot = 1.81808771261031 | epot = -12.0124395911113 | etot = -8.37462303369356
385000  ekin = 1.78192764776998 |  erot = 1.88463133786728 | epot = -12.0411820195034 | etot = -8.37462303386617
386000  ekin = 1.7389611730154 |  erot = 1.94830024178168 | epot = -12.0618844487816 | etot = -8.37462303398448
387000  ekin = 1.6926170395659 |  erot = 2.00550933075364 | epot = -12.0727494044579 | etot = -8.37462303413835
388000  ekin = 1.64442362564975 |  erot = 2.05290262288172 | epot = -12.0719492828229 | etot = -8.3746230342914
389000  ekin = 1.59562809726233 |  erot = 2.08769097010103 | epot = -12.0579421017188 | etot = -8.37462303435545
390000  ekin = 1.54727258078712 |  erot = 2.10804034821868 | epot = -12.0299359634134 | etot = -8.37462303440755
391000  ekin = 1.5004266868918 |  erot = 2.11301685840078 | epot = -11.988066579574 | etot = -8.37462303428138
392000  ekin = 1.45669956782597 |  erot = 2.10352612083869 | epot = -11.934848722603 | etot = -8.37462303393835
393000  ekin = 1.41857599109012 |  erot = 2.08263213471398 | epot = -11.875831159199 | etot = -8.37462303339486
394000  ekin = 1.38932612627839 |  erot = 2.05528425943482 | epot = -11.8192334184618 | etot = -8.37462303274861
395000  ekin = 1.37246101478421 |  erot = 2.02739319427239 | epot = -11.7744772412156 | etot = -8.37462303215901
396000  ekin = 1.37078907987896 |  erot = 2.00445159240664 | epot = -11.7498637040825 | etot = -8.37462303179685
397000  ekin = 1.38538853999943 |  erot = 1.99011302537625 | epot = -11.7501245971575 | etot = -8.37462303178181
398000  ekin = 1.41490531161701 |  erot = 1.98519641778399 | epot = -11.7747247615396 | etot = -8.37462303213862
399000  ekin = 1.45547085036343 |  erot = 1.98743025594767 | epot = -11.8175241391056 | etot = -8.37462303279446
400000  ekin = 1.50126526406662 |  erot = 1.99196444869315 | epot = -11.8678527463724 | etot = -8.3746230336126
401000  ekin = 1.54549713891549 |  erot = 1.99242148352443 | epot = -11.9125416568768 | etot = -8.37462303443686
402000  ekin = 1.58148802753449 |  erot = 1.98217540610574 | epot = -11.9382864687617 | etot = -8.37462303512152
403000  ekin = 1.60364407572846 |  erot = 1.95563446459428 | epot = -11.9339015758638 | etot = -8.37462303554105
404000  ekin = 1.60823718231449 |  erot = 1.90940860688998 | epot = -11.8922688248045 | etot = -8.37462303560003
405000  ekin = 1.59393186875414 |  erot = 1.84321418438518 | epot = -11.8117690883971 | etot = -8.37462303525783
406000  ekin = 1.56197926550461 |  erot = 1.76026394072057 | epot = -11.6968662407814 | etot = -8.37462303455625
407000  ekin = 1.51595319782289 |  erot = 1.66689496115233 | epot = -11.5574711925961 | etot = -8.37462303362087
408000  ekin = 1.46103089399041 |  erot = 1.57144700034374 | epot = -11.4071009269552 | etot = -8.374623032621
409000  ekin = 1.40302353808214 |  erot = 1.48274963105006 | epot = -11.2603962008454 | etot = -8.37462303171318
410000  ekin = 1.34747963365306 |  erot = 1.40871679572282 | epot = -11.1308194603671 | etot = -8.37462303099118
411000  ekin = 1.2414284292792 |  erot = 1.36765891027364 | epot = -10.9837103545922 | etot = -8.37462301503931
412000  ekin = 1.07606206466598 |  erot = 1.44463891804017 | epot = -10.8953239884252 | etot = -8.37462300571905
413000  ekin = 1.04694922469639 |  erot = 1.51102600613188 | epot = -10.9325982588149 | etot = -8.37462302798667
414000  ekin = 1.03606467090392 |  erot = 1.52895884328666 | epot = -10.9396465423142 | etot = -8.37462302812358
415000  ekin = 1.03698178422018 |  erot = 1.56970634086054 | epot = -10.9813111534884 | etot = -8.3746230284077
416000  ekin = 1.0484279442172 |  erot = 1.63005774223143 | epot = -11.0531087152573 | etot = -8.37462302880862
417000  ekin = 1.06841333535673 |  erot = 1.70571770479095 | epot = -11.1487540694421 | etot = -8.37462302929443
418000  ekin = 1.09444701005109 |  erot = 1.79158405306266 | epot = -11.2606540929522 | etot = -8.37462302983849
419000  ekin = 1.12371544113075 |  erot = 1.88200392342424 | epot = -11.3803423949712 | etot = -8.37462303041625
420000  ekin = 1.15322596863741 |  erot = 1.97103956947901 | epot = -11.4988885691128 | etot = -8.37462303099641
421000  ekin = 1.17996638670221 |  erot = 2.05281125535604 | epot = -11.6074006735892 | etot = -8.37462303153091
422000  ekin = 1.20115062981133 |  erot = 2.12197272517915 | epot = -11.6977463869443 | etot = -8.37462303195381
423000  ekin = 1.21456879342739 |  erot = 2.17429924607165 | epot = -11.7634910716972 | etot = -8.37462303219813
424000  ekin = 1.21895541018794 |  erot = 2.20725430505418 | epot = -11.8008327474652 | etot = -8.37462303222309
425000  ekin = 1.21420953470736 |  erot = 2.22030001430874 | epot = -11.8091325810583 | etot = -8.37462303204219
426000  ekin = 1.20134505265812 |  erot = 2.214761428149 | epot = -11.7907295125141 | etot = -8.37462303170695
427000  ekin = 1.18219319315412 |  erot = 2.19340434236676 | epot = -11.7502205668115 | etot = -8.37462303129061
428000  ekin = 1.15899921940922 |  erot = 2.15981652249817 | epot = -11.6934387727657 | etot = -8.37462303085828
429000  ekin = 1.13415683500802 |  erot = 2.11790831243066 | epot = -11.6266881762556 | etot = -8.37462302881691
430000  ekin = 1.11403963820971 |  erot = 2.07460238347228 | epot = -11.5632650504428 | etot = -8.37462302876084
431000  ekin = 1.10124843427953 |  erot = 2.03325324116064 | epot = -11.5091247042084 | etot = -8.37462302876824
432000  ekin = 1.09509673682051 |  erot = 1.99414694703558 | epot = -11.4638667126925 | etot = -8.37462302883644
433000  ekin = 1.09463609314624 |  erot = 1.95711348582247 | epot = -11.4263726079127 | etot = -8.37462302894401
434000  ekin = 1.0980947201295 |  erot = 1.9211128356985 | epot = -11.3938305852091 | etot = -8.37462302938109
435000  ekin = 1.10341624338792 |  erot = 1.88492142830318 | epot = -11.3629607010968 | etot = -8.37462302940571
436000  ekin = 1.11020757162805 |  erot = 1.84854231975901 | epot = -11.3333729208369 | etot = -8.37462302944983
437000  ekin = 1.11803889537731 |  erot = 1.81186902511195 | epot = -11.3045309499979 | etot = -8.37462302950868
438000  ekin = 1.12642172160223 |  erot = 1.77470718111897 | epot = -11.2757519322953 | etot = -8.37462302957406
439000  ekin = 1.13485148153866 |  erot = 1.73686282079482 | epot = -11.2463373319672 | etot = -8.37462302963374
440000  ekin = 1.14287335820563 |  erot = 1.69826079507224 | epot = -11.2157571829505 | etot = -8.37462302967267
441000  ekin = 1.15016795453003 |  erot = 1.65908318343061 | epot = -11.1838741676311 | etot = -8.37462302967045
442000  ekin = 1.15664284201482 |  erot = 1.61992313518266 | epot = -11.1511890068216 | etot = -8.37462302962409
443000  ekin = 1.16253418069013 |  erot = 1.58179210099529 | epot = -11.1189493112082 | etot = -8.37462302952279
444000  ekin = 1.16846798531266 |  erot = 1.5461446661337 | epot = -11.0892356808159 | etot = -8.37462302936959
445000  ekin = 1.17546820346624 |  erot = 1.51479732961039 | epot = -11.0648885622563 | etot = -8.37462302917964
446000  ekin = 1.18488743024694 |  erot = 1.4897380208828 | epot = -11.0492484801105 | etot = -8.37462302898081
447000  ekin = 1.19824347153649 |  erot = 1.47284289980585 | epot = -11.0457094001527 | etot = -8.37462302881034
448000  ekin = 1.21696535091566 |  erot = 1.4655476599557 | epot = -11.0571360395825 | etot = -8.37462302871109
449000  ekin = 1.24207954598559 |  erot = 1.46851271093831 | epot = -11.0852152856444 | etot = -8.37462302872051
450000  ekin = 1.27389445230352 |  erot = 1.48136016742263 | epot = -11.129877648597 | etot = -8.37462302887088
451000  ekin = 1.31179903842807 |  erot = 1.50255470267712 | epot = -11.1889767701161 | etot = -8.37462302901093
452000  ekin = 1.35460859520386 |  erot = 1.52989164327156 | epot = -11.2591232679085 | etot = -8.37462302943311
453000  ekin = 1.39989469250065 |  erot = 1.55983588432741 | epot = -11.3343536067678 | etot = -8.37462302993971
454000  ekin = 1.4443795754955 |  erot = 1.58822152329946 | epot = -11.4072241292536 | etot = -8.37462303045863
455000  ekin = 1.48456015878112 |  erot = 1.6110361600441 | epot = -11.4702193497298 | etot = -8.37462303090461
456000  ekin = 1.5173332961521 |  erot = 1.62510652435415 | epot = -11.5170628516973 | etot = -8.37462303119105
457000  ekin = 1.54029245797507 |  erot = 1.62854015385721 | epot = -11.5434556431077 | etot = -8.37462303127543
458000  ekin = 1.55209787062638 |  erot = 1.62122255615519 | epot = -11.5479434578284 | etot = -8.37462303104684
459000  ekin = 1.55414659187634 |  erot = 1.6057199111291 | epot = -11.5344895335887 | etot = -8.37462303058322
460000  ekin = 1.54960099436722 |  erot = 1.58640018749909 | epot = -11.5106242118337 | etot = -8.37462302996738
461000  ekin = 1.54273124224815 |  erot = 1.56872252266498 | epot = -11.4860767942389 | etot = -8.37462302932575
462000  ekin = 1.5379558944902 |  erot = 1.55825929919717 | epot = -11.4708382224928 | etot = -8.3746230288054
463000  ekin = 1.53875903307901 |  erot = 1.55959299575919 | epot = -11.4729750573654 | etot = -8.37462302852723
464000  ekin = 1.5468202951179 |  erot = 1.5753418689505 | epot = -11.4967851926248 | etot = -8.37462302855638
465000  ekin = 1.5616294650245 |  erot = 1.60564212073123 | epot = -11.5418946146288 | etot = -8.37462302887307
466000  ekin = 1.58070265304299 |  erot = 1.64822662156225 | epot = -11.603552303989 | etot = -8.37462302938373
467000  ekin = 1.60035208027293 |  erot = 1.69905719079097 | epot = -11.6740323010126 | etot = -8.37462302994875
468000  ekin = 1.61673623107329 |  erot = 1.75335443246826 | epot = -11.7447136939725 | etot = -8.37462303043099
469000  ekin = 1.62683085007104 |  erot = 1.80670922025691 | epot = -11.8081631010581 | etot = -8.37462303073019
470000  ekin = 1.62907239972705 |  erot = 1.85596584024091 | epot = -11.8596612707768 | etot = -8.37462303080888
471000  ekin = 1.62354687373203 |  erot = 1.8996612917076 | epot = -11.897831196133 | etot = -8.37462303069334
472000  ekin = 1.61170510379461 |  erot = 1.93800410341077 | epot = -11.9243322376463 | etot = -8.37462303044088
473000  ekin = 1.59590324450911 |  erot = 1.97246730641982 | epot = -11.9429935810563 | etot = -8.37462303012741
474000  ekin = 1.5788652318122 |  erot = 2.00526149881422 | epot = -11.9587497604456 | etot = -8.37462302981915
475000  ekin = 1.56312071578956 |  erot = 2.03882982960352 | epot = -11.97657357496 | etot = -8.37462302956695
476000  ekin = 1.55063074695145 |  erot = 2.07545668637062 | epot = -12.0007104627129 | etot = -8.37462302939086
477000  ekin = 1.54263588410857 |  erot = 2.11704231172364 | epot = -12.0343012251349 | etot = -8.37462302930267
478000  ekin = 1.53956151542023 |  erot = 2.16493101565207 | epot = -12.079115560379 | etot = -8.37462302930667
479000  ekin = 1.54104337297963 |  erot = 2.21977101927418 | epot = -12.1354374216592 | etot = -8.37462302940542
480000  ekin = 1.54600976096978 |  erot = 2.28138261400151 | epot = -12.202015404568 | etot = -8.37462302959675
481000  ekin = 1.55280606024745 |  erot = 2.34867771788771 | epot = -12.2761068080027 | etot = -8.37462302986758
482000  ekin = 1.55937339634714 |  erot = 2.41971772771095 | epot = -12.3537141542431 | etot = -8.37462303018505
483000  ekin = 1.56350104452682 |  erot = 2.49198464322671 | epot = -12.4301087182504 | etot = -8.37462303049682
484000  ekin = 1.56314467772463 |  erot = 2.56280026280356 | epot = -12.5005679712774 | etot = -8.37462303074924
485000  ekin = 1.55677099189266 |  erot = 2.62990187864781 | epot = -12.561295901425 | etot = -8.37462303088452
486000  ekin = 1.54362230241397 |  erot = 2.69196691951125 | epot = -12.6102122528186 | etot = -8.37462303089336
487000  ekin = 1.52381043791577 |  erot = 2.74866369544776 | epot = -12.647097164163 | etot = -8.37462303079951
488000  ekin = 1.49822858843954 |  erot = 2.80041322794242 | epot = -12.6732648470337 | etot = -8.37462303065175
489000  ekin = 1.46832177710726 |  erot = 2.84792010719231 | epot = -12.6908649148032 | etot = -8.37462303050367
490000  ekin = 1.43580907600697 |  erot = 2.89167668868307 | epot = -12.7021087950844 | etot = -8.37462303039437
491000  ekin = 1.40244626498263 |  erot = 2.93162068131092 | epot = -12.7086899766333 | etot = -8.37462303033977
492000  ekin = 1.36987596423218 |  erot = 2.9670311886878 | epot = -12.7115301832547 | etot = -8.3746230303347
493000  ekin = 1.33956200675526 |  erot = 2.99664446239428 | epot = -12.7108294995122 | etot = -8.37462303036264
494000  ekin = 1.31276816320931 |  erot = 3.01889804551771 | epot = -12.7062892391349 | etot = -8.37462303040788
495000  ekin = 1.29052832589647 |  erot = 3.03218505524657 | epot = -12.6973364116076 | etot = -8.3746230304646
496000  ekin = 1.27356858864311 |  erot = 3.035022985778 | epot = -12.683214604961 | etot = -8.37462303053987
497000  ekin = 1.26217859738859 |  erot = 3.02610963123424 | epot = -12.6629112592681 | etot = -8.37462303064528
498000  ekin = 1.25609176092333 |  erot = 3.00437387242381 | epot = -12.63508866407 | etot = -8.37462303072284
499000  ekin = 1.25448433544043 |  erot = 2.96925958209368 | epot = -12.5983669483981 | etot = -8.37462303086403
500000  ekin = 1.25592311954888 |  erot = 2.92052794168088 | epot = -12.5510740922046 | etot = -8.37462303097485
501000  ekin = 1.25866262015662 |  erot = 2.85877857413216 | epot = -12.4920642252914 | etot = -8.37462303100262
502000  ekin = 1.26101030104231 |  erot = 2.78589367847382 | epot = -12.4215270104231 | etot = -8.37462303090696
503000  ekin = 1.2616822409827 |  erot = 2.70525686265705 | epot = -12.341562134315 | etot = -8.37462303067522
504000  ekin = 1.26006875273123 |  erot = 2.62162663921815 | epot = -12.2563184222851 | etot = -8.37462303033575
505000  ekin = 1.25635230634372 |  erot = 2.54066101850671 | epot = -12.1716363547708 | etot = -8.37462302992033
506000  ekin = 1.25147361583387 |  erot = 2.46829686832008 | epot = -12.0943935136487 | etot = -8.37462302949473
507000  ekin = 1.24695832252401 |  erot = 2.40991559866008 | epot = -12.0314969503144 | etot = -8.37462302913032
508000  ekin = 1.24460011261898 |  erot = 2.36947588934082 | epot = -11.9886990309703 | etot = -8.37462302901048
509000  ekin = 1.24584437165075 |  erot = 2.34837731731078 | epot = -11.968844717957 | etot = -8.37462302899552
510000  ekin = 1.25172041123594 |  erot = 2.34550382347416 | epot = -11.9718472639378 | etot = -8.37462302922773
511000  ekin = 1.26248317250925 |  erot = 2.35680066397849 | epot = -11.9939068661987 | etot = -8.37462302971099
512000  ekin = 1.27739486770368 |  erot = 2.37529788848781 | epot = -12.0273157865876 | etot = -8.37462303039607
513000  ekin = 1.29481021505143 |  erot = 2.39185405428337 | epot = -12.0612873005117 | etot = -8.37462303117693
514000  ekin = 1.31250889880556 |  erot = 2.39651406027282 | epot = -12.0836459909757 | etot = -8.37462303189731
515000  ekin = 1.32825052581694 |  erot = 2.38037057725958 | epot = -12.0832441354529 | etot = -8.37462303237642
516000  ekin = 1.34045831429098 |  erot = 2.33760267994488 | epot = -12.052684026695 | etot = -8.37462303245917
517000  ekin = 1.34883924084267 |  erot = 2.26713155444339 | epot = -11.9905938273649 | etot = -8.37462303207887
518000  ekin = 1.35468550683747 |  erot = 2.17326127006768 | epot = -11.9025698082027 | etot = -8.37462303129753
519000  ekin = 1.36067339624092 |  erot = 2.06494828515387 | epot = -11.8002447116851 | etot = -8.37462303029029
520000  ekin = 1.37018582822474 |  erot = 1.95390329836409 | epot = -11.6987121558686 | etot = -8.37462302927973
521000  ekin = 1.38639579380205 |  erot = 1.85221057841339 | epot = -11.6132294006773 | etot = -8.37462302846182
522000  ekin = 1.41141432490464 |  erot = 1.7702244553378 | epot = -11.5562618082023 | etot = -8.37462302795986
523000  ekin = 1.44572356453295 |  erot = 1.71520045870637 | epot = -11.5355470510576 | etot = -8.37462302781823
524000  ekin = 1.48798145409594 |  erot = 1.69073008317732 | epot = -11.5533345652898 | etot = -8.37462302801658
525000  ekin = 1.53517683781547 |  erot = 1.69680296063593 | epot = -11.6066028269467 | etot = -8.37462302849528
526000  ekin = 1.58304900119082 |  erot = 1.73025509475382 | epot = -11.6879271251201 | etot = -8.3746230291755
527000  ekin = 1.62665879649241 |  erot = 1.78540941264132 | epot = -11.7866912391065 | etot = -8.37462302997276
528000  ekin = 1.66100783108725 |  erot = 1.85480654803477 | epot = -11.8904374099227 | etot = -8.37462303080072
529000  ekin = 1.68163863412719 |  erot = 1.93001159413455 | epot = -11.9862732598304 | etot = -8.37462303156867
530000  ekin = 1.68518623027201 |  erot = 2.0025246086571 | epot = -12.0623338711111 | etot = -8.37462303218195
531000  ekin = 1.66986059685696 |  erot = 2.06478669655979 | epot = -12.1092703259673 | etot = -8.3746230325506
532000  ekin = 1.63581226896246 |  erot = 2.11116679184571 | epot = -12.1216020934203 | etot = -8.3746230326121
533000  ekin = 1.58529617177826 |  erot = 2.13870511838797 | epot = -12.0986243225201 | etot = -8.37462303235382
534000  ekin = 1.52254564095677 |  erot = 2.14737698822869 | epot = -12.0445456610105 | etot = -8.37462303182508
535000  ekin = 1.4533242057691 |  erot = 2.13977370493919 | epot = -11.9677209418325 | etot = -8.37462303112417
536000  ekin = 1.384216910118 |  erot = 2.12031314070409 | epot = -11.8791530811922 | etot = -8.37462303037013
537000  ekin = 1.3218034289985 |  erot = 2.09425520394393 | epot = -11.7906816626138 | etot = -8.37462302967138
538000  ekin = 1.27187743420501 |  erot = 2.06681107588913 | epot = -11.7133115391998 | etot = -8.37462302910564
539000  ekin = 1.23883846279463 |  erot = 2.04251647933624 | epot = -11.6559779708478 | etot = -8.3746230287169
540000  ekin = 1.22531302703342 |  erot = 2.02488499742721 | epot = -11.6248210529829 | etot = -8.37462302852225
541000  ekin = 1.2319988229111 |  erot = 2.01625749304557 | epot = -11.6228793444799 | etot = -8.37462302852322
542000  ekin = 1.25769219451141 |  erot = 2.01774880495074 | epot = -11.650064028173 | etot = -8.37462302871088
543000  ekin = 1.29945731407194 |  erot = 2.02924170402309 | epot = -11.7033220471621 | etot = -8.37462302906708
544000  ekin = 1.35291512122203 |  erot = 2.04944893326965 | epot = -11.7769870840475 | etot = -8.37462302955587
545000  ekin = 1.41265384122183 |  erot = 2.07611668223443 | epot = -11.8633935535745 | etot = -8.37462303011828
546000  ekin = 1.47277167575229 |  erot = 2.1064421688077 | epot = -11.95383687523 | etot = -8.37462303067005
547000  ekin = 1.52754093319581 |  erot = 2.13770468829022 | epot = -12.039868652601 | etot = -8.37462303111499
548000  ekin = 1.57213155238907 |  erot = 2.16798237176413 | epot = -12.1147369555225 | etot = -8.37462303136926
549000  ekin = 1.60327488859484 |  erot = 2.1967176749588 | epot = -12.1746155949418 | etot = -8.37462303138818
550000  ekin = 1.619724343768 |  erot = 2.22489244333393 | epot = -12.2192398182844 | etot = -8.37462303118247
551000  ekin = 1.62240013870625 |  erot = 2.2547059313599 | epot = -12.2517291008804 | etot = -8.37462303081428
552000  ekin = 1.61417495562549 |  erot = 2.28884205646996 | epot = -12.2776400424756 | etot = -8.37462303038012
553000  ekin = 1.59932782091974 |  erot = 2.32954987377656 | epot = -12.3035007246854 | etot = -8.37462302998911
554000  ekin = 1.58274599066962 |  erot = 2.37778817613127 | epot = -12.3351571965425 | etot = -8.37462302974158
555000  ekin = 1.56899856385299 |  erot = 2.43263226771681 | epot = -12.3762538612802 | etot = -8.37462302971037
556000  ekin = 1.56145041157876 |  erot = 2.49106505511529 | epot = -12.4271384966192 | etot = -8.37462302992514
557000  ekin = 1.56197837218949 |  erot = 2.54829507223443 | epot = -12.4848964746477 | etot = -8.37462303022382
558000  ekin = 1.57029216551998 |  erot = 2.59810209182206 | epot = -12.5430172882108 | etot = -8.37462303086871
559000  ekin = 1.58339818321042 |  erot = 2.63367391511295 | epot = -12.5916951298608 | etot = -8.37462303153745
560000  ekin = 1.59712770481254 |  erot = 2.64904697988439 | epot = -12.6207977168094 | etot = -8.37462303211248
561000  ekin = 1.60698123343217 |  erot = 2.64009683894273 | epot = -12.6217011048644 | etot = -8.37462303248948
562000  ekin = 1.60896027782279 |  erot = 2.60532700120585 | epot = -12.5889103116224 | etot = -8.37462303259375
563000  ekin = 1.60023696633189 |  erot = 2.54649193869391 | epot = -12.5213519373455 | etot = -8.37462303231966
564000  ekin = 1.57955774677316 |  erot = 2.46891092806073 | epot = -12.4230917066634 | etot = -8.37462303182948
565000  ekin = 1.54734561566726 |  erot = 2.38031455631918 | epot = -12.3022832030954 | etot = -8.37462303110898
566000  ekin = 1.50554468554416 |  erot = 2.29049479450049 | epot = -12.1706625102928 | etot = -8.37462303024818
567000  ekin = 1.45732250665155 |  erot = 2.21025028826054 | epot = -12.0421958242621 | etot = -8.37462302935005
568000  ekin = 1.40671207380805 |  erot = 2.15003703752962 | epot = -11.9313721398968 | etot = -8.37462302855915
569000  ekin = 1.35794157949082 |  erot = 2.11775595086775 | epot = -11.8503205583477 | etot = -8.37462302798917
570000  ekin = 1.31523212119238 |  erot = 2.11799693943009 | epot = -11.8078520883698 | etot = -8.37462302774737
571000  ekin = 1.28243871604816 |  erot = 2.15081941192899 | epot = -11.8078811559402 | etot = -8.37462302796308
572000  ekin = 1.26220633019077 |  erot = 2.21027034249799 | epot = -11.8470997013797 | etot = -8.37462302869095
573000  ekin = 1.25525341534941 |  erot = 2.28456705415308 | epot = -11.9144434992934 | etot = -8.37462302979094
574000  ekin = 1.26030251433791 |  erot = 2.3581378703613 | epot = -11.9930634156822 | etot = -8.37462303098301
575000  ekin = 1.27473215622843 |  erot = 2.41511328226784 | epot = -12.0644684704327 | etot = -8.37462303193643
576000  ekin = 1.29562562245648 |  erot = 2.44294920216499 | epot = -12.113197857112 | etot = -8.37462303249048
577000  ekin = 1.32065634431855 |  erot = 2.43438586780086 | epot = -12.1296652446962 | etot = -8.37462303257683
578000  ekin = 1.34847271375233 |  erot = 2.38804498568671 | epot = -12.1111407317143 | etot = -8.37462303227523
579000  ekin = 1.37859640731264 |  erot = 2.30759327889212 | epot = -12.0608127179336 | etot = -8.37462303172887
580000  ekin = 1.41115339286314 |  erot = 2.20016188412019 | epot = -11.9859383079388 | etot = -8.37462303095542
581000  ekin = 1.44674776515146 |  erot = 2.07475133368212 | epot = -11.8961221291757 | etot = -8.37462303034217
582000  ekin = 1.4851482181042 |  erot = 1.94050793884997 | epot = -11.8002791867466 | etot = -8.37462302979241
583000  ekin = 1.52576266955557 |  erot = 1.80603709651217 | epot = -11.7064227954081 | etot = -8.37462302934032
584000  ekin = 1.56772288057535 |  erot = 1.67887072897699 | epot = -11.6212166385569 | etot = -8.37462302900456
585000  ekin = 1.60990333958961 |  erot = 1.56509115871755 | epot = -11.5496175271043 | etot = -8.37462302879714
586000  ekin = 1.65096359831956 |  erot = 1.46905708282237 | epot = -11.494643709869 | etot = -8.37462302872704
587000  ekin = 1.689404116345 |  erot = 1.39319741551208 | epot = -11.4572245606542 | etot = -8.37462302879712
588000  ekin = 1.72364170525864 |  erot = 1.3379013744288 | epot = -11.4361661086844 | etot = -8.37462302899699
589000  ekin = 1.75212209151102 |  erot = 1.30158756259537 | epot = -11.4283326833828 | etot = -8.37462302927642
590000  ekin = 1.77348776905869 |  erot = 1.281119877253 | epot = -11.4292306759283 | etot = -8.37462302961656
591000  ekin = 1.78679652583132 |  erot = 1.27228388602327 | epot = -11.433703441769 | etot = -8.37462302991442
592000  ekin = 1.79174476961286 |  erot = 1.27074179819946 | epot = -11.4371095979204 | etot = -8.37462303010812
593000  ekin = 1.78882244318549 |  erot = 1.27295060805964 | epot = -11.4363960813905 | etot = -8.37462303014537
594000  ekin = 1.77931578999136 |  erot = 1.27682752829949 | epot = -11.430766348318 | etot = -8.37462303002713
595000  ekin = 1.76511936071191 |  erot = 1.28196044220573 | epot = -11.4217028327169 | etot = -8.37462302979925
596000  ekin = 1.74839643258959 |  erot = 1.28931412525866 | epot = -11.4123335873807 | etot = -8.3746230295325
597000  ekin = 1.73114837529023 |  erot = 1.30076368908084 | epot = -11.4065350936672 | etot = -8.37462302929611
598000  ekin = 1.71482586357189 |  erot = 1.31808503745165 | epot = -11.4075339301729 | etot = -8.37462302914938
599000  ekin = 1.70035612855402 |  erot = 1.34256499056094 | epot = -11.4175441481827 | etot = -8.37462302906774
600000  ekin = 1.68813838896079 |  erot = 1.37518403996459 | epot = -11.4379454579713 | etot = -8.37462302904587
601000  ekin = 1.6780215527155 |  erot = 1.41656361608045 | epot = -11.4692081979194 | etot = -8.37462302912342
602000  ekin = 1.66952241262375 |  erot = 1.46664302734669 | epot = -11.5107884691339 | etot = -8.37462302916344
603000  ekin = 1.66207455080121 |  erot = 1.52486246590722 | epot = -11.5615600460007 | etot = -8.37462302929223
604000  ekin = 1.65429274424499 |  erot = 1.59090716726355 | epot = -11.6198229409005 | etot = -8.37462302939192
605000  ekin = 1.64513458460608 |  erot = 1.66451963176825 | epot = -11.6842772458433 | etot = -8.374623029469
606000  ekin = 1.63397297141755 |  erot = 1.74533329764574 | epot = -11.7539292986231 | etot = -8.37462302955985
607000  ekin = 1.62046446185742 |  erot = 1.8324685241921 | epot = -11.827556015813 | etot = -8.37462302976344
608000  ekin = 1.60415138615037 |  erot = 1.92384516554938 | epot = -11.9026195817859 | etot = -8.37462303008618
609000  ekin = 1.58416607277154 |  erot = 2.01562004721412 | epot = -11.9744091506956 | etot = -8.37462303070992
610000  ekin = 1.55892234884521 |  erot = 2.10126039812687 | epot = -12.0348057783755 | etot = -8.37462303140342
611000  ekin = 1.52586403282322 |  erot = 2.17351542350433 | epot = -12.0740024883762 | etot = -8.37462303204869
612000  ekin = 1.48252796781519 |  erot = 2.22604744671554 | epot = -12.0831984469311 | etot = -8.37462303240035
613000  ekin = 1.42777710477985 |  erot = 2.25549715886549 | epot = -12.0578972959117 | etot = -8.3746230322664
614000  ekin = 1.36284302676279 |  erot = 2.26309761368271 | epot = -12.0005636720648 | etot = -8.3746230316193
615000  ekin = 1.29166682111691 |  erot = 2.25472033316591 | epot = -11.9210101848976 | etot = -8.37462303061475
616000  ekin = 1.22033159945878 |  erot = 2.23929049960089 | epot = -11.8342451285654 | etot = -8.37462302950574
617000  ekin = 1.15585313013086 |  erot = 2.22643765863405 | epot = -11.7569138172924 | etot = -8.37462302852749
618000  ekin = 1.10482633868692 |  erot = 2.22445549379561 | epot = -11.7039048603103 | etot = -8.37462302782772
619000  ekin = 1.07233800595847 |  erot = 2.23915844396541 | epot = -11.6861194773934 | etot = -8.37462302746957
620000  ekin = 1.06133969548792 |  erot = 2.27356598266192 | epot = -11.7095287055648 | etot = -8.37462302741493
621000  ekin = 1.07250328126192 |  erot = 2.32827640438336 | epot = -11.7754027132589 | etot = -8.37462302761364
622000  ekin = 1.10448299244682 |  erot = 2.40202886261783 | epot = -11.8811348830572 | etot = -8.37462302799258
623000  ekin = 1.15443583440521 |  erot = 2.49214268564202 | epot = -12.0212015485468 | etot = -8.37462302849954
624000  ekin = 1.21858504498163 |  erot = 2.59479979276395 | epot = -12.1880078668497 | etot = -8.37462302910413
625000  ekin = 1.29260009292916 |  erot = 2.70513041487836 | epot = -12.3723535376516 | etot = -8.37462302984411
626000  ekin = 1.37166908701228 |  erot = 2.81669294847794 | epot = -12.5629850662659 | etot = -8.37462303077572
627000  ekin = 1.45036408325867 |  erot = 2.92095656625948 | epot = -12.7459436814223 | etot = -8.37462303190418
628000  ekin = 1.52265779658061 |  erot = 3.00738157699388 | epot = -12.9046624066681 | etot = -8.37462303309358
629000  ekin = 1.58251554245149 |  erot = 3.06484099788355 | epot = -13.0219795743843 | etot = -8.37462303404925
630000  ekin = 1.6251441888068 |  erot = 3.08443014421886 | epot = -13.0841973674678 | etot = -8.3746230344421
631000  ekin = 1.64954255051881 |  erot = 3.06336922299652 | epot = -13.0875348072779 | etot = -8.37462303376256
632000  ekin = 1.65761419154568 |  erot = 3.00573585957066 | epot = -13.0379730840985 | etot = -8.37462303298212
633000  ekin = 1.65174795094007 |  erot = 2.9196523277595 | epot = -12.9460233106114 | etot = -8.37462303191187
634000  ekin = 1.63566753658032 |  erot = 2.8160465674089 | epot = -12.8263371348712 | etot = -8.37462303088198
635000  ekin = 1.61303222684112 |  erot = 2.70552755469896 | epot = -12.6931828116467 | etot = -8.37462303010658
636000  ekin = 1.5864696555612 |  erot = 2.59633719497732 | epot = -12.5574298801738 | etot = -8.37462302963529
637000  ekin = 1.55730595136552 |  erot = 2.49385627804114 | epot = -12.4257852588055 | etot = -8.37462302939879
638000  ekin = 1.52584911625276 |  erot = 2.40123459740375 | epot = -12.3017067429401 | etot = -8.37462302928359
639000  ekin = 1.4919249764131 |  erot = 2.32043250457075 | epot = -12.1869805101708 | etot = -8.37462302918699
640000  ekin = 1.45541378442456 |  erot = 2.25314232064305 | epot = -12.0831791341102 | etot = -8.37462302904262
641000  ekin = 1.41664919926993 |  erot = 2.20135144253836 | epot = -11.9926236706323 | etot = -8.37462302882401
642000  ekin = 1.37663135857242 |  erot = 2.16751840710241 | epot = -11.9187727942139 | etot = -8.37462302853903
643000  ekin = 1.33719601643076 |  erot = 2.15436138730409 | epot = -11.8661804319158 | etot = -8.37462302818095
644000  ekin = 1.3009546006674 |  erot = 2.16433354913885 | epot = -11.8399111777162 | etot = -8.37462302790992
645000  ekin = 1.2700904774084 |  erot = 2.19964354153203 | epot = -11.8443570466485 | etot = -8.37462302770811
646000  ekin = 1.24673444984148 |  erot = 2.26154821905495 | epot = -11.8829056965386 | etot = -8.3746230276422
647000  ekin = 1.23265873216168 |  erot = 2.34972644270308 | epot = -11.9570082026438 | etot = -8.37462302777908
648000  ekin = 1.22854704148088 |  erot = 2.46146984669606 | epot = -12.064639916852 | etot = -8.37462302867502
649000  ekin = 1.23123438276377 |  erot = 2.58918284110391 | epot = -12.1950402535071 | etot = -8.37462302963938
650000  ekin = 1.23733747326785 |  erot = 2.72274115030322 | epot = -12.3347016542778 | etot = -8.37462303070677
651000  ekin = 1.24289918510996 |  erot = 2.85114575375504 | epot = -12.4686679705932 | etot = -8.37462303172824
652000  ekin = 1.24424620799518 |  erot = 2.96370857039037 | epot = -12.5825778108493 | etot = -8.37462303246373
653000  ekin = 1.23918232849171 |  erot = 3.05217314602706 | epot = -12.6659785072772 | etot = -8.37462303275843
654000  ekin = 1.22772861476395 |  erot = 3.11212236728239 | epot = -12.7144740146656 | etot = -8.37462303261922
655000  ekin = 1.21201905899384 |  erot = 3.14303840851493 | epot = -12.7296804997022 | etot = -8.37462303219339
656000  ekin = 1.19543744328548 |  erot = 3.1472043556439 | epot = -12.7172648305994 | etot = -8.37462303166998
657000  ekin = 1.18149305106241 |  erot = 3.12826014301058 | epot = -12.6843762252575 | etot = -8.37462303118449
658000  ekin = 1.17296379520039 |  erot = 3.09016086421994 | epot = -12.6377476902088 | etot = -8.37462303078844
[...]
837000  ekin = 1.32614569946022 |  erot = 2.35776552714737 | epot = -12.0585342559267 | etot = -8.37462302931913
838000  ekin = 1.3403008431359 |  erot = 2.42442328377117 | epot = -12.1393471566882 | etot = -8.37462302978115
839000  ekin = 1.3639577057291 |  erot = 2.48350186340837 | epot = -12.2220825994109 | etot = -8.37462303027338
840000  ekin = 1.39499323416822 |  erot = 2.52993036126689 | epot = -12.2995466261263 | etot = -8.37462303069118
841000  ekin = 1.43098519524823 |  erot = 2.55993796917592 | epot = -12.3655461953706 | etot = -8.37462303094641
842000  ekin = 1.4697160397417 |  erot = 2.57185321601787 | epot = -12.416192286756 | etot = -8.37462303099641
843000  ekin = 1.50953312203678 |  erot = 2.56639824287505 | epot = -12.4505543957724 | etot = -8.37462303086053
844000  ekin = 1.5494822275751 |  erot = 2.54631968024221 | epot = -12.4704249384311 | etot = -8.3746230306138
845000  ekin = 1.58921446589507 |  erot = 2.51544731878856 | epot = -12.4792848150415 | etot = -8.3746230303579
846000  ekin = 1.62874660073367 |  erot = 2.47751369443054 | epot = -12.4808833253451 | etot = -8.37462303018089
847000  ekin = 1.66818957254906 |  erot = 2.43516936578216 | epot = -12.4779819684582 | etot = -8.37462303012693
848000  ekin = 1.70754173431461 |  erot = 2.38953851004836 | epot = -12.4717032745481 | etot = -8.37462303018513
849000  ekin = 1.74659403306467 |  erot = 2.34043091651226 | epot = -12.4616479798778 | etot = -8.37462303030089
850000  ekin = 1.78494345866239 |  erot = 2.28706007037795 | epot = -12.4466265594442 | etot = -8.37462303040389
851000  ekin = 1.82207688727501 |  erot = 2.22891420063281 | epot = -12.425614118349 | etot = -8.37462303044114
852000  ekin = 1.85747606626799 |  erot = 2.16637383866296 | epot = -12.398472935331 | etot = -8.37462303040009
853000  ekin = 1.89070501215685 |  erot = 2.10080168938735 | epot = -12.366129731854 | etot = -8.37462303030978
854000  ekin = 1.9214659857968 |  erot = 2.03409194238599 | epot = -12.330180958406 | etot = -8.37462303022316
855000  ekin = 1.94963553788746 |  erot = 1.96792069995055 | epot = -12.2921792680263 | etot = -8.37462303018833
856000  ekin = 1.97530408452615 |  erot = 1.90306034569468 | epot = -12.2529874604462 | etot = -8.37462303022541
857000  ekin = 1.99898235174409 |  erot = 1.83954776716887 | epot = -12.2131531489759 | etot = -8.3746230300629
858000  ekin = 2.021489668939 |  erot = 1.77712472342471 | epot = -12.1732374225848 | etot = -8.37462303022108
859000  ekin = 2.04332984814827 |  erot = 1.71372610059514 | epot = -12.1316789790801 | etot = -8.37462303033664
860000  ekin = 2.06530510863647 |  erot = 1.64761266617994 | epot = -12.0875408051668 | etot = -8.37462303035041
861000  ekin = 2.08844047523226 |  erot = 1.57839130430651 | epot = -12.0414548097765 | etot = -8.37462303023775
862000  ekin = 2.11372996877535 |  erot = 1.50759861505441 | epot = -11.995951613855 | etot = -8.37462303002523
863000  ekin = 2.14175193680092 |  erot = 1.43866072802287 | epot = -11.9550356946146 | etot = -8.37462302979079
864000  ekin = 2.17225364144349 |  erot = 1.37614575517537 | epot = -11.9230224262557 | etot = -8.37462302963687
865000  ekin = 2.20389689305164 |  erot = 1.32450432847655 | epot = -11.9030242511673 | etot = -8.37462302963908
866000  ekin = 2.23438769161315 |  erot = 1.28681328070723 | epot = -11.8958240017944 | etot = -8.37462302947399
867000  ekin = 2.26151301831573 |  erot = 1.26501341500445 | epot = -11.9011494630794 | etot = -8.37462302975918
868000  ekin = 2.28295312633917 |  erot = 1.2587638567001 | epot = -11.9163400130163 | etot = -8.37462302997703
869000  ekin = 2.2971313908785 |  erot = 1.26636363803473 | epot = -11.9381180589604 | etot = -8.37462303004718
870000  ekin = 2.30388454565948 |  erot = 1.28638972777041 | epot = -11.9648973034185 | etot = -8.37462302998857
871000  ekin = 2.30409365411964 |  erot = 1.31787621263464 | epot = -11.9965928971127 | etot = -8.37462303035837
872000  ekin = 2.29712455306151 |  erot = 1.35930276714402 | epot = -12.0310503505619 | etot = -8.37462303035639
873000  ekin = 2.2827453931599 |  erot = 1.40846954678789 | epot = -12.065837970059 | etot = -8.37462303011121
874000  ekin = 2.26320703627333 |  erot = 1.46277950106371 | epot = -12.1006095675609 | etot = -8.3746230302239
875000  ekin = 2.2400163472838 |  erot = 1.51889022328766 | epot = -12.1335296008637 | etot = -8.37462303029222
876000  ekin = 2.21430830466978 |  erot = 1.57348199615719 | epot = -12.1624133311073 | etot = -8.37462303028036
877000  ekin = 2.18777848573709 |  erot = 1.62389020161555 | epot = -12.1862917175042 | etot = -8.3746230301516
878000  ekin = 2.16252897547841 |  erot = 1.66838793091172 | epot = -12.2055399364486 | etot = -8.37462303005844
879000  ekin = 2.14044753721882 |  erot = 1.70571411560968 | epot = -12.2207846828247 | etot = -8.37462302999622
880000  ekin = 2.12277471002682 |  erot = 1.73469967122049 | epot = -12.2320974112761 | etot = -8.37462303002882
881000  ekin = 2.10977467359972 |  erot = 1.75399371449064 | epot = -12.2383914182785 | etot = -8.37462303018811
882000  ekin = 2.10050164322213 |  erot = 1.7618701927401 | epot = -12.2369948664112 | etot = -8.37462303044894
883000  ekin = 2.0929086771248 |  erot = 1.75649694685427 | epot = -12.2240286546981 | etot = -8.37462303071903
884000  ekin = 2.0843370364501 |  erot = 1.7367150045659 | epot = -12.1956750719275 | etot = -8.37462303091147
885000  ekin = 2.0720290157253 |  erot = 1.70282592067542 | epot = -12.1494779673605 | etot = -8.37462303095973
886000  ekin = 2.05378411491253 |  erot = 1.65660476471949 | epot = -12.085011910269 | etot = -8.374623030637
887000  ekin = 2.02874297420615 |  erot = 1.60297409541309 | epot = -12.0063400996919 | etot = -8.37462303007265
888000  ekin = 1.99720256582679 |  erot = 1.54912086824386 | epot = -11.9209464635316 | etot = -8.3746230294609
889000  ekin = 1.95913963735338 |  erot = 1.50198702368973 | epot = -11.8357496899689 | etot = -8.37462302892583
890000  ekin = 1.91617614841582 |  erot = 1.46746689325636 | epot = -11.75826607021 | etot = -8.37462302853783
891000  ekin = 1.87023137415679 |  erot = 1.44931992810141 | epot = -11.694174330585 | etot = -8.37462302832684
892000  ekin = 1.82316218734301 |  erot = 1.44889048228522 | epot = -11.6466756979017 | etot = -8.37462302827347
893000  ekin = 1.77672781685204 |  erot = 1.46538080245969 | epot = -11.6167316476425 | etot = -8.3746230283308
894000  ekin = 1.73267401007656 |  erot = 1.49642015526123 | epot = -11.603717193777 | etot = -8.37462302843919
895000  ekin = 1.69287615444159 |  erot = 1.53876375542575 | epot = -11.6062629384076 | etot = -8.37462302854029
896000  ekin = 1.6594652881061 |  erot = 1.58897281258496 | epot = -11.6230611292876 | etot = -8.37462302859657
897000  ekin = 1.63484229162877 |  erot = 1.64389812681594 | epot = -11.6533634470428 | etot = -8.37462302859813
898000  ekin = 1.62150447331787 |  erot = 1.70104293751506 | epot = -11.6971704394058 | etot = -8.37462302857288
899000  ekin = 1.62168394146005 |  erot = 1.75850368945989 | epot = -11.754810659492 | etot = -8.37462302857205
900000  ekin = 1.63689346404005 |  erot = 1.81470313447866 | epot = -11.8262196271634 | etot = -8.37462302864474
901000  ekin = 1.66753387742474 |  erot = 1.86808611524118 | epot = -11.9102430214842 | etot = -8.37462302881828
902000  ekin = 1.71269692237879 |  erot = 1.91693084841925 | epot = -12.0042507998865 | etot = -8.37462302908844
903000  ekin = 1.77021838508038 |  erot = 1.95934050990336 | epot = -12.1041819244126 | etot = -8.37462302942886
904000  ekin = 1.83694819296334 |  erot = 1.99341312084054 | epot = -12.2049843435877 | etot = -8.37462302978381
905000  ekin = 1.90914641653746 |  erot = 2.0175452764756 | epot = -12.301314723126 | etot = -8.37462303011296
906000  ekin = 1.98289589688105 |  erot = 2.03065122058404 | epot = -12.3881701478506 | etot = -8.37462303038552
907000  ekin = 2.05443877923752 |  erot = 2.03228127523247 | epot = -12.4613430850605 | etot = -8.37462303059052
908000  ekin = 2.12038320005706 |  erot = 2.02259637574775 | epot = -12.5176026065384 | etot = -8.37462303073356
909000  ekin = 2.17777472065196 |  erot = 2.00223868776754 | epot = -12.5546364392486 | etot = -8.37462303082908
910000  ekin = 2.22407231387502 |  erot = 1.97218459089689 | epot = -12.5708799356595 | etot = -8.37462303088757
911000  ekin = 2.2570988123033 |  erot = 1.93367043925279 | epot = -12.565392282463 | etot = -8.37462303090695
912000  ekin = 2.27504055965447 |  erot = 1.88824345124255 | epot = -12.5379070417669 | etot = -8.37462303086985
913000  ekin = 2.27654326616373 |  erot = 1.83792322947823 | epot = -12.4890895263923 | etot = -8.37462303075033
914000  ekin = 2.26395838706936 |  erot = 1.78540897804491 | epot = -12.4239903947897 | etot = -8.37462302967546
915000  ekin = 2.24045468911864 |  erot = 1.7337281006883 | epot = -12.3488058193252 | etot = -8.37462302951822
916000  ekin = 2.20520370201831 |  erot = 1.68615105197114 | epot = -12.2659777833028 | etot = -8.37462302931332
917000  ekin = 2.15800582905993 |  erot = 1.64606783756472 | epot = -12.1786966957294 | etot = -8.37462302910471
918000  ekin = 2.09921834411119 |  erot = 1.61647797760392 | epot = -12.0903193506463 | etot = -8.37462302893123
919000  ekin = 2.02966476142347 |  erot = 1.59954949780366 | epot = -12.0038372880325 | etot = -8.37462302880535
920000  ekin = 1.95065755949099 |  erot = 1.59642144855954 | epot = -11.9217020368486 | etot = -8.37462302879802
921000  ekin = 1.86366200650715 |  erot = 1.6075086608029 | epot = -11.8457936959431 | etot = -8.37462302863303
922000  ekin = 1.77152243885063 |  erot = 1.63263587421854 | epot = -11.7787813414971 | etot = -8.37462302842796
923000  ekin = 1.67869484032847 |  erot = 1.67111175334959 | epot = -11.7244296218669 | etot = -8.3746230281888
924000  ekin = 1.59024537021156 |  erot = 1.72202288865011 | epot = -11.6868912868262 | etot = -8.37462302796453
925000  ekin = 1.5112393703698 |  erot = 1.78411652411382 | epot = -11.6699789223096 | etot = -8.37462302782603
926000  ekin = 1.44599317764753 |  erot = 1.85554834407746 | epot = -11.6761645495494 | etot = -8.37462302782441
927000  ekin = 1.39752558601309 |  erot = 1.93370661236091 | epot = -11.705855226336 | etot = -8.37462302796202
928000  ekin = 1.36763823809792 |  erot = 2.01538770681432 | epot = -11.7576489728028 | etot = -8.37462302789054
929000  ekin = 1.36100399984171 |  erot = 2.09737818238835 | epot = -11.8330052106967 | etot = -8.3746230284666
930000  ekin = 1.35523134970901 |  erot = 2.17722433884352 | epot = -11.9070787109409 | etot = -8.37462302238835
931000  ekin = 1.39431469298964 |  erot = 2.2543562043887 | epot = -12.0232939189524 | etot = -8.37462302157402
932000  ekin = 1.49280866704539 |  erot = 2.31847930194453 | epot = -12.1859109889642 | etot = -8.37462301997426
933000  ekin = 1.58533340946056 |  erot = 2.36490000058681 | epot = -12.3248564302729 | etot = -8.37462302022553
934000  ekin = 1.68690712098002 |  erot = 2.39298221169384 | epot = -12.4545123553122 | etot = -8.37462302263839
935000  ekin = 1.78473836462927 |  erot = 2.39676204061381 | epot = -12.5561234284514 | etot = -8.37462302320833
936000  ekin = 1.86987725385837 |  erot = 2.3725869373384 | epot = -12.6170872147064 | etot = -8.37462302350959
937000  ekin = 1.93720452637544 |  erot = 2.32043568374953 | epot = -12.6322632336339 | etot = -8.37462302350895
938000  ekin = 1.9838520890903 |  erot = 2.24266190734083 | epot = -12.6011370196561 | etot = -8.37462302322501
939000  ekin = 2.00910923705166 |  erot = 2.14379034932815 | epot = -12.5275226091129 | etot = -8.37462302273308
940000  ekin = 2.01395507289469 |  erot = 2.02993348653905 | epot = -12.4185115815289 | etot = -8.37462302209514
941000  ekin = 2.00103743451551 |  erot = 1.90808629517564 | epot = -12.2837467510699 | etot = -8.37462302137876
942000  ekin = 1.97419824310303 |  erot = 1.78546116622366 | epot = -12.1342824299697 | etot = -8.37462302064297
943000  ekin = 1.93808318009234 |  erot = 1.66892069893568 | epot = -11.9816268989622 | etot = -8.37462301993414
944000  ekin = 1.8977766335859 |  erot = 1.5645619851526 | epot = -11.8369616380283 | etot = -8.37462301928981
945000  ekin = 1.85843605736167 |  erot = 1.47742214177585 | epot = -11.7104812178821 | etot = -8.37462301874459
946000  ekin = 1.82491092897238 |  erot = 1.4112458813213 | epot = -11.6107798286296 | etot = -8.37462301833593
947000  ekin = 1.80134221884099 |  erot = 1.36826076777436 | epot = -11.5442260047188 | etot = -8.3746230181035
948000  ekin = 1.79076227754137 |  erot = 1.34894522657638 | epot = -11.5143305222011 | etot = -8.37462301808336
949000  ekin = 1.79475359820903 |  erot = 1.35184135985263 | epot = -11.5212179763541 | etot = -8.3746230182924
950000  ekin = 1.81326202049733 |  erot = 1.37352812801424 | epot = -11.5614131672234 | etot = -8.37462301871185
951000  ekin = 1.8446612222921 |  erot = 1.40888082073615 | epot = -11.6281650623084 | etot = -8.37462301928016
952000  ekin = 1.88610598518233 |  erot = 1.4516699630596 | epot = -11.7123989681437 | etot = -8.37462301990175
953000  ekin = 1.93415626208905 |  erot = 1.49545802208077 | epot = -11.8042373044988 | etot = -8.37462302032895
954000  ekin = 1.98570845875077 |  erot = 1.53486140750072 | epot = -11.8951928870223 | etot = -8.37462302077084
955000  ekin = 2.03763688300367 |  erot = 1.56575119866826 | epot = -11.9780111026998 | etot = -8.37462302102783
956000  ekin = 2.08752516850609 |  erot = 1.58576425991822 | epot = -12.0479124495199 | etot = -8.37462302109557
957000  ekin = 2.13388693710885 |  erot = 1.59443657078623 | epot = -12.1029465289009 | etot = -8.37462302100585
958000  ekin = 2.17603134876192 |  erot = 1.59291217741034 | epot = -12.1435665469851 | etot = -8.37462302081279
959000  ekin = 2.21381255039506 |  erot = 1.58343493106153 | epot = -12.1718705020323 | etot = -8.3746230205757
960000  ekin = 2.24735101958149 |  erot = 1.56876603526881 | epot = -12.1907400751984 | etot = -8.37462302034813
961000  ekin = 2.27678636585367 |  erot = 1.55164507323174 | epot = -12.2030544592552 | etot = -8.37462302016982
962000  ekin = 2.30208813280194 |  erot = 1.53436606871416 | epot = -12.2110772215839 | etot = -8.37462302006782
963000  ekin = 2.32292955590359 |  erot = 1.51849868398086 | epot = -12.2160512599392 | etot = -8.37462302005478
964000  ekin = 2.33862421267619 |  erot = 1.5047615187632 | epot = -12.2180087515685 | etot = -8.37462302012906
965000  ekin = 2.34813222213658 |  erot = 1.49304783092089 | epot = -12.2158030733316 | etot = -8.37462302027411
966000  ekin = 2.35015122853745 |  erot = 1.48260237418168 | epot = -12.2073766231763 | etot = -8.37462302045712
967000  ekin = 2.34330726066801 |  erot = 1.47233774696489 | epot = -12.1902680282645 | etot = -8.37462302063163
968000  ekin = 2.32644504716153 |  erot = 1.46125212630528 | epot = -12.1623201942108 | etot = -8.37462302074401
969000  ekin = 2.29898771920432 |  erot = 1.44887277461825 | epot = -12.1224835145672 | etot = -8.37462302074465
970000  ekin = 2.26130276214926 |  erot = 1.43562016619226 | epot = -12.0715459489416 | etot = -8.37462302060004
971000  ekin = 2.21499063336789 |  erot = 1.42298879008693 | epot = -12.0126024437583 | etot = -8.37462302030352
972000  ekin = 2.16303757452058 |  erot = 1.41348472406632 | epot = -11.951145318372 | etot = -8.37462301978514
973000  ekin = 2.10950969273521 |  erot = 1.41039391551463 | epot = -11.8945266278588 | etot = -8.37462301960897
974000  ekin = 2.05703199419465 |  erot = 1.41732503873172 | epot = -11.8489800520854 | etot = -8.37462301915903
975000  ekin = 2.01010390574292 |  erot = 1.43732066922268 | epot = -11.8220475937212 | etot = -8.37462301875562
976000  ekin = 1.97340114976778 |  erot = 1.47261385396339 | epot = -11.8206380222098 | etot = -8.37462301847868
977000  ekin = 1.95082006443637 |  erot = 1.52416835984564 | epot = -11.8496114426837 | etot = -8.37462301840164
978000  ekin = 1.9447283226985 |  erot = 1.5913101945952 | epot = -11.9106615358701 | etot = -8.3746230185764
979000  ekin = 1.95538713570238 |  erot = 1.67153495870807 | epot = -12.0015451134282 | etot = -8.37462301901775
980000  ekin = 1.9806772386414 |  erot = 1.76051368575892 | epot = -12.115813944186 | etot = -8.37462301978569
981000  ekin = 2.01579571923818 |  erot = 1.852073195397 | epot = -12.242491935286 | etot = -8.3746230206508
982000  ekin = 2.05441082038431 |  erot = 1.93952253756493 | epot = -12.3685563794515 | etot = -8.37462302150224
983000  ekin = 2.08992138437299 |  erot = 2.01671280308907 | epot = -12.4812572096455 | etot = -8.37462302218342
984000  ekin = 2.11656909820189 |  erot = 2.07910696967932 | epot = -12.5702990904574 | etot = -8.37462302257622
985000  ekin = 2.13033501101521 |  erot = 2.12464764347404 | epot = -12.6296056771257 | etot = -8.37462302263646
986000  ekin = 2.12935596247826 |  erot = 2.15403431725829 | epot = -12.6580133021397 | etot = -8.37462302240314
987000  ekin = 2.11471923987147 |  erot = 2.17104098415582 | epot = -12.6603832459134 | etot = -8.37462302188615
988000  ekin = 2.09119735100847 |  erot = 2.18228698931407 | epot = -12.6481073619509 | etot = -8.37462302162839
989000  ekin = 2.06027968800836 |  erot = 2.19075462083354 | epot = -12.6256573302404 | etot = -8.37462302139855
990000  ekin = 2.02336255788427 |  erot = 2.19843813688459 | epot = -12.5964237160094 | etot = -8.37462302124054
991000  ekin = 1.98188077466453 |  erot = 2.2063805572012 | epot = -12.562884353023 | etot = -8.37462302115728
992000  ekin = 1.93715749695718 |  erot = 2.21473069767444 | epot = -12.5265112157552 | etot = -8.3746230211236
993000  ekin = 1.89038311211529 |  erot = 2.2230775987835 | epot = -12.4880837320058 | etot = -8.37462302110698
994000  ekin = 1.84266575141443 |  erot = 2.23084817708077 | epot = -12.4481369495769 | etot = -8.37462302108169
995000  ekin = 1.79502825849762 |  erot = 2.23761065997439 | epot = -12.4072619394952 | etot = -8.37462302102315
996000  ekin = 1.74865820356561 |  erot = 2.24323231086636 | epot = -12.3665135353738 | etot = -8.37462302094188
997000  ekin = 1.70508150017444 |  erot = 2.24765365390765 | epot = -12.3273581749414 | etot = -8.37462302085929
998000  ekin = 1.66588125244514 |  erot = 2.25078611336597 | epot = -12.291290386589 | etot = -8.37462302077789
999000  ekin = 1.63259998370637 |  erot = 2.25262768593191 | epot = -12.2598506903133 | etot = -8.37462302067497
1000000  ekin = 1.60661879878209 |  erot = 2.25373528619522 | epot = -12.2349771055384 | etot = -8.37462302056112
 1000000    0.1190088   -1.3493654   0.12586767   -1.0628358 0.00017426596        64000 
Loop time of 17.562 on 1 procs for 1000000 steps with 10 atoms

Performance: 49197.105 tau/day, 56941.094 timesteps/s
99.7% CPU use with 1 MPI tasks x no OpenMP threads

MPI task timing breakdown:
Section |  min time  |  avg time  |  max time  |%varavg| %total
---------------------------------------------------------------
Pair    | 14.789     | 14.789     | 14.789     |   0.0 | 84.21
Bond    | 0.61289    | 0.61289    | 0.61289    |   0.0 |  3.49
Neigh   | 0.006141   | 0.006141   | 0.006141   |   0.0 |  0.03
Comm    | 0.32905    | 0.32905    | 0.32905    |   0.0 |  1.87
Output  | 0.098357   | 0.098357   | 0.098357   |   0.0 |  0.56
Modify  | 1.4688     | 1.4688     | 1.4688     |   0.0 |  8.36
Other   |            | 0.2577     |            |       |  1.47

Nlocal:        10.0000 ave          10 max          10 min
Histogram: 1 0 0 0 0 0 0 0 0 0
Nghost:         0.00000 ave           0 max           0 min
Histogram: 1 0 0 0 0 0 0 0 0 0
Neighs:        37.0000 ave          37 max          37 min
Histogram: 1 0 0 0 0 0 0 0 0 0

Total # of neighbors = 37
Ave neighs/atom = 3.7000000
Ave special neighs/atom = 3.6000000
Neighbor list builds = 1000
Dangerous builds = 0

write_data last_config.${number}.* nocoeff
write_data last_config.1.* nocoeff
System init for write_data ...
#write_restart last_config.${number}.*
Total wall time: 0:00:17
