LAMMPS data file via write_data, version 22 Oct 2015

3072 atoms
2 atom types
2048 bonds
1 bond types
1024 angles
1 angle types

-1.2631399999999999e+01 1.2631399999999999e+01 xlo xhi
-1.2631399999999999e+01 1.2631399999999999e+01 ylo yhi
-2.5262750000000000e+01 2.5262750000000000e+01 zlo zhi

Masses

1 1.008
2 15.9994

Atoms # full

2039 680 1 4.2380000000000001e-01 -5.9285492689002108e+00 -9.2491262501931431e+00 -2.4808816949475602e+01 1 4 -1
1906 636 2 -8.4760000000000002e-01 -4.3203846637021490e+00 -9.7662142766016853e+00 -1.9719381937217886e+01 1 2 0
1187 396 1 4.2380000000000001e-01 -1.1445788564740912e+01 -8.3492561450897949e+00 -1.8959613407164845e+01 3 2 -2
1411 471 2 -8.4760000000000002e-01 -9.1840598510962970e+00 -9.8035401381599492e+00 -2.2502834186555756e+01 -6 1 0
1975 659 2 -8.4760000000000002e-01 -4.8240578014224784e+00 -7.3332881954651086e+00 -2.1853876118572675e+01 6 3 -1
2455 819 2 -8.4760000000000002e-01 -7.3642154803585651e+00 -1.1565162107760449e+01 -2.3243823598491602e+01 2 1 1
1976 659 1 4.2380000000000001e-01 -4.3799119385285126e+00 -6.5066245329083356e+00 -2.1508388576854603e+01 6 3 -1
1851 617 1 4.2380000000000001e-01 -5.6373057558577955e+00 -6.8958612601646792e+00 -2.5203771299566480e+01 0 1 1
1850 617 1 4.2380000000000001e-01 -5.3622678723918442e+00 -7.4463435358541403e+00 -2.3691174221046623e+01 0 1 1
1217 406 1 4.2380000000000001e-01 -1.1919996238808368e+01 -1.1478148789356160e+01 -2.2887896159302173e+01 4 -1 1
1218 406 1 4.2380000000000001e-01 -1.1687730696946279e+01 -1.1672959526607222e+01 -2.1283300263180131e+01 4 -1 1
687 229 1 4.2380000000000001e-01 -1.1193286967053190e+01 -7.5285019588314670e+00 -2.3572306986174521e+01 -2 2 2
2191 731 2 -8.4760000000000002e-01 -4.9540273110185344e+00 -1.1726628340831835e+01 -2.1580546057063124e+01 -4 -1 0
1188 396 1 4.2380000000000001e-01 -1.0374116926393299e+01 -8.4147148585321219e+00 -2.0190004219684305e+01 3 2 -2
1186 396 2 -8.4760000000000002e-01 -1.1115675703730501e+01 -8.8996979777879677e+00 -1.9726450604887674e+01 3 2 -2
1907 636 1 4.2380000000000001e-01 -5.2230922745701012e+00 -1.0194013785258091e+01 -1.9765279101339555e+01 1 2 0
2457 819 1 4.2380000000000001e-01 -6.9670083902874200e+00 -1.0944240963642908e+01 -2.3919607188396672e+01 2 1 1
1413 471 1 4.2380000000000001e-01 -9.9553526972961954e+00 -1.0368218997766833e+01 -2.2209158973243614e+01 -6 1 0
2192 731 1 4.2380000000000001e-01 -4.3695442780756677e+00 -1.1112299090396286e+01 -2.2110620727521166e+01 -4 -1 0
1995 665 1 4.2380000000000001e-01 -8.4265469911793573e+00 -1.0986773306886294e+01 -2.4986929059599685e+01 3 3 -3
685 229 2 -8.4760000000000002e-01 -1.0201539555475287e+01 -7.5108072730986866e+00 -2.3699287180399253e+01 -2 2 2
1849 617 2 -8.4760000000000002e-01 -5.5463261152603405e+00 -7.7145514555361325e+00 -2.4636788875677155e+01 0 1 1
2456 819 1 4.2380000000000001e-01 -8.2138002307079390e+00 -1.1173721093899720e+01 -2.2890298939321301e+01 2 1 1
2243 748 1 4.2380000000000001e-01 -7.5718644115135110e+00 -7.2874577398091391e+00 -2.1966618695447455e+01 -1 -4 1
518 173 1 4.2380000000000001e-01 -7.4559209252832037e+00 -9.9812651845826981e+00 -1.9391003475360755e+01 3 0 1
2193 731 1 4.2380000000000001e-01 -5.8541824517025347e+00 -1.1785189597665106e+01 -2.2012160818045967e+01 -4 -1 0
2242 748 2 -8.4760000000000002e-01 -7.8517583324629747e+00 -7.8727450549345734e+00 -2.1205633707573980e+01 -1 -4 1
517 173 2 -8.4760000000000002e-01 -6.8129348925003406e+00 -1.0638092932633102e+01 -1.8997117361062230e+01 3 0 1
519 173 1 4.2380000000000001e-01 -7.2891053731239310e+00 -1.1496037705472014e+01 -1.8804263944859443e+01 3 0 1
1412 471 1 4.2380000000000001e-01 -9.5226539444280434e+00 -9.0275406504141191e+00 -2.3034979688255309e+01 -6 1 0
1216 406 2 -8.4760000000000002e-01 -1.1579137179187677e+01 -1.1044684665767628e+01 -2.2053675591924378e+01 4 -1 1
2244 748 1 4.2380000000000001e-01 -8.1584387862624776e+00 -8.7561749297516460e+00 -2.1559891742822334e+01 -1 -4 1
1977 659 1 4.2380000000000001e-01 -4.5774575832899522e+00 -8.1107720691976137e+00 -2.1275337305265484e+01 6 3 -1
686 229 1 4.2380000000000001e-01 -9.8632104511683281e+00 -6.5813373533614561e+00 -2.3552252880038701e+01 -2 2 2
2150 717 1 4.2380000000000001e-01 -8.6062836599590433e+00 -6.7279331665240694e+00 -1.9800546240954638e+01 -3 -3 0
2340 780 1 4.2380000000000001e-01 -9.7877512690320554e+00 -8.0788399193980425e+00 -2.5148022951619229e+01 1 -1 -1
2038 680 2 -8.4760000000000002e-01 -6.1217577034333788e+00 -1.0209634454187734e+01 -2.5009053037342714e+01 1 4 -1
2151 717 1 4.2380000000000001e-01 -9.6382661393811233e+00 -6.3508445311102868e+00 -1.8592472229006653e+01 -3 -3 0
2361 787 1 4.2380000000000001e-01 -1.1688341762535424e+01 -5.4844447359513655e+00 -2.2069881813704392e+01 3 0 1
2149 717 2 -8.4760000000000002e-01 -9.2464811936545424e+00 -6.0400921981452376e+00 -1.9458461572970425e+01 -3 -3 0
1480 494 2 -8.4760000000000002e-01 -8.3584220144409098e+00 -5.3201280021106525e+00 -2.3462198632090065e+01 1 -3 0
1481 494 1 4.2380000000000001e-01 -7.7913237900130072e+00 -5.2325666312772219e+00 -2.4281181299909409e+01 1 -3 0
1482 494 1 4.2380000000000001e-01 -8.9724843152280975e+00 -4.5336240037597664e+00 -2.3396327915303186e+01 1 -3 0
2360 787 1 4.2380000000000001e-01 -1.0584414102599730e+01 -5.6396096371760667e+00 -2.0876611488005597e+01 3 0 1
341 114 1 4.2380000000000001e-01 -7.8315048537670391e+00 -4.4608973815326145e+00 -2.1769031439384754e+01 -5 3 2
656 219 1 4.2380000000000001e-01 -6.7612043168133669e+00 -5.3795421186422425e+00 -1.9899511428449411e+01 -1 -1 0
2359 787 2 -8.4760000000000002e-01 -1.1561725365262257e+01 -5.6246798411540739e+00 -2.1087892810094697e+01 3 0 1
340 114 2 -8.4760000000000002e-01 -7.4515458208702361e+00 -4.2249038880702985e+00 -2.0874638793862900e+01 -5 3 2
655 219 2 -8.4760000000000002e-01 -6.1976109871976082e+00 -5.8675787434291635e+00 -1.9233041015243231e+01 -1 -1 0
657 219 1 4.2380000000000001e-01 -5.2697986113324404e+00 -5.9692470052122690e+00 -1.9591966856800276e+01 -1 -1 0
1305 435 1 4.2380000000000001e-01 -1.2609374718219524e+01 -6.1705302456459963e+00 -2.4538167941451899e+01 -1 0 1
1908 636 1 4.2380000000000001e-01 -3.6192621591293244e+00 -1.0474937430387964e+01 -1.9641031922101380e+01 1 2 0
27 9 1 4.2380000000000001e-01 -6.7803300104930297e-01 -6.8448907658105247e+00 -2.4015432676598454e+01 2 1 0
25 9 2 -8.4760000000000002e-01 -1.1369657625075988e+00 -7.1350689949130217e+00 -2.4855181041178703e+01 2 1 0
2417 806 1 4.2380000000000001e-01 -1.8490492330422326e+00 -1.1545320638002561e+01 -2.4078768155630687e+01 -2 -1 0
828 276 1 4.2380000000000001e-01 -1.7782704513395344e+00 -8.0820234503386281e+00 -2.0573550748147529e+01 3 0 0
826 276 2 -8.4760000000000002e-01 -2.2462357850651378e+00 -8.7520486622257856e+00 -2.1149809944921557e+01 3 0 0
26 9 1 4.2380000000000001e-01 -1.8601359202972019e+00 -6.4828008074459742e+00 -2.5082273829485626e+01 2 1 0
237 79 1 4.2380000000000001e-01 -1.7765769374318165e+00 -1.1140068469491261e+01 -1.8469530833716512e+01 2 -4 0
236 79 1 4.2380000000000001e-01 -2.1768304631847983e+00 -1.1984834716980181e+01 -1.9808483259070851e+01 2 -4 0
2418 806 1 4.2380000000000001e-01 -8.2470245568388967e-01 -1.0441068019230734e+01 -2.3447922430601494e+01 -2 -1 0
827 276 1 4.2380000000000001e-01 -3.1413999518520952e+00 -8.9623235473804783e+00 -2.0756788842213581e+01 3 0 0
1576 526 2 -8.4760000000000002e-01 -3.4211969911316520e-01 -6.8237946817115160e+00 -1.9848012801632137e+01 2 -1 1
2416 806 2 -8.4760000000000002e-01 -1.2510340622925233e+00 -1.1334359770968739e+01 -2.3305545439892501e+01 -2 -1 0
2897 966 1 4.2380000000000001e-01 -1.8710567905029996e+00 -1.2412754472132635e+01 -2.1860610908693353e+01 4 -1 0
235 79 2 -8.4760000000000002e-01 -2.4797777353346433e+00 -1.1708683418316394e+01 -1.8896362976134839e+01 2 -4 0
1878 626 1 4.2380000000000001e-01 -5.6062655195835609e-01 -1.0061029699607888e+01 -2.1037291965851210e+01 1 -1 2
2190 730 1 4.2380000000000001e-01 -3.0452840659048355e+00 -6.3568808347689147e+00 -1.8051596403387002e+01 2 -1 0
905 302 1 4.2380000000000001e-01 -4.4201070011734889e-01 -8.7487953687221651e+00 -2.4978273184969495e+01 0 -2 -1
2145 715 1 4.2380000000000001e-01 -3.6265170422373769e+00 -4.8280845151478493e+00 -2.4096095171694301e+01 2 0 0
2188 730 2 -8.4760000000000002e-01 -3.0113872950967289e+00 -5.7847833716533072e+00 -1.8871081303568495e+01 2 -1 0
1577 526 1 4.2380000000000001e-01 -1.0288708585325619e+00 -6.1516387110593698e+00 -1.9571283337800061e+01 2 -1 1
2189 730 1 4.2380000000000001e-01 -2.4811495202214502e+00 -4.9589041789163772e+00 -1.8679322441714575e+01 2 -1 0
2143 715 2 -8.4760000000000002e-01 -3.3227418972133940e+00 -5.0686896660288161e+00 -2.5017957321169593e+01 2 0 0
1876 626 2 -8.4760000000000002e-01 1.7066360273444278e-01 -1.0538901790721614e+01 -2.0550616535832425e+01 1 -1 2
1292 431 1 4.2380000000000001e-01 6.8240830651804218e-01 -1.2092548111767835e+01 -2.0658601039406054e+01 -2 5 -1
971 324 1 4.2380000000000001e-01 9.9766121015685594e-01 -6.8289887434039036e+00 -2.1556220555107867e+01 -1 0 0
1378 460 2 -8.4760000000000002e-01 2.3444521866441694e+00 -9.5305121236659645e+00 -1.8654542439274028e+01 2 5 -1
2248 750 2 -8.4760000000000002e-01 3.2843744576641454e+00 -1.2304750722011381e+01 -2.2301741673182626e+01 -3 0 1
2250 750 1 4.2380000000000001e-01 2.7790904521831821e+00 -1.1772698391117533e+01 -2.2981159358406920e+01 -3 0 1
2566 856 2 -8.4760000000000002e-01 2.5725539113454987e+00 -1.0964920637237219e+01 -2.4387217342907540e+01 3 3 -1
1379 460 1 4.2380000000000001e-01 2.8493887563947702e+00 -1.0393540261214469e+01 -1.8639659753761759e+01 2 5 -1
1581 527 1 4.2380000000000001e-01 3.9117229003293077e+00 -1.0704747450984820e+01 -2.0858086938743934e+01 1 1 0
972 324 1 4.2380000000000001e-01 1.5335956033372409e+00 -7.6988833695362917e+00 -2.2830066762767505e+01 -1 0 0
2568 856 1 4.2380000000000001e-01 1.6736266960730317e+00 -1.0605581039201448e+01 -2.4637826430783416e+01 3 3 -1
2567 856 1 4.2380000000000001e-01 3.2843390312370624e+00 -1.0355733618528220e+01 -2.4736864478370414e+01 3 3 -1
1380 460 1 4.2380000000000001e-01 2.9898775078876394e+00 -8.7671169744607624e+00 -1.8680115879944637e+01 2 5 -1
904 302 2 -8.4760000000000002e-01 7.9048569125849358e-02 -9.5909221159596605e+00 -2.5117268794694915e+01 0 -2 -1
1877 626 1 4.2380000000000001e-01 1.7942577193289810e-01 -1.0248496704991894e+01 -1.9593752851406446e+01 1 -1 2
1578 526 1 4.2380000000000001e-01 2.1231402891522341e-01 -7.0792939364970842e+00 -1.9055975320177783e+01 2 -1 1
970 324 2 -8.4760000000000002e-01 1.1071586355786183e+00 -6.8387650823247217e+00 -2.2550159555762995e+01 -1 0 0
2249 750 1 4.2380000000000001e-01 2.6663579713661454e+00 -1.2575765525478936e+01 -2.1563767013072052e+01 -3 0 1
1974 658 1 4.2380000000000001e-01 2.3667934719492528e-01 -4.3344358529156599e+00 -2.0856397527160915e+01 0 0 -1
1973 658 1 4.2380000000000001e-01 8.1467221742900042e-01 -4.6934877755458118e+00 -2.2340861219526158e+01 0 0 -1
1587 529 1 4.2380000000000001e-01 2.8839500783240686e+00 -4.5246779392158523e+00 -1.9477446877516464e+01 0 0 0
2778 926 1 4.2380000000000001e-01 1.1108834221582258e+01 -1.1805258136360997e+01 -2.3783161075308374e+01 -3 1 2
1225 409 2 -8.4760000000000002e-01 8.4972915397922808e+00 -1.0041526298523536e+01 -1.8672833184971346e+01 -1 -1 0
1928 643 1 4.2380000000000001e-01 1.1072615646621161e+01 -1.0145002204941676e+01 -2.0383830669390978e+01 -2 1 2
2053 685 2 -8.4760000000000002e-01 6.8532355724974856e+00 -1.1109380634596830e+01 -2.2414906090171524e+01 -4 -2 1
2564 855 1 4.2380000000000001e-01 1.2236520343173538e+01 -8.2608737635545282e+00 -2.1116124469834144e+01 1 -3 1
1355 452 1 4.2380000000000001e-01 9.3103356101636159e+00 -1.0352558154586788e+01 -2.4179544006607852e+01 -3 -1 0
1593 531 1 4.2380000000000001e-01 5.5193444615115750e+00 -8.6386723750261716e+00 -1.9526917609217808e+01 -3 2 -1
1032 344 1 4.2380000000000001e-01 6.2023000511121831e+00 -8.5482861891663493e+00 -2.3682694820564787e+01 0 1 1
1226 409 1 4.2380000000000001e-01 8.4923393174198694e+00 -9.3426013631075300e+00 -1.9388011072036733e+01 -1 -1 0
1354 452 2 -8.4760000000000002e-01 8.9560477779321079e+00 -9.9692622864604452e+00 -2.3326570144517124e+01 -3 -1 0
2054 685 1 4.2380000000000001e-01 6.0460098014399657e+00 -1.0697269864236048e+01 -2.2837459361953005e+01 -4 -2 1
2563 855 2 -8.4760000000000002e-01 1.1672883955677836e+01 -9.0271672698095333e+00 -2.1424520781359110e+01 1 -3 1
840 280 1 4.2380000000000001e-01 1.0130552740242941e+01 -8.3275736724435987e+00 -2.0699004351530782e+01 1 -2 2
838 280 2 -8.4760000000000002e-01 9.1591690512591075e+00 -8.4151528153550785e+00 -2.0919783930529956e+01 1 -2 2
1356 452 1 4.2380000000000001e-01 9.5697504061700318e+00 -1.0207512554710766e+01 -2.2573837858925149e+01 -3 -1 0
2776 926 2 -8.4760000000000002e-01 1.1234177457307938e+01 -1.1486955971162939e+01 -2.4722827401664727e+01 -3 1 2
3012 1004 1 4.2380000000000001e-01 1.0621103087186128e+01 -1.1952992715773666e+01 -2.1380886704029123e+01 1 0 0
1929 643 1 4.2380000000000001e-01 1.0012671141844304e+01 -1.0574576809018049e+01 -1.9218236485524891e+01 -2 1 2
1591 531 2 -8.4760000000000002e-01 5.5819009901971191e+00 -7.9677684742546662e+00 -1.8788016643831785e+01 -3 2 -1
839 280 1 4.2380000000000001e-01 8.9129350547345236e+00 -7.7391121435372217e+00 -2.1614289386954589e+01 1 -2 2
2877 959 1 4.2380000000000001e-01 7.4494327842238270e+00 -1.2256335165108693e+01 -2.1201809123135085e+01 3 2 2
1579 527 2 -8.4760000000000002e-01 4.5286144001186646e+00 -9.9316422213840383e+00 -2.0710597340969851e+01 1 1 0
3010 1004 2 -8.4760000000000002e-01 1.0403490748460534e+01 -1.2310377618266713e+01 -2.2289138266925885e+01 1 0 0
2055 685 1 4.2380000000000001e-01 7.6561585633803606e+00 -1.0546460342820147e+01 -2.2610955614062178e+01 -4 -2 1
92 31 1 4.2380000000000001e-01 1.0516420196885152e+01 -6.8802895173378422e+00 -1.8151882001237901e+01 -1 1 -1
1031 344 1 4.2380000000000001e-01 4.7759421823868475e+00 -8.8994208497970249e+00 -2.4396020956049515e+01 0 1 1
2565 855 1 4.2380000000000001e-01 1.2152402476155755e+01 -9.5236259861571995e+00 -2.2148116477505162e+01 1 -3 1
2385 795 1 4.2380000000000001e-01 1.2369076090294241e+01 -1.2209522225104937e+01 -1.9866365057531151e+01 -2 0 0
1030 344 2 -8.4760000000000002e-01 5.3132862104413041e+00 -8.9886888184511093e+00 -2.3557395518034077e+01 0 1 1
1580 527 1 4.2380000000000001e-01 4.6336750751940441e+00 -9.4214849213880161e+00 -2.1564237653873054e+01 1 1 0
1303 435 2 -8.4760000000000002e-01 1.2331954219223917e+01 -7.0230738634730150e+00 -2.4126068759650749e+01 -2 0 1
1927 643 2 -8.4760000000000002e-01 1.0920052280767177e+01 -1.0748234629929804e+01 -1.9600992844013177e+01 -2 1 2
915 305 1 4.2380000000000001e-01 8.7730088957195793e+00 -6.5493121794304310e+00 -2.3906356801333324e+01 2 0 1
1304 435 1 4.2380000000000001e-01 1.1815337091970088e+01 -7.5466943358576577e+00 -2.4803511262545044e+01 -2 0 1
2363 788 1 4.2380000000000001e-01 5.6616678603036590e+00 -6.4105931606061164e+00 -1.8132607160017177e+01 -1 -2 2
2777 926 1 4.2380000000000001e-01 1.1785118362096814e+01 -1.2150586897866182e+01 -2.5228849251542190e+01 -3 1 2
1106 369 1 4.2380000000000001e-01 5.0265946452132360e+00 -6.2136910153831586e+00 -2.3344744582998661e+01 -1 2 0
914 305 1 4.2380000000000001e-01 7.9561441200423326e+00 -5.3484018616999558e+00 -2.3159916688422232e+01 2 0 1
913 305 2 -8.4760000000000002e-01 8.2789492379556631e+00 -6.2911523388564676e+00 -2.3076140834680650e+01 2 0 1
616 206 2 -8.4760000000000002e-01 6.0130261100261269e+00 -4.5592100100836985e+00 -2.0298778484182780e+01 -3 -2 0
2498 833 1 4.2380000000000001e-01 8.8792020188786864e+00 -6.0448235084843285e+00 -1.9861185371260991e+01 -2 -1 0
1916 639 1 4.2380000000000001e-01 1.2437059939118161e+01 -5.8070097804052034e+00 -1.9659468900318455e+01 1 0 0
2497 833 2 -8.4760000000000002e-01 8.8074352715542990e+00 -5.3159006904028967e+00 -2.0542009180523490e+01 -2 -1 0
618 206 1 4.2380000000000001e-01 6.9926145380642648e+00 -4.7180437167299862e+00 -2.0421978992650775e+01 -3 -2 0
1107 369 1 4.2380000000000001e-01 4.6482871156348207e+00 -5.3026430606455524e+00 -2.2043398536641590e+01 -1 2 0
2499 833 1 4.2380000000000001e-01 8.6877002575749103e+00 -5.7181812545893145e+00 -2.1449662128574239e+01 -2 -1 0
1917 639 1 4.2380000000000001e-01 1.1320023813332675e+01 -4.7956897530484390e+00 -1.9030113205108069e+01 1 0 0
617 206 1 4.2380000000000001e-01 5.7591150151187191e+00 -4.7604858778265733e+00 -1.9352725007392344e+01 -3 -2 0
1105 369 2 -8.4760000000000002e-01 4.7594690333257139e+00 -5.3004233351616064e+00 -2.3037196128708178e+01 -1 2 0
1915 639 2 -8.4760000000000002e-01 1.1770622921233160e+01 -5.6821396268653981e+00 -1.8924438869675154e+01 1 0 0
2475 825 1 4.2380000000000001e-01 -9.5036085840702729e+00 -3.9679943082762192e+00 -1.8656703469535550e+01 1 -2 2
151 51 2 -8.4760000000000002e-01 -7.8679303139213621e+00 -1.1777312162549871e+00 -2.0374112191082940e+01 0 0 1
202 68 2 -8.4760000000000002e-01 -1.1228785463848896e+01 -3.5465024991866806e-01 -2.4777209916520778e+01 0 -3 -1
231 77 1 4.2380000000000001e-01 -5.5381125669557232e+00 -1.6672836681148753e+00 -2.4393794141359191e+01 0 -1 0
229 77 2 -8.4760000000000002e-01 -6.1752732457449566e+00 -2.4116115964003568e+00 -2.4593799652730969e+01 0 -1 0
1275 425 1 4.2380000000000001e-01 -1.1898626191089773e+01 -3.6101902392065637e+00 -2.4623139601706065e+01 1 -1 2
930 310 1 4.2380000000000001e-01 -6.7639364606135599e+00 -1.8236857979421768e+00 -1.8663711115371793e+01 0 -2 -1
342 114 1 4.2380000000000001e-01 -7.9414109627376268e+00 -3.4368552763705296e+00 -2.0501796295773818e+01 -5 3 2
944 315 1 4.2380000000000001e-01 -5.5248128854524676e+00 -3.5231938203338964e+00 -2.3460308155657941e+01 2 -1 1
203 68 1 4.2380000000000001e-01 -1.2063704916551377e+01 -8.9499916317344130e-01 -2.4672651036250503e+01 0 -3 -1
559 187 2 -8.4760000000000002e-01 -1.1608226494017808e+01 -2.0580554746990112e+00 -2.0965354327389814e+01 2 3 1
987 329 1 4.2380000000000001e-01 -8.1779302874187874e+00 -9.3015998227416030e-01 -2.3466273812757748e+01 4 -4 1
1274 425 1 4.2380000000000001e-01 -1.2029381349922852e+01 -3.4280016003897908e+00 -2.3005630132348589e+01 1 -1 2
943 315 2 -8.4760000000000002e-01 -5.2652954627759980e+00 -4.0909014788238993e+00 -2.2679053573707115e+01 2 -1 1
2473 825 2 -8.4760000000000002e-01 -9.5674551931535152e+00 -3.1406014772386706e+00 -1.8098720751473209e+01 1 -2 2
1835 612 1 4.2380000000000001e-01 -1.1480011317972668e+01 -1.7079897459779483e-01 -1.8647007157199926e+01 0 -1 0
1273 425 2 -8.4760000000000002e-01 -1.1568040746192553e+01 -3.9318839096678038e+00 -2.3735881777842401e+01 1 -1 2
945 315 1 4.2380000000000001e-01 -6.0269204366470390e+00 -4.1366354349349912e+00 -2.2032651373498638e+01 2 -1 1
561 187 1 4.2380000000000001e-01 -1.2493415625211005e+01 -1.9105192452332842e+00 -2.1406572258816521e+01 2 3 1
153 51 1 4.2380000000000001e-01 -8.4769425908291733e+00 -8.9901652085191497e-01 -2.1116690244315009e+01 0 0 1
2474 825 1 4.2380000000000001e-01 -1.0143660600860084e+01 -2.4685491739563488e+00 -1.8563836898024402e+01 1 -2 2
560 187 1 4.2380000000000001e-01 -1.0900902869951544e+01 -1.5532282117692109e+00 -2.1460170177419467e+01 2 3 1
152 51 1 4.2380000000000001e-01 -7.7592232363350293e+00 -4.2042449879010785e-01 -1.9730163973471296e+01 0 0 1
1416 472 1 4.2380000000000001e-01 -4.2978414318358427e+00 -2.5888525711554838e-01 -2.0213849288725829e+01 1 -1 -1
986 329 1 4.2380000000000001e-01 -9.7955793009624887e+00 -9.4502326597420694e-01 -2.3689023104373266e+01 4 -4 1
1415 472 1 4.2380000000000001e-01 -5.2619631915787553e+00 -3.0347308530583694e-01 -2.1531084139883347e+01 1 -1 -1
985 329 2 -8.4760000000000002e-01 -9.0512469614273776e+00 -1.2386066881460736e+00 -2.3089208014076220e+01 4 -4 1
1414 472 2 -8.4760000000000002e-01 -4.4988243950171647e+00 1.7210394469392226e-01 -2.1093539095666028e+01 1 -1 -1
2932 978 2 -8.4760000000000002e-01 -1.0491391196278277e+01 7.7906181184474488e-01 -2.0975483264268032e+01 -2 -1 1
2550 850 1 4.2380000000000001e-01 -6.2363711401671340e+00 1.5816988614369367e+00 -2.0011384838987759e+01 6 -3 0
1297 433 2 -8.4760000000000002e-01 -8.2798038615742691e+00 6.2403389779592688e-01 -1.8303166018295862e+01 3 -2 0
2934 978 1 4.2380000000000001e-01 -1.0305785691651071e+01 1.5533322557262703e+00 -2.0370457747133766e+01 -2 -1 1
2549 850 1 4.2380000000000001e-01 -5.6456042741154997e+00 3.1034538854809695e+00 -1.9967995302129793e+01 6 -3 0
256 86 2 -8.4760000000000002e-01 -1.1119483771426905e+01 2.3409082500127361e+00 -2.4033069377316274e+01 2 -4 1
1875 625 1 4.2380000000000001e-01 -4.5710585226038596e+00 1.6773743361910842e+00 -2.2471832695324146e+01 -4 0 2
1873 625 2 -8.4760000000000002e-01 -4.7799833334031936e+00 2.1536922796745670e+00 -2.3325923814671569e+01 -4 0 2
1838 613 1 4.2380000000000001e-01 -1.1555775579689767e+01 3.8240292858719949e+00 -2.0655565771813304e+01 -2 3 2
2639 880 1 4.2380000000000001e-01 -8.9562508344165241e+00 2.1787063735121519e+00 -2.2926971466964677e+01 3 1 0
2933 978 1 4.2380000000000001e-01 -9.9847432213239848e+00 8.9473049396075355e-01 -2.1829841845574652e+01 -2 -1 1
257 86 1 4.2380000000000001e-01 -1.2083852811409578e+01 2.5773949101133873e+00 -2.4151671292635282e+01 2 -4 1
1544 515 1 4.2380000000000001e-01 -9.0659130489903745e+00 4.1524860689976979e+00 -1.9676780252677855e+01 -5 1 1
1543 515 2 -8.4760000000000002e-01 -8.8886061023324672e+00 3.7442984687374450e+00 -2.0572294144061249e+01 -5 1 1
2640 880 1 4.2380000000000001e-01 -7.3984512026549094e+00 1.7005628463611249e+00 -2.2820832078124230e+01 3 1 0
2548 850 2 -8.4760000000000002e-01 -6.1925010512218073e+00 2.4546865389315835e+00 -2.0497150142646255e+01 6 -3 0
1545 515 1 4.2380000000000001e-01 -7.9206988162370902e+00 3.5031205293093923e+00 -2.0642924782290844e+01 -5 1 1
2638 880 2 -8.4760000000000002e-01 -8.3501073006910893e+00 1.4118481444580873e+00 -2.2715977455071197e+01 3 1 0
2724 908 1 4.2380000000000001e-01 -5.7474814068462798e+00 4.0001737355769142e+00 -2.3105749688675068e+01 5 -2 0
204 68 1 4.2380000000000001e-01 -1.1414093389572800e+01 5.9638979571269746e-01 -2.4529856314830010e+01 0 -3 -1
258 86 1 4.2380000000000001e-01 -1.0610316632906752e+01 3.1520759716414295e+00 -2.3745396381644252e+01 2 -4 1
2642 881 1 4.2380000000000001e-01 -3.6210940831363563e+00 -5.4800785044120559e-01 -2.5107412261224635e+01 -1 -2 -1
1655 552 1 4.2380000000000001e-01 -7.4156582490260992e-01 -1.0333215837223457e+00 -2.3302710787251435e+01 -3 -2 0
2927 976 1 4.2380000000000001e-01 -4.1664910930241810e+00 -2.1494077214833553e+00 -1.8266637326488251e+01 1 -1 0
1833 611 1 4.2380000000000001e-01 -3.9802729654393629e+00 -3.8670654647266640e+00 -2.1642990368689727e+01 1 1 -1
2641 881 2 -8.4760000000000002e-01 -3.8769179741155213e+00 -8.5653902754581646e-01 -2.4191244891385086e+01 -1 -2 -1
2928 976 1 4.2380000000000001e-01 -4.0635863656030349e+00 -2.3664720106953956e+00 -1.9881852546376834e+01 1 -1 0
1831 611 2 -8.4760000000000002e-01 -3.4061203970057212e+00 -3.5037429100005286e+00 -2.0909270020472281e+01 1 1 -1
2574 858 1 4.2380000000000001e-01 -2.5717865443302684e-01 -2.7051380465490196e+00 -2.5222257884451412e+01 0 1 2
1832 611 1 4.2380000000000001e-01 -2.4861260771798692e+00 -3.3303581461601204e+00 -2.1260764224060583e+01 1 1 -1
2926 976 2 -8.4760000000000002e-01 -4.0880032299455440e+00 -1.6861276866058994e+00 -1.9149366766709484e+01 1 -1 0
2643 881 1 4.2380000000000001e-01 -3.1589393089671400e+00 -6.0497065893740609e-01 -2.3542230259572015e+01 -1 -2 -1
1654 552 2 -8.4760000000000002e-01 -1.2063307301866473e-01 -1.6314339979433570e+00 -2.3809370493161175e+01 -3 -2 0
3045 1015 1 4.2380000000000001e-01 -1.9781769049959252e+00 3.6521982315627741e+00 -2.2080661250062551e+01 -4 -2 0
1240 414 2 -8.4760000000000002e-01 -1.6943915683631481e+00 1.7147391381982482e+00 -1.9340475010010923e+01 1 3 0
1775 592 1 4.2380000000000001e-01 -2.9178835218245864e+00 3.7908241460315260e-02 -2.1702418335960747e+01 1 0 -2
1241 414 1 4.2380000000000001e-01 -1.9856509104512849e+00 2.4829005791660763e+00 -1.8770303109390927e+01 1 3 0
380 127 1 4.2380000000000001e-01 -1.7921814474216773e+00 3.4762038485842006e+00 -2.4939915817954173e+01 -3 0 3
3044 1015 1 4.2380000000000001e-01 -3.3085065307082622e+00 2.7207967960179342e+00 -2.1909369253887711e+01 -4 -2 0
1242 414 1 4.2380000000000001e-01 -1.8273144336522131e+00 1.9458229979912094e+00 -2.0304286071177234e+01 1 3 0
956 319 1 4.2380000000000001e-01 -1.5966194875120552e+00 3.6063355354342720e-02 -1.8137371983965092e+01 -1 1 1
1874 625 1 4.2380000000000001e-01 -4.0645807909245582e+00 1.9623041352111326e+00 -2.3997913234509369e+01 -4 0 2
3043 1015 2 -8.4760000000000002e-01 -2.3125721995136059e+00 2.7132978749689900e+00 -2.1999138815159640e+01 -4 -2 0
1776 592 1 4.2380000000000001e-01 -1.7241769249483700e+00 1.0414399026558017e+00 -2.2186789330848868e+01 1 0 -2
1774 592 2 -8.4760000000000002e-01 -2.0415500734324130e+00 9.3157180050573288e-02 -2.2180944450205033e+01 1 0 -2
1586 529 1 4.2380000000000001e-01 3.8759855855575012e+00 -3.7216237315087977e+00 -2.0496071433969220e+01 0 0 0
2831 944 1 4.2380000000000001e-01 3.6221623646432843e+00 -2.8656814031037676e+00 -2.3296911028483500e+01 4 -1 2
1033 345 2 -8.4760000000000002e-01 5.7495867490893482e-01 -3.2116798910145592e+00 -1.8809593859760685e+01 -3 2 1
1656 552 1 4.2380000000000001e-01 1.8754130581487663e-01 -2.3732777278013875e+00 -2.3213806531272208e+01 -3 -2 0
1972 658 2 -8.4760000000000002e-01 1.5411005121961194e-01 -4.1398245290110571e+00 -2.1833796495837593e+01 0 0 -1
1585 529 2 -8.4760000000000002e-01 2.9243001478807593e+00 -3.8561354770788094e+00 -2.0220025390676188e+01 0 0 0
2016 672 1 4.2380000000000001e-01 2.7543092196157617e+00 -4.9937505707381546e-01 -2.2586380861546253e+01 1 4 1
2830 944 2 -8.4760000000000002e-01 2.7904919115989437e+00 -2.6276761957787169e+00 -2.2795236055199815e+01 4 -1 2
1035 345 1 4.2380000000000001e-01 1.3616994191260312e+00 -3.3710856185648046e+00 -1.9405940080854531e+01 -3 2 1
2985 995 1 4.2380000000000001e-01 2.0667162868476017e+00 -2.1517457767772230e+00 -2.4967023205483311e+01 0 2 0
2832 944 1 4.2380000000000001e-01 2.4275285022587041e+00 -3.4437104353898316e+00 -2.2345407550920218e+01 4 -1 2
1034 345 1 4.2380000000000001e-01 5.3588399259326813e-01 -2.2438825985345003e+00 -1.8560914206652118e+01 -3 2 1
132 44 1 4.2380000000000001e-01 2.6655155111863440e+00 2.8598753185926018e+00 -1.8685766081272284e+01 -2 0 0
2431 811 2 -8.4760000000000002e-01 3.3619646255705820e+00 3.7348534446812423e+00 -2.2004437437616183e+01 -4 0 0
131 44 1 4.2380000000000001e-01 1.1836100060046761e+00 2.1763817764476459e+00 -1.8627292611263375e+01 -2 0 0
324 108 1 4.2380000000000001e-01 4.0318141877935449e+00 3.4942577398048152e-01 -2.0405522235190322e+01 3 0 1
3049 1017 2 -8.4760000000000002e-01 4.1013176951181567e+00 3.2260381113610652e+00 -1.9501099202317803e+01 1 -3 1
2432 811 1 4.2380000000000001e-01 2.6446666788288344e+00 3.8186688643895126e+00 -2.2696144478941626e+01 -4 0 0
2014 672 2 -8.4760000000000002e-01 2.9989174408128125e+00 4.5270006474925711e-01 -2.2402751396240717e+01 1 4 1
1828 610 2 -8.4760000000000002e-01 3.0269192203303623e+00 1.6601537649463025e+00 -2.5166423801964591e+01 -1 -3 0
2284 762 2 -8.4760000000000002e-01 9.2117281004251617e-01 8.0329101691156157e-01 -2.0955087365230447e+01 -1 1 0
1830 610 1 4.2380000000000001e-01 3.3314843439829120e+00 2.5872472645403404e+00 -2.4947934148971623e+01 -1 -3 0
130 44 2 -8.4760000000000002e-01 1.9791047194308755e+00 2.4486867565155115e+00 -1.8085962620646551e+01 -2 0 0
2286 762 1 4.2380000000000001e-01 1.5584876490676520e+00 1.1290298274776911e+00 -2.1653459775373726e+01 -1 1 0
3051 1017 1 4.2380000000000001e-01 3.6365896354766027e+00 3.2911055538857314e+00 -2.0384158689841207e+01 1 -3 1
2015 672 1 4.2380000000000001e-01 3.1653398241045156e+00 9.2679260303209265e-01 -2.3267355268244565e+01 1 4 1
2285 762 1 4.2380000000000001e-01 2.6397085242536683e-01 1.7458880990518455e-01 -2.1370802558372937e+01 -1 1 0
1697 566 1 4.2380000000000001e-01 5.6132983797050260e+00 -3.6888776066859479e+00 -2.3801253286166055e+01 -1 0 1
1233 411 1 4.2380000000000001e-01 7.3784255036419406e+00 -2.6548841038548767e+00 -2.3032690361805450e+01 -1 -4 0
2836 946 2 -8.4760000000000002e-01 6.5841161965655601e+00 -1.6222803801248655e+00 -2.0194867317925230e+01 8 -2 3
1232 411 1 4.2380000000000001e-01 8.5998284382218682e+00 -3.2033330273482203e+00 -2.2097807938794400e+01 -1 -4 0
2838 946 1 4.2380000000000001e-01 6.2295881915785269e+00 -2.5239014192966462e+00 -2.0442636152532636e+01 8 -2 3
1448 483 1 4.2380000000000001e-01 1.2323217573670698e+01 -2.6368805523800725e+00 -1.9798983467382868e+01 2 1 0
1940 647 1 4.2380000000000001e-01 6.3051439542874679e+00 -1.3335381935702475e+00 -2.4864656904967866e+01 -2 0 -2
16 6 2 -8.4760000000000002e-01 9.1387584426398281e+00 -2.6040212885321128e+00 -2.0464356146149751e+01 -3 1 -2
1082 361 1 4.2380000000000001e-01 7.3058243020337450e+00 -1.6979205059331779e+00 -1.8225693915320871e+01 -1 4 1
2327 776 1 4.2380000000000001e-01 1.0317457307459161e+01 -1.9695573318220168e+00 -2.1999617324998727e+01 3 1 1
2328 776 1 4.2380000000000001e-01 1.1291912539066896e+01 -1.6062277515334047e+00 -2.3258607044105315e+01 3 1 1
1939 647 2 -8.4760000000000002e-01 6.3407690149235831e+00 -3.6517391724963544e-01 -2.5111641688711174e+01 -2 0 -2
2837 946 1 4.2380000000000001e-01 5.8900969084140247e+00 -9.2766869403320940e-01 -2.0384213121202045e+01 8 -2 3
1696 566 2 -8.4760000000000002e-01 5.4446832015968116e+00 -2.8712141506763142e+00 -2.4351703460494232e+01 -1 0 1
17 6 1 4.2380000000000001e-01 9.2899553885216619e+00 -3.4055583412310213e+00 -1.9885842674649947e+01 -3 1 -2
1449 483 1 4.2380000000000001e-01 1.1049235555976445e+01 -1.8311141784800100e+00 -1.9171020996832198e+01 2 1 0
18 6 1 4.2380000000000001e-01 8.2295995353612419e+00 -2.2289932002258253e+00 -2.0283292581904096e+01 -3 1 -2
1231 411 2 -8.4760000000000002e-01 8.0564562783484224e+00 -3.3809608337638428e+00 -2.2918292587195843e+01 -1 -4 0
1447 483 2 -8.4760000000000002e-01 1.1720447298054770e+01 -2.5536456583082474e+00 -1.9005421908811165e+01 2 1 0