LAMMPS data file via write_data, version 22 Oct 2015

2000 atoms
1 atom types

-5.2899799999999999e+00 5.2899799999999999e+00 xlo xhi
-5.2899799999999999e+00 5.2899799999999999e+00 ylo yhi
-1.0580000000000000e+01 1.0580000000000000e+01 zlo zhi

Masses

1 1

Atoms # atomic

1508 1 -4.3065164502170745e+00 -4.7081818419634986e+00 -9.2705287645112708e+00 1 0 1
211 1 -4.3548904349882971e+00 -4.5505255969882654e+00 -1.0341151354780072e+01 3 -1 0
321 1 -5.2607004796696168e+00 -5.1744344770322392e+00 -1.0133921721297860e+01 2 2 0
1550 1 -4.9173507387639868e+00 -3.7918859166988863e+00 -1.0499082533650549e+01 0 2 -1
1633 1 -4.5821650522506845e+00 -3.7008423484395312e+00 -8.8838551898478020e+00 1 -2 1
188 1 -3.8676136817185967e+00 -3.5923523485196340e+00 -1.0422873433420660e+01 -1 0 -1
347 1 -3.3550431237972282e+00 -4.7894325586883495e+00 -9.8850639482053229e+00 -2 3 2
1642 1 -3.5247966757141778e+00 -3.8119862370719804e+00 -9.3545897863868746e+00 5 -2 0
1834 1 -2.7923537812483707e+00 -3.9493793140178122e+00 -1.0255980086682600e+01 0 0 0
659 1 -2.4513236825531974e+00 -4.6008078772529171e+00 -9.3321440597155743e+00 -2 2 2
1156 1 -1.4395618158600838e+00 -4.4248187746306282e+00 -8.7017737762661671e+00 2 -2 0
990 1 -1.5809842073326348e+00 -4.8250593657202989e+00 -9.9381220658823519e+00 2 -2 0
738 1 -1.6770507558935723e+00 -3.8201795137927070e+00 -9.6638918456396610e+00 -2 2 1
698 1 -6.5076363806729765e-01 -4.3677579825367179e+00 -9.6002540688356053e+00 0 1 0
1418 1 1.0831154078419589e+00 -3.8958994986249440e+00 -1.0232182478333563e+01 2 -1 -1
611 1 2.2621707237230029e-01 -3.8542433661144595e+00 -9.2689757503265078e+00 2 0 -1
813 1 1.3100645930083652e+00 -4.4866761594431157e+00 -9.3798429807029624e+00 -1 -3 0
870 1 2.0158273393744638e-01 -5.0082939562193260e+00 -9.1489966694071434e+00 1 -2 -1
1678 1 1.3373329104132932e+00 -5.2232326444703565e+00 -1.0204251390591837e+01 -2 -2 2
373 1 2.4646377792039362e-01 -4.6041155728234555e+00 -1.0284537950576855e+01 -2 2 2
1754 1 2.5249534875716839e+00 5.2806170383369366e+00 -1.0231271800910989e+01 0 0 2
1133 1 3.3274313584015855e+00 -4.2402802022847315e+00 -9.2918942336724637e+00 0 2 -1
246 1 2.1426149084635417e+00 -3.8081151342787907e+00 -9.2765284740347216e+00 6 1 1
1260 1 2.2842811332981920e+00 -4.8926992443353567e+00 -9.3035893978518125e+00 4 -1 -1
407 1 2.3349020948008987e+00 -4.2472967797924577e+00 -1.0218829770418965e+01 0 -1 -1
1902 1 3.4809972746792641e+00 -4.2158683718770913e+00 -1.0449837891861435e+01 -1 1 1
223 1 4.2660171821879160e+00 -4.0235862202611026e+00 -8.8779221340936907e+00 -1 -2 -1
912 1 4.2779248987980161e+00 -4.9263479855192225e+00 -9.7780907726178636e+00 2 0 1
1786 1 4.5168702890402130e+00 -3.8376412198375753e+00 -1.0192582579710352e+01 -3 1 -1
992 1 5.2452253935682887e+00 -4.3666078118658245e+00 -9.2056242833519519e+00 -2 0 -1
124 1 -5.1598816326305279e+00 -2.2356594502843889e+00 -9.2457003650042981e+00 -2 0 1
1883 1 -4.4727826381041949e+00 -3.0875221380317908e+00 -9.8292434792333268e+00 0 -1 0
979 1 -3.9387130508761321e+00 -2.3822963123922247e+00 -9.2415690954631078e+00 -4 -3 -1
1575 1 -3.7233763434170712e+00 -1.8033537838540294e+00 -1.0252559095899969e+01 0 -2 0
1036 1 -4.7788957831382213e+00 -1.7098832849598533e+00 -1.0097317168778183e+01 0 1 2
1436 1 -2.6481931167024109e+00 -3.2920600723345355e+00 -8.8482166291090305e+00 -2 0 -1
823 1 -3.1523438870569023e+00 -2.7692670374509682e+00 -9.9156583253190345e+00 2 -3 2
1932 1 -2.0652400902833685e+00 -2.8021564224057269e+00 -9.7360535334579161e+00 1 1 2
122 1 -2.5516941631352537e+00 -2.2559291228842588e+00 -8.9126972147690555e+00 -3 2 0
26 1 -2.7232376956790194e+00 -1.8636808021554112e+00 -9.9243798686118296e+00 2 2 -1
1506 1 -1.7871185737949111e-01 -2.4546232972006510e+00 -1.0262563588814382e+01 1 2 0
1854 1 -1.3894676173504579e+00 -1.9983601596262850e+00 -9.7489739854537945e+00 -1 -3 2
29 1 -1.0433388317233880e+00 -3.0214954784924677e+00 -9.9728392742250733e+00 -6 -2 0
1438 1 -6.9849702381312950e-01 -3.3691334521728398e+00 -9.0679042282038331e+00 -1 2 2
1890 1 -4.8722665598735954e-01 -2.1353530400864922e+00 -9.2034478503250448e+00 -1 -1 1
1924 1 8.2919690699297066e-01 -2.8221488290246430e+00 -9.6583008701380546e+00 1 -1 0
544 1 1.5493954608246174e+00 -1.8822419778949842e+00 -1.0022339168142267e+01 -1 -2 -1
1870 1 1.0325036542233888e-01 -3.4705263515925791e+00 -1.0380164197237502e+01 -2 2 0
985 1 1.8364578462374392e+00 -3.1797647061364289e+00 -1.0429642084887893e+01 0 0 0
1027 1 2.8525842079840187e+00 -3.3171402738631892e+00 1.0572458944956622e+01 -2 1 1
1384 1 2.7133052271477247e+00 -2.2272461869677627e+00 -1.0063701542203306e+01 2 4 1
1765 1 2.9500955124820347e+00 -2.1019554152496265e+00 -8.9263024418442960e+00 2 3 0
936 1 4.6061272968137441e+00 -1.8426127049739593e+00 -9.8829420364827705e+00 2 -4 0
1135 1 3.4766208783139008e+00 -3.0666965103223762e+00 -8.9093866077629258e+00 -3 1 0
1252 1 3.8466904959142671e+00 -2.6222772506365697e+00 -1.0048284467939853e+01 1 -3 0
853 1 5.1034976267650221e+00 -3.2430133401476890e+00 -9.1090601355388152e+00 0 1 -1
793 1 4.1145293425811804e+00 -2.1865852027038017e+00 -8.9602389357446128e+00 2 4 0
1655 1 5.0128462346121054e+00 -2.8485133615287235e+00 -1.0249555439179495e+01 -2 -1 1
1190 1 -4.7467396028746558e+00 -6.5664404099874352e-01 -9.9478766905266891e+00 1 5 1
918 1 -4.2181958225882639e+00 -1.3661327822007068e+00 -9.3847999597572827e+00 3 0 2
603 1 -3.8262568971721898e+00 -6.1353144291555517e-01 -8.7532719447140490e+00 1 0 0
1778 1 -3.2995920281022411e+00 -9.0705010474492609e-01 -9.8132113084858794e+00 2 1 2
1950 1 -2.4918463755034064e+00 -2.4089985326676891e-01 -1.0132587603020363e+01 4 1 0
1889 1 -1.9797981752229987e+00 -1.1579800404414256e+00 -9.2862478615385786e+00 0 -6 1
1952 1 -1.5409914558824256e+00 -1.0193833295305144e+00 -1.0215426172953045e+01 5 0 1
1141 1 -9.3278715871297557e-01 -8.4891976096834809e-01 -9.1758854226576574e+00 -1 -5 -1
919 1 -5.9251791818073418e-01 -1.4812645359579977e+00 -1.0485655550848412e+01 0 1 -1
492 1 -1.1509247656784241e+00 2.3208371030470281e-02 -1.0064448542890311e+01 2 -1 0
1094 1 5.9377663437744133e-01 -1.2489933690639471e-01 -9.2363980251396836e+00 -1 2 0
1916 1 6.3265510974169978e-03 -7.1733406523268972e-01 -9.9353236561183795e+00 -1 -2 -2
1861 1 4.7731727185105238e-01 -1.7779604053981408e+00 -9.7262580490039650e+00 0 -2 -1
837 1 7.0001650522822118e-02 -1.2555871161118100e+00 -8.8983366968754503e+00 -1 1 -1
1578 1 1.2416783751871190e+00 -1.0239521063265633e+00 -9.5545028726411445e+00 4 2 0
320 1 1.0803721588815585e+00 -4.5470030432612968e-01 -1.0491795705405272e+01 -1 0 0
1520 1 1.9073705305369322e+00 -9.6564330892395481e-02 -1.0001666166280916e+01 0 -1 1
571 1 2.1966108993284283e+00 -6.0127543793285243e-01 -8.9822838379360643e+00 2 0 3
1583 1 2.4615965198757568e+00 -1.1889037376220046e+00 -9.8056209135970107e+00 -2 1 2
771 1 3.1909804848481191e+00 -7.5618529284493141e-01 -1.0329859005495743e+01 2 -1 0
815 1 4.1385667864516344e+00 -7.5442045180931583e-01 -1.0162767984799272e+01 -2 -1 1
811 1 3.5596084078945598e+00 -1.6472914527766402e+00 -9.8205957806526101e+00 4 -1 -1
65 1 3.5468782464659920e+00 -7.1563010751676703e-01 -9.2158140144876732e+00 -2 -2 1
1483 1 -5.2671438620331577e+00 -1.1434790343871044e+00 -9.1201155870669073e+00 -5 -1 -1
1780 1 -4.2318100753945558e+00 1.4022614275522178e+00 -9.6002778010205336e+00 -2 1 1
1515 1 -3.9005319079475300e+00 9.9438219266300087e-02 -9.7110898407878725e+00 -6 -2 1
515 1 -4.9733904100809667e+00 1.0494522305584588e+00 -1.0465171899963636e+01 0 1 1
874 1 -2.7938191086141346e+00 -7.0814518298923462e-02 -9.0713083406866986e+00 2 1 -1
821 1 -3.0450940831745683e+00 7.0277273727419187e-01 -1.0109785172203731e+01 -1 0 0
1204 1 -1.9946816955553484e+00 6.0476342696166585e-01 -9.5961594220552850e+00 -2 -3 0
1962 1 -2.8740672357144752e+00 1.2059017642317567e+00 -9.1947047149424872e+00 1 -3 -1
1562 1 -2.1471544513641474e+00 1.5641087304817196e+00 -1.0200587085698707e+01 3 4 0
1197 1 -1.2382318001273847e+00 1.3660931817524624e+00 -9.2936288852217377e+00 2 -1 2
1725 1 -1.5481104036217544e-01 1.2443450783357162e+00 -9.1972705723506483e+00 0 0 1
1928 1 -1.0085940625944640e+00 2.0223226879494804e-01 -8.8525788877125837e+00 -4 -4 1
1793 1 -8.9966027121655345e-01 1.0691649954333626e+00 1.0559539894170777e+01 3 4 -1
110 1 1.6952571394749305e+00 1.0215640926575507e+00 -1.0287831953356932e+01 0 -4 0
1511 1 8.1316889824425154e-01 5.5316613705248319e-01 -1.0203234478005369e+01 0 3 2
134 1 1.5439044132565567e+00 5.2640592869647174e-01 -9.1922304440427158e+00 -1 -2 0
1624 1 1.1539265644480388e-01 1.3758591242656926e+00 -1.0473460026540160e+01 2 2 1
1619 1 2.8012778660724256e+00 1.4587726451895441e-01 -9.6178107737378671e+00 -1 -1 0
1269 1 2.6542521990478956e+00 8.0741779369604783e-01 -8.8392205968179614e+00 1 1 -2
1873 1 3.3502026099420785e+00 7.9817121632393995e-01 1.0563349790926942e+01 -1 -1 -1
975 1 3.5469641797325484e+00 1.1394053608629644e+00 -9.4635432247060862e+00 3 -5 -2
1286 1 2.6160052347549811e+00 1.4259174943987396e+00 -1.0059126012736240e+01 2 -2 1
1373 1 3.9079878144732354e+00 2.0441075043445486e-01 -9.7068814180096474e+00 -4 -3 1
1598 1 4.4794265698164857e+00 9.1270417553547001e-01 -9.0140988980499994e+00 -1 4 3
465 1 -5.2268490552803373e+00 1.3165033410215388e+00 -9.4314029283118224e+00 2 0 0
893 1 4.3893126661080277e+00 1.4716481560357615e+00 -1.0051245938727149e+01 1 -2 -2
1052 1 5.2103322050254786e+00 2.2051279798967507e-01 -9.4570131339860950e+00 1 1 0
1816 1 -5.2598062810056749e+00 2.5584858890355289e+00 -8.8013004281352227e+00 2 -1 -1
898 1 -3.7699658077392129e+00 2.1158080055441113e+00 -8.9025339373447689e+00 0 -2 -1
1461 1 -4.4228473453951507e+00 2.8405125428243458e+00 -9.5254859076551028e+00 -1 -2 1
421 1 5.2753262503047909e+00 2.1880904051159065e+00 -1.0020033507535731e+01 -2 -2 0
1824 1 -5.2171893825886100e+00 3.4402836110752921e+00 -9.7363706369833096e+00 2 2 2
1713 1 -3.2805917665312019e+00 1.8934733546576559e+00 -1.0220998929156128e+01 -2 1 2
1675 1 -3.1148234228982337e+00 3.0035334706151700e+00 -1.0337743145346101e+01 -2 -5 1
669 1 -3.1265827796741084e+00 2.6377211918863512e+00 -9.3594158442669642e+00 2 2 0
1430 1 -1.9937180323742623e+00 2.9966542744401510e+00 -1.0004936507575362e+01 -2 -4 1
1706 1 -2.1916549828606748e+00 1.9884408630095869e+00 -9.2847925045451980e+00 0 -1 2
1586 1 -1.2790916710790534e+00 2.2200097970607837e+00 -1.0353519902777103e+01 5 -3 0
1838 1 -2.8097478771317064e-01 2.0725449872227735e+00 -9.6856242660675065e+00 5 -2 0
1948 1 -1.1601626036252282e+00 2.6351914135405896e+00 -9.3355523812699293e+00 -1 1 -1
1498 1 -5.8173537348671800e-01 3.4683450425359945e+00 -9.1563333129708795e+00 0 1 1
1964 1 -6.0540683163568987e-01 3.1765662646320889e+00 -1.0232823068949306e+01 2 3 0
1296 1 8.1219990728772840e-01 1.8455966652666336e+00 -9.8430664095037113e+00 3 0 0
1257 1 3.0826338272155762e-01 2.6400057532206622e+00 -1.0348881959606837e+01 0 -1 2
731 1 1.5549384152045962e+00 2.5144864540700054e+00 -9.6322233519099179e+00 -1 -1 1
1777 1 6.0073552601964897e-01 2.6918924843929939e+00 -8.6545597587114091e+00 0 1 1
109 1 2.5485639251480574e+00 2.6627761120796625e+00 -9.4465608194642474e+00 0 1 0
369 1 3.4273166373121247e+00 2.2135538291832813e+00 -9.8902208094785742e+00 -3 -4 1
423 1 3.3207698822198166e+00 2.8125513817090821e+00 -8.8986962507022742e+00 -1 1 0
1874 1 3.4780465320884200e+00 3.2483912211179642e+00 -9.9534314594840705e+00 1 -4 2
1644 1 4.3497815873733447e+00 2.6823558159370773e+00 -9.8859847776251648e+00 1 0 0
1639 1 3.9961247233104085e+00 1.9447818691150083e+00 -8.9784039632742445e+00 0 -2 1
1847 1 -4.2455054264559768e+00 4.8744701248702667e+00 -9.5661736732773246e+00 3 0 1
1753 1 -4.3287277703959131e+00 3.8902050696140993e+00 -1.0122406622851766e+01 3 -2 0
116 1 5.2673117774802964e+00 4.4087649191117952e+00 -9.5474576469484287e+00 -1 -1 -1
1728 1 -4.5879080573421112e+00 3.7670933239197679e+00 -9.0219142207396583e+00 0 0 0
535 1 -5.1848153068244818e+00 4.1619333646769769e+00 1.0512187087076493e+01 2 0 -3
1680 1 -2.1689619479677216e+00 3.8286110161171414e+00 -9.3167013660017961e+00 -4 0 1
978 1 -3.5043355530661504e+00 3.6979614475233133e+00 -9.4075295698282542e+00 7 2 -2
1432 1 -2.9936029938808950e+00 5.0257496953199823e+00 -8.9130545793291986e+00 0 0 3
1785 1 -2.4018374973449381e+00 4.1357885331822741e+00 -1.0523548143243760e+01 1 5 2
596 1 -2.1527354815228477e+00 4.9528019404491017e+00 -9.6863091210778034e+00 7 1 1
592 1 -3.1298727611421979e+00 4.7766853986807707e+00 -9.8731568317682932e+00 2 2 0
1108 1 -5.0236212460662866e-01 4.2337963765547837e+00 -1.0390850758056255e+01 1 -6 0
285 1 -1.2905352909016805e+00 5.0230512325648258e+00 -8.9794432559339690e+00 -1 -1 0
1049 1 -1.3621879754457489e-01 4.5072413265641247e+00 -9.3672122632097583e+00 -1 -1 -1
930 1 -1.2646952593511087e+00 4.2405602819524306e+00 -9.6146609466257598e+00 0 0 1
1599 1 -1.4796745423994899e+00 4.7633403231620415e+00 -1.0476275923575031e+01 0 0 2
1891 1 -5.7015172773281930e-01 5.2302209969962457e+00 -9.9310097197491700e+00 0 -1 -1
1210 1 9.6984526975389251e-01 3.7068062400220807e+00 -9.0063619111066533e+00 -2 -1 1
1789 1 1.0639630609752546e+00 4.6281518912418473e+00 -9.5169412231692760e+00 3 0 2
1082 1 1.7456057682772259e+00 3.6274863108289628e+00 -9.7441110025992650e+00 -3 3 -1
1587 1 5.0391823225520105e-01 3.6963390813148336e+00 -9.9608507162940167e+00 -2 4 2
408 1 1.2394540393637496e+00 4.1727782139178293e+00 1.0571305848449375e+01 1 1 0
1122 1 3.4211995306226477e+00 4.5803623254717802e+00 -1.0167237034576575e+01 1 1 2
1191 1 2.4540492324175927e+00 4.1652790042645256e+00 -1.0538150034133171e+01 -1 -3 0
183 1 3.0288019121151559e+00 5.0877946052322427e+00 -8.9863536423506591e+00 -3 1 0
1664 1 2.1666385909155088e+00 4.6014120300462258e+00 -9.6195167855709105e+00 1 1 1
1743 1 2.7390910534065691e+00 3.7703710902353467e+00 -9.3945748004091758e+00 3 0 1
432 1 4.3784795806436954e+00 4.9050769253000563e+00 -9.0823648350186961e+00 -2 -1 0
1982 1 4.4478873174226887e+00 4.7876400474041345e+00 -1.0377826969874322e+01 2 3 1
45 1 3.7613320170736966e+00 4.0038147617602586e+00 -9.2431596760686752e+00 4 0 -1
1459 1 4.3968509268048468e+00 3.8380214188454609e+00 -1.0037004785795084e+01 -4 -2 1
1290 1 -4.4541460727144724e+00 -3.6222217684072984e+00 -7.6768115567878761e+00 1 1 0
72 1 -3.6176085166927368e+00 -4.4939588255973115e+00 -7.7674864489955642e+00 4 0 1
273 1 -4.8048412815345927e+00 -4.7360808606653038e+00 -7.9391658509252441e+00 0 0 0
474 1 -3.0370147549385358e+00 -4.2198081813510360e+00 -8.6012192633774447e+00 2 0 1
1769 1 -2.0610174716388379e+00 -5.0435505803682048e+00 -8.2879773606335174e+00 -1 3 0
1479 1 -2.3640007267242069e+00 -3.9646350890953292e+00 -7.8158199754508786e+00 2 3 -1
280 1 -2.5803734340461650e+00 -4.8226801461697573e+00 -7.2702892377207453e+00 1 3 0
1004 1 -4.8463029035253125e-01 -4.5411168085364029e+00 -8.5270676635157177e+00 -2 -5 1
1993 1 -1.6225690177621599e+00 -3.3928063978947214e+00 -8.4339649779888415e+00 1 4 1
265 1 -8.9192430690404245e-01 -5.2113742813249688e+00 -7.9284493552741058e+00 2 -2 -1
576 1 -1.3679677455144148e+00 -4.1263703769391693e+00 -7.2501042255701309e+00 0 -4 0
1643 1 -7.0504660882540982e-02 -4.6123055721418549e+00 -7.4361080962391410e+00 2 0 0
156 1 -6.3080345336475963e-01 -3.7717204976469536e+00 -7.8974954428382311e+00 0 -2 0
785 1 1.6739019209766839e+00 -4.2212100559144625e+00 -8.4129566786058181e+00 -3 5 -2
1759 1 6.5222991463378455e-01 -4.4246432670990608e+00 -8.3817067539773351e+00 0 -2 2
805 1 1.4782190452504473e+00 -5.1587018811235543e+00 -8.6881060810961426e+00 -2 3 -1
760 1 1.2602791390099457e+00 -4.1186532131295825e+00 -7.3537515286059261e+00 3 2 -2
560 1 9.5895129408047441e-01 -5.1582683856973901e+00 -7.5042928615320674e+00 -3 -1 1
1708 1 2.6689866096284907e+00 -4.2898306368728685e+00 -8.2858365658865800e+00 -1 -1 -1
1377 1 2.9974243753963719e+00 -5.2456166457948639e+00 -7.0536539436393779e+00 2 0 0
1840 1 2.3015841993325110e+00 -5.2487884419105040e+00 -8.0256835717900579e+00 1 2 1
1095 1 2.3032235530249348e+00 -3.6115793226409396e+00 -7.3430164062690562e+00 1 0 0
753 1 4.7167867694197705e+00 -4.7396547372573954e+00 -8.2580142963318419e+00 -1 3 0
888 1 5.2004233688300063e+00 -3.8192623868330942e+00 -8.1813859232975847e+00 0 2 -1
531 1 3.6438300536899635e+00 -4.8739409456198626e+00 -8.3406801056842070e+00 -3 0 1
1661 1 3.5540985642189393e+00 -3.9743898499117885e+00 -7.7710156910903851e+00 0 1 -2
1956 1 4.8127944540290652e+00 -4.1424600942511765e+00 -7.2303031098776547e+00 -1 3 2
1968 1 3.9478200193598147e+00 -4.8685422182827001e+00 -7.2559474475535621e+00 0 1 -1
1393 1 -4.6335670167842826e+00 -2.6172095289099739e+00 -8.2901335896279313e+00 2 0 -1
148 1 -3.7946964071358265e+00 -2.0509278931898289e+00 -8.0218659981993721e+00 1 3 -1
644 1 -4.1353596723463042e+00 -2.7124694542742525e+00 -7.2587399740710836e+00 1 -1 1
41 1 -5.2647734196628377e+00 -3.1979081131284701e+00 -7.2376171810919052e+00 3 -3 0
437 1 -3.6763402380400452e+00 -3.2997572249943024e+00 -8.2222721838834421e+00 1 2 -1
619 1 -2.7693575738785832e+00 -2.4184339447800576e+00 -7.8455260449197679e+00 0 -2 0
667 1 -1.4544090493864255e+00 -2.5038732038373959e+00 -8.9794486744474451e+00 -3 0 1
1113 1 -5.7075976881331969e-01 -2.1953654465274419e+00 -8.1375054779067426e+00 0 -2 1
1729 1 -7.0265648020198945e-01 -2.8352838315845448e+00 -7.3547246156891877e+00 1 0 0
1245 1 -1.6545449818528304e+00 -2.3217316561119445e+00 -7.6931217885765717e+00 -5 -1 1
357 1 1.1397563843733154e+00 -3.2203193833090538e+00 -8.5726612585405935e+00 -1 1 0
1012 1 2.7138094148051872e-01 -2.7814359434809712e+00 -8.7943320444443831e+00 1 4 0
900 1 8.9569848685760411e-01 -1.9055181632865172e+00 -8.8078396656074318e+00 3 -2 -1
456 1 1.3727713332420717e+00 -2.9978842771094141e+00 -7.4045155220564896e+00 -6 0 0
1232 1 1.4460954124308718e+00 -2.0661393993280703e+00 -7.7995645960464675e+00 1 -1 0
422 1 3.9004892544039449e-01 -2.3409176554003488e+00 -7.5026226470764499e+00 0 -2 0
143 1 3.1186015578437914e-01 -3.5078461672898644e+00 -7.6443306630606065e+00 -1 0 0
1215 1 2.1610628471479547e+00 -3.0336063195545502e+00 -8.4561500303442809e+00 -2 3 0
181 1 1.9937184423739340e+00 -1.8317562718685483e+00 -8.9056842285011406e+00 0 4 -1
98 1 3.0325581651094113e+00 -3.0093259227217319e+00 -7.9912685215183039e+00 -3 1 1
776 1 2.4129123599096141e+00 -2.3312776323964250e+00 -7.6462964703202561e+00 -2 -2 0
1737 1 4.3623435453214023e+00 -3.1251534236510801e+00 -8.0204772608512567e+00 0 -3 0
252 1 3.8389193784655293e+00 -2.1799376958435541e+00 -7.8795801633440803e+00 -2 -1 0
747 1 -5.2461096958538969e+00 -1.8427716462164250e+00 -7.6651306000264032e+00 -4 -2 -1
561 1 -4.6126028349778885e+00 -1.3848686514899760e+00 -8.4468521260838259e+00 0 1 2
310 1 -4.7839640281575946e+00 -2.3622052578406771e-01 -8.5977352808471519e+00 3 1 -1
1253 1 -3.5887575822284248e+00 -8.6650737760934171e-01 -6.9524372099112703e+00 -2 0 0
774 1 -4.0692796993701998e+00 -2.2537067874833233e-01 -7.7624902489648395e+00 1 2 1
1533 1 -1.9551016461676964e+00 -2.5823793501812681e-01 -8.4361018130379541e+00 -1 1 -2
88 1 -3.2426720929058015e+00 -1.4763011625665330e+00 -8.8717740190749179e+00 -3 0 1
1671 1 -2.2066179051531707e+00 -1.3854461690773998e+00 -8.2365730070877028e+00 5 3 1
846 1 -3.0167554422801293e+00 -7.7065916730972894e-01 -8.0119377931084585e+00 1 0 0
1733 1 -1.9265080655255873e+00 -8.8507485035840572e-01 -7.3994596101127588e+00 4 -3 0
1797 1 -3.1087256923006645e+00 -1.7541121733912046e+00 -7.1452130459997241e+00 0 3 -1
1858 1 -2.6800239322504754e-01 -1.6109589211867958e-01 -8.1632134528414806e+00 1 -3 -2
1477 1 -1.2249621503494097e+00 -1.0070769610852655e+00 -8.1916865742504825e+00 1 4 2
1593 1 -1.0495716849643120e+00 -1.2700526574050850e+00 -7.2660172015616489e+00 0 0 1
1707 1 1.4026432051201121e+00 -8.3736762663682551e-01 -8.2474650901597766e+00 2 1 -1
1936 1 5.4800646547065839e-02 -1.2647529554035013e+00 -7.8532425173989591e+00 -1 5 1
5 1 6.9971250378042948e-01 -4.1590868430710870e-01 -7.4758606886196644e+00 2 4 -1
529 1 2.9257237589237479e+00 -1.2595020330718072e+00 -8.4238629474527613e+00 4 1 1
227 1 2.9729720242473814e+00 -1.2303905552008900e+00 -7.2473309394119463e+00 -2 0 1
63 1 2.8949524792766952e+00 -1.9538497204113665e-03 -7.1284735845715304e+00 1 2 -1
555 1 2.2991781609390718e+00 -6.7604272181188718e-01 -7.7636993590242662e+00 5 1 1
1954 1 5.1870670559664269e+00 -8.8000628391459412e-01 -8.0305553016042612e+00 -2 0 -1
929 1 4.5091141025741326e+00 -4.1502400509014054e-01 -8.9081737604845816e+00 1 1 0
1111 1 4.0833922786914636e+00 -1.2127580726069487e+00 -8.2601369442912276e+00 -2 1 1
419 1 4.2691975662622594e+00 -1.3891103164345946e+00 -7.1540011809354498e+00 -4 2 1
234 1 4.6436515029579351e+00 -3.0360479851634259e-01 -7.3808865224320277e+00 -3 0 0
1134 1 -3.6886979496487036e+00 5.4364713052091529e-01 -8.8015363851450719e+00 1 5 0
572 1 -4.6786790419472446e+00 7.8425001211435297e-01 -8.6899688700414828e+00 2 -1 0
486 1 -3.8746003660723471e+00 1.0789985178331301e+00 -7.9512201460839664e+00 -1 -2 0
1136 1 -4.5444493921100628e+00 1.4195302412616064e+00 -7.1712142998546824e+00 0 2 0
834 1 -4.9924088385650736e+00 4.7049170265825896e-01 -7.7206181265940446e+00 1 -2 2
1584 1 -2.0579746777697681e+00 9.0696753838328592e-01 -8.4466014109409375e+00 4 1 -1
538 1 -3.0349098378317008e+00 2.2323293611755410e-01 -7.7671259238435653e+00 -1 -2 0
878 1 -2.7581427176692350e+00 1.1264354272155492e+00 -7.0563529295508083e+00 -1 -1 -1
1825 1 -1.6165421635888069e+00 1.2710176365718593e+00 -7.4703268392335538e+00 -5 -5 1
356 1 -2.0862636254261693e+00 3.2674912616882329e-01 -7.3528327759210406e+00 5 1 -1
1264 1 -1.0163430320313522e+00 9.1250115072067139e-01 -8.1953334177599384e+00 -3 -3 1
1830 1 -4.7837144004064175e-01 1.4867616889013813e+00 -7.4371124293804982e+00 0 1 0
1970 1 -3.3797844697954382e-01 4.0132048605481097e-01 -7.2577561780818449e+00 0 1 2
908 1 -1.1553649647995352e+00 5.3567139378509515e-02 -7.6941542558543006e+00 -2 2 0
1837 1 8.5937066080703350e-01 1.5516033968319656e+00 -8.7712548061516582e+00 6 -1 1
1516 1 6.6611233971886297e-01 4.8031470095069689e-01 -8.3977263923370700e+00 2 3 1
1239 1 7.8966969536431564e-01 7.1753350091863954e-01 -7.1326750654825588e+00 -1 -2 0
57 1 1.4393430297394691e+00 1.1035086510793524e+00 -7.9100266682070597e+00 1 -2 -1
210 1 3.1977286670195975e+00 1.7119538517890789e-03 -8.3018805889553811e+00 2 -5 -1
278 1 3.6436477660991322e+00 1.0514241732496605e+00 -8.3643201717424880e+00 0 3 1
248 1 1.8401161796373509e+00 1.9474035703174625e-01 -8.2016447862642892e+00 2 2 1
991 1 2.5329395854779921e+00 9.5788475818107754e-01 -7.7850789545155585e+00 0 4 1
317 1 4.8953897341154491e+00 1.4082996885356147e+00 -8.1500377522633798e+00 -1 -6 1
615 1 4.4974056604918928e+00 4.5087041659073129e-01 -8.1138454665142064e+00 -2 0 0
1121 1 3.7128605631837108e+00 6.0496960772851383e-01 -7.3852647014648349e+00 2 -1 1
510 1 -4.6658084036032337e+00 1.7853935261385561e+00 -8.3531440789080733e+00 0 3 -2
1699 1 -3.7545625943321208e+00 3.1849706464374150e+00 -8.5983573359389620e+00 4 1 2
1041 1 -3.7659301784215127e+00 2.0878435312095984e+00 -7.6714582137993679e+00 -1 -3 0
340 1 -4.4580600598988216e+00 3.0074591565917603e+00 -7.7789378363103765e+00 1 -2 1
224 1 -2.8413177262868552e+00 2.2272423591611812e+00 -8.4418332358355421e+00 1 -2 -1
1746 1 -2.6818120376986694e+00 3.3183157248492048e+00 -8.3799180377999036e+00 -4 1 0
1440 1 -1.8263479251194354e+00 3.1790940836678874e+00 -7.4537404867650059e+00 -3 -1 1
318 1 -2.4699691716621399e+00 2.2281636091225359e+00 -7.3446673396419051e+00 -1 0 1
1445 1 -3.3851763929929590e+00 3.0297096957225609e+00 -7.5520066808629549e+00 3 -3 1
653 1 -3.4762757247398074e-01 2.3265565057299247e+00 -8.1000639231704312e+00 0 -1 2
1211 1 -1.3311671688167757e+00 3.1992251137605727e+00 -8.4748406000404035e+00 -2 -2 0
883 1 -1.6960423558602091e+00 1.9682747643184029e+00 -8.3744564372178161e+00 1 0 1
1945 1 -1.0345135167924160e+00 2.3934366064104147e+00 -7.3847955195039274e+00 -1 -1 0
996 1 -4.9591699536069056e-01 3.3469323625955072e+00 -7.7377360554737420e+00 0 -1 1
144 1 1.7150968545031369e+00 2.0553559550927489e+00 -8.5713442932338157e+00 -1 -1 1
226 1 1.3213415804193807e+00 2.7248559191182231e+00 -7.6660693054272899e+00 -3 -3 0
23 1 1.7848733591953933e-01 2.6966300704490833e+00 -7.0406337060121489e+00 1 4 2
952 1 5.0887988924232119e-01 1.8635214433884515e+00 -7.8096821933770242e+00 -1 -4 2
470 1 2.8383355765693743e+00 1.8323579993421411e+00 -8.7455787060975734e+00 1 0 -1
651 1 1.9320204109135415e+00 3.1427655938669470e+00 -8.6302649667811071e+00 0 -5 0
1967 1 2.5490745673241735e+00 2.5795264540749359e+00 -7.8117024396902472e+00 2 -1 1
95 1 3.2296338472962445e+00 1.6375759365142883e+00 -7.3456571818686225e+00 -3 4 -1
1460 1 4.3610376311132857e+00 2.9779695838280760e+00 -8.7439074555653544e+00 1 -1 0
792 1 5.1861033125709746e+00 3.3132665785442383e+00 -8.0960384104727829e+00 1 -2 -1
121 1 4.1858313860460745e+00 2.0766756877952579e+00 -7.9390308962902951e+00 -1 2 0
133 1 5.2053614340573411e+00 2.2986198775664652e+00 -7.7765961799130752e+00 -5 -2 -1
1307 1 3.6244241073415804e+00 2.9356145840553669e+00 -7.9488684287544151e+00 4 4 1
1235 1 4.4197535063450957e+00 2.8425970617990597e+00 -7.1813861648016184e+00 -1 0 1
1488 1 -4.4684390357861830e+00 4.3494475416925162e+00 -8.1118152568879278e+00 3 2 0
1219 1 -5.1456390015602844e+00 -5.2657163510442384e+00 -8.9603666199471697e+00 -2 0 2
1162 1 -3.9650350688092826e+00 5.2163992439797395e+00 -8.5799359643233082e+00 3 -1 1
1072 1 -4.7752624197659248e+00 4.8715495490062164e+00 -7.2576025555353683e+00 3 1 1
1700 1 -3.8630622092881914e+00 4.2185485003042835e+00 -7.2166385769069823e+00 3 3 3
439 1 -3.4327266564519618e+00 4.1040431115200509e+00 -8.2088259690320253e+00 2 -2 0
1635 1 -1.8304361111304874e+00 4.2614044330946337e+00 -8.2138634176828837e+00 0 0 0
1980 1 -3.1338487525217382e+00 5.0925761953406985e+00 -7.9074201944166189e+00 0 2 1
1912 1 -1.8314274877182166e+00 4.9916007867075987e+00 -7.4208190589897161e+00 2 -4 1
524 1 -2.6972472320683583e+00 4.0111040902712620e+00 -7.5027141572733820e+00 1 2 0
415 1 -7.7591116117919035e-01 4.2335873172480323e+00 -8.3495684405047417e+00 2 0 0
527 1 -1.2022716331614047e+00 4.1523001123962411e+00 -7.3002255313714732e+00 0 -3 0
1502 1 -2.6692882897603559e-02 4.7489145595513280e+00 -7.8498662350438693e+00 -1 -3 -2
1302 1 7.7263833532822357e-01 4.6585240558786678e+00 -8.4398643450502497e+00 -2 -3 -1
585 1 6.4742802710667235e-01 3.6469269928788459e+00 -7.8368443606094074e+00 0 -2 1
877 1 1.3830453715072115e+00 4.4522284900398050e+00 -7.6101859890642451e+00 -1 -3 0
1859 1 2.8813039370832114e+00 3.6839811798706350e+00 -8.3734523953202480e+00 4 -1 0
189 1 2.0678510404942454e+00 4.4361970861837463e+00 -8.4907700665680501e+00 2 0 1
842 1 2.0010321655355510e+00 3.5949077899316513e+00 -7.6534110767598955e+00 -1 -3 1
526 1 3.0209324650481002e+00 4.5131614061804637e+00 -7.8499003357463764e+00 -3 1 0
1468 1 4.1737111398377751e+00 4.8991901664289959e+00 -8.0993184362588551e+00 1 1 1
402 1 5.1186867994901570e+00 4.4468755016795569e+00 -8.3103941683857752e+00 -2 1 -1
1692 1 4.0822620331705206e+00 3.8961593360465048e+00 -8.2077347963000484e+00 2 1 2
198 1 3.7273294859068580e+00 4.5107981188741091e+00 -7.0957063421359869e+00 1 4 1
502 1 4.8344610319319594e+00 4.2807446228604151e+00 -7.3338918411155429e+00 -2 1 0
1534 1 4.8892038795750370e+00 -5.2101341325145540e+00 -7.3385607353436759e+00 -1 3 1
1757 1 -4.6944670972526792e+00 -4.3611226190936314e+00 -7.0495594694775887e+00 4 1 3
902 1 -3.5536244046935868e+00 -3.7115749136067961e+00 -7.0326239430788560e+00 2 1 3
1758 1 -4.7174798199908290e+00 -4.1844700382128970e+00 -5.4758695102894164e+00 -1 -2 0
1828 1 -3.9638242069349783e+00 -4.8107100461892944e+00 -6.0170949804231286e+00 2 -2 1
1495 1 -3.9073026939738780e+00 -5.0974768856959063e+00 -6.9895899280089751e+00 -1 1 1
2 1 -5.2321234182579444e+00 -4.8219111529920324e+00 -6.2977417409573988e+00 -1 -3 0
296 1 -1.7664066300298138e+00 -4.7028063015296331e+00 -6.4407239660413067e+00 1 3 -1
1370 1 -2.8020262742541062e+00 -4.7086213279371343e+00 -6.1226815625245559e+00 2 -2 0
1025 1 -2.6203147567891558e+00 -3.6955837062362513e+00 -6.3577754132963609e+00 -2 -3 1
634 1 -3.4803903264468632e+00 -4.0847151540127768e+00 -5.4690512873910961e+00 -2 2 -1
1332 1 -3.1830695874106656e+00 -5.1925996001197534e+00 -5.2464552426602591e+00 0 -1 0
1178 1 -6.9085961443555055e-01 -3.9512448044636241e+00 -5.5792128407218895e+00 0 1 1
953 1 -5.1948074110181641e-01 -4.5315262161587837e+00 -6.3450923580688947e+00 3 0 0
833 1 -1.6537996804147672e+00 -4.8235298253941625e+00 -5.2455187756989865e+00 1 -5 2
1389 1 -6.1545200153697877e-01 5.2397698851337591e+00 -5.6230140462939415e+00 0 -5 1
1997 1 5.3453583216574574e-01 -4.4618444899115026e+00 -5.6021508456825311e+00 1 -2 1
416 1 1.2109630879238595e+00 -4.8588337615814998e+00 -6.4093324832935821e+00 1 0 -1
1572 1 4.7992448555211381e-01 -3.9291464256341966e+00 -6.5478169180992625e+00 2 0 1
47 1 1.5689002414839752e+00 -3.6621446715749979e+00 -6.5204841927377517e+00 0 1 -2
1612 1 2.3071789333584433e-01 5.2461298703514263e+00 -6.5504679588158545e+00 2 1 1
671 1 1.9768595861408540e+00 -4.3734677226171579e+00 -5.8532807572744483e+00 0 3 -2
1067 1 3.2030061126139717e+00 -4.9798456473358499e+00 -5.7508816387036159e+00 -1 0 1
802 1 3.0769798018703955e+00 -4.0861420436210798e+00 -6.7027236490380160e+00 -1 -5 0
1323 1 2.1758488815991512e+00 -4.5870826259280744e+00 -6.8926636941293475e+00 3 0 1
184 1 3.2298068709606484e+00 -3.9560016249358498e+00 -5.7017406223625722e+00 0 3 1
1446 1 2.0885122513888272e+00 5.1709213174653463e+00 -6.0560021952369958e+00 4 2 0
131 1 4.3004161179500757e+00 -4.7101433793507415e+00 -5.3170514554974933e+00 0 0 0
767 1 4.0568630323207673e+00 -4.3266061825697335e+00 -6.3323128070637003e+00 1 -1 1
965 1 4.9987680520352553e+00 -3.7684932249478615e+00 -6.3093744685487403e+00 1 3 0
1543 1 4.2024780887951305e+00 -3.6978865129040419e+00 -5.4180944220807037e+00 0 -4 0
1946 1 -4.2684187892507550e+00 -3.3149036107233503e+00 -6.2760496090369893e+00 1 -3 0