       data.test Cu2O(110)-graphene-OH
 
          682           atoms

            5      atom types
 
     0.0000     21.3000 xlo xhi
     0.0000     24.6000 ylo yhi
     0.0000     33.8162 zlo zhi
    0.000     0.000     0.000 xy xz yz
 
 Atoms
# ATOMS id type q x y z 
        1   1 -0.769123000E+00  0.845621000E+01  0.603653000E+01  0.486088490E+01
        2   2  0.611017000E+00  0.160099000E+02  0.452565000E+01  0.476426433E+01
        3   2  0.619339000E+00  0.202793000E+02  0.755712000E+01  0.476173168E+01
        4   1 -0.750617000E+00  0.149921000E+02  0.210710000E+02  0.486613600E+01
        5   1 -0.767855000E+00  0.649163000E+01  0.151069000E+02  0.486286680E+01
        6   2  0.425598000E+00  0.321239000E+01  0.227278000E+02  0.478491910E+01
        7   1 -0.742510000E+00  0.844553000E+01  0.245439000E+02  0.488372700E+01
        8   1 -0.769079000E+00  0.127191000E+02  0.604409000E+01  0.486561400E+01
        9   2  0.602011000E+00  0.202689000E+02  0.148815000E+01  0.475964000E+01
       10   2  0.610438000E+00  0.160154000E+02  0.135861000E+02  0.475224000E+01
       11   2  0.609789000E+00  0.117393000E+02  0.147972000E+01  0.475924000E+01
       12   1 -0.773858000E+00  0.193269000E+02  0.906260000E+01  0.487839900E+01
       13   1 -0.767911000E+00  0.107743000E+02  0.301107000E+01  0.486347100E+01
       14   2  0.607820000E+00  0.746709000E+01  0.166067000E+02  0.476515274E+01
       15   2  0.599991000E+00  0.160148000E+02  0.165982000E+02  0.476262207E+01
       16   1 -0.741057000E+00  0.416603000E+01  0.245399000E+02  0.488391100E+01
       17   1 -0.749485000E+00  0.107367000E+02  0.210821000E+02  0.487214900E+01
       18   2  0.630171000E+00  0.746807000E+01  0.196336000E+02  0.475784000E+01
       19   2  0.604265000E+00  0.319691000E+01  0.754270000E+01  0.475934000E+01
       20   2  0.614008000E+00  0.202686000E+02  0.135905000E+02  0.475214000E+01
       21   1 -0.773574000E+00  0.212208000E+02  0.181228000E+02  0.485654830E+01
       22   1 -0.746241000E+00  0.212191000E+02  0.245281000E+02  0.489854200E+01
       23   1 -0.770824000E+00  0.222607000E+01  0.302101000E+01  0.487413600E+01
       24   1 -0.742779000E+00  0.127048000E+02  0.245411000E+02  0.488502200E+01
       25   2  0.606562000E+00  0.117460000E+02  0.135860000E+02  0.475814000E+01
       26   1 -0.772917000E+00  0.223551000E+01  0.906357000E+01  0.486236710E+01
       27   2  0.605140000E+00  0.160030000E+02  0.754880000E+01  0.476253092E+01
       28   1 -0.770797000E+00  0.150400000E+02  0.906486000E+01  0.486033650E+01
       29   2  0.608332000E+00  0.747542000E+01  0.148076000E+01  0.476214000E+01
       30   1 -0.750366000E+00  0.645593000E+01  0.210891000E+02  0.486649000E+01
       31   2  0.597975000E+00  0.320052000E+01  0.148752000E+01  0.475614000E+01
       32   1 -0.769956000E+00  0.169812000E+02  0.604631000E+01  0.486956700E+01
       33   2  0.599247000E+00  0.117399000E+02  0.452913000E+01  0.476004000E+01
       34   1 -0.769026000E+00  0.844345000E+01  0.120680000E+02  0.487337700E+01
       35   1 -0.771420000E+00  0.651071000E+01  0.905369000E+01  0.487447600E+01
       36   2  0.611023000E+00  0.160078000E+02  0.105628000E+02  0.475644000E+01
       37   1 -0.769833000E+00  0.193252000E+02  0.302386000E+01  0.486404100E+01
       38   1 -0.752573000E+00  0.219769000E+01  0.210893000E+02  0.486747300E+01
       39   2  0.596674000E+00  0.160145000E+02  0.148403000E+01  0.476603292E+01
       40   2  0.431298000E+00  0.202859000E+02  0.227179000E+02  0.479039400E+01
       41   1 -0.768336000E+00  0.417198000E+01  0.120737000E+02  0.485950000E+01
       42   1 -0.768624000E+00  0.651542000E+01  0.301655000E+01  0.487471300E+01
       43   1 -0.771194000E+00  0.222841000E+01  0.151051000E+02  0.487104300E+01
       44   1 -0.768992000E+00  0.418582000E+01  0.604703000E+01  0.486135620E+01
       45   1 -0.755961000E+00  0.192750000E+02  0.210852000E+02  0.487835900E+01
       46   1 -0.768902000E+00  0.150536000E+02  0.302401000E+01  0.487978700E+01
       47   1 -0.770016000E+00  0.107707000E+02  0.150886000E+02  0.487282300E+01
       48   2  0.602412000E+00  0.117399000E+02  0.754914000E+01  0.475764000E+01
       49   1 -0.771575000E+00  0.127113000E+02  0.181098000E+02  0.486559200E+01
       50   1 -0.772837000E+00  0.417761000E+01  0.181206000E+02  0.486851800E+01
       51   1 -0.771647000E+00  0.127202000E+02  0.120767000E+02  0.487027500E+01
       52   1 -0.774079000E+00  0.212270000E+02  0.120792000E+02  0.485935840E+01
       53   2  0.616026000E+00  0.202771000E+02  0.105646000E+02  0.475534000E+01
       54   2  0.635783000E+00  0.160106000E+02  0.196226000E+02  0.475834000E+01
       55   2  0.591918000E+00  0.746990000E+01  0.135804000E+02  0.475714000E+01
       56   1 -0.768332000E+00  0.150491000E+02  0.150869000E+02  0.486244110E+01
       57   1 -0.769472000E+00  0.107698000E+02  0.906316000E+01  0.487429800E+01
       58   2  0.630818000E+00  0.117410000E+02  0.196220000E+02  0.475684000E+01
       59   1 -0.772744000E+00  0.169824000E+02  0.120710000E+02  0.486254400E+01
       60   2  0.422461000E+00  0.117518000E+02  0.227194000E+02  0.479687450E+01
       61   1 -0.774292000E+00  0.212210000E+02  0.604671000E+01  0.487466200E+01
       62   2  0.610942000E+00  0.746914000E+01  0.105662000E+02  0.476537254E+01
       63   1 -0.772443000E+00  0.193161000E+02  0.150946000E+02  0.487587600E+01
       64   2  0.595019000E+00  0.319973000E+01  0.452509000E+01  0.475754000E+01
       65   2  0.417347000E+00  0.747984000E+01  0.227208000E+02  0.478943670E+01
       66   2  0.628852000E+00  0.319706000E+01  0.196296000E+02  0.475884000E+01
       67   2  0.605685000E+00  0.117369000E+02  0.105613000E+02  0.476084000E+01
       68   2  0.605657000E+00  0.747749000E+01  0.753982000E+01  0.476124000E+01
       69   1 -0.771922000E+00  0.169855000E+02  0.181212000E+02  0.485668790E+01
       70   2  0.605268000E+00  0.320555000E+01  0.166066000E+02  0.476275027E+01
       71   2  0.612882000E+00  0.320113000E+01  0.105717000E+02  0.475144000E+01
       72   2  0.605992000E+00  0.117441000E+02  0.165965000E+02  0.476310524E+01
       73   2  0.640047000E+00  0.202664000E+02  0.196262000E+02  0.475074000E+01
       74   2  0.616490000E+00  0.202792000E+02  0.452506000E+01  0.475354000E+01
       75   2  0.598320000E+00  0.319447000E+01  0.135853000E+02  0.475684000E+01
       76   2  0.608836000E+00  0.202744000E+02  0.166038000E+02  0.475864000E+01
       77   1 -0.742759000E+00  0.169865000E+02  0.245358000E+02  0.490458700E+01
       78   1 -0.771642000E+00  0.843934000E+01  0.181231000E+02  0.486260050E+01
       79   2  0.408897000E+00  0.160222000E+02  0.227169000E+02  0.478605310E+01
       80   2  0.607338000E+00  0.747533000E+01  0.453008000E+01  0.476426660E+01
       81   2  0.445033000E+00  0.960489000E+01  0.150882000E+02  0.626364000E+01
       82   2  0.450494000E+00  0.532974000E+01  0.603044000E+01  0.625691000E+01
       83   2  0.446689000E+00  0.959994000E+01  0.120762000E+02  0.625550000E+01
       84   2  0.451533000E+00  0.533644000E+01  0.905044000E+01  0.625244000E+01
       85   2  0.538987000E+00  0.181497000E+02  0.211497000E+02  0.625723000E+01
       86   2  0.445799000E+00  0.106161000E+01  0.603183000E+01  0.626446000E+01
       87   2  0.441169000E+00  0.960198000E+01  0.603019000E+01  0.626009000E+01
       88   2  0.446451000E+00  0.961665000E+01  0.301821000E+01  0.626000000E+01
       89   2  0.448388000E+00  0.106215000E+01  0.120711000E+02  0.625625000E+01
       90   2  0.524331000E+00  0.533630000E+01  0.245194000E+02  0.625606000E+01
       91   2  0.454038000E+00  0.107682000E+01  0.150902000E+02  0.625531000E+01
       92   2  0.537540000E+00  0.107857000E+01  0.245377000E+02  0.626088000E+01
       93   2  0.426862000E+00  0.181444000E+02  0.181067000E+02  0.625549000E+01
       94   2  0.433886000E+00  0.138700000E+02  0.181101000E+02  0.626012000E+01
       95   2  0.433411000E+00  0.138745000E+02  0.150882000E+02  0.625494000E+01
       96   2  0.533502000E+00  0.959475000E+01  0.245206000E+02  0.625672000E+01
       97   2  0.442192000E+00  0.532973000E+01  0.181199000E+02  0.626210000E+01
       98   2  0.450504000E+00  0.138766000E+02  0.120728000E+02  0.626004000E+01
       99   2  0.446306000E+00  0.181454000E+02  0.906093000E+01  0.625924000E+01
      100   2  0.452786000E+00  0.138781000E+02  0.301581000E+01  0.625675000E+01
      101   2  0.446197000E+00  0.107380000E+01  0.905905000E+01  0.625754000E+01
      102   2  0.442572000E+00  0.181364000E+02  0.120681000E+02  0.625917000E+01
      103   2  0.440415000E+00  0.181373000E+02  0.604176000E+01  0.625952000E+01
      104   2  0.530672000E+00  0.138759000E+02  0.211590000E+02  0.625698000E+01
      105   2  0.448135000E+00  0.534441000E+01  0.150965000E+02  0.625999000E+01
      106   2  0.531078000E+00  0.533910000E+01  0.211557000E+02  0.625398000E+01
      107   2  0.426494000E+00  0.105977000E+01  0.181113000E+02  0.626039000E+01
      108   2  0.433992000E+00  0.533387000E+01  0.120705000E+02  0.625250000E+01
      109   2  0.528513000E+00  0.138743000E+02  0.245199000E+02  0.625743000E+01
      110   2  0.449555000E+00  0.961669000E+01  0.905270000E+01  0.626363000E+01
      111   2  0.546167000E+00  0.181417000E+02  0.245212000E+02  0.626432000E+01
      112   2  0.440717000E+00  0.181500000E+02  0.300771000E+01  0.626118000E+01
      113   2  0.450668000E+00  0.138678000E+02  0.604047000E+01  0.625332000E+01
      114   2  0.441600000E+00  0.534251000E+01  0.301186000E+01  0.626150000E+01
      115   2  0.529086000E+00  0.107696000E+01  0.211485000E+02  0.625920000E+01
      116   2  0.446775000E+00  0.181476000E+02  0.150918000E+02  0.625872000E+01
      117   2  0.520477000E+00  0.961297000E+01  0.211485000E+02  0.626441000E+01
      118   2  0.427761000E+00  0.959974000E+01  0.181088000E+02  0.626443000E+01
      119   2  0.447199000E+00  0.138780000E+02  0.905435000E+01  0.625326000E+01
      120   2  0.462953000E+00  0.107333000E+01  0.301797000E+01  0.625730000E+01
      121   2  0.393455000E+00  0.117445000E+02  0.165993000E+02  0.777818000E+01
      122   1 -0.763070000E+00  0.854662000E+01  0.150859000E+02  0.778338000E+01
      123   2  0.410757000E+00  0.117413000E+02  0.135863000E+02  0.777476000E+01
      124   2  0.395665000E+00  0.320619000E+01  0.105609000E+02  0.777817000E+01
      125   2  0.184843000E+00  0.159961000E+02  0.227517000E+02  0.777939000E+01
      126   1 -0.756123000E+00  0.128573000E+02  0.210654000E+02  0.776754000E+01
      127   1 -0.752336000E+00  0.171447000E+02  0.210829000E+02  0.776598000E+01
      128   1 -0.763198000E+00  0.106714000E+02  0.604963000E+01  0.778188000E+01
      129   2  0.409249000E+00  0.117447000E+02  0.754740000E+01  0.777799000E+01
      130   1 -0.764709000E+00  0.149516000E+02  0.181092000E+02  0.777962000E+01
      131   1 -0.763517000E+00  0.106734000E+02  0.120901000E+02  0.777784000E+01
      132   1 -0.762859000E+00  0.149416000E+02  0.604483000E+01  0.776919000E+01
      133   2  0.408252000E+00  0.746333000E+01  0.105597000E+02  0.777334000E+01
      134   2  0.388122000E+00  0.117347000E+02  0.105703000E+02  0.777720000E+01
      135   1 -0.764120000E+00  0.192078000E+02  0.120720000E+02  0.777401000E+01
      136   1 -0.765408000E+00  0.291499000E-01  0.302740000E+01  0.776421000E+01
      137   1 -0.745864000E+00  0.106631000E+02  0.245250000E+02  0.778178000E+01
      138   2  0.403102000E+00  0.319564000E+01  0.165986000E+02  0.777427000E+01
      139   1 -0.762589000E+00  0.427923000E+01  0.905691000E+01  0.776732000E+01
      140   2  0.190345000E+00  0.202433000E+02  0.227445000E+02  0.777425000E+01
      141   2  0.382794000E+00  0.746608000E+01  0.148789000E+01  0.776993000E+01
      142   2  0.396065000E+00  0.202803000E+02  0.754655000E+01  0.778218000E+01
      143   2  0.414195000E+00  0.747615000E+01  0.453308000E+01  0.777576000E+01
      144   2  0.393869000E+00  0.202696000E+02  0.135854000E+02  0.777990000E+01
      145   2  0.405708000E+00  0.202722000E+02  0.105690000E+02  0.778100000E+01
      146   1 -0.763729000E+00  0.854007000E+01  0.906175000E+01  0.777282000E+01
      147   2  0.378315000E+00  0.117395000E+02  0.149104000E+01  0.777747000E+01
      148   1 -0.763254000E+00  0.170851000E+02  0.150961000E+02  0.777576000E+01
      149   2  0.386604000E+00  0.117440000E+02  0.453136000E+01  0.778061000E+01
      150   1 -0.762945000E+00  0.128181000E+02  0.905354000E+01  0.776847000E+01
      151   1 -0.760810000E+00  0.170932000E+02  0.301865000E+01  0.777746000E+01
      152   2  0.375949000E+00  0.202801000E+02  0.147724000E+01  0.777691000E+01
      153   2  0.419965000E+00  0.202725000E+02  0.453619000E+01  0.777328000E+01
      154   2  0.410429000E+00  0.160147000E+02  0.166022000E+02  0.778046000E+01
      155   1 -0.746876000E+00  0.192121000E+02  0.245284000E+02  0.777251000E+01
      156   2  0.432469000E+00  0.202677000E+02  0.196175000E+02  0.778168000E+01
      157   2  0.410301000E+00  0.160100000E+02  0.196306000E+02  0.777273000E+01
      158   1 -0.745363000E+00  0.213416000E+01  0.245266000E+02  0.777987000E+01
      159   1 -0.764752000E+00  0.639701000E+01  0.181176000E+02  0.778241000E+01
      160   1 -0.754340000E+00  0.433625000E+01  0.210733000E+02  0.777707000E+01
      161   2  0.428127000E+00  0.746574000E+01  0.196221000E+02  0.777891000E+01
      162   2  0.393171000E+00  0.160039000E+02  0.135842000E+02  0.777944000E+01
      163   1 -0.764305000E+00  0.249641000E-01  0.151047000E+02  0.777216000E+01
      164   2  0.411061000E+00  0.319740000E+01  0.453156000E+01  0.777830000E+01
      165   1 -0.765743000E+00  0.214046000E+01  0.181158000E+02  0.778271000E+01
      166   1 -0.755391000E+00  0.683770000E-01  0.210715000E+02  0.776841000E+01
      167   2  0.182853000E+00  0.745015000E+01  0.227498000E+02  0.778198000E+01
      168   1 -0.764846000E+00  0.149340000E+02  0.120733000E+02  0.777922000E+01
      169   2  0.419096000E+00  0.320312000E+01  0.196338000E+02  0.777277000E+01
      170   2  0.400623000E+00  0.160091000E+02  0.754702000E+01  0.777926000E+01
      171   1 -0.767041000E+00  0.192140000E+02  0.181181000E+02  0.778357000E+01
      172   1 -0.762737000E+00  0.128123000E+02  0.150922000E+02  0.778102000E+01
      173   2  0.180434000E+00  0.318671000E+01  0.227510000E+02  0.777460000E+01
      174   1 -0.744373000E+00  0.149418000E+02  0.245329000E+02  0.777773000E+01
      175   1 -0.763558000E+00  0.192237000E+02  0.603290000E+01  0.777633000E+01
      176   1 -0.763029000E+00  0.428013000E+01  0.151007000E+02  0.778227000E+01
      177   1 -0.762171000E+00  0.170827000E+02  0.906750000E+01  0.776801000E+01
      178   2  0.402208000E+00  0.746990000E+01  0.135805000E+02  0.778030000E+01
      179   1 -0.764605000E+00  0.212552000E+01  0.120758000E+02  0.777433000E+01
      180   2  0.387840000E+00  0.746578000E+01  0.165973000E+02  0.778331000E+01
      181   1 -0.760318000E+00  0.128184000E+02  0.301127000E+01  0.777364000E+01
      182   2  0.380718000E+00  0.160074000E+02  0.149067000E+01  0.777485000E+01
      183   2  0.394514000E+00  0.160076000E+02  0.452710000E+01  0.778322000E+01
      184   1 -0.743339000E+00  0.641246000E+01  0.245298000E+02  0.777749000E+01
      185   1 -0.761972000E+00  0.427285000E+01  0.302774000E+01  0.778189000E+01
      186   1 -0.764102000E+00  0.213402000E+01  0.603355000E+01  0.777568000E+01
      187   1 -0.764191000E+00  0.640471000E+01  0.120714000E+02  0.778219000E+01
      188   1 -0.764500000E+00  0.367277000E-01  0.906542000E+01  0.777565000E+01
      189   1 -0.766583000E+00  0.106805000E+02  0.181257000E+02  0.778430000E+01
      190   1 -0.754367000E+00  0.859106000E+01  0.210627000E+02  0.778420000E+01
      191   2  0.436434000E+00  0.117390000E+02  0.196281000E+02  0.777469000E+01
      192   2  0.180790000E+00  0.117238000E+02  0.227616000E+02  0.778219000E+01
      193   2  0.372167000E+00  0.319506000E+01  0.148520000E+01  0.777589000E+01
      194   1 -0.764592000E+00  0.640820000E+01  0.603650000E+01  0.776430000E+01
      195   2  0.409464000E+00  0.202786000E+02  0.166080000E+02  0.777872000E+01
      196   2  0.406537000E+00  0.160096000E+02  0.105686000E+02  0.777685000E+01
      197   2  0.394300000E+00  0.320748000E+01  0.754208000E+01  0.777259000E+01
      198   2  0.399561000E+00  0.746896000E+01  0.755134000E+01  0.777083000E+01
      199   1 -0.762413000E+00  0.853658000E+01  0.302899000E+01  0.776849000E+01
      200   2  0.390999000E+00  0.320744000E+01  0.135842000E+02  0.777167000E+01
      201   2  0.407709000E+00  0.533142000E+01  0.906105000E+01  0.929095000E+01
      202   2  0.413819000E+00  0.961122000E+01  0.150893000E+02  0.928925000E+01
      203   2  0.392561000E+00  0.533443000E+01  0.603816000E+01  0.928524000E+01
      204   2  0.416517000E+00  0.106403000E+01  0.905559000E+01  0.928739000E+01
      205   2  0.401678000E+00  0.961054000E+01  0.120796000E+02  0.929554000E+01
      206   2  0.393569000E+00  0.181383000E+02  0.181121000E+02  0.929698000E+01
      207   2  0.398342000E+00  0.960830000E+01  0.906107000E+01  0.928431000E+01
      208   2  0.400612000E+00  0.181499000E+02  0.150878000E+02  0.929489000E+01
      209   2  0.410872000E+00  0.960625000E+01  0.604097000E+01  0.928904000E+01
      210   2  0.403092000E+00  0.106395000E+01  0.150975000E+02  0.929351000E+01
      211   2  0.405357000E+00  0.181502000E+02  0.120759000E+02  0.929310000E+01
      212   2  0.383437000E+00  0.181518000E+02  0.906208000E+01  0.929461000E+01
      213   2  0.409418000E+00  0.534231000E+01  0.300808000E+01  0.928509000E+01
      214   2  0.394883000E+00  0.106676000E+01  0.301487000E+01  0.929269000E+01
      215   2  0.476769000E+00  0.181403000E+02  0.211576000E+02  0.929613000E+01
      216   2  0.395639000E+00  0.138767000E+02  0.181169000E+02  0.929036000E+01
      217   2  0.409904000E+00  0.106699000E+01  0.120742000E+02  0.929167000E+01
      218   2  0.391090000E+00  0.960224000E+01  0.301919000E+01  0.929422000E+01
      219   2  0.479703000E+00  0.533171000E+01  0.245118000E+02  0.928799000E+01
      220   2  0.408550000E+00  0.181485000E+02  0.301020000E+01  0.929492000E+01
      221   2  0.495644000E+00  0.959820000E+01  0.245121000E+02  0.928508000E+01
      222   2  0.482070000E+00  0.181478000E+02  0.245211000E+02  0.929083000E+01
      223   2  0.489050000E+00  0.138695000E+02  0.211491000E+02  0.928483000E+01
      224   2  0.495005000E+00  0.534236000E+01  0.211609000E+02  0.929671000E+01
      225   2  0.410066000E+00  0.138755000E+02  0.150921000E+02  0.928858000E+01
      226   2  0.396366000E+00  0.533434000E+01  0.181127000E+02  0.929572000E+01
      227   2  0.414849000E+00  0.138700000E+02  0.120809000E+02  0.929236000E+01
      228   2  0.395921000E+00  0.181386000E+02  0.603934000E+01  0.928597000E+01
      229   2  0.398581000E+00  0.138733000E+02  0.603048000E+01  0.929188000E+01
      230   2  0.484778000E+00  0.106851000E+01  0.211515000E+02  0.929116000E+01
      231   2  0.399341000E+00  0.106990000E+01  0.604057000E+01  0.928553000E+01
      232   2  0.413648000E+00  0.533112000E+01  0.150931000E+02  0.929212000E+01
      233   2  0.396902000E+00  0.106742000E+01  0.181108000E+02  0.928490000E+01
      234   2  0.405351000E+00  0.138698000E+02  0.301841000E+01  0.929299000E+01
      235   2  0.410017000E+00  0.533777000E+01  0.120697000E+02  0.928547000E+01
      236   2  0.485850000E+00  0.138792000E+02  0.245135000E+02  0.929173000E+01
      237   2  0.491129000E+00  0.961200000E+01  0.211522000E+02  0.928941000E+01
      238   2  0.398883000E+00  0.138755000E+02  0.905469000E+01  0.929632000E+01
      239   2  0.407542000E+00  0.961115000E+01  0.181114000E+02  0.928706000E+01
      240   2  0.493355000E+00  0.108157000E+01  0.245320000E+02  0.928470000E+01
      241   2  0.401894000E+00  0.117430000E+02  0.166047000E+02  0.107912200E+02
      242   2  0.406426000E+00  0.320001000E+01  0.165991000E+02  0.107944200E+02
      243   2  0.398507000E+00  0.320288000E+01  0.452348000E+01  0.107999700E+02
      244   1 -0.758128000E+00  0.191813000E+02  0.210686000E+02  0.108170700E+02
      245   1 -0.763436000E+00  0.106724000E+02  0.906426000E+01  0.108182700E+02
      246   1 -0.763146000E+00  0.641077000E+01  0.302599000E+01  0.108105500E+02
      247   2  0.198340000E+00  0.202811000E+02  0.227491000E+02  0.107995300E+02
      248   2  0.391804000E+00  0.117330000E+02  0.754373000E+01  0.108000200E+02
      249   2  0.395604000E+00  0.117436000E+02  0.105715000E+02  0.108036200E+02
      250   1 -0.766105000E+00  0.192287000E+02  0.150921000E+02  0.108043600E+02
      251   2  0.376901000E+00  0.747335000E+01  0.148271000E+01  0.108008800E+02
      252   2  0.417278000E+00  0.202702000E+02  0.135841000E+02  0.107963400E+02
      253   2  0.396734000E+00  0.202782000E+02  0.166062000E+02  0.107975600E+02
      254   2  0.404614000E+00  0.747654000E+01  0.453314000E+01  0.107963100E+02
      255   1 -0.765421000E+00  0.192306000E+02  0.905521000E+01  0.108213300E+02
      256   1 -0.761830000E+00  0.106835000E+02  0.301255000E+01  0.108158100E+02
      257   1 -0.744739000E+00  0.855136000E+01  0.245279000E+02  0.108079400E+02
      258   1 -0.764003000E+00  0.170797000E+02  0.120785000E+02  0.108053500E+02
      259   2  0.398513000E+00  0.202724000E+02  0.105628000E+02  0.107962600E+02
      260   2  0.399524000E+00  0.117346000E+02  0.148882000E+01  0.107925000E+02
      261   2  0.401074000E+00  0.117343000E+02  0.453014000E+01  0.107965400E+02
      262   1 -0.762499000E+00  0.192212000E+02  0.301354000E+01  0.108104500E+02
      263   1 -0.745628000E+00  0.170818000E+02  0.245297000E+02  0.108051300E+02
      264   2  0.387602000E+00  0.202772000E+02  0.149601000E+01  0.107957900E+02
      265   2  0.399632000E+00  0.202742000E+02  0.452368000E+01  0.107944200E+02
      266   1 -0.763551000E+00  0.213881000E+01  0.301752000E+01  0.108180700E+02
      267   1 -0.756273000E+00  0.634934000E+01  0.210679000E+02  0.108187700E+02
      268   1 -0.756825000E+00  0.208915000E+01  0.210795000E+02  0.108148600E+02
      269   1 -0.764542000E+00  0.213055000E+01  0.906731000E+01  0.108056700E+02
      270   1 -0.768978000E+00  0.127955000E+02  0.181323000E+02  0.107985800E+02
      271   1 -0.768220000E+00  0.425876000E+01  0.181172000E+02  0.108171300E+02
      272   2  0.432515000E+00  0.160047000E+02  0.196336000E+02  0.107929000E+02
      273   2  0.191441000E+00  0.160238000E+02  0.227591000E+02  0.107971500E+02
      274   1 -0.770285000E+00  0.187921000E-01  0.181295000E+02  0.108123300E+02
      275   2  0.422881000E+00  0.747349000E+01  0.196296000E+02  0.108014900E+02
      276   2  0.173398000E+00  0.748432000E+01  0.227521000E+02  0.107981900E+02
      277   1 -0.765573000E+00  0.213659000E-01  0.604194000E+01  0.108154500E+02
      278   1 -0.764864000E+00  0.149418000E+02  0.150991000E+02  0.108047600E+02
      279   1 -0.763956000E+00  0.128109000E+02  0.120835000E+02  0.108012600E+02
      280   2  0.423077000E+00  0.320149000E+01  0.196274000E+02  0.108008200E+02
      281   2  0.397110000E+00  0.160091000E+02  0.135862000E+02  0.107977500E+02
      282   2  0.394611000E+00  0.160053000E+02  0.166092000E+02  0.107955300E+02
      283   2  0.194746000E+00  0.322073000E+01  0.227519000E+02  0.107936500E+02
      284   1 -0.743342000E+00  0.426507000E+01  0.245243000E+02  0.108079200E+02
      285   1 -0.747885000E+00  0.200292000E-01  0.245208000E+02  0.108001400E+02
      286   1 -0.764288000E+00  0.149398000E+02  0.906026000E+01  0.108202800E+02
      287   1 -0.764663000E+00  0.640258000E+01  0.150891000E+02  0.108070000E+02
      288   1 -0.762967000E+00  0.128081000E+02  0.603688000E+01  0.108099300E+02
      289   1 -0.765660000E+00  0.427942000E+01  0.120815000E+02  0.108095500E+02
      290   2  0.397261000E+00  0.160128000E+02  0.754373000E+01  0.107940800E+02
      291   2  0.395762000E+00  0.160136000E+02  0.105663000E+02  0.108004900E+02
      292   2  0.384166000E+00  0.320064000E+01  0.755175000E+01  0.107952600E+02
      293   2  0.402189000E+00  0.746724000E+01  0.135782000E+02  0.107953000E+02
      294   2  0.388943000E+00  0.746700000E+01  0.166036000E+02  0.108041300E+02
      295   2  0.394632000E+00  0.319608000E+01  0.105675000E+02  0.108040600E+02
      296   1 -0.761697000E+00  0.149554000E+02  0.301516000E+01  0.108071700E+02
      297   1 -0.745366000E+00  0.128054000E+02  0.245397000E+02  0.108053000E+02
      298   1 -0.763699000E+00  0.854770000E+01  0.603602000E+01  0.108090500E+02
      299   2  0.389543000E+00  0.160113000E+02  0.149082000E+01  0.108040500E+02
      300   2  0.399554000E+00  0.160092000E+02  0.453007000E+01  0.107923800E+02
      301   1 -0.766382000E+00  0.170704000E+02  0.181323000E+02  0.108151700E+02
      302   1 -0.756921000E+00  0.106371000E+02  0.210665000E+02  0.108083700E+02
      303   1 -0.762874000E+00  0.640307000E+01  0.906596000E+01  0.108035000E+02
      304   1 -0.766087000E+00  0.214305000E+01  0.150990000E+02  0.108041200E+02
      305   1 -0.762385000E+00  0.170812000E+02  0.604272000E+01  0.108137800E+02
      306   1 -0.767075000E+00  0.854533000E+01  0.181220000E+02  0.108014100E+02
      307   1 -0.762549000E+00  0.428075000E+01  0.603528000E+01  0.108186400E+02
      308   2  0.445507000E+00  0.117348000E+02  0.196277000E+02  0.107926100E+02
      309   2  0.179458000E+00  0.117591000E+02  0.227581000E+02  0.108020100E+02
      310   1 -0.766565000E+00  0.214025000E-01  0.120853000E+02  0.108086400E+02
      311   2  0.388171000E+00  0.746975000E+01  0.754244000E+01  0.107913200E+02
      312   2  0.397136000E+00  0.746630000E+01  0.105685000E+02  0.108004300E+02
      313   1 -0.764424000E+00  0.106813000E+02  0.151024000E+02  0.107992000E+02
      314   2  0.443776000E+00  0.202663000E+02  0.196255000E+02  0.108045200E+02
      315   1 -0.765090000E+00  0.854623000E+01  0.120804000E+02  0.108171000E+02
      316   2  0.399515000E+00  0.320763000E+01  0.135909000E+02  0.108008800E+02
      317   2  0.399674000E+00  0.117357000E+02  0.135801000E+02  0.107981600E+02
      318   2  0.382915000E+00  0.320646000E+01  0.148731000E+01  0.107913800E+02
      319   2  0.411646000E+00  0.202788000E+02  0.754541000E+01  0.108010500E+02
      320   1 -0.755534000E+00  0.149003000E+02  0.210834000E+02  0.107977800E+02
      321   2  0.456356000E+00  0.960938000E+01  0.120795000E+02  0.123103200E+02
      322   2  0.448968000E+00  0.106205000E+01  0.120731000E+02  0.123106400E+02
      323   2  0.533501000E+00  0.181512000E+02  0.211586000E+02  0.123088100E+02
      324   2  0.436370000E+00  0.181441000E+02  0.181190000E+02  0.123126200E+02
      325   2  0.463225000E+00  0.960712000E+01  0.906159000E+01  0.123166200E+02
      326   2  0.449949000E+00  0.960728000E+01  0.603989000E+01  0.123177400E+02
      327   2  0.454267000E+00  0.534264000E+01  0.300815000E+01  0.123164800E+02
      328   2  0.447280000E+00  0.181437000E+02  0.150902000E+02  0.123120500E+02
      329   2  0.447669000E+00  0.181404000E+02  0.120710000E+02  0.123133300E+02
      330   2  0.510225000E+00  0.533346000E+01  0.245096000E+02  0.123126900E+02
      331   2  0.461488000E+00  0.181532000E+02  0.905610000E+01  0.123147400E+02
      332   2  0.451262000E+00  0.181494000E+02  0.603862000E+01  0.123180100E+02
      333   2  0.512772000E+00  0.108293000E+01  0.245345000E+02  0.123057700E+02
      334   2  0.450179000E+00  0.961122000E+01  0.301510000E+01  0.123155300E+02
      335   2  0.533578000E+00  0.960242000E+01  0.245113000E+02  0.123069100E+02
      336   2  0.446761000E+00  0.181506000E+02  0.300748000E+01  0.123183800E+02
      337   2  0.518168000E+00  0.181407000E+02  0.245149000E+02  0.123101600E+02
      338   2  0.520364000E+00  0.138742000E+02  0.211590000E+02  0.123162700E+02
      339   2  0.430181000E+00  0.138726000E+02  0.181103000E+02  0.123107300E+02
      340   2  0.542076000E+00  0.533036000E+01  0.211593000E+02  0.123173700E+02
      341   2  0.447971000E+00  0.533745000E+01  0.181081000E+02  0.123082700E+02
      342   2  0.530955000E+00  0.107459000E+01  0.211587000E+02  0.123064500E+02
      343   2  0.456839000E+00  0.138719000E+02  0.150906000E+02  0.123100400E+02
      344   2  0.452226000E+00  0.138718000E+02  0.120809000E+02  0.123183700E+02
      345   2  0.452600000E+00  0.106409000E+01  0.181065000E+02  0.123067900E+02
      346   2  0.467784000E+00  0.138716000E+02  0.904883000E+01  0.123078400E+02
      347   2  0.450085000E+00  0.106606000E+01  0.905262000E+01  0.123156400E+02
      348   2  0.453878000E+00  0.138803000E+02  0.603300000E+01  0.123114500E+02
      349   2  0.449438000E+00  0.533378000E+01  0.151003000E+02  0.123116900E+02
      350   2  0.460699000E+00  0.533116000E+01  0.120814000E+02  0.123126100E+02
      351   2  0.442190000E+00  0.138708000E+02  0.301125000E+01  0.123127500E+02
      352   2  0.515737000E+00  0.138782000E+02  0.245180000E+02  0.123162000E+02
      353   2  0.459793000E+00  0.106390000E+01  0.603487000E+01  0.123128700E+02
      354   2  0.522237000E+00  0.960531000E+01  0.211601000E+02  0.123144400E+02
      355   2  0.461238000E+00  0.107172000E+01  0.302139000E+01  0.123149900E+02
      356   2  0.437980000E+00  0.960353000E+01  0.181137000E+02  0.123118000E+02
      357   2  0.454270000E+00  0.533947000E+01  0.905993000E+01  0.123171800E+02
      358   2  0.471279000E+00  0.533686000E+01  0.603494000E+01  0.123093100E+02
      359   2  0.448589000E+00  0.106420000E+01  0.150881000E+02  0.123079400E+02
      360   2  0.440898000E+00  0.960632000E+01  0.150961000E+02  0.123070300E+02
      361   1 -0.727215000E+00  0.106513000E+02  0.605275000E+01  0.137603200E+02
      362   1 -0.728038000E+00  0.855226000E+01  0.908403000E+01  0.137240600E+02