 Comment line
 
        1296 atoms
           0 bonds
           0 angles
           0 dihedrals
           0 impropers
 
           2 atom types
           0 bond types
           0 angle types
           0 dihedral types
           0 improper types
 
  0.0000000E+00   25.6200000000000      xlo xhi
  0.0000000E+00   25.6200000000000      ylo yhi
  0.0000000E+00   25.6200000000000      zlo zhi
  0.0 0.0 0.0 xy xz yz
 
 Atoms
 
      1      1      0.70000      0.00000      0.00000      0.00000
      2      1      0.70000      0.00000      2.13500      2.13500
      3      1      0.70000      2.13500      0.00000      2.13500
      4      1      0.70000      2.13500      2.13500      0.00000
      5      2     -1.40000      1.06750      1.06750      1.06750
      6      2     -1.40000      3.20250      3.20250      3.20250
      7      1      0.70000      0.00000      0.00000      4.27000
      8      1      0.70000      0.00000      2.13500      6.40500
      9      1      0.70000      2.13500      0.00000      6.40500
     10      1      0.70000      2.13500      2.13500      4.27000
     11      2     -1.40000      1.06750      1.06750      5.33750
     12      2     -1.40000      3.20250      3.20250      7.47250
     13      1      0.70000      0.00000      0.00000      8.54000
     14      1      0.70000      0.00000      2.13500     10.67500
     15      1      0.70000      2.13500      0.00000     10.67500
     16      1      0.70000      2.13500      2.13500      8.54000
     17      2     -1.40000      1.06750      1.06750      9.60750
     18      2     -1.40000      3.20250      3.20250     11.74250
     19      1      0.70000      0.00000      0.00000     12.81000
     20      1      0.70000      0.00000      2.13500     14.94500
     21      1      0.70000      2.13500      0.00000     14.94500
     22      1      0.70000      2.13500      2.13500     12.81000
     23      2     -1.40000      1.06750      1.06750     13.87750
     24      2     -1.40000      3.20250      3.20250     16.01250
     25      1      0.70000      0.00000      0.00000     17.08000
     26      1      0.70000      0.00000      2.13500     19.21500
     27      1      0.70000      2.13500      0.00000     19.21500
     28      1      0.70000      2.13500      2.13500     17.08000
     29      2     -1.40000      1.06750      1.06750     18.14750
     30      2     -1.40000      3.20250      3.20250     20.28250
     31      1      0.70000      0.00000      0.00000     21.35000
     32      1      0.70000      0.00000      2.13500     23.48500
     33      1      0.70000      2.13500      0.00000     23.48500
     34      1      0.70000      2.13500      2.13500     21.35000
     35      2     -1.40000      1.06750      1.06750     22.41750
     36      2     -1.40000      3.20250      3.20250     24.55250
     37      1      0.70000      0.00000      4.27000      0.00000
     38      1      0.70000      0.00000      6.40500      2.13500
     39      1      0.70000      2.13500      4.27000      2.13500
     40      1      0.70000      2.13500      6.40500      0.00000
     41      2     -1.40000      1.06750      5.33750      1.06750
     42      2     -1.40000      3.20250      7.47250      3.20250
     43      1      0.70000      0.00000      4.27000      4.27000
     44      1      0.70000      0.00000      6.40500      6.40500
     45      1      0.70000      2.13500      4.27000      6.40500
     46      1      0.70000      2.13500      6.40500      4.27000
     47      2     -1.40000      1.06750      5.33750      5.33750
     48      2     -1.40000      3.20250      7.47250      7.47250
     49      1      0.70000      0.00000      4.27000      8.54000
     50      1      0.70000      0.00000      6.40500     10.67500
     51      1      0.70000      2.13500      4.27000     10.67500
     52      1      0.70000      2.13500      6.40500      8.54000
     53      2     -1.40000      1.06750      5.33750      9.60750
     54      2     -1.40000      3.20250      7.47250     11.74250
     55      1      0.70000      0.00000      4.27000     12.81000
     56      1      0.70000      0.00000      6.40500     14.94500
     57      1      0.70000      2.13500      4.27000     14.94500
     58      1      0.70000      2.13500      6.40500     12.81000
     59      2     -1.40000      1.06750      5.33750     13.87750
     60      2     -1.40000      3.20250      7.47250     16.01250
     61      1      0.70000      0.00000      4.27000     17.08000
     62      1      0.70000      0.00000      6.40500     19.21500
     63      1      0.70000      2.13500      4.27000     19.21500
     64      1      0.70000      2.13500      6.40500     17.08000
     65      2     -1.40000      1.06750      5.33750     18.14750
     66      2     -1.40000      3.20250      7.47250     20.28250
     67      1      0.70000      0.00000      4.27000     21.35000
     68      1      0.70000      0.00000      6.40500     23.48500
     69      1      0.70000      2.13500      4.27000     23.48500
     70      1      0.70000      2.13500      6.40500     21.35000
     71      2     -1.40000      1.06750      5.33750     22.41750
     72      2     -1.40000      3.20250      7.47250     24.55250
     73      1      0.70000      0.00000      8.54000      0.00000
     74      1      0.70000      0.00000     10.67500      2.13500
     75      1      0.70000      2.13500      8.54000      2.13500
     76      1      0.70000      2.13500     10.67500      0.00000
     77      2     -1.40000      1.06750      9.60750      1.06750
     78      2     -1.40000      3.20250     11.74250      3.20250
     79      1      0.70000      0.00000      8.54000      4.27000
     80      1      0.70000      0.00000     10.67500      6.40500
     81      1      0.70000      2.13500      8.54000      6.40500
     82      1      0.70000      2.13500     10.67500      4.27000
     83      2     -1.40000      1.06750      9.60750      5.33750
     84      2     -1.40000      3.20250     11.74250      7.47250
     85      1      0.70000      0.00000      8.54000      8.54000
     86      1      0.70000      0.00000     10.67500     10.67500
     87      1      0.70000      2.13500      8.54000     10.67500
     88      1      0.70000      2.13500     10.67500      8.54000
     89      2     -1.40000      1.06750      9.60750      9.60750
     90      2     -1.40000      3.20250     11.74250     11.74250
     91      1      0.70000      0.00000      8.54000     12.81000
     92      1      0.70000      0.00000     10.67500     14.94500
     93      1      0.70000      2.13500      8.54000     14.94500
     94      1      0.70000      2.13500     10.67500     12.81000
     95      2     -1.40000      1.06750      9.60750     13.87750
     96      2     -1.40000      3.20250     11.74250     16.01250
     97      1      0.70000      0.00000      8.54000     17.08000
     98      1      0.70000      0.00000     10.67500     19.21500
     99      1      0.70000      2.13500      8.54000     19.21500
    100      1      0.70000      2.13500     10.67500     17.08000
    101      2     -1.40000      1.06750      9.60750     18.14750
    102      2     -1.40000      3.20250     11.74250     20.28250
    103      1      0.70000      0.00000      8.54000     21.35000
    104      1      0.70000      0.00000     10.67500     23.48500
    105      1      0.70000      2.13500      8.54000     23.48500
    106      1      0.70000      2.13500     10.67500     21.35000
    107      2     -1.40000      1.06750      9.60750     22.41750
    108      2     -1.40000      3.20250     11.74250     24.55250
    109      1      0.70000      0.00000     12.81000      0.00000
    110      1      0.70000      0.00000     14.94500      2.13500
    111      1      0.70000      2.13500     12.81000      2.13500
    112      1      0.70000      2.13500     14.94500      0.00000
    113      2     -1.40000      1.06750     13.87750      1.06750
    114      2     -1.40000      3.20250     16.01250      3.20250
    115      1      0.70000      0.00000     12.81000      4.27000
    116      1      0.70000      0.00000     14.94500      6.40500
    117      1      0.70000      2.13500     12.81000      6.40500
    118      1      0.70000      2.13500     14.94500      4.27000
    119      2     -1.40000      1.06750     13.87750      5.33750
    120      2     -1.40000      3.20250     16.01250      7.47250
    121      1      0.70000      0.00000     12.81000      8.54000
    122      1      0.70000      0.00000     14.94500     10.67500
    123      1      0.70000      2.13500     12.81000     10.67500
    124      1      0.70000      2.13500     14.94500      8.54000
    125      2     -1.40000      1.06750     13.87750      9.60750
    126      2     -1.40000      3.20250     16.01250     11.74250
    127      1      0.70000      0.00000     12.81000     12.81000
    128      1      0.70000      0.00000     14.94500     14.94500
    129      1      0.70000      2.13500     12.81000     14.94500
    130      1      0.70000      2.13500     14.94500     12.81000
    131      2     -1.40000      1.06750     13.87750     13.87750
    132      2     -1.40000      3.20250     16.01250     16.01250
    133      1      0.70000      0.00000     12.81000     17.08000
    134      1      0.70000      0.00000     14.94500     19.21500
    135      1      0.70000      2.13500     12.81000     19.21500
    136      1      0.70000      2.13500     14.94500     17.08000
    137      2     -1.40000      1.06750     13.87750     18.14750
    138      2     -1.40000      3.20250     16.01250     20.28250
    139      1      0.70000      0.00000     12.81000     21.35000
    140      1      0.70000      0.00000     14.94500     23.48500
    141      1      0.70000      2.13500     12.81000     23.48500
    142      1      0.70000      2.13500     14.94500     21.35000
    143      2     -1.40000      1.06750     13.87750     22.41750
    144      2     -1.40000      3.20250     16.01250     24.55250
    145      1      0.70000      0.00000     17.08000      0.00000
    146      1      0.70000      0.00000     19.21500      2.13500
    147      1      0.70000      2.13500     17.08000      2.13500
    148      1      0.70000      2.13500     19.21500      0.00000
    149      2     -1.40000      1.06750     18.14750      1.06750
    150      2     -1.40000      3.20250     20.28250      3.20250
    151      1      0.70000      0.00000     17.08000      4.27000
    152      1      0.70000      0.00000     19.21500      6.40500
    153      1      0.70000      2.13500     17.08000      6.40500
    154      1      0.70000      2.13500     19.21500      4.27000
    155      2     -1.40000      1.06750     18.14750      5.33750
    156      2     -1.40000      3.20250     20.28250      7.47250
    157      1      0.70000      0.00000     17.08000      8.54000
    158      1      0.70000      0.00000     19.21500     10.67500
    159      1      0.70000      2.13500     17.08000     10.67500
    160      1      0.70000      2.13500     19.21500      8.54000
    161      2     -1.40000      1.06750     18.14750      9.60750
    162      2     -1.40000      3.20250     20.28250     11.74250
    163      1      0.70000      0.00000     17.08000     12.81000
    164      1      0.70000      0.00000     19.21500     14.94500
    165      1      0.70000      2.13500     17.08000     14.94500
    166      1      0.70000      2.13500     19.21500     12.81000
    167      2     -1.40000      1.06750     18.14750     13.87750
    168      2     -1.40000      3.20250     20.28250     16.01250
    169      1      0.70000      0.00000     17.08000     17.08000
    170      1      0.70000      0.00000     19.21500     19.21500
    171      1      0.70000      2.13500     17.08000     19.21500
    172      1      0.70000      2.13500     19.21500     17.08000
    173      2     -1.40000      1.06750     18.14750     18.14750
    174      2     -1.40000      3.20250     20.28250     20.28250
    175      1      0.70000      0.00000     17.08000     21.35000
    176      1      0.70000      0.00000     19.21500     23.48500
    177      1      0.70000      2.13500     17.08000     23.48500
    178      1      0.70000      2.13500     19.21500     21.35000
    179      2     -1.40000      1.06750     18.14750     22.41750
    180      2     -1.40000      3.20250     20.28250     24.55250
    181      1      0.70000      0.00000     21.35000      0.00000
    182      1      0.70000      0.00000     23.48500      2.13500
    183      1      0.70000      2.13500     21.35000      2.13500
    184      1      0.70000      2.13500     23.48500      0.00000
    185      2     -1.40000      1.06750     22.41750      1.06750
    186      2     -1.40000      3.20250     24.55250      3.20250
    187      1      0.70000      0.00000     21.35000      4.27000
    188      1      0.70000      0.00000     23.48500      6.40500
    189      1      0.70000      2.13500     21.35000      6.40500
    190      1      0.70000      2.13500     23.48500      4.27000
    191      2     -1.40000      1.06750     22.41750      5.33750
    192      2     -1.40000      3.20250     24.55250      7.47250
    193      1      0.70000      0.00000     21.35000      8.54000
    194      1      0.70000      0.00000     23.48500     10.67500
    195      1      0.70000      2.13500     21.35000     10.67500
    196      1      0.70000      2.13500     23.48500      8.54000
    197      2     -1.40000      1.06750     22.41750      9.60750
    198      2     -1.40000      3.20250     24.55250     11.74250
    199      1      0.70000      0.00000     21.35000     12.81000
    200      1      0.70000      0.00000     23.48500     14.94500
    201      1      0.70000      2.13500     21.35000     14.94500
    202      1      0.70000      2.13500     23.48500     12.81000
    203      2     -1.40000      1.06750     22.41750     13.87750
    204      2     -1.40000      3.20250     24.55250     16.01250
    205      1      0.70000      0.00000     21.35000     17.08000
    206      1      0.70000      0.00000     23.48500     19.21500
    207      1      0.70000      2.13500     21.35000     19.21500
    208      1      0.70000      2.13500     23.48500     17.08000
    209      2     -1.40000      1.06750     22.41750     18.14750
    210      2     -1.40000      3.20250     24.55250     20.28250
    211      1      0.70000      0.00000     21.35000     21.35000
    212      1      0.70000      0.00000     23.48500     23.48500
    213      1      0.70000      2.13500     21.35000     23.48500
    214      1      0.70000      2.13500     23.48500     21.35000
    215      2     -1.40000      1.06750     22.41750     22.41750
    216      2     -1.40000      3.20250     24.55250     24.55250
    217      1      0.70000      4.27000      0.00000      0.00000
    218      1      0.70000      4.27000      2.13500      2.13500
    219      1      0.70000      6.40500      0.00000      2.13500
    220      1      0.70000      6.40500      2.13500      0.00000
    221      2     -1.40000      5.33750      1.06750      1.06750
    222      2     -1.40000      7.47250      3.20250      3.20250
    223      1      0.70000      4.27000      0.00000      4.27000
    224      1      0.70000      4.27000      2.13500      6.40500
    225      1      0.70000      6.40500      0.00000      6.40500
    226      1      0.70000      6.40500      2.13500      4.27000
    227      2     -1.40000      5.33750      1.06750      5.33750
    228      2     -1.40000      7.47250      3.20250      7.47250
    229      1      0.70000      4.27000      0.00000      8.54000
    230      1      0.70000      4.27000      2.13500     10.67500
    231      1      0.70000      6.40500      0.00000     10.67500
    232      1      0.70000      6.40500      2.13500      8.54000
    233      2     -1.40000      5.33750      1.06750      9.60750
    234      2     -1.40000      7.47250      3.20250     11.74250
    235      1      0.70000      4.27000      0.00000     12.81000
    236      1      0.70000      4.27000      2.13500     14.94500
    237      1      0.70000      6.40500      0.00000     14.94500
    238      1      0.70000      6.40500      2.13500     12.81000
    239      2     -1.40000      5.33750      1.06750     13.87750
    240      2     -1.40000      7.47250      3.20250     16.01250
    241      1      0.70000      4.27000      0.00000     17.08000
    242      1      0.70000      4.27000      2.13500     19.21500
    243      1      0.70000      6.40500      0.00000     19.21500
    244      1      0.70000      6.40500      2.13500     17.08000
    245      2     -1.40000      5.33750      1.06750     18.14750
    246      2     -1.40000      7.47250      3.20250     20.28250
    247      1      0.70000      4.27000      0.00000     21.35000
    248      1      0.70000      4.27000      2.13500     23.48500
    249      1      0.70000      6.40500      0.00000     23.48500
    250      1      0.70000      6.40500      2.13500     21.35000
    251      2     -1.40000      5.33750      1.06750     22.41750
    252      2     -1.40000      7.47250      3.20250     24.55250
    253      1      0.70000      4.27000      4.27000      0.00000
    254      1      0.70000      4.27000      6.40500      2.13500
    255      1      0.70000      6.40500      4.27000      2.13500
    256      1      0.70000      6.40500      6.40500      0.00000
    257      2     -1.40000      5.33750      5.33750      1.06750
    258      2     -1.40000      7.47250      7.47250      3.20250
    259      1      0.70000      4.27000      4.27000      4.27000
    260      1      0.70000      4.27000      6.40500      6.40500
    261      1      0.70000      6.40500      4.27000      6.40500
    262      1      0.70000      6.40500      6.40500      4.27000
    263      2     -1.40000      5.33750      5.33750      5.33750
    264      2     -1.40000      7.47250      7.47250      7.47250
    265      1      0.70000      4.27000      4.27000      8.54000
    266      1      0.70000      4.27000      6.40500     10.67500
    267      1      0.70000      6.40500      4.27000     10.67500
    268      1      0.70000      6.40500      6.40500      8.54000
    269      2     -1.40000      5.33750      5.33750      9.60750
    270      2     -1.40000      7.47250      7.47250     11.74250
    271      1      0.70000      4.27000      4.27000     12.81000
    272      1      0.70000      4.27000      6.40500     14.94500
    273      1      0.70000      6.40500      4.27000     14.94500
    274      1      0.70000      6.40500      6.40500     12.81000
    275      2     -1.40000      5.33750      5.33750     13.87750
    276      2     -1.40000      7.47250      7.47250     16.01250
    277      1      0.70000      4.27000      4.27000     17.08000
    278      1      0.70000      4.27000      6.40500     19.21500
    279      1      0.70000      6.40500      4.27000     19.21500
    280      1      0.70000      6.40500      6.40500     17.08000
    281      2     -1.40000      5.33750      5.33750     18.14750
    282      2     -1.40000      7.47250      7.47250     20.28250
    283      1      0.70000      4.27000      4.27000     21.35000
    284      1      0.70000      4.27000      6.40500     23.48500
    285      1      0.70000      6.40500      4.27000     23.48500
    286      1      0.70000      6.40500      6.40500     21.35000
    287      2     -1.40000      5.33750      5.33750     22.41750
    288      2     -1.40000      7.47250      7.47250     24.55250
    289      1      0.70000      4.27000      8.54000      0.00000
    290      1      0.70000      4.27000     10.67500      2.13500
    291      1      0.70000      6.40500      8.54000      2.13500
    292      1      0.70000      6.40500     10.67500      0.00000
    293      2     -1.40000      5.33750      9.60750      1.06750
    294      2     -1.40000      7.47250     11.74250      3.20250
    295      1      0.70000      4.27000      8.54000      4.27000
    296      1      0.70000      4.27000     10.67500      6.40500
    297      1      0.70000      6.40500      8.54000      6.40500
    298      1      0.70000      6.40500     10.67500      4.27000
    299      2     -1.40000      5.33750      9.60750      5.33750
    300      2     -1.40000      7.47250     11.74250      7.47250
    301      1      0.70000      4.27000      8.54000      8.54000
    302      1      0.70000      4.27000     10.67500     10.67500
    303      1      0.70000      6.40500      8.54000     10.67500
    304      1      0.70000      6.40500     10.67500      8.54000
    305      2     -1.40000      5.33750      9.60750      9.60750
    306      2     -1.40000      7.47250     11.74250     11.74250
    307      1      0.70000      4.27000      8.54000     12.81000
    308      1      0.70000      4.27000     10.67500     14.94500
    309      1      0.70000      6.40500      8.54000     14.94500
    310      1      0.70000      6.40500     10.67500     12.81000
    311      2     -1.40000      5.33750      9.60750     13.87750
    312      2     -1.40000      7.47250     11.74250     16.01250
    313      1      0.70000      4.27000      8.54000     17.08000
    314      1      0.70000      4.27000     10.67500     19.21500
    315      1      0.70000      6.40500      8.54000     19.21500
    316      1      0.70000      6.40500     10.67500     17.08000
    317      2     -1.40000      5.33750      9.60750     18.14750
    318      2     -1.40000      7.47250     11.74250     20.28250
    319      1      0.70000      4.27000      8.54000     21.35000
    320      1      0.70000      4.27000     10.67500     23.48500
    321      1      0.70000      6.40500      8.54000     23.48500
    322      1      0.70000      6.40500     10.67500     21.35000
    323      2     -1.40000      5.33750      9.60750     22.41750
    324      2     -1.40000      7.47250     11.74250     24.55250
    325      1      0.70000      4.27000     12.81000      0.00000
    326      1      0.70000      4.27000     14.94500      2.13500
    327      1      0.70000      6.40500     12.81000      2.13500
    328      1      0.70000      6.40500     14.94500      0.00000
    329      2     -1.40000      5.33750     13.87750      1.06750
    330      2     -1.40000      7.47250     16.01250      3.20250
    331      1      0.70000      4.27000     12.81000      4.27000
    332      1      0.70000      4.27000     14.94500      6.40500
    333      1      0.70000      6.40500     12.81000      6.40500
    334      1      0.70000      6.40500     14.94500      4.27000
    335      2     -1.40000      5.33750     13.87750      5.33750
    336      2     -1.40000      7.47250     16.01250      7.47250
    337      1      0.70000      4.27000     12.81000      8.54000
    338      1      0.70000      4.27000     14.94500     10.67500
    339      1      0.70000      6.40500     12.81000     10.67500
    340      1      0.70000      6.40500     14.94500      8.54000
    341      2     -1.40000      5.33750     13.87750      9.60750
    342      2     -1.40000      7.47250     16.01250     11.74250
    343      1      0.70000      4.27000     12.81000     12.81000
    344      1      0.70000      4.27000     14.94500     14.94500
    345      1      0.70000      6.40500     12.81000     14.94500
    346      1      0.70000      6.40500     14.94500     12.81000
    347      2     -1.40000      5.33750     13.87750     13.87750
    348      2     -1.40000      7.47250     16.01250     16.01250
    349      1      0.70000      4.27000     12.81000     17.08000
    350      1      0.70000      4.27000     14.94500     19.21500
    351      1      0.70000      6.40500     12.81000     19.21500
    352      1      0.70000      6.40500     14.94500     17.08000
    353      2     -1.40000      5.33750     13.87750     18.14750
    354      2     -1.40000      7.47250     16.01250     20.28250
    355      1      0.70000      4.27000     12.81000     21.35000
    356      1      0.70000      4.27000     14.94500     23.48500
    357      1      0.70000      6.40500     12.81000     23.48500
    358      1      0.70000      6.40500     14.94500     21.35000
    359      2     -1.40000      5.33750     13.87750     22.41750
    360      2     -1.40000      7.47250     16.01250     24.55250
    361      1      0.70000      4.27000     17.08000      0.00000
    362      1      0.70000      4.27000     19.21500      2.13500
    363      1      0.70000      6.40500     17.08000      2.13500
    364      1      0.70000      6.40500     19.21500      0.00000
    365      2     -1.40000      5.33750     18.14750      1.06750
    366      2     -1.40000      7.47250     20.28250      3.20250
    367      1      0.70000      4.27000     17.08000      4.27000
    368      1      0.70000      4.27000     19.21500      6.40500
    369      1      0.70000      6.40500     17.08000      6.40500
    370      1      0.70000      6.40500     19.21500      4.27000
    371      2     -1.40000      5.33750     18.14750      5.33750
    372      2     -1.40000      7.47250     20.28250      7.47250
    373      1      0.70000      4.27000     17.08000      8.54000
    374      1      0.70000      4.27000     19.21500     10.67500
    375      1      0.70000      6.40500     17.08000     10.67500
    376      1      0.70000      6.40500     19.21500      8.54000
    377      2     -1.40000      5.33750     18.14750      9.60750
    378      2     -1.40000      7.47250     20.28250     11.74250
    379      1      0.70000      4.27000     17.08000     12.81000
    380      1      0.70000      4.27000     19.21500     14.94500
    381      1      0.70000      6.40500     17.08000     14.94500
    382      1      0.70000      6.40500     19.21500     12.81000
    383      2     -1.40000      5.33750     18.14750     13.87750
    384      2     -1.40000      7.47250     20.28250     16.01250
    385      1      0.70000      4.27000     17.08000     17.08000
    386      1      0.70000      4.27000     19.21500     19.21500
    387      1      0.70000      6.40500     17.08000     19.21500
    388      1      0.70000      6.40500     19.21500     17.08000
    389      2     -1.40000      5.33750     18.14750     18.14750
    390      2     -1.40000      7.47250     20.28250     20.28250
    391      1      0.70000      4.27000     17.08000     21.35000
    392      1      0.70000      4.27000     19.21500     23.48500
    393      1      0.70000      6.40500     17.08000     23.48500
    394      1      0.70000      6.40500     19.21500     21.35000
    395      2     -1.40000      5.33750     18.14750     22.41750
    396      2     -1.40000      7.47250     20.28250     24.55250
    397      1      0.70000      4.27000     21.35000      0.00000
    398      1      0.70000      4.27000     23.48500      2.13500
    399      1      0.70000      6.40500     21.35000      2.13500
    400      1      0.70000      6.40500     23.48500      0.00000
    401      2     -1.40000      5.33750     22.41750      1.06750
    402      2     -1.40000      7.47250     24.55250      3.20250
    403      1      0.70000      4.27000     21.35000      4.27000
    404      1      0.70000      4.27000     23.48500      6.40500
    405      1      0.70000      6.40500     21.35000      6.40500
    406      1      0.70000      6.40500     23.48500      4.27000
    407      2     -1.40000      5.33750     22.41750      5.33750
    408      2     -1.40000      7.47250     24.55250      7.47250
    409      1      0.70000      4.27000     21.35000      8.54000
    410      1      0.70000      4.27000     23.48500     10.67500
    411      1      0.70000      6.40500     21.35000     10.67500
    412      1      0.70000      6.40500     23.48500      8.54000
    413      2     -1.40000      5.33750     22.41750      9.60750
    414      2     -1.40000      7.47250     24.55250     11.74250
    415      1      0.70000      4.27000     21.35000     12.81000
    416      1      0.70000      4.27000     23.48500     14.94500
    417      1      0.70000      6.40500     21.35000     14.94500
    418      1      0.70000      6.40500     23.48500     12.81000
    419      2     -1.40000      5.33750     22.41750     13.87750
    420      2     -1.40000      7.47250     24.55250     16.01250
    421      1      0.70000      4.27000     21.35000     17.08000
    422      1      0.70000      4.27000     23.48500     19.21500
    423      1      0.70000      6.40500     21.35000     19.21500
    424      1      0.70000      6.40500     23.48500     17.08000
    425      2     -1.40000      5.33750     22.41750     18.14750
    426      2     -1.40000      7.47250     24.55250     20.28250
    427      1      0.70000      4.27000     21.35000     21.35000
    428      1      0.70000      4.27000     23.48500     23.48500
    429      1      0.70000      6.40500     21.35000     23.48500
    430      1      0.70000      6.40500     23.48500     21.35000
    431      2     -1.40000      5.33750     22.41750     22.41750
    432      2     -1.40000      7.47250     24.55250     24.55250
    433      1      0.70000      8.54000      0.00000      0.00000
    434      1      0.70000      8.54000      2.13500      2.13500
    435      1      0.70000     10.67500      0.00000      2.13500
    436      1      0.70000     10.67500      2.13500      0.00000
    437      2     -1.40000      9.60750      1.06750      1.06750
    438      2     -1.40000     11.74250      3.20250      3.20250
    439      1      0.70000      8.54000      0.00000      4.27000
    440      1      0.70000      8.54000      2.13500      6.40500
    441      1      0.70000     10.67500      0.00000      6.40500