       data.test Cu2O(110)-graphene-OH
 
     682 atoms
 
      5 atom types
 
       0.00000         21.30000   xlo xhi
       0.00000         24.60000   ylo yhi
       0.00000         23.81620   zlo zhi
       0.0   0.0   0.0    xy xz yz

Atoms
# ATOMS id type q x y z 
1 1 -0.769123 8.45621 6.03653 0.0976449 
2 2 0.611017 16.0099 4.52565 0.00102433 
4 2 0.619339 20.2793 7.55712 -0.00150832 
4 1 -0.750617 14.9921 21.071 0.102896 
5 1 -0.767855 6.49163 15.1069 0.0996268 
6 2 0.425598 3.21239 22.7278 0.0216791 
7 1 -0.74251 8.44553 24.5439 0.120487 
8 1 -0.769079 12.7191 6.04409 0.102374 
9 2 0.602011 20.2689 1.48815 23.8126 
10 2 0.610438 16.0154 13.5861 23.8052 
11 2 0.609789 11.7393 1.47972 23.8122 
12 1 -0.773858 19.3269 9.0626 0.115159 
13 1 -0.767911 10.7743 3.01107 0.100231 
14 2 0.60782 7.46709 16.6067 0.00191274 
15 2 0.599991 16.0148 16.5982 -0.000617927 
16 1 -0.741057 4.16603 24.5399 0.120671 
17 1 -0.749485 10.7367 21.0821 0.108909 
18 2 0.630171 7.46807 19.6336 23.8108 
19 2 0.604265 3.19691 7.5427 23.8123 
20 2 0.614008 20.2686 13.5905 23.8051 
21 1 -0.773574 21.2208 18.1228 0.0933083 
22 1 -0.746241 21.2191 24.5281 0.135302 
23 1 -0.770824 2.22607 3.02101 0.110896 
24 1 -0.742779 12.7048 24.5411 0.121782 
25 2 0.606562 11.746 13.586 23.8111 
26 1 -0.772917 2.23551 9.06357 0.0991271 
27 2 0.60514 16.003 7.5488 -0.000709082 
28 1 -0.770797 15.04 9.06486 0.0970965 
29 2 0.608332 7.47542 1.48076 23.8151 
30 1 -0.750366 6.45593 21.0891 0.10325 
31 2 0.597975 3.20052 1.48752 23.8091 
32 1 -0.769956 16.9812 6.04631 0.106327 
33 2 0.599247 11.7399 4.52913 23.813 
34 1 -0.769026 8.44345 12.068 0.110137 
35 1 -0.77142 6.51071 9.05369 0.111236 
36 2 0.611023 16.0078 10.5628 23.8094 
37 1 -0.769833 19.3252 3.02386 0.100801 
38 1 -0.752573 2.19769 21.0893 0.104233 
39 2 0.596674 16.0145 1.48403 0.00279292 
40 2 0.431298 20.2859 22.7179 0.027154 
41 1 -0.768336 4.17198 12.0737 0.09626 
42 1 -0.768624 6.51542 3.01655 0.111473 
43 1 -0.771194 2.22841 15.1051 0.107803 
44 1 -0.768992 4.18582 6.04703 0.0981162 
45 1 -0.755961 19.275 21.0852 0.115119 
46 1 -0.768902 15.0536 3.02401 0.116547 
47 1 -0.770016 10.7707 15.0886 0.109583 
48 2 0.602412 11.7399 7.54914 23.8106 
49 1 -0.771575 12.7113 18.1098 0.102352 
50 1 -0.772837 4.17761 18.1206 0.105278 
51 1 -0.771647 12.7202 12.0767 0.107035 
52 1 -0.774079 21.227 12.0792 0.0961184 
53 2 0.616026 20.2771 10.5646 23.8083 
54 2 0.635783 16.0106 19.6226 23.8113 
55 2 0.591918 7.4699 13.5804 23.8101 
56 1 -0.768332 15.0491 15.0869 0.0992011 
57 1 -0.769472 10.7698 9.06316 0.111058 
58 2 0.630818 11.741 19.622 23.8098 
59 1 -0.772744 16.9824 12.071 0.099304 
60 2 0.422461 11.7518 22.7194 0.0336345 
61 1 -0.774292 21.221 6.04671 0.111422 
62 2 0.610942 7.46914 10.5662 0.00213254 
63 1 -0.772443 19.3161 15.0946 0.112636 
64 2 0.595019 3.19973 4.52509 23.8105 
65 2 0.417347 7.47984 22.7208 0.0261967 
66 2 0.628852 3.19706 19.6296 23.8118 
67 2 0.605685 11.7369 10.5613 23.8138 
68 2 0.605657 7.47749 7.53982 23.8142 
69 1 -0.771922 16.9855 18.1212 0.0934479 
70 2 0.605268 3.20555 16.6066 -0.000489731 
71 2 0.612882 3.20113 10.5717 23.8044 
72 2 0.605992 11.7441 16.5965 -0.000134756 
73 2 0.640047 20.2664 19.6262 23.8037 
74 2 0.61649 20.2792 4.52506 23.8065 
75 2 0.59832 3.19447 13.5853 23.8098 
76 2 0.608836 20.2744 16.6038 23.8116 
77 1 -0.742759 16.9865 24.5358 0.141347 
78 1 -0.771642 8.43934 18.1231 0.0993605 
79 2 0.408897 16.0222 22.7169 0.0228131 
80 2 0.607338 7.47533 4.53008 0.0010266 
81 2 0.445033 9.60489 15.0882 1.5004 
82 2 0.450494 5.32974 6.03044 1.49367 
83 2 0.446689 9.59994 12.0762 1.49226 
84 2 0.451533 5.33644 9.05044 1.4892 
85 2 0.538987 18.1497 21.1497 1.49399 
86 2 0.445799 1.06161 6.03183 1.50122 
87 2 0.441169 9.60198 6.03019 1.49685 
88 2 0.446451 9.61665 3.01821 1.49676 
89 2 0.448388 1.06215 12.0711 1.49301 
90 2 0.524331 5.3363 24.5194 1.49282 
91 2 0.454038 1.07682 15.0902 1.49207 
92 2 0.53754 1.07857 24.5377 1.49764 
93 2 0.426862 18.1444 18.1067 1.49225 
94 2 0.433886 13.87 18.1101 1.49688 
95 2 0.433411 13.8745 15.0882 1.4917 
96 2 0.533502 9.59475 24.5206 1.49348 
97 2 0.442192 5.32973 18.1199 1.49886 
98 2 0.450504 13.8766 12.0728 1.4968 
99 2 0.446306 18.1454 9.06093 1.496 
100 2 0.452786 13.8781 3.01581 1.49351 
101 2 0.446197 1.0738 9.05905 1.4943 
102 2 0.442572 18.1364 12.0681 1.49593 
103 2 0.440415 18.1373 6.04176 1.49628 
104 2 0.530672 13.8759 21.159 1.49374 
105 2 0.448135 5.34441 15.0965 1.49675 
106 2 0.531078 5.3391 21.1557 1.49074 
107 2 0.426494 1.05977 18.1113 1.49715 
108 2 0.433992 5.33387 12.0705 1.48926 
109 2 0.528513 13.8743 24.5199 1.49419 
110 2 0.449555 9.61669 9.0527 1.50039 
111 2 0.546167 18.1417 24.5212 1.50108 
112 2 0.440717 18.15 3.00771 1.49794 
113 2 0.450668 13.8678 6.04047 1.49008 
114 2 0.4416 5.34251 3.01186 1.49826 
115 2 0.529086 1.07696 21.1485 1.49596 
116 2 0.446775 18.1476 15.0918 1.49548 
117 2 0.520477 9.61297 21.1485 1.50117 
118 2 0.427761 9.59974 18.1088 1.50119 
119 2 0.447199 13.878 9.05435 1.49002 
120 2 0.462953 1.07333 3.01797 1.49406 
121 2 0.393455 11.7445 16.5993 3.01494 
122 1 -0.76307 8.54662 15.0859 3.02014 
123 2 0.410757 11.7413 13.5863 3.01152 
124 2 0.395665 3.20619 10.5609 3.01493 
125 2 0.184843 15.9961 22.7517 3.01615 
126 1 -0.756123 12.8573 21.0654 3.0043 
127 1 -0.752336 17.1447 21.0829 3.00274 
128 1 -0.763198 10.6714 6.04963 3.01864 
129 2 0.409249 11.7447 7.5474 3.01475 
130 1 -0.764709 14.9516 18.1092 3.01638 
131 1 -0.763517 10.6734 12.0901 3.0146 
132 1 -0.762859 14.9416 6.04483 3.00595 
133 2 0.408252 7.46333 10.5597 3.0101 
134 2 0.388122 11.7347 10.5703 3.01396 
135 1 -0.76412 19.2078 12.072 3.01077 
136 1 -0.765408 0.0291499 3.0274 3.00097 
137 1 -0.745864 10.6631 24.525 3.01854 
138 2 0.403102 3.19564 16.5986 3.01103 
139 1 -0.762589 4.27923 9.05691 3.00408 
140 2 0.190345 20.2433 22.7445 3.01101 
141 2 0.382794 7.46608 1.48789 3.00669 
142 2 0.396065 20.2803 7.54655 3.01894 
143 2 0.414195 7.47615 4.53308 3.01252 
144 2 0.393869 20.2696 13.5854 3.01666 
145 2 0.405708 20.2722 10.569 3.01776 
146 1 -0.763729 8.54007 9.06175 3.00958 
147 2 0.378315 11.7395 1.49104 3.01423 
148 1 -0.763254 17.0851 15.0961 3.01252 
149 2 0.386604 11.744 4.53136 3.01737 
150 1 -0.762945 12.8181 9.05354 3.00523 
151 1 -0.76081 17.0932 3.01865 3.01422 
152 2 0.375949 20.2801 1.47724 3.01367 
153 2 0.419965 20.2725 4.53619 3.01004 
154 2 0.410429 16.0147 16.6022 3.01722 
155 1 -0.746876 19.2121 24.5284 3.00927 
156 2 0.432469 20.2677 19.6175 3.01844 
157 2 0.410301 16.01 19.6306 3.00949 
158 1 -0.745363 2.13416 24.5266 3.01663 
159 1 -0.764752 6.39701 18.1176 3.01917 
160 1 -0.75434 4.33625 21.0733 3.01383 
161 2 0.428127 7.46574 19.6221 3.01567 
162 2 0.393171 16.0039 13.5842 3.0162 
163 1 -0.764305 0.0249641 15.1047 3.00892 
164 2 0.411061 3.1974 4.53156 3.01506 
165 1 -0.765743 2.14046 18.1158 3.01947 
166 1 -0.755391 0.068377 21.0715 3.00517 
167 2 0.182853 7.45015 22.7498 3.01874 
168 1 -0.764846 14.934 12.0733 3.01598 
169 2 0.419096 3.20312 19.6338 3.00953 
170 2 0.400623 16.0091 7.54702 3.01602 
171 1 -0.767041 19.214 18.1181 3.02033 
172 1 -0.762737 12.8123 15.0922 3.01778 
173 2 0.180434 3.18671 22.751 3.01136 
174 1 -0.744373 14.9418 24.5329 3.01449 
175 1 -0.763558 19.2237 6.0329 3.01309 
176 1 -0.763029 4.28013 15.1007 3.01903 
177 1 -0.762171 17.0827 9.0675 3.00477 
178 2 0.402208 7.4699 13.5805 3.01706 
179 1 -0.764605 2.12552 12.0758 3.01109 
180 2 0.38784 7.46578 16.5973 3.02007 
181 1 -0.760318 12.8184 3.01127 3.0104 
182 2 0.380718 16.0074 1.49067 3.01161 
183 2 0.394514 16.0076 4.5271 3.01998 
184 1 -0.743339 6.41246 24.5298 3.01425 
185 1 -0.761972 4.27285 3.02774 3.01865 
186 1 -0.764102 2.13402 6.03355 3.01244 
187 1 -0.764191 6.40471 12.0714 3.01895 
188 1 -0.7645 0.0367277 9.06542 3.01241 
189 1 -0.766583 10.6805 18.1257 3.02106 
190 1 -0.754367 8.59106 21.0627 3.02096 
191 2 0.436434 11.739 19.6281 3.01145 
192 2 0.18079 11.7238 22.7616 3.01895 
193 2 0.372167 3.19506 1.4852 3.01265 
194 1 -0.764592 6.4082 6.0365 3.00106 
195 2 0.409464 20.2786 16.608 3.01548 
196 2 0.406537 16.0096 10.5686 3.01361 
197 2 0.3943 3.20748 7.54208 3.00935 
198 2 0.399561 7.46896 7.55134 3.00759 
199 1 -0.762413 8.53658 3.02899 3.00525 
200 2 0.390999 3.20744 13.5842 3.00843 
201 2 0.407709 5.33142 9.06105 4.52771 
202 2 0.413819 9.61122 15.0893 4.52601 
203 2 0.392561 5.33443 6.03816 4.522 
204 2 0.416517 1.06403 9.05559 4.52415 
205 2 0.401678 9.61054 12.0796 4.5323 
206 2 0.393569 18.1383 18.1121 4.53374 
207 2 0.398342 9.6083 9.06107 4.52107 
208 2 0.400612 18.1499 15.0878 4.53165 
209 2 0.410872 9.60625 6.04097 4.5258 
210 2 0.403092 1.06395 15.0975 4.53027 
211 2 0.405357 18.1502 12.0759 4.52986 
212 2 0.383437 18.1518 9.06208 4.53137 
213 2 0.409418 5.34231 3.00808 4.52185 
214 2 0.394883 1.06676 3.01487 4.52945 
215 2 0.476769 18.1403 21.1576 4.53289 
216 2 0.395639 13.8767 18.1169 4.52712 
217 2 0.409904 1.06699 12.0742 4.52843 
218 2 0.39109 9.60224 3.01919 4.53098 
219 2 0.479703 5.33171 24.5118 4.52475 
220 2 0.40855 18.1485 3.0102 4.53168 
221 2 0.495644 9.5982 24.5121 4.52184 
222 2 0.48207 18.1478 24.5211 4.52759 
223 2 0.48905 13.8695 21.1491 4.52159 
224 2 0.495005 5.34236 21.1609 4.53347 
225 2 0.410066 13.8755 15.0921 4.52534 
226 2 0.396366 5.33434 18.1127 4.53248 
227 2 0.414849 13.87 12.0809 4.52912 
228 2 0.395921 18.1386 6.03934 4.52273 
229 2 0.398581 13.8733 6.03048 4.52864 
230 2 0.484778 1.06851 21.1515 4.52792 
231 2 0.399341 1.0699 6.04057 4.52229 
232 2 0.413648 5.33112 15.0931 4.52888 
233 2 0.396902 1.06742 18.1108 4.52166 
234 2 0.405351 13.8698 3.01841 4.52975 
235 2 0.410017 5.33777 12.0697 4.52223 
236 2 0.48585 13.8792 24.5135 4.52849 
237 2 0.491129 9.612 21.1522 4.52617 
238 2 0.398883 13.8755 9.05469 4.53308 
239 2 0.407542 9.61115 18.1114 4.52382 
240 2 0.493355 1.08157 24.532 4.52146 
241 2 0.401894 11.743 16.6047 6.02798 
242 2 0.406426 3.20001 16.5991 6.03118 
243 2 0.398507 3.20288 4.52348 6.03673 
244 1 -0.758128 19.1813 21.0686 6.05383 
245 1 -0.763436 10.6724 9.06426 6.05503 
246 1 -0.763146 6.41077 3.02599 6.04731 
247 2 0.19834 20.2811 22.7491 6.03629 
248 2 0.391804 11.733 7.54373 6.03678 
249 2 0.395604 11.7436 10.5715 6.04038 
250 1 -0.766105 19.2287 15.0921 6.04112 
251 2 0.376901 7.47335 1.48271 6.03764 
252 2 0.417278 20.2702 13.5841 6.0331 
253 2 0.396734 20.2782 16.6062 6.03432 
254 2 0.404614 7.47654 4.53314 6.03307 
255 1 -0.765421 19.2306 9.05521 6.05809 
256 1 -0.76183 10.6835 3.01255 6.05257 
257 1 -0.744739 8.55136 24.5279 6.0447 
258 1 -0.764003 17.0797 12.0785 6.04211 
259 2 0.398513 20.2724 10.5628 6.03302 
260 2 0.399524 11.7346 1.48882 6.02926 
261 2 0.401074 11.7343 4.53014 6.0333 
262 1 -0.762499 19.2212 3.01354 6.04721 
263 1 -0.745628 17.0818 24.5297 6.04189 
264 2 0.387602 20.2772 1.49601 6.03255 
265 2 0.399632 20.2742 4.52368 6.03118 
266 1 -0.763551 2.13881 3.01752 6.05483 
267 1 -0.756273 6.34934 21.0679 6.05553 
268 1 -0.756825 2.08915 21.0795 6.05162 
269 1 -0.764542 2.13055 9.06731 6.04243 
270 1 -0.768978 12.7955 18.1323 6.03534 
271 1 -0.76822 4.25876 18.1172 6.05389 
272 2 0.432515 16.0047 19.6336 6.02966 
273 2 0.191441 16.0238 22.7591 6.03391 
274 1 -0.770285 0.0187921 18.1295 6.04909 
275 2 0.422881 7.47349 19.6296 6.03825 
276 2 0.173398 7.48432 22.7521 6.03495 
277 1 -0.765573 0.0213659 6.04194 6.05221 
278 1 -0.764864 14.9418 15.0991 6.04152 
279 1 -0.763956 12.8109 12.0835 6.03802 
280 2 0.423077 3.20149 19.6274 6.03758 
281 2 0.39711 16.0091 13.5862 6.03451 
282 2 0.394611 16.0053 16.6092 6.03229 
283 2 0.194746 3.22073 22.7519 6.03041 
284 1 -0.743342 4.26507 24.5243 6.04468 
285 1 -0.747885 0.0200292 24.5208 6.0369 
286 1 -0.764288 14.9398 9.06026 6.05704 
287 1 -0.764663 6.40258 15.0891 6.04376 
288 1 -0.762967 12.8081 6.03688 6.04669 
289 1 -0.76566 4.27942 12.0815 6.04631 
290 2 0.397261 16.0128 7.54373 6.03084 
291 2 0.395762 16.0136 10.5663 6.03725 
292 2 0.384166 3.20064 7.55175 6.03202 
293 2 0.402189 7.46724 13.5782 6.03206 
294 2 0.388943 7.467 16.6036 6.04089 
295 2 0.394632 3.19608 10.5675 6.04082 
296 1 -0.761697 14.9554 3.01516 6.04393 
297 1 -0.745366 12.8054 24.5397 6.04206 
298 1 -0.763699 8.5477 6.03602 6.04581 
299 2 0.389543 16.0113 1.49082 6.04081 
300 2 0.399554 16.0092 4.53007 6.02914 
301 1 -0.766382 17.0704 18.1323 6.05193 
302 1 -0.756921 10.6371 21.0665 6.04513 
303 1 -0.762874 6.40307 9.06596 6.04026 
304 1 -0.766087 2.14305 15.099 6.04088 
305 1 -0.762385 17.0812 6.04272 6.05054 
306 1 -0.767075 8.54533 18.122 6.03817 
307 1 -0.762549 4.28075 6.03528 6.0554 
308 2 0.445507 11.7348 19.6277 6.02937 
309 2 0.179458 11.7591 22.7581 6.03877 
310 1 -0.766565 0.0214025 12.0853 6.0454 
311 2 0.388171 7.46975 7.54244 6.02808 
312 2 0.397136 7.4663 10.5685 6.03719 
313 1 -0.764424 10.6813 15.1024 6.03596 
314 2 0.443776 20.2663 19.6255 6.04128 
315 1 -0.76509 8.54623 12.0804 6.05386 
316 2 0.399515 3.20763 13.5909 6.03764 
317 2 0.399674 11.7357 13.5801 6.03492 
318 2 0.382915 3.20646 1.48731 6.02814 
319 2 0.411646 20.2788 7.54541 6.03781 
320 1 -0.755534 14.9003 21.0834 6.03454 
321 2 0.456356 9.60938 12.0795 7.54708 
322 2 0.448968 1.06205 12.0731 7.5474 
323 2 0.533501 18.1512 21.1586 7.54557 
324 2 0.43637 18.1441 18.119 7.54938 
325 2 0.463225 9.60712 9.06159 7.55338 
326 2 0.449949 9.60728 6.03989 7.5545 
327 2 0.454267 5.34264 3.00815 7.55324 
328 2 0.44728 18.1437 15.0902 7.54881 
329 2 0.447669 18.1404 12.071 7.55009 
330 2 0.510225 5.33346 24.5096 7.54945 
331 2 0.461488 18.1532 9.0561 7.5515 
332 2 0.451262 18.1494 6.03862 7.55477 
333 2 0.512772 1.08293 24.5345 7.54253 
334 2 0.450179 9.61122 3.0151 7.55229 
335 2 0.533578 9.60242 24.5113 7.54367 
336 2 0.446761 18.1506 3.00748 7.55514 
337 2 0.518168 18.1407 24.5149 7.54692 
338 2 0.520364 13.8742 21.159 7.55303 
339 2 0.430181 13.8726 18.1103 7.54749 
340 2 0.542076 5.33036 21.1593 7.55413 
341 2 0.447971 5.33745 18.1081 7.54503 
342 2 0.530955 1.07459 21.1587 7.54321 
343 2 0.456839 13.8719 15.0906 7.5468 
344 2 0.452226 13.8718 12.0809 7.55513 
345 2 0.4526 1.06409 18.1065 7.54355 
346 2 0.467784 13.8716 9.04883 7.5446 
347 2 0.450085 1.06606 9.05262 7.5524 
348 2 0.453878 13.8803 6.033 7.54821 
349 2 0.449438 5.33378 15.1003 7.54845 
350 2 0.460699 5.33116 12.0814 7.54937 
351 2 0.44219 13.8708 3.01125 7.54951 
352 2 0.515737 13.8782 24.518 7.55296 
353 2 0.459793 1.0639 6.03487 7.54963 
354 2 0.522237 9.60531 21.1601 7.5512 
355 2 0.461238 1.07172 3.02139 7.55175 
356 2 0.43798 9.60353 18.1137 7.54856 
357 2 0.45427 5.33947 9.05993 7.55394 
358 2 0.471279 5.33686 6.03494 7.54607 
359 2 0.448589 1.0642 15.0881 7.5447 
360 2 0.440898 9.60632 15.0961 7.54379 
361 1 -0.727215 10.6513 6.05275 8.99708 
362 1 -0.728038 8.55226 9.08403 8.96082 
363 1 -0.709025 6.41752 24.4846 8.95421 
364 1 -0.725597 4.28169 3.00898 8.96835 
365 2 0.442523 11.739 7.54959 9.07373 
366 2 0.461556 11.7467 10.5677 9.06963 
367 2 0.384872 7.47399 1.47896 9.07222 
368 2 0.451006 7.46691 4.52801 9.06824 
369 1 -0.726407 17.0875 15.0914 8.94326 
370 2 0.401015 20.2698 13.5827 9.06925 
371 2 0.410744 20.274 16.602 9.06701 
372 1 -0.731958 19.2212 12.041 8.9441 
373 1 -0.716223 10.6636 24.4916 8.95909 
374 2 0.435139 20.2741 7.53801 9.07504 
375 1 -0.726721 8.53927 3.03068 8.96638 
376 2 0.464727 20.2801 10.5661 9.06869 
377 2 0.390019 11.7355 1.4843 9.0692 
378 2 0.438306 11.7453 4.52419 9.06821 
379 1 -0.716223 19.2185 24.508 8.95734 
380 1 -0.727633 17.0796 3.01893 8.96492 
381 2 0.388079 20.2699 1.48036 9.06731 
382 2 0.438004 20.2782 4.5281 9.07161 
383 1 -0.725775 14.9531 18.13 8.94619 
384 1 -0.716203 12.8446 21.089 8.95471 
385 1 -0.728672 6.41367 18.1253 8.93616 
386 2 0.45705 16.0152 19.6223 9.06515 
387 1 -0.714967 4.32036 21.0982 8.95766 
388 1 -0.729817 2.1335 18.1195 8.94126 
389 2 0.291106 16.0024 22.7431 9.05287 
390 1 -0.72322 0.0492878 21.1097 8.93172 
391 2 0.451551 7.46855 19.6276 9.07338 
392 1 -0.726773 2.09257 6.05868 9.00297 
393 2 0.314012 7.45656 22.7475 9.06067 
394 1 -0.734189 0.0429385 9.07435 8.96945 
395 1 -0.711789 2.14556 24.5115 8.95084 
396 2 0.42459 3.19853 19.6243 9.0721 
397 2 0.26659 3.18249 22.7405 9.05722 
398 1 -0.728808 14.9279 12.0543 8.97052 
399 1 -0.725026 12.8107 15.0791 8.93623 
400 2 0.406771 16.014 13.5909 9.07741 
401 2 0.392299 16.0095 16.6025 9.0665 
402 2 0.417669 3.2016 7.54734 9.07788 
403 1 -0.72861 0.0338164 3.01342 8.96911 
404 2 0.464589 3.20669 10.5614 9.07194 
405 1 -0.725567 14.9128 6.04309 8.99526 
406 1 -0.72884 12.8345 9.06897 8.96764 
407 1 -0.732231 6.38379 12.0517 8.9631 
408 2 0.424286 16.0069 7.54343 9.06742 
409 1 -0.72633 4.25534 15.0929 8.93608 
410 2 0.473972 16.0099 10.569 9.06724 
411 2 0.402444 7.47091 13.5786 9.07218 
412 2 0.396835 7.4656 16.6057 9.06676 
413 2 0.391566 3.19572 1.48875 9.07429 
414 2 0.288174 20.2504 22.7397 9.05515 
415 1 -0.714004 14.9428 24.5099 8.96601 
416 1 -0.724594 12.8071 3.01201 8.96682 
417 2 0.393732 16.0116 1.48418 9.0628 
418 2 0.443621 16.0037 4.52634 9.07032 
419 2 0.422052 3.20503 4.52724 9.0655 
420 2 0.439492 20.2738 19.6301 9.06919 
421 1 -0.727159 10.6924 18.1412 8.94244 
422 1 -0.716181 8.5768 21.0993 8.95831 
423 1 -0.72996 6.37783 6.04427 8.98648 
424 2 0.473098 11.7397 19.6234 9.07326 
425 1 -0.728189 4.29339 9.08751 8.96748 
426 1 -0.731597 2.13495 12.0448 8.95069 
427 2 0.29772 11.7229 22.7369 9.05917 
428 1 -0.729227 0.014199 15.0922 8.93851 
429 1 -0.727074 17.0993 9.09035 8.95141 
430 1 -0.727451 19.1924 6.05556 8.99889 
431 2 0.429109 7.47739 7.55251 9.07439 
432 2 0.455136 7.46837 10.561 9.06929 
433 2 0.408911 3.19764 13.5832 9.06759 
434 1 -0.728194 19.2306 18.1279 8.95108 
435 2 0.40737 3.19926 16.6049 9.06816 
436 1 -0.733751 10.6791 12.0487 8.93409 
437 1 -0.725369 8.5284 15.083 8.93777 
438 2 0.406736 11.7413 13.5893 9.0771 
439 2 0.380422 11.7362 16.6004 9.06456 
440 1 -0.714971 17.1229 21.0981 8.9455 
441 2 0.421966 9.74104 12.2642 10.2715 
442 2 0.3674 1.09749 12.2568 10.2924 
443 2 0.351872 18.2671 20.9126 10.2919 
444 2 0.33327 18.1355 17.9573 10.2812 
445 2 0.333226 9.64498 8.95531 10.3632 
446 2 0.343508 9.58289 5.9721 10.5488 
447 2 0.38888 5.28894 3.06626 10.4138 
448 2 0.386717 18.0907 15.2542 10.2859 
449 2 0.427182 1.10837 0.118541 10.2785 
450 2 0.376881 18.2637 12.2477 10.3636 
451 2 0.415 5.34436 0.104899 10.2845 
452 2 0.345823 18.1978 8.91296 10.305 
453 2 0.32359 18.1502 5.99969 10.6035 
454 2 0.394839 9.54672 3.06779 10.4099 
455 2 0.443974 9.77662 0.0508074 10.4846 
456 2 0.407662 18.0626 3.06773 10.4046 
457 2 0.445584 18.3185 0.0678404 10.4435 
458 2 0.359127 13.9772 20.9026 10.2981 
459 2 0.34037 13.8661 17.951 10.2632 
460 2 0.362887 5.43132 20.911 10.3094 
461 2 0.345921 5.3406 17.9527 10.253 
462 2 0.435929 1.07486 20.8736 10.1918 
463 2 0.392944 13.8224 15.2534 10.2602 
464 2 0.354174 13.9375 12.2239 10.458 
465 2 0.322428 1.05506 17.9558 10.2754 
466 2 0.390485 1.0774 8.90123 10.3106 
467 2 0.36527 13.8526 8.91473 10.3962 
468 2 0.33527 13.8937 5.99131 10.5948 
469 2 0.363377 5.30327 15.2641 10.262 
470 2 0.384117 5.42136 12.2467 10.3884 
471 2 0.400987 13.8093 3.06658 10.4017 
472 2 0.336033 1.08537 6.00119 10.5955 
473 2 0.454567 14.0416 0.0679036 10.445 
474 2 0.389801 1.03704 3.07608 10.4035 
475 2 0.351504 9.71713 20.9164 10.3101 
476 2 0.341712 9.60697 17.9421 10.2507 
477 2 0.362528 5.34615 8.90373 10.3471 
478 2 0.324222 5.35108 6.00021 10.595 
479 2 0.382694 1.01664 15.2497 10.2813 
480 2 0.367316 9.55639 15.263 10.2628 
481 4 -0.0729934 2.46617 1.88378 12.9606 
482 4 -0.129428 1.82224 0.603564 12.5208 
483 4 -0.0714761 3.95216 1.89741 12.9631 
484 4 -0.10822 0.416161 2.99072 12.4587 
485 4 -0.0706096 2.5136 4.0994 12.7805 
486 4 -0.109982 1.78046 2.9912 12.4194 
487 4 -0.0693191 3.89007 4.05999 12.7866 
488 4 -0.12657 0.328284 5.2535 12.3658 
489 4 -0.0892216 2.50845 6.63041 12.5604 
490 4 -0.112325 1.78033 5.3009 12.4382 
491 4 -0.117886 3.99602 6.69558 12.4059 
492 4 -0.120795 0.286037 8.07807 12.5902 
493 4 -0.111318 2.41919 9.455 12.6971 
494 4 -0.114449 1.88976 7.96807 12.5388 
495 4 -0.0824735 3.93592 9.4902 12.9123 
496 4 -0.0568202 0.370616 10.5635 13.4544 
497 4 -0.0747207 2.42401 11.6767 12.9842 
498 4 -0.0536876 1.75285 10.5432 13.4557 
499 4 -0.0763733 3.97842 11.6693 12.9882 
500 4 -0.14866 0.199761 12.9554 12.4608 
501 4 -0.051235 2.39377 14.234 13.3761 
502 4 -0.134493 1.90945 12.9797 12.5214 
503 4 -0.052115 4.02762 14.2333 13.3519 
504 4 -0.109094 0.420573 15.3651 12.5463 
505 4 -0.098957 2.43766 16.6166 12.6765 
506 4 -0.104238 1.85043 15.2888 12.5678 
507 4 -0.0996945 3.97418 16.6156 12.6648 
508 4 -0.116521 0.376606 17.9057 12.5031 
509 4 -0.0556616 2.3826 19.0169 13.3584 
510 4 -0.0962258 1.80751 17.9342 12.6037 
511 4 -0.0586471 4.01663 19.016 13.3389 
512 4 -0.138413 0.21211 20.4361 12.5548 
513 4 -0.0754713 2.38028 21.6965 12.9937 
514 4 -0.140933 1.93136 20.3754 12.5229 
515 4 -0.0689504 3.88239 21.702 13.1098 
516 4 -0.0594497 0.289929 22.8226 13.3206 
517 4 -0.0657286 2.43132 24.1432 13.2616 
518 4 -0.0653751 1.66075 22.8466 13.2521 
519 4 -0.0637765 4.02021 24.1507 13.1961 
520 4 -0.13323 4.52451 0.614025 12.4594 
521 4 -0.0711494 6.72484 1.88471 12.9675 
522 4 -0.126129 6.09862 0.605951 12.5519 
523 4 -0.0697077 8.18455 1.88351 12.9665 
524 4 -0.102811 4.69092 2.98571 12.464 
525 4 -0.0688326 6.76801 4.11759 12.7878 
526 4 -0.105722 6.05335 2.99886 12.4506 
527 4 -0.0676938 8.13906 4.10162 12.7848 
528 4 -0.125033 4.57972 5.25043 12.3699 
529 4 -0.0821331 6.77662 6.63374 12.5966 
530 4 -0.114752 6.04029 5.31729 12.4313 
531 4 -0.116074 8.25633 6.66611 12.3875 
532 4 -0.102132 4.54109 8.0428 12.6297 
533 4 -0.122094 6.47191 9.54668 12.5869 
534 4 -0.112859 6.12145 7.93206 12.544 
535 4 -0.0769175 8.0235 9.35476 13.0089 
536 4 -0.0469556 4.6497 10.5464 13.4678 
537 4 -0.121534 6.35039 11.5602 12.595 
538 4 -0.0354435 6.05485 10.4857 13.4678 
539 4 -0.061765 7.95771 11.765 13.2335 
540 4 -0.140209 4.43845 12.9996 12.4564 
541 4 -0.0466183 6.64915 14.2922 13.4111 
542 4 -0.128817 6.06349 13.1151 12.4905 
543 4 -0.0545477 8.32279 14.2467 13.3553 
544 4 -0.103359 4.64875 15.3335 12.5692 
545 4 -0.101699 6.69481 16.6166 12.6894 
546 4 -0.101315 6.07335 15.2962 12.5733 
547 4 -0.0992282 8.22856 16.6156 12.6754 
548 4 -0.114937 4.60751 17.9176 12.5217 
549 4 -0.0498075 6.66956 18.9571 13.403 
550 4 -0.0958461 6.04276 17.9421 12.6162 
551 4 -0.06021 8.32957 19.0345 13.3201 
552 4 -0.124152 4.42191 20.3881 12.5697 
553 4 -0.127706 6.53206 21.803 12.407 
554 4 -0.134768 6.13446 20.2332 12.4662 
555 4 -0.0652105 7.98581 21.6646 13.0953 
556 4 -0.0534937 4.65205 22.825 13.2985 
557 4 -0.0657124 6.72923 24.1375 13.3373 
558 4 -0.050377 5.99961 22.8124 13.2068 
559 4 -0.0594966 8.29624 24.1254 13.1857 
560 4 -0.120655 8.68279 0.612381 12.4627 
561 4 -0.0564767 11.0558 1.94751 13.0168 
562 4 -0.144388 10.2222 0.909574 12.4157 
563 4 -0.0692066 12.488 1.85078 12.9679 
564 4 -0.114758 8.94489 3.00527 12.4394 
565 4 -0.0686336 11.0232 4.18918 12.7874 
566 4 -0.110492 10.3348 3.03206 12.4456 
567 4 -0.068398 12.3944 4.10147 12.7827 
568 4 -0.136249 8.89023 5.25977 12.342 
569 4 -0.0588826 11.1387 6.6486 12.9425 
570 4 -0.119785 10.3999 5.39646 12.4693 
571 4 -0.127062 12.6103 6.67064 12.3637 
572 4 -0.114793 8.69693 8.0709 12.5838 
573 4 -0.173281 11.0272 9.34447 12.2389 
574 4 -0.108869 10.3049 7.82526 12.6049 
575 4 -0.0983213 12.6986 9.49594 12.6751 
576 4 -0.0277853 8.74703 10.5084 13.155 
577 4 -0.150406 10.9093 11.5899 12.2763 
578 4 0.0970124 10.2722 10.4702 13.1512 
579 4 -0.0901964 12.6141 11.6357 12.6492 
580 4 -0.137871 8.62004 12.8892 12.5215 
581 4 -0.0449898 10.943 14.3281 13.4232 
582 4 -0.134893 10.2651 13.1582 12.4994 
583 4 -0.0524651 12.6174 14.2649 13.3414 
584 4 -0.108909 8.91653 15.3466 12.5647 
585 4 -0.102981 10.9541 16.6215 12.6733 
586 4 -0.103441 10.3522 15.2907 12.5744 
587 4 -0.0995817 12.4865 16.6122 12.6591 
588 4 -0.115864 8.88321 17.913 12.5165 
589 4 -0.0496562 10.9371 18.9493 13.4055 
590 4 -0.0931243 10.314 17.9578 12.616 
591 4 -0.0605989 12.6135 19.0242 13.3098 
592 4 -0.11698 8.65978 20.4568 12.5786 
593 4 -0.130438 10.7748 21.8239 12.3307 
594 4 -0.13097 10.3759 20.2354 12.4922 
595 4 -0.0628828 12.213 21.6882 13.0807 
596 4 -0.0616638 8.87254 22.7465 13.381 
597 4 -0.136553 10.7569 23.9138 12.4264 
598 4 -0.0412673 10.3063 22.8184 13.1813 
599 4 -0.0534941 12.2585 24.1326 13.1329 
600 4 -0.116133 12.9053 0.496734 12.4973 
601 4 -0.0578098 15.3142 1.91639 13.0219 
602 4 -0.148413 14.4696 0.870948 12.4257 
603 4 -0.070168 16.7583 1.83306 12.9692 
604 4 -0.12712 13.2028 3.00732 12.4128 
605 4 -0.0630394 15.311 4.15371 12.8091 
606 4 -0.11384 14.6256 3.01218 12.4507 
607 4 -0.0669367 16.6613 4.0982 12.8002 
608 4 -0.123177 13.1447 5.25144 12.3517 
609 4 -0.0822279 15.2917 6.65241 12.6192 
610 4 -0.109198 14.5889 5.32449 12.4437 
611 4 -0.127458 16.8028 6.70081 12.3688 
612 4 -0.0977804 13.0767 8.01743 12.585 
613 4 -0.116434 15.0733 9.55424 12.5829 
614 4 -0.108238 14.6597 7.95568 12.5809 
615 4 -0.0613912 16.6337 9.431 13.223 
616 4 -0.0478916 13.2248 10.5646 13.5122 
617 4 -0.130831 14.9971 11.5531 12.4902 
618 4 -0.0371583 14.6515 10.5174 13.4638 
619 4 -0.0661368 16.624 11.7267 13.0937 
620 4 -0.128012 12.9984 13.0619 12.4209 
621 4 -0.0468659 15.2068 14.2713 13.4094 
622 4 -0.121969 14.5783 13.0988 12.5132 
623 4 -0.0575739 16.8948 14.2035 13.3049 
624 4 -0.11189 13.2041 15.3665 12.5324 
625 4 -0.105197 15.2074 16.6139 12.6832 
626 4 -0.100052 14.6186 15.2453 12.5897 
627 4 -0.0978965 16.7376 16.6145 12.6707 
628 4 -0.119191 13.1585 17.8876 12.4972 
629 4 -0.04847 15.1996 18.9613 13.3997 
630 4 -0.0908216 14.5883 17.9694 12.6304 
631 4 -0.0611476 16.8825 19.0451 13.3045 
632 4 -0.117168 12.915 20.4649 12.5831 
633 4 -0.122973 15.0489 21.8233 12.3986 
634 4 -0.13569 14.629 20.2387 12.469 
635 4 -0.0603047 16.4544 21.6868 13.1532 
636 4 -0.0637558 13.0496 22.8122 13.4088 
637 4 -0.129315 15.0351 23.9172 12.4712 
638 4 -0.0459668 14.5264 22.8368 13.2094 
639 4 -0.0508181 16.5557 24.1387 13.1973 
640 4 -0.112782 17.1682 0.482656 12.4974 
641 4 -0.0565486 19.5407 1.90867 13.0862 
642 4 -0.147522 18.6895 0.895245 12.4203 
643 4 -0.0717212 21.0408 1.86389 13.0285 
644 4 -0.129048 17.4639 3.00008 12.4154 
645 4 -0.0653423 19.5741 4.14699 12.8346 
646 4 -0.114262 18.8835 3.01036 12.458 
647 4 -0.0675504 20.9357 4.08389 12.8147 
648 4 -0.123354 17.3987 5.2629 12.3666 
649 4 -0.0836738 19.5367 6.65139 12.6144 
650 4 -0.1094 18.8435 5.31843 12.4445 
651 4 -0.12241 21.0293 6.69271 12.4054 
652 4 -0.113327 17.2448 8.18241 12.5901 
653 4 -0.123877 19.335 9.52729 12.5651 
654 4 -0.107294 18.8637 7.95621 12.5679 
655 4 -0.0791098 20.894 9.45741 13.0316 
656 4 -0.0532737 17.3932 10.5313 13.4504 
657 4 -0.125797 19.2314 11.5714 12.5217 
658 4 -0.0430543 18.8123 10.5023 13.467 
659 4 -0.0711019 20.9417 11.6766 12.9889 
660 4 -0.130933 17.1829 12.887 12.4878 
661 4 -0.0479513 19.4787 14.2669 13.3767 
662 4 -0.12917 18.8306 13.0693 12.494 
663 4 -0.0556341 21.1504 14.2438 13.2841 
664 4 -0.113693 17.4443 15.3643 12.5341 
665 4 -0.107189 19.4833 16.6221 12.6706 
666 4 -0.106648 18.8762 15.2621 12.5666 
667 4 -0.0989898 21.0211 16.6164 12.66 
668 4 -0.115716 17.4033 17.891 12.5009 
669 4 -0.0508121 19.4636 18.9622 13.3841 
670 4 -0.0957452 18.8257 17.9628 12.6008 
671 4 -0.0595101 21.1293 19.0169 13.2919 
672 4 -0.113647 17.1707 20.4911 12.5903 
673 4 -0.135217 19.2522 21.842 12.3071 
674 4 -0.133109 18.869 20.249 12.4705 
675 4 -0.0654738 20.7521 21.7296 13.0616 
676 4 -0.0628818 17.3032 22.8237 13.4249 
677 4 -0.130087 19.2938 23.9247 12.4755 
678 4 -0.0433331 18.7817 22.8156 13.1885 
679 4 -0.0609083 20.8003 24.1573 13.1404 
680 4 -0.130553 0.257358 0.520243 12.5 
681 1 -0.241615 10.3127 10.5349 14.506 
682 3 0.0966337 11.0717 9.84544 14.8448 
