 Comment line
 
        1500 atoms
           0 bonds
           0 angles
           0 dihedrals
           0 impropers
 
           2 atom types
           0 bond types
           0 angle types
           0 dihedral types
           0 improper types
 
  0.0000000E+00   25.3573125000000      xlo xhi
  0.0000000E+00   25.3573125000000      ylo yhi
  0.0000000E+00   26.0602875000000      zlo zhi
     0.0000000      0.0000000      0.0000000   xy xz yz
 
 Atoms
 
      1      1     3.40000000      2.53573      2.53573      2.60603
      2      1     3.40000000      2.53573      0.00000      0.00000
      3      1     3.40000000      0.00000      2.53573      0.00000
      4      1     3.40000000      0.00000      0.00000      2.60603
      5      2    -1.70000000      1.26787      1.26787      1.58968
      6      2    -1.70000000      1.26787      1.26787      4.19571
      7      2    -1.70000000      1.26787      3.80360      1.01635
      8      2    -1.70000000      1.26787      3.80360      3.62238
      9      2    -1.70000000      3.80360      1.26787      1.01635
     10      2    -1.70000000      3.80360      1.26787      3.62238
     11      2    -1.70000000      3.80360      3.80360      1.58968
     12      2    -1.70000000      3.80360      3.80360      4.19571
     13      1     3.40000000      2.53573      2.53573      7.81809
     14      1     3.40000000      2.53573      0.00000      5.21206
     15      1     3.40000000      0.00000      2.53573      5.21206
     16      1     3.40000000      0.00000      0.00000      7.81809
     17      2    -1.70000000      1.26787      1.26787      6.80174
     18      2    -1.70000000      1.26787      1.26787      9.40776
     19      2    -1.70000000      1.26787      3.80360      6.22841
     20      2    -1.70000000      1.26787      3.80360      8.83444
     21      2    -1.70000000      3.80360      1.26787      6.22841
     22      2    -1.70000000      3.80360      1.26787      8.83444
     23      2    -1.70000000      3.80360      3.80360      6.80174
     24      2    -1.70000000      3.80360      3.80360      9.40776
     25      1     3.40000000      2.53573      2.53573     13.03014
     26      1     3.40000000      2.53573      0.00000     10.42412
     27      1     3.40000000      0.00000      2.53573     10.42412
     28      1     3.40000000      0.00000      0.00000     13.03014
     29      2    -1.70000000      1.26787      1.26787     12.01379
     30      2    -1.70000000      1.26787      1.26787     14.61982
     31      2    -1.70000000      1.26787      3.80360     11.44047
     32      2    -1.70000000      1.26787      3.80360     14.04649
     33      2    -1.70000000      3.80360      1.26787     11.44047
     34      2    -1.70000000      3.80360      1.26787     14.04649
     35      2    -1.70000000      3.80360      3.80360     12.01379
     36      2    -1.70000000      3.80360      3.80360     14.61982
     37      1     3.40000000      2.53573      2.53573     18.24220
     38      1     3.40000000      2.53573      0.00000     15.63617
     39      1     3.40000000      0.00000      2.53573     15.63617
     40      1     3.40000000      0.00000      0.00000     18.24220
     41      2    -1.70000000      1.26787      1.26787     17.22585
     42      2    -1.70000000      1.26787      1.26787     19.83188
     43      2    -1.70000000      1.26787      3.80360     16.65252
     44      2    -1.70000000      1.26787      3.80360     19.25855
     45      2    -1.70000000      3.80360      1.26787     16.65252
     46      2    -1.70000000      3.80360      1.26787     19.25855
     47      2    -1.70000000      3.80360      3.80360     17.22585
     48      2    -1.70000000      3.80360      3.80360     19.83188
     49      1     3.40000000      2.53573      2.53573     23.45426
     50      1     3.40000000      2.53573      0.00000     20.84823
     51      1     3.40000000      0.00000      2.53573     20.84823
     52      1     3.40000000      0.00000      0.00000     23.45426
     53      2    -1.70000000      1.26787      1.26787     22.43791
     54      2    -1.70000000      1.26787      1.26787     25.04394
     55      2    -1.70000000      1.26787      3.80360     21.86458
     56      2    -1.70000000      1.26787      3.80360     24.47061
     57      2    -1.70000000      3.80360      1.26787     21.86458
     58      2    -1.70000000      3.80360      1.26787     24.47061
     59      2    -1.70000000      3.80360      3.80360     22.43791
     60      2    -1.70000000      3.80360      3.80360     25.04394
     61      1     3.40000000      2.53573      7.60719      2.60603
     62      1     3.40000000      2.53573      5.07146      0.00000
     63      1     3.40000000      0.00000      7.60719      0.00000
     64      1     3.40000000      0.00000      5.07146      2.60603
     65      2    -1.70000000      1.26787      6.33933      1.58968
     66      2    -1.70000000      1.26787      6.33933      4.19571
     67      2    -1.70000000      1.26787      8.87506      1.01635
     68      2    -1.70000000      1.26787      8.87506      3.62238
     69      2    -1.70000000      3.80360      6.33933      1.01635
     70      2    -1.70000000      3.80360      6.33933      3.62238
     71      2    -1.70000000      3.80360      8.87506      1.58968
     72      2    -1.70000000      3.80360      8.87506      4.19571
     73      1     3.40000000      2.53573      7.60719      7.81809
     74      1     3.40000000      2.53573      5.07146      5.21206
     75      1     3.40000000      0.00000      7.60719      5.21206
     76      1     3.40000000      0.00000      5.07146      7.81809
     77      2    -1.70000000      1.26787      6.33933      6.80174
     78      2    -1.70000000      1.26787      6.33933      9.40776
     79      2    -1.70000000      1.26787      8.87506      6.22841
     80      2    -1.70000000      1.26787      8.87506      8.83444
     81      2    -1.70000000      3.80360      6.33933      6.22841
     82      2    -1.70000000      3.80360      6.33933      8.83444
     83      2    -1.70000000      3.80360      8.87506      6.80174
     84      2    -1.70000000      3.80360      8.87506      9.40776
     85      1     3.40000000      2.53573      7.60719     13.03014
     86      1     3.40000000      2.53573      5.07146     10.42412
     87      1     3.40000000      0.00000      7.60719     10.42412
     88      1     3.40000000      0.00000      5.07146     13.03014
     89      2    -1.70000000      1.26787      6.33933     12.01379
     90      2    -1.70000000      1.26787      6.33933     14.61982
     91      2    -1.70000000      1.26787      8.87506     11.44047
     92      2    -1.70000000      1.26787      8.87506     14.04649
     93      2    -1.70000000      3.80360      6.33933     11.44047
     94      2    -1.70000000      3.80360      6.33933     14.04649
     95      2    -1.70000000      3.80360      8.87506     12.01379
     96      2    -1.70000000      3.80360      8.87506     14.61982
     97      1     3.40000000      2.53573      7.60719     18.24220
     98      1     3.40000000      2.53573      5.07146     15.63617
     99      1     3.40000000      0.00000      7.60719     15.63617
    100      1     3.40000000      0.00000      5.07146     18.24220
    101      2    -1.70000000      1.26787      6.33933     17.22585
    102      2    -1.70000000      1.26787      6.33933     19.83188
    103      2    -1.70000000      1.26787      8.87506     16.65252
    104      2    -1.70000000      1.26787      8.87506     19.25855
    105      2    -1.70000000      3.80360      6.33933     16.65252
    106      2    -1.70000000      3.80360      6.33933     19.25855
    107      2    -1.70000000      3.80360      8.87506     17.22585
    108      2    -1.70000000      3.80360      8.87506     19.83188
    109      1     3.40000000      2.53573      7.60719     23.45426
    110      1     3.40000000      2.53573      5.07146     20.84823
    111      1     3.40000000      0.00000      7.60719     20.84823
    112      1     3.40000000      0.00000      5.07146     23.45426
    113      2    -1.70000000      1.26787      6.33933     22.43791
    114      2    -1.70000000      1.26787      6.33933     25.04394
    115      2    -1.70000000      1.26787      8.87506     21.86458
    116      2    -1.70000000      1.26787      8.87506     24.47061
    117      2    -1.70000000      3.80360      6.33933     21.86458
    118      2    -1.70000000      3.80360      6.33933     24.47061
    119      2    -1.70000000      3.80360      8.87506     22.43791
    120      2    -1.70000000      3.80360      8.87506     25.04394
    121      1     3.40000000      2.53573     12.67866      2.60603
    122      1     3.40000000      2.53573     10.14292      0.00000
    123      1     3.40000000      0.00000     12.67866      0.00000
    124      1     3.40000000      0.00000     10.14292      2.60603
    125      2    -1.70000000      1.26787     11.41079      1.58968
    126      2    -1.70000000      1.26787     11.41079      4.19571
    127      2    -1.70000000      1.26787     13.94652      1.01635
    128      2    -1.70000000      1.26787     13.94652      3.62238
    129      2    -1.70000000      3.80360     11.41079      1.01635
    130      2    -1.70000000      3.80360     11.41079      3.62238
    131      2    -1.70000000      3.80360     13.94652      1.58968
    132      2    -1.70000000      3.80360     13.94652      4.19571
    133      1     3.40000000      2.53573     12.67866      7.81809
    134      1     3.40000000      2.53573     10.14292      5.21206
    135      1     3.40000000      0.00000     12.67866      5.21206
    136      1     3.40000000      0.00000     10.14292      7.81809
    137      2    -1.70000000      1.26787     11.41079      6.80174
    138      2    -1.70000000      1.26787     11.41079      9.40776
    139      2    -1.70000000      1.26787     13.94652      6.22841
    140      2    -1.70000000      1.26787     13.94652      8.83444
    141      2    -1.70000000      3.80360     11.41079      6.22841
    142      2    -1.70000000      3.80360     11.41079      8.83444
    143      2    -1.70000000      3.80360     13.94652      6.80174
    144      2    -1.70000000      3.80360     13.94652      9.40776
    145      1     3.40000000      2.53573     12.67866     13.03014
    146      1     3.40000000      2.53573     10.14292     10.42412
    147      1     3.40000000      0.00000     12.67866     10.42412
    148      1     3.40000000      0.00000     10.14292     13.03014
    149      2    -1.70000000      1.26787     11.41079     12.01379
    150      2    -1.70000000      1.26787     11.41079     14.61982
    151      2    -1.70000000      1.26787     13.94652     11.44047
    152      2    -1.70000000      1.26787     13.94652     14.04649
    153      2    -1.70000000      3.80360     11.41079     11.44047
    154      2    -1.70000000      3.80360     11.41079     14.04649
    155      2    -1.70000000      3.80360     13.94652     12.01379
    156      2    -1.70000000      3.80360     13.94652     14.61982
    157      1     3.40000000      2.53573     12.67866     18.24220
    158      1     3.40000000      2.53573     10.14292     15.63617
    159      1     3.40000000      0.00000     12.67866     15.63617
    160      1     3.40000000      0.00000     10.14292     18.24220
    161      2    -1.70000000      1.26787     11.41079     17.22585
    162      2    -1.70000000      1.26787     11.41079     19.83188
    163      2    -1.70000000      1.26787     13.94652     16.65252
    164      2    -1.70000000      1.26787     13.94652     19.25855
    165      2    -1.70000000      3.80360     11.41079     16.65252
    166      2    -1.70000000      3.80360     11.41079     19.25855
    167      2    -1.70000000      3.80360     13.94652     17.22585
    168      2    -1.70000000      3.80360     13.94652     19.83188
    169      1     3.40000000      2.53573     12.67866     23.45426
    170      1     3.40000000      2.53573     10.14292     20.84823
    171      1     3.40000000      0.00000     12.67866     20.84823
    172      1     3.40000000      0.00000     10.14292     23.45426
    173      2    -1.70000000      1.26787     11.41079     22.43791
    174      2    -1.70000000      1.26787     11.41079     25.04394
    175      2    -1.70000000      1.26787     13.94652     21.86458
    176      2    -1.70000000      1.26787     13.94652     24.47061
    177      2    -1.70000000      3.80360     11.41079     21.86458
    178      2    -1.70000000      3.80360     11.41079     24.47061
    179      2    -1.70000000      3.80360     13.94652     22.43791
    180      2    -1.70000000      3.80360     13.94652     25.04394
    181      1     3.40000000      2.53573     17.75012      2.60603
    182      1     3.40000000      2.53573     15.21439      0.00000
    183      1     3.40000000      0.00000     17.75012      0.00000
    184      1     3.40000000      0.00000     15.21439      2.60603
    185      2    -1.70000000      1.26787     16.48225      1.58968
    186      2    -1.70000000      1.26787     16.48225      4.19571
    187      2    -1.70000000      1.26787     19.01798      1.01635
    188      2    -1.70000000      1.26787     19.01798      3.62238
    189      2    -1.70000000      3.80360     16.48225      1.01635
    190      2    -1.70000000      3.80360     16.48225      3.62238
    191      2    -1.70000000      3.80360     19.01798      1.58968
    192      2    -1.70000000      3.80360     19.01798      4.19571
    193      1     3.40000000      2.53573     17.75012      7.81809
    194      1     3.40000000      2.53573     15.21439      5.21206
    195      1     3.40000000      0.00000     17.75012      5.21206
    196      1     3.40000000      0.00000     15.21439      7.81809
    197      2    -1.70000000      1.26787     16.48225      6.80174
    198      2    -1.70000000      1.26787     16.48225      9.40776
    199      2    -1.70000000      1.26787     19.01798      6.22841
    200      2    -1.70000000      1.26787     19.01798      8.83444
    201      2    -1.70000000      3.80360     16.48225      6.22841
    202      2    -1.70000000      3.80360     16.48225      8.83444
    203      2    -1.70000000      3.80360     19.01798      6.80174
    204      2    -1.70000000      3.80360     19.01798      9.40776
    205      1     3.40000000      2.53573     17.75012     13.03014
    206      1     3.40000000      2.53573     15.21439     10.42412
    207      1     3.40000000      0.00000     17.75012     10.42412
    208      1     3.40000000      0.00000     15.21439     13.03014
    209      2    -1.70000000      1.26787     16.48225     12.01379
    210      2    -1.70000000      1.26787     16.48225     14.61982
    211      2    -1.70000000      1.26787     19.01798     11.44047
    212      2    -1.70000000      1.26787     19.01798     14.04649
    213      2    -1.70000000      3.80360     16.48225     11.44047
    214      2    -1.70000000      3.80360     16.48225     14.04649
    215      2    -1.70000000      3.80360     19.01798     12.01379
    216      2    -1.70000000      3.80360     19.01798     14.61982
    217      1     3.40000000      2.53573     17.75012     18.24220
    218      1     3.40000000      2.53573     15.21439     15.63617
    219      1     3.40000000      0.00000     17.75012     15.63617
    220      1     3.40000000      0.00000     15.21439     18.24220
    221      2    -1.70000000      1.26787     16.48225     17.22585
    222      2    -1.70000000      1.26787     16.48225     19.83188
    223      2    -1.70000000      1.26787     19.01798     16.65252
    224      2    -1.70000000      1.26787     19.01798     19.25855
    225      2    -1.70000000      3.80360     16.48225     16.65252
    226      2    -1.70000000      3.80360     16.48225     19.25855
    227      2    -1.70000000      3.80360     19.01798     17.22585
    228      2    -1.70000000      3.80360     19.01798     19.83188
    229      1     3.40000000      2.53573     17.75012     23.45426
    230      1     3.40000000      2.53573     15.21439     20.84823
    231      1     3.40000000      0.00000     17.75012     20.84823
    232      1     3.40000000      0.00000     15.21439     23.45426
    233      2    -1.70000000      1.26787     16.48225     22.43791
    234      2    -1.70000000      1.26787     16.48225     25.04394
    235      2    -1.70000000      1.26787     19.01798     21.86458
    236      2    -1.70000000      1.26787     19.01798     24.47061
    237      2    -1.70000000      3.80360     16.48225     21.86458
    238      2    -1.70000000      3.80360     16.48225     24.47061
    239      2    -1.70000000      3.80360     19.01798     22.43791
    240      2    -1.70000000      3.80360     19.01798     25.04394
    241      1     3.40000000      2.53573     22.82158      2.60603
    242      1     3.40000000      2.53573     20.28585      0.00000
    243      1     3.40000000      0.00000     22.82158      0.00000
    244      1     3.40000000      0.00000     20.28585      2.60603
    245      2    -1.70000000      1.26787     21.55372      1.58968
    246      2    -1.70000000      1.26787     21.55372      4.19571
    247      2    -1.70000000      1.26787     24.08945      1.01635
    248      2    -1.70000000      1.26787     24.08945      3.62238
    249      2    -1.70000000      3.80360     21.55372      1.01635
    250      2    -1.70000000      3.80360     21.55372      3.62238
    251      2    -1.70000000      3.80360     24.08945      1.58968
    252      2    -1.70000000      3.80360     24.08945      4.19571
    253      1     3.40000000      2.53573     22.82158      7.81809
    254      1     3.40000000      2.53573     20.28585      5.21206
    255      1     3.40000000      0.00000     22.82158      5.21206
    256      1     3.40000000      0.00000     20.28585      7.81809
    257      2    -1.70000000      1.26787     21.55372      6.80174
    258      2    -1.70000000      1.26787     21.55372      9.40776
    259      2    -1.70000000      1.26787     24.08945      6.22841
    260      2    -1.70000000      1.26787     24.08945      8.83444
    261      2    -1.70000000      3.80360     21.55372      6.22841
    262      2    -1.70000000      3.80360     21.55372      8.83444
    263      2    -1.70000000      3.80360     24.08945      6.80174
    264      2    -1.70000000      3.80360     24.08945      9.40776
    265      1     3.40000000      2.53573     22.82158     13.03014
    266      1     3.40000000      2.53573     20.28585     10.42412
    267      1     3.40000000      0.00000     22.82158     10.42412
    268      1     3.40000000      0.00000     20.28585     13.03014
    269      2    -1.70000000      1.26787     21.55372     12.01379
    270      2    -1.70000000      1.26787     21.55372     14.61982
    271      2    -1.70000000      1.26787     24.08945     11.44047
    272      2    -1.70000000      1.26787     24.08945     14.04649
    273      2    -1.70000000      3.80360     21.55372     11.44047
    274      2    -1.70000000      3.80360     21.55372     14.04649
    275      2    -1.70000000      3.80360     24.08945     12.01379
    276      2    -1.70000000      3.80360     24.08945     14.61982
    277      1     3.40000000      2.53573     22.82158     18.24220
    278      1     3.40000000      2.53573     20.28585     15.63617
    279      1     3.40000000      0.00000     22.82158     15.63617
    280      1     3.40000000      0.00000     20.28585     18.24220
    281      2    -1.70000000      1.26787     21.55372     17.22585
    282      2    -1.70000000      1.26787     21.55372     19.83188
    283      2    -1.70000000      1.26787     24.08945     16.65252
    284      2    -1.70000000      1.26787     24.08945     19.25855
    285      2    -1.70000000      3.80360     21.55372     16.65252
    286      2    -1.70000000      3.80360     21.55372     19.25855
    287      2    -1.70000000      3.80360     24.08945     17.22585
    288      2    -1.70000000      3.80360     24.08945     19.83188
    289      1     3.40000000      2.53573     22.82158     23.45426
    290      1     3.40000000      2.53573     20.28585     20.84823
    291      1     3.40000000      0.00000     22.82158     20.84823
    292      1     3.40000000      0.00000     20.28585     23.45426
    293      2    -1.70000000      1.26787     21.55372     22.43791
    294      2    -1.70000000      1.26787     21.55372     25.04394
    295      2    -1.70000000      1.26787     24.08945     21.86458
    296      2    -1.70000000      1.26787     24.08945     24.47061
    297      2    -1.70000000      3.80360     21.55372     21.86458
    298      2    -1.70000000      3.80360     21.55372     24.47061
    299      2    -1.70000000      3.80360     24.08945     22.43791
    300      2    -1.70000000      3.80360     24.08945     25.04394
    301      1     3.40000000      7.60719      2.53573      2.60603
    302      1     3.40000000      7.60719      0.00000      0.00000
    303      1     3.40000000      5.07146      2.53573      0.00000
    304      1     3.40000000      5.07146      0.00000      2.60603
    305      2    -1.70000000      6.33933      1.26787      1.58968
    306      2    -1.70000000      6.33933      1.26787      4.19571
    307      2    -1.70000000      6.33933      3.80360      1.01635
    308      2    -1.70000000      6.33933      3.80360      3.62238
    309      2    -1.70000000      8.87506      1.26787      1.01635
    310      2    -1.70000000      8.87506      1.26787      3.62238
    311      2    -1.70000000      8.87506      3.80360      1.58968
    312      2    -1.70000000      8.87506      3.80360      4.19571
    313      1     3.40000000      7.60719      2.53573      7.81809
    314      1     3.40000000      7.60719      0.00000      5.21206
    315      1     3.40000000      5.07146      2.53573      5.21206
    316      1     3.40000000      5.07146      0.00000      7.81809
    317      2    -1.70000000      6.33933      1.26787      6.80174
    318      2    -1.70000000      6.33933      1.26787      9.40776
    319      2    -1.70000000      6.33933      3.80360      6.22841
    320      2    -1.70000000      6.33933      3.80360      8.83444
    321      2    -1.70000000      8.87506      1.26787      6.22841
    322      2    -1.70000000      8.87506      1.26787      8.83444
    323      2    -1.70000000      8.87506      3.80360      6.80174
    324      2    -1.70000000      8.87506      3.80360      9.40776
    325      1     3.40000000      7.60719      2.53573     13.03014
    326      1     3.40000000      7.60719      0.00000     10.42412
    327      1     3.40000000      5.07146      2.53573     10.42412
    328      1     3.40000000      5.07146      0.00000     13.03014
    329      2    -1.70000000      6.33933      1.26787     12.01379
    330      2    -1.70000000      6.33933      1.26787     14.61982
    331      2    -1.70000000      6.33933      3.80360     11.44047
    332      2    -1.70000000      6.33933      3.80360     14.04649
    333      2    -1.70000000      8.87506      1.26787     11.44047
    334      2    -1.70000000      8.87506      1.26787     14.04649
    335      2    -1.70000000      8.87506      3.80360     12.01379
    336      2    -1.70000000      8.87506      3.80360     14.61982
    337      1     3.40000000      7.60719      2.53573     18.24220
    338      1     3.40000000      7.60719      0.00000     15.63617
    339      1     3.40000000      5.07146      2.53573     15.63617
    340      1     3.40000000      5.07146      0.00000     18.24220
    341      2    -1.70000000      6.33933      1.26787     17.22585
    342      2    -1.70000000      6.33933      1.26787     19.83188
    343      2    -1.70000000      6.33933      3.80360     16.65252
    344      2    -1.70000000      6.33933      3.80360     19.25855
    345      2    -1.70000000      8.87506      1.26787     16.65252
    346      2    -1.70000000      8.87506      1.26787     19.25855
    347      2    -1.70000000      8.87506      3.80360     17.22585
    348      2    -1.70000000      8.87506      3.80360     19.83188
    349      1     3.40000000      7.60719      2.53573     23.45426
    350      1     3.40000000      7.60719      0.00000     20.84823
    351      1     3.40000000      5.07146      2.53573     20.84823
    352      1     3.40000000      5.07146      0.00000     23.45426
    353      2    -1.70000000      6.33933      1.26787     22.43791
    354      2    -1.70000000      6.33933      1.26787     25.04394
    355      2    -1.70000000      6.33933      3.80360     21.86458
    356      2    -1.70000000      6.33933      3.80360     24.47061
    357      2    -1.70000000      8.87506      1.26787     21.86458
    358      2    -1.70000000      8.87506      1.26787     24.47061
    359      2    -1.70000000      8.87506      3.80360     22.43791
    360      2    -1.70000000      8.87506      3.80360     25.04394
    361      1     3.40000000      7.60719      7.60719      2.60603
    362      1     3.40000000      7.60719      5.07146      0.00000
    363      1     3.40000000      5.07146      7.60719      0.00000
    364      1     3.40000000      5.07146      5.07146      2.60603
    365      2    -1.70000000      6.33933      6.33933      1.58968
    366      2    -1.70000000      6.33933      6.33933      4.19571
    367      2    -1.70000000      6.33933      8.87506      1.01635
    368      2    -1.70000000      6.33933      8.87506      3.62238
    369      2    -1.70000000      8.87506      6.33933      1.01635
    370      2    -1.70000000      8.87506      6.33933      3.62238
    371      2    -1.70000000      8.87506      8.87506      1.58968
    372      2    -1.70000000      8.87506      8.87506      4.19571
    373      1     3.40000000      7.60719      7.60719      7.81809
    374      1     3.40000000      7.60719      5.07146      5.21206
    375      1     3.40000000      5.07146      7.60719      5.21206
    376      1     3.40000000      5.07146      5.07146      7.81809
    377      2    -1.70000000      6.33933      6.33933      6.80174
    378      2    -1.70000000      6.33933      6.33933      9.40776
    379      2    -1.70000000      6.33933      8.87506      6.22841
    380      2    -1.70000000      6.33933      8.87506      8.83444
    381      2    -1.70000000      8.87506      6.33933      6.22841
    382      2    -1.70000000      8.87506      6.33933      8.83444
    383      2    -1.70000000      8.87506      8.87506      6.80174
    384      2    -1.70000000      8.87506      8.87506      9.40776
    385      1     3.40000000      7.60719      7.60719     13.03014
    386      1     3.40000000      7.60719      5.07146     10.42412
    387      1     3.40000000      5.07146      7.60719     10.42412
    388      1     3.40000000      5.07146      5.07146     13.03014
    389      2    -1.70000000      6.33933      6.33933     12.01379
    390      2    -1.70000000      6.33933      6.33933     14.61982
    391      2    -1.70000000      6.33933      8.87506     11.44047
    392      2    -1.70000000      6.33933      8.87506     14.04649
    393      2    -1.70000000      8.87506      6.33933     11.44047
    394      2    -1.70000000      8.87506      6.33933     14.04649
    395      2    -1.70000000      8.87506      8.87506     12.01379
    396      2    -1.70000000      8.87506      8.87506     14.61982
    397      1     3.40000000      7.60719      7.60719     18.24220
    398      1     3.40000000      7.60719      5.07146     15.63617
    399      1     3.40000000      5.07146      7.60719     15.63617
    400      1     3.40000000      5.07146      5.07146     18.24220
    401      2    -1.70000000      6.33933      6.33933     17.22585
    402      2    -1.70000000      6.33933      6.33933     19.83188
    403      2    -1.70000000      6.33933      8.87506     16.65252
    404      2    -1.70000000      6.33933      8.87506     19.25855
    405      2    -1.70000000      8.87506      6.33933     16.65252
    406      2    -1.70000000      8.87506      6.33933     19.25855
    407      2    -1.70000000      8.87506      8.87506     17.22585
    408      2    -1.70000000      8.87506      8.87506     19.83188
    409      1     3.40000000      7.60719      7.60719     23.45426
    410      1     3.40000000      7.60719      5.07146     20.84823
    411      1     3.40000000      5.07146      7.60719     20.84823
    412      1     3.40000000      5.07146      5.07146     23.45426
    413      2    -1.70000000      6.33933      6.33933     22.43791
    414      2    -1.70000000      6.33933      6.33933     25.04394
    415      2    -1.70000000      6.33933      8.87506     21.86458
    416      2    -1.70000000      6.33933      8.87506     24.47061
    417      2    -1.70000000      8.87506      6.33933     21.86458
    418      2    -1.70000000      8.87506      6.33933     24.47061
    419      2    -1.70000000      8.87506      8.87506     22.43791
    420      2    -1.70000000      8.87506      8.87506     25.04394
    421      1     3.40000000      7.60719     12.67866      2.60603
    422      1     3.40000000      7.60719     10.14292      0.00000
    423      1     3.40000000      5.07146     12.67866      0.00000
    424      1     3.40000000      5.07146     10.14292      2.60603
    425      2    -1.70000000      6.33933     11.41079      1.58968
    426      2    -1.70000000      6.33933     11.41079      4.19571
    427      2    -1.70000000      6.33933     13.94652      1.01635
    428      2    -1.70000000      6.33933     13.94652      3.62238