Transfromed from dump file  240089.dump
 
        4126 atoms
           0 bonds
           0 angles
           0 dihedrals
           0 impropers
 
           3 atom types
           0 bond types
           0 angle types
           0 dihedral types
           0 improper types
 
  0.000000000000000E+000   60.4000000000000      xlo xhi
  0.000000000000000E+000   29.7600000000000      ylo yhi
  0.000000000000000E+000   29.7600000000000      zlo zhi
   0.0000000        0.0000000        0.0000000      xy xz yz
 
 Atoms
 
      1      2     -1.5368900     12.1717000      0.4080250      5.4646100
      2      2     -1.7044300      0.5602200     14.3770000     13.8990000
      3      2     -1.6215100      1.5055000     13.5219000      0.5516700
      4      2     -1.4700300      8.9731600      0.9027140      8.1504600
      5      1      2.7243100      4.1740200      7.9774300      1.3186600
      6      2     -1.6113900      0.1464830      6.3396600      2.1301600
      7      2     -1.6120200      4.2918800      2.1859800      5.1092400
      8      1      2.1983400      1.2837900      7.3036900      1.5887700
      9      2     -1.5718600      3.8048100      9.3568400      2.2242400
     10      1      2.7279600      2.9510000      1.3594100      5.1666200
     11      1      2.5423100      2.2505500      5.7225300      7.2319200
     12      2     -1.5870300      2.3555800      1.3088300      8.4835200
     13      1      2.5689100      2.1342400      8.6397300      5.7452200
     14      2     -1.5394400      1.8088100      1.8138600      6.1646100
     15      2     -1.6206300      3.5163700      0.3456770     10.4105000
     16      1      2.6216800      9.2633800      7.3310300     13.9759000
     17      2     -1.6309000      1.5601700      7.0550300      6.5198000
     18      2     -1.6429500      1.5821400      4.2357700      7.6013900
     19      2     -1.6247000      4.1661600      6.8881800      2.6601800
     20      1      1.9449200      1.8836900      4.8823200     13.0377000
     21      2     -1.6140300      2.2967900      6.2024200      9.0152700
     22      1      2.6742600     12.2449000     14.8469000      2.5420300
     23      2     -1.6627500      2.3707500      4.6051100      0.2986830
     24      1      2.6864100      2.0339300     14.5581000      1.9695500
     25      2     -1.6762200      1.7991000      8.8757800      4.1359600
     26      1      2.6768000      2.5507500     10.0126000      2.9292800
     27      1      2.4694900      2.2285600     13.7702000      7.0218500
     28      2     -1.5807100      2.8132600     11.3877000      3.6897800
     29      2     -1.5099300      3.7249900     12.3879000     14.0392000
     30      2     -1.5816800      1.8983000     12.7376000      5.9525800
     31      2     -1.6086100      3.2093400     10.3221000      9.0758300
     32      2     -1.6655100      4.0574200     14.5371000      1.9830700
     33      1      2.6472900      1.8625600     10.8911000      8.3730800
     34      2     -1.5178900      7.6693000      2.1612200      0.8724280
     35      2     -1.6151200      2.2094700     12.7205000      8.4444300
     36      2     -1.6518800      0.4143860      7.3627400     14.1016000
     37      2     -1.6662100      2.5940700      7.8480100     12.4540000
     38      2     -1.6741800      0.3553690     10.2579000      9.6243400
     39      2     -1.6703800      1.5515000      9.8580700      6.7018200
     40      1      2.6446300      2.0765800      7.7415800     13.9914000
     41      2     -1.5977400      2.7757300      0.5925440     12.5758000
     42      2     -1.6446300      2.3687000      2.5209700      2.1816000
     43      2     -1.6750000      1.3843200     10.3343000      1.2599200
     44      1      2.7888000      7.7002100      6.3545400      2.5116900
     45      1      2.7490000      6.4620300      2.1743400      1.8792400
     46      2     -1.5838500      6.3979500      5.6547400      3.4494500
     47      2     -1.5493100      9.1658400      0.9823320      3.3657800
     48      2     -1.6336500      5.0991900      2.9611800      1.2105700
     49      2     -1.4921000      7.2558600      7.5711600      1.6101500
     50      1      2.7054700     14.4620000      0.5135390      7.6389500
     51      1      2.6094100      6.4779600      4.1891100      4.1353100
     52      1      2.7489600      5.1488000      6.9800400      3.9667000
     53      1      2.7624100      5.8350600      5.6903700      9.6098800
     54      1      2.5873400      4.9592900      3.2757900      6.2399100
     55      1      2.7266800      2.2797700      2.6514800      7.5277900
     56      1      2.7596600      5.4385500      7.0669700      6.9279300
     57      2     -1.5608000      5.9936900      4.1853700      5.5884900
     58      2     -1.6286000      4.5321500      6.6802400      5.4623900
     59      2     -1.5741200      4.3569700      5.5828600     10.6531000
     60      2     -1.5862400      6.3830000      1.8197500      8.4997700
     61      2     -1.5883300      3.9748600      3.1741600      7.4861300
     62      2     -1.5999200      5.3115000      5.8086900      8.0241300
     63      2     -1.5464900      6.4841900      4.1916500      9.9214500
     64      2     -1.5789600      7.1244000      2.9173300      3.3670500
     65      2     -1.5088200      8.8403700      6.0606300      3.6249700
     66      1      2.6902000      6.0902300      2.6988600      9.7338100
     67      1      2.6040100      2.9574800      4.9176500     10.2503000
     68      1      2.6778400      4.2006900      1.1910800     14.0163000
     69      1      2.6410200      3.7077800      2.0774200     11.4335000
     70      1      2.7874700      6.8496500      8.6557600     12.7521000
     71      2     -1.6058500      9.9653800      5.4060600     10.3955000
     72      2     -1.6139000      6.8893800      9.4187700     14.3385000
     73      2     -1.6362800      1.6014200      5.0762200     11.4931000
     74      2     -1.5882400      7.8325600      0.5264250     13.0271000
     75      2     -1.6724400      3.9081700      2.5956400     13.0412000
     76      2     -1.5850800      8.0393700      3.1640700     13.3327000
     77      2     -1.5992200      3.0642100      3.1978500     10.4224000
     78      2     -1.6198400      5.9791700      1.1844700     14.0119000
     79      2     -1.6455400      5.6751600      2.1447000     11.2320000
     80      2     -1.5754000      7.1647700      6.7204200      9.5814100
     81      2     -1.6335000      9.9751300     10.1907000     14.7464000
     82      1      2.7219600      7.6690000     14.0632000      2.1677400
     83      1      2.7641400      7.0129500     11.4214000      1.9916300
     84      2     -1.6092500      6.3324400     13.1465000      2.9286500
     85      2     -1.5149300      8.8281200      8.8098600      4.4233700
     86      2     -1.5781400      5.5681300     11.1632000      1.2556600
     87      2     -1.6165800      7.4924300     13.3110000      0.7779300
     88      1      2.8128700      7.3151800      8.8232900      5.2334800
     89      1      2.6467300      4.9924100     13.8094000      3.5363100
     90      1      2.7901600      5.7659300     13.8746000      8.6313300
     91      1      2.7487700      4.6872700      9.3713300      8.9627000
     92      1      2.7136600      3.2414800     11.9545000      5.1831600
     93      2     -1.5421400      6.9145000     10.3031000      5.9506400
     94      2     -1.5826500      4.4641400     13.4897000      9.6881200
     95      2     -1.5308200      8.7115300     10.5203000      9.3858100
     96      1      2.7645600      5.9955000     11.0282000      7.1062700
     97      2     -1.5734900      6.2861500     12.5678000      7.6270000
     98      2     -1.6414800      4.4094300      8.2374200      7.7122700
     99      2     -1.5537900      4.2599600     13.2214000      4.7561000
    100      2     -1.5937900      6.9187300      7.6328700      6.3924400
    101      2     -1.5512000      5.9422000      8.3640800      4.1922300
    102      2     -1.5430300      8.6484900     12.9035000      2.6840700
    103      1      2.7916900      7.2640200     10.5693000     10.0173000
    104      1      2.7013600      2.9464200     13.3433000      9.8916900
    105      1      2.8097300      6.4981000     14.2301000     14.0513000
    106      1      2.7766000      4.1749100      8.6872100     11.9668000
    107      2     -1.5356700      1.7627000     14.0822000     10.4319000
    108      2     -1.5087300      7.0703500     11.9777000     10.6920000
    109      2     -1.5980300     10.9557000     14.7051000      9.4617700
    110      2     -1.5570300      4.6421500      8.5688500     10.3544000
    111      2     -1.5090800      6.5710800     13.0739000     12.9852000
    112      2     -1.5068300      5.3773800      8.0647600     12.7595000
    113      2     -1.5825400      7.0671400      9.5130100     11.3206000
    114      2     -1.5961600      5.9933500     10.2320000      8.6328900
    115      2     -1.5755900      6.9927500     14.7127000      9.3744800
    116      1      2.8669700      3.2710500     10.9112000     13.9472000
    117      2     -1.6175300      1.5791300     10.7165000     14.3736000
    118      2     -1.5700000      3.6285500     10.2433000     12.3416000
    119      2     -1.5693200      8.1681900     14.4178000     14.3170000
    120      2     -1.5973600     12.5358000      0.6572410     14.1779000
    121      2     -1.4875400     13.2459000      3.8594500      1.1080300
    122      2     -1.5990800      1.1617000     14.2489000      3.3626300
    123      2     -1.6374500      2.4118000      7.7822800      0.6301080
    124      1      2.7659700     12.4387000      4.9965700      1.6468800
    125      1      2.7626200     10.1360000      0.5699560      2.0559400
    126      1      2.8130600     11.3061000      7.7493200      0.7889240
    127      2     -1.5661100     10.8884000      4.9003300      2.1287500
    128      2     -1.6372700     12.6527000      6.6792800      1.1302500
    129      1      2.7234600     12.1213000      1.4373900      4.4121000
    130      1      2.8080500     10.1852000      5.1692700      3.6313400
    131      1      2.7410700     11.0862000      5.8083700      7.3848300
    132      1      2.7997500      8.0760900      2.0665400      7.4370800
    133      1      2.7863800      8.4966400      2.2679700      4.1117400
    134      1      2.7582700     11.7062000      7.4540800      4.9182900
    135      2     -1.5405100     13.4678000      3.4918400      7.5684400
    136      2     -1.5308100     11.2965000      6.0646700      4.3396400
    137      2     -1.5371600      9.5667300      6.1545400      7.8589500
    138      2     -1.5770500     10.4244000      0.3483110     10.3436000
    139      2     -1.5561400      7.6745100      1.8618200      5.7969300
    140      2     -1.5895000     11.6612000      7.1977000      6.5792800
    141      2     -1.5507400     11.4353000      4.4774000      6.5051800
    142      2     -1.5778000      9.6190600      3.5142700      4.1963200
    143      2     -1.6151200     11.8330000      0.8197470      2.8983400
    144      2     -1.5673200     13.8801000      6.1965800      3.0215300
    145      1      2.7272700      9.0576100      0.7419120      9.7121100
    146      1      2.7451100      8.7255800      6.7315300      9.1452700
    147      1      2.6000800     12.0961000      6.8994000     14.7773000
    148      1      2.6001500      9.3190800      0.2738610     13.7808000
    149      1      2.6050300      6.9547800      2.0165000     12.8077000
    150      1      2.6574100     11.6190000      8.5534400     12.1486000
    151      2     -1.6670600      8.9886900      2.4953500     10.6017000
    152      1      2.5616600     11.5447000      5.9290800     10.3477000
    153      2     -1.6477600      0.8376510      0.5059940     14.7868000
    154      1      2.5830400      9.8430200      3.3333800     13.8908000
    155      2     -1.6355900     10.9809000      7.4250200     13.6612000
    156      2     -1.6787200     10.7759000      3.7792300     12.3687000
    157      2     -1.5737400      8.1648000      7.4863200     12.9271000
    158      2     -1.5058100      8.6226400      3.4322500      7.8319600
    159      2     -1.6366000     12.1706000      5.4749400      8.9199000
    160      2     -1.6212600     10.1999000      1.6733500     14.2537000
    161      1      2.3217100      1.5050700      0.0351454     13.4107000
    162      1      2.8338800      9.4287700      9.4571400      2.7839600
    163      2     -1.6362600     10.9324000     13.5974000      2.8907300
    164      2     -1.5618300     13.4017000     10.9431000      3.0234600
    165      2     -1.5384900      7.9200500     10.2421000      2.4141200
    166      1      2.8706200     10.5114000     12.3050000      1.3282900
    167      2     -1.5445600     10.3790000      8.1598900      2.2393300
    168      3      0.2986670      0.7934790      5.6953000      3.9373400
    169      1      2.7909000     11.9192000     10.4505000      3.6510300
    170      1      2.7520100      9.2319500     13.1807000      4.2384000
    171      1      2.6792300     10.1934000     14.3089000      8.1655000
    172      1      2.8102700     10.0113000      9.6948700      8.9792500
    173      1      2.7874300     10.3880000     11.3498000      6.4376800
    174      2     -1.5532200     11.8791000     11.1586000      5.2039100
    175      2     -1.5169000     14.3426000      9.9337000      5.8703000
    176      2     -1.5976300     10.1750000     12.8885000      7.4913700
    177      2     -1.5735300     12.7160000     11.2426000      7.4433200
    178      2     -1.5803100      9.9846500      9.9866000      7.2243900
    179      2     -1.5465900      9.4101900     11.9226000      5.1351300
    180      2     -1.5914200     12.2179000      8.7346800      4.1541400
    181      2     -1.5813200     10.5652000     10.7222000      2.7662000
    182      2     -1.5833800     13.6582000     14.1980000      1.5406900
    183      1      2.7677000     10.8067000     13.3524000     12.4986000
    184      1      2.6910000      9.6771600     10.3446000     13.1204000
    185      1      2.8157700      7.7708600     12.4703000     12.0076000
    186      2     -1.5693900     11.6032000     10.1032000      9.5255000
    187      2     -1.6012900     10.6966000     13.2393000     14.1306000
    188      2     -1.5473000      8.4666300     11.2399000     12.9084000
    189      2     -1.6288300     11.8516000     12.1087000     11.8800000
    190      2     -1.5540600     10.3530000      9.4628600     12.0815000
    191      2     -1.5874800      9.2734400     13.3336000     11.7899000
    192      2     -1.6339900     12.0455000      7.1314800     11.2333000
    193      2     -1.5750700      9.5784400      8.0977400      9.5126200
    194      2     -1.6454100      4.2124400     11.0442000      6.3274200
    195      2     -1.5061000     11.6320000      9.3739100      0.0846117
    196      1      2.7022500     14.4093000      7.3595000      1.9734600
    197      1      2.6937100     14.8574000      5.5225800      4.3371500
    198      1      2.7201800     12.4453000      0.9569840     10.1321000
    199      1      2.7579800     12.9030000      3.8690100      6.0356600
    200      2     -1.4290000     14.6134000      0.1584970     12.2093000
    201      2     -1.5602100     13.9891000      5.0653000      5.5268800
    202      2     -1.5840200     12.8061000      2.8537700      4.6820600
    203      2     -1.6150900     13.1820000      0.6596580      8.6583100
    204      1      2.5939800     12.6880000      3.4014500     12.0103000
    205      1      2.6619800     13.6672000      4.6000300      8.6492000
    206      1      2.8199600     14.0064000      0.6232000     13.5290000
    207      1      2.5395700      9.6342400      3.9429200     10.8428000
    208      2     -1.6557400     14.1541000      4.4577200     11.6615000
    209      2     -1.5717400     13.9016000      2.5088700     12.7325000
    210      2     -1.6468200     12.3445000      2.5864700     10.5520000
    211      1      2.6670300      3.7190500      0.3329020      8.7703000
    212      1      2.8093000     14.7839000     10.4800000      2.3165100
    213      2     -1.5580000      6.5597400      0.5230030      2.4634700
    214      2     -1.5390600     12.0866000     12.2895000      0.6829230
    215      1      2.7709100     13.0826000     10.2806000      8.8724400
    216      1      2.8038700     13.5277000     11.2828000      6.0795800
    217      2     -1.5658200     13.9303000      9.0285000      8.2486100
    218      2     -1.5733100     14.2778000     12.6307000      5.4219500
    219      1      2.7488600     14.1453000      8.5047600     13.7188000
    220      1      2.6955300     13.2574000     11.1457000     11.9598000
    221      2     -1.6059700     12.9394000      9.4642100     12.6929000
    222      2     -1.5723000     14.4068000      7.1699200     12.8234000
    223      2     -1.6284400     14.2422000     12.0057000     13.1381000
    224      2     -1.6312600     14.0110000     10.5590000     10.5599000
    225      2     -1.5740300     14.9723000      5.3602000      8.8375800
    226      2     -1.4287300     10.1562000      1.5055000      0.9203180
    227      1      2.6770800     14.7868000     12.1337000     14.6510000
    228      2     -1.5566800     14.3111000      8.8759600      1.4543600
    229      1      2.4168700      1.3727200      3.2829600      3.2063700
    230      2     -1.5916800      1.9552000      4.1794500      4.5401000
    231      3      0.4197030      0.0086996      0.5612590      3.0259000
    232      2     -1.5019000      8.1396000      5.7628100      1.0924900
    233      1      2.0279400      1.8831900      7.6176700      9.5151400
    234      3      0.3339330      0.8838550      9.0260400      8.3090800
    235      3      0.3818910      0.3576280      2.0133300      4.6435100
    236      2     -1.4733900      2.6363300      0.0816984      4.5217500
    237      2     -1.6287000     15.0252000      1.4519500      6.1427400
    238      2     -1.6457800      8.3225400     14.3493000      5.1547200
    239      1      2.7591100      8.0673900      7.3147100      0.1367910
    240      2     -1.5453000      9.9438200     13.5475000      0.2081590
    241      1      2.7625500      8.8960600      1.1565600      0.1659920
    242      1      2.7241900      3.2414800      3.1413400      0.8089070
    243      3      0.2917570      0.0559674      4.2838200      2.3214300
    244      2     -1.5552000     14.9432000     12.7378000      8.8501500
    245      1      2.7191700     14.9454000     14.3011000      8.5981400
    246      1      2.6251400      4.6669000     11.5090000      0.0678038
    247      2     -1.5350000      9.5766700     10.9610000      0.0091379
    248      1      2.8157400     15.0954000      8.8716200      6.9277600
    249      1      2.5957200      4.6166500     14.5152000     19.0436000
    250      2     -1.5819100      3.4635900      1.3201700     20.4201000
    251      2     -1.5327700      8.6026000      0.5245280     18.8369000
    252      2     -1.6350500      1.2652800      6.0073600     24.0408000
    253      2     -1.6100300      1.3348100      1.2712900     22.4975000
    254      2     -1.5790500      2.7330000      4.6706400     19.7101000
    255      2     -1.5460600      3.3438200      1.4783800     15.4007000
    256      1      2.0067700      0.6113760      0.6373720     16.8148000
    257      1      2.6927700      1.7232200      5.5309100     18.9403000
    258      2     -1.5742700      4.2893500      2.4242700     17.8681000
    259      1      2.5249600      1.2691400     14.3796000     23.2498000
    260      2     -1.5478900      2.1401400      0.9588500     17.1304000
    261      2     -1.5146600      4.4799400      5.8969600     16.8919000
    262      1      2.5574500      1.3645100      8.0208300     20.5824000
    263      2     -1.6164100      2.3785700     11.8027000     25.0276000
    264      2     -1.6771800      1.1279900     13.4405000     21.7923000
    265      2     -1.5987600      3.1014200     14.4126000     18.6125000
    266      1      2.5564200      2.1499200     12.0135000     21.0229000
    267      2     -1.5741100      1.6708700     13.0296000     17.1055000
    268      2     -1.6007100      1.4894700      9.2089400     19.5995000
    269      2     -1.6607400      1.7095500     12.3128000     19.4964000
    270      2     -1.6376100      0.6649770     13.7103000     24.6046000
    271      1      2.5772400      1.8773700     13.1136000     25.9739000
    272      1      2.7146900     14.1947000      4.7898800     25.2917000
    273      1      2.4278900      1.5148600     13.9539000     18.8224000
    274      1      2.7216000      7.4065500      0.2619710     20.2254000
    275      1      2.7610500      3.7017100      4.7225400     21.2800000
    276      1      2.8203700      7.0866200      5.1614700     23.8225000
    277      1      2.5027300      2.0195900      0.7322930     23.9251000
    278      1      2.6044900      2.4620300      1.9822600     21.4678000
    279      1      2.7822700      5.8720900      7.9673600     22.9649000
    280      2     -1.5429200      7.2836300      1.6577300     21.0197000
    281      2     -1.5836300      3.2719300      6.1723900     22.1565000
    282      2     -1.5447500      6.7035000      6.5852700     23.0372000
    283      2     -1.5998500      6.8134300      3.5632600     23.1632000
    284      2     -1.6080400      2.7366600      3.4141100     22.0539000
    285      2     -1.5276500      5.9065500      0.4994620     19.3826000
    286      2     -1.5064600      7.7988800      5.4731400     20.6378000
    287      1      2.8098700      5.7047000      9.6118600     15.5901000
    288      1      2.6768800      6.3850200      1.6319000     15.5103000
    289      1      2.7120200      3.0627800      5.8348800     16.2962000
    290      1      2.8189800      6.4272900      4.9959600     19.8737000
    291      1      2.7058300      4.7046200      1.4888100     19.2460000
    292      1      2.6795900      3.2052000      2.5255100     16.6338000
    293      2     -1.5661800      2.5762600     11.1211000     22.1606000
    294      2     -1.5749200      6.5235300      3.1111300     15.8983000
    295      2     -1.5873100      5.1639900      4.3516300     20.9169000
    296      2     -1.5874300      5.7742900      8.3700000     16.8093000
    297      2     -1.5437800      5.7615900      6.4423000     19.0828000
    298      2     -1.6106800      6.7083600      3.7539700     18.7682000
    299      2     -1.6611700      2.5998600      4.0546700     15.8729000
    300      2     -1.6177300      9.0946700      6.8989700     15.4528000
    301      1      2.7890400      5.5567500      9.7356100     20.3182000
    302      1      2.6477700      5.6899600     13.4687000     22.8632000
    303      1      2.7338300      4.1732400      9.1371900     25.1647000
    304      1      2.6805400      3.3622400     11.6126000     23.7185000
    305      2     -1.5403800      6.0332300     10.9066000     21.2524000
    306      2     -1.6705400      4.1041300     13.1732000     23.1183000
    307      2     -1.5584900      4.3757500     10.4547000     24.1155000
    308      2     -1.6090800      6.9262700     12.2948000     23.1092000
    309      2     -1.5818400      4.8216000      7.9810500     24.2488000
    310      2     -1.5933100      2.9972700     11.3530000     29.3330000
    311      2     -1.5794500      5.1887600      8.4866500     21.4836000
    312      2     -1.6094700      4.2052800     10.2699000     19.3469000
    313      2     -1.5687300      7.9799200     12.3881000     19.5290000
    314      1      2.6850600      2.6998900     14.1768000     16.2940000
    315      1      2.7343100      5.3861300     12.6800000     16.6553000
    316      1      2.7382300      7.0004300     13.5143000     19.1594000
    317      1      2.7501300      3.0587200      9.4332100     18.5117000
    318      1      2.6492200      2.5864700     11.7422000     17.1525000
    319      2     -1.6382900      6.0926700     14.0787000     15.8178000
    320      2     -1.6660900      5.7094000     14.1948000     20.3544000
    321      2     -1.5699400      7.0947300      9.3818200     19.6062000
    322      2     -1.5636200      2.4426300     10.2515000     17.2913000
    323      2     -1.5747300      5.5725400      0.0867556     28.8017000
    324      2     -1.5749500      5.5489700     13.1528000     18.3188000
    325      2     -1.5681800      3.5717500      7.9156600     18.4642000
    326      2     -1.5569900      3.7002800     12.8045000     16.6235000
    327      2     -1.6099600      1.7395200      6.0958000     17.4120000
    328      2     -1.6145800      3.6190600      4.9580900     24.8406000
    329      1      2.7735400     14.5308000      0.4618240     19.9090000
    330      1      2.8537200     11.7839000      1.6792800     20.7713000
    331      1      2.8373600      9.3474600      4.9502800     21.1176000
    332      1      2.6198000     13.1502000      6.6253500     23.5775000
    333      2     -1.4704300      8.6143900      5.2261200     24.3506000
    334      1      2.8117600      7.8992200      2.5119800     22.2894000
    335      1      2.8106700     10.0913000      7.4717300     22.8471000
    336      2     -1.5329200     12.4725000      2.9877800     21.5856000
    337      2     -1.5671500     10.1331000      6.0017400     22.1480000
    338      2     -1.5955600     10.4533000      3.1952600     24.5462000
    339      2     -1.5454900      7.9940800      1.1716800     23.4517000
    340      2     -1.6409200      1.2781500     12.8436000     27.6158000
    341      2     -1.5541200     11.9338000      7.5240200     23.4260000
    342      2     -1.5962200      9.0585500      3.4248800     21.7115000
    343      2     -1.5381500     10.8800000      2.1541400     19.2182000
    344      2     -1.5905400     12.6319000      6.3100400     19.7557000
    345      2     -1.5732500      9.6163000     10.5670000     24.8617000
    346      1      2.6974800     11.6181000      1.3122000     15.3761000
    347      1      2.6799600      9.6005500      5.4756900     16.3801000
    348      1      2.7689500     11.6349000      5.2031900     18.9696000
    349      1      2.7213800      9.5019600      1.9045800     18.7499000
    350      1      2.7332400      7.4165800      3.5565800     17.2752000
    351      1      2.6794600     10.6588000      7.8123300     17.9003000
    352      2     -1.5829700     12.1644000      2.6824100     15.9535000
    353      2     -1.5613800     10.2571000      4.8395600     19.7469000
    354      2     -1.4652600     12.9795000      0.8774730     20.0625000
    355      2     -1.5828600      8.6935600      2.2211900     17.4263000
    356      2     -1.6246000     10.8301000      6.2264800     17.4828000
    357      2     -1.5362800     12.4504000      4.0880800     18.2498000
    358      2     -1.5278000      8.3726900      4.8613500     17.1399000
    359      1      2.7876700     11.1681000      9.7960000     20.9119000
    360      1      2.7228500      9.6033900     12.2653000     19.8107000
    361      1      2.7108200     12.0859000     13.9407000     24.1505000
    362      1      2.7591900      8.4613100      9.3591900     24.5594000
    363      1      2.6594300      7.0272000     10.8479000     22.3941000
    364      2     -1.5321700     11.7591000     11.1199000     21.6342000
    365      2     -1.6336300      9.5317800     13.4770000     21.3723000
    366      2     -1.6292600      7.2377500      9.5009700     23.2228000
    367      1      2.6502200     14.9311000      9.8786000     23.7716000
    368      2     -1.5390100     12.3286000     12.3581000     23.8986000
    369      2     -1.5044200      9.2164400      8.0001900     24.1516000
    370      2     -1.5923500      9.7723400     10.5827000     19.8954000
    371      2     -1.5771000     10.0682000      8.8411000     21.8123000
    372      1      2.7014700      8.9927400     10.8574000     15.9968000
    373      2     -1.6265000     13.2135000     14.0596000     19.8183000
    374      1      2.6783700     10.3632000     14.8568000     21.5887000
    375      1      2.7149000     13.2137000      8.9576900     16.4469000
    376      1      2.7880900      9.3739300     13.8220000     15.1974000
    377      1      2.7247700     11.7565000     14.3852000     18.9625000
    378      1      2.7671400      8.6360700      9.4576000     19.0113000
    379      2     -1.6049900      5.8953400     11.1921000     16.3966000
    380      2     -1.6245100     13.3903000     10.6919000     15.9980000
    381      2     -1.6056900     10.7054000     13.0256000     18.7918000
    382      2     -1.5571500     12.3825000      9.2036800     19.9872000
    383      2     -1.5826900      8.6492900     10.0055000     17.2465000
    384      2     -1.5551200      9.5531600      8.1385700     18.8747000
    385      2     -1.5953700      8.8731300     12.4232000     16.0418000
    386      2     -1.6275200     11.6014000      8.8317000     17.0781000
    387      1      2.8125700      5.0433100      7.1460500     17.7971000
    388      1      2.6257600      2.0656700      4.8772000     24.8977000
    389      1      2.7745500     14.0031000      6.1958200     20.7384000
    390      1      2.7994200     13.6525000      3.6730800     22.4483000
    391      2     -1.6302800     14.8707000      7.7498000     21.1479000
    392      2     -1.6802200     14.4988000      6.5417700     24.6127000
    393      2     -1.6183100     13.5100000      5.6233400     22.3209000