ITEM: TIMESTEP
0
ITEM: NUMBER OF ATOMS
16
ITEM: BOX BOUNDS pp pp pp
0.0000000000000000e+00 4.0000000000000000e+00
0.0000000000000000e+00 4.0000000000000000e+00
0.0000000000000000e+00 4.0000000000000000e+00
ITEM: ATOMS id c_ld[1] c_ld[2] c_ld[3] c_ld[4] c_ld[5] c_ld[6] c_ld[7] c_ld[8] c_ld[9] c_ld[10] c_ld[11] c_ld[12] c_ld[13] c_ld[14] c_ld[15] c_ld[16] c_ld[17] c_ld[18] c_ld[19] c_ld[20] c_ld[21] c_ld[22] c_ld[23] c_ld[24] c_ld[25] c_ld[26] c_ld[27] c_ld[28] c_ld[29] c_ld[30] c_ld[31] c_ld[32] c_ld[33] c_ld[34] c_ld[35] c_ld[36] c_ld[37] c_ld[38] c_ld[39] c_ld[40] c_ld[41] c_ld[42] c_ld[43] c_ld[44] c_ld[45] c_ld[46] c_ld[47] c_ld[48] c_ld[49] c_ld[50] c_ld[51] c_ld[52] c_ld[53] c_ld[54] c_ld[55] c_ld[56] c_ld[57] c_ld[58] c_ld[59] c_ld[60] c_ld[61]
1 8.86599 21.597 -18.7676 19.2641 -36.047 9.98833 78.6058 0.225652 26.2756 0.265074 15.9333 466.431 0.217335 155.681 0.382584 93.7511 352.224 3.25706 117.952 3.54203 71.8291 371.105 3.25919 125.189 4.22711 75.7691 1299.39 1.74934 435.251 2.34718 262.013 696.918 2.00063 232.959 0.674447 2.35015 0.675136 78.0954 10073.5 4.69378 3362.23 1.61977 8.26267 1.61057 1123.71 -6610.42 -61.1274 -2213.68 -21.3675 -66.4755 -20.5655 -744.709 7149 62.7853 2411.65 20.5396 81.4315 21.4563 823.333 6178.87 36664.2
2 8.91352 21.0122 -20.0392 19.0141 -33.6211 11.2016 79.4508 0.422949 26.7108 0.60572 16.2193 441.511 0.418347 147.492 0.50009 88.7894 401.571 4.02268 134.105 3.50587 82.0102 361.536 9.20638 122.002 6.82082 75.558 1130.38 3.7543 377.735 2.60159 227.282 708.186 3.76996 238.087 1.31154 5.3991 1.36466 80.6997 9277.1 8.79038 3099.12 2.94312 10.508 2.91447 1037.51 -8047.16 -80.6115 -2687.36 -27.0391 -70.2548 -26.5647 -899.108 6874.29 175.051 2319.75 62.547 129.692 61.9564 792.829 6312.43 35078.4
3 9.07817 21.5767 -17.7163 19.2161 -36.0833 9.50274 82.4132 0.378989 27.5003 0.296424 16.6666 465.554 0.148808 155.274 0.252925 93.388 313.868 5.45895 104.871 3.39856 64.9239 369.258 3.88638 123.48 4.33286 74.3833 1302.01 3.80092 434.858 2.47532 261.553 748.161 3.44052 249.653 1.11069 2.69099 1.14623 83.3946 10045.1 3.21079 3350.3 1.0439 5.45729 1.08425 1118.05 -5560.59 -96.7124 -1857.94 -33.3145 -60.21 -32.7292 -622.219 7095.69 74.681 2372.8 25.9121 83.2605 25.3364 796.021 6791.94 38367.8
4 8.34989 21.4804 -21.702 18.1332 -34.3754 11.7956 69.7207 0.0379915 23.2734 0.21755 14.0452 461.406 0.0584731 153.974 0.577297 92.6135 470.976 1.09499 157.518 1.51571 95.1392 328.812 2.42867 110.719 2.29965 67.8179 1181.67 0.986426 396.217 2.00442 239.881 582.16 0.317225 194.331 0.103269 1.81652 0.100326 64.9608 9911.18 1.25602 3307.43 0.411565 12.4006 0.429819 1104.96 -10221.1 -23.7634 -3418.45 -8.39113 -32.894 -7.85833 -1147 5962.42 44.0395 2007.7 15.9211 41.7 14.764 682.645 4860.97 32169.5
5 8.50678 21.5678 -20.8079 18.0509 -35.3966 11.6089 72.3653 0.0311681 24.161 0.148448 14.58 465.171 0.0417005 155.206 0.370962 93.2962 432.968 2.02002 145.177 2.39613 87.9422 325.836 4.90539 108.911 3.50042 65.6802 1252.92 4.18559 418.577 4.02373 252.37 615.596 0.26514 205.532 0.0892271 1.26282 0.0895989 68.7335 10032.7 0.899389 3347.46 0.310263 8.00083 0.31849 1117.96 -9009.16 -42.0323 -3020.82 -14.0737 -49.8585 -13.9072 -1018.46 5881.65 88.547 1965.94 30.8695 63.1859 29.9864 658.859 5236.74 33662.2
6 8.88963 21.5706 -18.6875 18.8352 -35.8183 10.0705 79.0255 0.269777 26.4669 0.263336 16.0472 465.292 0.189032 155.31 0.349965 93.5274 349.224 3.86444 117.13 2.96705 71.775 354.764 3.06524 118.517 4.30347 71.651 1282.95 0.606733 428.58 1.78953 258.129 702.508 2.39821 235.281 0.807793 2.34096 0.814815 79.1724 10036.6 4.07754 3350.14 1.38604 7.54895 1.36527 1119.76 -6526.15 -72.2169 -2188.87 -22.9031 -55.4468 -24.0344 -738.518 6682.04 57.7343 2232.3 19.16 81.0567 19.2354 747.416 6245.04 36770
7 8.78792 21.6715 -19.1096 17.8588 -36.6598 11.1111 77.2276 0.184298 25.8181 0.292361 15.6294 469.653 0.139435 156.779 0.584005 94.3001 365.177 2.2489 122.366 1.72086 75.1754 318.938 1.63951 106.554 1.97166 64.1938 1343.94 7.87845 448.306 5.68984 269.672 678.67 1.6196 226.887 0.548912 2.56925 0.545222 76.0671 10178.1 3.02177 3397.64 1.01493 12.6562 0.993059 1135.88 -6978.4 -42.9756 -2338.37 -14.621 -32.885 -14.2282 -787.576 5695.85 29.2798 1902.93 9.56777 35.2115 9.87979 637.202 5964.1 36270.2
8 8.57126 21.5176 -20.2996 18.8473 -36.4047 11.4339 73.4664 0.107844 24.6679 0.170497 14.9443 463.008 0.282877 154.665 0.360751 93.1367 412.073 1.77098 138.707 2.39774 84.2869 355.221 4.71338 118.799 3.92319 71.7868 1325.3 0.766534 442.995 2.42188 267.336 629.7 0.924361 211.435 0.306968 1.46137 0.320876 71.5145 9962.83 6.08684 3328.02 2.13055 7.7625 2.09158 1114.09 -8364.9 -35.9502 -2815.7 -12.8047 -48.6731 -12.1094 -956.571 6694.97 88.8345 2239.04 29.6548 73.9416 29.9329 751.337 5397.32 34015.5
9 8.68738 20.883 -21.313 19.6564 -34.0921 12.0501 75.4706 0.320461 25.3656 0.423179 15.5166 436.1 0.512785 145.749 0.462811 87.7359 454.245 3.44733 151.768 4.10355 91.7879 386.375 12.3434 131.928 9.26773 81.3727 1162.27 0.887012 390.276 1.67367 235.948 655.642 2.78397 220.36 0.992544 3.67632 1.03394 74.6685 9107.09 10.7085 3043.68 3.5307 9.6649 3.52145 1019.82 -9681.35 -73.4731 -3234.64 -24.3165 -87.4591 -23.6358 -1083.21 7594.74 242.628 2593.23 93.4017 182.17 89.1079 906.989 5695.81 32912.8
10 8.88726 21.4817 -18.8397 19.0387 -35.0694 9.95552 78.9835 0.100136 26.4637 0.403244 16.0296 461.463 0.0463147 154.123 0.724312 92.7154 354.935 0.945181 119.408 1.9192 73.8898 362.472 4.52031 121.384 3.68824 73.79 1229.86 1.86347 411.451 3.59339 248.114 701.947 0.889936 235.19 0.307487 3.58374 0.29082 79.1944 9913.01 0.994917 3310.82 0.337729 15.5595 0.3384 1107.9 -6686.88 -17.8069 -2249.61 -6.22946 -36.1572 -6.07581 -763.702 6901 86.0608 2310.99 29.0788 70.2192 28.8146 777.397 6238.39 36448
11 8.85551 20.9604 -20.5783 19.1728 -33.138 11.6017 78.42 0.397046 26.3551 0.591422 16.0971 439.339 0.256048 146.849 0.481701 88.379 423.465 2.66449 141.729 2.99435 86.5991 367.596 12.1698 124.705 9.39843 76.6795 1098.13 7.35266 367.813 5.3271 221.601 694.449 3.51604 233.388 1.22935 5.23734 1.2886 79.0654 9208.73 5.36687 3078.02 1.73028 10.0967 1.76061 1031.71 -8714.17 -54.8306 -2916.53 -17.7868 -61.6186 -18.2601 -980.175 7047.85 233.329 2390.95 86.0413 180.194 84.2878 825.369 6149.7 34453
12 8.60726 20.8375 -21.8853 19.1315 -33.469 12.4884 74.0849 0.357841 24.9489 0.457737 15.1619 434.2 0.40039 144.943 0.439226 87.0949 478.966 3.65397 160.722 3.23546 97.504 366.014 11.4707 123.452 7.8533 76.5065 1120.17 1.40609 374.496 1.77765 225.409 637.668 3.08003 214.742 1.1546 3.93986 1.15411 73.0698 9047.64 8.34312 3020.25 2.66986 9.15236 2.74761 1009.68 -10482.3 -79.9682 -3517.44 -25.805 -70.809 -25.2406 -1188.27 7002.38 219.451 2361.82 83.4582 150.245 79.6457 806.386 5488.57 32167.7
13 8.26363 21.471 -22.1293 18.0515 -35.139 12.3372 68.2876 0.0166374 22.7873 0.179346 13.7288 461.005 0.0601076 153.718 0.524162 92.3926 489.707 1.23022 163.417 1.8075 98.2847 325.858 4.62303 108.897 4.62651 65.9297 1234.75 1.79686 412.715 3.97162 248.863 564.303 0.137485 188.305 0.0458134 1.48205 0.0502254 62.9046 9898.25 1.29057 3300.49 0.429902 11.2543 0.431122 1100.88 -10836.9 -27.224 -3616.31 -9.02716 -39.9988 -8.86018 -1208.09 5882.25 83.4528 1965.76 28.226 83.5157 27.4335 658.548 4663.19 31480.9
14 9.02092 21.2084 -18.9831 19.1193 -34.1695 10.3612 81.3771 0.233268 27.353 0.37512 16.5948 449.796 0.35605 150.032 0.423853 90.1782 360.358 2.42295 121.741 2.58328 75.7884 365.548 6.36127 123.158 4.6381 75.7658 1167.55 0.157447 389.499 1.77777 233.997 734.097 2.1043 246.749 0.697062 3.38393 0.728513 83.6454 9539.46 7.55126 3181.93 2.57031 8.98924 2.56622 1062.04 -6840.72 -45.9951 -2311.03 -15.5405 -49.0388 -15.5501 -790.548 6989.02 121.623 2354.69 43.3786 88.6773 42.1955 802.132 6622.23 36603.1
15 8.77429 21.0281 -20.3511 20.5414 -32.6079 9.79667 76.9882 0.41331 25.7702 0.620366 15.6344 442.181 0.00242333 147.852 0.418274 88.9206 414.166 3.1622 138.413 3.25116 84.3004 421.951 6.9903 142.747 5.80199 88.3782 1063.27 1.05124 359.156 2.6746 217.434 675.516 3.6265 226.115 1.24317 5.44327 1.26974 76.0093 9298.22 0.050958 3109.04 0.0166354 8.7955 0.0197619 1042.74 -8428.72 -64.3541 -2816.84 -22.4697 -66.1646 -21.5318 -943.876 8667.47 143.591 2932.23 55.2809 119.181 52.1648 1006.83 5927.18 34042.7
16 8.44299 21.6032 -21.1539 17.1296 -36.122 12.7214 71.2841 0.0462392 23.8318 0.128673 14.4348 466.697 0.128065 155.827 0.290891 93.8969 447.488 1.3902 149.41 2.39914 90.4443 293.424 2.86048 98.5312 2.79516 59.7374 1304.8 0.762991 435.917 1.80361 263.055 601.851 0.390397 201.212 0.132761 1.08639 0.138592 67.4693 10082.1 2.76662 3366.36 0.92775 6.28416 0.954031 1125.92 -9466.13 -29.4082 -3160.6 -9.93853 -50.7512 -9.65067 -1057.04 5026.23 48.999 1687.8 17.1635 47.8801 15.9877 570.651 5081.42 33268.1
