LAMMPS (3 Nov 2022)
OMP_NUM_THREADS environment is not set. Defaulting to 1 thread. (src/comm.cpp:98)
  using 1 OpenMP thread(s) per MPI task
# Demonstrate POD Ta potential

# Initialize simulation

variable nsteps index 100
variable nrep equal 4
variable a equal 3.316
units           metal

# generate the box and atom positions using a BCC lattice

variable nx equal ${nrep}
variable nx equal 4
variable ny equal ${nrep}
variable ny equal 4
variable nz equal ${nrep}
variable nz equal 4

boundary        p p p

lattice         bcc $a
lattice         bcc 3.316
Lattice spacing in x,y,z = 3.316 3.316 3.316
region          box block 0 ${nx} 0 ${ny} 0 ${nz}
region          box block 0 4 0 ${ny} 0 ${nz}
region          box block 0 4 0 4 0 ${nz}
region          box block 0 4 0 4 0 4
create_box      1 box
Created orthogonal box = (0 0 0) to (13.264 13.264 13.264)
  1 by 2 by 2 MPI processor grid
create_atoms    1 box
Created 128 atoms
  using lattice units in orthogonal box = (0 0 0) to (13.264 13.264 13.264)
  create_atoms CPU = 0.000 seconds

mass 1 180.88


# POD potential
pair_style pod
pair_coeff * * Ta_param.pod Ta_coeff.pod Ta
Reading potential file Ta_param.pod with DATE: 2022-11-30
**************** Begin of POD Potentials ****************
species: Ta 
periodic boundary conditions: 1 1 1
inner cut-off radius: 1
outer cut-off radius: 5
bessel polynomial degree: 3
inverse polynomial degree: 6
one-body potential: 1
two-body potential: 3 6 6
three-body potential: 3 6 5 5
four-body SNAP potential: 0 0
quadratic POD potential: 0
number of basis functions for one-body potential: 1
number of basis functions for two-body potential: 6
number of basis functions for three-body potential: 25
number of basis functions for four-body potential: 0
number of descriptors for one-body potential: 1
number of descriptors for two-body potential: 6
number of descriptors for three-body potential: 25
number of descriptors for four-body potential: 0
number of descriptors for quadratic POD potential: 0
total number of descriptors for all potentials: 32
**************** End of POD Potentials ****************


# Setup output

thermo          10
thermo_modify norm yes

# Set up NVE run

timestep 0.5e-3
neighbor 1.0 bin
neigh_modify once no every 1 delay 0 check yes

# Run MD

velocity all create 300.0 4928459 loop geom
fix 1 all nve
run             ${nsteps}
run             100
Neighbor list info ...
  update: every = 1 steps, delay = 0 steps, check = yes
  max neighbors/atom: 2000, page size: 100000
  master list distance cutoff = 6
  ghost atom cutoff = 6
  binsize = 3, bins = 5 5 5
  1 neighbor lists, perpetual/occasional/extra = 1 0 0
  (1) pair pod, perpetual
      attributes: full, newton on
      pair build: full/bin/atomonly
      stencil: full/bin/3d
      bin: standard
Per MPI rank memory allocation (min/avg/max) = 3.062 | 3.062 | 3.062 Mbytes
   Step          Temp          E_pair         E_mol          TotEng         Press     
         0   300           -11.841652      0             -11.803177     -15932.736    
        10   296.91627     -11.841257      0             -11.803177     -15691.219    
        20   287.83193     -11.840092      0             -11.803177     -14982.869    
        30   273.2481      -11.838221      0             -11.803177     -13854.215    
        40   253.97579     -11.835749      0             -11.803177     -12377.312    
        50   231.08941     -11.832814      0             -11.803177     -10642.767    
        60   205.86306     -11.829579      0             -11.803177     -8751.2744    
        70   179.69196     -11.826222      0             -11.803177     -6804.7346    
        80   154.0024      -11.822927      0             -11.803177     -4898.1954    
        90   130.15526     -11.819869      0             -11.803176     -3113.6412    
       100   109.34991     -11.8172        0             -11.803176     -1516.1119    
Loop time of 0.593779 on 4 procs for 100 steps with 128 atoms

Performance: 7.275 ns/day, 3.299 hours/ns, 168.413 timesteps/s, 21.557 katom-step/s
99.6% CPU use with 4 MPI tasks x 1 OpenMP threads

MPI task timing breakdown:
Section |  min time  |  avg time  |  max time  |%varavg| %total
---------------------------------------------------------------
Pair    | 0.57816    | 0.58286    | 0.58797    |   0.5 | 98.16
Neigh   | 0          | 0          | 0          |   0.0 |  0.00
Comm    | 0.0049949  | 0.010104   | 0.01481    |   3.5 |  1.70
Output  | 0.00018367 | 0.00020879 | 0.00024911 |   0.0 |  0.04
Modify  | 9.0609e-05 | 0.00010382 | 0.00012125 |   0.0 |  0.02
Other   |            | 0.0005076  |            |       |  0.09

Nlocal:             32 ave          32 max          32 min
Histogram: 4 0 0 0 0 0 0 0 0 0
Nghost:            431 ave         431 max         431 min
Histogram: 4 0 0 0 0 0 0 0 0 0
Neighs:              0 ave           0 max           0 min
Histogram: 4 0 0 0 0 0 0 0 0 0
FullNghs:         1856 ave        1856 max        1856 min
Histogram: 4 0 0 0 0 0 0 0 0 0

Total # of neighbors = 7424
Ave neighs/atom = 58
Neighbor list builds = 0
Dangerous builds = 0


Total wall time: 0:00:00
