LAMMPS (5 Oct 2007)
# 2d Lennard-Jones melt and subsequent energy minimization

units		lj
dimension	2
atom_style	atomic

lattice		sq2 0.8442
Lattice spacing in x,y,z = 1.53919 1.53919 1.53919
region		box block 0 20 0 20 -0.1 0.1
create_box	1 box
Created orthogonal box = (0 0 -0.153919) to (30.7838 30.7838 0.153919)
  1 by 1 by 1 processor grid
create_atoms	1 box
Created 800 atoms
mass		1 1.0

velocity	all create 5.0 87287 loop geom

pair_style	lj/cut 2.5
pair_coeff	1 1 1.0 1.0 2.5

neighbor	0.3 bin
neigh_modify	delay 0 every 1 check yes

fix		1 all nve
fix		2 all enforce2d

dump		1 all atom 100 dump.min

thermo		100

run		1000
Memory usage per processor = 1.36091 Mbytes
Step Temp E_pair E_mol TotEng Press 
       0            5   -2.6248859            0    2.3657391    5.0164128 
     100    3.3187244  -0.91317552            0    2.3993263     15.67743 
     200    3.3622965  -0.95733145            0    2.3986608    15.394538 
     300    3.3080536  -0.90276902            0    2.3990819    15.630094 
     400    3.3372243  -0.93276044            0    2.3982066    15.528389 
     500    3.3865341  -0.98224076            0    2.3979436    15.359952 
     600    3.2764258  -0.87262152            0     2.397661    15.878461 
     700    3.3464637  -0.94053621            0    2.3996529    15.464538 
     800    3.2357882  -0.82873122            0    2.4009899    16.062658 
     900    3.3313778  -0.92553383            0    2.3995976    15.642449 
    1000    3.2991999   -0.8948518            0    2.3981621    15.795094 
Loop time of 0.351552 on 1 procs for 1000 steps with 800 atoms

Pair  time (%) = 0.235668 (67.0364)
Neigh time (%) = 0.0651896 (18.5434)
Comm  time (%) = 0.00832987 (2.36946)
Outpt time (%) = 0.0113287 (3.22248)
Other time (%) = 0.0310361 (8.82832)

Nlocal:    800 ave 800 max 800 min
Histogram: 1 0 0 0 0 0 0 0 0 0
Nghost:    321 ave 321 max 321 min
Histogram: 1 0 0 0 0 0 0 0 0 0
Neighs:    7785 ave 7785 max 7785 min
Histogram: 1 0 0 0 0 0 0 0 0 0

Total # of neighbors = 7785
Ave neighs/atom = 9.73125
Neighbor list builds = 203
Dangerous builds = 0

neigh_modify	delay 0 every 1 check yes

dump_modify	1 every 5
thermo		5
minimize	0.001 100 1000
Memory usage per processor = 1.85682 Mbytes
Step Temp E_pair E_mol TotEng Press 
    1000    3.2991999   -0.8948518            0    2.3981621    15.795094 
    1005    3.2991999   -2.4576006            0   0.83541324    5.3984209 
    1010    3.2991999   -2.7044779            0   0.58853603    3.4329233 
    1015    3.2991999   -2.7930937            0    0.4999202      2.73175 
    1020    3.2991999   -2.8492488            0   0.44376514    2.2912403 
    1025    3.2991999   -2.8866493            0   0.40636464    2.0389785 
    1030    3.2991999   -2.9151524            0   0.37786146      1.85126 
    1035    3.2991999   -2.9342692            0   0.35874468    1.7465621 
    1039    3.2991999   -2.9455865            0   0.34742741    1.6759239 
Loop time of 0.065309 on 1 procs for 39 steps with 800 atoms

Minimization stats:
  E initial, next-to-last, final = -0.894852 -2.94392 -2.94559
  Gradient 2-norm init/final= 1841.9 22.7232
  Gradient inf-norm init/final= 264.563 6.74037
  Iterations = 39
  Force evaluations = 159

Pair  time (%) = 0.0471394 (72.179)
Neigh time (%) = 0.00358057 (5.4825)
Comm  time (%) = 0.000929832 (1.42374)
Outpt time (%) = 0.00789285 (12.0854)
Other time (%) = 0.00576639 (8.82939)

Nlocal:    800 ave 800 max 800 min
Histogram: 1 0 0 0 0 0 0 0 0 0
Nghost:    324 ave 324 max 324 min
Histogram: 1 0 0 0 0 0 0 0 0 0
Neighs:    7281 ave 7281 max 7281 min
Histogram: 1 0 0 0 0 0 0 0 0 0

Total # of neighbors = 7281
Ave neighs/atom = 9.10125
Neighbor list builds = 11
Dangerous builds = 0
