LAMMPS (5 Oct 2007)
# 2d Lennard-Jones melt and subsequent energy minimization

units		lj
dimension	2
atom_style	atomic

lattice		sq2 0.8442
Lattice spacing in x,y,z = 1.53919 1.53919 1.53919
region		box block 0 20 0 20 -0.1 0.1
create_box	1 box
Created orthogonal box = (0 0 -0.153919) to (30.7838 30.7838 0.153919)
  2 by 2 by 1 processor grid
create_atoms	1 box
Created 800 atoms
mass		1 1.0

velocity	all create 5.0 87287 loop geom

pair_style	lj/cut 2.5
pair_coeff	1 1 1.0 1.0 2.5

neighbor	0.3 bin
neigh_modify	delay 0 every 1 check yes

fix		1 all nve
fix		2 all enforce2d

dump		1 all atom 100 dump.min

thermo		100

run		1000
Memory usage per processor = 1.33634 Mbytes
Step Temp E_pair E_mol TotEng Press 
       0            5   -2.6248859            0    2.3657391    5.0164128 
     100    3.3187244  -0.91317552            0    2.3993263     15.67743 
     200    3.3622965  -0.95733145            0    2.3986608    15.394538 
     300    3.3080536  -0.90276902            0    2.3990819    15.630094 
     400    3.3372243  -0.93276044            0    2.3982066    15.528389 
     500    3.3865341  -0.98224076            0    2.3979436    15.359952 
     600    3.2764258  -0.87262149            0     2.397661    15.878461 
     700    3.3464635  -0.94053604            0    2.3996529    15.464539 
     800    3.2357418  -0.82868569            0    2.4009891    16.062937 
     900    3.3306205  -0.92469348            0    2.3996821    15.647515 
    1000    3.3072883  -0.90277016            0     2.398317     15.73487 
Loop time of 0.528082 on 4 procs for 1000 steps with 800 atoms

Pair  time (%) = 0.0636179 (12.047)
Neigh time (%) = 0.0185205 (3.50712)
Comm  time (%) = 0.346179 (65.554)
Outpt time (%) = 0.0200128 (3.78971)
Other time (%) = 0.079752 (15.1022)

Nlocal:    200 ave 203 max 195 min
Histogram: 1 0 0 0 0 0 1 0 1 1
Nghost:    171.75 ave 183 max 163 min
Histogram: 1 0 1 0 0 1 0 0 0 1
Neighs:    1947.5 ave 2035 max 1881 min
Histogram: 1 0 0 2 0 0 0 0 0 1

Total # of neighbors = 7790
Ave neighs/atom = 9.7375
Neighbor list builds = 203
Dangerous builds = 0

neigh_modify	delay 0 every 1 check yes

dump_modify	1 every 5
thermo		5
minimize	0.001 100 1000
Memory usage per processor = 1.79433 Mbytes
Step Temp E_pair E_mol TotEng Press 
    1000    3.3072883  -0.90277016            0     2.398317     15.73487 
    1005    3.3072883   -2.4584757            0   0.84261145    5.3963204 
    1010    3.3072883   -2.7137644            0   0.58732273    3.3754134 
    1015    3.3072883   -2.7970495            0   0.50403764    2.7104125 
    1020    3.3072883   -2.8520047            0    0.4490825    2.2911702 
    1025    3.3072883   -2.8872265            0   0.41386062    2.0471665 
    1030    3.3072883   -2.9164826            0   0.38460452    1.8554645 
    1035    3.3072883   -2.9365465            0   0.36454064    1.7578606 
    1038    3.3072883   -2.9438826            0   0.35720459     1.711493 
Loop time of 0.1108 on 4 procs for 38 steps with 800 atoms

Minimization stats:
  E initial, next-to-last, final = -0.90277 -2.94232 -2.94388
  Gradient 2-norm init/final= 1856.29 22.1115
  Gradient inf-norm init/final= 282.389 7.156
  Iterations = 38
  Force evaluations = 148

Pair  time (%) = 0.0117812 (10.6328)
Neigh time (%) = 0.000997961 (0.900684)
Comm  time (%) = 0.0447497 (40.3877)
Outpt time (%) = 0.0136306 (12.3019)
Other time (%) = 0.0396408 (35.7768)

Nlocal:    200 ave 203 max 197 min
Histogram: 1 1 0 0 0 0 0 0 1 1
Nghost:    172 ave 174 max 170 min
Histogram: 1 0 0 0 0 2 0 0 0 1
Neighs:    1819.75 ave 1838 max 1810 min
Histogram: 1 1 1 0 0 0 0 0 0 1

Total # of neighbors = 7279
Ave neighs/atom = 9.09875
Neighbor list builds = 11
Dangerous builds = 0
