

     16000    atoms
         0    bonds
         0    angles
         0    dihedrals
         0    impropers

         2    atom types
         0    bond types
         0    angle types

      -7.50000000       7.50000000   xlo xhi
      -7.50000000       7.50000000   ylo yhi
     -11.85185185      11.85185185   zlo zhi

Atoms

     1  1    1.8566    6.6793   -9.5732      0      0      0
     2  1    3.3058   -5.6632   -7.3410      0      0      0
     3  1   -0.3068   -3.1233    8.1387      0      0      0
     4  1    1.3616    3.6599    7.4749      0      0      0
     5  1    3.8805    2.7532    1.4144      0      0      0
     6  1   -5.6654    5.8739   -2.8181      0      0      0
     7  1    1.3794    4.1430    5.8371      0      0      0
     8  1   -1.9408    6.2811   -2.6358      0      0      0
     9  1    7.4410   -3.1608   -0.3513      0      0      0
    10  1    0.6312    5.8097   -2.9383      0      0      0
    11  1    5.4583    1.9311   -1.2280      0      0      0
    12  1   -6.7647    4.9444   -2.7470      0      0      0
    13  1   -5.1538    5.9970    5.8255      0      0      0
    14  1    6.5107    6.3468    7.8557      0      0      0
    15  1    1.7480   -0.3666    8.8210      0      0      0
    16  1   -6.6924   -6.4102    8.2368      0      0      0
    17  1    2.9906   -1.5206    7.0889      0      0      0
    18  1    2.4502    5.5773   -3.8614      0      0      0
    19  1   -7.4917    3.1653    2.4289      0      0      0
    20  1   -2.5920    2.1894    4.6976      0      0      0
    21  1   -0.9484   -4.5645   -8.9737      0      0      0
    22  1    1.6991   -3.6141   -0.1590      0      0      0
    23  1   -5.4337   -2.9420    2.4364      0      0      0
    24  1    6.4345    5.6323    2.2588      0      0      0
    25  1   -7.1297   -3.4700   -9.4846      0      0      0
    26  1   -5.5683   -2.5746    9.4851      0      0      0
    27  1   -2.1071    4.5570  -10.5546      0      0      0
    28  1    2.8698   -1.3775   -2.3733      0      0      0
    29  1    7.4059   -1.2327   -9.2711      0      0      0
    30  1    1.2667   -5.7580    3.4368      0      0      0
    31  1    3.5874    5.3286   -0.2797      0      0      0
    32  1   -0.9082   -2.6983    1.6345      0      0      0
    33  1   -2.1360    4.0056    6.2821      0      0      0
    34  1    3.6418   -0.1085   10.0758      0      0      0
    35  1    2.8046    3.3405   10.8111      0      0      0
    36  1   -4.2033    1.8963  -10.7646      0      0      0
    37  1   -6.5123    5.3591   -8.1611      0      0      0
    38  1    1.3803   -2.9415    3.3363      0      0      0
    39  1   -4.3186   -3.4873   -6.9912      0      0      0
    40  1   -3.5960   -3.3966   -4.4833      0      0      0
    41  1    4.8527   -4.4959    4.8961      0      0      0
    42  1    3.7868    6.1658    6.1545      0      0      0
    43  1    6.6683    2.6135    9.7132      0      0      0
    44  1    6.1137   -0.7105    8.2043      0      0      0
    45  1   -2.2824    1.4578   -7.7300      0      0      0
    46  1    2.3761    3.4969    3.8050      0      0      0
    47  1   -2.3276   -6.7507    8.4787      0      0      0
    48  1    2.3505    3.6775    3.3192      0      0      0
    49  1    2.2523    1.0683    0.4741      0      0      0
    50  1    3.8719   -5.2393   -0.3467      0      0      0
    51  1    6.5996    6.9757  -11.5062      0      0      0
    52  1   -4.3602    6.8223    5.1760      0      0      0
    53  1    4.0907    5.1436    0.1786      0      0      0
    54  1    3.5640   -6.0508   -5.3036      0      0      0
    55  1   -0.7689    1.2235   -7.7312      0      0      0
    56  1    1.5104   -3.2226   -1.6748      0      0      0
    57  1    5.2447   -2.9768   -7.1162      0      0      0
    58  1    6.4992   -3.9826    3.8829      0      0      0
    59  1   -1.9292   -2.2709   -8.6987      0      0      0
    60  1   -5.4301    5.8615   -8.7610      0      0      0
    61  1    5.1693    0.6383  -11.8037      0      0      0
    62  1   -0.9968   -5.1198   -0.7965      0      0      0
    63  1    5.9872   -2.8136   -5.3659      0      0      0
    64  1    3.7239   -1.5278    0.1128      0      0      0
    65  1    3.2074    5.6692    8.5195      0      0      0
    66  1   -7.2742   -6.8723   -2.1152      0      0      0
    67  1    4.0031    7.2855  -11.7941      0      0      0
    68  1   -1.8410   -4.4706   -2.9558      0      0      0
    69  1    1.3611   -5.2517  -11.0578      0      0      0
    70  1    3.9994    0.6531    0.0102      0      0      0
    71  1   -5.2624    5.8990    4.4405      0      0      0
    72  1   -6.2696    2.6610   -8.2515      0      0      0
    73  1   -2.2216    0.5119    9.8484      0      0      0
    74  1    1.8827   -4.8865   -3.8428      0      0      0
    75  1    2.2927   -1.1679    3.8863      0      0      0
    76  1   -4.8819    2.8810   10.4599      0      0      0
    77  1   -4.0059   -1.5927   -3.2654      0      0      0
    78  1    4.5700   -4.3414   11.8251      0      0      0
    79  1   -0.7593   -1.9578   -5.6120      0      0      0
    80  1   -4.6237   -3.2849    0.6855      0      0      0
    81  1   -6.3201    3.0402   -1.5723      0      0      0
    82  1   -2.9851   -1.8708   -6.9537      0      0      0
    83  1   -4.0277    1.9866  -11.6318      0      0      0
    84  1   -6.5933   -4.6345   -0.0435      0      0      0
    85  1   -6.6616   -1.4910   -2.4279      0      0      0
    86  1   -7.1018    6.6934   -1.1422      0      0      0
    87  1    5.6119   -4.4165    0.9819      0      0      0
    88  1    4.5502   -1.8079   -1.3754      0      0      0
    89  1    5.7646    0.9263    6.9457      0      0      0
    90  1   -5.3532    0.5259  -10.9228      0      0      0
    91  1    5.8117   -6.8620  -10.9189      0      0      0
    92  1    2.8122    6.5484    5.3768      0      0      0
    93  1    2.5191   -0.5298    9.5724      0      0      0
    94  1    0.8565   -4.6852    1.1938      0      0      0
    95  1   -4.2383   -3.6776  -10.1269      0      0      0
    96  1   -3.3989   -2.8934   -1.4195      0      0      0
    97  1   -0.2475    0.9143    0.0335      0      0      0
    98  1   -3.6015    1.3525   10.0447      0      0      0
    99  1    7.1649    0.4138    4.5365      0      0      0
   100  1   -3.0569    6.4385    6.2923      0      0      0
   101  1    6.2198   -4.7489   -3.8307      0      0      0
   102  1    6.0180   -2.6699    8.3039      0      0      0
   103  1    5.6547    5.3447  -11.0346      0      0      0
   104  1   -2.3767   -2.3131  -11.1002      0      0      0
   105  1    0.7750   -2.4088    9.2606      0      0      0
   106  1   -5.4159   -3.6423    8.0374      0      0      0
   107  1    1.2869    2.7406    7.6452      0      0      0
   108  1    0.0333    2.0336   -1.4637      0      0      0
   109  1   -5.8184    0.8737    9.3028      0      0      0
   110  1    0.1935   -3.3203    1.0978      0      0      0
   111  1    7.4076   -7.0892   -3.9321      0      0      0
   112  1   -0.3509   -2.1052  -11.5525      0      0      0
   113  1    3.1598    6.6867    0.8121      0      0      0
   114  1    4.3095    0.1030    0.0744      0      0      0
   115  1   -3.8375   -4.7263   -8.5699      0      0      0
   116  1   -3.7465    1.8804    3.9757      0      0      0
   117  1   -7.2302   -7.1738    9.5799      0      0      0
   118  1   -0.5649    3.7144   -0.3071      0      0      0
   119  1    5.3927   -4.1279   -7.0163      0      0      0
   120  1    2.4828    5.7459   -1.6897      0      0      0
   121  1    1.8557    3.5388    1.4922      0      0      0
   122  1    5.7514    7.4970    0.6136      0      0      0
   123  1   -6.8866    4.5591    0.5678      0      0      0
   124  1    6.0559    0.5259    1.1950      0      0      0
   125  1   -6.7013   -4.8809    3.0920      0      0      0
   126  1    1.6283    3.2779  -11.6460      0      0      0
   127  1    6.5669   -1.9301  -10.2919      0      0      0
   128  1   -0.3699    3.6282    1.6863      0      0      0
   129  1   -4.4801    3.8782    2.5227      0      0      0
   130  1   -2.7482   -2.0763  -11.5299      0      0      0
   131  1   -6.9177    1.1619   -3.0650      0      0      0
   132  1    0.4428   -5.2669   -0.0210      0      0      0
   133  1    3.3849   -2.8306   -2.3427      0      0      0
   134  1   -6.7405   -3.9358    4.8216      0      0      0
   135  1    4.2058    4.3012   -7.2881      0      0      0
   136  1    2.5302    5.3880    2.9107      0      0      0
   137  1   -1.4279    5.1362    8.4959      0      0      0
   138  1   -2.4128   -4.8524   -6.2895      0      0      0
   139  1    0.5332    5.1461   -9.4018      0      0      0
   140  1   -0.0590   -1.7738    2.8703      0      0      0
   141  1    7.3302    1.1261   10.2541      0      0      0
   142  1   -4.3098   -2.5611    8.8646      0      0      0
   143  1    2.0888   -2.6434   -2.1177      0      0      0
   144  1    1.0827    0.9266   -8.5902      0      0      0
   145  1   -0.5447    7.0602    5.9957      0      0      0
   146  1   -5.7143    6.3526  -11.5593      0      0      0
   147  1   -1.6535   -4.2754   -7.5650      0      0      0
   148  1    0.4905    0.5384   -9.1936      0      0      0
   149  1   -1.5735    4.7265  -10.6136      0      0      0
   150  1    3.2961    6.2861   -8.2353      0      0      0
   151  1    2.9542   -1.6681    6.4013      0      0      0
   152  1    4.2745   -0.5670   -1.3858      0      0      0
   153  1   -0.0639    5.5352   10.5895      0      0      0
   154  1    4.1562    3.9981   -8.0859      0      0      0
   155  1   -1.0560   -4.3903   -2.5362      0      0      0
   156  1   -1.5880   -1.7574    9.4936      0      0      0
   157  1   -1.8784    6.2715   -5.2479      0      0      0
   158  1   -3.8637   -2.5258    1.9857      0      0      0
   159  1    0.7214    1.8959    6.2173      0      0      0
   160  1    2.5626    5.1672   -4.8489      0      0      0
   161  1    0.5267   -6.8492    5.4535      0      0      0
   162  1    7.2665   -5.3430    0.2210      0      0      0
   163  1    5.1299   -6.9073   -5.0696      0      0      0
   164  1   -3.8982   -1.5359  -10.1343      0      0      0
   165  1    4.1842    0.8462    2.6274      0      0      0
   166  1    3.4070    0.2195   -2.7002      0      0      0
   167  1    5.5614    5.4556   -4.9701      0      0      0
   168  1   -1.4572   -1.0985    6.0245      0      0      0
   169  1    5.0158    4.2304    3.1605      0      0      0
   170  1    6.4622   -0.3562   10.6607      0      0      0
   171  1   -1.1978   -4.3457  -11.0946      0      0      0
   172  1    4.1277    5.0930    5.9960      0      0      0
   173  1    7.3675    6.4733    0.3114      0      0      0
   174  1    5.8053    0.9702    2.7444      0      0      0
   175  1   -5.6090   -0.7958   -7.5119      0      0      0
   176  1   -5.6550   -1.2717   -9.5928      0      0      0
   177  1   -7.3433    5.7436    8.5663      0      0      0
   178  1    6.1545   -6.9668   -5.5618      0      0      0
   179  1    1.7543    2.9675  -11.7366      0      0      0
   180  1   -6.0590   -2.4518   -9.4754      0      0      0
   181  1   -1.4152   -4.5122   -1.7223      0      0      0
   182  1    0.0771   -1.5700  -10.4578      0      0      0
   183  1    1.7594   -2.1410    2.5705      0      0      0
   184  1   -6.8627    5.9514   11.2068      0      0      0
   185  1   -5.2201   -6.2392   -5.4438      0      0      0
   186  1    6.5207   -6.3761    3.7587      0      0      0
   187  1    0.2642   -5.5068    5.9568      0      0      0
   188  1   -6.4904   -4.7266    9.5340      0      0      0
   189  1    6.2808    5.0455   -6.7644      0      0      0
   190  1    7.4594    0.0001    8.8494      0      0      0
   191  1   -2.5966   -0.4982   -5.5525      0      0      0
   192  1   -6.9098    5.1865    1.8176      0      0      0
   193  1   -1.5306   -2.1220    9.5605      0      0      0
   194  1    2.4612    3.5103   -2.2519      0      0      0
   195  1   -5.9497    7.4866   10.0200      0      0      0
   196  1    5.7810    3.3932   10.3144      0      0      0
   197  1   -3.4915   -3.6598    5.0538      0      0      0
   198  1    4.4387    3.2255    6.9928      0      0      0
   199  1    1.9549    7.3194    5.6186      0      0      0
   200  1    0.1584   -2.3780    1.1931      0      0      0
   201  1    3.4758   -1.6611    2.9047      0      0      0
   202  1    0.6337    7.1882   -4.0875      0      0      0
   203  1    0.4602    5.1380   -9.4786      0      0      0
   204  1   -2.9649    6.0988    6.2217      0      0      0
   205  1    1.2091   -0.2069   -9.3875      0      0      0
   206  1   -0.7576    2.8021   -9.4501      0      0      0
   207  1   -3.5988    1.2086    8.0800      0      0      0
   208  1    6.0685   -7.3886    5.4371      0      0      0
   209  1    4.7206    2.4121   -9.1596      0      0      0
   210  1   -2.3504    6.5448    1.7597      0      0      0
   211  1    1.4543    1.7496   -5.6103      0      0      0
   212  1    3.8551   -0.6077  -11.5902      0      0      0
   213  1   -1.6740    3.1997   11.8385      0      0      0
   214  1    5.7582   -1.6764  -11.6485      0      0      0
   215  1    3.9224    3.1600   -5.4921      0      0      0
   216  1   -0.0309   -4.5967   -1.7947      0      0      0
   217  1    1.5942    2.9449   -0.0779      0      0      0
   218  1   -1.9439   -1.3448    2.0068      0      0      0
   219  1   -5.9548    2.3176   10.7127      0      0      0
   220  1   -1.3438   -6.2268   -3.1640      0      0      0
   221  1    0.6848    6.5732   -9.1462      0      0      0
   222  1   -6.8674    0.2284    5.8431      0      0      0
   223  1   -5.3433    3.0619   -7.5171      0      0      0
   224  1    1.2944   -7.1473   11.1258      0      0      0
   225  1   -3.2543   -7.0923   10.8096      0      0      0
   226  1   -2.9467   -4.9536   -8.9177      0      0      0
   227  1   -0.6377   -2.3684   10.1474      0      0      0
   228  1    4.4452    0.3207    1.8495      0      0      0
   229  1   -5.9790    6.2064  -11.0181      0      0      0
   230  1   -5.8619    6.3433   -6.6258      0      0      0
   231  1   -0.2192    0.0788    8.0453      0      0      0
   232  1   -2.4777   -5.5989    2.5018      0      0      0
   233  1    1.2186    0.1679   -7.2753      0      0      0
   234  1   -5.0024    2.9763    8.2439      0      0      0
   235  1    1.4225   -1.9690   -2.8036      0      0      0
   236  1   -0.2458    0.3965    3.6215      0      0      0
   237  1   -6.8535    6.2921   11.6607      0      0      0
   238  1    3.5208   -0.9877   10.1974      0      0      0
   239  1    6.0344   -0.9508    2.7646      0      0      0
   240  1   -6.3349    2.4634   -1.1148      0      0      0
   241  1   -5.4003    1.6882   -8.8674      0      0      0
   242  1   -6.3675    1.3211  -10.7106      0      0      0
   243  1   -5.9913   -0.7356   -1.8894      0      0      0
   244  1    4.4926   -0.1284   -8.1148      0      0      0
   245  1   -5.9909    4.2838    2.9085      0      0      0
   246  1   -6.0605   -1.9508    3.9384      0      0      0
   247  1    0.4620   -3.5791   -7.8588      0      0      0
   248  1    5.5232   -5.3825   -3.2814      0      0      0
   249  1    3.3127   -4.1677   -9.7797      0      0      0
   250  1   -2.3512    0.8688   11.7089      0      0      0
   251  1   -2.2174    2.4887    5.9976      0      0      0
   252  1   -3.2100    3.3646   -8.9322      0      0      0
   253  1   -1.6775    6.0630    1.2488      0      0      0
   254  1   -3.2094   -7.3425   -1.1536      0      0      0
   255  1   -7.2954    1.0978    4.1989      0      0      0
   256  1    0.9527   -0.3456    7.1996      0      0      0
   257  1   -2.6835    0.4787    7.7877      0      0      0
   258  1   -5.3682   -3.8280    3.8209      0      0      0
   259  1   -0.1104    7.3130   -9.0591      0      0      0
   260  1   -5.2335   -2.5277   -0.7444      0      0      0
   261  1    1.5189    3.8819   -8.6550      0      0      0
   262  1   -1.8219    6.0221   -6.2542      0      0      0
   263  1   -1.3730    7.2069   -1.4599      0      0      0
   264  1    2.6507    5.6162    4.5756      0      0      0
   265  1   -4.7551   -1.8073    9.5412      0      0      0
   266  1   -3.3248   -1.3692    2.3434      0      0      0
   267  1   -5.1465   -3.0550   -9.3549      0      0      0
   268  1    0.5614   -5.6302   -8.6947      0      0      0
   269  1    4.0120    3.9960   10.8887      0      0      0
   270  1    1.5311   -0.5031   11.5609      0      0      0
   271  1   -0.5608    3.2103   -6.5283      0      0      0
   272  1    2.2475   -4.5746  -10.0452      0      0      0
   273  1    0.4620   -2.2104   -0.1053      0      0      0
   274  1    2.9579   -6.8555   -6.1981      0      0      0
   275  1   -6.4991   -7.0717    2.6069      0      0      0
   276  1    6.8737   -6.5410   -6.8925      0      0      0
   277  1   -4.8538    6.8698    5.0018      0      0      0
   278  1   -2.1013    4.1828  -10.8400      0      0      0
   279  1    4.7376   -5.0126  -10.5156      0      0      0
   280  1   -6.1911    4.5914  -10.5896      0      0      0
   281  1    0.6020    4.2326   -0.5358      0      0      0
   282  1   -5.6306   -6.4987   -9.4310      0      0      0
   283  1    6.0066    3.6768   -7.5528      0      0      0
   284  1    3.7256   -1.0408   -4.1195      0      0      0
   285  1   -6.2459   -4.1572    3.4836      0      0      0
   286  1   -2.2393    1.2254    9.8069      0      0      0
   287  1    6.0734   -0.5096   -7.8912      0      0      0
   288  1    5.1993   -4.2348  -11.1217      0      0      0
   289  1    0.9079    0.9527   -3.0378      0      0      0
   290  1    3.8416    4.6547   -9.3122      0      0      0
   291  1   -4.0898   -3.9978  -10.3645      0      0      0
   292  1    5.1472   -4.5555   -3.9352      0      0      0
   293  1   -6.0531    0.1766   -2.9025      0      0      0
   294  1    4.2797    3.3448   -8.1724      0      0      0
   295  1   -5.2597    0.3372  -10.3004      0      0      0
   296  1    3.1333   -3.3883    0.2257      0      0      0
   297  1    7.0918    0.3536   -9.6470      0      0      0
   298  1   -5.5971   -1.8209    0.0971      0      0      0
   299  1    4.1120   -2.8885    4.3626      0      0      0
   300  1    1.9988    6.3579   11.2247      0      0      0
   301  1    4.6216    0.4703    6.2395      0      0      0
   302  1    2.2903   -6.0459   -2.3221      0      0      0
   303  1   -1.5368    7.2483    4.5883      0      0      0
   304  1    2.1553   -4.4330  -10.8114      0      0      0
   305  1   -3.4995    4.4705    3.7255      0      0      0
   306  1   -3.8980   -4.5105    9.7905      0      0      0
   307  1    5.4324   -3.8933    7.7646      0      0      0
   308  1   -6.8031    7.4611    4.9811      0      0      0
   309  1   -3.8202   -6.4729    2.1155      0      0      0
   310  1   -5.0249    6.7217   -4.7861      0      0      0
   311  1    1.5692   -2.4428    5.6097      0      0      0
   312  1   -0.7778   -0.4445    7.0078      0      0      0
   313  1    7.0852   -1.5125    3.8659      0      0      0
   314  1    2.8693    1.8640   -1.2038      0      0      0
   315  1    0.2885    3.8583    2.4487      0      0      0
   316  1   -1.8076   -6.9875   -6.3505      0      0      0
   317  1   -6.8704   -5.1166   -5.9967      0      0      0
   318  1    6.1056   -7.4111    5.3987      0      0      0
   319  1   -2.9764    5.1278   -7.8456      0      0      0
   320  1    4.0419   -6.3462   -6.4568      0      0      0
   321  1    7.0526    5.0892   -8.6334      0      0      0
   322  1    6.0793   -2.0833  -10.7405      0      0      0
   323  1    0.4277    3.2443    6.1261      0      0      0
   324  1    3.6588    7.2080   -4.9377      0      0      0
   325  1    6.5638    5.3707   10.3655      0      0      0
   326  1    4.9444   -1.9360    1.2550      0      0      0
   327  1    1.4259   -5.1003   -9.0515      0      0      0
   328  1   -4.1824    5.0110   10.7819      0      0      0
   329  1   -0.8995   -2.5803   -3.5915      0      0      0
   330  1    3.0599    3.9321    7.1531      0      0      0
   331  1    0.4430   -6.8523    4.7930      0      0      0
   332  1   -3.0040    2.0653    1.9247      0      0      0
   333  1   -4.0053   -1.7283    9.8406      0      0      0
   334  1   -6.6034   -1.9166   10.4921      0      0      0
   335  1   -4.3241   -0.0536   -9.6121      0      0      0
   336  1   -0.4128    7.0561    1.9723      0      0      0
   337  1   -3.1684    2.7550   -0.5271      0      0      0
   338  1   -3.9487    1.3927   -0.9817      0      0      0
   339  1   -4.0074   -5.7111   10.7182      0      0      0
   340  1    3.4263   -4.5108   -7.1785      0      0      0
   341  1   -4.3372    5.8516  -11.3698      0      0      0
   342  1    0.7766    3.8534   -3.3362      0      0      0
   343  1   -0.4586    2.3838    1.6371      0      0      0
   344  1    4.9075    0.1577    0.5309      0      0      0
   345  1   -2.7220    2.8561   -2.2791      0      0      0
   346  1    5.1636    5.1109  -10.2097      0      0      0
   347  1    5.2427    2.9312    0.0589      0      0      0
   348  1    2.1668    4.7120   10.6796      0      0      0
   349  1   -3.7645   -6.6979   -7.6071      0      0      0
   350  1    5.6143    0.8671   -3.8540      0      0      0
   351  1   -7.2100    4.6903    6.7381      0      0      0
   352  1    6.2340    6.4398   -5.6282      0      0      0
   353  1    2.4716   -4.6363    3.4528      0      0      0
   354  1    2.7015   -1.3932   -3.7703      0      0      0
   355  1    7.0631   -0.2540    8.9272      0      0      0
   356  1    5.4007   -4.3297   -4.0782      0      0      0
   357  1   -1.2394   -5.5837    5.3197      0      0      0
   358  1    6.2614    4.7275   -3.4232      0      0      0
   359  1    3.8803    4.0175    1.3172      0      0      0
   360  1    2.9724    4.3996   -1.2607      0      0      0
   361  1   -5.3521    3.5207   -4.3815      0      0      0
   362  1    5.8319   -5.2347   -5.2358      0      0      0
   363  1   -2.0840    5.6469   -3.3361      0      0      0
   364  1    1.5365   -6.8460   -4.7244      0      0      0
   365  1    3.8513    6.6294   -5.6366      0      0      0
   366  1   -7.3176    7.4994   -3.3108      0      0      0
   367  1   -0.5493   -1.1452    3.8492      0      0      0
   368  1   -7.1619   -1.6745   -5.6478      0      0      0
   369  1   -6.0155   -6.0355   -9.7189      0      0      0
   370  1    4.9542    3.3504   -2.0609      0      0      0
   371  1   -0.8014    4.2123   -9.4395      0      0      0
   372  1    6.5451    4.7385   -2.0372      0      0      0
   373  1   -4.6595    3.4082   -2.1777      0      0      0
   374  1    5.7113    0.0634    8.4089      0      0      0
   375  1   -1.0097   -0.0080   -6.2568      0      0      0
   376  1   -0.1510    3.2702   -7.1247      0      0      0
   377  1   -5.2588   -0.6819    0.8665      0      0      0
   378  1   -3.6992    6.6587   -7.9702      0      0      0
   379  1    3.0254   -3.5956   -0.8368      0      0      0
   380  1    3.9959   -6.4008    3.9835      0      0      0
   381  1   -5.9325   -0.6521  -10.9215      0      0      0
   382  1    7.2432    6.3504    9.7114      0      0      0
   383  1    4.1309    6.0721   -4.0049      0      0      0
   384  1   -1.9978    3.4958   -8.9835      0      0      0
   385  1    5.2955   -1.1721    3.9620      0      0      0
   386  1   -0.7563   -5.5513    6.7279      0      0      0
   387  1    2.0680    2.6613   -9.5154      0      0      0
   388  1    5.7757    6.2969    2.9331      0      0      0
   389  1   -5.9685    2.7451    5.6599      0      0      0
   390  1   -4.7113   -6.6061   11.7526      0      0      0
   391  1    5.9579   -6.8338    2.6815      0      0      0
   392  1    3.4328   -4.1214    6.4236      0      0      0
   393  1    4.8440    1.3463   -2.7171      0      0      0
   394  1   -3.4886    4.3029    6.1674      0      0      0
   395  1    3.1084   -4.9079    8.7849      0      0      0
   396  1    1.3656    6.5201   10.3355      0      0      0
   397  1   -5.1134    1.8574    8.7337      0      0      0
   398  1   -3.4325    1.8599   -7.8565      0      0      0
   399  1   -3.3945   -7.2817    7.4199      0      0      0
   400  1    6.6417   -0.2647   -1.0536      0      0      0
   401  1   -5.5201    0.5371   -0.8635      0      0      0
   402  1   -0.9664   -1.2561    2.9891      0      0      0
   403  1   -5.5941    3.4362    7.5895      0      0      0
   404  1   -1.0213   -5.4245   -8.9127      0      0      0
   405  1    1.6354   -0.4714   -7.6796      0      0      0
   406  1    1.3429    0.0833    8.6720      0      0      0
   407  1    3.1743   -7.0944   -5.2194      0      0      0
   408  1    7.1934    0.9158    0.1159      0      0      0
   409  1   -7.0524    2.2951    9.5669      0      0      0
   410  1    6.4193    5.7591    6.6095      0      0      0
   411  1   -1.1711    2.6621    8.7639      0      0      0
   412  1    1.8157    5.1256    8.1532      0      0      0
   413  1    4.4317    1.3653  -10.9519      0      0      0
   414  1   -4.4941   -4.3263   -2.3882      0      0      0
   415  1   -7.3152   -0.0604    2.8619      0      0      0
   416  1    6.1295    5.7953   -2.5863      0      0      0
   417  1   -7.3743   -0.9857   10.8881      0      0      0
   418  1   -5.8478    4.8675   -8.4903      0      0      0
   419  1   -2.0413   -2.4226  -11.1239      0      0      0
   420  1    2.1840    7.2906   -6.4365      0      0      0
   421  1   -6.4027    0.1819   -3.5859      0      0      0
   422  1   -6.4917    2.4379   -8.6645      0      0      0
   423  1   -3.6292   -6.9055  -10.9787      0      0      0
   424  1   -3.7752    4.9908   11.0453      0      0      0
   425  1   -5.8068   -5.4855    5.8002      0      0      0
   426  1   -5.5644    6.5039   -3.6110      0      0      0
   427  1    7.0361    0.5954   -4.1367      0      0      0
   428  1    0.2421    6.7534   11.7494      0      0      0
   429  1    7.3229   -6.0026    4.6771      0      0      0
   430  1   -2.3887    6.7099   -3.1728      0      0      0
   431  1    5.1022   -4.7092    1.2790      0      0      0
   432  1    2.1194    7.2317   -6.4594      0      0      0
   433  1   -6.0015    7.1408   -6.7513      0      0      0
   434  1   -0.7383    3.2912    1.1563      0      0      0
   435  1   -3.3087   -7.1357    2.2779      0      0      0
   436  1   -7.3153    3.9348  -11.3893      0      0      0
   437  1    7.0337    1.4648    7.6172      0      0      0
   438  1   -0.9289    6.1780   11.7108      0      0      0
   439  1    5.1287    4.8859    9.6941      0      0      0
   440  1    1.3024    5.8168   -4.8737      0      0      0
   441  1    1.3636   -3.2103   -2.5100      0      0      0
   442  1    1.6904   -2.2763   11.5361      0      0      0
   443  1    4.8726   -3.6980    6.8804      0      0      0
   444  1   -5.2387   -4.3589    8.9911      0      0      0
   445  1    3.0725    2.2408   -2.4838      0      0      0
   446  1    0.3121    0.9548   -4.6411      0      0      0
   447  1   -0.3632   -1.0735   -2.8728      0      0      0
   448  1    2.8935   -1.4933    9.6852      0      0      0
   449  1    3.9351   -5.6176  -11.4666      0      0      0
   450  1   -5.4736    1.8928  -10.2060      0      0      0
   451  1    6.2716    4.6997   -7.0617      0      0      0
   452  1    6.6349   -0.1702    1.9265      0      0      0
   453  1    1.1806    0.4627   11.7555      0      0      0
   454  1   -6.1444   -4.0546   -1.2157      0      0      0
   455  1    6.8229    3.5065   -3.8581      0      0      0
   456  1   -5.8287    6.5162    5.7726      0      0      0
   457  1   -2.2787   -5.3934   -5.1614      0      0      0
   458  1   -5.4402    6.1502    9.9209      0      0      0
   459  1   -3.1705    0.9601    0.0434      0      0      0
   460  1   -2.7672    4.2811   -8.0555      0      0      0
   461  1   -6.7609   -2.8087    2.2440      0      0      0
   462  1    3.7635   -4.4606    2.4056      0      0      0
   463  1   -0.6964   -6.9638    6.8785      0      0      0
   464  1   -0.1667   -0.4984   -9.1126      0      0      0
   465  1    4.6395   -0.4210   -8.1443      0      0      0
   466  1    0.2964    5.0272   -8.2471      0      0      0
   467  1   -7.3943    4.7167   -6.7766      0      0      0
   468  1    5.4116    0.0238   -6.3952      0      0      0
   469  1    3.8749    2.3977   -8.4000      0      0      0
   470  1    3.6356   -3.7259   -6.0466      0      0      0
   471  1    2.7037   -2.8171    1.7699      0      0      0
   472  1    6.0361    1.0641   -3.5244      0      0      0
   473  1   -0.7545    2.4430    2.3334      0      0      0
   474  1    1.6483   -4.6989  -10.1791      0      0      0
   475  1   -4.6106   -4.9528    2.3191      0      0      0
   476  1    4.4701    4.3178    6.1214      0      0      0
   477  1   -2.1719   -1.1723    6.7925      0      0      0
   478  1    1.7566    5.3977    2.6931      0      0      0
   479  1   -6.8072   -3.0341   -4.5004      0      0      0
   480  1    5.3605   -1.6661  -10.3122      0      0      0
   481  1   -7.1903    0.8091   -4.8239      0      0      0
   482  1    6.3741   -7.1603   -2.2507      0      0      0
   483  1    1.9394   -3.2644    3.4114      0      0      0
   484  1   -3.2231    0.8653   -2.8426      0      0      0
   485  1    1.4338   -6.1408    7.7285      0      0      0
   486  1   -1.1761   -1.8014   11.5355      0      0      0