LAMMPS data file. CGCMM style. generated by VMD/TopoTools v1.1 on Thu Jul 22 09:47:25 EDT 2010
 3000 atoms
 2000 bonds
 1000 angles
 0 dihedrals
 0 impropers
 2 atom types
 1 bond types
 1 angle types
 0 dihedral types
 0 improper types
 -15.696654 15.186086  xlo xhi
 -15.890071 14.992669  ylo yhi
 -15.778117 15.104623  zlo zhi

 Masses

 1 1.008000 # HW
 2 15.999400 # OW

 Atoms

1 1 2 -1.048400 14.294249 -14.613168 -13.797630 # OW HOH
2 1 1 0.524200 13.924185 -13.760284 -14.024944 # HW HOH
3 1 1 0.524200 14.932330 -14.789796 -14.488779 # HW HOH
4 2 2 -1.048400 -11.495738 -13.912798 -16.282272 # OW HOH
5 2 1 0.524200 -11.133108 -14.190097 -15.441056 # HW HOH
6 2 1 0.524200 -12.327074 -13.494398 -16.058994 # HW HOH
7 3 2 -1.048400 -9.459412 -14.717711 -14.485059 # OW HOH
8 3 1 0.524200 -8.924688 -15.229071 -15.092193 # HW HOH
9 3 1 0.524200 -8.981157 -13.895619 -14.377975 # HW HOH
10 4 2 -1.048400 -8.013865 14.656504 14.665007 # OW HOH
11 4 1 0.524200 -7.120093 14.404682 14.896933 # HW HOH
12 4 1 0.524200 -7.951543 14.953822 13.757402 # HW HOH
13 5 2 -1.048400 -0.668563 -15.397169 -15.294210 # OW HOH
14 5 1 0.524200 0.236247 -15.615572 -15.071383 # HW HOH
15 5 1 0.524200 -0.599528 -14.608893 -15.832625 # HW HOH
16 6 2 -1.048400 1.973209 -15.506017 -14.870315 # OW HOH
17 6 1 0.524200 2.554571 -15.645325 -15.617743 # HW HOH
18 6 1 0.524200 1.755861 -14.574595 -14.905698 # HW HOH
19 7 2 -1.048400 3.936759 -15.623813 14.118277 # OW HOH
20 7 1 0.524200 4.652972 -15.171798 14.564096 # HW HOH
21 7 1 0.524200 4.306023 -15.885118 13.274834 # HW HOH
22 8 2 -1.048400 6.134643 -14.558022 -15.689445 # OW HOH
23 8 1 0.524200 6.889242 -14.387845 -16.253050 # HW HOH
24 8 1 0.524200 5.878403 -13.695032 -15.364449 # HW HOH
25 9 2 -1.048400 8.540495 -14.032967 14.081171 # OW HOH
26 9 1 0.524200 8.875401 -14.852623 14.444532 # HW HOH
27 9 1 0.524200 8.710446 -13.381688 14.761600 # HW HOH
28 10 2 -1.048400 12.467361 -15.345702 -15.675441 # OW HOH
29 10 1 0.524200 12.970991 -15.156153 -14.883944 # HW HOH
30 10 1 0.524200 12.880582 -14.814301 -16.355804 # HW HOH
31 11 2 -1.048400 -15.620452 -12.451508 14.055096 # OW HOH
32 11 1 0.524200 -14.913129 -12.117122 14.606382 # HW HOH
33 11 1 0.524200 -15.493018 -12.017398 13.211685 # HW HOH
34 12 2 -1.048400 -13.343880 -12.101194 -15.318638 # OW HOH
35 12 1 0.524200 -13.061287 -12.127884 -14.404604 # HW HOH
36 12 1 0.524200 -13.188220 -11.197162 -15.591636 # HW HOH
37 13 2 -1.048400 -8.377365 -12.319281 -14.248966 # OW HOH
38 13 1 0.524200 -7.815727 -12.159323 -13.490674 # HW HOH
39 13 1 0.524200 -8.234739 -11.562398 -14.817137 # HW HOH
40 14 2 -1.048400 -5.246861 -13.803723 -14.913918 # OW HOH
41 14 1 0.524200 -4.444761 -13.328341 -14.697860 # HW HOH
42 14 1 0.524200 -5.918046 -13.406501 -14.359163 # HW HOH
43 15 2 -1.048400 -2.961647 -12.217165 -15.096865 # OW HOH
44 15 1 0.524200 -2.137089 -12.541668 -15.458576 # HW HOH
45 15 1 0.524200 -3.032114 -11.321310 -15.426270 # HW HOH
46 16 2 -1.048400 -0.505568 -12.906115 14.578814 # OW HOH
47 16 1 0.524200 0.365680 -12.770074 14.950901 # HW HOH
48 16 1 0.524200 -0.367055 -12.891516 13.631907 # HW HOH
49 17 2 -1.048400 1.846867 -12.468424 -15.136616 # OW HOH
50 17 1 0.524200 2.453899 -12.641585 -14.417203 # HW HOH
51 17 1 0.524200 2.391410 -12.082031 -15.822333 # HW HOH
52 18 2 -1.048400 6.672174 -11.765664 -15.352179 # OW HOH
53 18 1 0.524200 7.032502 -11.879297 -14.472815 # HW HOH
54 18 1 0.524200 6.961936 -10.893499 -15.619386 # HW HOH
55 19 2 -1.048400 10.866387 -11.716833 -14.670967 # OW HOH
56 19 1 0.524200 10.906061 -11.472738 -15.595566 # HW HOH
57 19 1 0.524200 10.476130 -10.957260 -14.238788 # HW HOH
58 20 2 -1.048400 13.073436 -10.701858 14.289867 # OW HOH
59 20 1 0.524200 13.646300 -11.437127 14.507204 # HW HOH
60 20 1 0.524200 13.034810 -10.182282 15.092726 # HW HOH
61 21 2 -1.048400 -14.517096 -8.677918 -13.523802 # OW HOH
62 21 1 0.524200 -13.970625 -8.892223 -14.279759 # HW HOH
63 21 1 0.524200 -14.557735 -7.721693 -13.520451 # HW HOH
64 22 2 -1.048400 -12.749832 -9.332546 -15.643766 # OW HOH
65 22 1 0.524200 -11.849591 -9.520443 -15.378635 # HW HOH
66 22 1 0.524200 -12.661919 -8.841949 -16.460842 # HW HOH
67 23 2 -1.048400 -10.169188 -8.931078 -14.598747 # OW HOH
68 23 1 0.524200 -9.466807 -9.157295 -15.208269 # HW HOH
69 23 1 0.524200 -9.719893 -8.736885 -13.776279 # HW HOH
70 24 2 -1.048400 -7.921871 -10.243003 -15.679718 # OW HOH
71 24 1 0.524200 -7.294284 -10.643676 -16.281073 # HW HOH
72 24 1 0.524200 -7.382051 -9.743491 -15.067247 # HW HOH
73 25 2 -1.048400 -3.369157 -9.197021 -15.588824 # OW HOH
74 25 1 0.524200 -2.716568 -8.577984 -15.261786 # HW HOH
75 25 1 0.524200 -4.206232 -8.845809 -15.285526 # HW HOH
76 26 2 -1.048400 -0.712328 -7.942471 -14.891848 # OW HOH
77 26 1 0.524200 -0.363629 -7.910416 -14.001110 # HW HOH
78 26 1 0.524200 -0.178885 -7.316250 -15.381048 # HW HOH
79 27 2 -1.048400 4.132738 -11.599212 14.253962 # OW HOH
80 27 1 0.524200 4.954967 -11.701614 14.733009 # HW HOH
81 27 1 0.524200 4.230828 -10.771770 13.783058 # HW HOH
82 28 2 -1.048400 6.698251 -8.603149 -15.254421 # OW HOH
83 28 1 0.524200 7.545825 -9.047725 -15.255864 # HW HOH
84 28 1 0.524200 6.883164 -7.735183 -14.895992 # HW HOH
85 29 2 -1.048400 9.186129 -9.576622 14.935554 # OW HOH
86 29 1 0.524200 9.685933 -8.817337 15.235075 # HW HOH
87 29 1 0.524200 9.238104 -9.536645 13.980707 # HW HOH
88 30 2 -1.048400 13.072156 -8.915910 -14.400955 # OW HOH
89 30 1 0.524200 13.599908 -8.126723 -14.279737 # HW HOH
90 30 1 0.524200 12.717762 -9.103417 -13.531888 # HW HOH
91 31 2 -1.048400 -13.771399 -5.794403 -14.562480 # OW HOH
92 31 1 0.524200 -12.958023 -6.133459 -14.935966 # HW HOH
93 31 1 0.524200 -13.591539 -4.869272 -14.395703 # HW HOH
94 32 2 -1.048400 -11.056334 -6.340975 -15.430958 # OW HOH
95 32 1 0.524200 -10.730575 -7.227007 -15.273295 # HW HOH
96 32 1 0.524200 -10.295618 -5.860024 -15.756584 # HW HOH
97 33 2 -1.048400 -8.827038 -4.968875 -16.005417 # OW HOH
98 33 1 0.524200 -8.374856 -4.437474 -15.350297 # HW HOH
99 33 1 0.524200 -8.911562 -4.392734 -16.764988 # HW HOH
100 34 2 -1.048400 -5.984568 -5.287316 -13.777913 # OW HOH
101 34 1 0.524200 -5.898857 -6.175251 -13.431134 # HW HOH
102 34 1 0.524200 -5.628044 -4.725554 -13.089911 # HW HOH
103 35 2 -1.048400 -3.343975 -6.451467 -14.400057 # OW HOH
104 35 1 0.524200 -2.412831 -6.583721 -14.577571 # HW HOH
105 35 1 0.524200 -3.590620 -5.709882 -14.952547 # HW HOH
106 36 2 -1.048400 -0.855592 -3.989712 -14.174459 # OW HOH
107 36 1 0.524200 -0.940883 -4.594941 -13.437944 # HW HOH
108 36 1 0.524200 -1.188552 -3.156877 -13.840465 # HW HOH
109 37 2 -1.048400 4.562493 -8.842482 14.034388 # OW HOH
110 37 1 0.524200 5.338426 -8.562801 14.519918 # HW HOH
111 37 1 0.524200 3.922288 -8.146894 14.183811 # HW HOH
112 38 2 -1.048400 7.799102 -6.130676 -14.365847 # OW HOH
113 38 1 0.524200 8.523764 -5.667161 -13.946264 # HW HOH
114 38 1 0.524200 7.113607 -5.469392 -14.459819 # HW HOH
115 39 2 -1.048400 10.096676 -5.070467 -13.867765 # OW HOH
116 39 1 0.524200 10.430516 -5.819037 -14.361953 # HW HOH
117 39 1 0.524200 10.663803 -4.342716 -14.122279 # HW HOH
118 40 2 -1.048400 13.619019 -6.224697 -13.570885 # OW HOH
119 40 1 0.524200 14.130593 -5.555224 -13.116871 # HW HOH
120 40 1 0.524200 13.232616 -5.766464 -14.317040 # HW HOH
121 41 2 -1.048400 -15.076696 -2.377779 -14.296536 # OW HOH
122 41 1 0.524200 -14.121930 -2.440995 -14.275222 # HW HOH
123 41 1 0.524200 -15.309943 -2.573492 -15.203907 # HW HOH
124 42 2 -1.048400 -12.247396 -3.155374 -14.476271 # OW HOH
125 42 1 0.524200 -12.003765 -2.781280 -15.322868 # HW HOH
126 42 1 0.524200 -11.417658 -3.252917 -14.009313 # HW HOH
127 43 2 -1.048400 -8.382085 -2.414431 -14.262164 # OW HOH
128 43 1 0.524200 -7.451144 -2.417377 -14.039965 # HW HOH
129 43 1 0.524200 -8.529151 -1.560341 -14.668282 # HW HOH
130 44 2 -1.048400 -3.947458 -2.269080 -14.905405 # OW HOH
131 44 1 0.524200 -3.289997 -1.578516 -14.822361 # HW HOH
132 44 1 0.524200 -4.583724 -1.920801 -15.529827 # HW HOH
133 45 2 -1.048400 -3.190040 -4.383001 14.341776 # OW HOH
134 45 1 0.524200 -3.131707 -3.673927 14.981963 # HW HOH
135 45 1 0.524200 -2.819444 -4.013772 13.540302 # HW HOH
136 46 2 -1.048400 -2.519023 -3.179840 11.808752 # OW HOH
137 46 1 0.524200 -1.581523 -3.085383 11.976688 # HW HOH
138 46 1 0.524200 -2.890619 -2.327685 12.036301 # HW HOH
139 47 2 -1.048400 3.102917 -4.141172 -15.833436 # OW HOH
140 47 1 0.524200 4.046329 -4.293945 -15.781814 # HW HOH
141 47 1 0.524200 2.852675 -3.883412 -14.946318 # HW HOH
142 48 2 -1.048400 5.907129 -4.173364 -15.252830 # OW HOH
143 48 1 0.524200 5.410245 -4.110192 -14.437263 # HW HOH
144 48 1 0.524200 6.362941 -3.334600 -15.321696 # HW HOH
145 49 2 -1.048400 9.541239 -0.991928 -13.492960 # OW HOH
146 49 1 0.524200 10.448347 -0.811391 -13.246804 # HW HOH
147 49 1 0.524200 9.366826 -0.395359 -14.220778 # HW HOH
148 50 2 -1.048400 12.126967 -3.847087 -14.687297 # OW HOH
149 50 1 0.524200 12.934218 -3.818201 -14.173933 # HW HOH
150 50 1 0.524200 12.069311 -2.982003 -15.092684 # HW HOH
151 51 2 -1.048400 -15.675599 -0.779174 13.895599 # OW HOH
152 51 1 0.524200 -14.986838 -0.239080 14.282825 # HW HOH
153 51 1 0.524200 -15.798167 -0.418572 13.017548 # HW HOH
154 52 2 -1.048400 -13.748061 0.754474 -15.929749 # OW HOH
155 52 1 0.524200 -12.964216 1.167958 -16.291199 # HW HOH
156 52 1 0.524200 -13.565947 0.671991 -14.993762 # HW HOH
157 53 2 -1.048400 -9.226982 0.647780 -14.951574 # OW HOH
158 53 1 0.524200 -8.386526 1.011782 -15.229359 # HW HOH
159 53 1 0.524200 -9.878490 1.140399 -15.450471 # HW HOH
160 54 2 -1.048400 -5.926189 -0.127556 -15.861394 # OW HOH
161 54 1 0.524200 -5.894789 0.672820 -16.385269 # HW HOH
162 54 1 0.524200 -5.772979 0.167032 -14.963739 # HW HOH
163 55 2 -1.048400 -2.984404 -1.021778 13.576420 # OW HOH
164 55 1 0.524200 -2.265919 -0.615583 14.060999 # HW HOH
165 55 1 0.524200 -3.225302 -0.372711 12.915577 # HW HOH
166 56 2 -1.048400 -1.009436 0.036612 -15.604255 # OW HOH
167 56 1 0.524200 -0.091294 -0.211004 -15.495932 # HW HOH
168 56 1 0.524200 -1.031908 0.970972 -15.398107 # HW HOH
169 57 2 -1.048400 1.766589 -0.512701 -14.882695 # OW HOH
170 57 1 0.524200 2.595417 -0.506022 -15.361266 # HW HOH
171 57 1 0.524200 1.960620 -0.985305 -14.073358 # HW HOH
172 58 2 -1.048400 8.559658 -2.699081 -15.429849 # OW HOH
173 58 1 0.524200 9.247982 -3.142658 -15.925313 # HW HOH
174 58 1 0.524200 9.030827 -2.149946 -14.803366 # HW HOH
175 59 2 -1.048400 9.417988 0.967532 15.308186 # OW HOH
176 59 1 0.524200 9.910629 0.487478 14.642691 # HW HOH
177 59 1 0.524200 9.315277 1.846366 14.943312 # HW HOH
178 60 2 -1.048400 12.537274 -1.405882 -16.081583 # OW HOH
179 60 1 0.524200 13.456664 -1.211200 -16.262838 # HW HOH
180 60 1 0.524200 12.326201 -0.874308 -15.314174 # HW HOH
181 61 2 -1.048400 -16.077129 2.657701 15.200667 # OW HOH
182 61 1 0.524200 -15.816087 1.825800 14.805916 # HW HOH
183 61 1 0.524200 -15.288387 3.198615 15.164123 # HW HOH
184 62 2 -1.048400 -11.394813 2.323986 14.876917 # OW HOH
185 62 1 0.524200 -10.676158 2.944318 14.998392 # HW HOH
186 62 1 0.524200 -12.184221 2.831494 15.064801 # HW HOH
187 63 2 -1.048400 -9.250329 4.518154 -15.821234 # OW HOH
188 63 1 0.524200 -9.390185 4.658731 -14.884902 # HW HOH
189 63 1 0.524200 -9.818072 5.159910 -16.247671 # HW HOH
190 64 2 -1.048400 -5.475565 2.810747 -14.326355 # OW HOH
191 64 1 0.524200 -4.590163 2.677172 -13.988344 # HW HOH
192 64 1 0.524200 -5.410106 3.598497 -14.865980 # HW HOH
193 65 2 -1.048400 -0.974504 3.683470 13.520264 # OW HOH
194 65 1 0.524200 -0.878206 3.329859 14.404411 # HW HOH
195 65 1 0.524200 -1.558521 4.434531 13.624496 # HW HOH
196 66 2 -1.048400 -0.034350 2.420153 -15.038651 # OW HOH
197 66 1 0.524200 0.900037 2.473050 -14.838269 # HW HOH
198 66 1 0.524200 -0.438109 3.081270 -14.476570 # HW HOH
199 67 2 -1.048400 2.822179 2.260762 -13.647716 # OW HOH
200 67 1 0.524200 3.003728 2.050336 -12.731860 # HW HOH
201 67 1 0.524200 3.262422 3.098018 -13.793384 # HW HOH
202 68 2 -1.048400 6.975161 3.383286 -14.395967 # OW HOH
203 68 1 0.524200 6.476159 3.039265 -15.136695 # HW HOH
204 68 1 0.524200 6.956683 4.332836 -14.514472 # HW HOH
205 69 2 -1.048400 10.036814 3.434041 13.491583 # OW HOH
206 69 1 0.524200 10.773325 3.424683 14.102726 # HW HOH
207 69 1 0.524200 9.743327 4.344992 13.483429 # HW HOH
208 70 2 -1.048400 12.200047 3.403709 15.262303 # OW HOH
209 70 1 0.524200 13.103308 3.095842 15.335573 # HW HOH
210 70 1 0.524200 12.277380 4.352118 15.159489 # HW HOH
211 71 2 -1.048400 -15.618060 7.479362 -16.160191 # OW HOH
212 71 1 0.524200 -15.553507 7.010195 -15.328473 # HW HOH
213 71 1 0.524200 -15.399040 8.385231 -15.942327 # HW HOH
214 72 2 -1.048400 -13.562939 4.201990 -15.624598 # OW HOH
215 72 1 0.524200 -13.542876 4.853608 -16.325327 # HW HOH
216 72 1 0.524200 -13.162641 4.642927 -14.875348 # HW HOH
217 73 2 -1.048400 -10.860062 6.707634 13.903330 # OW HOH
218 73 1 0.524200 -11.667544 6.548690 13.414721 # HW HOH
219 73 1 0.524200 -10.220144 6.954112 13.235659 # HW HOH
220 74 2 -1.048400 -5.677742 4.660052 14.245226 # OW HOH
221 74 1 0.524200 -4.726310 4.756617 14.206696 # HW HOH
222 74 1 0.524200 -5.988584 5.489236 14.608356 # HW HOH
223 75 2 -1.048400 -3.042797 5.529782 14.008112 # OW HOH
224 75 1 0.524200 -3.211283 5.919579 13.150381 # HW HOH
225 75 1 0.524200 -2.922555 6.278241 14.592390 # HW HOH
226 76 2 -1.048400 -0.005093 6.169376 14.967645 # OW HOH
227 76 1 0.524200 0.901785 5.974285 14.731966 # HW HOH
228 76 1 0.524200 -0.006140 7.106445 15.162409 # HW HOH
229 77 2 -1.048400 2.728288 5.891607 -15.993498 # OW HOH
230 77 1 0.524200 2.903723 6.779727 -15.682859 # HW HOH
231 77 1 0.524200 3.186501 5.325350 -15.372667 # HW HOH
232 78 2 -1.048400 6.841159 7.658630 -15.822924 # OW HOH
233 78 1 0.524200 7.288845 7.306756 -15.053638 # HW HOH
234 78 1 0.524200 6.628297 8.560884 -15.584897 # HW HOH
235 79 2 -1.048400 10.306492 7.278554 15.138447 # OW HOH
236 79 1 0.524200 10.135900 7.069931 14.220076 # HW HOH
237 79 1 0.524200 10.188625 8.226678 15.195038 # HW HOH
238 80 2 -1.048400 12.729032 5.984426 15.012159 # OW HOH
239 80 1 0.524200 13.312211 6.733499 14.890409 # HW HOH
240 80 1 0.524200 11.924274 6.362012 15.366879 # HW HOH
241 81 2 -1.048400 -14.751002 9.985110 -14.968426 # OW HOH
242 81 1 0.524200 -13.810418 9.814813 -15.016721 # HW HOH
243 81 1 0.524200 -14.870762 10.807096 -15.443856 # HW HOH
244 82 2 -1.048400 -12.038127 9.219683 15.407894 # OW HOH
245 82 1 0.524200 -11.786275 8.533314 14.790237 # HW HOH
246 82 1 0.524200 -11.921240 10.035339 14.920992 # HW HOH
247 83 2 -1.048400 -8.079680 9.584196 14.105114 # OW HOH
248 83 1 0.524200 -7.428925 8.938546 14.380222 # HW HOH
249 83 1 0.524200 -7.785135 10.404914 14.499699 # HW HOH
250 84 2 -1.048400 -5.713312 7.498952 -15.530313 # OW HOH
251 84 1 0.524200 -4.767455 7.546699 -15.668540 # HW HOH
252 84 1 0.524200 -5.833157 7.729662 -14.609200 # HW HOH
253 85 2 -1.048400 -3.039035 7.985621 -15.510780 # OW HOH
254 85 1 0.524200 -2.608634 8.344732 -16.286554 # HW HOH
255 85 1 0.524200 -2.924765 8.658535 -14.839835 # HW HOH
256 86 2 -1.048400 0.559236 8.789340 -14.889074 # OW HOH
257 86 1 0.524200 1.512178 8.708742 -14.926976 # HW HOH
258 86 1 0.524200 0.399474 9.732260 -14.851519 # HW HOH
259 87 2 -1.048400 3.295142 8.666799 -15.432089 # OW HOH
260 87 1 0.524200 3.658002 8.236292 -14.658120 # HW HOH
261 87 1 0.524200 3.925981 9.355417 -15.641555 # HW HOH
262 88 2 -1.048400 5.361674 10.186703 -15.911911 # OW HOH
263 88 1 0.524200 5.851105 10.508172 -15.154843 # HW HOH
264 88 1 0.524200 6.020442 10.087691 -16.599117 # HW HOH
265 89 2 -1.048400 10.574729 9.908443 15.386456 # OW HOH
266 89 1 0.524200 11.508309 9.752421 15.244629 # HW HOH
267 89 1 0.524200 10.441356 10.819575 15.125534 # HW HOH
268 90 2 -1.048400 13.189363 9.948771 14.799400 # OW HOH
269 90 1 0.524200 13.987662 9.600925 15.196580 # HW HOH
270 90 1 0.524200 13.315638 10.897498 14.798241 # HW HOH
271 91 2 -1.048400 -15.387189 12.129124 14.300318 # OW HOH
272 91 1 0.524200 -14.714362 12.719650 14.638865 # HW HOH
273 91 1 0.524200 -15.007261 11.765872 13.500484 # HW HOH
274 92 2 -1.048400 -12.148730 11.675259 14.332479 # OW HOH
275 92 1 0.524200 -12.096308 12.602934 14.562046 # HW HOH
276 92 1 0.524200 -11.449848 11.546864 13.691301 # HW HOH
277 93 2 -1.048400 -9.234662 12.394507 13.502768 # OW HOH
278 93 1 0.524200 -8.779177 13.188247 13.783024 # HW HOH
279 93 1 0.524200 -9.477710 12.565843 12.593040 # HW HOH
280 94 2 -1.048400 -5.421891 13.495177 -15.490988 # OW HOH
281 94 1 0.524200 -4.917671 14.027524 -16.106129 # HW HOH
282 94 1 0.524200 -5.256374 13.893987 -14.636826 # HW HOH
283 95 2 -1.048400 -2.029234 12.931184 14.989004 # OW HOH
284 95 1 0.524200 -1.280583 12.387187 15.233177 # HW HOH
285 95 1 0.524200 -1.705369 13.829297 15.056345 # HW HOH
286 96 2 -1.048400 0.093174 11.484001 -15.265261 # OW HOH
287 96 1 0.524200 0.560498 11.775373 -16.048044 # HW HOH
288 96 1 0.524200 0.625601 11.801217 -14.535927 # HW HOH
289 97 2 -1.048400 3.138632 11.986628 15.388910 # OW HOH
290 97 1 0.524200 2.908082 12.615479 14.705229 # HW HOH
291 97 1 0.524200 3.968556 11.609151 15.097764 # HW HOH
292 98 2 -1.048400 7.085105 13.566524 -15.808949 # OW HOH
293 98 1 0.524200 7.806406 12.948566 -15.691115 # HW HOH
294 98 1 0.524200 6.904989 13.895821 -14.928515 # HW HOH
295 99 2 -1.048400 9.706704 12.472364 15.196219 # OW HOH
296 99 1 0.524200 9.504595 13.399673 15.319839 # HW HOH
297 99 1 0.524200 9.481361 12.297371 14.282639 # HW HOH
298 100 2 -1.048400 12.676898 12.853982 13.865551 # OW HOH
299 100 1 0.524200 13.626804 12.770158 13.783798 # HW HOH
300 100 1 0.524200 12.551798 13.577923 14.478975 # HW HOH
301 101 2 -1.048400 -13.324905 13.990929 -15.103192 # OW HOH
302 101 1 0.524200 -13.066642 14.099421 -14.188010 # HW HOH
303 101 1 0.524200 -13.855634 14.763710 -15.295982 # HW HOH
304 102 2 -1.048400 -13.079159 14.480261 -12.546468 # OW HOH
305 102 1 0.524200 -12.406734 15.140033 -12.377425 # HW HOH
306 102 1 0.524200 -13.754550 14.652452 -11.890554 # HW HOH
307 103 2 -1.048400 -10.870184 -14.832499 -12.059781 # OW HOH
308 103 1 0.524200 -10.410661 -14.952042 -12.890792 # HW HOH
309 103 1 0.524200 -11.026972 -13.889882 -12.005709 # HW HOH
310 104 2 -1.048400 -4.785004 -15.987796 -13.237850 # OW HOH
311 104 1 0.524200 -3.837510 -15.901260 -13.133935 # HW HOH
312 104 1 0.524200 -5.037598 -15.234778 -13.771894 # HW HOH
313 105 2 -1.048400 -1.960275 -16.037415 -12.910206 # OW HOH
314 105 1 0.524200 -1.844758 -15.279716 -12.336986 # HW HOH
315 105 1 0.524200 -1.450020 -15.826811 -13.692072 # HW HOH
316 106 2 -1.048400 1.441661 14.210060 -10.800797 # OW HOH
317 106 1 0.524200 2.331315 14.488966 -10.584558 # HW HOH
318 106 1 0.524200 1.084637 14.929274 -11.321657 # HW HOH
319 107 2 -1.048400 3.632121 -15.797126 -12.812004 # OW HOH
320 107 1 0.524200 3.104553 -15.786719 -13.610498 # HW HOH
321 107 1 0.524200 3.655574 -14.883445 -12.527968 # HW HOH
322 108 2 -1.048400 6.377481 -15.715565 -12.560519 # OW HOH
323 108 1 0.524200 6.480467 -15.440310 -11.649661 # HW HOH
324 108 1 0.524200 5.431279 -15.791903 -12.682610 # HW HOH
325 109 2 -1.048400 9.888395 -15.856496 -15.230203 # OW HOH
326 109 1 0.524200 10.781197 -15.590459 -15.449662 # HW HOH
327 109 1 0.524200 9.625118 -15.258980 -14.530420 # HW HOH
328 110 2 -1.048400 11.607604 14.483135 -13.023887 # OW HOH
329 110 1 0.524200 11.625313 14.478785 -13.980808 # HW HOH
330 110 1 0.524200 11.221332 15.328342 -12.794874 # HW HOH
331 111 2 -1.048400 13.529720 -12.224553 -14.164984 # OW HOH
332 111 1 0.524200 12.595894 -12.019393 -14.208676 # HW HOH
333 111 1 0.524200 13.881056 -11.608046 -13.522716 # HW HOH
334 112 2 -1.048400 -11.145337 -11.807910 -12.769927 # OW HOH
335 112 1 0.524200 -10.310639 -11.527371 -13.144906 # HW HOH
336 112 1 0.524200 -11.296256 -11.204844 -12.042214 # HW HOH
337 113 2 -1.048400 -11.017506 -9.882165 -9.718220 # OW HOH
338 113 1 0.524200 -10.216829 -9.834357 -9.196048 # HW HOH
339 113 1 0.524200 -11.136347 -8.994976 -10.057048 # HW HOH
340 114 2 -1.048400 -6.229177 -12.103246 -12.540599 # OW HOH
341 114 1 0.524200 -6.186289 -11.918599 -11.602464 # HW HOH
342 114 1 0.524200 -5.899497 -11.307127 -12.957176 # HW HOH
343 115 2 -1.048400 -3.704769 -13.860856 -11.056934 # OW HOH
344 115 1 0.524200 -3.017442 -13.226814 -11.260902 # HW HOH
345 115 1 0.524200 -4.371851 -13.715729 -11.727733 # HW HOH
346 116 2 -1.048400 -2.019536 -11.662022 -12.260726 # OW HOH
347 116 1 0.524200 -2.030449 -10.749479 -11.972319 # HW HOH
348 116 1 0.524200 -1.981792 -11.611420 -13.215735 # HW HOH
349 117 2 -1.048400 3.299765 -13.105412 -12.548429 # OW HOH
350 117 1 0.524200 3.629368 -12.269456 -12.218928 # HW HOH
351 117 1 0.524200 2.404587 -13.158996 -12.214039 # HW HOH
352 118 2 -1.048400 4.377063 -10.929927 -11.364327 # OW HOH
353 118 1 0.524200 4.762797 -11.242226 -10.545969 # HW HOH
354 118 1 0.524200 4.989130 -10.265182 -11.679790 # HW HOH
355 119 2 -1.048400 7.946224 -12.184361 -12.925105 # OW HOH
356 119 1 0.524200 7.359691 -12.281842 -12.175100 # HW HOH
357 119 1 0.524200 8.523787 -11.459778 -12.685470 # HW HOH
358 120 2 -1.048400 10.029319 -14.069150 -13.115808 # OW HOH
359 120 1 0.524200 10.485886 -13.435414 -13.668941 # HW HOH
360 120 1 0.524200 9.275653 -13.589192 -12.772795 # HW HOH
361 121 2 -1.048400 -15.758160 -10.513202 -11.772710 # OW HOH
362 121 1 0.524200 -15.353685 -9.907768 -12.393906 # HW HOH
363 121 1 0.524200 -15.613614 -10.110623 -10.916516 # HW HOH
364 122 2 -1.048400 -11.881693 -8.418927 -11.911826 # OW HOH
365 122 1 0.524200 -11.724895 -7.520569 -12.202331 # HW HOH
366 122 1 0.524200 -12.697750 -8.671682 -12.343331 # HW HOH
367 123 2 -1.048400 -8.963972 -7.714937 -12.604228 # OW HOH
368 123 1 0.524200 -9.382080 -6.870636 -12.772672 # HW HOH
369 123 1 0.524200 -9.246228 -7.950429 -11.720540 # HW HOH
370 124 2 -1.048400 -5.367005 -9.858144 -13.465828 # OW HOH
371 124 1 0.524200 -4.411309 -9.814470 -13.438111 # HW HOH
372 124 1 0.524200 -5.655251 -9.228495 -12.805155 # HW HOH
373 125 2 -1.048400 -2.919010 -8.449303 -11.014120 # OW HOH
374 125 1 0.524200 -2.120404 -7.923316 -10.974141 # HW HOH
375 125 1 0.524200 -3.555195 -7.886494 -11.455193 # HW HOH
376 126 2 -1.048400 0.272421 -8.007339 -12.278785 # OW HOH
377 126 1 0.524200 0.887181 -8.367539 -11.639757 # HW HOH
378 126 1 0.524200 0.082413 -7.125693 -11.958430 # HW HOH
379 127 2 -1.048400 2.798654 -8.676972 -10.904704 # OW HOH
380 127 1 0.524200 3.379694 -9.308230 -11.328895 # HW HOH
381 127 1 0.524200 3.331347 -8.289388 -10.210407 # HW HOH
382 128 2 -1.048400 5.976090 -9.103928 -12.260738 # OW HOH
383 128 1 0.524200 5.881715 -9.205209 -13.207768 # HW HOH
384 128 1 0.524200 6.703809 -8.491109 -12.156284 # HW HOH
385 129 2 -1.048400 9.370629 -9.566339 -12.206796 # OW HOH
386 129 1 0.524200 10.243564 -9.936416 -12.076178 # HW HOH
387 129 1 0.524200 9.403514 -8.714567 -11.771554 # HW HOH
388 130 2 -1.048400 12.494912 -9.747983 -12.023123 # OW HOH
389 130 1 0.524200 13.366611 -10.134474 -11.940679 # HW HOH
390 130 1 0.524200 12.583877 -8.872711 -11.646276 # HW HOH
391 131 2 -1.048400 13.675001 -5.252018 -9.301312 # OW HOH
392 131 1 0.524200 14.491392 -5.349967 -8.811476 # HW HOH
393 131 1 0.524200 13.280275 -4.452918 -8.952512 # HW HOH
394 132 2 -1.048400 -14.838711 -5.160386 -10.952158 # OW HOH
395 132 1 0.524200 -15.134822 -5.403835 -10.075184 # HW HOH
396 132 1 0.524200 -13.982788 -4.755466 -10.812632 # HW HOH
397 133 2 -1.048400 -11.324454 -5.816614 -12.734772 # OW HOH
398 133 1 0.524200 -11.265460 -5.831693 -13.689928 # HW HOH
399 133 1 0.524200 -11.414725 -4.889588 -12.514534 # HW HOH
400 134 2 -1.048400 -6.228790 -7.346453 -11.925314 # OW HOH
401 134 1 0.524200 -6.094662 -6.696606 -11.235575 # HW HOH
402 134 1 0.524200 -7.179790 -7.423617 -12.000652 # HW HOH
403 135 2 -1.048400 -3.537786 -5.633482 -11.720709 # OW HOH
404 135 1 0.524200 -3.426091 -5.868989 -12.641628 # HW HOH
405 135 1 0.524200 -3.269653 -4.715929 -11.673449 # HW HOH
406 136 2 -1.048400 -0.455582 -5.403377 -11.665713 # OW HOH
407 136 1 0.524200 0.489243 -5.255123 -11.628884 # HW HOH
408 136 1 0.524200 -0.748616 -5.310161 -10.759362 # HW HOH
409 137 2 -1.048400 2.447978 -5.645250 -11.658059 # OW HOH
410 137 1 0.524200 2.643892 -5.620884 -10.721548 # HW HOH
411 137 1 0.524200 2.514672 -6.570618 -11.893170 # HW HOH
412 138 2 -1.048400 7.318653 -6.970570 -10.899300 # OW HOH
413 138 1 0.524200 8.268182 -6.852121 -10.919195 # HW HOH
414 138 1 0.524200 6.965021 -6.082391 -10.945273 # HW HOH
415 139 2 -1.048400 10.013534 -6.380216 -11.107901 # OW HOH
416 139 1 0.524200 10.781256 -6.951728 -11.110703 # HW HOH
417 139 1 0.524200 10.132557 -5.814734 -11.870852 # HW HOH
418 140 2 -1.048400 12.596689 -6.976575 -11.087330 # OW HOH
419 140 1 0.524200 13.053119 -6.414291 -10.461599 # HW HOH
420 140 1 0.524200 13.006270 -6.780040 -11.929736 # HW HOH
421 141 2 -1.048400 14.231586 -3.869409 -12.404510 # OW HOH
422 141 1 0.524200 14.839672 -4.225279 -11.756732 # HW HOH
423 141 1 0.524200 14.784086 -3.362105 -12.999000 # HW HOH
424 142 2 -1.048400 -12.749867 -3.563231 -10.456945 # OW HOH
425 142 1 0.524200 -13.188004 -2.822203 -10.875209 # HW HOH
426 142 1 0.524200 -12.466270 -3.225932 -9.607338 # HW HOH
427 143 2 -1.048400 -10.356601 -3.061477 -12.442329 # OW HOH
428 143 1 0.524200 -9.499454 -2.983947 -12.861042 # HW HOH
429 143 1 0.524200 -10.631583 -2.157587 -12.289373 # HW HOH
430 144 2 -1.048400 -6.118255 -2.040772 -12.852695 # OW HOH
431 144 1 0.524200 -5.168486 -2.082614 -12.963234 # HW HOH
432 144 1 0.524200 -6.333173 -1.115750 -12.971769 # HW HOH
433 145 2 -1.048400 -3.520867 -2.775335 -11.950212 # OW HOH
434 145 1 0.524200 -2.936195 -2.317560 -12.554058 # HW HOH
435 145 1 0.524200 -3.575446 -2.200485 -11.186929 # HW HOH
436 146 2 -1.048400 -1.485059 -1.473209 -13.391618 # OW HOH
437 146 1 0.524200 -1.095034 -0.766210 -13.905489 # HW HOH
438 146 1 0.524200 -0.897536 -1.578357 -12.643424 # HW HOH
439 147 2 -1.048400 4.178288 -3.991112 -12.917173 # OW HOH
440 147 1 0.524200 4.772157 -4.157525 -12.185287 # HW HOH
441 147 1 0.524200 3.412868 -4.535633 -12.733705 # HW HOH
442 148 2 -1.048400 5.888183 -4.077309 -10.767448 # OW HOH
443 148 1 0.524200 6.689067 -3.659010 -11.083108 # HW HOH
444 148 1 0.524200 5.957008 -4.038351 -9.813626 # HW HOH
445 149 2 -1.048400 8.213378 -3.272231 -11.700261 # OW HOH
446 149 1 0.524200 9.038925 -3.405881 -11.234815 # HW HOH
447 149 1 0.524200 8.470390 -2.893354 -12.540754 # HW HOH
448 150 2 -1.048400 12.387699 -2.199487 -11.317153 # OW HOH
449 150 1 0.524200 12.906375 -2.785430 -11.868224 # HW HOH
450 150 1 0.524200 12.807543 -2.243722 -10.458197 # HW HOH
451 151 2 -1.048400 14.694012 -0.279257 -12.793453 # OW HOH
452 151 1 0.524200 15.359836 -0.884750 -13.119165 # HW HOH
453 151 1 0.524200 15.048638 0.590046 -12.979424 # HW HOH
454 152 2 -1.048400 -13.317174 0.693360 -13.191757 # OW HOH
455 152 1 0.524200 -12.488350 0.534225 -12.740360 # HW HOH
456 152 1 0.524200 -13.550005 1.591386 -12.956447 # HW HOH
457 153 2 -1.048400 -10.339531 -0.030267 -12.181932 # OW HOH
458 153 1 0.524200 -9.992545 0.031701 -13.071759 # HW HOH
459 153 1 0.524200 -9.663499 0.366276 -11.632600 # HW HOH
460 154 2 -1.048400 -6.814088 0.563873 -13.254597 # OW HOH
461 154 1 0.524200 -6.032708 0.892097 -12.809911 # HW HOH
462 154 1 0.524200 -7.504196 1.182162 -13.014799 # HW HOH
463 155 2 -1.048400 -4.243636 0.572687 -11.898054 # OW HOH
464 155 1 0.524200 -3.765414 0.676663 -11.075543 # HW HOH
465 155 1 0.524200 -3.730672 1.066136 -12.537904 # HW HOH
466 156 2 -1.048400 0.340503 -1.077289 -11.363920 # OW HOH
467 156 1 0.524200 1.064008 -1.662695 -11.587235 # HW HOH
468 156 1 0.524200 0.486468 -0.299321 -11.901958 # HW HOH
469 157 2 -1.048400 2.925975 -1.694930 -12.203240 # OW HOH
470 157 1 0.524200 3.407403 -2.412746 -12.614337 # HW HOH
471 157 1 0.524200 3.532995 -1.339585 -11.554173 # HW HOH
472 158 2 -1.048400 5.300294 -0.690686 -11.041263 # OW HOH
473 158 1 0.524200 6.070377 -0.652855 -11.608336 # HW HOH
474 158 1 0.524200 5.654483 -0.654418 -10.152858 # HW HOH
475 159 2 -1.048400 8.108774 0.363913 -11.488707 # OW HOH
476 159 1 0.524200 8.788112 0.138293 -12.124023 # HW HOH
477 159 1 0.524200 8.074931 1.320302 -11.503040 # HW HOH
478 160 2 -1.048400 12.097345 0.085555 -13.705069 # OW HOH
479 160 1 0.524200 12.948921 -0.022056 -13.281665 # HW HOH
480 160 1 0.524200 11.976314 1.033183 -13.763222 # HW HOH
481 161 2 -1.048400 15.160995 2.559760 -12.367516 # OW HOH
482 161 1 0.524200 15.358274 2.804743 -11.463582 # HW HOH
483 161 1 0.524200 14.633615 3.284602 -12.702937 # HW HOH
484 162 2 -1.048400 -12.607514 3.672233 -12.251074 # OW HOH
485 162 1 0.524200 -11.986588 3.953230 -12.923027 # HW HOH
486 162 1 0.524200 -12.851687 4.478925 -11.797577 # HW HOH
487 163 2 -1.048400 -10.120691 4.742486 -13.265024 # OW HOH
488 163 1 0.524200 -9.780333 3.973854 -12.807429 # HW HOH
489 163 1 0.524200 -10.289936 5.379493 -12.571045 # HW HOH
490 164 2 -1.048400 -7.627762 2.873101 -12.351272 # OW HOH
491 164 1 0.524200 -7.023230 3.053594 -13.070991 # HW HOH
492 164 1 0.524200 -7.351272 3.464705 -11.651565 # HW HOH
493 165 2 -1.048400 -2.871198 2.360198 -13.406116 # OW HOH
494 165 1 0.524200 -2.107670 2.124865 -12.879167 # HW HOH
495 165 1 0.524200 -2.801197 3.307895 -13.520145 # HW HOH
496 166 2 -1.048400 -0.114845 1.527525 -12.392070 # OW HOH
497 166 1 0.524200 0.344645 2.092415 -11.770942 # HW HOH
498 166 1 0.524200 0.331700 1.674428 -13.225765 # HW HOH
499 167 2 -1.048400 4.176281 4.612002 -13.847073 # OW HOH
500 167 1 0.524200 5.050607 4.318664 -13.591066 # HW HOH
501 167 1 0.524200 4.126029 5.515994 -13.536742 # HW HOH
502 168 2 -1.048400 5.413865 2.039814 -9.746575 # OW HOH
503 168 1 0.524200 6.176991 2.036794 -10.324207 # HW HOH
504 168 1 0.524200 5.201046 2.966251 -9.634982 # HW HOH
505 169 2 -1.048400 8.403842 3.050080 -12.097622 # OW HOH
506 169 1 0.524200 9.295525 3.125121 -12.437181 # HW HOH
507 169 1 0.524200 7.847813 3.073145 -12.876293 # HW HOH
508 170 2 -1.048400 11.069653 3.459506 -13.006447 # OW HOH
509 170 1 0.524200 11.463990 3.411278 -13.877194 # HW HOH