LAMMPS (17 Aug 2017)
Running on 8 partitions of processors
Step T0 T1 T2 T3 T4 T5 T6 T7
500 0 1 2 3 4 5 6 7
600 0 1 2 3 5 4 7 6
700 0 2 1 4 6 3 7 5
800 0 2 1 4 6 3 7 5
900 0 2 1 3 6 4 7 5
1000 0 2 1 3 7 4 6 5
1100 0 1 2 3 7 4 6 5
1200 0 1 2 3 7 4 6 5
1300 0 1 2 4 7 3 5 6
1400 0 1 2 4 7 3 5 6
1500 0 2 1 4 7 3 5 6
1600 1 3 0 4 6 2 5 7
1700 1 3 0 4 5 2 6 7
1800 0 3 1 4 5 2 6 7
1900 0 3 2 4 5 1 6 7
2000 1 2 3 5 4 0 6 7
2100 2 1 3 5 4 0 6 7
2200 2 1 3 4 5 0 7 6
2300 1 2 4 3 5 0 7 6
2400 1 2 4 3 5 0 6 7
2500 2 1 3 4 5 0 6 7
