LAMMPS (3 Nov 2022)
OMP_NUM_THREADS environment is not set. Defaulting to 1 thread. (src/comm.cpp:98)
  using 1 OpenMP thread(s) per MPI task
# Si hcp

units           metal
boundary        p p p

atom_style      atomic
#lattice                custom 2.93093 a1 0.5 -0.866025 0 a2 0.5 0.866025 0 a3 0 0 1.596 basis 0.333333 0.666666 0.25 basis 0.666666 0.333333 0.75
lattice         custom 2.93093 a1 0.5 -0.866025 0 a2 0.5 0.866025 0 a3 0 0 1.7 basis 0.333333 0.666666 0.25 basis 0.666666 0.333333 0.75
Lattice spacing in x,y,z = 2.93093 5.0765173 4.982581
region          box block 0 1 0 1 0 1
create_box              1 box
Created orthogonal box = (0 0 0) to (2.93093 5.0765173 4.982581)
  1 by 1 by 1 MPI processor grid
create_atoms    1 box
Created 4 atoms
  using lattice units in orthogonal box = (0 0 0) to (2.93093 5.0765173 4.982581)
  create_atoms CPU = 0.000 seconds

pair_style      meam/sw/spline
pair_coeff      * * Si.b.meam.sw.spline Si
Reading meam/sw/spline potential file Si.b.meam.sw.spline with DATE: 2012-10-26
mass            * 28.085

fix                     relax all box/relax aniso 0
thermo          1
minimize        0 0 10000 100000
Neighbor list info ...
  update: every = 1 steps, delay = 0 steps, check = yes
  max neighbors/atom: 2000, page size: 100000
  master list distance cutoff = 6.4
  ghost atom cutoff = 6.4
  binsize = 3.2, bins = 1 2 2
  2 neighbor lists, perpetual/occasional/extra = 2 0 0
  (1) pair meam/sw/spline, perpetual
      attributes: full, newton on
      pair build: full/bin/atomonly
      stencil: full/bin/3d
      bin: standard
  (2) pair meam/sw/spline, perpetual, half/full from (1)
      attributes: half, newton on
      pair build: halffull/newton
      stencil: none
      bin: none
Per MPI rank memory allocation (min/avg/max) = 4.849 | 4.849 | 4.849 Mbytes
   Step          Temp          E_pair         E_mol          TotEng         Press          Volume    
         0   0             -16.762227      0             -16.762227     -314547.95      74.135408    
         1   0             -16.765928      0             -16.765928     -313024.59      74.116882    
         2   0             -16.769609      0             -16.769609     -311500.27      74.098373    
         3   0             -16.773269      0             -16.773269     -309975.01      74.079883    
         4   0             -16.776908      0             -16.776908     -308448.82      74.061411    
         5   0             -16.780526      0             -16.780526     -306921.71      74.042957    
         6   0             -16.784123      0             -16.784123     -305393.7       74.024521    
         7   0             -16.787699      0             -16.787699     -303864.8       74.006104    
         8   0             -16.791255      0             -16.791255     -302335.03      73.987706    
         9   0             -16.79479       0             -16.79479      -300804.41      73.969326    
        10   0             -16.798304      0             -16.798304     -299272.94      73.950965    
        11   0             -16.801797      0             -16.801797     -297740.64      73.932623    
        12   0             -16.80527       0             -16.80527      -296207.52      73.9143      
        13   0             -16.808721      0             -16.808721     -294673.61      73.895996    
        14   0             -16.812152      0             -16.812152     -293138.91      73.877711    
        15   0             -16.815562      0             -16.815562     -291603.45      73.859446    
        16   0             -16.818952      0             -16.818952     -290067.23      73.8412      
        17   0             -16.822321      0             -16.822321     -288530.28      73.822974    
        18   0             -16.825669      0             -16.825669     -286992.6       73.804767    
        19   0             -16.828996      0             -16.828996     -285454.22      73.786581    
        20   0             -16.832302      0             -16.832302     -283915.16      73.768414    
        21   0             -16.835588      0             -16.835588     -282375.42      73.750267    
        22   0             -16.838853      0             -16.838853     -280835.03      73.732141    
        23   0             -16.842098      0             -16.842098     -279294         73.714034    
        24   0             -16.845322      0             -16.845322     -277752.35      73.695949    
        25   0             -16.848525      0             -16.848525     -276210.1       73.677884    
        26   0             -16.851708      0             -16.851708     -274667.26      73.659839    
        27   0             -16.854869      0             -16.854869     -273123.86      73.641815    
        28   0             -16.858011      0             -16.858011     -271579.9       73.623813    
        29   0             -16.861132      0             -16.861132     -270035.42      73.605831    
        30   0             -16.864232      0             -16.864232     -268490.42      73.587871    
        31   0             -16.867311      0             -16.867311     -266944.93      73.569932    
        32   0             -16.87037       0             -16.87037      -265398.97      73.552014    
        33   0             -16.873409      0             -16.873409     -263852.55      73.534118    
        34   0             -16.876427      0             -16.876427     -262305.69      73.516244    
        35   0             -16.879424      0             -16.879424     -260758.42      73.498392    
        36   0             -16.882401      0             -16.882401     -259210.75      73.480562    
        37   0             -16.885358      0             -16.885358     -257662.7       73.462754    
        38   0             -16.888294      0             -16.888294     -256114.3       73.444969    
        39   0             -16.891209      0             -16.891209     -254565.56      73.427206    
        40   0             -16.894105      0             -16.894105     -253016.51      73.409466    
        41   0             -16.896979      0             -16.896979     -251467.17      73.391749    
        42   0             -16.899834      0             -16.899834     -249917.56      73.374055    
        43   0             -16.902668      0             -16.902668     -248367.69      73.356384    
        44   0             -16.905481      0             -16.905481     -246817.6       73.338736    
        45   0             -16.908275      0             -16.908275     -245267.3       73.321112    
        46   0             -16.911048      0             -16.911048     -243716.82      73.303511    
        47   0             -16.9138        0             -16.9138       -242166.18      73.285935    
        48   0             -16.916533      0             -16.916533     -240615.4       73.268382    
        49   0             -16.919245      0             -16.919245     -239064.51      73.250854    
        50   0             -16.921937      0             -16.921937     -237513.53      73.23335     
        51   0             -16.924609      0             -16.924609     -235962.49      73.215871    
        52   0             -16.92726       0             -16.92726      -234411.41      73.198416    
        53   0             -16.929892      0             -16.929892     -232860.31      73.180987    
        54   0             -16.932503      0             -16.932503     -231309.21      73.163582    
        55   0             -16.935094      0             -16.935094     -229758.16      73.146203    
        56   0             -16.937665      0             -16.937665     -228207.16      73.12885     
        57   0             -16.940216      0             -16.940216     -226656.25      73.111522    
        58   0             -16.942747      0             -16.942747     -225105.46      73.09422     
        59   0             -16.945258      0             -16.945258     -223554.8       73.076944    
        60   0             -16.947749      0             -16.947749     -222004.31      73.059695    
        61   0             -16.95022       0             -16.95022      -220454.02      73.042472    
        62   0             -16.952671      0             -16.952671     -218903.95      73.025276    
        63   0             -16.955102      0             -16.955102     -217354.13      73.008107    
        64   0             -16.957513      0             -16.957513     -215804.59      72.990965    
        65   0             -16.959904      0             -16.959904     -214255.36      72.973851    
        66   0             -16.962276      0             -16.962276     -212706.47      72.956764    
        67   0             -16.964628      0             -16.964628     -211157.95      72.939705    
        68   0             -16.96696       0             -16.96696      -209609.83      72.922675    
        69   0             -16.969272      0             -16.969272     -208062.14      72.905673    
        70   0             -16.971564      0             -16.971564     -206514.91      72.888699    
        71   0             -16.973837      0             -16.973837     -204968.17      72.871754    
        72   0             -16.97609       0             -16.97609      -203421.96      72.854838    
        73   0             -16.978324      0             -16.978324     -201876.3       72.837952    
        74   0             -16.980538      0             -16.980538     -200331.24      72.821095    
        75   0             -16.982733      0             -16.982733     -198786.8       72.804269    
        76   0             -16.984908      0             -16.984908     -197243.02      72.787472    
        77   0             -16.987063      0             -16.987063     -195699.94      72.770706    
        78   0             -16.989199      0             -16.989199     -194157.58      72.75397     
        79   0             -16.991316      0             -16.991316     -192615.99      72.737265    
        80   0             -16.993413      0             -16.993413     -191075.19      72.720592    
        81   0             -16.995491      0             -16.995491     -189535.24      72.70395     
        82   0             -16.99755       0             -16.99755      -187996.16      72.68734     
        83   0             -16.99959       0             -16.99959      -186457.99      72.670762    
        84   0             -17.00161       0             -17.00161      -184920.77      72.654217    
        85   0             -17.003611      0             -17.003611     -183384.54      72.637704    
        86   0             -17.005593      0             -17.005593     -181849.34      72.621225    
        87   0             -17.007556      0             -17.007556     -180315.2       72.604778    
        88   0             -17.0095        0             -17.0095       -178782.18      72.588365    
        89   0             -17.011425      0             -17.011425     -177250.31      72.571987    
        90   0             -17.013331      0             -17.013331     -175719.63      72.555642    
        91   0             -17.015218      0             -17.015218     -174190.18      72.539333    
        92   0             -17.017086      0             -17.017086     -172662.02      72.523058    
        93   0             -17.018936      0             -17.018936     -171135.18      72.506819    
        94   0             -17.020766      0             -17.020766     -169609.7       72.490615    
        95   0             -17.022578      0             -17.022578     -168085.64      72.474447    
        96   0             -17.024372      0             -17.024372     -166563.03      72.458316    
        97   0             -17.026147      0             -17.026147     -165041.93      72.442222    
        98   0             -17.027903      0             -17.027903     -163522.38      72.426164    
        99   0             -17.02964       0             -17.02964      -162004.43      72.410145    
       100   0             -17.03136       0             -17.03136      -160488.14      72.394163    
       101   0             -17.03306       0             -17.03306      -158973.54      72.378219    
       102   0             -17.034743      0             -17.034743     -157460.69      72.362315    
       103   0             -17.036407      0             -17.036407     -155949.64      72.346449    
       104   0             -17.038053      0             -17.038053     -154440.45      72.330623    
       105   0             -17.039681      0             -17.039681     -152933.16      72.314837    
       106   0             -17.041291      0             -17.041291     -151427.83      72.299091    
       107   0             -17.042882      0             -17.042882     -149924.52      72.283386    
       108   0             -17.044456      0             -17.044456     -148423.27      72.267723    
       109   0             -17.046012      0             -17.046012     -146924.15      72.252101    
       110   0             -17.047549      0             -17.047549     -145427.22      72.236521    
       111   0             -17.049069      0             -17.049069     -143932.55      72.220984    
       112   0             -17.050572      0             -17.050572     -142440.22      72.205491    
       113   0             -17.052056      0             -17.052056     -140950.3       72.19004     
       114   0             -17.053523      0             -17.053523     -139462.86      72.174634    
       115   0             -17.054973      0             -17.054973     -137977.94      72.159273    
       116   0             -17.056405      0             -17.056405     -136495.62      72.143956    
       117   0             -17.05782       0             -17.05782      -135015.97      72.128686    
       118   0             -17.059217      0             -17.059217     -133539.04      72.113461    
       119   0             -17.060597      0             -17.060597     -132064.9       72.098283    
       120   0             -17.06196       0             -17.06196      -130593.62      72.083152    
       121   0             -17.063306      0             -17.063306     -129125.27      72.06807     
       122   0             -17.064634      0             -17.064634     -127659.91      72.053035    
       123   0             -17.065946      0             -17.065946     -126197.63      72.038049    
       124   0             -17.067241      0             -17.067241     -124738.49      72.023113    
       125   0             -17.068519      0             -17.068519     -123282.56      72.008227    
       126   0             -17.069781      0             -17.069781     -121829.92      71.993392    
       127   0             -17.071026      0             -17.071026     -120380.64      71.978608    
       128   0             -17.072254      0             -17.072254     -118934.81      71.963876    
       129   0             -17.073466      0             -17.073466     -117492.5       71.949197    
       130   0             -17.074661      0             -17.074661     -116053.78      71.934571    
       131   0             -17.075841      0             -17.075841     -114618.75      71.919999    
       132   0             -17.077004      0             -17.077004     -113187.47      71.905481    
       133   0             -17.078151      0             -17.078151     -111760.05      71.891019    
       134   0             -17.079282      0             -17.079282     -110336.55      71.876612    
       135   0             -17.080397      0             -17.080397     -108917.07      71.862262    
       136   0             -17.081496      0             -17.081496     -107501.7       71.84797     
       137   0             -17.08258       0             -17.08258      -106090.52      71.833735    
       138   0             -17.083647      0             -17.083647     -104683.62      71.81956     
       139   0             -17.0847        0             -17.0847       -103281.1       71.805444    
       140   0             -17.085737      0             -17.085737     -101883.05      71.791388    
       141   0             -17.086759      0             -17.086759     -100489.56      71.777393    
       142   0             -17.087765      0             -17.087765     -99100.741      71.763461    
       143   0             -17.088757      0             -17.088757     -97716.679      71.749591    
       144   0             -17.089733      0             -17.089733     -96337.477      71.735784    
       145   0             -17.090695      0             -17.090695     -94963.236      71.722042    
       146   0             -17.091642      0             -17.091642     -93594.06       71.708365    
       147   0             -17.092574      0             -17.092574     -92230.053      71.694754    
       148   0             -17.093491      0             -17.093491     -90871.322      71.68121     
       149   0             -17.094395      0             -17.094395     -89517.976      71.667734    
       150   0             -17.095284      0             -17.095284     -88170.122      71.654327    
       151   0             -17.096159      0             -17.096159     -86827.875      71.640989    
       152   0             -17.097019      0             -17.097019     -85491.345      71.627722    
       153   0             -17.097866      0             -17.097866     -84160.649      71.614526    
       154   0             -17.098699      0             -17.098699     -82835.907      71.601403    
       155   0             -17.099519      0             -17.099519     -81517.242      71.588353    
       156   0             -17.100325      0             -17.100325     -80204.773      71.575377    
       157   0             -17.101117      0             -17.101117     -78898.623      71.562477    
       158   0             -17.101896      0             -17.101896     -77598.914      71.549654    
       159   0             -17.102662      0             -17.102662     -76305.772      71.536908    
       160   0             -17.103415      0             -17.103415     -75019.324      71.52424     
       161   0             -17.104156      0             -17.104156     -73739.699      71.511652    
       162   0             -17.104883      0             -17.104883     -72467.027      71.499145    
       163   0             -17.105598      0             -17.105598     -71201.441      71.486719    
       164   0             -17.106301      0             -17.106301     -69943.075      71.474376    
       165   0             -17.106991      0             -17.106991     -68692.064      71.462118    
       166   0             -17.107669      0             -17.107669     -67448.547      71.449944    
       167   0             -17.108335      0             -17.108335     -66212.663      71.437856    
       168   0             -17.10899       0             -17.10899      -64984.552      71.425856    
       169   0             -17.109632      0             -17.109632     -63764.359      71.413945    
       170   0             -17.110264      0             -17.110264     -62552.227      71.402124    
       171   0             -17.110884      0             -17.110884     -61348.302      71.390393    
       172   0             -17.111492      0             -17.111492     -60152.733      71.378755    
       173   0             -17.11209       0             -17.11209      -58965.668      71.36721     
       174   0             -17.112677      0             -17.112677     -57787.258      71.355759    
       175   0             -17.113253      0             -17.113253     -56617.656      71.344405    
       176   0             -17.113818      0             -17.113818     -55457.015      71.333148    
       177   0             -17.114373      0             -17.114373     -54305.49       71.32199     
       178   0             -17.114919      0             -17.114919     -53163.237      71.310931    
       179   0             -17.115454      0             -17.115454     -52030.414      71.299973    
       180   0             -17.115979      0             -17.115979     -50907.179      71.289118    
       181   0             -17.116494      0             -17.116494     -49793.691      71.278366    
       182   0             -17.117         0             -17.117        -48690.111      71.267719    
       183   0             -17.117497      0             -17.117497     -47596.599      71.257179    
       184   0             -17.117985      0             -17.117985     -46513.318      71.246746    
       185   0             -17.118463      0             -17.118463     -45440.429      71.236423    
       186   0             -17.118933      0             -17.118933     -44378.096      71.226209    
       187   0             -17.119395      0             -17.119395     -43326.48       71.216108    
       188   0             -17.119848      0             -17.119848     -42285.745      71.206119    
       189   0             -17.120292      0             -17.120292     -41256.053      71.196244    
       190   0             -17.120729      0             -17.120729     -40237.567      71.186485    
       191   0             -17.121158      0             -17.121158     -39230.448      71.176843    
       192   0             -17.121579      0             -17.121579     -38234.858      71.16732     
       193   0             -17.121993      0             -17.121993     -37250.957      71.157916    
       194   0             -17.1224        0             -17.1224       -36278.905      71.148632    
       195   0             -17.122799      0             -17.122799     -35318.858      71.139471    
       196   0             -17.123192      0             -17.123192     -34370.973      71.130433    
       197   0             -17.123578      0             -17.123578     -33435.405      71.12152     
       198   0             -17.123957      0             -17.123957     -32512.305      71.112733    
       199   0             -17.12433       0             -17.12433      -31601.822      71.104072    
       200   0             -17.124697      0             -17.124697     -30704.104      71.09554     
       201   0             -17.125058      0             -17.125058     -29819.294      71.087137    
       202   0             -17.125414      0             -17.125414     -28947.532      71.078864    
       203   0             -17.125763      0             -17.125763     -28088.955      71.070723    
       204   0             -17.126108      0             -17.126108     -27243.695      71.062715    
       205   0             -17.126447      0             -17.126447     -26411.881      71.05484     
       206   0             -17.126781      0             -17.126781     -25593.635      71.047099    
       207   0             -17.12711       0             -17.12711      -24789.075      71.039494    
       208   0             -17.127435      0             -17.127435     -23998.314      71.032024    
       209   0             -17.127755      0             -17.127755     -23221.458      71.024692    
       210   0             -17.128071      0             -17.128071     -22458.608      71.017498    
       211   0             -17.128383      0             -17.128383     -21709.856      71.010442    
       212   0             -17.128691      0             -17.128691     -20975.29       71.003524    
       213   0             -17.128995      0             -17.128995     -20254.989      70.996747    
       214   0             -17.129296      0             -17.129296     -19549.023      70.990109    
       215   0             -17.129593      0             -17.129593     -18857.455      70.983612    
       216   0             -17.129886      0             -17.129886     -18180.34       70.977255    
       217   0             -17.130177      0             -17.130177     -17517.723      70.971039    
       218   0             -17.130465      0             -17.130465     -16869.64       70.964964    
       219   0             -17.130749      0             -17.130749     -16236.118      70.95903     
       220   0             -17.131031      0             -17.131031     -15617.173      70.953238    
       221   0             -17.131311      0             -17.131311     -15012.812      70.947586    
       222   0             -17.131588      0             -17.131588     -14423.029      70.942074    
       223   0             -17.131862      0             -17.131862     -13847.812      70.936704    
       224   0             -17.132135      0             -17.132135     -13287.132      70.931473    
       225   0             -17.132405      0             -17.132405     -12740.954      70.926381    
       226   0             -17.132673      0             -17.132673     -12209.229      70.921428    
       227   0             -17.13294       0             -17.13294      -11691.898      70.916614    
       228   0             -17.133205      0             -17.133205     -11188.888      70.911936    
       229   0             -17.133468      0             -17.133468     -10700.117      70.907395    
       230   0             -17.133729      0             -17.133729     -10225.491      70.902989    
       231   0             -17.133989      0             -17.133989     -9764.9031      70.898717    
       232   0             -17.134248      0             -17.134248     -9318.2364      70.894578    
       233   0             -17.134505      0             -17.134505     -8885.3617      70.89057     
       234   0             -17.134761      0             -17.134761     -8466.139       70.886692    
       235   0             -17.135016      0             -17.135016     -8060.4164      70.882943    
       236   0             -17.13527       0             -17.13527      -7668.0272      70.879321    
       237   0             -17.135522      0             -17.135522     -7288.7985      70.875823    
       238   0             -17.135774      0             -17.135774     -6922.5481      70.872449    
       239   0             -17.136024      0             -17.136024     -6569.0841      70.869196    
       240   0             -17.136274      0             -17.136274     -6228.205       70.866063    
       241   0             -17.136522      0             -17.136522     -5899.7007      70.863046    
       242   0             -17.13677       0             -17.13677      -5583.3523      70.860145    
       243   0             -17.137017      0             -17.137017     -5278.9333      70.857357    
       244   0             -17.137263      0             -17.137263     -4986.2096      70.854679    
       245   0             -17.137508      0             -17.137508     -4704.9402      70.852109    
       246   0             -17.137752      0             -17.137752     -4434.878       70.849645    
       247   0             -17.137996      0             -17.137996     -4175.7701      70.847284    
       248   0             -17.138238      0             -17.138238     -3927.3587      70.845025    
       249   0             -17.13848       0             -17.13848      -3689.3815      70.842863    
       250   0             -17.138721      0             -17.138721     -3461.5723      70.840797    
       251   0             -17.138961      0             -17.138961     -3243.6619      70.838825    
       252   0             -17.1392        0             -17.1392       -3035.3787      70.836943    
       253   0             -17.139439      0             -17.139439     -2836.4488      70.835149    
       254   0             -17.139676      0             -17.139676     -2646.5974      70.83344     
       255   0             -17.139913      0             -17.139913     -2465.549       70.831814    
       256   0             -17.140149      0             -17.140149     -2293.028       70.830267    
       257   0             -17.140384      0             -17.140384     -2128.7592      70.828798    
       258   0             -17.140618      0             -17.140618     -1972.4687      70.827404    
       259   0             -17.140851      0             -17.140851     -1823.8842      70.826082    
       260   0             -17.141083      0             -17.141083     -1682.7354      70.82483     
       261   0             -17.141314      0             -17.141314     -1548.7547      70.823645    
       262   0             -17.141544      0             -17.141544     -1421.6776      70.822524    
       263   0             -17.141773      0             -17.141773     -1301.2365      70.821465    
       264   0             -17.142001      0             -17.142001     -1187.1716      70.820466    
       265   0             -17.142228      0             -17.142228     -1079.2304      70.819524    
       266   0             -17.142454      0             -17.142454     -977.16509      70.818637    
       267   0             -17.142679      0             -17.142679     -880.73295      70.817803    
       268   0             -17.142902      0             -17.142902     -789.69636      70.817019    
       269   0             -17.143125      0             -17.143125     -703.82318      70.816283    
       270   0             -17.143346      0             -17.143346     -622.88698      70.815593    
       271   0             -17.143566      0             -17.143566     -546.66716      70.814947    
       272   0             -17.143785      0             -17.143785     -474.94913      70.814343    
       273   0             -17.144002      0             -17.144002     -407.52447      70.813778    
       274   0             -17.144218      0             -17.144218     -344.19096      70.813252    
       275   0             -17.144433      0             -17.144433     -284.7527       70.812762    
       276   0             -17.144647      0             -17.144647     -229.02015      70.812307    
       277   0             -17.144859      0             -17.144859     -176.81012      70.811884    
       278   0             -17.145069      0             -17.145069     -127.94584      70.811492    
       279   0             -17.145279      0             -17.145279     -82.256888      70.811129    
       280   0             -17.145487      0             -17.145487     -39.579162      70.810794    
       281   0             -17.145694      0             -17.145694      0.24515471     70.810486    
       282   0             -17.145899      0             -17.145899      37.367672      70.810203    
       283   0             -17.146102      0             -17.146102      71.933878      70.809943    
       284   0             -17.146305      0             -17.146305      104.08323      70.809705    
       285   0             -17.146505      0             -17.146505      133.94927      70.809489    
       286   0             -17.146705      0             -17.146705      161.65974      70.809292    
       287   0             -17.146902      0             -17.146902      187.33668      70.809114    
       288   0             -17.147099      0             -17.147099      211.09662      70.808953    
       289   0             -17.147293      0             -17.147293      233.05068      70.808809    
       290   0             -17.147487      0             -17.147487      253.30472      70.808681    
       291   0             -17.147678      0             -17.147678      271.9595       70.808567    
       292   0             -17.147868      0             -17.147868      289.11082      70.808466    
       293   0             -17.148057      0             -17.148057      304.84971      70.808379    
       294   0             -17.148244      0             -17.148244      319.26255      70.808303    
       295   0             -17.148429      0             -17.148429      332.43126      70.808239    
       296   0             -17.148613      0             -17.148613      344.43344      70.808185    
       297   0             -17.148795      0             -17.148795      355.34254      70.808141    
       298   0             -17.148976      0             -17.148976      365.22801      70.808106    
       299   0             -17.149155      0             -17.149155      374.15548      70.80808     
       300   0             -17.149332      0             -17.149332      382.1869       70.808061    
       301   0             -17.149508      0             -17.149508      389.3807       70.80805     
       302   0             -17.149682      0             -17.149682      395.79191      70.808046    
       303   0             -17.149854      0             -17.149854      401.47239      70.808049    
       304   0             -17.150025      0             -17.150025      406.47087      70.808057    
       305   0             -17.150194      0             -17.150194      410.83317      70.808071    
       306   0             -17.150362      0             -17.150362      414.60233      70.80809     
       307   0             -17.150528      0             -17.150528      417.81869      70.808113    
       308   0             -17.150692      0             -17.150692      420.52008      70.808141    
       309   0             -17.150855      0             -17.150855      422.74195      70.808173    
       310   0             -17.151016      0             -17.151016      424.51742      70.808209    
       311   0             -17.151176      0             -17.151176      425.87749      70.808248    
       312   0             -17.151334      0             -17.151334      426.85111      70.808291    
       313   0             -17.15149       0             -17.15149       427.46526      70.808336    
       314   0             -17.151644      0             -17.151644      427.74513      70.808384    
       315   0             -17.151797      0             -17.151797      427.71416      70.808434    
       316   0             -17.151948      0             -17.151948      427.39417      70.808487    
       317   0             -17.152098      0             -17.152098      426.80544      70.808542    
       318   0             -17.152246      0             -17.152246      425.96681      70.808598    
       319   0             -17.152392      0             -17.152392      424.89577      70.808657    
       320   0             -17.152537      0             -17.152537      423.6085       70.808716    
       321   0             -17.15268       0             -17.15268       422.12003      70.808778    
       322   0             -17.152821      0             -17.152821      420.44423      70.80884     
       323   0             -17.152961      0             -17.152961      418.59392      70.808904    
       324   0             -17.153099      0             -17.153099      416.58097      70.808969    
       325   0             -17.153236      0             -17.153236      414.41628      70.809035    
       326   0             -17.153371      0             -17.153371      412.10994      70.809101    
       327   0             -17.153504      0             -17.153504      409.67121      70.809169    
       328   0             -17.153636      0             -17.153636      407.1086       70.809237    
       329   0             -17.153766      0             -17.153766      404.42995      70.809305    
       330   0             -17.153894      0             -17.153894      401.64244      70.809374    
       331   0             -17.154021      0             -17.154021      398.75265      70.809444    
       332   0             -17.154146      0             -17.154146      395.7666       70.809514    
       333   0             -17.154269      0             -17.154269      392.68981      70.809585    
       334   0             -17.154391      0             -17.154391      389.52732      70.809655    
       335   0             -17.154511      0             -17.154511      386.28372      70.809727    
       336   0             -17.15463       0             -17.15463       382.96321      70.809798    
       337   0             -17.154747      0             -17.154747      379.56959      70.809869    
       338   0             -17.154862      0             -17.154862      376.10635      70.809941    
       339   0             -17.154976      0             -17.154976      372.57663      70.810013    
       340   0             -17.155088      0             -17.155088      368.98331      70.810085    
       341   0             -17.155198      0             -17.155198      365.32899      70.810157    
       342   0             -17.155307      0             -17.155307      361.61601      70.810229    
       343   0             -17.155415      0             -17.155415      357.84652      70.810301    
       344   0             -17.15552       0             -17.15552       354.02244      70.810373    
       345   0             -17.155624      0             -17.155624      350.14552      70.810445    
       346   0             -17.155727      0             -17.155727      346.21734      70.810517    
       347   0             -17.155828      0             -17.155828      342.23933      70.810589    
       348   0             -17.155927      0             -17.155927      338.21277      70.810661    
       349   0             -17.156025      0             -17.156025      334.13882      70.810733    
       350   0             -17.156121      0             -17.156121      330.01853      70.810805    
       351   0             -17.156215      0             -17.156215      325.85286      70.810877    
       352   0             -17.156308      0             -17.156308      321.64265      70.810949    
       353   0             -17.156399      0             -17.156399      317.38868      70.811021    
       354   0             -17.156489      0             -17.156489      313.09166      70.811092    
       355   0             -17.156577      0             -17.156577      308.75221      70.811164    
       356   0             -17.156664      0             -17.156664      304.37091      70.811235    
       357   0             -17.156749      0             -17.156749      299.94828      70.811306    
       358   0             -17.156832      0             -17.156832      295.48481      70.811377    
       359   0             -17.156914      0             -17.156914      290.98093      70.811448    
       360   0             -17.156994      0             -17.156994      286.43704      70.811519    
       361   0             -17.157073      0             -17.157073      281.85351      70.81159     
       362   0             -17.15715       0             -17.15715       277.23068      70.81166     
       363   0             -17.157225      0             -17.157225      272.56887      70.811731    
       364   0             -17.157299      0             -17.157299      267.86837      70.811801    
       365   0             -17.157371      0             -17.157371      263.12945      70.811871    
       366   0             -17.157442      0             -17.157442      258.35238      70.811941    
       367   0             -17.157511      0             -17.157511      253.53741      70.812011    
       368   0             -17.157579      0             -17.157579      248.68476      70.81208     
       369   0             -17.157645      0             -17.157645      243.79466      70.81215     
       370   0             -17.15771       0             -17.15771       238.86733      70.812219    
       371   0             -17.157773      0             -17.157773      233.90297      70.812288    
       372   0             -17.157834      0             -17.157834      228.90179      70.812357    
       373   0             -17.157894      0             -17.157894      223.86397      70.812425    
       374   0             -17.157952      0             -17.157952      218.7897       70.812494    
       375   0             -17.158009      0             -17.158009      213.67919      70.812562    
       376   0             -17.158064      0             -17.158064      208.53259      70.81263     
       377   0             -17.158118      0             -17.158118      203.35011      70.812698    
       378   0             -17.15817       0             -17.15817       198.13191      70.812766    
       379   0             -17.158221      0             -17.158221      192.87817      70.812833    
       380   0             -17.15827       0             -17.15827       187.58907      70.812901    
       381   0             -17.158317      0             -17.158317      182.26477      70.812968    
       382   0             -17.158363      0             -17.158363      176.90545      70.813035    
       383   0             -17.158408      0             -17.158408      171.51127      70.813101    
       384   0             -17.158451      0             -17.158451      166.08242      70.813168    
       385   0             -17.158492      0             -17.158492      160.61905      70.813234    
       386   0             -17.158532      0             -17.158532      155.12133      70.8133      
       387   0             -17.158571      0             -17.158571      149.58944      70.813366    
       388   0             -17.158607      0             -17.158607      144.02353      70.813432    
       389   0             -17.158643      0             -17.158643      138.42378      70.813497    
       390   0             -17.158676      0             -17.158676      132.79035      70.813562    
       391   0             -17.158709      0             -17.158709      127.1234       70.813627    
       392   0             -17.15874       0             -17.15874       121.4231       70.813692    
       393   0             -17.158769      0             -17.158769      115.68962      70.813756    
       394   0             -17.158797      0             -17.158797      109.92311      70.81382     
       395   0             -17.158823      0             -17.158823      104.12375      70.813884    
       396   0             -17.158847      0             -17.158847      98.291686      70.813948    
       397   0             -17.158871      0             -17.158871      92.42709       70.814011    
       398   0             -17.158892      0             -17.158892      86.530124      70.814075    
       399   0             -17.158913      0             -17.158913      80.600948      70.814138    
       400   0             -17.158931      0             -17.158931      74.639724      70.8142      
       401   0             -17.158949      0             -17.158949      68.646613      70.814263    
       402   0             -17.158964      0             -17.158964      62.621776      70.814325    
       403   0             -17.158979      0             -17.158979      56.565372      70.814387    
       404   0             -17.158991      0             -17.158991      50.477561      70.814448    
       405   0             -17.159003      0             -17.159003      44.358503      70.81451     
       406   0             -17.159012      0             -17.159012      38.208357      70.814571    
       407   0             -17.159021      0             -17.159021      32.027281      70.814631    
       408   0             -17.159027      0             -17.159027      25.815434      70.814692    
       409   0             -17.159033      0             -17.159033      19.572973      70.814752    
       410   0             -17.159037      0             -17.159037      13.300056      70.814812    
       411   0             -17.159039      0             -17.159039      6.99684        70.814872    
       412   0             -17.15904       0             -17.15904       0.66348035     70.814931    
       413   0             -17.15904       0             -17.15904      -0.0047955184   70.814937    
       414   0             -17.15904       0             -17.15904       0.45699657     70.814933    
       415   0             -17.15904       0             -17.15904      -4.4122105      70.814978    
       416   0             -17.15904       0             -17.15904      -22.201164      70.815142    
       417   0             -17.15904       0             -17.15904      -38.322358      70.815288    
       418   0             -17.15904       0             -17.15904      -52.580866      70.815413    
       419   0             -17.15904       0             -17.15904      -62.741627      70.815497    
       420   0             -17.159041      0             -17.159041      383.31572      70.811344    
       421   0             -17.159042      0             -17.159042      139.40651      70.813621    
       422   0             -17.159042      0             -17.159042     -21.674742      70.815122    
       423   0             -17.159043      0             -17.159043      0.57702101     70.814916    
       424   0             -17.159046      0             -17.159046      32.670407      70.814599    
       425   0             -17.159046      0             -17.159046     -430.08737      70.818904    
       426   0             -17.159047      0             -17.159047     -626.83783      70.820726    
       427   0             -17.159049      0             -17.159049     -130.36682      70.816086    
       428   0             -17.159049      0             -17.159049      117.9521       70.813771    
       429   0             -17.15905       0             -17.15905      -6.2183881      70.814929    
       430   0             -17.159055      0             -17.159055     -122.97542      70.815997    
       431   0             -17.159056      0             -17.159056      608.33051      70.809167    
       432   0             -17.159059      0             -17.159059      1034.0226      70.805174    
       433   0             -17.159066      0             -17.159066      390.21051      70.811145    
       434   0             -17.159067      0             -17.159067     -107.01533      70.815777    
       435   0             -17.159068      0             -17.159068      329.10806      70.811706    
       436   0             -17.159069      0             -17.159069      227.52056      70.812638    
       437   0             -17.15907       0             -17.15907      -94.836748      70.815641    
       438   0             -17.159072      0             -17.159072     -84.307774      70.815517    
       439   0             -17.159073      0             -17.159073      249.42629      70.812404    
       440   0             -17.159081      0             -17.159081      333.13653      70.811572    
       441   0             -17.159082      0             -17.159082     -204.89493      70.816583    
       442   0             -17.159086      0             -17.159086     -1022.4356      70.824161    
       443   0             -17.159093      0             -17.159093     -688.13143      70.821005    
       444   0             -17.159095      0             -17.159095      73.720206      70.813901    
       445   0             -17.159098      0             -17.159098      41.576808      70.814182    
       446   0             -17.159101      0             -17.159101     -991.90194      70.823781    
       447   0             -17.159109      0             -17.159109     -1147.377       70.825173    
       448   0             -17.159115      0             -17.159115      254.73736      70.812087    
       449   0             -17.159124      0             -17.159124      726.63505      70.807631    
       450   0             -17.159125      0             -17.159125     -74.816166      70.815098    
       451   0             -17.159137      0             -17.159137     -78.766464      70.81506     
       452   0             -17.15914       0             -17.15914       857.68445      70.806305    
       453   0             -17.159152      0             -17.159152      1067.4617      70.804267    
       454   0             -17.159158      0             -17.159158     -336.16513      70.81733     
       455   0             -17.159169      0             -17.159169     -1100.8249      70.824373    
       456   0             -17.15918       0             -17.15918      -102.72266      70.815016    
       457   0             -17.159183      0             -17.159183      870.10465      70.80592     
       458   0             -17.159197      0             -17.159197      894.49974      70.805603    
       459   0             -17.1592        0             -17.1592       -155.40673      70.815381    
       460   0             -17.159213      0             -17.159213     -253.20601      70.81621     
       461   0             -17.159215      0             -17.159215      583.09674      70.808398    
       462   0             -17.15923       0             -17.15923       1279.2822      70.801798    
       463   0             -17.159243      0             -17.159243      54.449631      70.813158    
       464   0             -17.159254      0             -17.159254     -978.33293      70.822701    
       465   0             -17.159258      0             -17.159258      142.35036      70.812247    
       466   0             -17.159275      0             -17.159275      142.81659      70.812134    
       467   0             -17.15928       0             -17.15928      -1109.7201      70.823762    
       468   0             -17.159299      0             -17.159299     -1268.3883      70.825115    
       469   0             -17.159307      0             -17.159307      321.75103      70.81027     
       470   0             -17.159328      0             -17.159328      876.47182      70.804956    
       471   0             -17.159337      0             -17.159337     -632.60689      70.818972    
       472   0             -17.159352      0             -17.159352     -1209.2039      70.824237    
       473   0             -17.159367      0             -17.159367      177.48138      70.81124     
       474   0             -17.159394      0             -17.159394     -118.10308      70.813829    
       475   0             -17.159407      0             -17.159407      862.7181       70.804593    
       476   0             -17.159426      0             -17.159426     -125.10734      70.813694    
       477   0             -17.159448      0             -17.159448      450.87066      70.808186    
       478   0             -17.15946       0             -17.15946      -801.40219      70.819776    
       479   0             -17.159488      0             -17.159488     -898.1368       70.820502    
       480   0             -17.159493      0             -17.159493      319.66181      70.809135    
       481   0             -17.159523      0             -17.159523      329.92053      70.808849    
       482   0             -17.159528      0             -17.159528     -982.52372      70.821039    
       483   0             -17.159557      0             -17.159557     -1138.78        70.82231     
       484   0             -17.159565      0             -17.159565      470.62789      70.807278    
       485   0             -17.15959       0             -17.15959       924.92945      70.802876    
       486   0             -17.1596        0             -17.1596       -793.40093      70.818836    
       487   0             -17.159621      0             -17.159621     -1462.5296      70.824923    
       488   0             -17.159639      0             -17.159639      89.162329      70.810377    
       489   0             -17.159672      0             -17.159672     -119.5576       70.812119    
       490   0             -17.159692      0             -17.159692      853.63193      70.802915    
       491   0             -17.15971       0             -17.15971      -459.68731      70.815053    
       492   0             -17.15974       0             -17.15974       107.54423      70.809585    
       493   0             -17.159765      0             -17.159765     -632.09634      70.816316    
       494   0             -17.159781      0             -17.159781      757.80328      70.80326     
       495   0             -17.159787      0             -17.159787     -629.85762      70.816163    
       496   0             -17.159827      0             -17.159827     -647.25234      70.816078    
       497   0             -17.159833      0             -17.159833      822.50837      70.802335    
       498   0             -17.159872      0             -17.159872      966.73507      70.800748    
       499   0             -17.15988       0             -17.15988      -723.78036      70.816462    
       500   0             -17.159913      0             -17.159913     -1148.5256      70.820207    
       501   0             -17.159926      0             -17.159926      649.90381      70.803376    
       502   0             -17.159965      0             -17.159965      880.70643      70.800979    
       503   0             -17.159976      0             -17.159976     -915.23366      70.817656    
       504   0             -17.160008      0             -17.160008     -1400.6818      70.821964    
       505   0             -17.160025      0             -17.160025      385.14324      70.805242    
       506   0             -17.160068      0             -17.160068      188.71237      70.806811    
       507   0             -17.160089      0             -17.160089     -979.60925      70.817559    
       508   0             -17.160112      0             -17.160112      355.4339       70.804983    
       509   0             -17.160145      0             -17.160145     -386.18301      70.811693    
       510   0             -17.160158      0             -17.160158      1171.2775      70.797075    
       511   0             -17.160194      0             -17.160194      324.67762      70.804769    
       512   0             -17.16021       0             -17.16021      -1121.5548      70.818136    
       513   0             -17.160241      0             -17.160241     -47.528105      70.80795     
       514   0             -17.160283      0             -17.160283      382.40039      70.803683    
       515   0             -17.160302      0             -17.160302     -1003.9818      70.816478    
       516   0             -17.160335      0             -17.160335      17.942466      70.806765    
       517   0             -17.160386      0             -17.160386     -102.4449       70.807577    
       518   0             -17.160423      0             -17.160423      622.65231      70.800586    
       519   0             -17.160442      0             -17.160442     -844.22256      70.814135    
       520   0             -17.160481      0             -17.160481     -35.95033       70.806372    
       521   0             -17.16053       0             -17.16053       273.69545      70.803184    
       522   0             -17.160556      0             -17.160556     -935.94328      70.814293    
       523   0             -17.160584      0             -17.160584      371.89004      70.80194     
       524   0             -17.160622      0             -17.160622     -456.17857      70.809429    
       525   0             -17.160639      0             -17.160639      1095.6461      70.794841    
       526   0             -17.160675      0             -17.160675      40.627699      70.804473    
       527   0             -17.160726      0             -17.160726     -311.83644      70.807447    
       528   0             -17.160753      0             -17.160753      933.26855      70.795665    
       529   0             -17.160783      0             -17.160783     -357.44627      70.807526    
       530   0             -17.160823      0             -17.160823      486.31464      70.799415    
       531   0             -17.160852      0             -17.160852     -746.23084      70.810725    
       532   0             -17.160886      0             -17.160886      386.84382      70.799958    
       533   0             -17.160923      0             -17.160923     -568.98687      70.808639    
       534   0             -17.160954      0             -17.160954      664.24761      70.796953    
       535   0             -17.16099       0             -17.16099      -421.51767      70.806861    
       536   0             -17.161027      0             -17.161027      600.05428      70.797108    
       537   0             -17.161059      0             -17.161059     -612.06887      70.808213    
       538   0             -17.161096      0             -17.161096      472.64403      70.797878    
       539   0             -17.161133      0             -17.161133     -598.68654      70.807643    
       540   0             -17.161152      0             -17.161152      1023.1118      70.792395    
       541   0             -17.161193      0             -17.161193     -35.397637      70.802031    
       542   0             -17.161257      0             -17.161257      147.75076      70.79993     
       543   0             -17.161303      0             -17.161303     -649.06071      70.807078    
       544   0             -17.16133       0             -17.16133       777.93092      70.793603    
       545   0             -17.161371      0             -17.161371     -284.74852      70.803271    
       546   0             -17.161416      0             -17.161416      600.99666      70.794737    
       547   0             -17.161448      0             -17.161448     -710.58138      70.806771    
       548   0             -17.161487      0             -17.161487      410.48186      70.796082    
       549   0             -17.161529      0             -17.161529     -600.27965      70.805251    
       550   0             -17.161564      0             -17.161564      643.52501      70.793439    
       551   0             -17.161604      0             -17.161604     -482.44503      70.803699    
       552   0             -17.161645      0             -17.161645      595.16183      70.7934      
       553   0             -17.161683      0             -17.161683     -602.20762      70.804337    
       554   0             -17.161723      0             -17.161723      533.13037      70.793507    
       555   0             -17.16175       0             -17.16175      -954.96625      70.807211    
       556   0             -17.16179       0             -17.16179       281.53155      70.795452    
       557   0             -17.16184       0             -17.16184      -537.69491      70.802781    
       558   0             -17.161876      0             -17.161876      746.28572      70.790589    
       559   0             -17.161916      0             -17.161916     -448.93603      70.801494    
       560   0             -17.161962      0             -17.161962      568.19954      70.79173     
       561   0             -17.162001      0             -17.162001     -643.27815      70.802789    
       562   0             -17.162043      0             -17.162043      527.58298      70.791619    
       563   0             -17.162087      0             -17.162087     -571.32059      70.8016      
       564   0             -17.162129      0             -17.162129      605.21731      70.790375    
       565   0             -17.162171      0             -17.162171     -554.46695      70.800933    
       566   0             -17.162216      0             -17.162216      576.88964      70.790115    
       567   0             -17.162258      0             -17.162258     -584.77752      70.800688    
       568   0             -17.162302      0             -17.162302      571.87801      70.789636    
       569   0             -17.162346      0             -17.162346     -573.59674      70.800051    
       570   0             -17.162378      0             -17.162378      905.80055      70.786059    
       571   0             -17.16242       0             -17.16242      -337.1272       70.7974      
       572   0             -17.162476      0             -17.162476      541.60052      70.788868    
       573   0             -17.162517      0             -17.162517     -697.58367      70.800172    
       574   0             -17.162561      0             -17.162561      513.66016      70.788611    
       575   0             -17.162609      0             -17.162609     -558.17156      70.798312    
       576   0             -17.162655      0             -17.162655      618.20971      70.787065    
       577   0             -17.1627        0             -17.1627       -557.03469      70.79775     
       578   0             -17.162749      0             -17.162749      570.74087      70.78694     
       579   0             -17.162795      0             -17.162795     -587.196        70.797457    
       580   0             -17.162843      0             -17.162843      574.37564      70.786336    
       581   0             -17.16289       0             -17.16289      -571.17037      70.796731    
       582   0             -17.162939      0             -17.162939      581.38001      70.785687    
       583   0             -17.162987      0             -17.162987     -573.47859      70.796168    
       584   0             -17.163036      0             -17.163036      576.2322       70.785146    
       585   0             -17.163072      0             -17.163072     -846.34282      70.798188    
       586   0             -17.163119      0             -17.163119      414.50492      70.786152    
       587   0             -17.163176      0             -17.163176     -542.58226      70.794732    
       588   0             -17.163225      0             -17.163225      652.70386      70.783289    
       589   0             -17.163273      0             -17.163273     -541.60824      70.794137    
       590   0             -17.163326      0             -17.163326      560.10549      70.783538    
       591   0             -17.163376      0             -17.163376     -592.30133      70.793982    
       592   0             -17.163428      0             -17.163428      570.9551       70.782821    
       593   0             -17.163479      0             -17.163479     -565.85007      70.793111    
       594   0             -17.163532      0             -17.163532      578.26538      70.782119    
       595   0             -17.163584      0             -17.163584     -570.97111      70.792526    
       596   0             -17.163637      0             -17.163637      571.43014      70.781545    
       597   0             -17.16369       0             -17.16369      -570.91823      70.791882    
       598   0             -17.163744      0             -17.163744      572.35789      70.780889    
       599   0             -17.163797      0             -17.163797     -568.87366      70.791211    
       600   0             -17.163841      0             -17.163841      803.0669       70.778145    
       601   0             -17.163891      0             -17.163891     -447.9247       70.789516    
       602   0             -17.163954      0             -17.163954      532.60981      70.779989    
       603   0             -17.164007      0             -17.164007     -621.10263      70.790425    
       604   0             -17.164062      0             -17.164062      558.375        70.779092    
       605   0             -17.164119      0             -17.164119     -552.56836      70.789113    
       606   0             -17.164176      0             -17.164176      576.37933      70.778234    
       607   0             -17.164232      0             -17.164232     -566.18392      70.788555    
       608   0             -17.16429       0             -17.16429       562.76789      70.777671    
       609   0             -17.164347      0             -17.164347     -565.32552      70.787849    
       610   0             -17.164405      0             -17.164405      565.34         70.776946    
       611   0             -17.164463      0             -17.164463     -562.38465      70.787117    
       612   0             -17.164523      0             -17.164523      563.17353      70.776255    
       613   0             -17.164581      0             -17.164581     -561.9318       70.786398    
       614   0             -17.164642      0             -17.164642      561.52777      70.775551    
       615   0             -17.164691      0             -17.164691     -752.16128      70.787505    
       616   0             -17.164747      0             -17.164747      483.1351       70.775644    
       617   0             -17.164813      0             -17.164813     -527.87148      70.784681    
       618   0             -17.164875      0             -17.164875      589.36888      70.773882    
       619   0             -17.164934      0             -17.164934     -555.53489      70.784204    
       620   0             -17.164998      0             -17.164998      548.13216      70.773523    
       621   0             -17.165059      0             -17.165059     -559.72273      70.783485    
       622   0             -17.165123      0             -17.165123      556.24572      70.772688    
       623   0             -17.165186      0             -17.165186     -553.24393      70.782662    
       624   0             -17.16525       0             -17.16525       553.01235      70.771949    
       625   0             -17.165314      0             -17.165314     -553.49014      70.78189     
       626   0             -17.165379      0             -17.165379      550.95745      70.771189    
       627   0             -17.165444      0             -17.165444     -551.39821      70.781086    
       628   0             -17.16551       0             -17.16551       549.15548      70.770415    
       629   0             -17.165575      0             -17.165575     -549.78543      70.780276    
       630   0             -17.165633      0             -17.165633      708.74455      70.768178    
       631   0             -17.165694      0             -17.165694     -492.59854      70.779023    
       632   0             -17.165767      0             -17.165767      515.23924      70.769179    
       633   0             -17.165835      0             -17.165835     -566.92612      70.77887     
       634   0             -17.165903      0             -17.165903      545.60427      70.768078    
       635   0             -17.165971      0             -17.165971     -538.79984      70.777787    
       636   0             -17.166041      0             -17.166041      541.46611      70.767281    
       637   0             -17.16611       0             -17.16611      -543.93525      70.776996    
       638   0             -17.166181      0             -17.166181      538.18188      70.766469    
       639   0             -17.166251      0             -17.166251     -540.60431      70.776115    
       640   0             -17.166323      0             -17.166323      536.42565      70.765629    
       641   0             -17.166394      0             -17.166394     -538.83572      70.775237    
       642   0             -17.166467      0             -17.166467      533.89777      70.764785    
       643   0             -17.166538      0             -17.166538     -536.81548      70.774346    
       644   0             -17.166613      0             -17.166613      531.52088      70.763929    
       645   0             -17.166677      0             -17.166677     -666.47558      70.774717    
       646   0             -17.166747      0             -17.166747      499.54892      70.763417    
       647   0             -17.166824      0             -17.166824     -509.84298      70.772376    
       648   0             -17.166901      0             -17.166901      535.91356      70.762153    
       649   0             -17.166975      0             -17.166975     -533.64122      70.771689    
       650   0             -17.167052      0             -17.167052      521.69416      70.761375    
       651   0             -17.167128      0             -17.167128     -528.26451      70.770718    
       652   0             -17.167206      0             -17.167206      521.98632      70.760444    
       653   0             -17.167283      0             -17.167283     -526.15025      70.769765    
       654   0             -17.167363      0             -17.167363      518.67412      70.759535    
       655   0             -17.16744       0             -17.16744      -523.94256      70.768798    
       656   0             -17.167521      0             -17.167521      516.03996      70.758607    
       657   0             -17.1676        0             -17.1676       -521.57733      70.767817    
       658   0             -17.167682      0             -17.167682      513.21663      70.757667    
       659   0             -17.167762      0             -17.167762     -519.2101       70.766823    
       660   0             -17.167838      0             -17.167838      619.53851      70.755737    
       661   0             -17.167914      0             -17.167914     -497.23685      70.765707    
       662   0             -17.168         0             -17.168         488.6259       70.755985    
       663   0             -17.168083      0             -17.168083     -519.78571      70.764899    
       664   0             -17.168168      0             -17.168168      507.65496      70.7548      
       665   0             -17.168251      0             -17.168251     -510.69491      70.763806    
       666   0             -17.168338      0             -17.168338      501.17533      70.753841    
       667   0             -17.168423      0             -17.168423     -509.67015      70.762769    
       668   0             -17.16851       0             -17.16851       498.61637      70.752831    
       669   0             -17.168596      0             -17.168596     -506.76933      70.761702    
       670   0             -17.168685      0             -17.168685      495.41366      70.751813    
       671   0             -17.168772      0             -17.168772     -504.18987      70.760623    
       672   0             -17.168862      0             -17.168862      492.23982      70.75078     
       673   0             -17.168951      0             -17.168951     -501.50046      70.759529    
       674   0             -17.169042      0             -17.169042      489.00036      70.749733    
       675   0             -17.169126      0             -17.169126     -585.84964      70.759267    
       676   0             -17.169213      0             -17.169213      480.93555      70.748785    
       677   0             -17.169305      0             -17.169305     -483.02335      70.757234    
       678   0             -17.1694        0             -17.1694        483.06978      70.747646    
       679   0             -17.169492      0             -17.169492     -495.24551      70.75623     
       680   0             -17.169587      0             -17.169587      479.08125      70.746562    
       681   0             -17.169681      0             -17.169681     -490.24038      70.755054    
       682   0             -17.169778      0             -17.169778      475.69052      70.745456    
       683   0             -17.169872      0             -17.169872     -487.65673      70.753884    
       684   0             -17.16997       0             -17.16997       472.18566      70.744335    
       685   0             -17.170066      0             -17.170066     -484.68409      70.752695    
       686   0             -17.170166      0             -17.170166      468.62665      70.743199    
       687   0             -17.170263      0             -17.170263     -481.71792      70.75149     
       688   0             -17.170365      0             -17.170365      465.01587      70.742046    
       689   0             -17.170463      0             -17.170463     -478.70397      70.750268    
       690   0             -17.170561      0             -17.170561      531.62431      70.740252    
       691   0             -17.170656      0             -17.170656     -474.31628      70.749076    
       692   0             -17.170761      0             -17.170761      448.57452      70.739833    
       693   0             -17.170863      0             -17.170863     -472.51479      70.747823    
       694   0             -17.170969      0             -17.170969      455.13594      70.738531    
       695   0             -17.171072      0             -17.171072     -469.61672      70.746552    
       696   0             -17.171179      0             -17.171179      450.07296      70.737326    
       697   0             -17.171283      0             -17.171283     -466.3646       70.74526     
       698   0             -17.171392      0             -17.171392      446.33901      70.736089    
       699   0             -17.171498      0             -17.171498     -463.16541      70.74395     
       700   0             -17.171608      0             -17.171608      442.39624      70.734836    
       701   0             -17.171715      0             -17.171715     -459.90733      70.742621    
       702   0             -17.171827      0             -17.171827      438.4164       70.733566    
       703   0             -17.171936      0             -17.171936     -456.6123       70.741274    
       704   0             -17.17205       0             -17.17205       434.3821       70.732277    
       705   0             -17.172156      0             -17.172156     -507.65893      70.740441    
       706   0             -17.172267      0             -17.172267      436.37323      70.730967    
       707   0             -17.172379      0             -17.172379     -444.88474      70.738529    
       708   0             -17.172496      0             -17.172496      424.88107      70.729708    
       709   0             -17.17261       0             -17.17261      -446.96021      70.737172    
       710   0             -17.172728      0             -17.172728      422.31548      70.728349    
       711   0             -17.172844      0             -17.172844     -443.15275      70.735745    
       712   0             -17.172964      0             -17.172964      417.85331      70.726988    
       713   0             -17.173081      0             -17.173081     -439.6694       70.7343      
       714   0             -17.173203      0             -17.173203      413.58003      70.725606    
       715   0             -17.173322      0             -17.173322     -436.14154      70.732835    
       716   0             -17.173446      0             -17.173446      409.23007      70.724204    
       717   0             -17.173566      0             -17.173566     -432.57245      70.731349    
       718   0             -17.173692      0             -17.173692      404.82936      70.722781    
       719   0             -17.173814      0             -17.173814     -428.96578      70.729842    
       720   0             -17.173938      0             -17.173938      442.66857      70.720964    
       721   0             -17.174058      0             -17.174058     -431.28617      70.728414    
       722   0             -17.174187      0             -17.174187      393.67544      70.719942    
       723   0             -17.174313      0             -17.174313     -420.87145      70.726801    
       724   0             -17.174444      0             -17.174444      391.42858      70.718434    
       725   0             -17.174572      0             -17.174572     -418.10247      70.725237    
       726   0             -17.174705      0             -17.174705      386.86682      70.716928    
       727   0             -17.174835      0             -17.174835     -414.2796       70.723642    
       728   0             -17.17497       0             -17.17497       382.19076      70.715401    
       729   0             -17.175101      0             -17.175101     -410.48471      70.722025    
       730   0             -17.175238      0             -17.175238      377.48367      70.713851    
       731   0             -17.175372      0             -17.175372     -406.65103      70.720384    
       732   0             -17.175511      0             -17.175511      372.72262      70.712278    
       733   0             -17.175646      0             -17.175646     -402.77957      70.71872     
       734   0             -17.175787      0             -17.175787      367.90966      70.710683    
       735   0             -17.175922      0             -17.175922     -430.30444      70.717342    
       736   0             -17.176061      0             -17.176061      371.77208      70.709021    
       737   0             -17.1762        0             -17.1762       -394.96361      70.715362    
       738   0             -17.176345      0             -17.176345      357.67313      70.707469    
       739   0             -17.176487      0             -17.176487     -390.89905      70.713624    
       740   0             -17.176634      0             -17.176634      353.27336      70.705798    
       741   0             -17.176778      0             -17.176778     -387.03412      70.711864    
       742   0             -17.176927      0             -17.176927      348.26943      70.704108    
       743   0             -17.177073      0             -17.177073     -382.97763      70.710077    
       744   0             -17.177224      0             -17.177224      343.19913      70.702393    
       745   0             -17.177372      0             -17.177372     -378.89156      70.708264    
       746   0             -17.177526      0             -17.177526      338.08091      70.700653    
       747   0             -17.177676      0             -17.177676     -374.77156      70.706425    
       748   0             -17.177832      0             -17.177832      332.91246      70.698887    
       749   0             -17.177985      0             -17.177985     -370.6176       70.70456     
       750   0             -17.178141      0             -17.178141      350.95644      70.696891    
       751   0             -17.178292      0             -17.178292     -373.45218      70.702763    
       752   0             -17.178452      0             -17.178452      323.88862      70.695299    
       753   0             -17.178609      0             -17.178609     -362.39037      70.700785    
       754   0             -17.178772      0             -17.178772      317.18196      70.693469    
       755   0             -17.178931      0             -17.178931     -358.02388      70.698837    
       756   0             -17.179097      0             -17.179097      311.84052      70.691597    
       757   0             -17.179258      0             -17.179258     -353.75711      70.696862    
       758   0             -17.179426      0             -17.179426      306.43275      70.689698    
       759   0             -17.17959       0             -17.17959      -349.45192      70.694858    
       760   0             -17.179761      0             -17.179761      300.97584      70.687771    
       761   0             -17.179927      0             -17.179927     -345.11965      70.692826    
       762   0             -17.1801        0             -17.1801        295.47393      70.685815    
       763   0             -17.180269      0             -17.180269     -340.76089      70.690763    
       764   0             -17.180444      0             -17.180444      289.92743      70.68383     
[...]
      9847   0             -17.781718      0             -17.781718      7.5858094e-10  66.486818    
      9848   0             -17.781718      0             -17.781718     -1.2266605e-09  66.486818    
      9849   0             -17.781718      0             -17.781718      7.3004358e-10  66.486818    
      9850   0             -17.781718      0             -17.781718      3.0142584e-10  66.486818    
      9851   0             -17.781718      0             -17.781718     -1.1416058e-09  66.486818    
      9852   0             -17.781718      0             -17.781718      7.3004358e-10  66.486818    
      9853   0             -17.781718      0             -17.781718      3.0142584e-10  66.486818    
      9854   0             -17.781718      0             -17.781718     -1.1416058e-09  66.486818    
      9855   0             -17.781718      0             -17.781718      7.3004358e-10  66.486818    
      9856   0             -17.781718      0             -17.781718      3.0142584e-10  66.486818    
      9857   0             -17.781718      0             -17.781718     -1.1416058e-09  66.486818    
      9858   0             -17.781718      0             -17.781718      7.3004358e-10  66.486818    
      9859   0             -17.781718      0             -17.781718      3.0142584e-10  66.486818    
      9860   0             -17.781718      0             -17.781718     -1.1416058e-09  66.486818    
      9861   0             -17.781718      0             -17.781718      7.3004358e-10  66.486818    
      9862   0             -17.781718      0             -17.781718      5.0252504e-10  66.486818    
      9863   0             -17.781718      0             -17.781718     -1.2266605e-09  66.486818    
      9864   0             -17.781718      0             -17.781718      7.5858094e-10  66.486818    
      9865   0             -17.781718      0             -17.781718     -1.1416058e-09  66.486818    
      9866   0             -17.781718      0             -17.781718      7.3004358e-10  66.486818    
      9867   0             -17.781718      0             -17.781718      5.7230779e-10  66.486818    
      9868   0             -17.781718      0             -17.781718     -1.4867295e-09  66.486818    
      9869   0             -17.781718      0             -17.781718      7.1588638e-10  66.486818    
      9870   0             -17.781718      0             -17.781718      7.5858094e-10  66.486818    
      9871   0             -17.781718      0             -17.781718     -1.4867295e-09  66.486818    
      9872   0             -17.781718      0             -17.781718      7.1588638e-10  66.486818    
      9873   0             -17.781718      0             -17.781718      5.0252504e-10  66.486818    
      9874   0             -17.781718      0             -17.781718     -1.1416058e-09  66.486818    
      9875   0             -17.781718      0             -17.781718      7.3004358e-10  66.486818    
      9876   0             -17.781718      0             -17.781718     -1.1416058e-09  66.486818    
      9877   0             -17.781718      0             -17.781718      7.3004358e-10  66.486818    
      9878   0             -17.781718      0             -17.781718      7.5858094e-10  66.486818    
      9879   0             -17.781718      0             -17.781718     -1.4867295e-09  66.486818    
      9880   0             -17.781718      0             -17.781718      7.3004358e-10  66.486818    
      9881   0             -17.781718      0             -17.781718      7.5858094e-10  66.486818    
      9882   0             -17.781718      0             -17.781718     -1.4576347e-09  66.486818    
      9883   0             -17.781718      0             -17.781718      7.3004358e-10  66.486818    
      9884   0             -17.781718      0             -17.781718      5.0252504e-10  66.486818    
      9885   0             -17.781718      0             -17.781718     -1.2266605e-09  66.486818    
      9886   0             -17.781718      0             -17.781718      7.3004358e-10  66.486818    
      9887   0             -17.781718      0             -17.781718     -1.1416058e-09  66.486818    
      9888   0             -17.781718      0             -17.781718      7.3004358e-10  66.486818    
      9889   0             -17.781718      0             -17.781718      7.5858094e-10  66.486818    
      9890   0             -17.781718      0             -17.781718     -1.4867295e-09  66.486818    
      9891   0             -17.781718      0             -17.781718      7.3004358e-10  66.486818    
      9892   0             -17.781718      0             -17.781718      7.5858094e-10  66.486818    
      9893   0             -17.781718      0             -17.781718     -1.4576347e-09  66.486818    
      9894   0             -17.781718      0             -17.781718      7.3004358e-10  66.486818    
      9895   0             -17.781718      0             -17.781718      5.0252504e-10  66.486818    
      9896   0             -17.781718      0             -17.781718     -1.2266605e-09  66.486818    
      9897   0             -17.781718      0             -17.781718      7.3004358e-10  66.486818    
      9898   0             -17.781718      0             -17.781718     -1.1416058e-09  66.486818    
      9899   0             -17.781718      0             -17.781718      7.3004358e-10  66.486818    
      9900   0             -17.781718      0             -17.781718      7.5858094e-10  66.486818    
      9901   0             -17.781718      0             -17.781718     -1.2266605e-09  66.486818    
      9902   0             -17.781718      0             -17.781718      7.3004358e-10  66.486818    
      9903   0             -17.781718      0             -17.781718      3.0142584e-10  66.486818    
      9904   0             -17.781718      0             -17.781718     -1.1416058e-09  66.486818    
      9905   0             -17.781718      0             -17.781718      7.3004358e-10  66.486818    
      9906   0             -17.781718      0             -17.781718      3.0142584e-10  66.486818    
      9907   0             -17.781718      0             -17.781718     -1.1416058e-09  66.486818    
      9908   0             -17.781718      0             -17.781718      7.3004358e-10  66.486818    
      9909   0             -17.781718      0             -17.781718      3.0142584e-10  66.486818    
      9910   0             -17.781718      0             -17.781718     -1.1416058e-09  66.486818    
      9911   0             -17.781718      0             -17.781718      7.3004358e-10  66.486818    
      9912   0             -17.781718      0             -17.781718      3.0142584e-10  66.486818    
      9913   0             -17.781718      0             -17.781718     -1.1416058e-09  66.486818    
      9914   0             -17.781718      0             -17.781718      7.3004358e-10  66.486818    
      9915   0             -17.781718      0             -17.781718      5.0252504e-10  66.486818    
      9916   0             -17.781718      0             -17.781718     -1.2266605e-09  66.486818    
      9917   0             -17.781718      0             -17.781718      7.5858094e-10  66.486818    
      9918   0             -17.781718      0             -17.781718     -1.1416058e-09  66.486818    
      9919   0             -17.781718      0             -17.781718      7.3004358e-10  66.486818    
      9920   0             -17.781718      0             -17.781718      5.7230779e-10  66.486818    
      9921   0             -17.781718      0             -17.781718     -1.4867295e-09  66.486818    
      9922   0             -17.781718      0             -17.781718      7.1588638e-10  66.486818    
      9923   0             -17.781718      0             -17.781718      7.5858094e-10  66.486818    
      9924   0             -17.781718      0             -17.781718     -1.4867295e-09  66.486818    
      9925   0             -17.781718      0             -17.781718      7.1588638e-10  66.486818    
      9926   0             -17.781718      0             -17.781718      5.0252504e-10  66.486818    
      9927   0             -17.781718      0             -17.781718     -1.1416058e-09  66.486818    
      9928   0             -17.781718      0             -17.781718      7.3004358e-10  66.486818    
      9929   0             -17.781718      0             -17.781718     -1.1416058e-09  66.486818    
      9930   0             -17.781718      0             -17.781718      7.3004358e-10  66.486818    
      9931   0             -17.781718      0             -17.781718      7.5858094e-10  66.486818    
      9932   0             -17.781718      0             -17.781718     -1.4867295e-09  66.486818    
      9933   0             -17.781718      0             -17.781718      7.3004358e-10  66.486818    
      9934   0             -17.781718      0             -17.781718      7.5858094e-10  66.486818    
      9935   0             -17.781718      0             -17.781718     -1.4867295e-09  66.486818    
      9936   0             -17.781718      0             -17.781718      7.3004358e-10  66.486818    
      9937   0             -17.781718      0             -17.781718      5.0252504e-10  66.486818    
      9938   0             -17.781718      0             -17.781718     -1.2266605e-09  66.486818    
      9939   0             -17.781718      0             -17.781718      7.3004358e-10  66.486818    
      9940   0             -17.781718      0             -17.781718     -1.1416058e-09  66.486818    
      9941   0             -17.781718      0             -17.781718      7.3004358e-10  66.486818    
      9942   0             -17.781718      0             -17.781718      7.5858094e-10  66.486818    
      9943   0             -17.781718      0             -17.781718     -1.2266605e-09  66.486818    
      9944   0             -17.781718      0             -17.781718      7.3004358e-10  66.486818    
      9945   0             -17.781718      0             -17.781718      3.0142584e-10  66.486818    
      9946   0             -17.781718      0             -17.781718     -1.1416058e-09  66.486818    
      9947   0             -17.781718      0             -17.781718      7.3004358e-10  66.486818    
      9948   0             -17.781718      0             -17.781718      3.0142584e-10  66.486818    
      9949   0             -17.781718      0             -17.781718     -1.1416058e-09  66.486818    
      9950   0             -17.781718      0             -17.781718      7.3004358e-10  66.486818    
      9951   0             -17.781718      0             -17.781718      3.0142584e-10  66.486818    
      9952   0             -17.781718      0             -17.781718     -1.1416058e-09  66.486818    
      9953   0             -17.781718      0             -17.781718      7.3004358e-10  66.486818    
      9954   0             -17.781718      0             -17.781718      5.0252504e-10  66.486818    
      9955   0             -17.781718      0             -17.781718     -1.2266605e-09  66.486818    
      9956   0             -17.781718      0             -17.781718      7.5858094e-10  66.486818    
      9957   0             -17.781718      0             -17.781718     -1.1416058e-09  66.486818    
      9958   0             -17.781718      0             -17.781718      7.3004358e-10  66.486818    
      9959   0             -17.781718      0             -17.781718      5.7230779e-10  66.486818    
      9960   0             -17.781718      0             -17.781718     -1.4867295e-09  66.486818    
      9961   0             -17.781718      0             -17.781718      7.1588638e-10  66.486818    
      9962   0             -17.781718      0             -17.781718      7.5858094e-10  66.486818    
      9963   0             -17.781718      0             -17.781718     -1.4867295e-09  66.486818    
      9964   0             -17.781718      0             -17.781718      7.1588638e-10  66.486818    
      9965   0             -17.781718      0             -17.781718      5.0252504e-10  66.486818    
      9966   0             -17.781718      0             -17.781718     -1.1416058e-09  66.486818    
      9967   0             -17.781718      0             -17.781718      7.3004358e-10  66.486818    
      9968   0             -17.781718      0             -17.781718     -1.1416058e-09  66.486818    
      9969   0             -17.781718      0             -17.781718      7.3004358e-10  66.486818    
      9970   0             -17.781718      0             -17.781718      7.5858094e-10  66.486818    
      9971   0             -17.781718      0             -17.781718     -1.4867295e-09  66.486818    
      9972   0             -17.781718      0             -17.781718      7.3004358e-10  66.486818    
      9973   0             -17.781718      0             -17.781718      7.5858094e-10  66.486818    
      9974   0             -17.781718      0             -17.781718     -1.4867295e-09  66.486818    
      9975   0             -17.781718      0             -17.781718      7.3004358e-10  66.486818    
      9976   0             -17.781718      0             -17.781718      5.0252504e-10  66.486818    
      9977   0             -17.781718      0             -17.781718     -1.2266605e-09  66.486818    
      9978   0             -17.781718      0             -17.781718      7.3004358e-10  66.486818    
      9979   0             -17.781718      0             -17.781718     -1.1416058e-09  66.486818    
      9980   0             -17.781718      0             -17.781718      7.3004358e-10  66.486818    
      9981   0             -17.781718      0             -17.781718      7.5858094e-10  66.486818    
      9982   0             -17.781718      0             -17.781718     -1.1416058e-09  66.486818    
      9983   0             -17.781718      0             -17.781718      7.5858094e-10  66.486818    
      9984   0             -17.781718      0             -17.781718      3.0142584e-10  66.486818    
      9985   0             -17.781718      0             -17.781718     -1.2266605e-09  66.486818    
      9986   0             -17.781718      0             -17.781718      7.3004358e-10  66.486818    
      9987   0             -17.781718      0             -17.781718      3.0142584e-10  66.486818    
      9988   0             -17.781718      0             -17.781718     -1.1416058e-09  66.486818    
      9989   0             -17.781718      0             -17.781718      7.3004358e-10  66.486818    
      9990   0             -17.781718      0             -17.781718      3.0142584e-10  66.486818    
      9991   0             -17.781718      0             -17.781718     -1.1416058e-09  66.486818    
      9992   0             -17.781718      0             -17.781718      7.3004358e-10  66.486818    
      9993   0             -17.781718      0             -17.781718      3.0142584e-10  66.486818    
      9994   0             -17.781718      0             -17.781718     -1.1416058e-09  66.486818    
      9995   0             -17.781718      0             -17.781718      7.3004358e-10  66.486818    
      9996   0             -17.781718      0             -17.781718      3.0142584e-10  66.486818    
      9997   0             -17.781718      0             -17.781718     -1.1416058e-09  66.486818    
      9998   0             -17.781718      0             -17.781718      7.3004358e-10  66.486818    
      9999   0             -17.781718      0             -17.781718      3.0142584e-10  66.486818    
     10000   0             -17.781718      0             -17.781718     -1.1416058e-09  66.486818    
Loop time of 1.20503 on 1 procs for 10000 steps with 4 atoms

98.0% CPU use with 1 MPI tasks x 1 OpenMP threads

Minimization stats:
  Stopping criterion = max iterations
  Energy initial, next-to-last, final = 
     -16.7622269576344  -17.7817183149305  -17.7817183149305
  Force two-norm initial, final = 25.461198 8.8878297e-14
  Force max component initial, final = 17.471035 6.2703592e-14
  Final line search alpha, max atom move = 1 6.2703592e-14
  Iterations, force evaluations = 10000 18031

MPI task timing breakdown:
Section |  min time  |  avg time  |  max time  |%varavg| %total
---------------------------------------------------------------
Pair    | 0.98806    | 0.98806    | 0.98806    |   0.0 | 81.99
Neigh   | 0          | 0          | 0          |   0.0 |  0.00
Comm    | 0.033461   | 0.033461   | 0.033461   |   0.0 |  2.78
Output  | 0.061824   | 0.061824   | 0.061824   |   0.0 |  5.13
Modify  | 0          | 0          | 0          |   0.0 |  0.00
Other   |            | 0.1217     |            |       | 10.10

Nlocal:              4 ave           4 max           4 min
Histogram: 1 0 0 0 0 0 0 0 0 0
Nghost:            300 ave         300 max         300 min
Histogram: 1 0 0 0 0 0 0 0 0 0
Neighs:            112 ave         112 max         112 min
Histogram: 1 0 0 0 0 0 0 0 0 0
FullNghs:          224 ave         224 max         224 min
Histogram: 1 0 0 0 0 0 0 0 0 0

Total # of neighbors = 224
Ave neighs/atom = 56
Neighbor list builds = 0
Dangerous builds = 0

variable        cohesive_energy equal pe/atoms
variable        lattice_parameter equal lx
variable        c_to_a equal lz/lx
variable        atmVol equal vol/atoms
run                     0
WARNING: No fixes with time integration, atoms won't move (src/verlet.cpp:60)
Per MPI rank memory allocation (min/avg/max) = 3.724 | 3.724 | 3.724 Mbytes
   Step          Temp          E_pair         E_mol          TotEng         Press          Volume    
     10000   0             -17.781718      0             -17.781718     -1.0779541e-09  66.486818    
Loop time of 8.81e-07 on 1 procs for 0 steps with 4 atoms

113.5% CPU use with 1 MPI tasks x 1 OpenMP threads

MPI task timing breakdown:
Section |  min time  |  avg time  |  max time  |%varavg| %total
---------------------------------------------------------------
Pair    | 0          | 0          | 0          |   0.0 |  0.00
Neigh   | 0          | 0          | 0          |   0.0 |  0.00
Comm    | 0          | 0          | 0          |   0.0 |  0.00
Output  | 0          | 0          | 0          |   0.0 |  0.00
Modify  | 0          | 0          | 0          |   0.0 |  0.00
Other   |            | 8.81e-07   |            |       |100.00

Nlocal:              4 ave           4 max           4 min
Histogram: 1 0 0 0 0 0 0 0 0 0
Nghost:            300 ave         300 max         300 min
Histogram: 1 0 0 0 0 0 0 0 0 0
Neighs:            128 ave         128 max         128 min
Histogram: 1 0 0 0 0 0 0 0 0 0
FullNghs:          256 ave         256 max         256 min
Histogram: 1 0 0 0 0 0 0 0 0 0

Total # of neighbors = 256
Ave neighs/atom = 64
Neighbor list builds = 0
Dangerous builds = 0

print           "===================================================="
====================================================
print           "Calculated cohesive energy: ${cohesive_energy} eV/atom"
Calculated cohesive energy: -4.44542957873261 eV/atom
print           "Reference cohesive energy:  -4.352 eV/atom"
Reference cohesive energy:  -4.352 eV/atom
print           "Calculated lattice parameter: ${lattice_parameter} A"
Calculated lattice parameter: 2.76079963615789 A
print           "Reference lattice parameter:  2.736 A"
Reference lattice parameter:  2.736 A
print           "Atomic volume                 ${atmVol} A^3"
Atomic volume                 16.6217045402861 A^3
print           "c/a ratio:                    ${c_to_a}"
c/a ratio:                    1.71820967774805
print           "Reference c/a ratio:          1.633"
Reference c/a ratio:          1.633
print           "===================================================="
====================================================

#dump           1 all custom 1 hcp.dump id type x y z fx fy fz
#run            0


Total wall time: 0:00:01
