LAMMPS (3 Nov 2022)
OMP_NUM_THREADS environment is not set. Defaulting to 1 thread. (src/comm.cpp:98)
  using 1 OpenMP thread(s) per MPI task
# Si fcc phase

units           metal
boundary        p p p

atom_style      atomic
lattice         sc 2.612
Lattice spacing in x,y,z = 2.612 2.612 2.612
region          box block 0 1 0 1 0 1
create_box              1 box
Created orthogonal box = (0 0 0) to (2.612 2.612 2.612)
  1 by 2 by 2 MPI processor grid
create_atoms    1 box
Created 1 atoms
  using lattice units in orthogonal box = (0 0 0) to (2.612 2.612 2.612)
  create_atoms CPU = 0.000 seconds

pair_style      meam/sw/spline
pair_coeff      * * Si.b.meam.sw.spline Si
Reading meam/sw/spline potential file Si.b.meam.sw.spline with DATE: 2012-10-26
mass            * 28.085

variable        cohesive_energy equal pe/atoms
variable        atmVol equal vol/atoms
variable        aLatt equal (vol/atoms)^0.3333333333

run                     0
WARNING: No fixes with time integration, atoms won't move (src/verlet.cpp:60)
Neighbor list info ...
  update: every = 1 steps, delay = 0 steps, check = yes
  max neighbors/atom: 2000, page size: 100000
  master list distance cutoff = 6.4
  ghost atom cutoff = 6.4
  binsize = 3.2, bins = 1 1 1
  2 neighbor lists, perpetual/occasional/extra = 2 0 0
  (1) pair meam/sw/spline, perpetual
      attributes: full, newton on
      pair build: full/bin/atomonly
      stencil: full/bin/3d
      bin: standard
  (2) pair meam/sw/spline, perpetual, half/full from (1)
      attributes: half, newton on
      pair build: halffull/newton
      stencil: none
      bin: none
WARNING: Proc sub-domain size < neighbor skin, could lead to lost atoms (src/domain.cpp:966)
Per MPI rank memory allocation (min/avg/max) = 3.774 | 3.774 | 3.774 Mbytes
   Step          Temp          E_pair         E_mol          TotEng         Press     
         0   0             -4.3368757      0             -4.3368757     -41.869135    
Loop time of 3.492e-06 on 4 procs for 0 steps with 1 atoms

85.9% CPU use with 4 MPI tasks x 1 OpenMP threads

MPI task timing breakdown:
Section |  min time  |  avg time  |  max time  |%varavg| %total
---------------------------------------------------------------
Pair    | 0          | 0          | 0          |   0.0 |  0.00
Neigh   | 0          | 0          | 0          |   0.0 |  0.00
Comm    | 0          | 0          | 0          |   0.0 |  0.00
Output  | 0          | 0          | 0          |   0.0 |  0.00
Modify  | 0          | 0          | 0          |   0.0 |  0.00
Other   |            | 3.492e-06  |            |       |100.00

Nlocal:           0.25 ave           1 max           0 min
Histogram: 3 0 0 0 0 0 0 0 0 1
Nghost:         149.75 ave         150 max         149 min
Histogram: 1 0 0 0 0 0 0 0 0 3
Neighs:             10 ave          40 max           0 min
Histogram: 3 0 0 0 0 0 0 0 0 1
FullNghs:           20 ave          80 max           0 min
Histogram: 3 0 0 0 0 0 0 0 0 1

Total # of neighbors = 80
Ave neighs/atom = 80
Neighbor list builds = 0
Dangerous builds = 0

print           "===================================================="
====================================================
print           "Calculated cohesive energy: ${cohesive_energy} eV/atom"
Calculated cohesive energy: -4.33687572290858 eV/atom
print           "Reference cohesive energy:  -4.337 eV/atom"
Reference cohesive energy:  -4.337 eV/atom
print           "Atomic volume               ${atmVol} A^3"
Atomic volume               17.820484928 A^3
print           "Lattice constant            ${aLatt} A"
Lattice constant            2.61199999974922 A
print           "Reference lattice constant  2.612 A"
Reference lattice constant  2.612 A
print           "===================================================="
====================================================


#dump           1 all custom 1 sc.dump id type x y z fx fy fz
#run            0


Total wall time: 0:00:00
