LAMMPS (3 Nov 2022)
OMP_NUM_THREADS environment is not set. Defaulting to 1 thread. (src/comm.cpp:98)
  using 1 OpenMP thread(s) per MPI task
# Si bcc

units           metal
boundary        p p p

atom_style      atomic
lattice         bcc 3.2488516
Lattice spacing in x,y,z = 3.2488516 3.2488516 3.2488516
region          box block 0 1 0 1 0 1
create_box              1 box
Created orthogonal box = (0 0 0) to (3.2488516 3.2488516 3.2488516)
  1 by 2 by 2 MPI processor grid
create_atoms    1 box
Created 2 atoms
  using lattice units in orthogonal box = (0 0 0) to (3.2488516 3.2488516 3.2488516)
  create_atoms CPU = 0.000 seconds

pair_style      meam/sw/spline
pair_coeff      * * Si.b.meam.sw.spline Si
Reading meam/sw/spline potential file Si.b.meam.sw.spline with DATE: 2012-10-26
mass            * 28.085

fix                     relax all box/relax aniso 0
thermo          1
minimize        0 0 10000 100000
Neighbor list info ...
  update: every = 1 steps, delay = 0 steps, check = yes
  max neighbors/atom: 2000, page size: 100000
  master list distance cutoff = 6.4
  ghost atom cutoff = 6.4
  binsize = 3.2, bins = 2 2 2
  2 neighbor lists, perpetual/occasional/extra = 2 0 0
  (1) pair meam/sw/spline, perpetual
      attributes: full, newton on
      pair build: full/bin/atomonly
      stencil: full/bin/3d
      bin: standard
  (2) pair meam/sw/spline, perpetual, half/full from (1)
      attributes: half, newton on
      pair build: halffull/newton
      stencil: none
      bin: none
WARNING: Proc sub-domain size < neighbor skin, could lead to lost atoms (src/domain.cpp:966)
Per MPI rank memory allocation (min/avg/max) = 4.87 | 4.87 | 4.87 Mbytes
   Step          Temp          E_pair         E_mol          TotEng         Press          Volume    
         0   0             -8.7404875      0             -8.7404875     -77295.383      34.291748    
         1   0             -8.7409767      0             -8.7409767     -75094.498      34.281461    
         2   0             -8.7414517      0             -8.7414517     -72888.657      34.271177    
         3   0             -8.7419124      0             -8.7419124     -70677.857      34.260895    
         4   0             -8.7423588      0             -8.7423588     -68462.093      34.250614    
         5   0             -8.7427909      0             -8.7427909     -66241.362      34.240336    
         6   0             -8.7432086      0             -8.7432086     -64015.66       34.23006     
         7   0             -8.743612       0             -8.743612      -61784.983      34.219786    
         8   0             -8.7440009      0             -8.7440009     -59549.327      34.209514    
         9   0             -8.7443755      0             -8.7443755     -57308.688      34.199244    
        10   0             -8.7447355      0             -8.7447355     -55063.062      34.188976    
        11   0             -8.7450812      0             -8.7450812     -52812.505      34.17871     
        12   0             -8.7454123      0             -8.7454123     -50557.316      34.168446    
        13   0             -8.7457288      0             -8.7457288     -48297.534      34.158184    
        14   0             -8.7460309      0             -8.7460309     -46033.158      34.147924    
        15   0             -8.7463183      0             -8.7463183     -43764.184      34.137666    
        16   0             -8.7465912      0             -8.7465912     -41490.611      34.127411    
        17   0             -8.7468494      0             -8.7468494     -39212.436      34.117157    
        18   0             -8.747093       0             -8.747093      -36929.656      34.106906    
        19   0             -8.747322       0             -8.747322      -34642.27       34.096656    
        20   0             -8.7475362      0             -8.7475362     -32350.275      34.086409    
        21   0             -8.7477357      0             -8.7477357     -30053.669      34.076163    
        22   0             -8.7479205      0             -8.7479205     -27752.449      34.06592     
        23   0             -8.7480906      0             -8.7480906     -25446.613      34.055679    
        24   0             -8.7482458      0             -8.7482458     -23136.159      34.045439    
        25   0             -8.7483863      0             -8.7483863     -20821.084      34.035202    
        26   0             -8.7485119      0             -8.7485119     -18501.386      34.024967    
        27   0             -8.7486226      0             -8.7486226     -16177.063      34.014734    
        28   0             -8.7487185      0             -8.7487185     -13848.113      34.004503    
        29   0             -8.7487994      0             -8.7487994     -11514.532      33.994274    
        30   0             -8.7488655      0             -8.7488655     -9176.3196      33.984047    
        31   0             -8.7489166      0             -8.7489166     -6833.4722      33.973822    
        32   0             -8.7489527      0             -8.7489527     -4485.9879      33.963599    
        33   0             -8.7489738      0             -8.7489738     -2133.8643      33.953379    
        34   0             -8.74898        0             -8.74898       -0.15827233     33.944126    
        35   0             -8.74898        0             -8.74898       -4.165364e-06   33.944126    
        36   0             -8.74898        0             -8.74898        7.5475462e-10  33.944126    
        37   0             -8.74898        0             -8.74898       -1.1072621e-09  33.944126    
        38   0             -8.74898        0             -8.74898       -3.440686e-10   33.944126    
        39   0             -8.74898        0             -8.74898        2.6000133e-10  33.944126    
        40   0             -8.74898        0             -8.74898       -3.0882658e-10  33.944126    
        41   0             -8.74898        0             -8.74898        2.6038343e-10  33.944126    
        42   0             -8.74898        0             -8.74898       -3.0841718e-10  33.944126    
        43   0             -8.74898        0             -8.74898        1.1685158e-09  33.944126    
        44   0             -8.74898        0             -8.74898       -3.4208984e-10  33.944126    
        45   0             -8.74898        0             -8.74898        6.0400204e-10  33.944126    
        46   0             -8.74898        0             -8.74898       -6.4554544e-10  33.944126    
        47   0             -8.74898        0             -8.74898        6.0422039e-10  33.944126    
        48   0             -8.74898        0             -8.74898        2.0044632e-10  33.944126    
        49   0             -8.74898        0             -8.74898       -1.7980834e-09  33.944126    
        50   0             -8.74898        0             -8.74898        3.7178672e-10  33.944126    
        51   0             -8.74898        0             -8.74898        8.1236339e-10  33.944126    
        52   0             -8.74898        0             -8.74898        6.0422039e-10  33.944126    
        53   0             -8.74898        0             -8.74898       -6.4531344e-10  33.944126    
        54   0             -8.74898        0             -8.74898        8.0702757e-10  33.944126    
        55   0             -8.74898        0             -8.74898       -1.658135e-09   33.944126    
        56   0             -8.74898        0             -8.74898        1.5190171e-10  33.944126    
        57   0             -8.74898        0             -8.74898        1.0703896e-09  33.944126    
        58   0             -8.74898        0             -8.74898        8.3110552e-10  33.944126    
        59   0             -8.74898        0             -8.74898       -6.3462258e-10  33.944126    
        60   0             -8.74898        0             -8.74898        8.5957234e-10  33.944126    
        61   0             -8.74898        0             -8.74898       -1.4233944e-09  33.944126    
        62   0             -8.74898        0             -8.74898        2.1650453e-09  33.944126    
        63   0             -8.74898        0             -8.74898       -1.8101607e-09  33.944126    
        64   0             -8.74898        0             -8.74898        2.1514259e-09  33.944126    
        65   0             -8.74898        0             -8.74898       -1.6209555e-09  33.944126    
        66   0             -8.74898        0             -8.74898        1.997367e-10   33.944126    
        67   0             -8.74898        0             -8.74898        1.995047e-10   33.944126    
        68   0             -8.74898        0             -8.74898        1.9998234e-10  33.944126    
        69   0             -8.74898        0             -8.74898        1.8647219e-10  33.944126    
        70   0             -8.74898        0             -8.74898       -1.0678984e-09  33.944126    
        71   0             -8.74898        0             -8.74898        1.9908166e-10  33.944126    
        72   0             -8.74898        0             -8.74898        1.9954564e-10  33.944126    
        73   0             -8.74898        0             -8.74898        2.0002328e-10  33.944126    
        74   0             -8.74898        0             -8.74898        1.8652678e-10  33.944126    
        75   0             -8.74898        0             -8.74898        2.6016176e-10  33.944126    
        76   0             -8.74898        0             -8.74898       -1.067257e-09   33.944126    
        77   0             -8.74898        0             -8.74898        1.997094e-10   33.944126    
        78   0             -8.74898        0             -8.74898        2.0020068e-10  33.944126    
        79   0             -8.74898        0             -8.74898        1.8669054e-10  33.944126    
        80   0             -8.74898        0             -8.74898        2.7431329e-10  33.944126    
        81   0             -8.74898        0             -8.74898       -1.0671206e-09  33.944126    
        82   0             -8.74898        0             -8.74898        1.9985952e-10  33.944126    
        83   0             -8.74898        0             -8.74898        2.0033715e-10  33.944126    
        84   0             -8.74898        0             -8.74898        2.7397212e-10  33.944126    
        85   0             -8.74898        0             -8.74898        2.7455893e-10  33.944126    
        86   0             -8.74898        0             -8.74898       -1.6990178e-09  33.944126    
        87   0             -8.74898        0             -8.74898        1.6201969e-09  33.944126    
        88   0             -8.74898        0             -8.74898        2.3299136e-10  33.944126    
        89   0             -8.74898        0             -8.74898       -1.8246534e-09  33.944126    
        90   0             -8.74898        0             -8.74898        5.5113651e-10  33.944126    
        91   0             -8.74898        0             -8.74898        6.0471166e-10  33.944126    
        92   0             -8.74898        0             -8.74898        5.4278145e-10  33.944126    
        93   0             -8.74898        0             -8.74898       -1.6989632e-09  33.944126    
        94   0             -8.74898        0             -8.74898        5.5139579e-10  33.944126    
        95   0             -8.74898        0             -8.74898        6.049573e-10   33.944126    
        96   0             -8.74898        0             -8.74898        5.4302709e-10  33.944126    
        97   0             -8.74898        0             -8.74898       -1.3953026e-09  33.944126    
        98   0             -8.74898        0             -8.74898        6.0424768e-10  33.944126    
        99   0             -8.74898        0             -8.74898        6.0539399e-10  33.944126    
       100   0             -8.74898        0             -8.74898        5.4346378e-10  33.944126    
       101   0             -8.74898        0             -8.74898       -1.8102698e-09  33.944126    
       102   0             -8.74898        0             -8.74898        5.7242355e-10  33.944126    
       103   0             -8.74898        0             -8.74898        6.0514836e-10  33.944126    
       104   0             -8.74898        0             -8.74898        5.4321814e-10  33.944126    
       105   0             -8.74898        0             -8.74898       -1.8104882e-09  33.944126    
       106   0             -8.74898        0             -8.74898        6.1089747e-10  33.944126    
       107   0             -8.74898        0             -8.74898        6.0490272e-10  33.944126    
       108   0             -8.74898        0             -8.74898       -9.4540466e-10  33.944126    
       109   0             -8.74898        0             -8.74898        3.9474001e-10  33.944126    
       110   0             -8.74898        0             -8.74898        6.0506648e-10  33.944126    
       111   0             -8.74898        0             -8.74898        5.4314991e-10  33.944126    
       112   0             -8.74898        0             -8.74898       -1.8105701e-09  33.944126    
       113   0             -8.74898        0             -8.74898        6.1081559e-10  33.944126    
       114   0             -8.74898        0             -8.74898        6.0484813e-10  33.944126    
       115   0             -8.74898        0             -8.74898       -9.4547289e-10  33.944126    
       116   0             -8.74898        0             -8.74898        3.9468542e-10  33.944126    
       117   0             -8.74898        0             -8.74898        6.0503918e-10  33.944126    
       118   0             -8.74898        0             -8.74898        5.5708309e-10  33.944126    
       119   0             -8.74898        0             -8.74898       -1.8106246e-09  33.944126    
       120   0             -8.74898        0             -8.74898        6.1077465e-10  33.944126    
       121   0             -8.74898        0             -8.74898        6.0479354e-10  33.944126    
       122   0             -8.74898        0             -8.74898        5.5681016e-10  33.944126    
       123   0             -8.74898        0             -8.74898       -1.8108976e-09  33.944126    
       124   0             -8.74898        0             -8.74898        6.1048808e-10  33.944126    
       125   0             -8.74898        0             -8.74898        6.0452061e-10  33.944126    
       126   0             -8.74898        0             -8.74898       -6.5900099e-10  33.944126    
       127   0             -8.74898        0             -8.74898        6.0471166e-10  33.944126    
       128   0             -8.74898        0             -8.74898        5.5675558e-10  33.944126    
       129   0             -8.74898        0             -8.74898       -1.8109795e-09  33.944126    
       130   0             -8.74898        0             -8.74898       -1.1005979e-10  33.944126    
       131   0             -8.74898        0             -8.74898       -4.0046826e-10  33.944126    
       132   0             -8.74898        0             -8.74898        5.72641e-10    33.944126    
       133   0             -8.74898        0             -8.74898        2.8764936e-10  33.944126    
       134   0             -8.74898        0             -8.74898        2.6035614e-10  33.944126    
       135   0             -8.74898        0             -8.74898        5.8229418e-10  33.944126    
       136   0             -8.74898        0             -8.74898       -3.212177e-10   33.944126    
       137   0             -8.74898        0             -8.74898        3.8041107e-10  33.944126    
       138   0             -8.74898        0             -8.74898       -3.3475513e-10  33.944126    
       139   0             -8.74898        0             -8.74898        3.808614e-10   33.944126    
       140   0             -8.74898        0             -8.74898        3.8163926e-10  33.944126    
       141   0             -8.74898        0             -8.74898       -9.3155335e-10  33.944126    
       142   0             -8.74898        0             -8.74898        3.9461719e-10  33.944126    
       143   0             -8.74898        0             -8.74898        3.8142092e-10  33.944126    
       144   0             -8.74898        0             -8.74898        6.1982409e-10  33.944126    
       145   0             -8.74898        0             -8.74898       -1.8109522e-09  33.944126    
       146   0             -8.74898        0             -8.74898        6.1043349e-10  33.944126    
       147   0             -8.74898        0             -8.74898        3.9490376e-10  33.944126    
       148   0             -8.74898        0             -8.74898        3.8170749e-10  33.944126    
       149   0             -8.74898        0             -8.74898       -9.454456e-10   33.944126    
       150   0             -8.74898        0             -8.74898        3.9471271e-10  33.944126    
       151   0             -8.74898        0             -8.74898        3.9549057e-10  33.944126    
       152   0             -8.74898        0             -8.74898        5.5672828e-10  33.944126    
       153   0             -8.74898        0             -8.74898       -1.8109931e-09  33.944126    
       154   0             -8.74898        0             -8.74898        6.1039255e-10  33.944126    
       155   0             -8.74898        0             -8.74898        3.9486282e-10  33.944126    
       156   0             -8.74898        0             -8.74898        3.8166655e-10  33.944126    
       157   0             -8.74898        0             -8.74898       -1.6999185e-09  33.944126    
       158   0             -8.74898        0             -8.74898       -9.652235e-11   33.944126    
       159   0             -8.74898        0             -8.74898        5.734325e-10   33.944126    
       160   0             -8.74898        0             -8.74898        2.6049261e-10  33.944126    
       161   0             -8.74898        0             -8.74898        6.1039255e-10  33.944126    
       162   0             -8.74898        0             -8.74898       -3.2108123e-10  33.944126    
       163   0             -8.74898        0             -8.74898        3.8053389e-10  33.944126    
       164   0             -8.74898        0             -8.74898        3.8131174e-10  33.944126    
       165   0             -8.74898        0             -8.74898       -3.3382716e-10  33.944126    
       166   0             -8.74898        0             -8.74898        3.8177573e-10  33.944126    
       167   0             -8.74898        0             -8.74898        5.5697392e-10  33.944126    
       168   0             -8.74898        0             -8.74898       -1.8106792e-09  33.944126    
       169   0             -8.74898        0             -8.74898       -1.0975956e-10  33.944126    
       170   0             -8.74898        0             -8.74898       -7.9821238e-10  33.944126    
       171   0             -8.74898        0             -8.74898        9.9578361e-10  33.944126    
       172   0             -8.74898        0             -8.74898        6.1001044e-10  33.944126    
       173   0             -8.74898        0             -8.74898        3.9448072e-10  33.944126    
       174   0             -8.74898        0             -8.74898        3.8128445e-10  33.944126    
       175   0             -8.74898        0             -8.74898       -5.1577738e-10  33.944126    
       176   0             -8.74898        0             -8.74898        3.9539504e-10  33.944126    
       177   0             -8.74898        0             -8.74898        6.1982409e-10  33.944126    
       178   0             -8.74898        0             -8.74898       -1.8109522e-09  33.944126    
       179   0             -8.74898        0             -8.74898       -1.1003249e-10  33.944126    
       180   0             -8.74898        0             -8.74898       -7.9847167e-10  33.944126    
       181   0             -8.74898        0             -8.74898        8.6198592e-10  33.944126    
       182   0             -8.74898        0             -8.74898       -1.0046007e-10  33.944126    
       183   0             -8.74898        0             -8.74898        8.471106e-10   33.944126    
       184   0             -8.74898        0             -8.74898        1.5024416e-10  33.944126    
       185   0             -8.74898        0             -8.74898       -1.2910362e-09  33.944126    
       186   0             -8.74898        0             -8.74898        1.190484e-09   33.944126    
       187   0             -8.74898        0             -8.74898       -1.2913365e-09  33.944126    
       188   0             -8.74898        0             -8.74898        1.1901701e-09  33.944126    
       189   0             -8.74898        0             -8.74898        3.8202137e-10  33.944126    
       190   0             -8.74898        0             -8.74898       -1.2908452e-09  33.944126    
       191   0             -8.74898        0             -8.74898        1.1556197e-09  33.944126    
       192   0             -8.74898        0             -8.74898        6.1996055e-10  33.944126    
       193   0             -8.74898        0             -8.74898       -1.810843e-09   33.944126    
       194   0             -8.74898        0             -8.74898        6.1054266e-10  33.944126    
       195   0             -8.74898        0             -8.74898        3.9499929e-10  33.944126    
       196   0             -8.74898        0             -8.74898        3.9577715e-10  33.944126    
       197   0             -8.74898        0             -8.74898       -9.4536372e-10  33.944126    
       198   0             -8.74898        0             -8.74898        3.9480824e-10  33.944126    
       199   0             -8.74898        0             -8.74898        3.9558609e-10  33.944126    
       200   0             -8.74898        0             -8.74898        5.5681016e-10  33.944126    
       201   0             -8.74898        0             -8.74898       -1.8108703e-09  33.944126    
       202   0             -8.74898        0             -8.74898       -1.0995061e-10  33.944126    
       203   0             -8.74898        0             -8.74898        8.6092096e-10  33.944126    
       204   0             -8.74898        0             -8.74898        3.9431696e-10  33.944126    
       205   0             -8.74898        0             -8.74898        3.9509482e-10  33.944126    
       206   0             -8.74898        0             -8.74898       -3.5539528e-10  33.944126    
       207   0             -8.74898        0             -8.74898        3.9506752e-10  33.944126    
       208   0             -8.74898        0             -8.74898        2.0050091e-10  33.944126    
       209   0             -8.74898        0             -8.74898        2.4618763e-10  33.944126    
       210   0             -8.74898        0             -8.74898       -1.811498e-09   33.944126    
       211   0             -8.74898        0             -8.74898        7.1780001e-10  33.944126    
       212   0             -8.74898        0             -8.74898        3.9448072e-10  33.944126    
       213   0             -8.74898        0             -8.74898        1.9990046e-10  33.944126    
       214   0             -8.74898        0             -8.74898        2.0037809e-10  33.944126    
       215   0             -8.74898        0             -8.74898        2.4606481e-10  33.944126    
       216   0             -8.74898        0             -8.74898       -1.6996183e-09  33.944126    
       217   0             -8.74898        0             -8.74898        7.1820941e-10  33.944126    
       218   0             -8.74898        0             -8.74898        3.9487647e-10  33.944126    
       219   0             -8.74898        0             -8.74898        2.0030985e-10  33.944126    
       220   0             -8.74898        0             -8.74898        2.0077384e-10  33.944126    
       221   0             -8.74898        0             -8.74898       -1.6997274e-09  33.944126    
       222   0             -8.74898        0             -8.74898        7.1808659e-10  33.944126    
       223   0             -8.74898        0             -8.74898        3.947673e-10   33.944126    
       224   0             -8.74898        0             -8.74898        2.0020068e-10  33.944126    
       225   0             -8.74898        0             -8.74898        2.0066467e-10  33.944126    
       226   0             -8.74898        0             -8.74898        2.4636503e-10  33.944126    
       227   0             -8.74898        0             -8.74898       -1.8113343e-09  33.944126    
       228   0             -8.74898        0             -8.74898        7.1796377e-10  33.944126    
       229   0             -8.74898        0             -8.74898        1.993e-10      33.944126    
       230   0             -8.74898        0             -8.74898        1.9976399e-10  33.944126    
       231   0             -8.74898        0             -8.74898        2.0022797e-10  33.944126    
       232   0             -8.74898        0             -8.74898        2.0071925e-10  33.944126    
       233   0             -8.74898        0             -8.74898        2.324182e-10   33.944126    
       234   0             -8.74898        0             -8.74898       -1.6992634e-09  33.944126    
       235   0             -8.74898        0             -8.74898       -1.0981415e-10  33.944126    
       236   0             -8.74898        0             -8.74898       -4.0023627e-10  33.944126    
       237   0             -8.74898        0             -8.74898       -2.2655902e-10  33.944126    
       238   0             -8.74898        0             -8.74898        9.6761701e-10  33.944126    
       239   0             -8.74898        0             -8.74898        2.6057449e-10  33.944126    
       240   0             -8.74898        0             -8.74898        6.1048808e-10  33.944126    
       241   0             -8.74898        0             -8.74898       -3.348916e-10   33.944126    
       242   0             -8.74898        0             -8.74898        3.8069764e-10  33.944126    
       243   0             -8.74898        0             -8.74898       -3.344822e-10   33.944126    
       244   0             -8.74898        0             -8.74898        3.9512211e-10  33.944126    
       245   0             -8.74898        0             -8.74898        3.8192584e-10  33.944126    
       246   0             -8.74898        0             -8.74898       -1.6996455e-09  33.944126    
       247   0             -8.74898        0             -8.74898        7.1818211e-10  33.944126    
       248   0             -8.74898        0             -8.74898        4.0883695e-10  33.944126    
       249   0             -8.74898        0             -8.74898        3.9564068e-10  33.944126    
       250   0             -8.74898        0             -8.74898        6.2006972e-10  33.944126    
       251   0             -8.74898        0             -8.74898       -1.8107065e-09  33.944126    
       252   0             -8.74898        0             -8.74898        6.1067913e-10  33.944126    
       253   0             -8.74898        0             -8.74898        3.9513576e-10  33.944126    
       254   0             -8.74898        0             -8.74898        3.8193949e-10  33.944126    
       255   0             -8.74898        0             -8.74898       -1.6996183e-09  33.944126    
       256   0             -8.74898        0             -8.74898        7.4615766e-10  33.944126    
       257   0             -8.74898        0             -8.74898        3.9487647e-10  33.944126    
       258   0             -8.74898        0             -8.74898        3.9565433e-10  33.944126    
       259   0             -8.74898        0             -8.74898        2.4631045e-10  33.944126    
       260   0             -8.74898        0             -8.74898       -1.6993726e-09  33.944126    
       261   0             -8.74898        0             -8.74898        7.1846869e-10  33.944126    
       262   0             -8.74898        0             -8.74898        3.9513576e-10  33.944126    
       263   0             -8.74898        0             -8.74898        3.9591361e-10  33.944126    
       264   0             -8.74898        0             -8.74898        2.4658338e-10  33.944126    
       265   0             -8.74898        0             -8.74898       -1.8110886e-09  33.944126    
       266   0             -8.74898        0             -8.74898        7.1820941e-10  33.944126    
       267   0             -8.74898        0             -8.74898        3.9487647e-10  33.944126    
       268   0             -8.74898        0             -8.74898        2.0030985e-10  33.944126    
       269   0             -8.74898        0             -8.74898        2.0077384e-10  33.944126    
       270   0             -8.74898        0             -8.74898        2.4647421e-10  33.944126    
       271   0             -8.74898        0             -8.74898       -1.6992089e-09  33.944126    
       272   0             -8.74898        0             -8.74898        7.1863245e-10  33.944126    
       273   0             -8.74898        0             -8.74898        3.9529952e-10  33.944126    
       274   0             -8.74898        0             -8.74898        2.007329e-10   33.944126    
       275   0             -8.74898        0             -8.74898        2.7436788e-10  33.944126    
       276   0             -8.74898        0             -8.74898       -1.6992362e-09  33.944126    
       277   0             -8.74898        0             -8.74898        7.1860516e-10  33.944126    
       278   0             -8.74898        0             -8.74898        3.9528587e-10  33.944126    
       279   0             -8.74898        0             -8.74898        2.0071925e-10  33.944126    
       280   0             -8.74898        0             -8.74898        2.8831471e-10  33.944126    
       281   0             -8.74898        0             -8.74898       -1.6992362e-09  33.944126    
       282   0             -8.74898        0             -8.74898        7.1860516e-10  33.944126    
       283   0             -8.74898        0             -8.74898        3.9528587e-10  33.944126    
       284   0             -8.74898        0             -8.74898        2.0071925e-10  33.944126    
       285   0             -8.74898        0             -8.74898        2.8831471e-10  33.944126    
       286   0             -8.74898        0             -8.74898       -1.6992362e-09  33.944126    
       287   0             -8.74898        0             -8.74898        7.1860516e-10  33.944126    
       288   0             -8.74898        0             -8.74898        3.9528587e-10  33.944126    
       289   0             -8.74898        0             -8.74898        2.0071925e-10  33.944126    
       290   0             -8.74898        0             -8.74898        2.8831471e-10  33.944126    
       291   0             -8.74898        0             -8.74898       -1.6992362e-09  33.944126    
       292   0             -8.74898        0             -8.74898        7.1860516e-10  33.944126    
       293   0             -8.74898        0             -8.74898        3.9528587e-10  33.944126    
       294   0             -8.74898        0             -8.74898        2.0071925e-10  33.944126    
       295   0             -8.74898        0             -8.74898        2.8831471e-10  33.944126    
       296   0             -8.74898        0             -8.74898       -1.6992362e-09  33.944126    
       297   0             -8.74898        0             -8.74898        7.1860516e-10  33.944126    
       298   0             -8.74898        0             -8.74898        3.9528587e-10  33.944126    
       299   0             -8.74898        0             -8.74898        2.0071925e-10  33.944126    
       300   0             -8.74898        0             -8.74898        2.8831471e-10  33.944126    
       301   0             -8.74898        0             -8.74898        2.4696548e-10  33.944126    
       302   0             -8.74898        0             -8.74898       -1.8107065e-09  33.944126    
       303   0             -8.74898        0             -8.74898        7.1860516e-10  33.944126    
       304   0             -8.74898        0             -8.74898        3.9528587e-10  33.944126    
       305   0             -8.74898        0             -8.74898        2.0071925e-10  33.944126    
       306   0             -8.74898        0             -8.74898        2.8831471e-10  33.944126    
       307   0             -8.74898        0             -8.74898       -1.6992362e-09  33.944126    
       308   0             -8.74898        0             -8.74898        7.1860516e-10  33.944126    
       309   0             -8.74898        0             -8.74898        3.9528587e-10  33.944126    
       310   0             -8.74898        0             -8.74898        2.0071925e-10  33.944126    
       311   0             -8.74898        0             -8.74898        2.8831471e-10  33.944126    
       312   0             -8.74898        0             -8.74898       -1.6992362e-09  33.944126    
       313   0             -8.74898        0             -8.74898        7.1860516e-10  33.944126    
       314   0             -8.74898        0             -8.74898        3.9528587e-10  33.944126    
       315   0             -8.74898        0             -8.74898        2.0071925e-10  33.944126    
       316   0             -8.74898        0             -8.74898        2.8831471e-10  33.944126    
       317   0             -8.74898        0             -8.74898       -1.6992362e-09  33.944126    
       318   0             -8.74898        0             -8.74898        7.1860516e-10  33.944126    
       319   0             -8.74898        0             -8.74898        3.9528587e-10  33.944126    
       320   0             -8.74898        0             -8.74898        2.0071925e-10  33.944126    
       321   0             -8.74898        0             -8.74898        2.8831471e-10  33.944126    
       322   0             -8.74898        0             -8.74898       -1.6992362e-09  33.944126    
       323   0             -8.74898        0             -8.74898        7.1860516e-10  33.944126    
       324   0             -8.74898        0             -8.74898        3.9528587e-10  33.944126    
       325   0             -8.74898        0             -8.74898        2.0071925e-10  33.944126    
       326   0             -8.74898        0             -8.74898        2.8831471e-10  33.944126    
       327   0             -8.74898        0             -8.74898       -1.6992362e-09  33.944126    
       328   0             -8.74898        0             -8.74898        7.1860516e-10  33.944126    
       329   0             -8.74898        0             -8.74898        3.9528587e-10  33.944126    
       330   0             -8.74898        0             -8.74898        6.0561234e-10  33.944126    
       331   0             -8.74898        0             -8.74898        2.470883e-10   33.944126    
       332   0             -8.74898        0             -8.74898       -1.8105974e-09  33.944126    
       333   0             -8.74898        0             -8.74898        7.1872798e-10  33.944126    
       334   0             -8.74898        0             -8.74898        6.049573e-10   33.944126    
       335   0             -8.74898        0             -8.74898        2.88342e-10    33.944126    
       336   0             -8.74898        0             -8.74898       -1.6992362e-09  33.944126    
       337   0             -8.74898        0             -8.74898        7.1860516e-10  33.944126    
       338   0             -8.74898        0             -8.74898        3.9528587e-10  33.944126    
       339   0             -8.74898        0             -8.74898        2.0071925e-10  33.944126    
       340   0             -8.74898        0             -8.74898        2.7434058e-10  33.944126    
       341   0             -8.74898        0             -8.74898       -1.6992634e-09  33.944126    
       342   0             -8.74898        0             -8.74898        7.1857786e-10  33.944126    
       343   0             -8.74898        0             -8.74898        3.9525858e-10  33.944126    
       344   0             -8.74898        0             -8.74898        2.0069196e-10  33.944126    
       345   0             -8.74898        0             -8.74898        2.8830106e-10  33.944126    
       346   0             -8.74898        0             -8.74898       -1.6992634e-09  33.944126    
       347   0             -8.74898        0             -8.74898        7.1857786e-10  33.944126    
       348   0             -8.74898        0             -8.74898        3.9525858e-10  33.944126    
       349   0             -8.74898        0             -8.74898        2.0069196e-10  33.944126    
       350   0             -8.74898        0             -8.74898        2.8830106e-10  33.944126    
       351   0             -8.74898        0             -8.74898       -1.6992907e-09  33.944126    
       352   0             -8.74898        0             -8.74898        7.1856422e-10  33.944126    
       353   0             -8.74898        0             -8.74898        3.9523128e-10  33.944126    
       354   0             -8.74898        0             -8.74898        6.0558505e-10  33.944126    
       355   0             -8.74898        0             -8.74898       -1.8111705e-09  33.944126    
       356   0             -8.74898        0             -8.74898        7.1812753e-10  33.944126    
       357   0             -8.74898        0             -8.74898        3.9480824e-10  33.944126    
       358   0             -8.74898        0             -8.74898        2.0022797e-10  33.944126    
       359   0             -8.74898        0             -8.74898        2.0071925e-10  33.944126    
       360   0             -8.74898        0             -8.74898        2.4639233e-10  33.944126    
       361   0             -8.74898        0             -8.74898       -1.6992907e-09  33.944126    
       362   0             -8.74898        0             -8.74898        7.1856422e-10  33.944126    
       363   0             -8.74898        0             -8.74898        6.0479354e-10  33.944126    
       364   0             -8.74898        0             -8.74898        2.8815095e-10  33.944126    
       365   0             -8.74898        0             -8.74898       -1.6994272e-09  33.944126    
       366   0             -8.74898        0             -8.74898        7.1838681e-10  33.944126    
       367   0             -8.74898        0             -8.74898        3.9506752e-10  33.944126    
       368   0             -8.74898        0             -8.74898        2.0050091e-10  33.944126    
       369   0             -8.74898        0             -8.74898        2.8811001e-10  33.944126    
       370   0             -8.74898        0             -8.74898       -1.6994545e-09  33.944126    
       371   0             -8.74898        0             -8.74898        7.1837316e-10  33.944126    
       372   0             -8.74898        0             -8.74898        3.9504023e-10  33.944126    
       373   0             -8.74898        0             -8.74898        2.0047361e-10  33.944126    
       374   0             -8.74898        0             -8.74898        2.8809636e-10  33.944126    
       375   0             -8.74898        0             -8.74898       -1.6994818e-09  33.944126    
       376   0             -8.74898        0             -8.74898        7.1834587e-10  33.944126    
       377   0             -8.74898        0             -8.74898        3.9502658e-10  33.944126    
       378   0             -8.74898        0             -8.74898        6.053667e-10   33.944126    
       379   0             -8.74898        0             -8.74898       -1.6993726e-09  33.944126    
       380   0             -8.74898        0             -8.74898        7.1846869e-10  33.944126    
       381   0             -8.74898        0             -8.74898        3.9513576e-10  33.944126    
       382   0             -8.74898        0             -8.74898        2.0055549e-10  33.944126    
       383   0             -8.74898        0             -8.74898        2.8817824e-10  33.944126    
       384   0             -8.74898        0             -8.74898       -1.6993726e-09  33.944126    
       385   0             -8.74898        0             -8.74898        7.1846869e-10  33.944126    
       386   0             -8.74898        0             -8.74898        3.9513576e-10  33.944126    
       387   0             -8.74898        0             -8.74898        2.0055549e-10  33.944126    
       388   0             -8.74898        0             -8.74898        2.8817824e-10  33.944126    
       389   0             -8.74898        0             -8.74898        2.4682902e-10  33.944126    
       390   0             -8.74898        0             -8.74898       -1.810843e-09   33.944126    
       391   0             -8.74898        0             -8.74898        7.1846869e-10  33.944126    
       392   0             -8.74898        0             -8.74898        6.0471166e-10  33.944126    
       393   0             -8.74898        0             -8.74898        2.8806907e-10  33.944126    
       394   0             -8.74898        0             -8.74898       -1.6995091e-09  33.944126    
       395   0             -8.74898        0             -8.74898        7.1829128e-10  33.944126    
       396   0             -8.74898        0             -8.74898        3.94972e-10    33.944126    
       397   0             -8.74898        0             -8.74898        2.0039173e-10  33.944126    
       398   0             -8.74898        0             -8.74898        2.8801448e-10  33.944126    
       399   0             -8.74898        0             -8.74898       -1.6995364e-09  33.944126    
       400   0             -8.74898        0             -8.74898        7.1827764e-10  33.944126    
       401   0             -8.74898        0             -8.74898        3.949447e-10   33.944126    
       402   0             -8.74898        0             -8.74898        2.0037809e-10  33.944126    
       403   0             -8.74898        0             -8.74898        2.8798719e-10  33.944126    
       404   0             -8.74898        0             -8.74898       -1.6995637e-09  33.944126    
       405   0             -8.74898        0             -8.74898        7.1825034e-10  33.944126    
       406   0             -8.74898        0             -8.74898        3.9493106e-10  33.944126    
       407   0             -8.74898        0             -8.74898        2.0036444e-10  33.944126    
       408   0             -8.74898        0             -8.74898        2.879599e-10   33.944126    
       409   0             -8.74898        0             -8.74898       -1.699591e-09   33.944126    
       410   0             -8.74898        0             -8.74898        7.1822305e-10  33.944126    
       411   0             -8.74898        0             -8.74898        3.9490376e-10  33.944126    
       412   0             -8.74898        0             -8.74898        6.0524388e-10  33.944126    
       413   0             -8.74898        0             -8.74898       -1.6994954e-09  33.944126    
       414   0             -8.74898        0             -8.74898        7.1831858e-10  33.944126    
       415   0             -8.74898        0             -8.74898        3.9499929e-10  33.944126    
       416   0             -8.74898        0             -8.74898        2.0041903e-10  33.944126    
       417   0             -8.74898        0             -8.74898        2.8804178e-10  33.944126    
       418   0             -8.74898        0             -8.74898       -1.6995091e-09  33.944126    
       419   0             -8.74898        0             -8.74898        7.1829128e-10  33.944126    
       420   0             -8.74898        0             -8.74898        3.94972e-10    33.944126    
       421   0             -8.74898        0             -8.74898        6.0531211e-10  33.944126    
       422   0             -8.74898        0             -8.74898       -1.6854555e-09  33.944126    
       423   0             -8.74898        0             -8.74898        7.3915289e-10  33.944126    
       424   0             -8.74898        0             -8.74898        3.9468542e-10  33.944126    
       425   0             -8.74898        0             -8.74898        2.001188e-10   33.944126    
       426   0             -8.74898        0             -8.74898        2.0058279e-10  33.944126    
       427   0             -8.74898        0             -8.74898       -1.6999185e-09  33.944126    
       428   0             -8.74898        0             -8.74898        7.1789553e-10  33.944126    
       429   0             -8.74898        0             -8.74898        3.9457625e-10  33.944126    
       430   0             -8.74898        0             -8.74898        2.0000963e-10  33.944126    
       431   0             -8.74898        0             -8.74898        2.0047361e-10  33.944126    
       432   0             -8.74898        0             -8.74898        2.4617398e-10  33.944126    
       433   0             -8.74898        0             -8.74898       -1.6995091e-09  33.944126    
       434   0             -8.74898        0             -8.74898        7.1829128e-10  33.944126    
       435   0             -8.74898        0             -8.74898        6.045479e-10   33.944126    
       436   0             -8.74898        0             -8.74898        2.0074655e-10  33.944126    
       437   0             -8.74898        0             -8.74898        2.4644691e-10  33.944126    
       438   0             -8.74898        0             -8.74898       -1.8112251e-09  33.944126    
       439   0             -8.74898        0             -8.74898        7.1805929e-10  33.944126    
       440   0             -8.74898        0             -8.74898        1.9938188e-10  33.944126    
       441   0             -8.74898        0             -8.74898        1.9985952e-10  33.944126    
       442   0             -8.74898        0             -8.74898        2.0033715e-10  33.944126    
       443   0             -8.74898        0             -8.74898        2.3204974e-10  33.944126    
       444   0             -8.74898        0             -8.74898       -1.6996592e-09  33.944126    
       445   0             -8.74898        0             -8.74898        7.1815482e-10  33.944126    
       446   0             -8.74898        0             -8.74898        1.9949106e-10  33.944126    
       447   0             -8.74898        0             -8.74898        1.9995504e-10  33.944126    
       448   0             -8.74898        0             -8.74898        2.0041903e-10  33.944126    
       449   0             -8.74898        0             -8.74898        2.7406765e-10  33.944126    
       450   0             -8.74898        0             -8.74898       -1.6995091e-09  33.944126    
       451   0             -8.74898        0             -8.74898        7.1829128e-10  33.944126    
       452   0             -8.74898        0             -8.74898        1.9962752e-10  33.944126    
       453   0             -8.74898        0             -8.74898        2.0009151e-10  33.944126    
       454   0             -8.74898        0             -8.74898        2.0055549e-10  33.944126    
       455   0             -8.74898        0             -8.74898        2.3228173e-10  33.944126    
       456   0             -8.74898        0             -8.74898       -1.6994272e-09  33.944126    
       457   0             -8.74898        0             -8.74898        7.184141e-10   33.944126    
       458   0             -8.74898        0             -8.74898        1.997367e-10   33.944126    
       459   0             -8.74898        0             -8.74898        2.0020068e-10  33.944126    
       460   0             -8.74898        0             -8.74898        2.0069196e-10  33.944126    
       461   0             -8.74898        0             -8.74898        2.3240455e-10  33.944126    
       462   0             -8.74898        0             -8.74898       -1.6993044e-09  33.944126    
       463   0             -8.74898        0             -8.74898        7.1853692e-10  33.944126    
       464   0             -8.74898        0             -8.74898        1.9985952e-10  33.944126    
       465   0             -8.74898        0             -8.74898        2.0033715e-10  33.944126    
       466   0             -8.74898        0             -8.74898        2.7397212e-10  33.944126    
       467   0             -8.74898        0             -8.74898        2.3263655e-10  33.944126    
       468   0             -8.74898        0             -8.74898       -1.6990451e-09  33.944126    
       469   0             -8.74898        0             -8.74898       -1.095958e-10   33.944126    
       470   0             -8.74898        0             -8.74898       -1.1049648e-10  33.944126    
       471   0             -8.74898        0             -8.74898        5.7356897e-10  33.944126    
       472   0             -8.74898        0             -8.74898        2.6062907e-10  33.944126    
       473   0             -8.74898        0             -8.74898        6.1054266e-10  33.944126    
       474   0             -8.74898        0             -8.74898       -3.3485066e-10  33.944126    
       475   0             -8.74898        0             -8.74898        3.8073858e-10  33.944126    
       476   0             -8.74898        0             -8.74898       -3.3442761e-10  33.944126    
       477   0             -8.74898        0             -8.74898        3.9516305e-10  33.944126    
       478   0             -8.74898        0             -8.74898        3.8196678e-10  33.944126    
       479   0             -8.74898        0             -8.74898       -1.699591e-09   33.944126    
       480   0             -8.74898        0             -8.74898       -1.2414309e-10  33.944126    
       481   0             -8.74898        0             -8.74898        5.7397837e-10  33.944126    
       482   0             -8.74898        0             -8.74898        6.102015e-10   33.944126    
       483   0             -8.74898        0             -8.74898        3.9458989e-10  33.944126    
       484   0             -8.74898        0             -8.74898        3.8140727e-10  33.944126    
       485   0             -8.74898        0             -8.74898       -9.9460166e-10  33.944126    
       486   0             -8.74898        0             -8.74898        4.080318e-10   33.944126    
       487   0             -8.74898        0             -8.74898        3.9483553e-10  33.944126    
       488   0             -8.74898        0             -8.74898        3.4674062e-10  33.944126    
       489   0             -8.74898        0             -8.74898       -1.6998639e-09  33.944126    
       490   0             -8.74898        0             -8.74898       -1.2444331e-10  33.944126    
       491   0             -8.74898        0             -8.74898        5.7367814e-10  33.944126    
       492   0             -8.74898        0             -8.74898        6.0988763e-10  33.944126    
       493   0             -8.74898        0             -8.74898        3.9428967e-10  33.944126    
       494   0             -8.74898        0             -8.74898       -5.1675993e-10  33.944126    
       495   0             -8.74898        0             -8.74898        4.0840026e-10  33.944126    
       496   0             -8.74898        0             -8.74898        3.9521764e-10  33.944126    
       497   0             -8.74898        0             -8.74898        3.4712273e-10  33.944126    
       498   0             -8.74898        0             -8.74898       -1.6994954e-09  33.944126    
       499   0             -8.74898        0             -8.74898       -1.2406121e-10  33.944126    
       500   0             -8.74898        0             -8.74898       -7.9844438e-10  33.944126    
       501   0             -8.74898        0             -8.74898        1.2080228e-09  33.944126    
       502   0             -8.74898        0             -8.74898       -9.9518451e-11  33.944126    
       503   0             -8.74898        0             -8.74898        1.6382254e-10  33.944126    
       504   0             -8.74898        0             -8.74898        4.1007879e-10  33.944126    
       505   0             -8.74898        0             -8.74898       -1.2627416e-09  33.944126    
       506   0             -8.74898        0             -8.74898        3.8022001e-10  33.944126    
       507   0             -8.74898        0             -8.74898        4.0894612e-10  33.944126    
       508   0             -8.74898        0             -8.74898        3.9574985e-10  33.944126    
       509   0             -8.74898        0             -8.74898        6.6210128e-10  33.944126    
       510   0             -8.74898        0             -8.74898       -1.8105701e-09  33.944126    
       511   0             -8.74898        0             -8.74898        4.0804545e-10  33.944126    
       512   0             -8.74898        0             -8.74898        3.9486282e-10  33.944126    
       513   0             -8.74898        0             -8.74898        3.9564068e-10  33.944126    
       514   0             -8.74898        0             -8.74898        5.9533586e-10  33.944126    
       515   0             -8.74898        0             -8.74898       -1.8107065e-09  33.944126    
       516   0             -8.74898        0             -8.74898        1.1311623e-09  33.944126    
       517   0             -8.74898        0             -8.74898        2.007329e-10   33.944126    
       518   0             -8.74898        0             -8.74898        2.88342e-10    33.944126    
       519   0             -8.74898        0             -8.74898       -1.8111978e-09  33.944126    
       520   0             -8.74898        0             -8.74898        7.1109952e-10  33.944126    
       521   0             -8.74898        0             -8.74898        3.5986866e-10  33.944126    
       522   0             -8.74898        0             -8.74898        2.0025527e-10  33.944126    
       523   0             -8.74898        0             -8.74898        2.007329e-10   33.944126    
       524   0             -8.74898        0             -8.74898        2.88342e-10    33.944126    
       525   0             -8.74898        0             -8.74898       -1.6992089e-09  33.944126    
       526   0             -8.74898        0             -8.74898        7.1863245e-10  33.944126    
       527   0             -8.74898        0             -8.74898        1.9995504e-10  33.944126    
       528   0             -8.74898        0             -8.74898        2.0041903e-10  33.944126    
       529   0             -8.74898        0             -8.74898        2.8804178e-10  33.944126    
       530   0             -8.74898        0             -8.74898       -1.6995091e-09  33.944126    
       531   0             -8.74898        0             -8.74898        7.1130422e-10  33.944126    
       532   0             -8.74898        0             -8.74898        3.6005971e-10  33.944126    
       533   0             -8.74898        0             -8.74898        2.0047361e-10  33.944126    
       534   0             -8.74898        0             -8.74898        2.8809636e-10  33.944126    
       535   0             -8.74898        0             -8.74898        2.4673349e-10  33.944126    
       536   0             -8.74898        0             -8.74898       -1.8109522e-09  33.944126    
       537   0             -8.74898        0             -8.74898        7.1837316e-10  33.944126    
       538   0             -8.74898        0             -8.74898        1.9968211e-10  33.944126    
       539   0             -8.74898        0             -8.74898        2.0017339e-10  33.944126    
       540   0             -8.74898        0             -8.74898        2.0063737e-10  33.944126    
       541   0             -8.74898        0             -8.74898        2.8826012e-10  33.944126    
       542   0             -8.74898        0             -8.74898       -1.6993044e-09  33.944126    
       543   0             -8.74898        0             -8.74898        7.1853692e-10  33.944126    
       544   0             -8.74898        0             -8.74898        1.9985952e-10  33.944126    
       545   0             -8.74898        0             -8.74898        2.0033715e-10  33.944126    
       546   0             -8.74898        0             -8.74898        2.8794625e-10  33.944126    
       547   0             -8.74898        0             -8.74898       -1.6996183e-09  33.944126    
       548   0             -8.74898        0             -8.74898        7.1820941e-10  33.944126    
       549   0             -8.74898        0             -8.74898        1.9951835e-10  33.944126    
       550   0             -8.74898        0             -8.74898        2.0000963e-10  33.944126    
       551   0             -8.74898        0             -8.74898        2.0047361e-10  33.944126    
       552   0             -8.74898        0             -8.74898        2.8809636e-10  33.944126    
       553   0             -8.74898        0             -8.74898       -1.6994818e-09  33.944126    
       554   0             -8.74898        0             -8.74898        7.1834587e-10  33.944126    
       555   0             -8.74898        0             -8.74898        1.9966846e-10  33.944126    
       556   0             -8.74898        0             -8.74898        2.0014609e-10  33.944126    
       557   0             -8.74898        0             -8.74898        2.0061008e-10  33.944126    
       558   0             -8.74898        0             -8.74898        2.742587e-10   33.944126    
       559   0             -8.74898        0             -8.74898       -1.6993044e-09  33.944126    
       560   0             -8.74898        0             -8.74898        7.1853692e-10  33.944126    
       561   0             -8.74898        0             -8.74898        1.9985952e-10  33.944126    
       562   0             -8.74898        0             -8.74898        2.0033715e-10  33.944126    
       563   0             -8.74898        0             -8.74898        2.8794625e-10  33.944126    
       564   0             -8.74898        0             -8.74898        2.3260925e-10  33.944126    
       565   0             -8.74898        0             -8.74898       -1.6990724e-09  33.944126    
       566   0             -8.74898        0             -8.74898        7.1876892e-10  33.944126    
       567   0             -8.74898        0             -8.74898        2.0009151e-10  33.944126    
       568   0             -8.74898        0             -8.74898        2.0055549e-10  33.944126    
       569   0             -8.74898        0             -8.74898        2.8817824e-10  33.944126    
       570   0             -8.74898        0             -8.74898        2.3285489e-10  33.944126    
       571   0             -8.74898        0             -8.74898       -1.6988268e-09  33.944126    
       572   0             -8.74898        0             -8.74898       -1.0940475e-10  33.944126    
       573   0             -8.74898        0             -8.74898       -1.1027813e-10  33.944126    
       574   0             -8.74898        0             -8.74898       -7.9870366e-10  33.944126    
       575   0             -8.74898        0             -8.74898        1.2075861e-09  33.944126    
       576   0             -8.74898        0             -8.74898       -9.9955142e-11  33.944126    
       577   0             -8.74898        0             -8.74898       -1.6203917e-10  33.944126    
       578   0             -8.74898        0             -8.74898        9.0848978e-10  33.944126    
       579   0             -8.74898        0             -8.74898        2.2919058e-10  33.944126    
       580   0             -8.74898        0             -8.74898       -9.168416e-10   33.944126    
       581   0             -8.74898        0             -8.74898        1.6704559e-09  33.944126    
       582   0             -8.74898        0             -8.74898       -1.3670405e-09  33.944126    
       583   0             -8.74898        0             -8.74898        1.6565637e-09  33.944126    
       584   0             -8.74898        0             -8.74898       -1.3949068e-09  33.944126    
       585   0             -8.74898        0             -8.74898        7.9324449e-10  33.944126    
       586   0             -8.74898        0             -8.74898       -9.454456e-10   33.944126    
       587   0             -8.74898        0             -8.74898        8.0683652e-10  33.944126    
       588   0             -8.74898        0             -8.74898        5.9166551e-10  33.944126    
       589   0             -8.74898        0             -8.74898       -1.3677501e-09  33.944126    
       590   0             -8.74898        0             -8.74898        8.0641347e-10  33.944126    
       591   0             -8.74898        0             -8.74898        5.9125611e-10  33.944126    
       592   0             -8.74898        0             -8.74898       -1.3681868e-09  33.944126    
       593   0             -8.74898        0             -8.74898        8.0599043e-10  33.944126    
       594   0             -8.74898        0             -8.74898        5.9081942e-10  33.944126    
       595   0             -8.74898        0             -8.74898       -1.6999458e-09  33.944126    
       596   0             -8.74898        0             -8.74898        7.8442239e-10  33.944126    
       597   0             -8.74898        0             -8.74898        5.9032814e-10  33.944126    
       598   0             -8.74898        0             -8.74898       -3.5538164e-10  33.944126    
       599   0             -8.74898        0             -8.74898        5.9073754e-10  33.944126    
       600   0             -8.74898        0             -8.74898        2.7412224e-10  33.944126    
       601   0             -8.74898        0             -8.74898       -1.8114707e-09  33.944126    
       602   0             -8.74898        0             -8.74898        7.8440874e-10  33.944126    
       603   0             -8.74898        0             -8.74898        7.9286239e-10  33.944126    
       604   0             -8.74898        0             -8.74898       -6.4499957e-10  33.944126    
       605   0             -8.74898        0             -8.74898        7.9336731e-10  33.944126    
       606   0             -8.74898        0             -8.74898       -1.6578075e-09  33.944126    
       607   0             -8.74898        0             -8.74898        4.1393696e-10  33.944126    
       608   0             -8.74898        0             -8.74898        7.9903066e-10  33.944126    
       609   0             -8.74898        0             -8.74898        1.8600821e-10  33.944126    
       610   0             -8.74898        0             -8.74898        1.8647219e-10  33.944126    
       611   0             -8.74898        0             -8.74898       -1.7000549e-09  33.944126    
       612   0             -8.74898        0             -8.74898        4.1393696e-10  33.944126    
       613   0             -8.74898        0             -8.74898        7.9903066e-10  33.944126    
       614   0             -8.74898        0             -8.74898        5.9091494e-10  33.944126    
       615   0             -8.74898        0             -8.74898       -1.8118528e-09  33.944126    
       616   0             -8.74898        0             -8.74898        4.1365038e-10  33.944126    
       617   0             -8.74898        0             -8.74898        7.9874408e-10  33.944126    
       618   0             -8.74898        0             -8.74898        1.9968211e-10  33.944126    
       619   0             -8.74898        0             -8.74898        1.8619926e-10  33.944126    
       620   0             -8.74898        0             -8.74898       -6.4512239e-10  33.944126    
       621   0             -8.74898        0             -8.74898        7.9324449e-10  33.944126    
       622   0             -8.74898        0             -8.74898       -1.6579167e-09  33.944126    
       623   0             -8.74898        0             -8.74898        4.1381414e-10  33.944126    
       624   0             -8.74898        0             -8.74898        8.058949e-10   33.944126    
       625   0             -8.74898        0             -8.74898        1.8587174e-10  33.944126    
       626   0             -8.74898        0             -8.74898        1.8633573e-10  33.944126    
       627   0             -8.74898        0             -8.74898       -6.4498592e-10  33.944126    
       628   0             -8.74898        0             -8.74898        8.0436004e-10  33.944126    
       629   0             -8.74898        0             -8.74898       -1.6573572e-09  33.944126    
       630   0             -8.74898        0             -8.74898        8.1264997e-10  33.944126    
       631   0             -8.74898        0             -8.74898        5.904919e-10   33.944126    
       632   0             -8.74898        0             -8.74898        1.8674512e-10  33.944126    
       633   0             -8.74898        0             -8.74898       -1.8117983e-09  33.944126    
       634   0             -8.74898        0             -8.74898        4.1369132e-10  33.944126    
       635   0             -8.74898        0             -8.74898        7.9878502e-10  33.944126    
       636   0             -8.74898        0             -8.74898        1.997367e-10   33.944126    
       637   0             -8.74898        0             -8.74898        1.8622655e-10  33.944126    
       638   0             -8.74898        0             -8.74898       -6.450678e-10   33.944126    
       639   0             -8.74898        0             -8.74898        8.0426451e-10  33.944126    
       640   0             -8.74898        0             -8.74898       -1.6574527e-09  33.944126    
       641   0             -8.74898        0             -8.74898        8.0916599e-10  33.944126    
       642   0             -8.74898        0             -8.74898        1.9957294e-10  33.944126    
       643   0             -8.74898        0             -8.74898        1.8606279e-10  33.944126    
       644   0             -8.74898        0             -8.74898        1.8655407e-10  33.944126    
       645   0             -8.74898        0             -8.74898        2.7416318e-10  33.944126    
       646   0             -8.74898        0             -8.74898       -1.8113889e-09  33.944126    
       647   0             -8.74898        0             -8.74898        5.4343982e-10  33.944126    
       648   0             -8.74898        0             -8.74898        8.0656358e-10  33.944126    
       649   0             -8.74898        0             -8.74898        1.8658137e-10  33.944126    
       650   0             -8.74898        0             -8.74898       -1.6999458e-09  33.944126    
       651   0             -8.74898        0             -8.74898        5.4338523e-10  33.944126    
       652   0             -8.74898        0             -8.74898        8.06509e-10    33.944126    
       653   0             -8.74898        0             -8.74898        1.8655407e-10  33.944126    
       654   0             -8.74898        0             -8.74898        2.7416318e-10  33.944126    
       655   0             -8.74898        0             -8.74898       -1.8113889e-09  33.944126    
       656   0             -8.74898        0             -8.74898        5.4343982e-10  33.944126    
       657   0             -8.74898        0             -8.74898        6.0400204e-10  33.944126    
       658   0             -8.74898        0             -8.74898        2.0022797e-10  33.944126    
       659   0             -8.74898        0             -8.74898        1.8674512e-10  33.944126    
       660   0             -8.74898        0             -8.74898       -1.6998093e-09  33.944126    
       661   0             -8.74898        0             -8.74898        5.4353534e-10  33.944126    
       662   0             -8.74898        0             -8.74898        8.2061959e-10  33.944126    
       663   0             -8.74898        0             -8.74898        2.0069196e-10  33.944126    
       664   0             -8.74898        0             -8.74898        2.7432694e-10  33.944126    
       665   0             -8.74898        0             -8.74898       -1.8112251e-09  33.944126    
       666   0             -8.74898        0             -8.74898        5.5059064e-10  33.944126    
       667   0             -8.74898        0             -8.74898        6.041658e-10   33.944126    
       668   0             -8.74898        0             -8.74898        2.0039173e-10  33.944126    
       669   0             -8.74898        0             -8.74898        2.7404036e-10  33.944126    
       670   0             -8.74898        0             -8.74898       -1.6995091e-09  33.944126    
       671   0             -8.74898        0             -8.74898        7.254244e-10   33.944126    
       672   0             -8.74898        0             -8.74898        6.0449332e-10  33.944126    
       673   0             -8.74898        0             -8.74898        1.8674512e-10  33.944126    
       674   0             -8.74898        0             -8.74898       -1.6998093e-09  33.944126    
       675   0             -8.74898        0             -8.74898        7.1103129e-10  33.944126    
       676   0             -8.74898        0             -8.74898        6.0424768e-10  33.944126    
       677   0             -8.74898        0             -8.74898        2.0047361e-10  33.944126    
       678   0             -8.74898        0             -8.74898        2.7412224e-10  33.944126    
       679   0             -8.74898        0             -8.74898       -1.7974966e-09  33.944126    
       680   0             -8.74898        0             -8.74898        5.4337159e-10  33.944126    
       681   0             -8.74898        0             -8.74898        6.0392016e-10  33.944126    
       682   0             -8.74898        0             -8.74898        2.0017339e-10  33.944126    
       683   0             -8.74898        0             -8.74898        1.8666325e-10  33.944126    
       684   0             -8.74898        0             -8.74898       -1.6998639e-09  33.944126    
       685   0             -8.74898        0             -8.74898        7.1094941e-10  33.944126    
       686   0             -8.74898        0             -8.74898        6.0419309e-10  33.944126    
       687   0             -8.74898        0             -8.74898        2.0039173e-10  33.944126    
       688   0             -8.74898        0             -8.74898        2.7404036e-10  33.944126    
       689   0             -8.74898        0             -8.74898       -1.6995091e-09  33.944126    
       690   0             -8.74898        0             -8.74898        5.5080899e-10  33.944126    
       691   0             -8.74898        0             -8.74898        6.0435685e-10  33.944126    
       692   0             -8.74898        0             -8.74898        2.0061008e-10  33.944126    
       693   0             -8.74898        0             -8.74898        2.742587e-10   33.944126    
       694   0             -8.74898        0             -8.74898       -1.8113343e-09  33.944126    
       695   0             -8.74898        0             -8.74898        7.1796377e-10  33.944126    
       696   0             -8.74898        0             -8.74898        6.0419309e-10  33.944126    
       697   0             -8.74898        0             -8.74898        2.0041903e-10  33.944126    
       698   0             -8.74898        0             -8.74898        2.3214527e-10  33.944126    
       699   0             -8.74898        0             -8.74898       -1.6995637e-09  33.944126    
       700   0             -8.74898        0             -8.74898        5.507544e-10   33.944126    
       701   0             -8.74898        0             -8.74898        6.0432956e-10  33.944126    
       702   0             -8.74898        0             -8.74898        2.0054185e-10  33.944126    
       703   0             -8.74898        0             -8.74898        2.7417682e-10  33.944126    
       704   0             -8.74898        0             -8.74898       -1.6993726e-09  33.944126    
       705   0             -8.74898        0             -8.74898        7.1846869e-10  33.944126    
       706   0             -8.74898        0             -8.74898        6.0471166e-10  33.944126    
       707   0             -8.74898        0             -8.74898        2.7409494e-10  33.944126    
       708   0             -8.74898        0             -8.74898       -1.6994954e-09  33.944126    
       709   0             -8.74898        0             -8.74898        7.1831858e-10  33.944126    
       710   0             -8.74898        0             -8.74898        6.045479e-10   33.944126    
       711   0             -8.74898        0             -8.74898        2.0077384e-10  33.944126    
       712   0             -8.74898        0             -8.74898       -1.6997274e-09  33.944126    
       713   0             -8.74898        0             -8.74898        7.1808659e-10  33.944126    
       714   0             -8.74898        0             -8.74898        6.0432956e-10  33.944126    
       715   0             -8.74898        0             -8.74898        2.0054185e-10  33.944126    
       716   0             -8.74898        0             -8.74898        2.3225444e-10  33.944126    
       717   0             -8.74898        0             -8.74898       -1.8114434e-09  33.944126    
       718   0             -8.74898        0             -8.74898        7.1785459e-10  33.944126    
       719   0             -8.74898        0             -8.74898        6.0408392e-10  33.944126    
       720   0             -8.74898        0             -8.74898        2.0030985e-10  33.944126    
       721   0             -8.74898        0             -8.74898        2.0077384e-10  33.944126    
       722   0             -8.74898        0             -8.74898       -1.6997274e-09  33.944126    
       723   0             -8.74898        0             -8.74898        7.1808659e-10  33.944126    
       724   0             -8.74898        0             -8.74898        6.0432956e-10  33.944126    
       725   0             -8.74898        0             -8.74898        2.0054185e-10  33.944126    
       726   0             -8.74898        0             -8.74898        2.3225444e-10  33.944126    
       727   0             -8.74898        0             -8.74898       -1.6994545e-09  33.944126    
       728   0             -8.74898        0             -8.74898       -1.100052e-10   33.944126    
       729   0             -8.74898        0             -8.74898       -4.0042733e-10  33.944126    
       730   0             -8.74898        0             -8.74898        9.6769889e-10  33.944126    
       731   0             -8.74898        0             -8.74898        2.6068366e-10  33.944126    
       732   0             -8.74898        0             -8.74898        3.798652e-10   33.944126    
       733   0             -8.74898        0             -8.74898       -3.352737e-10   33.944126    
       734   0             -8.74898        0             -8.74898        3.9428967e-10  33.944126    
       735   0             -8.74898        0             -8.74898        3.810934e-10   33.944126    
       736   0             -8.74898        0             -8.74898       -6.4523156e-10  33.944126    
       737   0             -8.74898        0             -8.74898        3.949447e-10   33.944126    
       738   0             -8.74898        0             -8.74898        6.0528482e-10  33.944126    
       739   0             -8.74898        0             -8.74898       -1.6994545e-09  33.944126    
       740   0             -8.74898        0             -8.74898        7.1838681e-10  33.944126    
       741   0             -8.74898        0             -8.74898        3.9506752e-10  33.944126    
       742   0             -8.74898        0             -8.74898        2.0050091e-10  33.944126    
       743   0             -8.74898        0             -8.74898        2.8811001e-10  33.944126    
       744   0             -8.74898        0             -8.74898       -1.6994545e-09  33.944126    
       745   0             -8.74898        0             -8.74898        7.1838681e-10  33.944126    
       746   0             -8.74898        0             -8.74898        3.9506752e-10  33.944126    
       747   0             -8.74898        0             -8.74898        2.0050091e-10  33.944126    
       748   0             -8.74898        0             -8.74898        2.8811001e-10  33.944126    
       749   0             -8.74898        0             -8.74898       -1.6994545e-09  33.944126    
       750   0             -8.74898        0             -8.74898        7.1838681e-10  33.944126    
       751   0             -8.74898        0             -8.74898        3.9506752e-10  33.944126    
       752   0             -8.74898        0             -8.74898        3.9584538e-10  33.944126    
       753   0             -8.74898        0             -8.74898        2.465015e-10   33.944126    
       754   0             -8.74898        0             -8.74898       -1.8111842e-09  33.944126    
       755   0             -8.74898        0             -8.74898        7.1811388e-10  33.944126    
       756   0             -8.74898        0             -8.74898        3.9478094e-10  33.944126    
       757   0             -8.74898        0             -8.74898        2.0020068e-10  33.944126    
       758   0             -8.74898        0             -8.74898        2.0069196e-10  33.944126    
       759   0             -8.74898        0             -8.74898        2.4637868e-10  33.944126    
       760   0             -8.74898        0             -8.74898       -1.6993044e-09  33.944126    
       761   0             -8.74898        0             -8.74898        7.1853692e-10  33.944126    
       762   0             -8.74898        0             -8.74898        3.9521764e-10  33.944126    
       763   0             -8.74898        0             -8.74898        2.0063737e-10  33.944126    
       764   0             -8.74898        0             -8.74898        2.8826012e-10  33.944126    
       765   0             -8.74898        0             -8.74898       -1.8113343e-09  33.944126    
[...]
      8511   0             -8.74898        0             -8.74898       -1.5176458e-09  33.944126    
      8512   0             -8.74898        0             -8.74898        2.3672668e-09  33.944126    
      8513   0             -8.74898        0             -8.74898       -1.114974e-09   33.944126    
      8514   0             -8.74898        0             -8.74898        2.4917109e-10  33.944126    
      8515   0             -8.74898        0             -8.74898       -1.2733998e-10  33.944126    
      8516   0             -8.74898        0             -8.74898       -1.1472064e-09  33.944126    
      8517   0             -8.74898        0             -8.74898        6.2899944e-10  33.944126    
      8518   0             -8.74898        0             -8.74898        2.4953955e-10  33.944126    
      8519   0             -8.74898        0             -8.74898       -1.1477796e-09  33.944126    
      8520   0             -8.74898        0             -8.74898        2.6541582e-09  33.944126    
      8521   0             -8.74898        0             -8.74898       -1.1136366e-09  33.944126    
      8522   0             -8.74898        0             -8.74898       -1.5314835e-09  33.944126    
      8523   0             -8.74898        0             -8.74898        1.6086521e-09  33.944126    
      8524   0             -8.74898        0             -8.74898       -1.5534282e-10  33.944126    
      8525   0             -8.74898        0             -8.74898       -8.5569616e-10  33.944126    
      8526   0             -8.74898        0             -8.74898       -2.9465938e-10  33.944126    
      8527   0             -8.74898        0             -8.74898       -8.2722933e-10  33.944126    
      8528   0             -8.74898        0             -8.74898       -6.1951326e-10  33.944126    
      8529   0             -8.74898        0             -8.74898        1.9921455e-09  33.944126    
      8530   0             -8.74898        0             -8.74898       -8.4123075e-10  33.944126    
      8531   0             -8.74898        0             -8.74898        2.7870235e-10  33.944126    
      8532   0             -8.74898        0             -8.74898       -8.2862128e-10  33.944126    
      8533   0             -8.74898        0             -8.74898       -6.3459276e-10  33.944126    
      8534   0             -8.74898        0             -8.74898        1.9910264e-09  33.944126    
      8535   0             -8.74898        0             -8.74898       -8.4233613e-10  33.944126    
      8536   0             -8.74898        0             -8.74898        6.3029587e-10  33.944126    
      8537   0             -8.74898        0             -8.74898       -1.1332869e-09  33.944126    
      8538   0             -8.74898        0             -8.74898        6.4291898e-10  33.944126    
      8539   0             -8.74898        0             -8.74898        2.7747416e-10  33.944126    
      8540   0             -8.74898        0             -8.74898        2.7821107e-10  33.944126    
      8541   0             -8.74898        0             -8.74898       -1.1470973e-09  33.944126    
      8542   0             -8.74898        0             -8.74898        6.2910862e-10  33.944126    
      8543   0             -8.74898        0             -8.74898        2.7761062e-10  33.944126    
      8544   0             -8.74898        0             -8.74898        2.5041293e-10  33.944126    
      8545   0             -8.74898        0             -8.74898       -8.5685612e-10  33.944126    
      8546   0             -8.74898        0             -8.74898        2.7703747e-10  33.944126    
      8547   0             -8.74898        0             -8.74898        2.7780168e-10  33.944126    
      8548   0             -8.74898        0             -8.74898        2.5060398e-10  33.944126    
      8549   0             -8.74898        0             -8.74898       -8.5666506e-10  33.944126    
      8550   0             -8.74898        0             -8.74898        2.7722852e-10  33.944126    
      8551   0             -8.74898        0             -8.74898        2.7799273e-10  33.944126    
      8552   0             -8.74898        0             -8.74898       -1.1612897e-09  33.944126    
      8553   0             -8.74898        0             -8.74898        1.6375812e-09  33.944126    
      8554   0             -8.74898        0             -8.74898       -1.1084505e-09  33.944126    
      8555   0             -8.74898        0             -8.74898        2.7670995e-10  33.944126    
      8556   0             -8.74898        0             -8.74898        2.7747416e-10  33.944126    
      8557   0             -8.74898        0             -8.74898        2.5026282e-10  33.944126    
      8558   0             -8.74898        0             -8.74898       -1.1610168e-09  33.944126    
      8559   0             -8.74898        0             -8.74898        2.7645066e-10  33.944126    
      8560   0             -8.74898        0             -8.74898        2.7720123e-10  33.944126    
      8561   0             -8.74898        0             -8.74898        2.7796544e-10  33.944126    
      8562   0             -8.74898        0             -8.74898       -1.161317e-09   33.944126    
      8563   0             -8.74898        0             -8.74898        1.6375676e-09  33.944126    
      8564   0             -8.74898        0             -8.74898       -1.1084641e-09  33.944126    
      8565   0             -8.74898        0             -8.74898        2.7668265e-10  33.944126    
      8566   0             -8.74898        0             -8.74898        2.7744686e-10  33.944126    
      8567   0             -8.74898        0             -8.74898        2.5024917e-10  33.944126    
      8568   0             -8.74898        0             -8.74898       -1.1610441e-09  33.944126    
      8569   0             -8.74898        0             -8.74898        2.7642337e-10  33.944126    
      8570   0             -8.74898        0             -8.74898        2.7717393e-10  33.944126    
      8571   0             -8.74898        0             -8.74898        2.7793814e-10  33.944126    
      8572   0             -8.74898        0             -8.74898       -1.1473702e-09  33.944126    
      8573   0             -8.74898        0             -8.74898        2.3782234e-09  33.944126    
      8574   0             -8.74898        0             -8.74898       -1.1138277e-09  33.944126    
      8575   0             -8.74898        0             -8.74898        2.5031741e-10  33.944126    
      8576   0             -8.74898        0             -8.74898       -1.1084641e-09  33.944126    
      8577   0             -8.74898        0             -8.74898        2.3647951e-09  33.944126    
      8578   0             -8.74898        0             -8.74898       -3.5867199e-10  33.944126    
      8579   0             -8.74898        0             -8.74898        3.4005315e-10  33.944126    
      8580   0             -8.74898        0             -8.74898       -1.5492402e-09  33.944126    
      8581   0             -8.74898        0             -8.74898       -9.0274883e-10  33.944126    
      8582   0             -8.74898        0             -8.74898        1.7847205e-09  33.944126    
      8583   0             -8.74898        0             -8.74898       -1.7189979e-09  33.944126    
      8584   0             -8.74898        0             -8.74898        2.5351871e-09  33.944126    
      8585   0             -8.74898        0             -8.74898       -2.8744925e-09  33.944126    
      8586   0             -8.74898        0             -8.74898        2.0245068e-09  33.944126    
      8587   0             -8.74898        0             -8.74898       -2.0379481e-09  33.944126    
      8588   0             -8.74898        0             -8.74898        2.0096456e-09  33.944126    
      8589   0             -8.74898        0             -8.74898       -1.2385285e-09  33.944126    
      8590   0             -8.74898        0             -8.74898       -9.8929968e-10  33.944126    
      8591   0             -8.74898        0             -8.74898        2.0367614e-09  33.944126    
      8592   0             -8.74898        0             -8.74898       -1.2392109e-09  33.944126    
      8593   0             -8.74898        0             -8.74898        6.0241308e-10  33.944126    
      8594   0             -8.74898        0             -8.74898       -7.6171806e-10  33.944126    
      8595   0             -8.74898        0             -8.74898       -1.0371685e-10  33.944126    
      8596   0             -8.74898        0             -8.74898       -7.6805739e-11  33.944126    
      8597   0             -8.74898        0             -8.74898       -7.7679122e-11  33.944126    
      8598   0             -8.74898        0             -8.74898       -7.8552505e-11  33.944126    
      8599   0             -8.74898        0             -8.74898       -7.8481832e-10  33.944126    
      8600   0             -8.74898        0             -8.74898        1.3287227e-09  33.944126    
      8601   0             -8.74898        0             -8.74898       -7.9890162e-10  33.944126    
      8602   0             -8.74898        0             -8.74898        1.9070334e-09  33.944126    
      8603   0             -8.74898        0             -8.74898       -1.90434e-09    33.944126    
      8604   0             -8.74898        0             -8.74898        1.9074838e-09  33.944126    
      8605   0             -8.74898        0             -8.74898       -1.0160039e-09  33.944126    
      8606   0             -8.74898        0             -8.74898       -7.9808282e-10  33.944126    
      8607   0             -8.74898        0             -8.74898        1.9078386e-09  33.944126    
      8608   0             -8.74898        0             -8.74898       -1.0156491e-09  33.944126    
      8609   0             -8.74898        0             -8.74898       -7.9772801e-10  33.944126    
      8610   0             -8.74898        0             -8.74898        9.2245634e-10  33.944126    
      8611   0             -8.74898        0             -8.74898       -7.9712756e-10  33.944126    
      8612   0             -8.74898        0             -8.74898        1.7767097e-09  33.944126    
      8613   0             -8.74898        0             -8.74898       -1.0426967e-09  33.944126    
      8614   0             -8.74898        0             -8.74898       -7.8301697e-10  33.944126    
      8615   0             -8.74898        0             -8.74898        9.2322055e-10  33.944126    
      8616   0             -8.74898        0             -8.74898       -7.8238922e-10  33.944126    
      8617   0             -8.74898        0             -8.74898        9.2383464e-10  33.944126    
      8618   0             -8.74898        0             -8.74898       -7.8178877e-10  33.944126    
      8619   0             -8.74898        0             -8.74898        1.7781016e-09  33.944126    
      8620   0             -8.74898        0             -8.74898        2.8651794e-10  33.944126    
      8621   0             -8.74898        0             -8.74898       -1.0197959e-09  33.944126    
      8622   0             -8.74898        0             -8.74898       -8.2308341e-10  33.944126    
      8623   0             -8.74898        0             -8.74898        1.7785383e-09  33.944126    
      8624   0             -8.74898        0             -8.74898       -1.0199597e-09  33.944126    
      8625   0             -8.74898        0             -8.74898       -8.2324717e-10  33.944126    
      8626   0             -8.74898        0             -8.74898        1.7783746e-09  33.944126    
      8627   0             -8.74898        0             -8.74898        2.7283039e-10  33.944126    
      8628   0             -8.74898        0             -8.74898       -1.0195094e-09  33.944126    
      8629   0             -8.74898        0             -8.74898       -1.1743169e-10  33.944126    
      8630   0             -8.74898        0             -8.74898       -7.957629e-10   33.944126    
      8631   0             -8.74898        0             -8.74898        1.7781016e-09  33.944126    
      8632   0             -8.74898        0             -8.74898        2.7254382e-10  33.944126    
      8633   0             -8.74898        0             -8.74898       -1.1106005e-09  33.944126    
      8634   0             -8.74898        0             -8.74898       -1.1775921e-10  33.944126    
      8635   0             -8.74898        0             -8.74898       -7.9606313e-10  33.944126    
      8636   0             -8.74898        0             -8.74898        1.7764913e-09  33.944126    
      8637   0             -8.74898        0             -8.74898       -1.1686685e-09  33.944126    
      8638   0             -8.74898        0             -8.74898        1.7639091e-09  33.944126    
      8639   0             -8.74898        0             -8.74898       -3.6715554e-10  33.944126    
      8640   0             -8.74898        0             -8.74898       -3.6786516e-10  33.944126    
      8641   0             -8.74898        0             -8.74898       -1.1686958e-09  33.944126    
      8642   0             -8.74898        0             -8.74898        1.7638819e-09  33.944126    
      8643   0             -8.74898        0             -8.74898       -3.6718283e-10  33.944126    
      8644   0             -8.74898        0             -8.74898        3.3735415e-10  33.944126    
      8645   0             -8.74898        0             -8.74898       -5.6280437e-10  33.944126    
      8646   0             -8.74898        0             -8.74898        2.1094146e-10  33.944126    
      8647   0             -8.74898        0             -8.74898       -3.6800163e-10  33.944126    
      8648   0             -8.74898        0             -8.74898        2.1070947e-10  33.944126    
      8649   0             -8.74898        0             -8.74898        3.3699934e-10  33.944126    
      8650   0             -8.74898        0             -8.74898       -3.6775599e-10  33.944126    
      8651   0             -8.74898        0             -8.74898        3.3679464e-10  33.944126    
      8652   0             -8.74898        0             -8.74898       -3.681108e-10   33.944126    
      8653   0             -8.74898        0             -8.74898        3.3643983e-10  33.944126    
      8654   0             -8.74898        0             -8.74898       -5.6373234e-10  33.944126    
      8655   0             -8.74898        0             -8.74898       -1.9168212e-10  33.944126    
      8656   0             -8.74898        0             -8.74898       -1.7789905e-10  33.944126    
      8657   0             -8.74898        0             -8.74898       -1.6411597e-10  33.944126    
      8658   0             -8.74898        0             -8.74898       -7.9663628e-10  33.944126    
      8659   0             -8.74898        0             -8.74898        2.5490278e-09  33.944126    
      8660   0             -8.74898        0             -8.74898       -1.1243017e-09  33.944126    
      8661   0             -8.74898        0             -8.74898       -2.270822e-11   33.944126    
      8662   0             -8.74898        0             -8.74898       -1.8054649e-10  33.944126    
      8663   0             -8.74898        0             -8.74898       -6.5114247e-12  33.944126    
      8664   0             -8.74898        0             -8.74898        4.9790198e-12  33.944126    
      8665   0             -8.74898        0             -8.74898        4.9790198e-12  33.944126    
Loop time of 0.729027 on 4 procs for 8665 steps with 2 atoms

98.1% CPU use with 4 MPI tasks x 1 OpenMP threads

Minimization stats:
  Stopping criterion = quadratic factors are zero
  Energy initial, next-to-last, final = 
     -8.74048754954826  -8.74897996145753  -8.74897996145753
  Force two-norm initial, final = 2.865454 2.7720348e-15
  Force max component initial, final = 1.6543707 1.7824284e-15
  Final line search alpha, max atom move = 1 1.7824284e-15
  Iterations, force evaluations = 8665 17297

MPI task timing breakdown:
Section |  min time  |  avg time  |  max time  |%varavg| %total
---------------------------------------------------------------
Pair    | 0.20421    | 0.20854    | 0.21363    |   0.9 | 28.61
Neigh   | 0          | 0          | 0          |   0.0 |  0.00
Comm    | 0.19107    | 0.192      | 0.19353    |   0.2 | 26.34
Output  | 0.067404   | 0.071837   | 0.084073   |   2.6 |  9.85
Modify  | 0          | 0          | 0          |   0.0 |  0.00
Other   |            | 0.2567     |            |       | 35.20

Nlocal:            0.5 ave           1 max           0 min
Histogram: 2 0 0 0 0 0 0 0 0 2
Nghost:          143.5 ave         144 max         143 min
Histogram: 2 0 0 0 0 0 0 0 0 2
Neighs:           14.5 ave          29 max           0 min
Histogram: 2 0 0 0 0 0 0 0 0 2
FullNghs:           29 ave          58 max           0 min
Histogram: 2 0 0 0 0 0 0 0 0 2

Total # of neighbors = 116
Ave neighs/atom = 58
Neighbor list builds = 0
Dangerous builds = 0

variable        cohesive_energy equal pe/atoms
variable        atmVol equal vol/atoms
variable        aLatt equal (2*vol/atoms)^0.333333333333

run                     0
WARNING: No fixes with time integration, atoms won't move (src/verlet.cpp:60)
WARNING: Proc sub-domain size < neighbor skin, could lead to lost atoms (src/domain.cpp:966)
Per MPI rank memory allocation (min/avg/max) = 3.745 | 3.745 | 3.745 Mbytes
   Step          Temp          E_pair         E_mol          TotEng         Press          Volume    
      8665   0             -8.74898        0             -8.74898        9.8078051e-11  33.944126    
Loop time of 2.501e-06 on 4 procs for 0 steps with 2 atoms

120.0% CPU use with 4 MPI tasks x 1 OpenMP threads

MPI task timing breakdown:
Section |  min time  |  avg time  |  max time  |%varavg| %total
---------------------------------------------------------------
Pair    | 0          | 0          | 0          |   0.0 |  0.00
Neigh   | 0          | 0          | 0          |   0.0 |  0.00
Comm    | 0          | 0          | 0          |   0.0 |  0.00
Output  | 0          | 0          | 0          |   0.0 |  0.00
Modify  | 0          | 0          | 0          |   0.0 |  0.00
Other   |            | 2.501e-06  |            |       |100.00

Nlocal:            0.5 ave           1 max           0 min
Histogram: 2 0 0 0 0 0 0 0 0 2
Nghost:          143.5 ave         144 max         143 min
Histogram: 2 0 0 0 0 0 0 0 0 2
Neighs:           14.5 ave          29 max           0 min
Histogram: 2 0 0 0 0 0 0 0 0 2
FullNghs:           29 ave          58 max           0 min
Histogram: 2 0 0 0 0 0 0 0 0 2

Total # of neighbors = 116
Ave neighs/atom = 58
Neighbor list builds = 0
Dangerous builds = 0

print           "===================================================="
====================================================
print           "Calculated cohesive energy: ${cohesive_energy} eV/atom"
Calculated cohesive energy: -4.37448998072876 eV/atom
print           "Reference cohesive energy:  -4.37 eV/atom"
Reference cohesive energy:  -4.37 eV/atom
print           "Atomic volume               ${atmVol} A^3"
Atomic volume               16.9720627605584 A^3
print           "Lattice constant            ${aLatt} A"
Lattice constant            3.23783620452874 A
print           "Reference lattice constant  3.238 A"
Reference lattice constant  3.238 A
print           "===================================================="
====================================================

#dump           1 all custom 1 bcc.dump id type x y z fx fy fz
#run            0


Total wall time: 0:00:00
