LAMMPS (5 Feb 2018)
OMP_NUM_THREADS environment is not set. Defaulting to 1 thread. (../comm.cpp:90)
  using 1 OpenMP thread(s) per MPI task
# Initialization
units           metal
boundary        p p p
atom_style      full
processors      * * 1     # domain decomposition over x and y

# System and atom definition
# we use 2 atom types so that inter- and intra-layer
# interactions can be specified separately
read_data       hBN_AB_stack_2L_noH_equi_300K.data
  orthogonal box = (0 0 0) to (43.38 42.5773 100)
  2 by 2 by 1 MPI processor grid
  reading atoms ...
  1360 atoms
  reading velocities ...
  1360 velocities
  0 = max # of 1-2 neighbors
  0 = max # of 1-3 neighbors
  0 = max # of 1-4 neighbors
  1 = max # of special neighbors
mass            1 10.8110   # boron mass (g/mole) | membrane
mass            2 14.0067   # nitrogen mass (g/mole) | adsorbate
mass            3 10.8110   # boron mass (g/mole) | membrane
mass            4 14.0067   # nitrogen mass (g/mole) | adsorbate
# Separate atom groups
group membrane  type 1 2
680 atoms in group membrane
group adsorbate type 3 4
680 atoms in group adsorbate

######################## Potential defition ########################
pair_style  hybrid/overlay  tersoff  ILP/graphene/hBN 16.0 coul/shield 16.0 1
####################################################################
pair_coeff  * * tersoff          BNC.tersoff   NULL NULL B N  # chemical
Reading potential file BNC.tersoff with DATE: 2013-03-21
pair_coeff  * * ILP/graphene/hBN BNCH-old.ILP  B N B N  # long range
pair_coeff  1 3 coul/shield 0.70
pair_coeff  1 4 coul/shield 0.69498201415576216335
pair_coeff  2 3 coul/shield 0.69498201415576216335
pair_coeff  2 4 coul/shield 0.69
####################################################################
# Neighbor update settings
neighbor        2.0 bin
neigh_modify    every 1
neigh_modify    delay 0
neigh_modify    check yes

# calculate the COM
variable        adsxcom equal xcm(adsorbate,x)
variable        adsycom equal xcm(adsorbate,y)
variable        adszcom equal xcm(adsorbate,z)
variable        adsvxcom equal vcm(adsorbate,x)
variable        adsvycom equal vcm(adsorbate,y)
variable        adsvzcom equal vcm(adsorbate,z)

#### Simulation settings ####
timestep  0.001
#velocity  adsorbate create 300.0 12345
fix       subf membrane setforce 0.0 0.0 0.0
fix       thermostat all nve

compute   0 all pair tersoff
compute   1 all pair coul/shield ecoul
compute   2 all pair ILP/graphene/hBN
variable  Tersoff  equal c_0
variable  Ecoul    equal c_1
variable  EILP     equal c_2

# Calculate the pair potential between the substrate and slider
compute         sldsub adsorbate group/group membrane
variable        Evdw equal c_sldsub

############################

# Output
thermo          100
thermo_style    custom step cpu etotal pe ke v_Evdw v_Tersoff v_EILP v_Ecoul temp v_adsxcom v_adsycom v_adszcom v_adsvxcom v_adsvycom v_adsvzcom f_subf[1] f_subf[2] f_subf[3]
thermo_modify   line one format float %.15f
thermo_modify   flush yes norm no lost warn #ignore

dump            1 all custom 1000 traj.lammpstrj id mol type xu yu zu
dump_modify     1 format line "%7d %3d %3d %15.10g %15.10g %15.10g" flush yes

###### Run molecular dynamics ######
run 100000
Neighbor list info ...
  update every 1 steps, delay 0 steps, check yes
  max neighbors/atom: 2000, page size: 100000
  master list distance cutoff = 18
  ghost atom cutoff = 18
  binsize = 9, bins = 5 5 12
  6 neighbor lists, perpetual/occasional/extra = 5 1 0
  (1) pair tersoff, perpetual, skip from (5)
      attributes: full, newton on
      pair build: skip
      stencil: none
      bin: none
  (2) pair ILP/graphene/hBN, perpetual
      attributes: full, newton on, ghost
      pair build: full/bin/ghost
      stencil: full/ghost/bin/3d
      bin: standard
  (3) pair coul/shield, perpetual, skip from (6)
      attributes: half, newton on
      pair build: skip
      stencil: none
      bin: none
  (4) compute group/group, occasional, copy from (6)
      attributes: half, newton on
      pair build: copy
      stencil: none
      bin: none
  (5) neighbor class addition, perpetual, copy from (2)
      attributes: full, newton on
      pair build: copy
      stencil: none
      bin: none
  (6) neighbor class addition, perpetual, half/full from (5)
      attributes: half, newton on
      pair build: halffull/newton
      stencil: none
      bin: none
Per MPI rank memory allocation (min/avg/max) = 31.9 | 31.9 | 31.9 Mbytes
Step CPU TotEng PotEng KinEng v_Evdw v_Tersoff v_EILP v_Ecoul Temp v_adsxcom v_adsycom v_adszcom v_adsvxcom v_adsvycom v_adsvzcom f_subf[1] f_subf[2] f_subf[3] 
       0 0.000000000000000 -5114.662807859761415 -5127.858635505528582 13.195827645766878 -75.365223420944801 -5091.412085746463163 -36.083113782917586 -0.363435976148059 75.119474123768683 20.911320253673178 20.658221587816563 3.289597661205178 -0.049514793714591 -0.055223351593034 -0.016659261880707 -0.174279020202193 -0.088466593560393 -0.801081680062369 
     100 1.982214090006892 -5114.662058058320326 -5127.695834934162121 13.033776875841815 -75.224948777822178 -5091.240791931140848 -36.092760141575866 -0.362282861444505 74.196972788884423 20.907612963070399 20.653416297156912 3.290811831782804 -0.023480219553971 -0.039783241002819 0.033240474495919 -0.243004243868873 -0.159810918512994 -0.535124627505132 
     200 3.928320756996982 -5114.663063786485509 -5127.594514090558732 12.931450304073058 -74.644516739313730 -5091.150757191227967 -36.086668894067856 -0.357088005261893 73.614461523467668 20.906769610506228 20.650524005054177 3.297657524095742 0.007896787249971 -0.017038530211461 0.085044797270044 -0.293404164817952 -0.240529516514655 0.230920080681331 
     300 5.886197693995200 -5114.669383012117578 -5128.328623142084325 13.659240129966770 -74.222351894177137 -5091.864555541881600 -36.110786009778295 -0.353281590424589 77.757527836652116 20.909014650002437 20.650244571692106 3.302452502588858 0.035243732923528 0.011227901470070 -0.002139921614004 -0.216651617451874 -0.241066126660790 0.900745861448835 
     400 7.825999256980140 -5114.661403540435458 -5127.642378475410624 12.980974934974936 -74.654829543193188 -5091.234801146523751 -36.049634051551649 -0.357943277335819 73.896388836357076 20.913627618290128 20.652681004506498 3.297722595073193 0.055662950249470 0.035832435441892 -0.073828729584472 -0.143122101647559 -0.162673962345852 0.067304612176823 
     500 9.832892341015395 -5114.659987623436791 -5127.409781312180712 12.749793688744193 -75.226868782878483 -5090.928460850429474 -36.119570704207895 -0.361749757544155 72.580350607432351 20.919705076982680 20.657151031146643 3.290905890298970 0.063193908469528 0.053026960173162 -0.051694029651734 -0.011297684365372 -0.121700914738999 -0.471342231900522 
     600 11.829763381974772 -5114.667277346447008 -5128.091298382894820 13.424021036448258 -75.384811253473416 -5091.633888318873687 -36.093840150969790 -0.363569913051234 76.418503481127999 20.925825286230449 20.662832203116533 3.289280523414508 0.057339622615950 0.057908544036778 0.029185398183458 0.105995075754287 0.010226612540080 -0.768321479414746 
     700 13.782923451974057 -5114.660964724954283 -5127.746672063719416 13.085707338765573 -74.798178946980187 -5091.281109500761886 -36.106638573220039 -0.358923989737947 74.492595706260730 20.930709213435112 20.668355432428079 3.295795941136376 0.039674401286030 0.050334737789710 0.081826771099528 0.173790370586712 0.125876115592734 0.130718598876543 
     800 15.728791279019788 -5114.662262766683853 -5128.013040626401562 13.350777859718109 -74.295244885383738 -5091.569397562494487 -36.089718031442004 -0.353925032465271 76.001554346384793 20.933444107944407 20.672512524019020 3.301957018128777 0.014227764572027 0.031311664553856 0.029167313198060 0.245747879291777 0.191208277031338 0.723982355311989 
     900 17.725098960974719 -5114.667546956133265 -5128.149693380125427 13.482146423991718 -74.364489857254370 -5091.670386175048407 -36.124678514534295 -0.354628690543641 76.749392051569870 20.933440355796776 20.674418149438303 3.300558239406743 -0.014139935463757 0.006354398639005 -0.056120661910500 0.237015192299092 0.211570756034599 0.782201760625605 
    1000 19.670033906004392 -5114.668314614430528 -5128.336460911285030 13.668146296854216 -75.109157901949942 -5091.937021006927353 -36.037596434912182 -0.361843469444845 77.808227693531350 20.930664309566954 20.673723885268842 3.292218169908533 -0.041121985383610 -0.020069420386390 -0.078819356472528 0.222517543116532 0.237741341182587 -0.587528855712424 
    1100 21.621227974013891 -5114.667378869704407 -5128.067852058199605 13.400473188495374 -75.449181784952756 -5091.576830903499285 -36.127472567317540 -0.363548587383080 76.284453385715111 20.925542177645937 20.670526853182864 3.288570984311594 -0.059245875446720 -0.042521563338502 0.007898477483005 0.111199253059243 0.155002193998376 -0.735399686809614 
    1200 23.675972700002603 -5114.660469033763547 -5127.766053555013059 13.105584521249694 -74.989956516539479 -5091.315298721397994 -36.090113949182040 -0.360640884432584 74.605749919497853 20.919209738862417 20.665565620246348 3.293602097281739 -0.064591522967805 -0.054827688519038 0.082745383642460 -0.017013478603738 0.070997545022477 -0.211264841633930 
    1300 25.618752036010846 -5114.665492396386071 -5128.238733321424661 13.573240925038325 -74.301914905628053 -5091.789326411464572 -36.094913561196563 -0.354493348764568 77.267962860304507 20.913198305565398 20.659831100794850 3.301527783865970 -0.053075252495755 -0.057160457208159 0.053941134195104 -0.140201926433433 -0.068944836805277 0.735757569884708 
    1400 27.572537155996542 -5114.666054870262997 -5127.903860481010270 13.237805610747445 -74.224365956982254 -5091.428560106814984 -36.122267251139732 -0.353033123054591 75.358440768285121 20.908870549280856 20.654748024030066 3.302369668458910 -0.032570667830482 -0.043395021674476 -0.044293334266144 -0.202307848439626 -0.154592322454559 0.921145223675079 
    1500 29.546330376004335 -5114.668826347825416 -5128.084409002818575 13.415582654993598 -74.963890297330153 -5091.654024951798419 -36.069809925847942 -0.360574125172292 76.370466571708903 20.907013833419317 20.651442491308259 3.293862923334080 -0.003684279514781 -0.021973106016828 -0.099988778036418 -0.248033829396227 -0.199699131014121 -0.258387239343700 
    1600 31.488737882988062 -5114.666251709391872 -5127.562174336998396 12.895922627606549 -75.515126358996781 -5091.089256410143207 -36.108687743889220 -0.364230182966649 73.412214234048136 20.908015165224487 20.650543155228405 3.287663108975774 0.023430729044891 0.005200324991088 -0.009717194811121 -0.235191585161404 -0.269991548450229 -0.897429956377023 
    1700 33.437475884973537 -5114.666401481485991 -5128.109647587009022 13.443246105523000 -75.259778198111690 -5091.631906747535140 -36.115630780782681 -0.362110058692168 76.527945428814476 20.911633299502238 20.652349270181077 3.290637266646617 0.047382827731129 0.029653054435233 0.064095231235294 -0.173283785563576 -0.180137454482613 -0.509762631425495 
    1800 35.409971935965586 -5114.663481964494167 -5127.814887054541941 13.151405090047641 -74.491090566767298 -5091.372276589208923 -36.086170502743748 -0.356439962588869 74.866591234234022 20.917120726708898 20.656239431409823 3.299373500672139 0.060729443526427 0.047545573878948 0.090690867907220 -0.072651236193960 -0.134973617113574 0.468986125541627 
    1900 37.356665908009745 -5114.662945987237435 -5127.834162435657163 13.171216448420115 -74.094854920007279 -5091.325741364856185 -36.156636080946718 -0.351784989854702 74.979370732615479 20.923308630268796 20.661527403262337 3.303608225301751 0.060762174734361 0.055972467158296 -0.023246002096042 0.050569565992469 -0.015128734732242 1.243933010635258 
    2000 39.302739028993528 -5114.668135291794897 -5128.163314569014801 13.495179277219526 -74.813484967556576 -5091.728044099317231 -36.076623441395270 -0.358647028302024 76.823583766336554 20.928848778606699 20.666987702380442 3.295904422230930 0.048150302842726 0.051067952242487 -0.103437388502042 0.165551724213027 0.105889446661758 -0.068963933680296 
    2100 41.409278950013686 -5114.663118726332868 -5127.810783609481405 13.147664883148261 -75.423733750056869 -5091.320000779020120 -36.126797591255354 -0.363985239206806 74.845299475737491 20.932510499915459 20.671409090050787 3.288049731694664 0.023640213728748 0.035847591895651 -0.041708221228928 0.236374651009077 0.198371199119963 -0.640384504567837 
    2200 43.352226031012833 -5114.661427881294912 -5128.128519195981426 13.467091314686748 -75.510087492183999 -5091.642659975372226 -36.122070373824563 -0.363788846784127 76.663688303065086 20.933433488620544 20.673786734744450 3.287696254845886 -0.005754240319720 0.011414578934733 0.044404032104511 0.262546809367965 0.219065984487172 -0.851263020114746 
    2300 45.306609580002259 -5114.660099618065942 -5127.607906333227220 12.947806715160898 -74.770874550681498 -5091.154513700459574 -36.095533316014929 -0.357859316752835 73.707573151813676 20.931341273617239 20.673660258466430 3.296475924546905 -0.034553825617794 -0.014035747362422 0.113825759462292 0.197270397152332 0.223450687359393 0.069976704072274 
    2400 47.303262487985194 -5114.668768738928520 -5128.355223068471787 13.686454329542824 -74.013897951412616 -5091.837592376208704 -36.165551487079576 -0.352079205183842 77.912449256947284 20.926896678987713 20.671015493600247 3.304109684150303 -0.053237284586237 -0.037660077180812 0.009973986156241 0.130092623577203 0.167663132198528 1.469834922808460 
    2500 49.277594492014032 -5114.664286542179980 -5127.861892342494684 13.197605800314397 -74.588877136418034 -5091.417432775168891 -36.088573628234343 -0.355885939091433 75.129596568385736 20.921128974874328 20.666560149729882 3.298840439060953 -0.059908674901830 -0.050406246263951 -0.096054455870441 0.016936661351570 0.090748444154914 0.249674409069483 
    2600 51.224775224982295 -5114.660091527380246 -5127.461174934282099 12.801083406901910 -75.283581131096923 -5090.976237590351047 -36.122570271187556 -0.362367072742687 72.872325977177340 20.915300162283348 20.661265977071579 3.290124904685025 -0.054834035191090 -0.052813184903270 -0.066985893337725 -0.089365756949997 -0.050327452309479 -0.518455143155987 
    2700 53.193481852009427 -5114.665312030138011 -5127.693300103182082 13.027988073044064 -75.545288404378383 -5091.224484100459449 -36.103298636573356 -0.365517366149042 74.164019052775814 20.910559313859785 20.656386503435659 3.286746474519905 -0.038071877287721 -0.042990296256945 0.007397278011559 -0.190466238769834 -0.135299330311013 -0.886494848254334 
    2800 55.205102694977541 -5114.666990460656052 -5127.749822420470082 13.082831959813863 -75.038716513756086 -5091.305376850341418 -36.084521396520252 -0.359924173608708 74.476227126694724 20.907897814453076 20.652971197853294 3.293528936352598 -0.015027179383876 -0.024727013769926 0.122252893408944 -0.228904856162497 -0.170796217200362 -0.374856809932952 
    2900 57.304270413005725 -5114.663282758198875 -5127.846875487597572 13.183592729398478 -74.133965455054465 -5091.376502070905190 -36.117739605205358 -0.352633811486478 75.049824799132551 20.907846907073758 20.651576989952538 3.303309922633320 0.013202999648609 -0.002320854355168 0.047770725275095 -0.222964088645100 -0.221697839935973 1.072444648700150 
    3000 59.509982236020733 -5114.661860547036667 -5128.001794427762434 13.339933880726051 -74.183956902280585 -5091.578891269107771 -36.068851056583568 -0.354052102071242 75.939823167321236 20.910457957429760 20.652585308014480 3.302939194045266 0.038703545428368 0.021401709710650 -0.052052231481544 -0.183755010962093 -0.190606565253946 0.829667042895495 
    3100 61.456017242977396 -5114.662713084006100 -5127.786964757726309 13.124251673720631 -74.949444430559836 -5091.318562369789106 -36.109481163090322 -0.358921224847793 74.712015832834084 20.915210729172468 20.655728127371194 3.294698943285087 0.054497860267286 0.039773106207039 -0.096094717315238 -0.074228160706203 -0.116516868054517 -0.142488554328876 
    3200 63.394306352012791 -5114.658913771803782 -5127.442368921165325 12.783455149361671 -75.453497532116984 -5090.989821649961414 -36.087707927857487 -0.364839343346606 72.771974148425940 20.920920759494336 20.660291386537523 3.288000531165640 0.058164961824719 0.050052459693171 -0.029481855322623 0.005340257496974 -0.037337435457481 -0.845075656234279 
    3300 65.466043822991196 -5114.662541315978160 -5127.703732450220741 13.041191134242272 -75.284307656896260 -5091.274416326554274 -36.066155430197526 -0.363160693469417 74.239179705116669 20.926415069412364 20.665334186237367 3.290342272251101 0.049246812692569 0.049242832707811 0.073605170597352 0.128139166531551 0.037712252589849 -0.723416827617248 
    3400 67.424555270990822 -5114.663899476490769 -5127.813982563775426 13.150083087285058 -74.486843733474359 -5091.325367642983110 -36.133963146569961 -0.354651774221939 74.859065510574894 20.930459573603063 20.669740838611464 3.299650886475529 0.030788851726957 0.036381186538616 0.088215302434303 0.175232845937615 0.163669278835775 0.571117427339157 
    3500 69.379824911011383 -5114.664075105367374 -5128.460569930248312 13.796494824880558 -74.150722017048352 -5092.011174671039043 -36.095327493306300 -0.354067765902758 78.538873333101478 20.932329838261111 20.672442217342986 3.303026744038532 0.005624276720851 0.017067154587649 -0.024874102951118 0.233179895646403 0.199916707565629 1.017360376038247 
    3600 71.516183077008463 -5114.664914937028698 -5128.038145701454596 13.373230764425776 -74.677835957647858 -5091.578707991000556 -36.101988911260513 -0.357448799193448 76.129371292730866 20.931615595898471 20.672978794488959 3.297207624196470 -0.019468750728128 -0.007089166245365 -0.082006681882669 0.195409565326937 0.227685686964018 0.249734008401103 
    3700 73.618486327992287 -5114.665551034023338 -5127.985856523503571 13.320305489480539 -75.384061346720529 -5091.489762445926317 -36.133502610913403 -0.362591466664615 75.828085240164285 20.928560653936753 20.671034901926184 3.289317136212448 -0.040987813737769 -0.030027881037965 -0.061015334745428 0.162775268524090 0.172466366853264 -0.661650269385878 
    3800 75.782743964984547 -5114.663453403975836 -5127.494358268289943 12.830904864313670 -75.469547637885299 -5091.079563166989828 -36.049599083156167 -0.365196018143457 73.042089652371629 20.923706893423269 20.667269176804034 3.288013122924311 -0.054929880649506 -0.043696766075728 0.036845005701784 0.080134538177374 0.097199025193231 -1.020048855923501 
    3900 77.986068815982435 -5114.665845151488611 -5128.102572108072309 13.436726956583815 -74.769933676321969 -5091.612571838475560 -36.131752178876340 -0.358248090719111 76.490834074135392 20.917977496276396 20.662532089841324 3.295864723104021 -0.056782358553915 -0.049479673256845 0.093377527850099 -0.081701690793873 0.003383166209404 0.239468638716789 
    4000 80.134033500973601 -5114.665395317759248 -5127.806681414172999 13.141286096413490 -74.278944168453222 -5091.335705483717902 -36.117647373234860 -0.353328557220367 74.808987156576706 20.912754190903325 20.657757935087883 3.301848632701718 -0.046883926467302 -0.043598559417275 0.017630859683209 -0.128190275349243 -0.102894815690733 0.835328754242472 
    4100 82.103786904015578 -5114.661478551316577 -5127.802444664715040 13.140966113398779 -74.542460170555728 -5091.388426475219603 -36.056966154363288 -0.357052035131515 74.807165599305819 20.909001237981364 20.654018554140286 3.298775931238568 -0.025977761617389 -0.030485682083905 -0.066663669447924 -0.252439873436544 -0.150451205451635 0.268116565300258 
    4200 84.157189001969527 -5114.664995237870244 -5127.983416218970888 13.318420981100530 -75.109981847725479 -5091.468140265157672 -36.154840045125404 -0.360435908687854 75.817357358421035 20.907751597946714 20.652060619020499 3.291928035127094 0.000991279750577 -0.007813377980576 -0.065540706583346 -0.266459827816653 -0.211807273562112 -0.125538174347772 
    4300 86.365879261982627 -5114.661249343918826 -5127.522009443540810 12.860760099621970 -75.553998007114785 -5091.097776752040772 -36.059088458026963 -0.365144233471723 73.212045613938045 20.909220335350703 20.652479898934413 3.287408273056782 0.027172580651817 0.015999429482696 -0.005552548111773 -0.196532435757619 -0.186153884267892 -1.162379304177834 
    4400 88.574955785996281 -5114.660912128239943 -5127.596011528870804 12.935099400630776 -75.064607414516900 -5091.172679629871709 -36.062035542736268 -0.361296356263301 73.635234620980086 20.912976609323049 20.655045443832904 3.292635289379709 0.046588112808601 0.034711472981366 0.091314450712974 -0.132397546857966 -0.135281150169670 -0.442080209786268 
    4500 90.634109042992350 -5114.665676304230146 -5127.905928375356780 13.240252071126543 -74.403397537072749 -5091.429819195702294 -36.121171512880345 -0.354937666774155 75.372367656546757 20.918250765463313 20.659192931911637 3.300286465416078 0.056722579339503 0.046341165204762 0.040437604533389 -0.020668210129838 -0.048785900702869 0.689624529238242 
    4600 92.637734456977341 -5114.659206512987112 -5127.312976440332022 12.653769927344682 -74.471721276980674 -5090.930447539234592 -36.026109437425305 -0.356419463673335 72.033719152903501 20.923830761608770 20.663998591403050 3.300223536156367 0.053742329331536 0.048230377815486 -0.026686644777779 0.052979919140272 0.031396407672799 0.238019960698714 
    4700 94.753674236999359 -5114.666788095184529 -5128.432633328597149 13.765845233412815 -74.778335227210334 -5091.881575487948794 -36.193233713467635 -0.357824127180984 78.364395365142897 20.928701511840480 20.668463307068063 3.295334903921735 0.041477879880343 0.038845666172938 -0.077132234452073 0.173214627209111 0.135023875964591 0.501082868330708 
    4800 96.822189531987533 -5114.662473708410289 -5127.970102234876322 13.307628526466150 -75.448388222772621 -5091.515502585668401 -36.090762791608839 -0.363836857598885 75.755919490452271 20.931797865346606 20.671496099493496 3.288396882081481 0.019237299954708 0.021012707522185 -0.035533441365496 0.223406895602056 0.179159342554198 -0.887305594296082 
    4900 98.859642835974228 -5114.665400910979770 -5127.823559429813031 13.158158518833512 -75.304230977612946 -5091.416787112761085 -36.043933281862508 -0.362839035189700 74.905036266447638 20.932365850145128 20.672509923863558 3.290463116190419 -0.008141976778772 -0.000315683216080 0.075699847373162 0.246207569936752 0.187265084840063 -0.865381687262330 
    5000 100.958068904001266 -5114.664100853849959 -5127.997851884339980 13.333751030490003 -74.456243089018301 -5091.472757008626104 -36.169974417586360 -0.355120458127619 75.904626249720778 20.930225434252399 20.671313779457137 3.299261260155885 -0.033075636455665 -0.023129392864491 0.060797188273338 0.190130971931427 0.174683566608427 0.850463045543238 
    5100 103.022973680985160 -5114.667229283335473 -5127.469118608002645 12.801889324666909 -74.339455241396436 -5091.102532720920863 -36.010863046786135 -0.355722840295801 72.876913799958828 20.925893540138972 20.668106793489784 3.301511341524834 -0.052259905221976 -0.038891246977124 -0.000584337917572 0.104627478856816 0.090228363767793 0.376592913228002 
    5200 105.073596585018095 -5114.659207952521683 -5127.818621204115516 13.159413251593703 -74.602279343034326 -5091.309116080835338 -36.153244704804756 -0.356260418475794 74.912179044274211 20.920292016432541 20.663757382287898 3.297911297800130 -0.057966838048045 -0.046825697947258 -0.071421375082870 0.004665520085777 0.032615112212059 0.528065022537707 
    5300 107.198358634021133 -5114.668031899326706 -5128.403329554706033 13.735297655379242 -75.346429736365351 -5091.937739033154685 -36.102444788768807 -0.363145732782257 78.190498125861126 20.914717673073380 20.659117313549281 3.289571271494713 -0.051541157611843 -0.044207038049889 -0.069162471126795 -0.108851945866473 -0.067160705709334 -0.689810250654018 
    5400 109.228326682990883 -5114.662170014841649 -5127.948406810191955 13.286236795350703 -75.387703988748967 -5091.511635294188636 -36.072811044093676 -0.363960471909080 75.634143453728655 20.910411942384567 20.655298362555151 3.289295104128101 -0.033403065218140 -0.030218242379603 0.067381238686275 -0.194605725147114 -0.146523989581552 -0.856573949857289 
    5500 111.207744218001608 -5114.657355472014387 -5127.461854315488381 12.804498843474214 -74.711679091165820 -5091.018049204480121 -36.086231200355513 -0.357573910651504 72.891768925820045 20.908214180976621 20.653143063275103 3.297054984366552 -0.009720327360560 -0.012170973713609 0.067346904082428 -0.225449677836972 -0.168863124124105 0.145719517574028 
    5600 113.187812371004838 -5114.666727048758730 -5128.011433527959525 13.344706479200759 -74.224881325927825 -5091.583528801468674 -36.074088213836248 -0.353816512654709 75.966991988955485 20.908538368947099 20.652923077123702 3.302463512942324 0.015889327386213 0.008440716029828 0.023790547467277 -0.230056403882847 -0.180152068261118 0.767501154303459 
    5700 115.223549607966561 -5114.666810586315478 -5127.964890948066568 13.298080361751023 -74.457764814311759 -5091.517768669598809 -36.091855981508672 -0.355266296957991 75.701564952677018 20.911288074293296 20.654702128224290 3.299862863363933 0.037625724707818 0.026938507565963 -0.067405999343081 -0.163243605037265 -0.149806301663291 0.514572194821791 
    5800 117.169673689000774 -5114.662858436766328 -5127.861332436821613 13.198474000055079 -75.219469548326174 -5091.423252163041980 -36.075809622507293 -0.362270651271583 75.134538941816572 20.915884305415620 20.658153568361477 3.291251160711568 0.052774362701590 0.040324635682486 -0.078126729937349 -0.083456525059511 -0.074108075254491 -0.622179159307241 
    5900 119.133437525015324 -5114.661434639346226 -5128.122040563365772 13.460605924019552 -75.433729145408122 -5091.651122558894713 -36.106888573696963 -0.364029430773623 76.626769123042052 20.921546935270850 20.662539917189239 3.288396063998289 0.057935659991731 0.045447202429849 0.025173290961737 0.038569568393737 0.013515063513606 -0.778300066914939 
    6000 121.139721712970641 -5114.664442256076654 -5127.733452694777952 13.069010438700969 -74.927098036313936 -5091.288667310954224 -36.085439044409689 -0.359346339414585 74.397545786996858 20.926862724858438 20.666823150831057 3.294769717951894 0.047094941458034 0.039116956605295 0.089996142121431 0.092168058082724 0.082016790004862 -0.193287408380923 
    6100 123.108605619985610 -5114.662728887936282 -5127.775487453238384 13.112758565301895 -74.291302895997418 -5091.332944580795811 -36.088206077974540 -0.354336794467497 74.646589375044613 20.930791258191853 20.670027254798512 3.301758612534544 0.029351790635962 0.024164568819317 0.029990483721432 0.204075556248549 0.154934332598793 0.739997173053649 
    6200 125.163303233974148 -5114.659594421228576 -5127.537208941286735 12.877614520058508 -74.292769878539971 -5091.081010129689275 -36.101795123934032 -0.354403687663752 73.307992244482264 20.932427407650824 20.671559044694661 3.301470974921893 0.002956379340524 0.006095195577238 -0.036871542633484 0.229836098959731 0.187591272415239 0.811621207942855 
    6300 127.140096729970537 -5114.659371631707472 -5127.485202743766422 12.825831112058735 -74.996342062585185 -5091.031062152058439 -36.094428572605565 -0.359712019102327 73.013206462059031 20.931442557444445 20.671098897403148 3.293761498788298 -0.022174387750966 -0.015128250994893 -0.091858665641609 0.217515673765781 0.173710556386123 -0.256816289625468 
    6400 129.109909966005944 -5114.663273725152976 -5127.995005063115968 13.331731337962824 -75.498028432576660 -5091.542932731670589 -36.087805996089742 -0.364266335356113 75.893128809423274 20.928128649302025 20.668690421205312 3.287971777340986 -0.042448990250264 -0.032225197774114 -0.005198026954041 0.150677445139299 0.148139132018669 -0.953117141472668 
    6500 131.115715054969769 -5114.661111821650593 -5128.066500464955425 13.405388643304695 -75.139382250448818 -5091.604836721116044 -36.099934705756702 -0.361729038082933 76.312435441124407 20.923125663642576 20.664890476868898 3.292036274624536 -0.055729679640580 -0.041501253326041 0.079931583815572 0.049261900986849 0.033945669260178 -0.381135271389227 
    6600 133.125299616018310 -5114.664455218325202 -5127.806469149888471 13.142013931563254 -74.397953581452271 -5091.349402205907609 -36.102022396577411 -0.355044547403465 74.813130480903666 20.917452551035357 20.660706957683157 3.300509212515522 -0.055951861138117 -0.040865963063575 0.068544161938680 -0.045061688765106 -0.030305251680137 0.631774590865013 
    6700 135.240329672989901 -5114.663593413010858 -5128.029822111544490 13.366228698533655 -74.233861727117400 -5091.582623872727709 -36.093357412084664 -0.353840826733379 76.089510851861533 20.912296412057923 20.656964226685989 3.302326919079546 -0.045381861233014 -0.032597146130290 -0.036960297468029 -0.144848922557989 -0.100110229900310 0.812063508297560 
    6800 137.350231566000730 -5114.664169444938125 -5127.926801345067361 13.262631900129271 -74.738858950484158 -5091.461860366535802 -36.107076955779647 -0.357864022751586 75.499768607119506 20.908686232924033 20.654373984968860 3.296348971953746 -0.024837849475155 -0.017865527933458 -0.072761221775919 -0.223253710999150 -0.148501883610453 0.195951542343088 
    6900 139.565444496984128 -5114.663600792978286 -5128.230029531778200 13.566428738799937 -75.434722286257340 -5091.774140939259269 -36.092173119678712 -0.363715472839197 77.229183341383987 20.907541339263830 20.653543123738721 3.288895754549953 0.002638229677810 0.000957827931027 -0.052045548816876 -0.262309667051384 -0.148398578992691 -0.868386733625441 
    7000 141.527214588015340 -5114.667364746551357 -5128.081623862331071 13.414259115779917 -75.280834075042748 -5091.644810526782749 -36.073777993204331 -0.363035342345241 76.362932101542810 20.909224803265005 20.654639085680270 3.290368744245084 0.030008841838776 0.021124754806132 0.076976816220729 -0.224449590254040 -0.158291460753009 -0.685918798177964 
    7100 143.549167856981512 -5114.661195618112288 -5128.130308455482009 13.469112837369865 -74.501396291495780 -5091.647317318982459 -36.126935259671654 -0.356055876829017 76.675196161833895 20.913345665954569 20.657514139898133 3.298911330649466 0.050590268507910 0.035163607004035 0.070021588034087 -0.114741724431349 -0.088673011392236 0.597663655803601 
    7200 145.824236369982827 -5114.663801350944595 -5127.350567035293352 12.686765684349037 -74.264811405519026 -5090.965273436646385 -36.031160068236915 -0.354133530409286 72.221553063819883 20.918933349785227 20.661401228702406 3.302431412696220 0.058484013855946 0.040339632081067 0.002365489682824 0.007426212935201 0.003099291547449 0.502443704047546 
    7300 147.814523149980232 -5114.660052466732850 -5127.788479107892272 13.128426641159489 -74.472844126674431 -5091.288583076706345 -36.144164854236195 -0.355731176949829 74.735782539016512 20.924672411874006 20.665383686795671 3.299089444328806 0.054973959627352 0.038186027025497 -0.076850721815120 0.078894754669826 0.049496040518582 0.739800286005269 
    7400 149.934785454999655 -5114.664562318010212 -5127.787726930725512 13.123164612715099 -75.314974998092623 -5091.370928565074792 -36.053792957012789 -0.363005408638057 74.705827554745881 20.929454127676664 20.668714613412039 3.290154015845754 0.038974573013570 0.026859994277230 -0.071047697078505 0.178923409376211 0.142260319963463 -0.844037811811769 
    7500 151.894583953020629 -5114.659273221614058 -5128.032062317835880 13.372789096222276 -75.414730689695148 -5091.549017931006347 -36.119941208023363 -0.363103178805530 76.126857022002667 20.932276063281893 20.670550974927014 3.288861067611061 0.015847323356709 0.009401249181654 0.046323992451582 0.242157939839049 0.177101131544467 -0.722004178488870 
    7600 154.205991032009479 -5114.667292451216781 -5128.083181946364675 13.415889495148269 -74.756077415921112 -5091.632077211026626 -36.092701193021504 -0.358403542315860 76.372213311032695 20.932546054918600 20.670518945554804 3.296203165180034 -0.010627817986661 -0.009524246265290 0.084927262327312 0.230759920423442 0.148229448411975 0.138761714915557 
    7700 156.483011943986639 -5114.665857711202989 -5127.757058728734592 13.091201017531281 -74.263612316146350 -5091.351404456811906 -36.051691831383451 -0.353962440538811 74.523869399049318 20.930232299334396 20.668694492361052 3.302594104668085 -0.035234854661415 -0.026447521978741 0.037319697108368 0.199555830170116 0.113867243312336 0.589022720106054 
    7800 158.425806363986339 -5114.671849781570927 -5128.524870414472389 13.853020632901725 -74.236206075986502 -5092.040077593735077 -36.130988428826754 -0.353804391909929 78.860656027371007 20.925743202225927 20.665588275919493 3.301988094705775 -0.053015495396986 -0.035280661577773 -0.058071310484896 0.122719494703960 0.078419161877915 0.985167126244958 
    7900 160.368128011992667 -5114.664623845933420 -5127.607457405612877 12.942833559679745 -75.105327123281668 -5091.202370519376927 -36.043020561380324 -0.362066324856766 73.679262625599748 20.919989445826449 20.661801652211665 3.292650530556585 -0.059506659224019 -0.038337271993862 -0.101315459921114 -0.004422431789579 -0.021247726912402 -0.551860560197026 
    8000 162.341623506974429 -5114.667124148389121 -5128.120753172463083 13.453629024073740 -75.498104435316691 -5091.636899477414772 -36.120077155287404 -0.363776539760679 76.587051943565882 20.914303425531934 20.658207423517560 3.287946054817130 -0.052221456160176 -0.032470617987868 0.010871135557606 -0.124868812529419 -0.079246247169801 -0.848142335389673 
    8100 164.392998265975621 -5114.669927434551937 -5128.222796389934047 13.552868955382188 -75.046264912721284 -5091.756677785163447 -36.105558813621201 -0.360559791149457 77.151991987653304 20.909946996141805 20.655604439543410 3.292825931553248 -0.033939511653792 -0.018586739892739 0.075537442408120 -0.191533396084552 -0.145668865765854 -0.236963937816453 
    8200 166.476868544996250 -5114.663173205803105 -5127.705955142134371 13.042781936331579 -74.368717978643247 -5091.264718507121870 -36.085869538323365 -0.355367096689524 74.248235614271564 20.907814179294711 20.654700696687598 3.300763928539888 -0.007614681994845 0.000154718776617 0.066636850229149 -0.247817095279447 -0.145846097610915 0.652351118726896 
    8300 168.552837406983599 -5114.661086268496547 -5127.779636141774972 13.118549873278868 -74.237903366757806 -5091.328617329243571 -36.098183080521778 -0.352835732009555 74.679557372308395 20.908386363193650 20.655511530136284 3.302706402378166 0.018975019206421 0.015118712868596 -0.028699639224528 -0.239513692644918 -0.115641190556591 0.796641739358786 
    8400 170.530763806018513 -5114.666678575307742 -5128.398600712007465 13.731922136699318 -74.749314268298690 -5091.905476711146548 -36.135233490401411 -0.357890510458198 78.171282416552273 20.911422384526453 20.657702258959130 3.296398701321732 0.040716179560300 0.027782381715588 -0.089048752193774 -0.181031894594265 -0.091306166092961 0.290811821507707 
    8500 172.570988530002069 -5114.666580275163142 -5127.875318242885442 13.208737967722337 -75.432239318073229 -5091.474775741930898 -36.035380499687449 -0.365162001267208 75.192968308604733 20.916339691495033 20.660911629582419 3.288522204102243 0.055815003664483 0.034586729376735 -0.041994516455053 -0.100102504084333 -0.020074993399861 -1.033599167193362 
    8600 174.613460874999873 -5114.659363816484984 -5127.870217767385839 13.210853950900733 -75.274178855249545 -5091.348505613963425 -36.159709284190001 -0.362002869232505 75.205013899672053 20.922182495859662 20.664424807547057 3.290184030474049 0.058389176642211 0.034796596169519 0.062933552221823 0.025205258845802 0.037670292498115 -0.379157526065371 
    8700 176.586612535000313 -5114.665228966808172 -5127.935518868338477 13.270289901529880 -74.672588720408186 -5091.513660620890732 -36.064343820420149 -0.357514427028087 75.543363071483199 20.927638588429229 20.667523698566722 3.297621398201754 0.049213763605943 0.025966725768785 0.079374601296622 0.129688109982561 0.099506852802007 0.090135069067908 
    8800 178.643921995011624 -5114.669797928696426 -5128.078021158222327 13.408223229525568 -74.146651729594808 -5091.626491966961112 -36.098335222096452 -0.353193969163766 76.328571801191131 20.931531173257824 20.669410513748989 3.303341749621916 0.028034738981301 0.011351070931508 0.019682772217102 0.182691459923740 0.142841147454532 0.982743563769778 
    8900 180.624325282988138 -5114.665487222357115 -5127.909163004222137 13.243675781864642 -74.510276573443292 -5091.450401010387395 -36.103151826102916 -0.355610167731160 75.391857707273545 20.933044441693539 20.669736950614507 3.299470187709602 0.000624419315112 -0.004845412277893 -0.085042552801528 0.269561085279787 0.140770104074680 0.475546750105431 
    9000 182.603141035011504 -5114.666803528281889 -5127.755753954605098 13.088950426323008 -75.227949216659468 -5091.317152928944779 -36.076117378092064 -0.362483647568133 74.511057529072573 20.931706779011275 20.668434238856520 3.290752125722165 -0.026595876438830 -0.021356081815256 -0.069880358264345 0.221055064219862 0.124317814146557 -0.618551643449197 
    9100 184.609568398969714 -5114.665415723197839 -5128.254039494409881 13.588623771212028 -75.549900150021728 -5091.833077751077326 -36.055540019352037 -0.365421723980153 77.355532306201752 20.927913944840761 20.665694355704936 3.287394532801205 -0.048630190476618 -0.032713167319786 0.011589730600432 0.182073069357604 0.064779016731025 -1.136276019056602 
    9200 186.583881290978752 -5114.661500309318399 -5127.740072786969904 13.078572477651303 -74.897882777471864 -5091.223997755310847 -36.157916240867664 -0.358158790790336 74.451979306195668 20.922338742876548 20.662230929894356 3.294739655009375 -0.060190539738112 -0.034764683041767 0.105825448051116 0.043011399657483 -0.015167729949961 0.126855285979284 
    9300 188.639047077973373 -5114.662486142141461 -5127.977441183753399 13.314955041611702 -74.192232164638625 -5091.580244672193658 -36.042959211934331 -0.354237299624883 75.797626913409573 20.916305828865653 20.658922766021828 3.302925893919934 -0.058277815789774 -0.030021521804940 0.050961379972825 -0.076842147957603 -0.084405663160882 0.702595952724034 
    9400 190.703652694995981 -5114.661207258627655 -5127.522790125327447 12.861582866699738 -74.120931026729892 -5091.053278142035197 -36.116610248351847 -0.352901734940216 73.216729354273809 20.911020142045860 20.656472946284353 3.303270285420219 -0.045869654592715 -0.018127509171707 -0.054743848587373 -0.154591813824975 -0.134268727449878 1.099232460180219 
    9500 193.070504552975763 -5114.671186119807317 -5128.431106488337718 13.759920368530787 -75.045717490999692 -5091.983245927975076 -36.087986598104919 -0.359873962257780 78.330667072674999 20.907556292745817 20.655327977354343 3.293547080699665 -0.022089141571831 -0.004418829652771 -0.112250493802117 -0.219009673869006 -0.135981571317075 -0.379143660692626 
    9600 195.252510225982405 -5114.664284404488171 -5128.017009122249874 13.352724717761820 -75.544383486124630 -5091.580898915308353 -36.070962158636121 -0.365148048305869 76.012637164102870 20.906832785468271 20.655628852409684 3.287337719050693 0.008104938297078 0.009544337347183 -0.000519078616487 -0.262214050377350 -0.115645185592362 -1.075952756894858 
    9700 197.480031861981843 -5114.664038710266141 -5127.692773672441035 13.028734962175175 -75.180816902799847 -5091.249882436120970 -36.080721569396893 -0.362169666924116 74.168270845104715 20.909052020185428 20.657331664242715 3.291507411074430 0.035553366968182 0.024564615698317 0.071444134044761 -0.222630476467101 -0.112113882550294 -0.519173656874597 
    9800 199.695904278021771 -5114.664312837699981 -5127.835968847741242 13.171656010041264 -74.398171426502984 -5091.389440803688558 -36.091968249707037 -0.354559794345843 74.981873011268405 20.913739274041337 20.660293343021056 3.300918358529649 0.056802499696904 0.033402451829504 0.099956575541129 -0.142833515377258 -0.038898546936827 0.551639867997495 
    9900 201.714854974998161 -5114.662043808020826 -5127.672720277647386 13.010676469626668 -74.030798215921379 -5091.216761704143209 -36.103797552357136 -0.352161021146902 74.065469831016983 20.919893857591536 20.663673079975375 3.304573631575953 0.063841911653931 0.032715635584246 -0.035439509260640 -0.018586642731064 0.037899699653686 1.156836612406302 
   10000 203.791678249021061 -5114.663239157028329 -5127.775535041001604 13.112295883973248 -74.781435173272996 -5091.348288045219306 -36.068946833770113 -0.358300162011702 74.643955483558017 20.926101581814414 20.666681363701141 3.296305287853344 0.057039338494897 0.026671507535794 -0.104631202385259 0.134422696602108 0.084949136617628 -0.041970501494769 
   10100 205.817252717970405 -5114.670000808216173 -5127.999861073316424 13.329860265100194 -75.499209172969657 -5091.528578507412021 -36.107113079602513 -0.364169486302263 75.882477411628372 20.930943529172954 20.668677574786123 3.287764956070651 0.038665201589508 0.012843002579723 -0.049256198606977 0.198935682661222 0.129728067810789 -0.904915737281749 
   10200 207.782419332012068 -5114.653710483275063 -5127.265033286363177 12.611322803088528 -75.467842331212253 -5090.847270779475366 -36.052710598859512 -0.365051908028164 71.792081740095114 20.933443031779092 20.669233660800938 3.288061167677971 0.010365782833067 -0.002743392650115 0.055773890242177 0.255222511843589 0.182338187244928 -1.015733514224226 
   10300 210.062657215981744 -5114.668130846707754 -5127.988907037899480 13.320776191191676 -74.634007843670844 -5091.556859988248107 -36.074866490562826 -0.357180559088616 75.830764789030709 20.933031590673348 20.668101994717869 3.298077974732136 -0.018515948687913 -0.018060163186596 0.120023772821477 0.243865036152442 0.098795110824830 0.183613877650071 
   10400 212.068701691983733 -5114.660941263607128 -5127.714825858253789 13.053884594646563 -73.954791791897179 -5091.231426435204412 -36.132856172345328 -0.350543250703709 74.311439369002713 20.929880910171200 20.665803761683382 3.305588505854514 -0.043293433193501 -0.026479536422803 0.009752825599061 0.167145152733179 0.033226586751605 1.349480929135466 
   10500 214.065307135984767 -5114.665876991018195 -5127.941168456901323 13.275291465882981 -74.437710910508997 -5091.537065529054416 -36.047327555962653 -0.356775371884051 75.571835319991365 20.924707513076232 20.662943340751820 3.300027852202031 -0.059364565292409 -0.030781091288193 -0.100307112644203 0.115762073215362 0.029380814478195 0.404545360796840 
   10600 216.090178748010658 -5114.662977480853442 -5127.660783539468866 12.997806058615161 -75.290812297369172 -5091.133311369016155 -36.165836185987160 -0.361635984465160 73.992202845959682 20.918441049158687 20.659943966097014 3.289805518023824 -0.063130931022659 -0.027626717940556 -0.088446727861773 -0.009129359577700 -0.058767823972170 -0.387042679609502 
   10700 218.097292795020621 -5114.670030871759991 -5128.184583473338535 13.514552601578396 -75.766356508326950 -5091.762223804072164 -36.055544212207600 -0.366815457058126 76.933869682228647 20.912501831184120 20.657457671810995 3.285067189042918 -0.052692503316030 -0.021108369259455 0.015167598320290 -0.155682728309126 -0.100141617130427 -1.469356605665235 
   10800 220.114426194981206 -5114.663585118172705 -5128.048140302590582 13.384555184418097 -74.931589442956707 -5091.573664056089001 -36.114552368417222 -0.359923878084226 76.193837463206563 20.908273490353935 20.656035053398099 3.293912472983097 -0.030826405893113 -0.006923497541963 0.128603620469399 -0.228981699959012 -0.126888070540289 -0.026695594778335 
   10900 222.213257040013559 -5114.667217870534841 -5127.888347345977309 13.221129475442863 -74.083433511188161 -5091.409793733987499 -36.126653098763413 -0.351900513227646 75.263509055919286 20.906658997486073 20.656079250641032 3.304056980828153 -0.001604061898692 0.008176535595169 0.050322305409289 -0.240830346612736 -0.136543888339599 1.160259596951377 
   11000 224.224410375987645 -5114.668201973015130 -5127.885629917574988 13.217427944559567 -74.222660167321663 -5091.471329684127340 -36.060308555405996 -0.353991678041291 75.242437467166368 20.907987806672967 20.657533680276075 3.302868878834147 0.027786473101759 0.020756056699002 -0.062558706472466 -0.232879170789862 -0.109717368224320 0.716409031288804 
   11100 226.422241104010027 -5114.663170508025360 -5127.799125852029647 13.135955344004490 -74.927588535076865 -5091.294907711760970 -36.144771694138633 -0.359446446130559 74.778640949548418 20.911954337557482 20.660071017488164 3.293961036660444 0.050126144990543 0.028387668003824 -0.101340465234716 -0.156191009185697 -0.041808210160366 0.096090688950787 
   11200 228.506809837010223 -5114.661746515551386 -5128.138954707636003 13.477208192084627 -75.709156427686082 -5091.678603294916684 -36.094588130804738 -0.365763281913773 76.721280333690544 20.917693172420030 20.663031943377682 3.285726196619942 0.063012868532484 0.029561157049243 -0.033980609713881 -0.063652976893589 0.033669130488308 -1.256624594789283 
   11300 230.475960201001726 -5114.666281783573140 -5128.001351430850264 13.335069647277066 -75.274631212776171 -5091.526736697503111 -36.111992365895333 -0.362622367452550 75.912132698143267 20.924026071515424 20.665725595211754 3.290238815642390 0.060368531055182 0.023501732370826 0.107828199172957 0.070812978011661 0.091858990892878 -0.535503564027140 
   11400 232.529532465967350 -5114.661942646444004 -5127.816804050296014 13.154861403852420 -74.316056964395500 -5091.345260192700152 -36.116886624598273 -0.354657232996509 74.886266883415828 20.929452069618037 20.667597177074608 3.301038397617016 0.045918497932255 0.014048679698845 0.077450369957119 0.169813001030012 0.098825827667508 0.825984049571944 
   11500 234.497609135985840 -5114.662815499924363 -5127.791705884445037 13.128890384520918 -74.138722286640530 -5091.444854293227763 -35.993407362841765 -0.353444228375381 74.738422476303825 20.932938244845694 20.668364409287609 3.304208943166446 0.023033023661311 0.001123507496456 -0.007511200123707 0.237847627688330 0.116026125263693 0.527020764575175 
   11600 236.451088399975561 -5114.660780027507826 -5127.811828560827053 13.151048533319580 -74.488958322762130 -5091.298837449588973 -36.157123100110908 -0.355868011127335 74.864561474932344 20.933699280861909 20.667853795849801 3.298726477354734 -0.007524918775663 -0.011672230055042 -0.111210318156030 0.248171457008333 0.114872623839278 0.753063333214891 
   11700 238.547904327977449 -5114.661890061330269 -5127.488890658432865 12.827000597102334 -75.562932921888176 -5091.111392625867666 -36.011679110671452 -0.365818921893488 73.019863952883327 20.931491120686179 20.666202056252178 3.287671747780366 -0.036162086110293 -0.020695764794349 -0.066405431111494 0.226259803470980 0.071549039732104 -1.341471961362002 
   11800 240.583210881974082 -5114.671043030804867 -5128.487127975979092 13.816084945174216 -75.423182279821646 -5091.968791108091864 -36.155375086119165 -0.362961781768441 78.650393396411275 20.926700714410515 20.663770758142828 3.288770887715487 -0.057799207172967 -0.026763210292556 0.074255300723894 0.123558154586104 0.029205599004426 -0.608116515301688 
   11900 242.579676060006022 -5114.666595789514759 -5127.627142017987353 12.960546228472667 -74.620095343768725 -5091.212828946951049 -36.056340274250942 -0.357972796784657 73.780094979641575 20.920419937092188 20.661007407536246 3.297834144066199 -0.065952827999654 -0.027117261195138 0.092924637900179 0.005775279268388 -0.043333778873581 0.174864665011019 
   12000 244.554508792993147 -5114.668199284924412 -5127.928596941728756 13.260397656804409 -74.050686284042285 -5091.517352293692056 -36.058564472502013 -0.352680175535285 75.487049800225876 20.914049968824401 20.658624874892602 3.304817497078936 -0.058534606457701 -0.019663212309618 0.030841452142709 -0.117933609959851 -0.071983172154844 0.937240983032686 
   12100 246.586212306981906 -5114.665900689201408 -5128.071145377240100 13.405244688038898 -74.333694503840945 -5091.581887674339669 -36.135563983635819 -0.353693719264361 76.311615951498268 20.909012763292047 20.657184099832726 3.301245722128912 -0.040545185181111 -0.008299910667777 -0.102810610596713 -0.196934798341422 -0.113914711573433 0.816101955004952 
   12200 248.620701150968671 -5114.664390481006194 -5127.704527516747476 13.040137035741362 -75.300624530838505 -5091.252557269936915 -36.088298816382817 -0.363671430427135 74.233179071644585 20.906263429258289 20.657023985541834 3.289715656575539 -0.012660603726359 0.004695217564054 -0.096847241972121 -0.262422893618854 -0.119316679711397 -0.634319993401957 
   12300 250.694549694017041 -5114.666291391668892 -5128.313843681321487 13.647552289652264 -75.676280550021602 -5091.865731930740367 -36.082299114504799 -0.365812636076003 77.690992834707771 20.906574295422516 20.658065419774914 3.285849313369584 0.018297783359073 0.015843392860320 0.037413718497050 -0.246149562434848 -0.110457387995892 -1.242479043843485 
   12400 252.702934953966178 -5114.663197408682208 -5127.890647350391191 13.227449941709079 -74.951140373141868 -5091.421604394632595 -36.109763060183326 -0.359279895575672 75.299489375978069 20.909846704036898 20.660096452006407 3.294207672299531 0.045686124068063 0.023722177198857 0.108427757964089 -0.175162941830414 -0.046873803642039 -0.145422184372183 
   12500 254.779861574003007 -5114.666938989556002 -5128.043438823417091 13.376499833860672 -74.088422133425723 -5091.661882324058752 -36.027609306295794 -0.353947193062258 76.147981021761566 20.915322126685968 20.662597128900408 3.304248955994423 0.062161734078117 0.025717354887151 0.072263204141882 -0.087278553087819 -0.008371705699248 0.815014637248940 
   12600 256.847599086002447 -5114.664420476758096 -5127.625343821746355 12.960923344988212 -73.991135403179882 -5091.152380239971535 -36.121811636707704 -0.351151945068210 73.782241779000543 20.921846866203911 20.665144268449094 3.305310322125349 0.066199546370161 0.024210068072920 -0.063158240323749 0.048195013913407 0.054879556889350 1.259272564933804 
   12700 258.997385938011575 -5114.667795879942787 -5127.739578634484133 13.071782754541156 -74.971652358998810 -5091.361794693156298 -36.017280273784628 -0.360503667543971 74.413327662420684 20.927968732239275 20.667141333632955 3.294477660867525 0.054193347983600 0.015454859855352 -0.121030837381582 0.152919866821542 0.079149694962625 -0.523997243455025 
   12800 261.139733646006789 -5114.666561484824342 -5128.345974483007922 13.679412998183729 -75.552283139372477 -5091.892305592946286 -36.087803311099954 -0.365865578962041 77.872365290785737 20.932347372598855 20.668170237069067 3.286798903387242 0.031254876896245 0.004474843063154 -0.027878814632885 0.257472440552400 0.114821471302077 -0.966488243471750 
   12900 263.165981050988194 -5114.666758182593185 -5127.788434013089500 13.121675830495928 -75.312488990734010 -5091.387128701144320 -36.038502047160797 -0.362803264783991 74.697352410905637 20.933954031531218 20.667940963181362 3.290593394703826 0.000203768519138 -0.009441087187553 0.103941908211880 0.283540749785175 0.111114300307802 -0.953261046790890 
   13000 265.189202530018520 -5114.664183645047160 -5128.218855324314063 13.554671679267104 -74.237084074608603 -5091.746001073523075 -36.119600538897984 -0.353253711893685 77.162254297366687 20.932413274736408 20.666486325075095 3.302425071440566 -0.030187792195755 -0.018685439456572 0.096909534298149 0.219643455389708 0.068781501275379 0.914465760663503 
   13100 267.219753479002975 -5114.663686286935445 -5128.026834154703465 13.363147867767987 -73.863483815925946 -5091.640970658336300 -36.033750841066080 -0.352112655301091 76.071972703198639 20.928220957942553 20.664255214906660 3.306727677199503 -0.051768300439752 -0.024684181900118 -0.013627840223750 0.135700216846696 0.027642508957568 1.147582472183774 
   13200 269.335498143977020 -5114.670119206515665 -5128.259785680754248 13.589666474238447 -74.553273925641676 -5091.846966872104531 -36.056249367705675 -0.356569440944158 77.361468069013640 20.922333979019101 20.661745085697156 3.299187984391914 -0.064016171578309 -0.024101883712856 -0.116561975932036 0.032805830213758 -0.015395423051522 0.214685288011056 
   13300 271.402173631999176 -5114.658543511347489 -5127.578156444596061 12.919612933248656 -75.488569749641613 -5091.134476325207288 -36.078867576119336 -0.364812543269421 73.547075293879985 20.915918443825451 20.659585153613911 3.287962624029578 -0.061986417913090 -0.018313354084381 -0.087811725340523 -0.065781790804749 -0.044219432221574 -0.993368443148054 
   13400 273.480690843018238 -5114.664311682550760 -5128.349374501507555 13.685062818956910 -75.593269201882748 -5091.913190769882931 -36.070166891298754 -0.366016840325616 77.904527848282541 20.910338155580021 20.658145499123638 3.286614868167039 -0.047204115832949 -0.009411478216093 0.062843640490516 -0.194062095323438 -0.108324175733017 -1.126349825190969 
   13500 275.490489798015915 -5114.659657166087527 -5127.562935930631284 12.903278764543854 -74.699960002340703 -5091.058462996086746 -36.147858178860126 -0.356614755684697 73.454090284050210 20.906841552026545 20.657717832873441 3.297053756522255 -0.021500581871635 0.000100718538948 0.118888689269394 -0.238288730282563 -0.076515038863655 0.358881108843550 
   13600 277.546916879015043 -5114.668329836353223 -5128.262660023650824 13.594330187297178 -74.017642587986657 -5091.847489706197848 -36.062834168333083 -0.352336149119161 77.388017042055765 20.906145421331356 20.658275964589290 3.305097767308659 0.008991133313393 0.011081011995232 0.032238926001768 -0.286669961161414 -0.083387461688882 1.019329976069859 
   13700 279.655832999967970 -5114.664233078718098 -5127.765821531214897 13.101588452496884 -74.187665441519755 -5091.330123762159928 -36.081578575492038 -0.354119193563032 74.583001624253953 20.908557522329605 20.659797008700966 3.302950660303186 0.038037993968355 0.019221193782858 -0.073582756919382 -0.221701624401860 -0.060822534337799 0.891041360411880 
   13800 281.706922381010372 -5114.663656118446852 -5127.806928292769044 13.143272174321872 -75.210415727358907 -5091.360069941076290 -36.085401924608156 -0.361456427083872 74.820293239988189 20.913448913134705 20.661938911634120 3.291549014459736 0.057530153919956 0.022701767145498 -0.130439610020773 -0.111519459097399 -0.015011775590630 -0.607833164174660 
   13900 283.687869579007383 -5114.666856345299493 -5128.118088882878510 13.451232537578786 -75.696034385954476 -5091.707365999452122 -36.043705105378777 -0.367017778047088 76.573409540066976 20.919727550623406 20.664227947398604 3.285621890064227 0.065743888579205 0.022013160800054 0.022967307469648 0.026931020913654 0.035849601896523 -1.402314058861200 
   14000 285.767516168998554 -5114.663365361871001 -5127.856514372371748 13.193149010500658 -75.010235466544856 -5091.396033882656411 -36.099657925777052 -0.360822563938134 75.104225540809779 20.926044769109701 20.666170849041812 3.293124734706460 0.058787746136042 0.015854319215353 0.099581673710668 0.142513123498584 0.068546891766536 -0.205972063732774 
   14100 287.718139044998679 -5114.659468238998670 -5127.621507294161347 12.962039055162792 -74.289499050711996 -5091.239147856429554 -36.028593490889094 -0.353765946843380 73.788593147314756 20.930964797195738 20.667293092437387 3.302808982709690 0.038379797753491 0.006579371239108 0.081647756132391 0.203416254808323 0.076559287042987 0.410688894267177 
   14200 289.731245742994361 -5114.664706167995064 -5128.059453842553921 13.394747674558520 -73.839591505518939 -5091.554571483211475 -36.154451035416983 -0.350431323925070 76.251859932119743 20.933570351726789 20.667385523334463 3.306166387490659 0.012686426908328 -0.004542917521284 -0.037510735380693 0.243706910546489 0.075280330125890 1.662314845576426 
   14300 291.753084369003773 -5114.660646907745104 -5127.632301321162231 12.971654413417141 -74.857698160333143 -5091.216718179287454 -36.055965553202455 -0.359617588672689 73.843330195643063 20.933408647176790 20.666449934895791 3.295376535392446 -0.016292408692176 -0.013829381747508 -0.138663297917956 0.253576385670797 0.049110215063147 -0.141443399662006 
   14400 293.773516776971519 -5114.668714238252505 -5128.573832812542605 13.905118574290318 -75.704329692375325 -5092.085952486680071 -36.122638608321090 -0.365241717541412 79.157232344150771 20.930410616897806 20.664799760199276 3.285537253839272 -0.042956897766639 -0.019379390392947 -0.039923849299151 0.219218537112605 0.053942844506024 -1.171885656628002 
   14500 295.777032279002015 -5114.664409794919266 -5127.901561693931399 13.237151899011980 -75.388913222361680 -5091.428186768100204 -36.109640087210423 -0.363734838620422 75.354719403993698 20.925058154449673 20.662702470820946 3.288675515480481 -0.061116303382327 -0.021319551491334 0.094008364999399 0.088535649165522 -0.001168964801514 -0.691756432958516 
   14600 297.744161418988369 -5114.666234796289245 -5128.176289999336404 13.510055203047282 -74.518182125833079 -5091.777480107766678 -36.041718049550276 -0.357091842020468 76.908267482681069 20.918544967824975 20.660650430551829 3.299672847945726 -0.067112034663959 -0.019441688473387 0.110883893191209 -0.032402859683899 -0.028438413242901 0.266824548866390 
   14700 299.723295016970951 -5114.660228313933658 -5127.920077421182214 13.259849107248913 -73.835842956320164 -5091.475743923314440 -36.094488254134376 -0.349845243733224 75.483927089377730 20.912285350486599 20.659017169559114 3.307113570415981 -0.055870817462025 -0.012839210304735 0.018184785381900 -0.167256849768256 -0.065428014714788 1.354860851156743 
   14800 301.677974176011048 -5114.671519179082679 -5128.298992109183018 13.627472930100604 -74.339911532482091 -5091.851551387881045 -36.092223857291401 -0.355216864010278 77.576687694419988 20.907802992966829 20.658155486888745 3.300850534679818 -0.032512029478457 -0.004077323129184 -0.124900861999683 -0.235522329882591 -0.097598497752172 0.701659668450065 
   14900 303.648179312003776 -5114.659477581460123 -5127.813814031554102 13.154336450094139 -75.566575416293261 -5091.438824790965555 -36.009195499387346 -0.365793741201026 74.883278495622349 20.905992067377529 20.658241169646388 3.287458954439948 -0.002498987426344 0.005830037199682 -0.097213169571586 -0.283718863315524 -0.089322481539402 -1.362634850313036 
   15000 305.607909335987642 -5114.664487177042247 -5128.006857355061584 13.342370178019639 -75.661839114468933 -5091.509779338986846 -36.131699918931716 -0.365378097143020 75.953692200504790 20.907313552700892 20.659347646257476 3.285825194217786 0.028609582515817 0.015341093105370 0.057621206354554 -0.262795406148850 -0.033057241828129 -1.009457234496081 
   15100 307.598520494007971 -5114.668720788285100 -5127.854158171965537 13.185437383680055 -74.807835241484170 -5091.462184540642738 -36.032441795274352 -0.359531836048188 75.060325804699758 20.911396240912701 20.661086922894899 3.295882338545678 0.051227066791268 0.019472234432434 0.125063038602628 -0.159673943449781 -0.031579848008234 -0.187529503332890 
   15200 309.552495684998576 -5114.659354677765805 -5127.959218142415921 13.299863464649945 -73.864330098966221 -5091.524721658847739 -36.083887594988610 -0.350608888578935 75.711715566618892 20.917263189617231 20.663125570474421 3.307058407098809 0.064188412381896 0.020325880705361 0.066372612551908 -0.053005226474042 0.033435492572839 1.292569873112661 
   15300 311.497101717977785 -5114.660720942434637 -5127.843677359457615 13.182956417022721 -73.894798305972145 -5091.323523784240024 -36.169768162508156 -0.350385412710207 75.046202483630367 20.923701236870681 20.664979830362480 3.305847535859792 0.062204766952829 0.016515291536173 -0.098251519798447 0.085724869283738 0.035169073975951 1.609571443662088 
   15400 313.462550216005184 -5114.659227233674756 -5127.393170248526985 12.733943014851809 -75.229121796953237 -5091.050277621712667 -35.979214891023446 -0.363677735790647 72.490117973355382 20.929344802601292 20.666321053101065 3.291539210011959 0.048718779044574 0.009830820736293 -0.133634622535882 0.182518132693979 0.054870501588062 -0.982425052376739 
   15500 315.482322766969446 -5114.661972317972868 -5127.996167308264376 13.334194990291399 -75.696929873528731 -5091.441531963124362 -36.189852100344517 -0.364783244794999 75.907153565756445 20.932998785928611 20.666871262328634 3.285242839068336 0.022680644539843 0.000681824845789 0.004086177300104 0.258305931048429 0.071931505334157 -0.856236794696188 
   15600 317.430778670997825 -5114.663934295811487 -5128.143052678620734 13.479118382808807 -75.191987928234056 -5091.690829356184622 -36.089906796492720 -0.362316525943870 76.732154416508877 20.933768458940207 20.666537822386982 3.291145247751617 -0.007642546829417 -0.007154408131311 0.111973112144827 0.278799609017175 0.056850460201325 -0.505810712803388 
   15700 319.379728653992061 -5114.662036264511698 -5127.522099079857071 12.860062815345236 -74.194493590655142 -5091.138272623776174 -36.029163680870582 -0.354662775210316 73.208076205607682 20.931465892460952 20.665437312926997 3.303193536074521 -0.037738670907580 -0.014459135206917 0.105513538333111 0.224739733994664 0.041044670953119 0.666093583808737 
   15800 321.380283901991788 -5114.664049140373209 -5127.552215836782125 12.888166696408506 -73.817714768841512 -5091.059141381318113 -36.144319179728541 -0.348755275734638 73.368062287798367 20.926689818560106 20.663748175532973 3.307350585152481 -0.055724585425802 -0.018540087522233 -0.042632567989128 0.124496206383502 -0.006693083180452 1.559017773030309 
   15900 323.334287266014144 -5114.668117096662172 -5127.753253626318838 13.085136529656230 -74.718553410395771 -5091.330251190898707 -36.064028457346453 -0.358973978073859 74.489346279148620 20.920571401821988 20.661978506506575 3.296518384669451 -0.063883728561199 -0.016613949158178 -0.143951848754789 -0.005874949585183 -0.020026973763272 0.085765887754553 
   16000 325.288895514968317 -5114.666403239692045 -5127.851295491798737 13.184892252106993 -75.744684902769635 -5091.453825285398125 -36.030347199402293 -0.367123006998701 75.057222551293009 20.914372842090600 20.660487592032908 3.285400109048724 -0.058333660454619 -0.012417909244592 -0.043750298946102 -0.109867800789213 -0.056991033960363 -1.526871478208909 
   16100 327.254414563009050 -5114.663475749036479 -5127.996645619648007 13.333169870611345 -75.508828118630433 -5091.462771034359321 -36.170807526008772 -0.363067059279078 75.901317899108861 20.909404161496383 20.659626771218118 3.287931864485598 -0.039330278975258 -0.004651403459626 0.079749288751646 -0.244972153254007 -0.070353460971811 -0.683135949374597 
   16200 329.203308359021321 -5114.659689919871198 -5127.188646927698755 12.528957007827659 -74.579949637916314 -5090.899963505590677 -35.929684197422347 -0.358999224685987 71.323200560992461 20.906817151769371 20.659527937474319 3.299290811067097 -0.012607193065737 0.002448512066437 0.142265692660553 -0.229559019809572 -0.063725899146745 -0.199370683983246 
   16300 331.156181973987259 -5114.668129441870406 -5128.366508539436836 13.698379097566658 -73.541460562276669 -5091.836424257460749 -36.182922181536469 -0.347162100439380 77.980333009830773 20.906973624387575 20.660123079694660 3.309782379703707 0.016878648762331 0.008953254311128 0.020320698275260 -0.265956700421449 -0.037306093914003 2.148398630478027 
   16400 333.135632583987899 -5114.660938218614319 -5127.362049388781088 12.701111170166655 -74.417963560430209 -5090.966341998314419 -36.041000490846216 -0.354706899620425 72.303217160957061 20.909957871822705 20.661222800313087 3.300938261357903 0.042278167708562 0.012573415951255 -0.161429791336547 -0.209001911055671 -0.004677060392881 0.277785501442947 
   16500 335.096614415990189 -5114.664465731852033 -5128.238541373480075 13.574075641628157 -75.474636318712783 -5091.763345935921279 -36.109383308979353 -0.365812128579447 77.272714625252775 20.915133249470951 20.662594615032017 3.287107446236996 0.059143923557308 0.014422702013194 -0.095572533605468 -0.091191797761490 -0.009811063635174 -0.738539383360915 
   16600 337.040716436982621 -5114.668755856961070 -5128.077450890081309 13.408695033120502 -75.959735274072159 -5091.640136441481445 -36.069089626901473 -0.368224821698709 76.331257622716876 20.921397146200480 20.664049996008163 3.282741919732119 0.063655579609809 0.013692397365039 0.030385669325345 0.031687333223712 0.033501604557504 -1.683966561901322 
   16700 338.990648532984778 -5114.657191523062465 -5127.296792936839665 12.639601413776830 -74.979756353752791 -5090.848488251413073 -36.088919736887114 -0.359384948539540 71.953062500141456 20.927362662254026 20.665231537547612 3.294249119268928 0.053470454717725 0.009289649896768 0.167432295996888 0.158646777568441 0.062381013126713 -0.273079569317552 
   16800 340.948250140005257 -5114.670591210243401 -5128.361776222885055 13.691185012641549 -73.699992456833058 -5091.932254033708887 -36.079025739540327 -0.350496449636536 77.939379468235430 20.931674122199883 20.665831796302079 3.308101634684285 0.031816094846932 0.002546625409355 0.072957741513443 0.225540374510628 0.054309282066442 1.597268781744028 
   16900 342.890886340988800 -5114.667264464499567 -5128.284375168994302 13.617110704494992 -73.928789903874957 -5091.808438973734155 -36.125558830522571 -0.350377364737868 77.517698977748239 20.933493783916884 20.665758509062428 3.305979106957987 0.004373568776934 -0.003815150914073 -0.112467488655323 0.254738021524739 0.042338298946185 1.343741605478186 
   17000 345.005697208980564 -5114.664834964487454 -5128.055703396031276 13.390868431543762 -75.242638962038328 -5091.592721771829929 -36.101423895756618 -0.361557728444674 76.229776687090364 20.932502355695227 20.665059348434614 3.291029773651022 -0.023705730358016 -0.010118584718383 -0.150417662253948 0.236946627604209 0.043085536587473 -0.601620795224632 
   17100 347.006304502021521 -5114.667297199204768 -5128.218834188341134 13.551536989136338 -75.926004074086933 -5091.749407196609354 -36.099973154389247 -0.369453837342740 77.144409545185511 20.928882335250105 20.663850974986502 3.281961125739618 -0.047692769323332 -0.012922378251594 -0.016804688534706 0.179508169282402 -0.028172473988715 -1.409062827823203 
   17200 349.061939559003804 -5114.669562627819687 -5127.954411066289140 13.284848438469313 -75.507091743909058 -5091.532786892328659 -36.057461753515028 -0.364162420445970 75.626239998058736 20.923380297081511 20.662516778443035 3.288500316147482 -0.061096391768100 -0.013332744267687 0.146833909849944 0.098577093257598 -0.024665206550503 -1.170520341339654 
   17300 351.148626787005924 -5114.660234500865045 -5127.647359959799360 12.987125458933990 -74.031373026991659 -5091.162793733430590 -36.132955869252967 -0.351610357114879 73.931401731174475 20.917066997391913 20.661291069091419 3.304630421521833 -0.062280584064552 -0.011165240359401 0.131225061352441 -0.061339906001065 -0.042402428316733 1.265767424869865 
   17400 353.174809799995273 -5114.667427654843777 -5127.988533592961176 13.321105938117404 -73.664456120760036 -5091.607960665832252 -36.029462491470113 -0.351110435658101 75.832641929011587 20.911394519391244 20.660400672833230 3.308471733635241 -0.049351621520094 -0.006284855320464 -0.055255878338889 -0.169880133797822 -0.045462754049201 1.462119236826425 
   17500 355.219679754984099 -5114.655842338041111 -5127.365905911441587 12.710063573400070 -74.761826740945637 -5090.860990144841708 -36.148909838142686 -0.356005928456308 72.354180226032696 20.907569400121201 20.660025808431762 3.296944874126993 -0.025253588364088 -0.001012895055943 -0.154006003670141 -0.261212777339650 -0.039939787097040 0.211733772855119 
   17600 357.364239229005761 -5114.669516715784084 -5128.236766157197053 13.567249441413058 -75.868689237319501 -5091.789340997370346 -36.079837126089572 -0.367588033737413 77.233855329406609 20.906521226532430 20.660198576735073 3.283656717616020 0.004527152541312 0.004532696672882 -0.077350863250837 -0.272741629473288 -0.042261575435036 -1.511844774922548 
   17700 359.351590919017326 -5114.660407306425441 -5127.902108523396237 13.241701216970766 -75.638150050937142 -5091.443070840236032 -36.091675228718316 -0.367362454441304 75.380617163638618 20.908481072492219 20.660912868740240 3.285112314918654 0.033982328792200 0.009177365148567 0.092787379028501 -0.240320958493048 -0.019050238938818 -1.015965932947367 
   17800 361.325772800017148 -5114.658687793635181 -5127.393623929495334 12.734936135860256 -74.651330361574082 -5090.913275311653706 -36.125043482096231 -0.355305135745662 72.495771482168806 20.913015663093585 20.661978066375628 3.298525061763381 0.054437339217372 0.011705178976775 0.152192776843648 -0.129534722950961 -0.012790648808822 0.266854567731765 
   17900 363.444227589992806 -5114.666272142415437 -5128.193253012597779 13.526980870182078 -73.708717268069364 -5091.736431500547951 -36.107437114189707 -0.349384397859188 77.004619697069657 20.918975829557137 20.663198564325278 3.308185286177736 0.062888844296225 0.011035936211823 0.016782899130656 -0.023653659243178 0.046542840196213 1.616825417245600 
   18000 365.521085492975544 -5114.668731523097449 -5128.064655573776690 13.395924050679691 -74.252762142006461 -5091.641982035654109 -36.066782563678302 -0.355890974444285 76.258556651565186 20.925170278937255 20.664156678965135 3.301637242053403 0.058212316135925 0.008039534000317 -0.133866787407252 0.097961439867114 0.047011473963491 0.794141386222355 
   18100 367.497839598974679 -5114.667446138676496 -5127.772473719559457 13.105027580882789 -75.594348621242005 -5091.281486187850533 -36.127658651786746 -0.363328879921956 74.602579442540787 20.930243171637265 20.664709307537798 3.287416823984332 0.041145190284633 0.003279032805435 -0.114790979490660 0.201108162045049 0.042124701727003 -1.041099150032367 
   18200 369.458474390965421 -5114.667831614763600 -5128.669643444079156 14.001811829315178 -75.839772216697710 -5092.195805504504278 -36.105963393258776 -0.367874546315993 79.707675004040539 20.933076863078025 20.664796455643380 3.283339177776674 0.015192831289485 -0.001391250364681 0.039501729112803 0.244192323625482 0.026204884415457 -1.328308355903283 
   18300 371.412492669012863 -5114.666722363591361 -5128.046544884342438 13.379822520750716 -74.960017258714402 -5091.611177108634365 -36.074560097308989 -0.360807678398393 76.166895977197356 20.933119328613600 20.664499914557290 3.293711628901709 -0.014811955914480 -0.005336784877202 0.142737867900954 0.280189809304982 0.049876917530809 -0.208769667774437 
   18400 373.391796001000330 -5114.662404377548228 -5127.369523597135412 12.707119219587582 -73.952485427549959 -5090.973888247920513 -36.045230322262235 -0.350405026952563 72.337418995440288 20.930272894303130 20.663753668076897 3.306830153414757 -0.040686391452406 -0.008934224583630 0.099913360418804 0.218291619025257 0.011254448829952 0.933413250358786 
   18500 375.376683629991021 -5114.665654355547304 -5128.294014334988788 13.628359979441912 -73.800340158127852 -5091.801759786554612 -36.141710002853237 -0.350544545581196 77.581737372381056 20.925226295979190 20.662856387242805 3.306670871721919 -0.058352146494625 -0.009284420268656 -0.118010645723404 0.103262435873699 0.002686009365507 1.679614204315072 
   18600 377.332084560999647 -5114.661274689343372 -5127.536019309576659 12.874744620232942 -75.148847336394653 -5091.153713290172163 -36.019397499437019 -0.362908519967993 73.291654855765799 20.919112528639609 20.661903691475008 3.292033919414479 -0.062177654953270 -0.009531363333896 -0.127304550988151 0.001792290868001 -0.022141194977863 -0.689166809158415 
   18700 379.277532869018614 -5114.665962525255054 -5128.250419625839641 13.584457100584919 -75.904123472866019 -5091.658083602111219 -36.227119412212780 -0.365216611516885 77.331812831019320 20.913245012177125 20.661101059759098 3.283138698414907 -0.052698148319787 -0.006017010080225 -0.042525373585225 -0.124221687256621 -0.047759211764643 -1.066678012010748 
   18800 381.294597855012398 -5114.667923709061142 -5128.197638254266167 13.529714545204687 -75.559851346740672 -5091.820325203156244 -36.010719371283251 -0.366593679826514 77.020181603123319 20.908924251890792 20.660689705465508 3.287134490631361 -0.031728042373454 -0.002446847952570 0.127861799802922 -0.206137254664069 -0.048762306116106 -1.314080958774624 
   18900 383.251730720978230 -5114.666300577087895 -5128.050421728941728 13.384121151854071 -74.094824374802243 -5091.526506355184210 -36.171349925216575 -0.352565448541325 76.191366659643691 20.907009106833307 20.660678997486816 3.303281320988718 -0.005623142159201 0.001942379905303 0.143130015751862 -0.253861394822026 -0.030997735769482 1.379574056399491 
   19000 385.205458407988772 -5114.661595878101252 -5127.446668735508865 12.785072857407624 -73.852570429450978 -5091.055629658955695 -36.041511959789077 -0.349527116764069 72.781183224276262 20.907867272148948 20.661023863530939 3.307860707166156 0.021986414433190 0.004566704984591 -0.040899844986352 -0.228257289678235 -0.030377561599219 1.070599556008526 
   19100 387.169410193979274 -5114.662174790036261 -5127.710043803919689 13.047869013883592 -74.531611565059080 -5091.286020593059220 -36.066320225648056 -0.357702985211682 74.277194661084863 20.911239672788788 20.661624693379970 3.298540916374361 0.044468368688179 0.007126601344191 -0.133986597941470 -0.168406159503830 -0.010063303922229 0.379649252821583 
   19200 389.115531724004541 -5114.661853416043414 -5127.612725376475282 12.950871960431613 -75.651281023713508 -5091.143219624329504 -36.103747201825641 -0.365758550319151 73.725022577418315 20.916504162506541 20.662393803936919 3.286061793971061 0.058667444232322 0.008029959538093 -0.085593750270799 -0.050528178250776 -0.000969038658541 -1.085715439860003 
   19300 391.076138450996950 -5114.669638862291322 -5128.107730530501613 13.438091668210687 -75.822027147027271 -5091.664507983427939 -36.076867142648481 -0.366355404424784 76.498602925206598 20.922484396494884 20.663168643294711 3.284891838561000 0.060180236870506 0.006952327109455 0.073726946130870 0.014963074664461 0.017680975667241 -1.528637420503764 
   19400 393.082177650998347 -5114.655193792630598 -5127.251238111369275 12.596044318738967 -74.468369798662664 -5090.804286092732582 -36.089938860248317 -0.357013158388560 71.705106391480626 20.927972642340780 20.663819843850401 3.298884760626848 0.047683833198021 0.005896786296523 0.161773728436352 0.131397369155097 0.037009535854738 0.588472121607727 
   19500 395.028803107968997 -5114.666029841179807 -5127.816509515242615 13.150479674062911 -73.734755189507055 -5091.373997410638367 -36.093332398421474 -0.349179706182011 74.861323147685397 20.931740354168507 20.664244737396967 3.308356115696763 0.025825772562357 0.002562362895295 0.011817947005925 0.220845626574037 0.048068217991357 1.490914918512551 
   19600 397.093725836020894 -5114.664644757604947 -5127.884620239094147 13.219975481489199 -74.342585621599028 -5091.504085192656021 -36.026146760298445 -0.354388286140264 75.256939750736748 20.932993772516326 20.664356625547686 3.302362567322510 -0.001328335063158 -0.000458869137830 -0.108357376372696 0.256623002921824 0.059300929009534 0.367548565256389 
   19700 399.058572131965775 -5114.665996976812494 -5128.137356732903754 13.471359756090834 -75.175689473714357 -5091.645723396628455 -36.128654169719226 -0.362979166556425 76.687987125557356 20.931430353062105 20.664067968783527 3.290578292354341 -0.029185665386234 -0.004469241235952 -0.119072242238641 0.214523567877367 0.029517582183256 -0.243670050135101 
   19800 401.012825590965804 -5114.667160991881246 -5128.015520669321631 13.348359677440802 -75.989002366946551 -5091.667434042763489 -35.979340970807399 -0.368745655750376 75.987788435986218 20.927362893266512 20.663507329995621 3.283288113909213 -0.050223795983402 -0.006438901592014 0.017564182518761 0.118325993610009 -0.004994233370262 -2.146596315544622 
   19900 402.964937843964435 -5114.667180517120869 -5128.329929028817787 13.662748511696746 -74.943367469557757 -5091.820179760887186 -36.150569783184437 -0.359179484745326 77.777499891278467 20.921784429235455 20.662836410295302 3.294083910623329 -0.059503341220342 -0.007395828237618 0.154257186288637 0.034659737739820 0.008798366478612 0.052313541798283 
   20000 404.934624481014907 -5114.664762812468325 -5127.725361788983719 13.060598976515463 -73.846794440416488 -5091.307439039122983 -36.065853460988663 -0.352069288872870 74.349662120056877 20.915832703240842 20.662158092343745 3.306472003417686 -0.058173353802783 -0.005732597253281 0.070475380751930 -0.064075608134217 -0.021415308426639 1.349346791929079 
   20100 406.882923369994387 -5114.665021475308095 -5128.169754299538909 13.504732824230498 -74.018426469773658 -5091.778620458835576 -36.039831174797733 -0.351302665905619 76.877968943738537 20.910629359568361 20.661652588827625 3.305983670602469 -0.043816597631864 -0.004161081503408 -0.068685950430266 -0.178354004790847 -0.025753980579597 0.842915985144121 
   20200 408.834790974971838 -5114.659809755884453 -5127.763296963482389 13.103487207598068 -74.800541858642163 -5091.228254557281616 -36.177218871773249 -0.357823534427528 74.593810607859950 20.907363157659329 20.661358457492597 3.295125369582617 -0.020047854969199 -0.001687571117377 -0.144941513557370 -0.228977556263298 -0.026497208642815 0.385287419293953 
   20300 410.793548704998102 -5114.668587840694272 -5128.199222590067620 13.530634749373455 -75.902968189182786 -5091.845314119294017 -35.983950422046334 -0.369958048726750 77.025420020530703 20.906801767203529 20.661331114972448 3.283086221757114 0.009376925089268 0.000974948330713 -0.050038301943849 -0.268654279588280 -0.016486188050545 -1.881095919832383 
   20400 412.740798328013625 -5114.662174538977524 -5127.913418460328103 13.251243921350989 -75.467576732072928 -5091.411873840514090 -36.138460171940793 -0.363084447872595 75.434940617536625 20.909187911555222 20.661514618777474 3.288425182099808 0.036858993244648 0.003463224871952 0.131811307884559 -0.216908402634074 -0.029046861931876 -0.776040507082938 
   20500 414.692250456020702 -5114.668161017883904 -5127.774817242989229 13.106656225105709 -74.298853029163013 -5091.370819677751570 -36.049326322430865 -0.354671242807438 74.611850774422706 20.913953315159468 20.661996012532033 3.301945106998671 0.056138448945898 0.005660579781442 0.114950201785480 -0.109117540670198 -0.008454835623449 0.552428272723355 
   20600 416.671888537995983 -5114.661487289897195 -5127.879380492344353 13.217893202447511 -73.670273060547260 -5091.462223484883907 -36.066856972248303 -0.350300035211178 75.245086026151256 20.920014631237919 20.662555553259136 3.308545013565989 0.062946153052302 0.005778669495477 -0.003076222696912 0.007436991085678 -0.014659304835402 1.569911817135411 
   20700 418.629531693994068 -5114.665966486109028 -5127.917975012327588 13.252008526218477 -74.464778850686287 -5091.436154832335887 -36.127209724722732 -0.354610455268505 75.439293259682316 20.926004206314847 20.663188745559474 3.299953391638066 0.055468465108696 0.005634185244734 -0.150367226850716 0.104513660364394 0.045122837866662 0.584932932767426 
   20800 420.585623134975322 -5114.660728554243178 -5127.664820934616728 13.004092380373795 -75.651983808271751 -5091.246067723155647 -36.052186320145410 -0.366566891315335 74.027988792651158 20.930665663445325 20.663642933234353 3.286142524641046 0.036709797051344 0.004005449180726 -0.089465625504726 0.184072206331337 0.031870991391764 -1.299401414934322 
[...]
   94900 1893.220254321000539 -5114.664541168041978 -5127.919131014066807 13.254589846025006 -74.889641566799440 -5091.435072803115872 -36.125906120641147 -0.358152090309197 75.453987857976344 20.916856617528147 20.655338978692061 3.295195775076165 -0.067187492132436 0.001075242249146 -0.037498185274048 -0.056532188425504 -0.160136400296020 -0.023753983587016 
   95000 1895.320539193984587 -5114.664854563331573 -5128.373463506204644 13.708608942872756 -75.133649924328950 -5091.919355951889884 -36.092153079434468 -0.361954474879717 78.038568129323863 20.910732638353238 20.656234398516638 3.291873094488519 -0.053520020887531 0.015840574684809 -0.021522373706426 -0.166222085746579 -0.130606421271483 -0.404585600237531 
   95100 1897.276925648970064 -5114.673344653207096 -5128.679299473874380 14.005954820667512 -75.064864247694388 -5092.210146925327535 -36.107596102322226 -0.361556446224881 79.731259680958203 20.906562850272188 20.658424969634961 3.292465430378690 -0.028437199069608 0.027015703891585 0.026649219844111 -0.246423329643899 -0.076307544813998 -0.215163908203533 
   95200 1899.268413361976855 -5114.660520104317584 -5127.755844655795954 13.095324551478358 -74.771098067562136 -5091.260523560162255 -36.138705597660710 -0.356615497973107 74.547343311406408 20.905317308306429 20.661406875553016 3.296810175774584 0.003624096555467 0.031660180004779 0.053992407689864 -0.258236844033360 -0.021790959280500 0.192713376646130 
   95300 1901.232780809979886 -5114.663542347819202 -5127.957827746722614 13.294285398903339 -74.415883416416847 -5091.500193858393686 -36.101462677393314 -0.356171210935507 75.679961486711122 20.907196885652358 20.664512433448003 3.299612381593957 0.034032577618216 0.029347234037537 -0.007296858985233 -0.256210306979098 0.042546890969788 0.656536949575291 
   95400 1903.196335614018608 -5114.663575830770242 -5127.910828882682836 13.247253051912338 -74.790443197836936 -5091.479505585566585 -36.072345568368974 -0.358977728747407 75.412221920265353 20.911883780302801 20.667128537055373 3.295834934425026 0.056770294477225 0.021888303952763 -0.055513325751519 -0.124364776746183 0.103458875652413 -0.022032678906454 
   95500 1905.210859315993730 -5114.670011342543148 -5128.013502599900676 13.343491257357520 -75.241239108201171 -5091.503256169386987 -36.149519543333156 -0.360726887180924 75.960074133686504 20.918156512503597 20.668660632649804 3.291273118325296 0.066660394267525 0.008689264797785 -0.029899532665889 -0.019147425903158 0.112062058176173 -0.439357112439258 
   95600 1907.241568661003839 -5114.667604354948708 -5127.833246882766616 13.165642527817992 -75.200979652942451 -5091.443275439414720 -36.026227297061375 -0.363744146290344 74.947640249641680 20.924767563480625 20.668844350498773 3.291100569649032 0.062631329943213 -0.005710065146311 0.028769456168567 0.131836859902435 0.154064283061737 -0.699659702355773 
   95700 1909.225861754966900 -5114.659590634317283 -5127.816497623633040 13.156906989315830 -74.732258226777134 -5091.350226010039478 -36.108434655125336 -0.357836958469448 74.897911723619231 20.930210727233217 20.667472527597024 3.296788088552903 0.044953560792305 -0.021156524406714 0.064820047017580 0.198927460244607 0.125454494500956 0.162643008139968 
   95800 1911.288439219002612 -5114.665254622716020 -5128.211852381111385 13.546597758395722 -74.376488907270769 -5091.714037586218183 -36.144018343043349 -0.353796451849956 77.116292141277924 20.933367337385175 20.664845414728841 3.300893351075351 0.017387123559422 -0.029968220910670 0.006051216224663 0.241635585105222 0.053027723154007 0.771339612255894 
   95900 1913.322211280988995 -5114.667829362359953 -5127.967356842780646 13.299527480421080 -74.599789721468170 -5091.587211246705920 -36.020638448855223 -0.359507147218516 75.709802919738095 20.933695118455052 20.661657718495249 3.297734926677113 -0.011203697947438 -0.032203558704326 -0.055408995054426 0.268929471158101 -0.012588907101354 0.143647400774596 
   96000 1915.398416662996169 -5114.663943495238527 -5127.784187985638710 13.120244490400200 -75.136285469206584 -5091.303177441004664 -36.120495123090670 -0.360515421543722 74.689204266039724 20.931178405956071 20.658686971550402 3.292217866552477 -0.038193517910259 -0.026153223978995 -0.043782099842390 0.224135264974456 -0.068619134625667 -0.372979318093805 
   96100 1917.453607541974634 -5114.667059057231199 -5127.791024749539247 13.123965692308234 -75.307412115642620 -5091.360798402294677 -36.067996263187595 -0.362230084057129 74.710387835418146 20.926267506827859 20.656555024211205 3.290571089334192 -0.058521309076447 -0.015652720439662 0.021695577481761 0.118136377944598 -0.104328571219400 -0.846215396457289 
   96200 1919.531463072984479 -5114.660631425042993 -5127.674193405590813 13.013561980547795 -74.728688159907350 -5091.205689034381066 -36.108857490191326 -0.359646881019121 74.081896088527472 20.919900520586889 20.655705866409370 3.295801540731635 -0.066106034507421 -0.001399194771417 0.058876332031590 -0.012444644406687 -0.120204722991457 0.319684752077516 
   96300 1921.594767741975375 -5114.664728373307298 -5128.102698788383350 13.437970415075929 -74.441906064634935 -5091.650621184705415 -36.097127322043818 -0.354950281633903 76.497912671289725 20.913538663994604 20.656284174158589 3.300387706068649 -0.059593438100624 0.012867242959597 0.035628251086443 -0.117962557409191 -0.114752307733928 0.504817822614091 
   96400 1923.564502743014600 -5114.667281308073143 -5127.773856058414822 13.106574750341441 -74.501134839148108 -5091.307224046919146 -36.111214038397165 -0.355417973097593 74.611386965587783 20.908500355571807 20.658154864638046 3.299454477288266 -0.038615572553400 0.023982074940706 -0.053662824872069 -0.235343629702061 -0.074341645261801 0.496593040879968 
   96500 1925.520272199995816 -5114.663308069855702 -5127.784877103054896 13.121569033198814 -75.014440754297169 -5091.413190499809389 -36.009363574169555 -0.362323029075271 74.696744449282278 20.906030985453732 20.660857566724026 3.293281007587663 -0.010060877443173 0.029374211890210 -0.048850466391092 -0.256103897274363 -0.037884022644709 -0.517294580068514 
   96600 1927.498409166000783 -5114.664838873158260 -5127.840488618141535 13.175649744983218 -75.258132225529124 -5091.326437493466074 -36.153259105555122 -0.360792019120907 75.004608020900449 20.906522162405903 20.663861665373833 3.291129153883571 0.020189377683362 0.029676796770897 0.003792010065383 -0.269580400745013 0.020325740032582 -0.422007026395587 
   96700 1929.446984399983194 -5114.663953213233071 -5128.030162290737280 13.366209077504022 -74.961867180947337 -5091.597329891186746 -36.072506740872385 -0.360325658678786 76.089399155841591 20.909890083001741 20.666523263408187 3.294023461612885 0.045911911439164 0.022483254487900 0.047701003517445 -0.197622980897292 0.088822341601118 -0.247215567338771 
   96800 1931.424259794002865 -5114.662541641963799 -5127.829036436696697 13.166494794733351 -74.409714470588526 -5091.367701588094860 -36.105020418140953 -0.356314430460161 74.952491922777583 20.915361635046477 20.668165505974674 3.299605382392386 0.061482386146167 0.009756392161378 0.041523710223522 -0.076239099371243 0.129736857512098 0.688945095687223 
   96900 1933.475418846006505 -5114.659767034635479 -5127.558467937986279 12.898700903350695 -74.534612159497087 -5091.041392541899768 -36.162783146837810 -0.354292249248502 73.428030037230300 20.921759931863217 20.668421494186877 3.299302520884329 0.064562331283876 -0.004663445786180 -0.046870468055413 0.030519995403994 0.123175784958274 0.587108026934827 
   97000 1935.458316412987188 -5114.670187688485385 -5128.388005846232772 13.717818157747761 -74.979905710839091 -5091.962420369611209 -36.064322519690350 -0.361262956931608 78.090993137976142 20.927783808690847 20.667272557573355 3.293790823296894 0.053409013465782 -0.017929594108478 -0.045185103036254 0.183753784770392 0.103516150414375 -0.278824541853233 
   97100 1937.459887246019207 -5114.659264353223080 -5127.400636003621912 12.741371650399270 -75.178585108532801 -5090.909631819362403 -36.129035210587219 -0.361968973672859 72.532406733921405 20.932081699203895 20.664983835998502 3.290865056777327 0.031955198706463 -0.026836968130171 -0.013158441714052 0.222684960007785 0.047036751794177 -0.301964821845864 
   97200 1939.439679232018534 -5114.671371471853490 -5128.109815267297563 13.438443795443822 -75.144415320058854 -5091.633929335432185 -36.115850035469421 -0.360035896395517 76.500607468861446 20.933799633795967 20.662172135339635 3.292345600532225 0.001582632717608 -0.028933055161914 0.043466932886592 0.273371442638718 0.029914658179657 -0.432589773979826 
   97300 1941.539114971004892 -5114.664811670094423 -5128.011324674484968 13.346513004390243 -74.600790183807007 -5091.559849308771845 -36.093790262527584 -0.357685103185130 75.977275938236133 20.932521833334377 20.659384803118510 3.297628408189602 -0.026699211594796 -0.024927295919223 0.045431576041393 0.244426695482111 -0.058469389985955 0.363692469018129 
   97400 1943.526645031990483 -5114.664062201033630 -5127.978881056618775 13.314818855584990 -74.481643797841869 -5091.502720206735830 -36.119980577193445 -0.356180272689352 75.796851651487074 20.928517914967149 20.657313483694249 3.299189283344673 -0.051865487311919 -0.016412813057020 -0.018456477034708 0.166814486145147 -0.073312183436673 0.610416955335485 
   97500 1945.567063580965623 -5114.667972895841558 -5128.170795873284078 13.502822977442408 -74.907291147532831 -5091.717331338259100 -36.094682404507111 -0.358782130518219 76.867096818834398 20.922688185643040 20.656260849787493 3.295154296144795 -0.062635824976661 -0.003434225057014 -0.045680886725473 0.064991257566337 -0.127241291853325 -0.165487907094046 
   97600 1947.523710456967819 -5114.669437056963943 -5128.150569348104909 13.481132291140540 -75.136316382227363 -5091.658657039954051 -36.130041257712392 -0.361871050437720 76.743618929298407 20.916325782618756 20.656609808877370 3.291373958862837 -0.061907740562601 0.010148490328661 -0.028311634292911 -0.082567719021303 -0.122542445464145 -0.239045948874125 
   97700 1949.504015001992229 -5114.662146249087527 -5127.706695888391550 13.044549639303755 -75.269558820668792 -5091.279960329890855 -36.063530821712604 -0.363204736788651 74.258298561533493 20.910738706381284 20.658243254486820 3.290532240062610 -0.047923765003942 0.021696796673092 0.022295292772709 -0.201902864467967 -0.070498117657296 -0.708893108412358 
   97800 1951.502403037971817 -5114.667873286023678 -5127.756496528816569 13.088623242792737 -74.855922114345276 -5091.241377678576100 -36.157259960854262 -0.357858889386223 74.509194981652612 20.907140861850664 20.660808373039533 3.295115050717900 -0.023630286240779 0.028571156397457 0.048463577609990 -0.242957737850399 -0.025925735996094 0.176184491131046 
   97900 1953.463330622995272 -5114.665680473301109 -5127.929319883407516 13.263639410106190 -74.572529795489331 -5091.453921328340584 -36.118325706582311 -0.357072848484869 75.505504027562409 20.906240993166616 20.663703082049391 3.297900950162130 0.005610046189444 0.028056910862998 0.000866165573983 -0.264870513553828 0.029472346599908 0.500740513379980 
   98000 1955.423983073967975 -5114.662493678048122 -5127.688956637543924 13.026462959496236 -74.779016133523811 -5091.231456663756035 -36.099578263681245 -0.357921710106704 74.155337086720536 20.908219618078416 20.666259152118101 3.296191591295941 0.034090498590431 0.021568056599791 -0.026225878012053 -0.245825465451554 0.078760407028609 0.065862788151814 
   98100 1957.389759944984689 -5114.662826152951311 -5127.836983478184266 13.174157325232818 -75.018787218388837 -5091.293059193738372 -36.184669244865901 -0.359255039579057 74.996112169800270 20.912772554549104 20.667849726852140 3.292973394181662 0.055343318185386 0.009859738953736 -0.038756001525563 -0.142881805359220 0.095900202045539 0.066346773824518 
   98200 1959.763897302967962 -5114.666080013673309 -5127.866714926381974 13.200634912708617 -75.284036142279092 -5091.439865475264014 -36.062889446467892 -0.363960004650704 75.146840301497733 20.918960220051719 20.668207953342701 3.289916206994789 0.065678540560620 -0.002545281721862 -0.005738881970141 -0.011529034495753 0.098334776429647 -0.686814354888323 
   98300 1961.801629374967888 -5114.671404350429839 -5128.435516323480442 13.764111973050314 -74.988255436496701 -5091.882245857472299 -36.194057684322786 -0.359212781684638 78.354528488244696 20.925295711234920 20.667305013903608 3.293293383091432 0.059411590209031 -0.015519878397271 0.055536735135871 0.083663848882775 0.082493186214308 0.152271788314900 
   98400 1963.886083766003139 -5114.666900665014509 -5128.018920847844129 13.352020182830051 -74.763542890917620 -5091.557917302661735 -36.103205705107115 -0.357797840075892 76.008626480196028 20.930567279685622 20.665302789041604 3.296605002837963 0.043073369302516 -0.024175025847920 0.014490742274653 0.222628468413720 0.063324759165167 0.104398029426665 
   98500 1965.860873094992712 -5114.659219619140458 -5127.317159154704314 12.657939535563690 -74.599642136024613 -5090.855926906457171 -36.103469143929047 -0.357763104318727 72.057455350823190 20.933532292499955 20.662599877931726 3.297758972872728 0.016250026615760 -0.028940203717869 -0.001964735665313 0.256030464981865 0.017744724316029 0.416828514586244 
   98600 1967.853770818968769 -5114.666935504807043 -5127.962853589826409 13.295918085019625 -74.895932319497746 -5091.451491908957905 -36.153157021606539 -0.358204659261111 75.689255827752618 20.933674165067117 20.659801014708680 3.294626380374995 -0.013432975809472 -0.026124329909636 -0.052605541780426 0.261930708718975 -0.046803860333212 0.115931521689996 
   98700 1969.953598913969472 -5114.666296013567262 -5128.077039518158927 13.410743504591707 -75.292094023800388 -5091.593264660154091 -36.121685470929428 -0.362089387074936 76.342918892006338 20.930943176075356 20.657547078352810 3.290301798140042 -0.039959445215804 -0.017641618429462 -0.016532874161221 0.200880522047771 -0.117404397893782 -0.554215866910558 
   98800 1972.024578272015788 -5114.663469360023555 -5127.589783963550872 12.926314603527706 -75.102152294539636 -5091.092568389303779 -36.135310498978356 -0.361905075269031 73.585225682065342 20.925926008178717 20.656458518366197 3.291513762414523 -0.059073144857385 -0.004533737657614 0.029220028250984 0.136155380712901 -0.107850089566122 -0.133859978551722 
   98900 1973.998236412997358 -5114.665988485184243 -5127.679151557689693 13.013163072505197 -74.922812631792382 -5091.232499606641795 -36.087424904255123 -0.359227046793372 74.079625237225983 20.919641880268586 20.656711729688805 3.294900554586654 -0.064746290815802 0.009643610553445 0.040694759964520 0.013489212349243 -0.127269163657935 -0.212141236444011 
   99000 1976.027612802980002 -5114.662499622072573 -5127.567733769601546 12.905234147528878 -74.599616976906717 -5091.091119450696169 -36.120031874475970 -0.356582444430031 73.465221631434289 20.913381370175500 20.658285087074162 3.298393019263034 -0.057513802910765 0.020538300547056 0.015201777714280 -0.135564723915139 -0.064772300526833 0.415518821321405 
   99100 1978.053496890992392 -5114.660751965533564 -5127.306156097074563 12.645404131540909 -74.640147147158075 -5090.827724883602968 -36.120535080143391 -0.357896133328258 71.986095449542404 20.908512405519648 20.660701035921686 3.297109628998949 -0.037386698989561 0.027208108861999 -0.041697224335396 -0.234715211899353 -0.022913191648289 0.446437281885255 
   99200 1980.045801099971868 -5114.664525561505798 -5127.818573109096178 13.154047547590803 -75.172882279810054 -5091.350069429121504 -36.107833685030741 -0.360669994944247 74.881633869403657 20.906130693342455 20.663481136283227 3.291782326781756 -0.009186318726661 0.027290776612868 -0.048401680249351 -0.294365846198600 0.024084431264853 -0.486432291045999 
   99300 1982.035044886986725 -5114.665753856574156 -5128.144289114170533 13.478535257596533 -75.281587451517737 -5091.622409076456279 -36.159810867217345 -0.362069170496125 76.728834877903935 20.906878751761912 20.665972857373685 3.289928484251831 0.022963268686515 0.021830516995525 0.006234563440792 -0.253419835307890 0.065537845168079 -0.375271756619954 
   99400 1984.121218509972095 -5114.660400771990680 -5127.842296752886796 13.181895980896408 -75.023471294240323 -5091.384340345063720 -36.096144275821509 -0.361812132001826 75.040165772156953 20.910522682526175 20.667648723347259 3.292637506473222 0.049071488358182 0.011111294977034 0.045023958321149 -0.194968290348010 0.100795369156275 -0.176379087080594 
   99500 1986.109076267981436 -5114.667672070996559 -5128.161909679367454 13.494237608370577 -74.655765226752919 -5091.665396191796390 -36.140625978836880 -0.355887508734948 76.818223157617595 20.916259673708982 20.668175359301760 3.297932074316811 0.063596171535725 -0.001026954811548 0.052596506498371 -0.085981677124107 0.115060082569145 0.363145740915214 
   99600 1988.189856522018090 -5114.664389120398482 -5127.721090589871892 13.056701469473824 -74.494848930511750 -5091.228686601688423 -36.136601360550713 -0.355802627632944 74.327474903974561 20.922791620058902 20.667398095461479 3.299036531273703 0.064771916135677 -0.014436495398542 -0.036773215043019 0.036002227255651 0.100264334451618 0.632837544515788 
   99700 1990.387310052989051 -5114.665730593860644 -5128.142876753445307 13.477146159584453 -74.940850343428792 -5091.700738463479865 -36.081197996606761 -0.360940293358818 76.720927203222587 20.928809868362602 20.665398541483761 3.293927799070163 0.052722733547219 -0.024564332395417 -0.048680296377938 0.164552815587272 0.065250053016028 -0.139180277883870 
   99800 1992.910070875019301 -5114.663275191749563 -5127.888048805063590 13.224773613314021 -75.299708151742422 -5091.338273658047001 -36.188844685092079 -0.360930461924602 75.284253925272267 20.933015914761153 20.662660702919581 3.290192081920600 0.029092437623272 -0.029006765735297 -0.020729636255944 0.250901837960815 0.014539288528678 -0.333751475590456 
   99900 1995.012493731977884 -5114.676819777090714 -5128.664502711674686 13.987682934583551 -75.256075551136547 -5092.253941491901060 -36.047258765640798 -0.363302454132863 79.627243888184736 20.934477894631083 20.659857606930693 3.290631084524280 -0.000214745074315 -0.025693396162728 0.041524620422469 0.268593442379176 -0.069447273313971 -0.743477571037940 
  100000 1997.051554435980506 -5114.660417304431576 -5127.780715452949153 13.120298148517939 -74.619155589734618 -5091.265611892478773 -36.157953437340993 -0.357150123129480 74.689509723923479 20.932963294559386 20.657704751776222 3.297274815592850 -0.030323385652522 -0.016861411360926 0.061102778624245 0.253283856351309 -0.087827392529717 0.596212115730500 
Loop time of 1997.06 on 4 procs for 100000 steps with 1360 atoms

Performance: 4.326 ns/day, 5.547 hours/ns, 50.074 timesteps/s
99.9% CPU use with 4 MPI tasks x 1 OpenMP threads

MPI task timing breakdown:
Section |  min time  |  avg time  |  max time  |%varavg| %total
---------------------------------------------------------------
Pair    | 1906.4     | 1920.7     | 1945.7     |  36.4 | 96.18
Bond    | 0.043417   | 0.044397   | 0.044934   |   0.3 |  0.00
Neigh   | 0          | 0          | 0          |   0.0 |  0.00
Comm    | 44.096     | 69.144     | 83.43      | 191.7 |  3.46
Output  | 5.4727     | 5.4801     | 5.5016     |   0.5 |  0.27
Modify  | 0.5896     | 0.61239    | 0.66255    |   3.8 |  0.03
Other   |            | 1.084      |            |       |  0.05

Nlocal:    340 ave 346 max 336 min
Histogram: 1 0 1 0 1 0 0 0 0 1
Nghost:    4537.5 ave 4540 max 4534 min
Histogram: 1 0 0 0 0 0 2 0 0 1
Neighs:    62407 ave 62413 max 62402 min
Histogram: 1 0 0 1 1 0 0 0 0 1
FullNghs:  63347.5 ave 65585 max 61866 min
Histogram: 1 1 0 1 0 0 0 0 0 1

Total # of neighbors = 253926
Ave neighs/atom = 186.71
Ave special neighs/atom = 0
Neighbor list builds = 0
Dangerous builds = 0
Total wall time: 0:33:17
