LAMMPS (9 Jan 2017)
  using 1 OpenMP thread(s) per MPI task
variable number	equal 2
variable ofreq	equal 1000
variable efreq	equal 1000

units lj

dimension 3

newton off

boundary  p p p

atom_style hybrid bond ellipsoid
atom_modify sort 0 1.0

# Pair interactions require lists of neighbours to be calculated
neighbor 1.0 bin
neigh_modify every 1 delay 0 check yes

read_data data.duplex2
  orthogonal box = (-20 -20 -20) to (20 20 20)
  1 by 1 by 1 MPI processor grid
  reading atoms ...
  16 atoms
  reading velocities ...
  16 velocities
  16 ellipsoids
  scanning bonds ...
  2 = max bonds/atom
  reading bonds ...
  13 bonds
  2 = max # of 1-2 neighbors
  2 = max # of 1-3 neighbors
  4 = max # of 1-4 neighbors
  6 = max # of special neighbors

set atom * mass 3.1575
  16 settings made for mass

group all type 1 4
16 atoms in group all

# oxDNA bond interactions - FENE backbone
bond_style oxdna_fene
bond_coeff * 2.0 0.25 0.7525

# oxDNA pair interactions
pair_style hybrid/overlay oxdna_excv oxdna_stk oxdna_hbond oxdna_xstk oxdna_coaxstk
pair_coeff * * oxdna_excv   2.0 0.7 0.675 2.0 0.515 0.5 2.0 0.33 0.32
pair_coeff * * oxdna_stk    1.61048 6.0 0.4 0.9 0.32 0.6 1.3 0 0.8 0.9 0 0.95 0.9 0 0.95 2.0 0.65 2.0 0.65
pair_coeff * * oxdna_hbond  0.0   8.0 0.4 0.75 0.34 0.7 1.5 0 0.7 1.5 0 0.7 1.5 0 0.7 0.46 3.141592653589793 0.7 4.0 1.5707963267948966 0.45 4.0 1.5707963267948966 0.45
pair_coeff 1 4 oxdna_hbond  1.077 8.0 0.4 0.75 0.34 0.7 1.5 0 0.7 1.5 0 0.7 1.5 0 0.7 0.46 3.141592653589793 0.7 4.0 1.5707963267948966 0.45 4.0 1.5707963267948966 0.45
pair_coeff 2 3 oxdna_hbond  1.077 8.0 0.4 0.75 0.34 0.7 1.5 0 0.7 1.5 0 0.7 1.5 0 0.7 0.46 3.141592653589793 0.7 4.0 1.5707963267948966 0.45 4.0 1.5707963267948966 0.45
pair_coeff * * oxdna_xstk   47.5 0.575 0.675 0.495 0.655 2.25 0.791592653589793 0.58 1.7 1.0 0.68 1.7 1.0 0.68 1.5 0 0.65 1.7 0.875 0.68 1.7 0.875 0.68
pair_coeff * * oxdna_coaxstk 46.0 0.4 0.6 0.22 0.58 2.0 2.541592653589793 0.65 1.3 0 0.8 0.9 0 0.95 0.9 0 0.95 2.0 -0.65 2.0 -0.65

# NVE ensemble
fix 1 all   nve/dotc/langevin 0.1 0.1 0.03 457145 angmom 10
#fix 1 all   nve/dot

timestep 1e-5

#comm_style tiled
#fix 3 all balance 10000 1.1 rcb

#compute mol all chunk/atom molecule
#compute mychunk all vcm/chunk mol
#fix 4 all ave/time 10000 1 10000 c_mychunk[1] c_mychunk[2] c_mychunk[3] file vcm.txt mode vector

dump pos all xyz ${ofreq} traj.${number}.xyz
dump pos all xyz 1000 traj.${number}.xyz
dump pos all xyz 1000 traj.2.xyz

compute quat all property/atom quatw quati quatj quatk
dump quat all custom ${ofreq} quat.${number}.txt id c_quat[1] c_quat[2] c_quat[3] c_quat[4]
dump quat all custom 1000 quat.${number}.txt id c_quat[1] c_quat[2] c_quat[3] c_quat[4]
dump quat all custom 1000 quat.2.txt id c_quat[1] c_quat[2] c_quat[3] c_quat[4]
dump_modify quat sort id
dump_modify quat format line "%d  %13.6le  %13.6le  %13.6le  %13.6le"

compute erot all erotate/asphere
compute ekin all ke
compute epot all pe
variable erot equal c_erot
variable ekin equal c_ekin
variable epot equal c_epot
variable etot equal c_erot+c_ekin+c_epot
fix 5 all print ${efreq} "$(step)  ekin = ${ekin} |  erot = ${erot} | epot = ${epot} | etot = ${etot}" screen yes
fix 5 all print 1000 "$(step)  ekin = ${ekin} |  erot = ${erot} | epot = ${epot} | etot = ${etot}" screen yes

dump out all custom ${ofreq} out.${number}.txt id x y z vx vy vz fx fy fz tqx tqy tqz
dump out all custom 1000 out.${number}.txt id x y z vx vy vz fx fy fz tqx tqy tqz
dump out all custom 1000 out.2.txt id x y z vx vy vz fx fy fz tqx tqy tqz
dump_modify out sort id
dump_modify out format line "%d   %13.6le %13.6le %13.6le  %13.6le %13.6le %13.6le  %13.6le %13.6le %13.6le  %13.6le %13.6le %13.6le"

run 1000000
Neighbor list info ...
  update every 1 steps, delay 0 steps, check yes
  max neighbors/atom: 2000, page size: 100000
  master list distance cutoff = 1.92828
  ghost atom cutoff = 1.92828
  binsize = 0.964142, bins = 42 42 42
  5 neighbor lists, perpetual/occasional/extra = 5 0 0
  (1) pair oxdna_excv, perpetual
      pair build: half/bin/newtoff
      stencil: half/bin/3d/newtoff
      bin: standard
  (2) pair oxdna_stk, perpetual, copy from (1)
      pair build: copy
      stencil: none
      bin: none
  (3) pair oxdna_hbond, perpetual, copy from (1)
      pair build: copy
      stencil: none
      bin: none
  (4) pair oxdna_xstk, perpetual, copy from (1)
      pair build: copy
      stencil: none
      bin: none
  (5) pair oxdna_coaxstk, perpetual, copy from (1)
      pair build: copy
      stencil: none
      bin: none
Memory usage per processor = 5.86834 Mbytes
Step Temp E_pair E_mol TotEng Press 
       0            0   -1.5235228  0.036645354   -1.4868774 0.0001381923 
1000  ekin = 1.49614652156894 |  erot = 1.75090279645535 | epot = -23.8206831446224 | etot = -20.5736338265981
2000  ekin = 1.96330012736289 |  erot = 2.01587683474859 | epot = -23.8528375009749 | etot = -19.8736605388634
3000  ekin = 2.62843523750618 |  erot = 2.1497507344042 | epot = -23.8391341088199 | etot = -19.0609481369095
4000  ekin = 2.05927166520202 |  erot = 1.47879579795202 | epot = -23.7404684943428 | etot = -20.2024010311888
5000  ekin = 1.74843327725752 |  erot = 2.53286814864032 | epot = -23.6857850284757 | etot = -19.4044836025778
6000  ekin = 3.24822953413179 |  erot = 2.06062391469665 | epot = -23.6013191863072 | etot = -18.2924657374788
7000  ekin = 3.19456215079309 |  erot = 2.70909818041701 | epot = -23.4780749164685 | etot = -17.5744145852584
8000  ekin = 2.79726303308535 |  erot = 2.62875281559834 | epot = -23.3734883547158 | etot = -17.9474725060321
9000  ekin = 2.69945590080813 |  erot = 2.63027986240736 | epot = -23.2335273954655 | etot = -17.90379163225
10000  ekin = 2.56974141287296 |  erot = 1.93933958651996 | epot = -23.0919762641582 | etot = -18.5828952647653
11000  ekin = 2.32567099277375 |  erot = 2.06479523670512 | epot = -22.9353867544319 | etot = -18.544920524953
12000  ekin = 2.77169402866362 |  erot = 2.09830558666258 | epot = -22.8351976672357 | etot = -17.9651980519095
13000  ekin = 2.69598353689796 |  erot = 2.41711201732723 | epot = -22.7400138862432 | etot = -17.626918332018
14000  ekin = 3.1334579580383 |  erot = 2.53532702932999 | epot = -22.6350707598521 | etot = -16.9662857724838
15000  ekin = 2.9656032532295 |  erot = 1.85010119466727 | epot = -22.444762403306 | etot = -17.6290579554092
16000  ekin = 2.07825989233683 |  erot = 2.10063349350032 | epot = -22.2558583689034 | etot = -18.0769649830663
17000  ekin = 1.88399998360041 |  erot = 2.24717723319112 | epot = -22.0127287878664 | etot = -17.8815515710749
18000  ekin = 2.23828011017454 |  erot = 1.26968198789857 | epot = -21.8818104058921 | etot = -18.3738483078189
19000  ekin = 2.42778846599867 |  erot = 2.43113738389864 | epot = -21.7575409167212 | etot = -16.8986150668239
20000  ekin = 2.5712102550974 |  erot = 2.13994990964722 | epot = -21.6294795540322 | etot = -16.9183193892875
21000  ekin = 3.00348678966044 |  erot = 2.43377679054895 | epot = -21.8115117550592 | etot = -16.3742481748498
22000  ekin = 3.01246007715685 |  erot = 1.85491935783156 | epot = -21.9623330321469 | etot = -17.0949535971585
23000  ekin = 2.68256962957575 |  erot = 2.24568926565764 | epot = -21.9838474122309 | etot = -17.0555885169975
24000  ekin = 2.6475423993399 |  erot = 2.79050848426269 | epot = -21.9644015536496 | etot = -16.5263506700471
25000  ekin = 2.26595912532914 |  erot = 2.29826610161447 | epot = -22.0339647378374 | etot = -17.4697395108938
26000  ekin = 1.57202835672771 |  erot = 2.58750277437912 | epot = -22.1251822215437 | etot = -17.9656510904369
27000  ekin = 1.72904489902234 |  erot = 3.8036740578603 | epot = -22.2731730115348 | etot = -16.7404540546521
28000  ekin = 2.16917898567096 |  erot = 2.33197984216678 | epot = -22.4040512543015 | etot = -17.9028924264638
29000  ekin = 2.03938855139806 |  erot = 1.85062463635363 | epot = -22.3849683608754 | etot = -18.4949551731237
30000  ekin = 2.39112106244584 |  erot = 1.90031899258943 | epot = -22.3798820011513 | etot = -18.088441946116
31000  ekin = 2.59697904005362 |  erot = 2.72682318147847 | epot = -22.4247229573759 | etot = -17.1009207358438
32000  ekin = 2.03064348556913 |  erot = 2.81325740339376 | epot = -22.4433623492111 | etot = -17.5994614602482
33000  ekin = 2.12003453944351 |  erot = 3.64050408590927 | epot = -22.3677475127241 | etot = -16.6072088873713
34000  ekin = 2.34815884189101 |  erot = 3.10198857969535 | epot = -22.2650287039369 | etot = -16.8148812823505
35000  ekin = 2.40810141673499 |  erot = 2.02526893619994 | epot = -22.1682708073597 | etot = -17.7349004544247
36000  ekin = 1.95522222589492 |  erot = 1.98630090932157 | epot = -22.0520180584441 | etot = -18.1104949232276
37000  ekin = 1.5499677208105 |  erot = 2.5811965221241 | epot = -22.0224096048277 | etot = -17.8912453618931
38000  ekin = 2.1808331434996 |  erot = 2.86375179949223 | epot = -21.952917190955 | etot = -16.9083322479632
39000  ekin = 2.5645549996432 |  erot = 2.48383083671692 | epot = -21.9282595649983 | etot = -16.8798737286381
40000  ekin = 2.08751658470928 |  erot = 1.90783605943515 | epot = -21.9603977421909 | etot = -17.9650450980464
41000  ekin = 2.31790617488785 |  erot = 2.54990935344173 | epot = -22.0282869488029 | etot = -17.1604714204733
42000  ekin = 2.62186375880615 |  erot = 2.04566423038297 | epot = -21.9917139997844 | etot = -17.3241860105953
43000  ekin = 2.20338683759008 |  erot = 1.67979267989781 | epot = -21.9947916346412 | etot = -18.1116121171533
44000  ekin = 2.20986274403741 |  erot = 2.42833871644383 | epot = -22.0573784343836 | etot = -17.4191769739023
45000  ekin = 1.62464656382716 |  erot = 2.22702024871189 | epot = -22.1658761343864 | etot = -18.3142093218473
46000  ekin = 1.87407563444095 |  erot = 3.00807472253613 | epot = -22.1057520918359 | etot = -17.2236017348588
47000  ekin = 1.21124263516095 |  erot = 1.94911560452689 | epot = -22.026773545862 | etot = -18.8664153061742
48000  ekin = 2.42257367326737 |  erot = 1.92767021493973 | epot = -21.991997857832 | etot = -17.6417539696249
49000  ekin = 2.29381181597661 |  erot = 2.72545454123756 | epot = -22.0164368279871 | etot = -16.9971704707729
50000  ekin = 2.38783026666503 |  erot = 3.43332691187198 | epot = -21.9574968244726 | etot = -16.1363396459356
51000  ekin = 2.67588258286085 |  erot = 1.5350237505573 | epot = -21.9010065269692 | etot = -17.6901001935511
52000  ekin = 2.98388020287996 |  erot = 1.96483260759853 | epot = -21.9432039744631 | etot = -16.9944911639846
53000  ekin = 2.4694830257379 |  erot = 4.21322426818289 | epot = -21.9189775703247 | etot = -15.2362702764039
54000  ekin = 2.42698190497806 |  erot = 2.36285194201269 | epot = -21.8575716220614 | etot = -17.0677377750707
55000  ekin = 2.25784474600012 |  erot = 1.99371371980411 | epot = -21.9596885185457 | etot = -17.7081300527415
56000  ekin = 2.25712902301484 |  erot = 2.23260434648791 | epot = -22.0724977958174 | etot = -17.5827644263146
57000  ekin = 2.48177857123124 |  erot = 2.88986442974916 | epot = -22.1669561426238 | etot = -16.7953131416434
58000  ekin = 2.51429272224742 |  erot = 2.79030217964944 | epot = -22.2096473878118 | etot = -16.905052485915
59000  ekin = 2.72929518570768 |  erot = 2.15447115414733 | epot = -22.2517539626361 | etot = -17.3679876227811
60000  ekin = 3.32388810344946 |  erot = 1.93930951341757 | epot = -22.1797248130297 | etot = -16.9165271961627
61000  ekin = 2.30671109407827 |  erot = 1.77304241052243 | epot = -22.0767437566839 | etot = -17.9969902520832
62000  ekin = 2.72060955789207 |  erot = 1.67802302795827 | epot = -21.8973313663308 | etot = -17.4986987804805
63000  ekin = 3.56000021372285 |  erot = 1.92583738598315 | epot = -21.6723092216463 | etot = -16.1864716219403
64000  ekin = 3.51177870508452 |  erot = 3.13508975405951 | epot = -21.6758915867531 | etot = -15.0290231276091
65000  ekin = 3.2005301710718 |  erot = 3.95264471464508 | epot = -21.6311639350077 | etot = -14.4779890492908
66000  ekin = 2.72967475559786 |  erot = 2.45813553806805 | epot = -21.4448895003835 | etot = -16.2570792067176
67000  ekin = 2.50343538731808 |  erot = 2.13293808102381 | epot = -21.3141525191899 | etot = -16.677779050848
68000  ekin = 2.46300019104773 |  erot = 2.46863210662216 | epot = -21.2892167000905 | etot = -16.3575844024206
69000  ekin = 2.37584667564673 |  erot = 2.7429133984113 | epot = -21.2064635118194 | etot = -16.0877034377614
70000  ekin = 3.26285356809332 |  erot = 2.51042372393916 | epot = -21.41244494353 | etot = -15.6391676514975
71000  ekin = 2.66913861992221 |  erot = 2.55668899980719 | epot = -21.6258201103238 | etot = -16.3999924905944
72000  ekin = 2.0097120012578 |  erot = 2.49698570340542 | epot = -21.7695945678048 | etot = -17.2628968631416
73000  ekin = 1.79303319582106 |  erot = 2.32719504675567 | epot = -21.8344400593072 | etot = -17.7142118167304
74000  ekin = 3.20975817271137 |  erot = 2.17418904048607 | epot = -21.8700785103794 | etot = -16.486131297182
75000  ekin = 2.62222492512672 |  erot = 2.17579607182323 | epot = -21.9098317947431 | etot = -17.1118107977931
76000  ekin = 2.07553467952231 |  erot = 1.94844821886771 | epot = -21.9674330778833 | etot = -17.9434501794933
77000  ekin = 2.11543332748601 |  erot = 2.17317079590665 | epot = -22.0057535117431 | etot = -17.7171493883504
78000  ekin = 2.54992738699244 |  erot = 2.47923008296565 | epot = -21.9685967808522 | etot = -16.9394393108941
79000  ekin = 3.19569687983596 |  erot = 2.48232691611367 | epot = -21.903671848234 | etot = -16.2256480522844
80000  ekin = 2.47604466394305 |  erot = 1.85156321520255 | epot = -21.8097355414508 | etot = -17.4821276623052
81000  ekin = 2.25712868342627 |  erot = 2.20983613398165 | epot = -21.7423170287498 | etot = -17.2753522113419
82000  ekin = 1.47913218964988 |  erot = 2.0041851121057 | epot = -21.6402664076068 | etot = -18.1569491058512
83000  ekin = 2.12868648791539 |  erot = 3.32609240647637 | epot = -21.5959248367401 | etot = -16.1411459423483
84000  ekin = 2.69571542285034 |  erot = 2.05296939088632 | epot = -21.4980288633258 | etot = -16.7493440495891
85000  ekin = 3.08412978834195 |  erot = 2.89128996753952 | epot = -21.4287572209888 | etot = -15.4533374651073
86000  ekin = 3.35533205809252 |  erot = 2.79876669686452 | epot = -21.4656597509508 | etot = -15.3115609959937
87000  ekin = 3.69461965969307 |  erot = 2.3569343421797 | epot = -21.5020700390877 | etot = -15.4505160372149
88000  ekin = 3.30907405284496 |  erot = 2.31420560112812 | epot = -21.5603789816954 | etot = -15.9370993277223
89000  ekin = 3.44964820949576 |  erot = 1.73610578071896 | epot = -21.5684513367001 | etot = -16.3826973464854
90000  ekin = 2.56335982783638 |  erot = 2.20715515602081 | epot = -21.3918390595398 | etot = -16.6213240756826
91000  ekin = 2.05044701577589 |  erot = 2.51747311859856 | epot = -21.302413917125 | etot = -16.7344937827506
92000  ekin = 2.24456349041457 |  erot = 2.17797329723785 | epot = -21.2569243269051 | etot = -16.8343875392527
93000  ekin = 2.05991638851396 |  erot = 3.0663157679957 | epot = -21.3004745196488 | etot = -16.1742423631391
94000  ekin = 2.13529561133577 |  erot = 3.39144877083673 | epot = -21.4496470141993 | etot = -15.9229026320268
95000  ekin = 2.12045290856944 |  erot = 2.04580681198291 | epot = -21.5547366061458 | etot = -17.3884768855935
96000  ekin = 2.76240529079051 |  erot = 1.86545246932512 | epot = -21.5983540475737 | etot = -16.970496287458
97000  ekin = 1.94679946254824 |  erot = 2.78421416223404 | epot = -21.6359997440668 | etot = -16.9049861192845
98000  ekin = 2.01937946494821 |  erot = 2.04792191064503 | epot = -21.6827714303174 | etot = -17.6154700547242
99000  ekin = 2.54738253369804 |  erot = 3.56682710696552 | epot = -21.7840120516968 | etot = -15.6698024110332
100000  ekin = 1.83070683551319 |  erot = 2.40733195432746 | epot = -21.9545949605756 | etot = -17.716556170735
101000  ekin = 1.69092364273446 |  erot = 3.55184081762369 | epot = -21.9449326472819 | etot = -16.7021681869237
102000  ekin = 1.56386354266932 |  erot = 3.32388640215737 | epot = -21.8454554947456 | etot = -16.9577055499189
103000  ekin = 1.96484526731342 |  erot = 2.30983312431385 | epot = -21.7576498161624 | etot = -17.4829714245352
104000  ekin = 1.97865631050613 |  erot = 2.72424316705069 | epot = -21.7337012889912 | etot = -17.0308018114343
105000  ekin = 1.83487172674599 |  erot = 1.94595432696182 | epot = -21.6578347015829 | etot = -17.8770086478751
106000  ekin = 1.63668971426329 |  erot = 1.93925541538114 | epot = -21.6746725484956 | etot = -18.0987274188512
107000  ekin = 2.51873644620186 |  erot = 1.56909017451401 | epot = -21.717051910472 | etot = -17.6292252897561
108000  ekin = 2.11249075638775 |  erot = 2.20525004289612 | epot = -21.6494730552807 | etot = -17.3317322559968
109000  ekin = 2.24159608872318 |  erot = 2.12272495365729 | epot = -21.5207192824738 | etot = -17.1563982400934
110000  ekin = 1.74916631204129 |  erot = 2.51676862919523 | epot = -21.564760211403 | etot = -17.2988252701664
111000  ekin = 2.27000229652103 |  erot = 2.20026869709426 | epot = -21.555114919467 | etot = -17.0848439258517
112000  ekin = 2.59494936344746 |  erot = 2.4134506849391 | epot = -21.503828872006 | etot = -16.4954288236195
113000  ekin = 2.37886604551589 |  erot = 3.07334906424498 | epot = -21.4720747382065 | etot = -16.0198596284456
114000  ekin = 2.33061189317557 |  erot = 2.34781821237221 | epot = -21.4305233344781 | etot = -16.7520932289303
115000  ekin = 1.67523795253658 |  erot = 3.12948144871157 | epot = -21.4720764687519 | etot = -16.6673570675037
116000  ekin = 1.47744303421873 |  erot = 2.26169335286101 | epot = -21.5939720831378 | etot = -17.854835696058
117000  ekin = 1.69534100159721 |  erot = 2.31248398174918 | epot = -21.614925346754 | etot = -17.6071003634076
118000  ekin = 2.19386318524122 |  erot = 2.29352395524597 | epot = -21.576361616007 | etot = -17.0889744755198
119000  ekin = 2.5191970360062 |  erot = 2.43577138611369 | epot = -21.5781474556851 | etot = -16.6231790335653
120000  ekin = 1.73978870610321 |  erot = 2.0767455573787 | epot = -21.4761553083244 | etot = -17.6596210448425
121000  ekin = 2.77341762423397 |  erot = 2.28176731373622 | epot = -21.4407939729028 | etot = -16.3856090349326
122000  ekin = 3.11617717465276 |  erot = 3.31312276327183 | epot = -21.5114556288159 | etot = -15.0821556908913
123000  ekin = 2.8261393248087 |  erot = 3.27886938469141 | epot = -21.5264847290831 | etot = -15.421476019583
124000  ekin = 2.11382909437848 |  erot = 2.81452053245661 | epot = -21.436815394728 | etot = -16.5084657678929
125000  ekin = 1.71279948621423 |  erot = 1.36677369018735 | epot = -21.3250699292745 | etot = -18.2454967528729
126000  ekin = 2.48128562720636 |  erot = 3.14699077916804 | epot = -21.3197029336405 | etot = -15.6914265272661
127000  ekin = 2.36762702213378 |  erot = 2.29157518496135 | epot = -21.1887250041505 | etot = -16.5295227970554
128000  ekin = 2.72226279046872 |  erot = 1.79810330980077 | epot = -21.4896803279505 | etot = -16.9693142276811
129000  ekin = 2.75003902479996 |  erot = 3.02730913902199 | epot = -21.6744401079295 | etot = -15.8970919441076
130000  ekin = 3.20833295988177 |  erot = 2.57661722540566 | epot = -21.7843532672336 | etot = -15.9994030819461
131000  ekin = 2.58466073110497 |  erot = 2.46200041603364 | epot = -21.7883098234092 | etot = -16.7416486762705
132000  ekin = 2.54907719152379 |  erot = 3.33067831174635 | epot = -21.7425792516344 | etot = -15.8628237483643
133000  ekin = 2.02706942408773 |  erot = 2.8185967734756 | epot = -21.6061585400956 | etot = -16.7604923425323
134000  ekin = 1.5584258802616 |  erot = 1.69678989877565 | epot = -21.5506495989678 | etot = -18.2954338199306
135000  ekin = 2.29861149561909 |  erot = 2.12634394485157 | epot = -21.5004378279152 | etot = -17.0754823874445
136000  ekin = 2.13867447786776 |  erot = 3.04028695230161 | epot = -21.3172106469691 | etot = -16.1382492167997
137000  ekin = 2.74742523938622 |  erot = 2.52364273490632 | epot = -21.1711810804974 | etot = -15.9001131062049
138000  ekin = 3.3532473892815 |  erot = 1.79449276204391 | epot = -21.2608232910492 | etot = -16.1130831397238
139000  ekin = 2.72245549602606 |  erot = 1.80503085636647 | epot = -21.46722969876 | etot = -16.9397433463675
140000  ekin = 2.62974671826399 |  erot = 2.50232757968959 | epot = -21.5916593357945 | etot = -16.4595850378409
141000  ekin = 2.74587325717046 |  erot = 2.53242753801884 | epot = -21.6525311380067 | etot = -16.3742303428174
142000  ekin = 3.41700085868098 |  erot = 3.51207555078284 | epot = -21.6095008660998 | etot = -14.680424456636
143000  ekin = 2.46333450845632 |  erot = 2.05297010760178 | epot = -21.594948023874 | etot = -17.0786434078159
144000  ekin = 3.64729606756692 |  erot = 3.02446997506161 | epot = -21.5461160608918 | etot = -14.8743500182633
145000  ekin = 3.57350961577203 |  erot = 2.73467253611214 | epot = -21.4063745862664 | etot = -15.0981924343822
146000  ekin = 3.83193765182677 |  erot = 2.47873385792784 | epot = -21.358207397957 | etot = -15.0475358882024
147000  ekin = 3.30953986842748 |  erot = 2.04170522084985 | epot = -21.2238441144302 | etot = -15.8725990251529
148000  ekin = 2.6142570336664 |  erot = 1.62737844216269 | epot = -21.0020034389606 | etot = -16.7603679631316
149000  ekin = 2.89562212415436 |  erot = 2.27261351545742 | epot = -20.8628627064952 | etot = -15.6946270668835
150000  ekin = 2.79215503844707 |  erot = 2.92954651533703 | epot = -20.8565527520315 | etot = -15.1348511982474
151000  ekin = 2.14463724952434 |  erot = 2.11026835993801 | epot = -20.8281637719935 | etot = -16.5732581625311
152000  ekin = 2.57274126185354 |  erot = 2.59113908272411 | epot = -20.713857462624 | etot = -15.5499771180463
153000  ekin = 2.10511233760568 |  erot = 2.29133241841735 | epot = -20.8042944467176 | etot = -16.4078496906945
154000  ekin = 2.26903940298296 |  erot = 2.57680252716255 | epot = -20.8814036939992 | etot = -16.0355617638537
155000  ekin = 2.01108094510076 |  erot = 3.00392051192604 | epot = -20.8246010194449 | etot = -15.8095995624181
156000  ekin = 2.13528886629654 |  erot = 3.16503370422421 | epot = -20.626968122768 | etot = -15.3266455522473
157000  ekin = 2.42374043605675 |  erot = 1.93008825289415 | epot = -20.6211477594388 | etot = -16.2673190704879
158000  ekin = 2.17812132963351 |  erot = 2.43389128144301 | epot = -20.6720688953379 | etot = -16.0600562842614
159000  ekin = 2.95924222298297 |  erot = 2.27328695819124 | epot = -20.7500316409537 | etot = -15.5175024597795
160000  ekin = 2.14969499797284 |  erot = 2.3911500922807 | epot = -20.8223262594403 | etot = -16.2814811691868
161000  ekin = 2.07425428667066 |  erot = 2.45183719222987 | epot = -20.9028846754549 | etot = -16.3767931965544
162000  ekin = 1.75729111577613 |  erot = 2.60530523569015 | epot = -20.9517367489951 | etot = -16.5891403975288
163000  ekin = 2.20277636953308 |  erot = 1.98530644481471 | epot = -21.0546737394892 | etot = -16.8665909251414
164000  ekin = 2.79826796183382 |  erot = 1.42344840824721 | epot = -21.1610565124881 | etot = -16.9393401424071
165000  ekin = 2.69798229174462 |  erot = 2.31781118839531 | epot = -21.1993587045936 | etot = -16.1835652244537
166000  ekin = 3.347691561563 |  erot = 2.40275118503986 | epot = -21.1991437719739 | etot = -15.4487010253711
167000  ekin = 2.97948043719232 |  erot = 2.01975976280745 | epot = -21.2141517832846 | etot = -16.2149115832848
168000  ekin = 3.11629700133725 |  erot = 1.81589156246057 | epot = -21.2254082320934 | etot = -16.2932196682955
169000  ekin = 2.23067969350635 |  erot = 2.58599426553824 | epot = -21.0323953562046 | etot = -16.21572139716
170000  ekin = 2.51001635704059 |  erot = 2.40849573582857 | epot = -20.7962537985022 | etot = -15.877741705633
171000  ekin = 1.97662598765208 |  erot = 2.37061338477178 | epot = -20.6882812131574 | etot = -16.3410418407335
172000  ekin = 2.92030927492428 |  erot = 3.21214042042896 | epot = -20.6354434205533 | etot = -14.5029937252001
173000  ekin = 2.63693220687233 |  erot = 2.06856546016441 | epot = -20.6284974392497 | etot = -15.922999772213
174000  ekin = 2.40176110967849 |  erot = 2.24965000462307 | epot = -20.6443236375272 | etot = -15.9929125232256
175000  ekin = 2.67234002154831 |  erot = 2.45564751954844 | epot = -20.6199663973604 | etot = -15.4919788562637
176000  ekin = 2.01673245385969 |  erot = 1.9183163407552 | epot = -20.7018386389011 | etot = -16.7667898442862
177000  ekin = 2.596464795626 |  erot = 2.77555896067218 | epot = -20.680831154501 | etot = -15.3088073982028
178000  ekin = 1.79403744814966 |  erot = 2.59658511857168 | epot = -20.6430800433684 | etot = -16.2524574766471
179000  ekin = 2.50042302146027 |  erot = 2.3804509912764 | epot = -20.6726042717689 | etot = -15.7917302590323
180000  ekin = 1.75245031261165 |  erot = 2.4303873469024 | epot = -20.7500122103258 | etot = -16.5671745508117
181000  ekin = 1.79222190023225 |  erot = 2.9995810657549 | epot = -20.6814484132573 | etot = -15.8896454472701
182000  ekin = 1.66320587744905 |  erot = 2.02141629353652 | epot = -20.6093107101904 | etot = -16.9246885392049
183000  ekin = 2.02763354551119 |  erot = 2.76248868330122 | epot = -20.6551126707042 | etot = -15.8649904418918
184000  ekin = 2.689280625141 |  erot = 2.38653242821285 | epot = -20.7221229531514 | etot = -15.6463098997976
185000  ekin = 2.85555769078968 |  erot = 3.20157781317535 | epot = -20.753224344774 | etot = -14.696088840809
186000  ekin = 3.12742181751061 |  erot = 2.43162119123611 | epot = -20.7478016211783 | etot = -15.1887586124316
187000  ekin = 2.69074637277626 |  erot = 3.38748449363916 | epot = -20.7059570599901 | etot = -14.6277261935747
188000  ekin = 2.90397409317556 |  erot = 3.02443513582805 | epot = -20.6580601944958 | etot = -14.7296509654921
189000  ekin = 2.64499724493202 |  erot = 1.85342875921967 | epot = -20.6384234388236 | etot = -16.1399974346719
190000  ekin = 2.22494381967129 |  erot = 1.89311871438147 | epot = -20.6512398366831 | etot = -16.5331773026304
191000  ekin = 2.29157465664715 |  erot = 2.0700453614089 | epot = -20.5939652903896 | etot = -16.2323452723336
192000  ekin = 2.15052887951929 |  erot = 3.12166290778086 | epot = -20.6333128287897 | etot = -15.3611210414895
193000  ekin = 1.87092924105458 |  erot = 1.87941587400645 | epot = -20.5855445122692 | etot = -16.8351993972082
194000  ekin = 2.37715084522887 |  erot = 1.98514836795961 | epot = -20.4486333116777 | etot = -16.0863340984892
195000  ekin = 3.10737682683424 |  erot = 2.12084920255646 | epot = -20.3624082056158 | etot = -15.1341821762251
196000  ekin = 2.66377584157543 |  erot = 2.51611802410215 | epot = -20.3161800341534 | etot = -15.1362861684758
197000  ekin = 2.557175273057 |  erot = 2.13934182607509 | epot = -20.1972494584623 | etot = -15.5007323593303
198000  ekin = 2.66247910267158 |  erot = 1.81382021925719 | epot = -20.2416535082468 | etot = -15.765354186318
199000  ekin = 2.50843393203803 |  erot = 2.28227775412451 | epot = -20.245516881844 | etot = -15.4548051956814
200000  ekin = 2.85527685835946 |  erot = 1.4207535085566 | epot = -20.1743661843673 | etot = -15.8983358174513
201000  ekin = 2.65092507706535 |  erot = 1.58445887490307 | epot = -20.1821958097414 | etot = -15.946811857773
202000  ekin = 2.26420522884368 |  erot = 2.22171385541039 | epot = -20.1532078398483 | etot = -15.6672887555942
203000  ekin = 2.07842180535065 |  erot = 1.93116003098682 | epot = -20.0241969326038 | etot = -16.0146150962663
204000  ekin = 2.11748699693491 |  erot = 1.80837266686098 | epot = -19.9651494882121 | etot = -16.0392898244162
205000  ekin = 1.25146527073357 |  erot = 2.07954981334826 | epot = -20.0099023437528 | etot = -16.6788872596709
206000  ekin = 1.36328965507963 |  erot = 2.21612180676374 | epot = -19.963381256523 | etot = -16.3839697946796
207000  ekin = 1.81533520672035 |  erot = 1.76077603629941 | epot = -20.0190101077108 | etot = -16.4428988646911
208000  ekin = 1.74823318713219 |  erot = 3.36206449544997 | epot = -20.3175771772822 | etot = -15.2072794947
209000  ekin = 2.5923577770492 |  erot = 2.38143199394745 | epot = -20.4531817762058 | etot = -15.4793920052091
210000  ekin = 3.021348608481 |  erot = 3.21241527784008 | epot = -20.5252236672759 | etot = -14.2914597809549
211000  ekin = 2.39665996855035 |  erot = 2.05951351100866 | epot = -20.6417441249186 | etot = -16.1855706453596
212000  ekin = 2.3235081214966 |  erot = 1.95802058636404 | epot = -20.7122012219678 | etot = -16.4306725141072
213000  ekin = 1.94629207952043 |  erot = 2.58883926960584 | epot = -20.8120828304573 | etot = -16.276951481331
214000  ekin = 1.99258342137161 |  erot = 2.5072977885301 | epot = -20.8723291571891 | etot = -16.3724479472874
215000  ekin = 1.91261753667887 |  erot = 3.12501134800246 | epot = -20.8510938105608 | etot = -15.8134649258795
216000  ekin = 1.9105272540761 |  erot = 1.88263843324128 | epot = -20.8756157701734 | etot = -17.082450082856
217000  ekin = 2.15704524981687 |  erot = 1.98636885795902 | epot = -20.9614505069173 | etot = -16.8180363991414
218000  ekin = 2.52403426297064 |  erot = 1.68761689471414 | epot = -20.9835171384937 | etot = -16.7718659808089
219000  ekin = 2.70259520815989 |  erot = 2.18196313984077 | epot = -21.0641635927383 | etot = -16.1796052447376
220000  ekin = 1.78634533298715 |  erot = 2.98389550796977 | epot = -21.0763994740961 | etot = -16.3061586331392
221000  ekin = 1.85000543747427 |  erot = 2.76223911448066 | epot = -21.0751339685298 | etot = -16.4628894165749
222000  ekin = 2.60901732885337 |  erot = 2.87748957848667 | epot = -21.0105669101658 | etot = -15.5240600028257
223000  ekin = 2.9396913298498 |  erot = 1.96251607796715 | epot = -21.0341836716778 | etot = -16.1319762638608
224000  ekin = 2.69617374345807 |  erot = 2.42055295899733 | epot = -20.9692873445945 | etot = -15.8525606421391
225000  ekin = 1.86627964840671 |  erot = 3.43696431183733 | epot = -20.9712141012096 | etot = -15.6679701409656
226000  ekin = 2.25573239791906 |  erot = 2.40070592420066 | epot = -21.0550148122852 | etot = -16.3985764901655
227000  ekin = 2.63593478722215 |  erot = 2.63769879020641 | epot = -21.0956960470276 | etot = -15.8220624695991
228000  ekin = 1.99028781766327 |  erot = 2.28906970548486 | epot = -21.1149959992141 | etot = -16.835638476066
229000  ekin = 1.75647249193026 |  erot = 1.81030124515662 | epot = -21.1928724807747 | etot = -17.6260987436878
230000  ekin = 2.69662060502401 |  erot = 2.22484281026861 | epot = -21.2262690615473 | etot = -16.3048056462547
231000  ekin = 3.05129947933423 |  erot = 2.77935455227377 | epot = -21.2210071317732 | etot = -15.3903531001652
232000  ekin = 1.73530254825592 |  erot = 1.70690642763194 | epot = -21.2414451190463 | etot = -17.7992361431585
233000  ekin = 1.73446783175374 |  erot = 1.56594401711366 | epot = -21.2072395470603 | etot = -17.9068276981929
234000  ekin = 2.25823447570041 |  erot = 2.07351347000649 | epot = -21.138212507355 | etot = -16.8064645616481
235000  ekin = 1.93196743383772 |  erot = 2.49383993682954 | epot = -21.0901594458146 | etot = -16.6643520751474
236000  ekin = 2.18708564015113 |  erot = 1.93799741883138 | epot = -21.0457645041712 | etot = -16.9206814451887
237000  ekin = 2.31927197737341 |  erot = 2.68002429442957 | epot = -21.1116991267122 | etot = -16.1124028549092
238000  ekin = 2.25707648808441 |  erot = 2.71130604918474 | epot = -21.1399399186613 | etot = -16.1715573813922
239000  ekin = 2.74968690386233 |  erot = 2.44110731361885 | epot = -21.093523203159 | etot = -15.9027289856778
240000  ekin = 3.16181550246157 |  erot = 2.15895930936995 | epot = -20.9508561517884 | etot = -15.6300813399569
241000  ekin = 3.11838290974597 |  erot = 2.65399053310228 | epot = -20.8603196248785 | etot = -15.0879461820302
242000  ekin = 2.1633936819056 |  erot = 2.36950819979959 | epot = -20.7961339994622 | etot = -16.263232117757
243000  ekin = 1.45504775547085 |  erot = 2.75429611736436 | epot = -20.7267164023362 | etot = -16.517372529501
244000  ekin = 1.84854193189792 |  erot = 2.39837785157293 | epot = -20.530884885722 | etot = -16.2839651022512
245000  ekin = 1.98408303504688 |  erot = 2.68046618163063 | epot = -20.4132410198281 | etot = -15.7486918031506
246000  ekin = 2.09640880296742 |  erot = 2.41536205534837 | epot = -20.4482333752375 | etot = -15.9364625169217
247000  ekin = 1.65585462684788 |  erot = 2.30761787750362 | epot = -20.4232326856541 | etot = -16.4597601813026
248000  ekin = 1.87248111087146 |  erot = 2.55577268639945 | epot = -20.508890303462 | etot = -16.0806365061911
249000  ekin = 1.97657113688943 |  erot = 2.04750281661186 | epot = -20.631287501152 | etot = -16.6072135476507
250000  ekin = 1.63999696475991 |  erot = 3.33671198556551 | epot = -20.6691841697288 | etot = -15.6924752194034
251000  ekin = 2.21236015508914 |  erot = 3.24698253165775 | epot = -20.6254420215408 | etot = -15.1660993347939
252000  ekin = 2.08493929877742 |  erot = 2.56995142027006 | epot = -20.6585231177128 | etot = -16.0036323986654
253000  ekin = 1.65758042166635 |  erot = 3.15344281058873 | epot = -20.6259819018172 | etot = -15.8149586695621
254000  ekin = 2.22844036376734 |  erot = 2.94733617118919 | epot = -20.4363400719083 | etot = -15.2605635369518
255000  ekin = 2.37914768460389 |  erot = 2.77307969202391 | epot = -20.2912194310751 | etot = -15.1389920544473
256000  ekin = 1.88103883734878 |  erot = 2.62055239014207 | epot = -20.26659793256 | etot = -15.7650067050692
257000  ekin = 2.10189425499879 |  erot = 3.18787211792018 | epot = -20.2122751669514 | etot = -14.9225087940324
258000  ekin = 2.0191103652464 |  erot = 1.85519757104276 | epot = -20.3340734447764 | etot = -16.4597655084872
259000  ekin = 2.6922167457736 |  erot = 2.8664668552165 | epot = -20.489513618079 | etot = -14.9308300170889
260000  ekin = 2.75370653176992 |  erot = 2.19304245845126 | epot = -20.537811855413 | etot = -15.5910628651918
261000  ekin = 2.79585518014923 |  erot = 2.32377822146477 | epot = -20.605602525634 | etot = -15.48596912402
262000  ekin = 3.54536609742409 |  erot = 1.75860156695968 | epot = -20.6458840134888 | etot = -15.341916349105
263000  ekin = 3.02919569427601 |  erot = 2.40011348876971 | epot = -20.630274507631 | etot = -15.2009653245853
264000  ekin = 2.26895264261873 |  erot = 2.04165430847122 | epot = -20.6422876149802 | etot = -16.3316806638903
265000  ekin = 1.9508075036463 |  erot = 2.56756324858484 | epot = -20.6985253023454 | etot = -16.1801545501143
266000  ekin = 2.46881142774938 |  erot = 3.3809446591161 | epot = -20.7753817438694 | etot = -14.9256256570039
267000  ekin = 1.7853586804105 |  erot = 2.28285280843321 | epot = -20.7503581094448 | etot = -16.6821466206011
268000  ekin = 2.0258128021118 |  erot = 3.31200226132994 | epot = -20.7441992179593 | etot = -15.4063841545176
269000  ekin = 1.95193363262323 |  erot = 2.80862821989368 | epot = -20.6952773953212 | etot = -15.9347155428043
270000  ekin = 2.24049386636217 |  erot = 2.67605688080758 | epot = -20.6060018559467 | etot = -15.689451108777
271000  ekin = 2.18728880979495 |  erot = 3.14644835119795 | epot = -20.433774949995 | etot = -15.1000377890021
272000  ekin = 2.5384506501529 |  erot = 2.30767932935392 | epot = -20.3323710221327 | etot = -15.4862410426258
273000  ekin = 1.91092141816532 |  erot = 2.0288411450342 | epot = -20.3323164003355 | etot = -16.392553837136
274000  ekin = 2.00201077675189 |  erot = 2.24739775331959 | epot = -20.4133077351674 | etot = -16.1638992050959
275000  ekin = 1.90002174167953 |  erot = 3.09396604575782 | epot = -20.518857147306 | etot = -15.5248693598686
276000  ekin = 3.42022624026197 |  erot = 2.44500094165597 | epot = -20.5242331063397 | etot = -14.6590059244217
277000  ekin = 2.52964660025682 |  erot = 1.4890438159021 | epot = -20.5529254884842 | etot = -16.5342350723253
278000  ekin = 2.69300481592805 |  erot = 2.21086331794977 | epot = -20.6371726797765 | etot = -15.7333045458987
279000  ekin = 2.06735415489227 |  erot = 2.38222726617699 | epot = -20.7491398905203 | etot = -16.299558469451
280000  ekin = 2.48860425234569 |  erot = 3.56132291580209 | epot = -20.6699548873107 | etot = -14.6200277191629
281000  ekin = 1.90441163322751 |  erot = 1.79497535131644 | epot = -20.7159064319469 | etot = -17.016519447403
282000  ekin = 2.33095857872675 |  erot = 3.04837838088247 | epot = -20.6642460711576 | etot = -15.2849091115484
283000  ekin = 2.21600229118113 |  erot = 2.22472102246679 | epot = -20.6685436394044 | etot = -16.2278203257565
284000  ekin = 1.75300365697355 |  erot = 2.23328987111688 | epot = -20.6627760913328 | etot = -16.6764825632423
285000  ekin = 2.95523565894042 |  erot = 1.78447986094552 | epot = -20.7891440320931 | etot = -16.0494285122072
286000  ekin = 3.6183458495856 |  erot = 1.85964064993696 | epot = -20.8865153333954 | etot = -15.4085288338729
287000  ekin = 3.45019642375435 |  erot = 3.04511814043034 | epot = -20.9873840136492 | etot = -14.4920694494645
288000  ekin = 3.18720088698851 |  erot = 1.57202290309371 | epot = -20.9864009810413 | etot = -16.2271771909591
289000  ekin = 2.5608478504084 |  erot = 2.81445519147575 | epot = -20.9705340879555 | etot = -15.5952310460714
290000  ekin = 2.72624252203687 |  erot = 2.38400173700866 | epot = -21.0105946007182 | etot = -15.9003503416726
291000  ekin = 2.20033773414283 |  erot = 2.34186000362126 | epot = -21.0219813276735 | etot = -16.4797835899094
292000  ekin = 2.29840042157647 |  erot = 2.02209533660268 | epot = -21.1315182276747 | etot = -16.8110224694956
293000  ekin = 2.33001091331969 |  erot = 2.26688501461713 | epot = -21.2386085899366 | etot = -16.6417126619997
294000  ekin = 2.9410827764982 |  erot = 2.84353738982769 | epot = -21.2706598388116 | etot = -15.4860396724857
295000  ekin = 2.53290399864326 |  erot = 2.28544866698066 | epot = -21.3748979385548 | etot = -16.5565452729309
296000  ekin = 2.16067641375682 |  erot = 2.94620070091477 | epot = -21.4337521213085 | etot = -16.3268750066369
297000  ekin = 2.24926583136354 |  erot = 3.25336959976865 | epot = -21.4373527750473 | etot = -15.9347173439151
298000  ekin = 3.10846313958503 |  erot = 2.34646924337333 | epot = -21.4333717530486 | etot = -15.9784393700903
299000  ekin = 3.31511197641132 |  erot = 2.31880709422655 | epot = -21.6554795582022 | etot = -16.0215604875643
300000  ekin = 3.55361135148054 |  erot = 1.34943400999301 | epot = -21.8222050158382 | etot = -16.9191596543646
301000  ekin = 2.61554795456796 |  erot = 3.24257128482351 | epot = -21.8877761264506 | etot = -16.0296568870591
302000  ekin = 3.21116542816786 |  erot = 3.23002664819324 | epot = -21.9212179871791 | etot = -15.480025910818
303000  ekin = 2.61611282415465 |  erot = 2.63872444511488 | epot = -21.9571218374925 | etot = -16.7022845682229
304000  ekin = 2.26735623403648 |  erot = 2.72550942939852 | epot = -21.9299761956721 | etot = -16.9371105322371
305000  ekin = 2.23627056244713 |  erot = 2.34507074243237 | epot = -21.8773560163852 | etot = -17.2960147115057
306000  ekin = 1.83320616710097 |  erot = 2.91717664379726 | epot = -21.7967330907637 | etot = -17.0463502798655
307000  ekin = 2.40964424913805 |  erot = 2.10289567897061 | epot = -21.7258397064498 | etot = -17.2132997783411
308000  ekin = 2.80398072346264 |  erot = 2.676234079123 | epot = -21.7487485522248 | etot = -16.2685337496392
309000  ekin = 2.27419525677768 |  erot = 2.14960452543898 | epot = -21.7454606813031 | etot = -17.3216608990865
310000  ekin = 2.51411324313689 |  erot = 3.15443787212902 | epot = -21.7178786708583 | etot = -16.0493275555924
311000  ekin = 2.35385094375374 |  erot = 3.02222153592898 | epot = -21.6661482443677 | etot = -16.290075764685
312000  ekin = 1.9069671045072 |  erot = 3.26421951450961 | epot = -21.565697188217 | etot = -16.3945105692002
313000  ekin = 1.71276993890253 |  erot = 2.09939260940189 | epot = -21.5791878084186 | etot = -17.7670252601142
314000  ekin = 2.33355472127616 |  erot = 2.49813735947728 | epot = -21.5763460572024 | etot = -16.7446539764489
315000  ekin = 2.65663736549478 |  erot = 2.05740101522504 | epot = -21.6374256968268 | etot = -16.923387316107
316000  ekin = 2.12214655919903 |  erot = 1.75034258186842 | epot = -21.6350740155222 | etot = -17.7625848744547
317000  ekin = 2.12694407785258 |  erot = 1.98845011056189 | epot = -21.5848780687075 | etot = -17.469483880293
318000  ekin = 2.1975939573631 |  erot = 1.87817664459909 | epot = -21.5091314688958 | etot = -17.4333608669336
319000  ekin = 1.85514163119059 |  erot = 1.66418826395233 | epot = -21.2899233608572 | etot = -17.7705934657143
320000  ekin = 2.52575993990282 |  erot = 3.02952891590936 | epot = -21.1566922708423 | etot = -15.6014034150301
321000  ekin = 1.90683773096804 |  erot = 2.64035785855325 | epot = -21.1515505039891 | etot = -16.6043549144678
322000  ekin = 1.93649467426924 |  erot = 3.26342971956961 | epot = -21.0206283277041 | etot = -15.8207039338652
323000  ekin = 2.02934789466049 |  erot = 2.10129691891688 | epot = -20.9959583500593 | etot = -16.8653135364819
324000  ekin = 2.22003247513426 |  erot = 2.46095391808464 | epot = -21.0972773793232 | etot = -16.4162909861043
325000  ekin = 2.63468656798802 |  erot = 2.34463844530994 | epot = -21.1587478639544 | etot = -16.1794228506564
326000  ekin = 1.78422348096676 |  erot = 1.96771020959121 | epot = -21.1986567208758 | etot = -17.4467230303178
327000  ekin = 2.95746239225788 |  erot = 1.69681818413058 | epot = -21.2352353568296 | etot = -16.5809547804411
328000  ekin = 2.73064453428836 |  erot = 1.912154581859 | epot = -21.2297006702592 | etot = -16.5869015541118
329000  ekin = 3.01456283113019 |  erot = 3.13889409060927 | epot = -21.2717645235956 | etot = -15.1183076018561
330000  ekin = 2.8689183797262 |  erot = 1.99800278523285 | epot = -21.2607129387917 | etot = -16.3937917738326
331000  ekin = 2.29553859998838 |  erot = 2.07553686607886 | epot = -21.260368071885 | etot = -16.8892926058178
332000  ekin = 2.41227920570138 |  erot = 3.19125383020808 | epot = -21.3664428637389 | etot = -15.7629098278294
333000  ekin = 2.4411704967475 |  erot = 2.65877672941607 | epot = -21.460865728296 | etot = -16.3609185021325
334000  ekin = 2.38061268197667 |  erot = 2.93885193062897 | epot = -21.4514660171312 | etot = -16.1320014045255
335000  ekin = 2.18761603807232 |  erot = 3.53985212384991 | epot = -21.4183348050987 | etot = -15.6908666431765
336000  ekin = 2.57441467403215 |  erot = 2.11868417141348 | epot = -21.3427769419826 | etot = -16.649678096537
337000  ekin = 2.70625222028215 |  erot = 2.68369907455042 | epot = -21.2551457061692 | etot = -15.8651944113366
338000  ekin = 1.86562070893093 |  erot = 2.21584746568673 | epot = -21.27176267581 | etot = -17.1902945011923
339000  ekin = 1.65018309757757 |  erot = 2.49790847152423 | epot = -21.3119871266396 | etot = -17.1638955575378
340000  ekin = 1.49737372551595 |  erot = 4.08205312815813 | epot = -21.3095231110827 | etot = -15.7300962574086
341000  ekin = 1.65544487065718 |  erot = 2.82846211687792 | epot = -21.29905937568 | etot = -16.8151523881449
342000  ekin = 2.00432683391074 |  erot = 2.76638971865879 | epot = -21.4087317365127 | etot = -16.6380151839431
343000  ekin = 2.67724086419087 |  erot = 3.19911741367153 | epot = -21.5425473474903 | etot = -15.6661890696279
344000  ekin = 1.78955534353061 |  erot = 2.20059174068329 | epot = -21.607993254716 | etot = -17.6178461705021
345000  ekin = 1.60321450605523 |  erot = 1.85380147904902 | epot = -21.6376317669468 | etot = -18.1806157818426
346000  ekin = 1.81033933381631 |  erot = 1.77876965714342 | epot = -21.5654882466792 | etot = -17.9763792557195
347000  ekin = 1.56665362484892 |  erot = 2.59842849381189 | epot = -21.5853644913392 | etot = -17.4202823726783
348000  ekin = 2.1891296235447 |  erot = 2.95533432121614 | epot = -21.6038607363686 | etot = -16.4593967916078
349000  ekin = 1.83988001145192 |  erot = 1.93734222429266 | epot = -21.6544071025198 | etot = -17.8771848667753
350000  ekin = 1.76771364656952 |  erot = 2.58082579541487 | epot = -21.6172179606052 | etot = -17.2686785186208
351000  ekin = 1.74501894371194 |  erot = 2.87139543229852 | epot = -21.6594840936747 | etot = -17.0430697176643
352000  ekin = 2.78310268928366 |  erot = 2.05677350762103 | epot = -21.7729254467349 | etot = -16.9330492498302
353000  ekin = 3.48581132480198 |  erot = 1.44246638891711 | epot = -21.7646797586441 | etot = -16.836402044925
354000  ekin = 3.38899814422358 |  erot = 2.22715878367274 | epot = -21.5998371444193 | etot = -15.983680216523
355000  ekin = 2.05832358053849 |  erot = 2.98806548152301 | epot = -21.5440693578496 | etot = -16.4976802957881
356000  ekin = 2.02605282707893 |  erot = 3.32787371152422 | epot = -21.60458051301 | etot = -16.2506539744069
357000  ekin = 2.62623948801936 |  erot = 2.5668732083491 | epot = -21.5887363178738 | etot = -16.3956236215053
358000  ekin = 2.55397672056473 |  erot = 2.27325911137645 | epot = -21.5605847835478 | etot = -16.7333489516067
359000  ekin = 3.19049251829501 |  erot = 2.47117136656472 | epot = -21.6065019253802 | etot = -15.9448380405205
360000  ekin = 2.52835227647441 |  erot = 1.96951566658165 | epot = -21.6253780930116 | etot = -17.1275101499555
361000  ekin = 2.57610170320501 |  erot = 2.52891167750394 | epot = -21.6588053756155 | etot = -16.5537919949066
362000  ekin = 2.39133195084537 |  erot = 3.87402777311636 | epot = -21.6493305296327 | etot = -15.3839708056709
363000  ekin = 3.03778777305797 |  erot = 1.99737759852887 | epot = -21.6115393977517 | etot = -16.5763740261648
364000  ekin = 2.354457935593 |  erot = 1.80190238475035 | epot = -21.5311010453585 | etot = -17.3747407250151
365000  ekin = 2.24541828504304 |  erot = 2.83562386881841 | epot = -21.4728295194754 | etot = -16.391787365614
366000  ekin = 2.38289400921674 |  erot = 1.90900991208482 | epot = -21.4776644549371 | etot = -17.1857605336355
367000  ekin = 2.88573323602154 |  erot = 2.45976000666774 | epot = -21.5074797993045 | etot = -16.1619865566152
368000  ekin = 2.84696386474004 |  erot = 2.15738999795743 | epot = -21.558047308783 | etot = -16.5536934460855
369000  ekin = 2.14598790360665 |  erot = 2.85665722695151 | epot = -21.5712058554246 | etot = -16.5685607248664
370000  ekin = 2.45995751796479 |  erot = 2.13906949999212 | epot = -21.579646227793 | etot = -16.9806192098361
371000  ekin = 2.04304311042444 |  erot = 3.56307011704743 | epot = -21.5587566075787 | etot = -15.9526433801068
372000  ekin = 1.64419740274728 |  erot = 3.34270406789499 | epot = -21.4729434759048 | etot = -16.4860420052625
373000  ekin = 2.04917512505782 |  erot = 2.77057278950262 | epot = -21.3900414171205 | etot = -16.57029350256
374000  ekin = 2.57375472227783 |  erot = 3.54733149585067 | epot = -21.4347502506358 | etot = -15.3136640325073
375000  ekin = 2.41112806833676 |  erot = 2.92869703610369 | epot = -21.4377733260237 | etot = -16.0979482215833
376000  ekin = 3.32837907583806 |  erot = 3.31243091347022 | epot = -21.4931981087552 | etot = -14.8523881194469
377000  ekin = 3.15405418687127 |  erot = 2.74014161209841 | epot = -21.5192446040409 | etot = -15.6250488050712
378000  ekin = 1.45609497402487 |  erot = 2.746240891451 | epot = -21.6317947947176 | etot = -17.4294589292417
379000  ekin = 1.81797882355638 |  erot = 2.60630883749014 | epot = -21.6958438560916 | etot = -17.2715561950451
380000  ekin = 2.4049964903951 |  erot = 2.89186249603684 | epot = -21.7082268480227 | etot = -16.4113678615908
381000  ekin = 2.64842636682713 |  erot = 2.26219748822054 | epot = -21.7057215716817 | etot = -16.795097716634
382000  ekin = 2.47752913729401 |  erot = 2.04210769124612 | epot = -21.6449478425138 | etot = -17.1253110139736
383000  ekin = 2.00524261472868 |  erot = 2.56230948998176 | epot = -21.7068571117492 | etot = -17.1393050070387
384000  ekin = 2.17158176945692 |  erot = 2.19494825800454 | epot = -21.7763765404188 | etot = -17.4098465129574
385000  ekin = 1.96249613499807 |  erot = 1.63825710986943 | epot = -21.8547831390568 | etot = -18.2540298941893
386000  ekin = 1.61183135296493 |  erot = 1.32933647781102 | epot = -21.9006064505069 | etot = -18.9594386197309
387000  ekin = 2.22280022789527 |  erot = 1.7212718845201 | epot = -21.8931615769585 | etot = -17.9490894645432
388000  ekin = 1.97946751936565 |  erot = 1.93671552288826 | epot = -21.8029424660794 | etot = -17.8867594238255
389000  ekin = 2.53452259152407 |  erot = 2.27886730071627 | epot = -21.7230124224866 | etot = -16.9096225302462
390000  ekin = 2.09808545964642 |  erot = 1.90819879760451 | epot = -21.6199451171109 | etot = -17.61366085986
391000  ekin = 1.94761965487069 |  erot = 2.37532739178619 | epot = -21.6426154474748 | etot = -17.319668400818
392000  ekin = 2.20198832348046 |  erot = 2.92162492844665 | epot = -21.6315891435669 | etot = -16.5079758916398
393000  ekin = 2.23024810985359 |  erot = 3.17664353812268 | epot = -21.7466426622035 | etot = -16.3397510142273
394000  ekin = 2.04975854379136 |  erot = 2.18756379665949 | epot = -21.7724963585807 | etot = -17.5351740181299
395000  ekin = 1.93125208483951 |  erot = 2.47484259718974 | epot = -21.8005615761774 | etot = -17.3944668941482
396000  ekin = 2.08855299022101 |  erot = 2.00872035951221 | epot = -21.8970360812688 | etot = -17.7997627315356
397000  ekin = 2.38313554841971 |  erot = 1.6626426444786 | epot = -22.0081597563849 | etot = -17.9623815634866
398000  ekin = 3.58203910519114 |  erot = 2.51998644809578 | epot = -22.135935788923 | etot = -16.0339102356361
399000  ekin = 2.62576319033925 |  erot = 1.77033646771359 | epot = -22.2111758457576 | etot = -17.8150761877047
400000  ekin = 2.53194786091805 |  erot = 2.08742566508416 | epot = -22.2735361658196 | etot = -17.6541626398174
401000  ekin = 2.09353988672169 |  erot = 2.14852070765912 | epot = -22.3335178716604 | etot = -18.0914572772796
402000  ekin = 2.46958182980051 |  erot = 2.12502299270244 | epot = -22.3482347718228 | etot = -17.7536299493199
403000  ekin = 2.58921628014648 |  erot = 2.86164638643827 | epot = -22.4689097911232 | etot = -17.0180471245385
404000  ekin = 2.20068343839647 |  erot = 2.65286316017676 | epot = -22.5709170704123 | etot = -17.7173704718391
405000  ekin = 2.55084498775187 |  erot = 2.40299222324449 | epot = -22.6095926196068 | etot = -17.6557554086104
406000  ekin = 2.28354188810392 |  erot = 2.24431559943121 | epot = -22.6637840541874 | etot = -18.1359265666523
407000  ekin = 2.02398740329228 |  erot = 2.8101776368585 | epot = -22.6179032895878 | etot = -17.783738249437
408000  ekin = 2.65254413795653 |  erot = 2.56567568161306 | epot = -22.5483281140291 | etot = -17.3301082944595
409000  ekin = 2.39750881803924 |  erot = 2.2689457836846 | epot = -22.4550040048052 | etot = -17.7885494030814
410000  ekin = 2.06074940315708 |  erot = 1.94173792265166 | epot = -22.4807201906406 | etot = -18.4782328648318
411000  ekin = 1.83887405641594 |  erot = 2.61243815905079 | epot = -22.4116641553337 | etot = -17.960351939867
412000  ekin = 1.90261936248518 |  erot = 2.66652402938538 | epot = -22.3483127872247 | etot = -17.7791693953542
413000  ekin = 2.35040395303007 |  erot = 2.67353862568847 | epot = -22.2669306424464 | etot = -17.2429880637279
414000  ekin = 2.30906286858981 |  erot = 1.73717215860278 | epot = -22.1755688584688 | etot = -18.1293338312762
415000  ekin = 2.66126184459019 |  erot = 2.4541743638471 | epot = -22.2128164905017 | etot = -17.0973802820644
416000  ekin = 2.08583759668813 |  erot = 2.78856791721225 | epot = -22.2822090371761 | etot = -17.4078035232757
417000  ekin = 1.97590755563817 |  erot = 1.98448427965859 | epot = -22.3172250233213 | etot = -18.3568331880245
418000  ekin = 2.36791833812251 |  erot = 2.60674472977792 | epot = -22.3137100626847 | etot = -17.3390469947842
419000  ekin = 3.04291724621694 |  erot = 2.60836216313033 | epot = -22.3291789432706 | etot = -16.6778995339234
420000  ekin = 2.70227847563318 |  erot = 2.41241205610074 | epot = -22.3057841525394 | etot = -17.1910936208055
421000  ekin = 2.68869665064885 |  erot = 1.75098151650989 | epot = -22.3388090554844 | etot = -17.8991308883257
422000  ekin = 2.78253839361924 |  erot = 1.6509849969053 | epot = -22.3509410814692 | etot = -17.9174176909447
423000  ekin = 2.12248855672709 |  erot = 2.62902021314661 | epot = -22.2712034672441 | etot = -17.5196946973704
424000  ekin = 1.90224363434238 |  erot = 2.35797907949598 | epot = -22.2433169528076 | etot = -17.9830942389693
425000  ekin = 2.42208265055435 |  erot = 1.96281712740698 | epot = -22.2841824428991 | etot = -17.8992826649377
426000  ekin = 2.279955299376 |  erot = 2.64131293979659 | epot = -22.3032535079096 | etot = -17.381985268737
427000  ekin = 1.89577487365929 |  erot = 2.1304845752962 | epot = -22.4563531750397 | etot = -18.4300937260842
428000  ekin = 2.04310258327089 |  erot = 2.38569153533084 | epot = -22.5789812358696 | etot = -18.1501871172679
429000  ekin = 1.84622338082266 |  erot = 2.1140509494917 | epot = -22.6032901567132 | etot = -18.6430158263988
430000  ekin = 2.35986577783182 |  erot = 2.18145644752177 | epot = -22.5970422815811 | etot = -18.0557200562275
431000  ekin = 2.53177003969584 |  erot = 2.42607807110941 | epot = -22.6611682494862 | etot = -17.703320138681
432000  ekin = 2.85630679058592 |  erot = 2.20581048106816 | epot = -22.6675586279766 | etot = -17.6054413563225
433000  ekin = 2.19963930240401 |  erot = 1.65725782961866 | epot = -22.7597124014623 | etot = -18.9028152694396
434000  ekin = 2.5767579420883 |  erot = 2.34568734468727 | epot = -22.801146280054 | etot = -17.8787009932784
435000  ekin = 2.22627480230278 |  erot = 2.52934264555169 | epot = -22.697988754355 | etot = -17.9423713065006
436000  ekin = 2.26611864703752 |  erot = 2.75260757590819 | epot = -22.6629192269998 | etot = -17.6441930040541
437000  ekin = 1.56842780040921 |  erot = 3.31770066147579 | epot = -22.6347940638884 | etot = -17.7486656020034
438000  ekin = 1.43673935943818 |  erot = 2.60577604507581 | epot = -22.5559711452626 | etot = -18.5134557407487
439000  ekin = 2.20693046036964 |  erot = 1.9143100564349 | epot = -22.5223334665821 | etot = -18.4010929497776
440000  ekin = 2.52454995811092 |  erot = 3.02948215045584 | epot = -22.5335335971412 | etot = -16.9795014885744
441000  ekin = 2.87918170447636 |  erot = 2.51412577321534 | epot = -22.5074801577229 | etot = -17.1141726800312
442000  ekin = 2.9951003850504 |  erot = 2.87306492263687 | epot = -22.4840356143845 | etot = -16.6158703066972
443000  ekin = 2.06184557402961 |  erot = 1.71209924039528 | epot = -22.4115055062377 | etot = -18.6375606918128
444000  ekin = 2.0845269242276 |  erot = 2.19951342154761 | epot = -22.3384019057583 | etot = -18.0543615599831
445000  ekin = 2.20236703589156 |  erot = 2.12787562957442 | epot = -22.2110928626112 | etot = -17.8808501971452
446000  ekin = 2.37927959569598 |  erot = 2.40667168727805 | epot = -22.1614581930009 | etot = -17.3755069100269
447000  ekin = 2.19225299124282 |  erot = 2.44858105761773 | epot = -22.2198617394008 | etot = -17.5790276905403
448000  ekin = 2.26628177761013 |  erot = 1.92055428906536 | epot = -22.3704938762956 | etot = -18.1836578096201
449000  ekin = 2.1863376785868 |  erot = 2.32759241994406 | epot = -22.4864491804698 | etot = -17.9725190819389
450000  ekin = 2.85307292466019 |  erot = 1.93864083044021 | epot = -22.4601746256218 | etot = -17.6684608705214
451000  ekin = 2.22889573274113 |  erot = 2.11523223509484 | epot = -22.5311638878134 | etot = -18.1870359199775
452000  ekin = 2.53280991956706 |  erot = 2.32162597184345 | epot = -22.5943081994437 | etot = -17.7398723080332
453000  ekin = 2.19676398681661 |  erot = 1.7529259082636 | epot = -22.5638554452483 | etot = -18.614165550168
454000  ekin = 2.26252896030123 |  erot = 2.58056026758191 | epot = -22.4864008383403 | etot = -17.6433116104571
455000  ekin = 1.8935428420212 |  erot = 2.76066100080015 | epot = -22.2202784241855 | etot = -17.5660745813642
456000  ekin = 1.91861826692114 |  erot = 2.52548464598102 | epot = -22.0216544177274 | etot = -17.5775515048253
457000  ekin = 2.60857680405757 |  erot = 2.42561815728531 | epot = -21.9164899200122 | etot = -16.8822949586693
458000  ekin = 1.98863469559211 |  erot = 1.97254138924828 | epot = -21.8232453897655 | etot = -17.8620693049251
459000  ekin = 1.75825763326612 |  erot = 2.44787553142306 | epot = -21.7704043388938 | etot = -17.5642711742046
460000  ekin = 2.01726219015756 |  erot = 2.11943234813282 | epot = -21.8014472362485 | etot = -17.6647526979581
461000  ekin = 1.6225243555458 |  erot = 1.30619199047089 | epot = -21.8662229032443 | etot = -18.9375065572276
462000  ekin = 2.36728919414015 |  erot = 1.35967714397883 | epot = -21.9987625484566 | etot = -18.2717962103376
463000  ekin = 2.68689192698175 |  erot = 2.11246201196036 | epot = -22.1317162096485 | etot = -17.3323622707064
464000  ekin = 2.70698519296897 |  erot = 3.67774573501368 | epot = -22.2623572075929 | etot = -15.8776262796102
465000  ekin = 2.01578885855778 |  erot = 2.2369794498662 | epot = -22.4428608532701 | etot = -18.1900925448461
466000  ekin = 2.12982324575509 |  erot = 2.94906925981975 | epot = -22.5491773567419 | etot = -17.4702848511671
467000  ekin = 2.50723779102992 |  erot = 2.18134015017481 | epot = -22.7690295785156 | etot = -18.0804516373109
468000  ekin = 1.96919080542229 |  erot = 1.64435979815682 | epot = -22.9093588596105 | etot = -19.2958082560314
469000  ekin = 2.48427610779055 |  erot = 2.64382658554158 | epot = -22.9750140331235 | etot = -17.8469113397914
470000  ekin = 2.87203328930808 |  erot = 3.21320987832445 | epot = -22.9823743833004 | etot = -16.8971312156679
471000  ekin = 2.37115819970267 |  erot = 1.70210826406189 | epot = -22.9568900563753 | etot = -18.8836235926107
472000  ekin = 2.21528494404151 |  erot = 1.98346314164222 | epot = -22.9194636564959 | etot = -18.7207155708122
473000  ekin = 2.35913411582376 |  erot = 2.8684436354563 | epot = -22.8576431835933 | etot = -17.6300654323132
474000  ekin = 2.24139318497163 |  erot = 2.57322838981765 | epot = -22.705667453929 | etot = -17.8910458791397
475000  ekin = 2.46228446093344 |  erot = 1.96194107966179 | epot = -22.5688073196695 | etot = -18.1445817790742
476000  ekin = 2.1974792180477 |  erot = 2.59512386423189 | epot = -22.5874492653929 | etot = -17.7948461831133
477000  ekin = 2.42095698384426 |  erot = 3.49472268437452 | epot = -22.5000629485617 | etot = -16.5843832803429
478000  ekin = 2.26723785724923 |  erot = 2.72865949629316 | epot = -22.356202485645 | etot = -17.3603051321026
479000  ekin = 1.25220409451656 |  erot = 3.02866907573214 | epot = -22.3362823482691 | etot = -18.0554091780204
480000  ekin = 2.03952592960038 |  erot = 2.17467506564845 | epot = -22.3621549333217 | etot = -18.1479539380728
481000  ekin = 2.56576009430004 |  erot = 3.22342432147736 | epot = -22.4505061647748 | etot = -16.6613217489974
482000  ekin = 3.38854038087328 |  erot = 2.37643898862111 | epot = -22.4286451817005 | etot = -16.6636658122061
483000  ekin = 3.19068985841847 |  erot = 2.47689408920791 | epot = -22.416137342464 | etot = -16.7485533948377
484000  ekin = 2.85012170833275 |  erot = 2.5075031534822 | epot = -22.4246172333373 | etot = -17.0669923715224
485000  ekin = 3.42664746547314 |  erot = 2.3900467090211 | epot = -22.3774845275087 | etot = -16.5607903530144
486000  ekin = 2.02778897040689 |  erot = 1.73971673829797 | epot = -22.3542896200677 | etot = -18.5867839113629
487000  ekin = 2.75010491749964 |  erot = 2.44289728662022 | epot = -22.4091819250318 | etot = -17.2161797209119
488000  ekin = 1.87624887517825 |  erot = 2.58254098251458 | epot = -22.4922718586683 | etot = -18.0334820009755
489000  ekin = 2.17648759874384 |  erot = 2.90789507206728 | epot = -22.5505836829342 | etot = -17.4662010121231
490000  ekin = 2.41144899886644 |  erot = 2.36011746123945 | epot = -22.4752556640755 | etot = -17.7036892039696
491000  ekin = 2.54272003229715 |  erot = 2.63178389586436 | epot = -22.5026752276747 | etot = -17.3281712995132
492000  ekin = 3.41903137172034 |  erot = 2.18170021522651 | epot = -22.5196365452277 | etot = -16.9189049582808
493000  ekin = 3.41956519575512 |  erot = 2.35814189535009 | epot = -22.4357685546762 | etot = -16.658061463571
494000  ekin = 3.6043152159956 |  erot = 2.2222224126157 | epot = -22.4648652738414 | etot = -16.6383276452301
495000  ekin = 2.58437091225196 |  erot = 2.20413308312874 | epot = -22.4931067037267 | etot = -17.704602708346
496000  ekin = 2.00184095196136 |  erot = 3.5835767735553 | epot = -22.5766663903561 | etot = -16.9912486648395
497000  ekin = 2.24610197964457 |  erot = 2.51524988747094 | epot = -22.6547222619241 | etot = -17.8933703948086
498000  ekin = 1.76081371626709 |  erot = 2.42460681574596 | epot = -22.6536941436365 | etot = -18.4682736116235
499000  ekin = 2.49030963829955 |  erot = 2.77031052401072 | epot = -22.7099727973283 | etot = -17.449352635018
500000  ekin = 2.8911937559541 |  erot = 2.23132873849218 | epot = -22.8081840572304 | etot = -17.6856615627841
501000  ekin = 3.00964533556032 |  erot = 1.95557257667153 | epot = -22.8024760855085 | etot = -17.8372581732767
502000  ekin = 2.87490716368509 |  erot = 1.80763764351073 | epot = -22.8113151136988 | etot = -18.128770306503
503000  ekin = 2.58119646361634 |  erot = 2.91986881741509 | epot = -22.8408579060815 | etot = -17.3397926250501
504000  ekin = 2.94799459276651 |  erot = 2.67311831876346 | epot = -22.7858425640526 | etot = -17.1647296525227
505000  ekin = 2.97556174335231 |  erot = 2.6021340761357 | epot = -22.8253443664715 | etot = -17.2476485469834
506000  ekin = 2.14275841470529 |  erot = 1.94368460581855 | epot = -22.8374572296378 | etot = -18.751014209114
507000  ekin = 2.26440612500993 |  erot = 2.68367806288698 | epot = -22.7590348722895 | etot = -17.8109506843926
508000  ekin = 2.61389844539954 |  erot = 1.99721145710526 | epot = -22.74057291802 | etot = -18.1294630155152
509000  ekin = 2.86497535107953 |  erot = 2.89724083539383 | epot = -22.7612292090323 | etot = -16.999013022559
510000  ekin = 2.29578429732506 |  erot = 2.79357652989331 | epot = -22.8742717225598 | etot = -17.7849108953414
511000  ekin = 2.92175496177088 |  erot = 2.17801888132103 | epot = -23.0272934650581 | etot = -17.9275196219661
512000  ekin = 2.21161814044742 |  erot = 2.29321541760658 | epot = -23.1056330877545 | etot = -18.6007995297005
513000  ekin = 1.64173624709882 |  erot = 2.88100709001452 | epot = -23.0918115961441 | etot = -18.5690682590307
514000  ekin = 1.63911543595501 |  erot = 2.25644879419951 | epot = -23.0028701310898 | etot = -19.1073059009353
515000  ekin = 1.81551896403223 |  erot = 1.7777357240063 | epot = -22.9120926830134 | etot = -19.3188379949749
516000  ekin = 2.76372530802026 |  erot = 1.5558245098552 | epot = -22.7983047144682 | etot = -18.4787548965928
517000  ekin = 2.30582370180542 |  erot = 2.09958748245503 | epot = -22.7470346269496 | etot = -18.3416234426891
518000  ekin = 1.86418330432711 |  erot = 2.4974208729535 | epot = -22.6484784509305 | etot = -18.2868742736499
519000  ekin = 1.49497258555233 |  erot = 1.63842914152282 | epot = -22.6014742923577 | etot = -19.4680725652825
520000  ekin = 2.10841607672415 |  erot = 1.91191183627132 | epot = -22.6173308292104 | etot = -18.597002916215
521000  ekin = 1.91093348082291 |  erot = 2.07925880440904 | epot = -22.6567432272172 | etot = -18.6665509419853
522000  ekin = 2.65182375935499 |  erot = 2.15548142423173 | epot = -22.6438369136238 | etot = -17.8365317300371
523000  ekin = 2.25930264252768 |  erot = 1.64239259727062 | epot = -22.6253294022494 | etot = -18.7236341624511
524000  ekin = 2.30372766871913 |  erot = 2.12371714570675 | epot = -22.6409251947073 | etot = -18.2134803802814
525000  ekin = 2.12397236082601 |  erot = 2.06916547900274 | epot = -22.7265420934686 | etot = -18.5334042536399
526000  ekin = 2.43790396515343 |  erot = 2.29982095537994 | epot = -22.8219758614985 | etot = -18.0842509409651
527000  ekin = 3.02808067723561 |  erot = 1.79187164231417 | epot = -22.8417733966017 | etot = -18.0218210770519
528000  ekin = 2.59646670409619 |  erot = 2.48584904036086 | epot = -22.7981897964687 | etot = -17.7158740520117
529000  ekin = 2.45272406242915 |  erot = 1.88760348618214 | epot = -22.7107427940118 | etot = -18.3704152454005
530000  ekin = 3.45441440346761 |  erot = 3.28679089340644 | epot = -22.5501481943249 | etot = -15.8089428974509
531000  ekin = 2.57693842800569 |  erot = 2.27790389305737 | epot = -22.3557132436309 | etot = -17.5008709225678
532000  ekin = 2.83173645926259 |  erot = 1.8213880643654 | epot = -22.4274703529717 | etot = -17.7743458293437
533000  ekin = 2.36997073119182 |  erot = 2.08945355002546 | epot = -22.6123520992764 | etot = -18.1529278180591
534000  ekin = 2.57257109931599 |  erot = 2.01726301439314 | epot = -22.7483020739612 | etot = -18.158467960252
535000  ekin = 2.60308771837481 |  erot = 2.06535941947569 | epot = -22.8455361423231 | etot = -18.1770890044726
536000  ekin = 2.55824382433147 |  erot = 1.92646508507963 | epot = -22.8703866745222 | etot = -18.3856777651111
537000  ekin = 1.72608227447866 |  erot = 2.12639399907797 | epot = -22.9788620687226 | etot = -19.126385795166
538000  ekin = 2.1413792027729 |  erot = 2.76313862516515 | epot = -23.0456436903675 | etot = -18.1411258624294
539000  ekin = 2.26247959768505 |  erot = 2.30946863223704 | epot = -23.1225819062541 | etot = -18.550633676332
540000  ekin = 2.41111825623182 |  erot = 1.69936742906455 | epot = -23.1981464879943 | etot = -19.087660802698
541000  ekin = 2.6774444997706 |  erot = 2.50307035937279 | epot = -23.2510684494615 | etot = -18.0705535903181
542000  ekin = 2.77186372641086 |  erot = 2.09468227991447 | epot = -23.2869283144508 | etot = -18.4203823081255
543000  ekin = 2.86842337329678 |  erot = 1.87190704551836 | epot = -23.2498281664778 | etot = -18.5094977476627
544000  ekin = 2.2321772378533 |  erot = 1.5024809581434 | epot = -23.2771134230827 | etot = -19.542455227086
545000  ekin = 1.71119691863762 |  erot = 2.56774238245726 | epot = -23.277255700007 | etot = -18.9983163989121
546000  ekin = 2.41932973677052 |  erot = 1.8535315185976 | epot = -23.3005463676621 | etot = -19.027685112294
547000  ekin = 2.45633435596147 |  erot = 2.43365125460756 | epot = -23.3295820464273 | etot = -18.4395964358583
548000  ekin = 2.38811919638401 |  erot = 2.45676099538133 | epot = -23.36999955548 | etot = -18.5251193637147
549000  ekin = 2.62534824032246 |  erot = 2.10284482232597 | epot = -23.4236623651064 | etot = -18.695469302458
550000  ekin = 1.93948110215118 |  erot = 1.84742932091326 | epot = -23.4483078590916 | etot = -19.6613974360271
551000  ekin = 2.37903634668432 |  erot = 2.07008458283881 | epot = -23.3990845756884 | etot = -18.9499636461652
552000  ekin = 2.66001690739601 |  erot = 1.46574411559078 | epot = -23.2705193599855 | etot = -19.1447583369988
553000  ekin = 1.71008718543916 |  erot = 2.65557277795237 | epot = -23.1206297972463 | etot = -18.7549698338547
554000  ekin = 2.27696834050487 |  erot = 2.41985505714944 | epot = -23.1068947536865 | etot = -18.4100713560322
555000  ekin = 3.33983819455203 |  erot = 1.66629906474562 | epot = -23.1095187419151 | etot = -18.1033814826175
556000  ekin = 2.85799210161215 |  erot = 2.57654726677535 | epot = -23.0179727059999 | etot = -17.5834333376124
557000  ekin = 2.88279901682265 |  erot = 3.15715022366155 | epot = -22.9456694965013 | etot = -16.9057202560171
558000  ekin = 2.9355412844513 |  erot = 2.66098734328802 | epot = -22.8746794541816 | etot = -17.2781508264423
559000  ekin = 2.58338766005815 |  erot = 3.23732327789229 | epot = -22.8716674030229 | etot = -17.0509564650725
560000  ekin = 2.40005088801869 |  erot = 2.39117516246565 | epot = -22.8600933061552 | etot = -18.0688672556708
561000  ekin = 2.05220607385372 |  erot = 2.88956506649181 | epot = -22.7866453096748 | etot = -17.8448741693293
562000  ekin = 2.24061016254908 |  erot = 3.58604987029966 | epot = -22.6532122655787 | etot = -16.82655223273
563000  ekin = 3.22956890193908 |  erot = 2.29786756003781 | epot = -22.6265193533623 | etot = -17.0990828913854
564000  ekin = 2.36733168015321 |  erot = 2.39257558806458 | epot = -22.5697481826172 | etot = -17.8098409143994
565000  ekin = 2.78048770270402 |  erot = 2.19646518750745 | epot = -22.5757496243798 | etot = -17.5987967341683
566000  ekin = 2.36414549147584 |  erot = 2.19825901738832 | epot = -22.5853103986455 | etot = -18.0229058897814
567000  ekin = 2.51918528428742 |  erot = 2.00841662707703 | epot = -22.6486412170556 | etot = -18.1210393056911
568000  ekin = 2.92569797365026 |  erot = 1.96631421918423 | epot = -22.669288684113 | etot = -17.7772764912785
569000  ekin = 3.51767603755687 |  erot = 2.0607738167664 | epot = -22.6794578230173 | etot = -17.1010079686941
570000  ekin = 2.76056292576924 |  erot = 2.36299539743679 | epot = -22.7678914350256 | etot = -17.6443331118196
571000  ekin = 1.96008997311209 |  erot = 2.87245436976437 | epot = -22.7288858418191 | etot = -17.8963414989427
572000  ekin = 2.3424852719602 |  erot = 2.37703389559693 | epot = -22.6983708692194 | etot = -17.9788517016623
573000  ekin = 1.81825853879456 |  erot = 2.32101827223239 | epot = -22.7757845873528 | etot = -18.6365077763259
574000  ekin = 2.31724869073812 |  erot = 2.58666417285682 | epot = -22.8974585815943 | etot = -17.9935457179993
575000  ekin = 2.61138345223248 |  erot = 2.75613764118012 | epot = -23.0310467655492 | etot = -17.6635256721366
576000  ekin = 2.40395999026971 |  erot = 3.28503770514819 | epot = -23.1169303836563 | etot = -17.4279326882384
577000  ekin = 2.61766272689904 |  erot = 2.30328079387445 | epot = -23.168720327508 | etot = -18.2477768067345
578000  ekin = 2.71094975778466 |  erot = 2.31241425321245 | epot = -23.2144214877114 | etot = -18.1910574767143
579000  ekin = 2.79450600763458 |  erot = 1.71942277029397 | epot = -23.2034565459673 | etot = -18.6895277680388
580000  ekin = 2.40252602398883 |  erot = 2.91405859594554 | epot = -23.2660214199906 | etot = -17.9494368000562
581000  ekin = 2.54284652977336 |  erot = 2.61963219579774 | epot = -23.289855981042 | etot = -18.1273772554709
582000  ekin = 2.25575563933864 |  erot = 3.20023412907568 | epot = -23.3049700850473 | etot = -17.848980316633
583000  ekin = 1.76700409864496 |  erot = 2.80805964323758 | epot = -23.3582619111184 | etot = -18.7831981692359
584000  ekin = 1.94026548788633 |  erot = 1.75253493269759 | epot = -23.3980055024499 | etot = -19.7052050818659
585000  ekin = 2.11782654542928 |  erot = 2.12132987306104 | epot = -23.4390161572097 | etot = -19.1998597387194
586000  ekin = 2.01079704557504 |  erot = 2.01223131756095 | epot = -23.3792546815825 | etot = -19.3562263184465
587000  ekin = 3.59259989390999 |  erot = 1.83556977492656 | epot = -23.3163523226119 | etot = -17.8881826537753
588000  ekin = 3.5135649673437 |  erot = 2.25203337889236 | epot = -23.2294127963913 | etot = -17.4638144501553
589000  ekin = 2.68600812424628 |  erot = 3.07371262888985 | epot = -23.1147229295058 | etot = -17.3550021763697
590000  ekin = 1.56154738189097 |  erot = 2.08521834833552 | epot = -22.9720871019525 | etot = -19.325321371726
591000  ekin = 1.72171395721382 |  erot = 1.76198425072012 | epot = -22.9073424686997 | etot = -19.4236442607657
592000  ekin = 2.44487401110621 |  erot = 2.52194851494713 | epot = -22.8763312916551 | etot = -17.9095087656018
593000  ekin = 2.40682938218928 |  erot = 1.74309381204776 | epot = -22.7899539144807 | etot = -18.6400307202436
594000  ekin = 2.01464996324476 |  erot = 2.08315723575428 | epot = -22.7247329868024 | etot = -18.6269257878033
595000  ekin = 2.56881571482067 |  erot = 2.04984693164096 | epot = -22.6651016372782 | etot = -18.0464389908165
596000  ekin = 2.71679105286111 |  erot = 2.16197115436821 | epot = -22.755097899522 | etot = -17.8763356922927
597000  ekin = 3.06947411951294 |  erot = 3.12360558190318 | epot = -22.8029593294055 | etot = -16.6098796279894
598000  ekin = 3.38345194408757 |  erot = 2.80135684058951 | epot = -22.7880530405226 | etot = -16.6032442558456
599000  ekin = 2.21586803727828 |  erot = 3.43716758166175 | epot = -22.6749519445406 | etot = -17.0219163256006
600000  ekin = 2.26305688324464 |  erot = 2.56212752424681 | epot = -22.6730034254274 | etot = -17.847819017936
601000  ekin = 3.03509235343941 |  erot = 2.79442999547383 | epot = -22.734647411921 | etot = -16.9051250630077
602000  ekin = 2.46012998835647 |  erot = 2.40110587465811 | epot = -22.7705277134656 | etot = -17.9092918504511
603000  ekin = 2.09511646975678 |  erot = 2.01544643046261 | epot = -22.8061202896727 | etot = -18.6955573894533
604000  ekin = 2.76324521893373 |  erot = 3.15289679471268 | epot = -22.8385049439267 | etot = -16.9223629302803
605000  ekin = 2.72366015577712 |  erot = 2.07352797157065 | epot = -22.8676553458294 | etot = -18.0704672184816
606000  ekin = 2.97149775086525 |  erot = 2.07191591116779 | epot = -22.8206124387401 | etot = -17.7771987767071
607000  ekin = 2.83077295706936 |  erot = 2.38265933003195 | epot = -22.8253001087221 | etot = -17.6118678216208
608000  ekin = 3.54019275189278 |  erot = 2.48517365800966 | epot = -22.7278107683279 | etot = -16.7024443584254
609000  ekin = 2.52970582403747 |  erot = 2.26599966508194 | epot = -22.7444168160702 | etot = -17.9487113269508
610000  ekin = 2.81167042645134 |  erot = 2.15497701023101 | epot = -22.6645133107222 | etot = -17.6978658740399
611000  ekin = 3.57985806642754 |  erot = 2.20253647328378 | epot = -22.6104106271484 | etot = -16.828016087437
612000  ekin = 2.68170385420386 |  erot = 2.45081251917598 | epot = -22.471342542201 | etot = -17.3388261688212
613000  ekin = 2.71757229329995 |  erot = 2.14737795454944 | epot = -22.3680203451498 | etot = -17.5030700973004
614000  ekin = 2.55862809181612 |  erot = 1.99746275200928 | epot = -22.2762965390528 | etot = -17.7202056952274
615000  ekin = 2.08075469113547 |  erot = 2.39341185440542 | epot = -22.3011176700783 | etot = -17.8269511245374
616000  ekin = 1.61354277850625 |  erot = 2.43758812450685 | epot = -22.3158327862878 | etot = -18.2647018832747
617000  ekin = 2.38385577019387 |  erot = 2.58789161414797 | epot = -22.2927145956816 | etot = -17.3209672113397
618000  ekin = 2.1624637268594 |  erot = 2.70733060219859 | epot = -22.1685487669012 | etot = -17.2987544378432
619000  ekin = 1.97310036817616 |  erot = 2.0547962602342 | epot = -22.1207269794995 | etot = -18.0928303510891
620000  ekin = 3.06444143052193 |  erot = 2.13960832215378 | epot = -22.1985299892613 | etot = -16.9944802365856
621000  ekin = 3.02403064347998 |  erot = 1.58798723824674 | epot = -22.2397822367298 | etot = -17.6277643550031
622000  ekin = 2.24347098065913 |  erot = 2.45040095886604 | epot = -22.1405188109816 | etot = -17.4466468714565
623000  ekin = 2.25975550713651 |  erot = 3.0755918354261 | epot = -22.2269542496338 | etot = -16.8916069070712
624000  ekin = 2.33819395507996 |  erot = 2.60937861621265 | epot = -22.3174411294913 | etot = -17.3698685581987
625000  ekin = 2.71636004079031 |  erot = 2.36906334304018 | epot = -22.4352533757859 | etot = -17.3498299919554
626000  ekin = 2.9942119965515 |  erot = 2.0917334433819 | epot = -22.5831785626996 | etot = -17.4972331227662
627000  ekin = 2.36465546912617 |  erot = 2.29880940109473 | epot = -22.5930517899215 | etot = -17.9295869197006
628000  ekin = 2.44103083874624 |  erot = 2.24980619150817 | epot = -22.4598758964303 | etot = -17.7690388661759
629000  ekin = 2.67555577000719 |  erot = 1.90498139993814 | epot = -22.4530807818355 | etot = -17.8725436118902
630000  ekin = 3.18278532339318 |  erot = 2.40866685485677 | epot = -22.4039686115835 | etot = -16.8125164333336
631000  ekin = 2.34919564608349 |  erot = 3.24565856940496 | epot = -22.3117609529608 | etot = -16.7169067374723
632000  ekin = 2.54148134264909 |  erot = 2.50889060343123 | epot = -22.2166190619896 | etot = -17.1662471159092
633000  ekin = 2.35513489407161 |  erot = 1.92106374481323 | epot = -22.1599130786073 | etot = -17.8837144397225
634000  ekin = 2.33363625948256 |  erot = 2.02664062149114 | epot = -22.1087915256026 | etot = -17.7485146446289
635000  ekin = 2.25809727632839 |  erot = 1.98412308441337 | epot = -22.1231820398472 | etot = -17.8809616791054
636000  ekin = 2.19171937927526 |  erot = 2.77878310684204 | epot = -22.1602782350235 | etot = -17.1897757489062
637000  ekin = 1.8703045872991 |  erot = 2.65338462419176 | epot = -22.2131599703017 | etot = -17.6894707588108
638000  ekin = 2.47448385713562 |  erot = 3.10973171915314 | epot = -22.132557616454 | etot = -16.5483420401652
639000  ekin = 2.46425162293844 |  erot = 2.54301571687772 | epot = -22.1352397370754 | etot = -17.1279723972592
640000  ekin = 2.06779846433502 |  erot = 2.25863096229537 | epot = -22.133324001043 | etot = -17.8068945744126
641000  ekin = 2.51420977029057 |  erot = 3.48147164918116 | epot = -21.9927438976399 | etot = -15.9970624781682
642000  ekin = 3.25941380865491 |  erot = 2.14327037043075 | epot = -21.7909045799795 | etot = -16.3882204008938
643000  ekin = 2.87594068985329 |  erot = 2.39121216686753 | epot = -21.7386708235976 | etot = -16.4715179668768
644000  ekin = 3.05267798445108 |  erot = 1.97223992609541 | epot = -21.711119566455 | etot = -16.6862016559085
645000  ekin = 3.97747533951958 |  erot = 1.90139864023395 | epot = -21.6792365212208 | etot = -15.8003625414672
646000  ekin = 2.26496317498414 |  erot = 1.91347776540779 | epot = -21.3640674775461 | etot = -17.1856265371542
647000  ekin = 2.25705976321773 |  erot = 2.2251704333087 | epot = -21.3285955088783 | etot = -16.8463653123519
648000  ekin = 2.74309332773773 |  erot = 2.0378086612431 | epot = -21.2864426418472 | etot = -16.5055406528664
649000  ekin = 2.57232273667561 |  erot = 3.24406603038167 | epot = -21.3469631466195 | etot = -15.5305743795622
650000  ekin = 3.83179275274753 |  erot = 2.40786911548917 | epot = -21.2974237047639 | etot = -15.0577618365272
651000  ekin = 3.25129824842764 |  erot = 2.3456807410208 | epot = -21.0203220361447 | etot = -15.4233430466963
652000  ekin = 2.41590253204401 |  erot = 3.05060759968443 | epot = -20.8939361982151 | etot = -15.4274260664867
653000  ekin = 2.62377947105273 |  erot = 2.51240843564757 | epot = -20.9294198091069 | etot = -15.7932319024066
654000  ekin = 2.13444982651012 |  erot = 2.09073998631798 | epot = -21.0247321954783 | etot = -16.7995423826502
655000  ekin = 2.202354526925 |  erot = 2.12835098574131 | epot = -21.000829732842 | etot = -16.6701242201757
656000  ekin = 2.33600625780253 |  erot = 2.1766597109209 | epot = -21.0590412514054 | etot = -16.546375282682
657000  ekin = 2.6711126705092 |  erot = 2.24230059614119 | epot = -21.3259587695329 | etot = -16.4125455028825
658000  ekin = 2.99877302889965 |  erot = 2.59461044654234 | epot = -21.5172653324986 | etot = -15.9238818570566
659000  ekin = 2.86774927143017 |  erot = 3.48828507663091 | epot = -21.6109018237552 | etot = -15.2548674756941
660000  ekin = 2.86378650292104 |  erot = 1.65327844848683 | epot = -21.6743833926933 | etot = -17.1573184412855
661000  ekin = 3.09229324206611 |  erot = 1.94689884834588 | epot = -21.8421996475346 | etot = -16.8030075571227
662000  ekin = 2.95196828682346 |  erot = 2.18327735810374 | epot = -21.96201415181 | etot = -16.8267685068828
663000  ekin = 1.86224125109761 |  erot = 2.47490508426981 | epot = -22.0091469965445 | etot = -17.6720006611771
664000  ekin = 1.34645871601273 |  erot = 1.40181825710943 | epot = -22.099550122817 | etot = -19.3512731496949
665000  ekin = 1.54086083567109 |  erot = 2.26752810662201 | epot = -22.1775292519906 | etot = -18.3691403096975
666000  ekin = 2.3971461869084 |  erot = 1.80649660410513 | epot = -22.3452668816492 | etot = -18.1416240906357
667000  ekin = 2.70329046065599 |  erot = 2.33697159708628 | epot = -22.5261519229475 | etot = -17.4858898652053
668000  ekin = 2.69270891599371 |  erot = 3.21663072261303 | epot = -22.6108951280334 | etot = -16.7015554894266
669000  ekin = 3.26366331637589 |  erot = 2.47780525067578 | epot = -22.6371109703962 | etot = -16.8956424033446
[...]
835000  ekin = 3.13052802424278 |  erot = 2.68210081301249 | epot = -22.9108986196225 | etot = -17.0982697823672
836000  ekin = 3.52104314547503 |  erot = 2.43739820118941 | epot = -22.9981528916883 | etot = -17.0397115450239
837000  ekin = 2.81985841305079 |  erot = 2.32650463087546 | epot = -23.0400795319283 | etot = -17.893716488002
838000  ekin = 3.14457190933825 |  erot = 3.26449617916706 | epot = -23.1196717471889 | etot = -16.7106036586835
839000  ekin = 2.6861896267839 |  erot = 2.65838004499048 | epot = -23.1057219232199 | etot = -17.7611522514455
840000  ekin = 3.01873082502292 |  erot = 1.44910664877088 | epot = -23.0542488587295 | etot = -18.5864113849357
841000  ekin = 3.06939336931954 |  erot = 2.63005081141862 | epot = -23.0227410130703 | etot = -17.3232968323321
842000  ekin = 2.18565434605535 |  erot = 2.24001863402731 | epot = -22.9832017705646 | etot = -18.5575287904819
843000  ekin = 2.73251560030252 |  erot = 2.01591418608789 | epot = -22.9391156767627 | etot = -18.1906858903723
844000  ekin = 2.91813250269817 |  erot = 1.48453992899058 | epot = -22.9619604579598 | etot = -18.5592880262711
845000  ekin = 3.17117745957526 |  erot = 2.27708784811455 | epot = -22.999971312918 | etot = -17.5517060052282
846000  ekin = 3.4724357728036 |  erot = 2.57364719299794 | epot = -23.0705385629544 | etot = -17.0244555971528
847000  ekin = 2.43312472995496 |  erot = 2.78729468761459 | epot = -23.165124390255 | etot = -17.9447049726854
848000  ekin = 2.77980890707909 |  erot = 2.74425099280091 | epot = -23.129120909254 | etot = -17.605061009374
849000  ekin = 2.11951391513891 |  erot = 2.59015678258535 | epot = -23.0413083826587 | etot = -18.3316376849345
850000  ekin = 2.08954023083554 |  erot = 1.83903618469154 | epot = -23.0637818727023 | etot = -19.1352054571752
851000  ekin = 2.04544841945237 |  erot = 1.89747078963774 | epot = -23.0992392759841 | etot = -19.156320066894
852000  ekin = 1.72638953261221 |  erot = 1.41079492729173 | epot = -23.0621078086503 | etot = -19.9249233487463
853000  ekin = 2.06468008570653 |  erot = 3.03109818907536 | epot = -23.0774060494821 | etot = -17.9816277747002
854000  ekin = 3.10239227479846 |  erot = 2.20478698673756 | epot = -23.1379256799872 | etot = -17.8307464184512
855000  ekin = 2.33447486933046 |  erot = 2.81993849912231 | epot = -23.1566227536433 | etot = -18.0022093851905
856000  ekin = 2.47770284214495 |  erot = 1.48695239817713 | epot = -23.1262447594795 | etot = -19.1615895191574
857000  ekin = 2.49425862045931 |  erot = 2.858716115723 | epot = -22.95978544921 | etot = -17.6068107130277
858000  ekin = 2.22586972435712 |  erot = 2.87437219342226 | epot = -22.9142061474069 | etot = -17.8139642296275
859000  ekin = 2.2995306754336 |  erot = 2.3443104719427 | epot = -22.9348469842536 | etot = -18.2910058368773
860000  ekin = 2.01059391187472 |  erot = 1.94183434024011 | epot = -22.9414855285839 | etot = -18.9890572764691
861000  ekin = 2.76098784390798 |  erot = 2.20316010120771 | epot = -22.8988547632615 | etot = -17.9347068181458
862000  ekin = 2.87267125760612 |  erot = 2.38976094448083 | epot = -22.8921902728553 | etot = -17.6297580707684
863000  ekin = 2.69106502053516 |  erot = 3.30096161917122 | epot = -22.8013752155728 | etot = -16.8093485758665
864000  ekin = 3.07676663360603 |  erot = 2.30379025339954 | epot = -22.7422255937423 | etot = -17.3616687067367
865000  ekin = 2.12423436721288 |  erot = 2.14925771768692 | epot = -22.7064602449918 | etot = -18.432968160092
866000  ekin = 2.03646006018874 |  erot = 1.63013923783576 | epot = -22.656209510432 | etot = -18.9896102124075
867000  ekin = 1.73780801284281 |  erot = 3.39621359427259 | epot = -22.5669784933947 | etot = -17.4329568862793
868000  ekin = 1.82159363024104 |  erot = 2.78512602419512 | epot = -22.6017013840408 | etot = -17.9949817296046
869000  ekin = 2.37864140453544 |  erot = 2.30715449238304 | epot = -22.6630872594775 | etot = -17.977291362559
870000  ekin = 1.90106757708103 |  erot = 3.22653747160212 | epot = -22.6651149156473 | etot = -17.5375098669642
871000  ekin = 2.95621788827233 |  erot = 3.00244303991603 | epot = -22.6008286469628 | etot = -16.6421677187744
872000  ekin = 2.88095695943895 |  erot = 1.36042121165232 | epot = -22.4879823093376 | etot = -18.2466041382463
873000  ekin = 2.70217168413242 |  erot = 2.23164344855198 | epot = -22.3839435629008 | etot = -17.4501284302163
874000  ekin = 2.42383357448094 |  erot = 2.08165062985835 | epot = -22.2631715668893 | etot = -17.75768736255
875000  ekin = 2.93584641188084 |  erot = 2.6962822426631 | epot = -22.2149547575255 | etot = -16.5828261029815
876000  ekin = 1.98471636243519 |  erot = 2.20601395337249 | epot = -22.136300165444 | etot = -17.9455698496363
877000  ekin = 1.68606589103179 |  erot = 1.5835330131213 | epot = -22.0207090584709 | etot = -18.7511101543178
878000  ekin = 1.89735916023665 |  erot = 2.74511636432421 | epot = -21.9840494337017 | etot = -17.3415739091409
879000  ekin = 1.31124034746515 |  erot = 2.12269826072871 | epot = -21.8475379693304 | etot = -18.4135993611365
880000  ekin = 1.96277752106895 |  erot = 2.59847253833695 | epot = -21.7434536351172 | etot = -17.1822035757113
881000  ekin = 1.53100783417473 |  erot = 2.0160339500413 | epot = -21.7640064228462 | etot = -18.2169646386302
882000  ekin = 2.24029073085294 |  erot = 2.67091798411818 | epot = -21.9184338533155 | etot = -17.0072251383444
883000  ekin = 2.26875336721088 |  erot = 2.22132601397822 | epot = -22.0015548455589 | etot = -17.5114754643698
884000  ekin = 2.71954555741699 |  erot = 2.11237325880792 | epot = -22.0896950737382 | etot = -17.2577762575133
885000  ekin = 2.05378808765987 |  erot = 1.80694148389829 | epot = -22.1866226251382 | etot = -18.3258930535801
886000  ekin = 2.11216096762889 |  erot = 3.0875153368545 | epot = -22.2431847037331 | etot = -17.0435083992497
887000  ekin = 2.13063380640557 |  erot = 2.82429830615904 | epot = -22.3203506618543 | etot = -17.3654185492897
888000  ekin = 2.01976464159679 |  erot = 2.34512508942521 | epot = -22.4418187243404 | etot = -18.0769289933184
889000  ekin = 2.04613386228319 |  erot = 2.48157233009765 | epot = -22.6140254820745 | etot = -18.0863192896936
890000  ekin = 1.84097818288292 |  erot = 2.25506863129802 | epot = -22.7199084274412 | etot = -18.6238616132603
891000  ekin = 2.57742612527653 |  erot = 2.33036820077371 | epot = -22.8169306222347 | etot = -17.9091362961845
892000  ekin = 2.73512462303262 |  erot = 2.71569003903109 | epot = -22.9041186626636 | etot = -17.4533040005999
893000  ekin = 2.26960259280464 |  erot = 2.95412067361297 | epot = -22.8947142423753 | etot = -17.6709909759577
894000  ekin = 2.60694658514157 |  erot = 2.43948810871693 | epot = -22.8800669509705 | etot = -17.833632257112
895000  ekin = 2.59087756044815 |  erot = 2.41923097305639 | epot = -22.8861163381771 | etot = -17.8760078046725
896000  ekin = 1.9526857076209 |  erot = 2.84350749588447 | epot = -22.903632746902 | etot = -18.1074395433966
897000  ekin = 2.41553408974343 |  erot = 2.04049242794997 | epot = -22.8731113448855 | etot = -18.4170848271921
898000  ekin = 2.13126716552899 |  erot = 1.92124681999528 | epot = -22.7994123440945 | etot = -18.7468983585703
899000  ekin = 2.61509318973576 |  erot = 2.2998934511948 | epot = -22.7033253581121 | etot = -17.7883387171815
900000  ekin = 2.10446649420261 |  erot = 2.24186557983126 | epot = -22.7081882982587 | etot = -18.3618562242249
901000  ekin = 1.92329763962947 |  erot = 1.85162077343096 | epot = -22.7465901091794 | etot = -18.971671696119
902000  ekin = 2.6200427771083 |  erot = 2.50437054492559 | epot = -22.7450607301169 | etot = -17.620647408083
903000  ekin = 1.93148151691849 |  erot = 2.18687979055035 | epot = -22.6862637464307 | etot = -18.5679024389618
904000  ekin = 1.8307580030862 |  erot = 2.30537069200128 | epot = -22.6552552701273 | etot = -18.5191265750398
905000  ekin = 2.24746627263623 |  erot = 2.17293044305206 | epot = -22.6084987468415 | etot = -18.1881020311532
906000  ekin = 2.43591648216237 |  erot = 2.22275796022305 | epot = -22.6344515372009 | etot = -17.9757770948155
907000  ekin = 4.03582310671437 |  erot = 2.44542097852839 | epot = -22.6361226668922 | etot = -16.1548785816494
908000  ekin = 3.17365090611248 |  erot = 2.11565973231871 | epot = -22.7196240813384 | etot = -17.4303134429072
909000  ekin = 2.53798141254509 |  erot = 1.94194922950626 | epot = -22.8016332315932 | etot = -18.3217025895418
910000  ekin = 2.54152983921893 |  erot = 2.96024290241447 | epot = -22.9088612141354 | etot = -17.407088472502
911000  ekin = 2.58004882531602 |  erot = 4.38722720230567 | epot = -22.9868663556721 | etot = -16.0195903280504
912000  ekin = 2.94431479113461 |  erot = 3.76088706758394 | epot = -23.0096493084831 | etot = -16.3044474497646
913000  ekin = 2.76856376514736 |  erot = 2.16951669222107 | epot = -22.9435590803834 | etot = -18.005478623015
914000  ekin = 2.14816596943971 |  erot = 1.25461731703692 | epot = -22.8556265939255 | etot = -19.4528433074489
915000  ekin = 1.65337712911422 |  erot = 2.97649905619131 | epot = -22.7844308096627 | etot = -18.1545546243572
916000  ekin = 2.59066964630674 |  erot = 3.72132759780964 | epot = -22.837588315177 | etot = -16.5255910710607
917000  ekin = 3.02532902984165 |  erot = 2.86514296524885 | epot = -22.8796850724815 | etot = -16.989213077391
918000  ekin = 2.91563352180071 |  erot = 2.62844695572835 | epot = -22.8964735070179 | etot = -17.3523930294889
919000  ekin = 3.22337025417798 |  erot = 2.71179936865262 | epot = -22.8511878010736 | etot = -16.916018178243
920000  ekin = 2.29625369352245 |  erot = 2.34729665918346 | epot = -22.7557601694897 | etot = -18.1122098167838
921000  ekin = 2.43339035816356 |  erot = 2.44714792162782 | epot = -22.7680736538639 | etot = -17.8875353740725
922000  ekin = 2.34376469902201 |  erot = 2.40301730257242 | epot = -22.7183470592719 | etot = -17.9715650576774
923000  ekin = 2.62174380775093 |  erot = 2.6981869492758 | epot = -22.7183217536447 | etot = -17.3983909966179
924000  ekin = 1.64782255989223 |  erot = 3.06550635955185 | epot = -22.8016490436732 | etot = -18.0883201242291
925000  ekin = 1.98166408981292 |  erot = 1.98582607173284 | epot = -22.8008913117711 | etot = -18.8334011502253
926000  ekin = 1.51788520824047 |  erot = 2.13924728303102 | epot = -22.8108893241732 | etot = -19.1537568329017
927000  ekin = 2.6378951041014 |  erot = 2.11457622254362 | epot = -22.8655920592515 | etot = -18.1131207326065
928000  ekin = 2.10732754132022 |  erot = 2.80245588524026 | epot = -22.9449211702393 | etot = -18.0351377436788
929000  ekin = 1.82165596814515 |  erot = 1.82625686407441 | epot = -23.0221832896074 | etot = -19.3742704573878
930000  ekin = 2.10197526929243 |  erot = 2.12328222370317 | epot = -23.0165375249105 | etot = -18.7912800319149
931000  ekin = 2.71390593236014 |  erot = 1.85762756682868 | epot = -22.9354876580417 | etot = -18.3639541588529
932000  ekin = 2.91300879724626 |  erot = 2.33797667895844 | epot = -22.9653523762994 | etot = -17.7143669000947
933000  ekin = 3.12001982572293 |  erot = 2.61974462984141 | epot = -22.95779800613 | etot = -17.2180335505657
934000  ekin = 3.07298284588879 |  erot = 2.55384496415872 | epot = -22.9393961290098 | etot = -17.3125683189623
935000  ekin = 2.86140803675896 |  erot = 2.15305581461647 | epot = -22.9005510089599 | etot = -17.8860871575845
936000  ekin = 3.10447014026505 |  erot = 2.07002637759974 | epot = -22.8872557949896 | etot = -17.7127592771248
937000  ekin = 3.29608196903436 |  erot = 2.34229698599409 | epot = -22.8354989757895 | etot = -17.197120020761
938000  ekin = 3.27889476838977 |  erot = 2.38961084479404 | epot = -22.8346867595713 | etot = -17.1661811463875
939000  ekin = 2.8156704816064 |  erot = 2.28837144703769 | epot = -22.8874430970439 | etot = -17.7834011683998
940000  ekin = 2.63928464316572 |  erot = 2.76615395501026 | epot = -22.8310735331723 | etot = -17.4256349349963
941000  ekin = 2.22117645616927 |  erot = 2.61909785695961 | epot = -22.70693737419 | etot = -17.8666630610611
942000  ekin = 1.92536939362094 |  erot = 2.82626149388576 | epot = -22.6081285248911 | etot = -17.8564976373844
943000  ekin = 2.48422680686619 |  erot = 2.3307944021849 | epot = -22.5875706161658 | etot = -17.7725494071147
944000  ekin = 2.15611324056113 |  erot = 1.93703987854762 | epot = -22.5432256918105 | etot = -18.4500725727017
945000  ekin = 2.53293157468743 |  erot = 2.145723909363 | epot = -22.5505140115514 | etot = -17.871858527501
946000  ekin = 2.25806852354773 |  erot = 2.93680737227937 | epot = -22.5270010570778 | etot = -17.3321251612507
947000  ekin = 2.02783787301424 |  erot = 1.91342389253518 | epot = -22.5378266218654 | etot = -18.5965648563159
948000  ekin = 1.8677510610423 |  erot = 1.39509511853552 | epot = -22.5573933659301 | etot = -19.2945471863523
949000  ekin = 1.78468697825535 |  erot = 2.31622854742384 | epot = -22.5513554566633 | etot = -18.4504399309841
950000  ekin = 1.66749588493908 |  erot = 2.25506770394215 | epot = -22.4755539504497 | etot = -18.5529903615685
951000  ekin = 1.97887089548942 |  erot = 2.24836796767239 | epot = -22.383845779678 | etot = -18.1566069165161
952000  ekin = 2.94715467844381 |  erot = 2.62996289614105 | epot = -22.2680330774568 | etot = -16.6909155028719
953000  ekin = 3.10878626774107 |  erot = 2.43618540463798 | epot = -22.2781196102306 | etot = -16.7331479378516
954000  ekin = 3.26596643296825 |  erot = 2.01695068416039 | epot = -22.3852976832186 | etot = -17.10238056609
955000  ekin = 3.20311416862626 |  erot = 2.15861370224327 | epot = -22.3529263837009 | etot = -16.9911985128314
956000  ekin = 2.88071161483913 |  erot = 3.75672821154635 | epot = -22.3256252357926 | etot = -15.6881854094071
957000  ekin = 3.04860307081162 |  erot = 2.72098204599719 | epot = -22.2608578391613 | etot = -16.4912727223525
958000  ekin = 2.63857811962865 |  erot = 3.01308980036845 | epot = -22.2191016476047 | etot = -16.5674337276076
959000  ekin = 1.79250754320074 |  erot = 2.52871802094732 | epot = -22.181697573997 | etot = -17.8604720098489
960000  ekin = 1.30554824034779 |  erot = 3.1440957118234 | epot = -22.1835434153494 | etot = -17.7338994631782
961000  ekin = 1.90105151531044 |  erot = 2.12463022080679 | epot = -22.1585481344396 | etot = -18.1328663983224
962000  ekin = 1.85590973886449 |  erot = 1.90819146163217 | epot = -22.1233736960162 | etot = -18.3592724955195
963000  ekin = 1.7402499380611 |  erot = 2.4790061773244 | epot = -22.1482044607283 | etot = -17.9289483453428
964000  ekin = 2.5259553604466 |  erot = 2.44726672164056 | epot = -22.1632443542113 | etot = -17.1900222721242
965000  ekin = 2.29816861353706 |  erot = 2.2743260715945 | epot = -22.1183582479081 | etot = -17.5458635627766
966000  ekin = 2.00089864347281 |  erot = 2.28558469453963 | epot = -22.1161309450056 | etot = -17.8296476069931
967000  ekin = 1.3988038354184 |  erot = 3.56321119211775 | epot = -22.1185680267376 | etot = -17.1565529992014
968000  ekin = 1.8623986649619 |  erot = 2.36480391721075 | epot = -22.0553413242824 | etot = -17.8281387421098
969000  ekin = 2.35643521729539 |  erot = 2.51439862295238 | epot = -22.0402695066621 | etot = -17.1694356664143
970000  ekin = 1.98850482835675 |  erot = 2.98759647291101 | epot = -22.09493131996 | etot = -17.1188300186922
971000  ekin = 1.90556468230851 |  erot = 3.13525656856133 | epot = -22.1109126124924 | etot = -17.0700913616226
972000  ekin = 1.83218387415771 |  erot = 2.59641294228582 | epot = -22.0667712470463 | etot = -17.6381744306028
973000  ekin = 2.06544155919693 |  erot = 2.92375363361974 | epot = -22.0143516281548 | etot = -17.0251564353381
974000  ekin = 2.29375449209908 |  erot = 2.74376574443149 | epot = -21.891215167229 | etot = -16.8536949306985
975000  ekin = 3.15788951853557 |  erot = 2.37939212100529 | epot = -21.8369639259385 | etot = -16.2996822863976
976000  ekin = 2.75086620720277 |  erot = 3.09212659776188 | epot = -21.8026141284476 | etot = -15.959621323483
977000  ekin = 2.61617465492127 |  erot = 2.50763935471601 | epot = -21.705085438222 | etot = -16.5812714285848
978000  ekin = 1.69911453876209 |  erot = 2.12438483899308 | epot = -21.6861751783312 | etot = -17.862675800576
979000  ekin = 1.95664932402038 |  erot = 2.24925907422895 | epot = -21.6947866164022 | etot = -17.4888782181528
980000  ekin = 2.04439306402508 |  erot = 1.56678346385592 | epot = -21.6715392095838 | etot = -18.0603626817028
981000  ekin = 1.67005966413112 |  erot = 2.0250040382006 | epot = -21.7394400560948 | etot = -18.0443763537631
982000  ekin = 2.04326874294207 |  erot = 2.01397480467019 | epot = -21.9162458202055 | etot = -17.8590022725932
983000  ekin = 2.82431820675729 |  erot = 1.79112385135683 | epot = -21.9580632173172 | etot = -17.3426211592031
984000  ekin = 3.51701800745218 |  erot = 2.68809692828788 | epot = -21.9369338493256 | etot = -15.7318189135855
985000  ekin = 2.79640074396876 |  erot = 2.17238958464038 | epot = -22.0207193727123 | etot = -17.0519290441032
986000  ekin = 2.78593545749883 |  erot = 2.15644731799685 | epot = -22.0885129164267 | etot = -17.146130140931
987000  ekin = 3.50596768397896 |  erot = 2.54584708090074 | epot = -22.1758271261352 | etot = -16.1240123612555
988000  ekin = 3.58282091335428 |  erot = 3.29585173421708 | epot = -22.1663236192216 | etot = -15.2876509716502
989000  ekin = 2.73936716162175 |  erot = 2.25687925276791 | epot = -22.2752262249873 | etot = -17.2789798105977
990000  ekin = 2.59451152361348 |  erot = 1.85987210169682 | epot = -22.2579479186301 | etot = -17.8035642933199
991000  ekin = 2.94839563135165 |  erot = 3.24461315759379 | epot = -22.1271881967103 | etot = -15.9341794077648
992000  ekin = 3.19348547199164 |  erot = 2.64464649706724 | epot = -21.9439920508806 | etot = -16.1058600818218
993000  ekin = 2.97012376673209 |  erot = 2.28580493420245 | epot = -21.8755564357454 | etot = -16.6196277348109
994000  ekin = 3.1030405376266 |  erot = 2.8856080101407 | epot = -21.8337508528824 | etot = -15.8451023051151
995000  ekin = 3.12321181609586 |  erot = 1.75540110702628 | epot = -21.7525107110581 | etot = -16.8738977879359
996000  ekin = 3.00075350455672 |  erot = 3.23675815711844 | epot = -21.7708292277208 | etot = -15.5333175660456
997000  ekin = 2.94869745089837 |  erot = 3.17856308426266 | epot = -21.6948561939914 | etot = -15.5675956588304
998000  ekin = 3.04562305281377 |  erot = 1.98587028139238 | epot = -21.6804753264347 | etot = -16.6489819922286
999000  ekin = 2.17499522596666 |  erot = 2.71348219358491 | epot = -21.6543851775914 | etot = -16.7659077580399
1000000  ekin = 2.20427422562126 |  erot = 2.08373054976406 | epot = -21.5713824181713 | etot = -17.283377642786
 1000000  0.097967743   -1.4316734   0.08346204   -1.2104443 -0.00013804324 
Loop time of 69.205 on 1 procs for 1000000 steps with 16 atoms

Performance: 12484.644 tau/day, 14449.819 timesteps/s
99.5% CPU use with 1 MPI tasks x 1 OpenMP threads

MPI task timing breakdown:
Section |  min time  |  avg time  |  max time  |%varavg| %total
---------------------------------------------------------------
Pair    | 50.984     | 50.984     | 50.984     |   0.0 | 73.67
Bond    | 1.1222     | 1.1222     | 1.1222     |   0.0 |  1.62
Neigh   | 0          | 0          | 0          |   0.0 |  0.00
Comm    | 0.30037    | 0.30037    | 0.30037    |   0.0 |  0.43
Output  | 0.15468    | 0.15468    | 0.15468    |   0.0 |  0.22
Modify  | 16.064     | 16.064     | 16.064     |   0.0 | 23.21
Other   |            | 0.5797     |            |       |  0.84

Nlocal:    16 ave 16 max 16 min
Histogram: 1 0 0 0 0 0 0 0 0 0
Nghost:    0 ave 0 max 0 min
Histogram: 1 0 0 0 0 0 0 0 0 0
Neighs:    94 ave 94 max 94 min
Histogram: 1 0 0 0 0 0 0 0 0 0

Total # of neighbors = 94
Ave neighs/atom = 5.875
Ave special neighs/atom = 3.75
Neighbor list builds = 0
Dangerous builds = 0

#write_restart config.${number}.*
Total wall time: 0:01:09
