LAMMPS (9 Jan 2017)
  using 1 OpenMP thread(s) per MPI task
variable number	equal 2
variable ofreq	equal 1000
variable efreq	equal 1000

units lj

dimension 3

newton off

boundary  p p p

atom_style hybrid bond ellipsoid
atom_modify sort 0 1.0

# Pair interactions require lists of neighbours to be calculated
neighbor 1.0 bin
neigh_modify every 1 delay 0 check yes

read_data data.duplex2
  orthogonal box = (-20 -20 -20) to (20 20 20)
  1 by 2 by 2 MPI processor grid
  reading atoms ...
  16 atoms
  reading velocities ...
  16 velocities
  16 ellipsoids
  scanning bonds ...
  2 = max bonds/atom
  reading bonds ...
  13 bonds
  2 = max # of 1-2 neighbors
  2 = max # of 1-3 neighbors
  4 = max # of 1-4 neighbors
  6 = max # of special neighbors

set atom * mass 3.1575
  16 settings made for mass

group all type 1 4
16 atoms in group all

# oxDNA bond interactions - FENE backbone
bond_style oxdna_fene
bond_coeff * 2.0 0.25 0.7525

# oxDNA pair interactions
pair_style hybrid/overlay oxdna_excv oxdna_stk oxdna_hbond oxdna_xstk oxdna_coaxstk
pair_coeff * * oxdna_excv   2.0 0.7 0.675 2.0 0.515 0.5 2.0 0.33 0.32
pair_coeff * * oxdna_stk    1.61048 6.0 0.4 0.9 0.32 0.6 1.3 0 0.8 0.9 0 0.95 0.9 0 0.95 2.0 0.65 2.0 0.65
pair_coeff * * oxdna_hbond  0.0   8.0 0.4 0.75 0.34 0.7 1.5 0 0.7 1.5 0 0.7 1.5 0 0.7 0.46 3.141592653589793 0.7 4.0 1.5707963267948966 0.45 4.0 1.5707963267948966 0.45
pair_coeff 1 4 oxdna_hbond  1.077 8.0 0.4 0.75 0.34 0.7 1.5 0 0.7 1.5 0 0.7 1.5 0 0.7 0.46 3.141592653589793 0.7 4.0 1.5707963267948966 0.45 4.0 1.5707963267948966 0.45
pair_coeff 2 3 oxdna_hbond  1.077 8.0 0.4 0.75 0.34 0.7 1.5 0 0.7 1.5 0 0.7 1.5 0 0.7 0.46 3.141592653589793 0.7 4.0 1.5707963267948966 0.45 4.0 1.5707963267948966 0.45
pair_coeff * * oxdna_xstk   47.5 0.575 0.675 0.495 0.655 2.25 0.791592653589793 0.58 1.7 1.0 0.68 1.7 1.0 0.68 1.5 0 0.65 1.7 0.875 0.68 1.7 0.875 0.68
pair_coeff * * oxdna_coaxstk 46.0 0.4 0.6 0.22 0.58 2.0 2.541592653589793 0.65 1.3 0 0.8 0.9 0 0.95 0.9 0 0.95 2.0 -0.65 2.0 -0.65

# NVE ensemble
fix 1 all   nve/dotc/langevin 0.1 0.1 0.03 457145 angmom 10
#fix 1 all   nve/dot

timestep 1e-5

#comm_style tiled
#fix 3 all balance 10000 1.1 rcb

#compute mol all chunk/atom molecule
#compute mychunk all vcm/chunk mol
#fix 4 all ave/time 10000 1 10000 c_mychunk[1] c_mychunk[2] c_mychunk[3] file vcm.txt mode vector

dump pos all xyz ${ofreq} traj.${number}.xyz
dump pos all xyz 1000 traj.${number}.xyz
dump pos all xyz 1000 traj.2.xyz

compute quat all property/atom quatw quati quatj quatk
dump quat all custom ${ofreq} quat.${number}.txt id c_quat[1] c_quat[2] c_quat[3] c_quat[4]
dump quat all custom 1000 quat.${number}.txt id c_quat[1] c_quat[2] c_quat[3] c_quat[4]
dump quat all custom 1000 quat.2.txt id c_quat[1] c_quat[2] c_quat[3] c_quat[4]
dump_modify quat sort id
dump_modify quat format line "%d  %13.6le  %13.6le  %13.6le  %13.6le"

compute erot all erotate/asphere
compute ekin all ke
compute epot all pe
variable erot equal c_erot
variable ekin equal c_ekin
variable epot equal c_epot
variable etot equal c_erot+c_ekin+c_epot
fix 5 all print ${efreq} "$(step)  ekin = ${ekin} |  erot = ${erot} | epot = ${epot} | etot = ${etot}" screen yes
fix 5 all print 1000 "$(step)  ekin = ${ekin} |  erot = ${erot} | epot = ${epot} | etot = ${etot}" screen yes

dump out all custom ${ofreq} out.${number}.txt id x y z vx vy vz fx fy fz tqx tqy tqz
dump out all custom 1000 out.${number}.txt id x y z vx vy vz fx fy fz tqx tqy tqz
dump out all custom 1000 out.2.txt id x y z vx vy vz fx fy fz tqx tqy tqz
dump_modify out sort id
dump_modify out format line "%d   %13.6le %13.6le %13.6le  %13.6le %13.6le %13.6le  %13.6le %13.6le %13.6le  %13.6le %13.6le %13.6le"

run 1000000
Neighbor list info ...
  update every 1 steps, delay 0 steps, check yes
  max neighbors/atom: 2000, page size: 100000
  master list distance cutoff = 1.92828
  ghost atom cutoff = 1.92828
  binsize = 0.964142, bins = 42 42 42
  5 neighbor lists, perpetual/occasional/extra = 5 0 0
  (1) pair oxdna_excv, perpetual
      pair build: half/bin/newtoff
      stencil: half/bin/3d/newtoff
      bin: standard
  (2) pair oxdna_stk, perpetual, copy from (1)
      pair build: copy
      stencil: none
      bin: none
  (3) pair oxdna_hbond, perpetual, copy from (1)
      pair build: copy
      stencil: none
      bin: none
  (4) pair oxdna_xstk, perpetual, copy from (1)
      pair build: copy
      stencil: none
      bin: none
  (5) pair oxdna_coaxstk, perpetual, copy from (1)
      pair build: copy
      stencil: none
      bin: none
Memory usage per processor = 11.5141 Mbytes
Step Temp E_pair E_mol TotEng Press 
       0            0   -1.5235228  0.036645354   -1.4868774 0.00013522356 
1000  ekin = 1.33333986561166 |  erot = 2.21551921434226 | epot = -23.7128795378371 | etot = -20.1640204578832
2000  ekin = 2.47872806519156 |  erot = 1.78091830769574 | epot = -23.8118973060098 | etot = -19.5522509331225
3000  ekin = 3.10457157633386 |  erot = 2.11473895110931 | epot = -23.8171326195533 | etot = -18.5978220921102
4000  ekin = 1.97533486989573 |  erot = 1.82413494724198 | epot = -23.7876607351855 | etot = -19.9881909180478
5000  ekin = 2.33772742403078 |  erot = 2.97039064679945 | epot = -23.7787570225372 | etot = -18.470638951707
6000  ekin = 2.80151144073969 |  erot = 2.07569664719765 | epot = -23.7416047025646 | etot = -18.8643966146272
7000  ekin = 2.74659734327563 |  erot = 2.12310955222462 | epot = -23.611220461334 | etot = -18.7415135658338
8000  ekin = 3.22738182960282 |  erot = 2.20359707020744 | epot = -23.4477039615341 | etot = -18.0167250617239
9000  ekin = 2.4714234845044 |  erot = 1.44403109892592 | epot = -23.230905248065 | etot = -19.3154506646347
10000  ekin = 2.04423137199236 |  erot = 1.77146335451124 | epot = -23.0458664402276 | etot = -19.230171713724
11000  ekin = 1.79573380852004 |  erot = 1.73051391506083 | epot = -22.9722663204542 | etot = -19.4460185968734
12000  ekin = 2.26972763138039 |  erot = 3.42081868094688 | epot = -22.94784543489 | etot = -17.2572991225627
13000  ekin = 1.67996644879705 |  erot = 2.57786745209806 | epot = -22.943004517482 | etot = -18.6851706165869
14000  ekin = 2.09197584451333 |  erot = 1.93420171005162 | epot = -22.9967448501763 | etot = -18.9705672956114
15000  ekin = 3.26442353489872 |  erot = 2.59540646057585 | epot = -22.9343221274754 | etot = -17.0744921320008
16000  ekin = 3.38132798835677 |  erot = 2.27049293408811 | epot = -22.8874596793303 | etot = -17.2356387568854
17000  ekin = 2.63369808667697 |  erot = 2.1213041654445 | epot = -22.8217152191866 | etot = -18.0667129670652
18000  ekin = 2.32318576625912 |  erot = 3.01121238636558 | epot = -22.7882118931315 | etot = -17.4538137405068
19000  ekin = 2.13073879089752 |  erot = 2.80810889985894 | epot = -22.7544393459678 | etot = -17.8155916552114
20000  ekin = 2.24376730330068 |  erot = 2.4077530068947 | epot = -22.6674536627042 | etot = -18.0159333525088
21000  ekin = 1.88922750041671 |  erot = 2.19977098878923 | epot = -22.6300438294423 | etot = -18.5410453402363
22000  ekin = 2.06425072551592 |  erot = 1.56214366569374 | epot = -22.5000102042334 | etot = -18.8736158130238
23000  ekin = 1.56809496584854 |  erot = 1.40977986197607 | epot = -22.3541328362265 | etot = -19.3762580084019
24000  ekin = 2.69248918405631 |  erot = 3.62299411789939 | epot = -22.3677967035065 | etot = -16.0523134015508
25000  ekin = 2.13493439844508 |  erot = 3.0505216312308 | epot = -22.3555033612947 | etot = -17.1700473316188
26000  ekin = 2.30172182969515 |  erot = 2.07135871744996 | epot = -22.3335168108541 | etot = -17.960436263709
27000  ekin = 2.14098867911369 |  erot = 2.41805006144544 | epot = -22.3200034032163 | etot = -17.7609646626572
28000  ekin = 2.05340630022756 |  erot = 2.40580718312343 | epot = -22.2839369077622 | etot = -17.8247234244112
29000  ekin = 2.36034190115115 |  erot = 2.2787954171398 | epot = -22.3800197188225 | etot = -17.7408824005316
30000  ekin = 2.29223967416489 |  erot = 2.03513709505009 | epot = -22.4772783050165 | etot = -18.1499015358016
31000  ekin = 2.60124324865436 |  erot = 3.18362857709174 | epot = -22.597000651882 | etot = -16.8121288261359
32000  ekin = 2.35354061905231 |  erot = 2.96484436018525 | epot = -22.6523380106865 | etot = -17.3339530314489
33000  ekin = 2.32293801873626 |  erot = 1.69196951534217 | epot = -22.7040952405997 | etot = -18.6891877065213
34000  ekin = 2.32025416829337 |  erot = 2.68034170653633 | epot = -22.750017138143 | etot = -17.7494212633133
35000  ekin = 2.79216910719081 |  erot = 1.64986334178185 | epot = -22.8595622531716 | etot = -18.417529804199
36000  ekin = 2.36875650068202 |  erot = 2.3979326986464 | epot = -22.959303597999 | etot = -18.1926143986706
37000  ekin = 2.58750776626253 |  erot = 1.9185019481899 | epot = -22.965171025944 | etot = -18.4591613114916
38000  ekin = 2.78282022299301 |  erot = 3.28394511650205 | epot = -22.8548374893732 | etot = -16.7880721498781
39000  ekin = 2.69509784750587 |  erot = 2.51034638295127 | epot = -22.7211873431429 | etot = -17.5157431126858
40000  ekin = 3.70355168957536 |  erot = 2.09669925704154 | epot = -22.7209659330397 | etot = -16.9207149864228
41000  ekin = 2.84853539052991 |  erot = 2.7239415738691 | epot = -22.6911596719408 | etot = -17.1186827075418
42000  ekin = 3.00445996604621 |  erot = 3.49779181326507 | epot = -22.6110314531325 | etot = -16.1087796738212
43000  ekin = 2.48552314576562 |  erot = 2.28164167051354 | epot = -22.5308842809896 | etot = -17.7637194647104
44000  ekin = 2.4333395038503 |  erot = 2.5717973719865 | epot = -22.4388921512039 | etot = -17.4337552753672
45000  ekin = 1.8110551173064 |  erot = 2.69888644874075 | epot = -22.3020385029801 | etot = -17.792096936933
46000  ekin = 2.9089428464581 |  erot = 2.20167512258221 | epot = -22.2856129316244 | etot = -17.1749949625841
47000  ekin = 2.64857130753668 |  erot = 2.91166126246242 | epot = -22.1996160093215 | etot = -16.6393834393224
48000  ekin = 1.85127417314576 |  erot = 2.74394435850215 | epot = -22.1879888453667 | etot = -17.5927703137188
49000  ekin = 2.45741354459409 |  erot = 1.80810805686769 | epot = -22.1623906389565 | etot = -17.8968690374947
50000  ekin = 2.20051195163887 |  erot = 2.85102838451477 | epot = -22.2141447733052 | etot = -17.1626044371516
51000  ekin = 2.16832483261351 |  erot = 2.62202554018717 | epot = -22.2590981597987 | etot = -17.4687477869981
52000  ekin = 2.12471155974974 |  erot = 2.12558611563151 | epot = -22.2869287049276 | etot = -18.0366310295464
53000  ekin = 2.32554836776593 |  erot = 2.21219001553804 | epot = -22.373372199443 | etot = -17.8356338161391
54000  ekin = 2.52059965387601 |  erot = 2.57431185794667 | epot = -22.3481356413496 | etot = -17.2532241295269
55000  ekin = 2.34330372202344 |  erot = 2.6549743992031 | epot = -22.3169242950079 | etot = -17.3186461737814
56000  ekin = 2.01003122252997 |  erot = 3.24205042307488 | epot = -22.1829863869973 | etot = -16.9309047413924
57000  ekin = 2.38904962239848 |  erot = 2.57806549787252 | epot = -22.0415141674019 | etot = -17.0743990471309
58000  ekin = 1.65391053946275 |  erot = 2.21860288512216 | epot = -21.9057140300026 | etot = -18.0332006054177
59000  ekin = 2.56456927542634 |  erot = 3.57713622855421 | epot = -21.8055423904965 | etot = -15.6638368865159
60000  ekin = 2.43813752938802 |  erot = 2.21637758071268 | epot = -21.6310239558509 | etot = -16.9765088457502
61000  ekin = 2.18560875074653 |  erot = 2.57975561393118 | epot = -21.5937285655512 | etot = -16.8283642008735
62000  ekin = 2.26686100052931 |  erot = 2.1801743458343 | epot = -21.6262093490476 | etot = -17.179174002684
63000  ekin = 2.00637374006653 |  erot = 2.12930344311052 | epot = -21.7222622043595 | etot = -17.5865850211824
64000  ekin = 2.44427517411776 |  erot = 2.36496942524791 | epot = -21.8241300000687 | etot = -17.0148854007031
65000  ekin = 2.67526174833086 |  erot = 2.16990853945616 | epot = -21.9082443770796 | etot = -17.0630740892926
66000  ekin = 2.20911575024769 |  erot = 2.52276892002059 | epot = -21.9704356366204 | etot = -17.2385509663521
67000  ekin = 2.62973246374632 |  erot = 2.34618222873218 | epot = -21.9971445900684 | etot = -17.0212298975899
68000  ekin = 2.2829431079176 |  erot = 2.06290197908059 | epot = -22.0003894863714 | etot = -17.6545443993732
69000  ekin = 2.02101495496838 |  erot = 2.39007643020881 | epot = -21.9338555233944 | etot = -17.5227641382173
70000  ekin = 1.89088506546539 |  erot = 2.35439253827967 | epot = -21.9287211835348 | etot = -17.6834435797898
71000  ekin = 1.55519336449789 |  erot = 2.07880167617405 | epot = -21.9005691568162 | etot = -18.2665741161443
72000  ekin = 1.36827440677619 |  erot = 2.39088129223168 | epot = -21.8629707902002 | etot = -18.1038150911924
73000  ekin = 1.62540573202476 |  erot = 3.01797703499248 | epot = -21.8557068419349 | etot = -17.2123240749177
74000  ekin = 2.01149391624742 |  erot = 2.02723055413595 | epot = -21.8470274232977 | etot = -17.8083029529143
75000  ekin = 2.05403667219619 |  erot = 2.07544697818276 | epot = -21.8602149111268 | etot = -17.7307312607478
76000  ekin = 2.41617634714666 |  erot = 1.95480777447643 | epot = -21.851383872019 | etot = -17.4803997503959
77000  ekin = 2.3998359088559 |  erot = 1.88461246210473 | epot = -21.8956951706305 | etot = -17.6112467996698
78000  ekin = 2.67746060469021 |  erot = 2.44163180696426 | epot = -21.8641021104464 | etot = -16.7450096987919
79000  ekin = 2.18662364026429 |  erot = 2.15427633815155 | epot = -21.7829487553805 | etot = -17.4420487769646
80000  ekin = 2.78794168434048 |  erot = 2.30932038332418 | epot = -21.6590849259658 | etot = -16.5618228583011
81000  ekin = 2.45286796521852 |  erot = 2.1436447255662 | epot = -21.6713080107731 | etot = -17.0747953199884
82000  ekin = 2.93467014760141 |  erot = 1.77743531280443 | epot = -21.7014613064551 | etot = -16.9893558460493
83000  ekin = 3.29672657805971 |  erot = 2.21827490773949 | epot = -21.6839049156586 | etot = -16.1689034298594
84000  ekin = 2.55320028967102 |  erot = 2.25202849170362 | epot = -21.6808876692992 | etot = -16.8756588879245
85000  ekin = 2.49548709146207 |  erot = 2.84215236943065 | epot = -21.6840144832897 | etot = -16.346375022397
86000  ekin = 2.49552461341928 |  erot = 2.57891135879179 | epot = -21.7013866097695 | etot = -16.6269506375584
87000  ekin = 2.74412164663686 |  erot = 2.27071960549929 | epot = -21.6530676787501 | etot = -16.6382264266139
88000  ekin = 2.42325540443049 |  erot = 2.01166226022148 | epot = -21.620500208098 | etot = -17.185582543446
89000  ekin = 2.74715165375019 |  erot = 2.86831839814241 | epot = -21.6651036699476 | etot = -16.049633618055
90000  ekin = 2.75576021678781 |  erot = 2.79462886776217 | epot = -21.7752595479723 | etot = -16.2248704634224
91000  ekin = 3.64517684522957 |  erot = 3.82431259001013 | epot = -21.7617579983943 | etot = -14.2922685631546
92000  ekin = 3.37889339251649 |  erot = 2.32303090722651 | epot = -21.7801321311465 | etot = -16.0782078314035
93000  ekin = 2.82261543702396 |  erot = 2.72489194379653 | epot = -21.7057050241879 | etot = -16.1581976433674
94000  ekin = 1.78504894050682 |  erot = 2.34731212875094 | epot = -21.7115547557575 | etot = -17.5791936864998
95000  ekin = 2.31604213030838 |  erot = 2.33080955143291 | epot = -21.6926122528237 | etot = -17.0457605710824
96000  ekin = 1.99649390030178 |  erot = 2.29491155541349 | epot = -21.603957729255 | etot = -17.3125522735397
97000  ekin = 1.74325563389941 |  erot = 1.9682097158716 | epot = -21.5273627901082 | etot = -17.8158974403372
98000  ekin = 1.95377102338628 |  erot = 2.45395461243938 | epot = -21.5392657614428 | etot = -17.1315401256171
99000  ekin = 1.60774762371816 |  erot = 2.71894495064821 | epot = -21.5162045214457 | etot = -17.1895119470793
100000  ekin = 1.98985259010341 |  erot = 2.53591425758514 | epot = -21.4464142923909 | etot = -16.9206474447024
101000  ekin = 2.26527305615636 |  erot = 2.25854332714983 | epot = -21.4315686278575 | etot = -16.9077522445513
102000  ekin = 3.13155867596022 |  erot = 2.18390335417274 | epot = -21.3972099516838 | etot = -16.0817479215509
103000  ekin = 2.80837906107915 |  erot = 2.28869139360349 | epot = -21.4363473740261 | etot = -16.3392769193434
104000  ekin = 3.72846965198347 |  erot = 2.64018309888269 | epot = -21.490024667642 | etot = -15.1213719167758
105000  ekin = 4.12726300603839 |  erot = 1.63413705559716 | epot = -21.5948161011314 | etot = -15.8334160394959
106000  ekin = 3.36033045358037 |  erot = 2.02550333373744 | epot = -21.7225342403058 | etot = -16.336700452988
107000  ekin = 2.76122981665345 |  erot = 2.30674945991967 | epot = -21.6586977458842 | etot = -16.5907184693111
108000  ekin = 3.49104847766834 |  erot = 2.14612941883229 | epot = -21.6000842556863 | etot = -15.9629063591856
109000  ekin = 2.39473701091878 |  erot = 2.92381224100063 | epot = -21.6185956054319 | etot = -16.3000463535125
110000  ekin = 3.22280887864977 |  erot = 2.6968940270254 | epot = -21.7122614276733 | etot = -15.7925585219981
111000  ekin = 2.65883766829333 |  erot = 2.74076708381971 | epot = -21.6899577708721 | etot = -16.2903530187591
112000  ekin = 2.38835595891625 |  erot = 2.23084999771164 | epot = -21.4911087506568 | etot = -16.8719027940289
113000  ekin = 1.95354846513695 |  erot = 1.83295573289019 | epot = -21.3316631204777 | etot = -17.5451589224506
114000  ekin = 2.58273911122333 |  erot = 2.13333482475074 | epot = -21.2506439873192 | etot = -16.5345700513451
115000  ekin = 2.01523785570741 |  erot = 2.02524789535622 | epot = -21.1285802375289 | etot = -17.0880944864653
116000  ekin = 2.23842881532554 |  erot = 3.28226425149225 | epot = -20.9689019297205 | etot = -15.4482088629027
117000  ekin = 2.41633556091113 |  erot = 1.53580779521678 | epot = -20.8748520117369 | etot = -16.922708655609
118000  ekin = 2.49049555400504 |  erot = 1.88429062788073 | epot = -20.8237622863378 | etot = -16.4489761044521
119000  ekin = 3.11084268439668 |  erot = 2.47933813061418 | epot = -20.7691613564654 | etot = -15.1789805414545
120000  ekin = 2.01102959552626 |  erot = 2.8502359740821 | epot = -20.7500567460862 | etot = -15.8887911764778
121000  ekin = 1.86624970174859 |  erot = 2.53262247077158 | epot = -20.7773407063713 | etot = -16.3784685338512
122000  ekin = 1.54224295202022 |  erot = 1.6470090599507 | epot = -20.9378604971195 | etot = -17.7486084851486
123000  ekin = 1.73449532735131 |  erot = 1.76189773880274 | epot = -20.8930291913399 | etot = -17.3966361251859
124000  ekin = 1.77340525445646 |  erot = 2.35902008654296 | epot = -20.8692917661689 | etot = -16.7368664251695
125000  ekin = 1.99152184435385 |  erot = 1.87034203094712 | epot = -20.9611678911766 | etot = -17.0993040158757
126000  ekin = 2.58001379637825 |  erot = 2.88776542454285 | epot = -21.1328618641301 | etot = -15.665082643209
127000  ekin = 2.11459256732823 |  erot = 1.64989233578744 | epot = -21.1629142067831 | etot = -17.3984293036674
128000  ekin = 1.85147684735466 |  erot = 2.22752092718431 | epot = -21.2789914173496 | etot = -17.1999936428106
129000  ekin = 2.72027912961951 |  erot = 2.81967318400925 | epot = -21.4050008293519 | etot = -15.8650485157232
130000  ekin = 2.16028729279157 |  erot = 2.14855189101045 | epot = -21.5152440290312 | etot = -17.2064048452291
131000  ekin = 2.09369265885246 |  erot = 2.94478104923211 | epot = -21.5302623334185 | etot = -16.4917886253339
132000  ekin = 2.44021758994509 |  erot = 2.85326772115926 | epot = -21.5616063061352 | etot = -16.2681209950309
133000  ekin = 2.78515775601359 |  erot = 2.97127171605499 | epot = -21.605872654919 | etot = -15.8494431828505
134000  ekin = 3.25815226639103 |  erot = 2.24295461626719 | epot = -21.5154176862985 | etot = -16.0143108036403
135000  ekin = 2.96792141465411 |  erot = 2.6256692844973 | epot = -21.3539841068239 | etot = -15.7603934076725
136000  ekin = 2.68719515527176 |  erot = 2.28877967285465 | epot = -21.153607594333 | etot = -16.1776327662065
137000  ekin = 2.91974757585409 |  erot = 1.87075101013112 | epot = -21.028338284405 | etot = -16.2378396984198
138000  ekin = 3.28503443268241 |  erot = 2.62784132292636 | epot = -21.0243651212703 | etot = -15.1114893656615
139000  ekin = 3.08163578986975 |  erot = 2.1122022602525 | epot = -21.0870834007113 | etot = -15.8932453505891
140000  ekin = 2.69996528883377 |  erot = 1.80409583711933 | epot = -21.1701332774978 | etot = -16.6660721515447
141000  ekin = 2.25068676306256 |  erot = 2.30596705514078 | epot = -21.3679426621412 | etot = -16.8112888439378
142000  ekin = 2.53567831853488 |  erot = 2.25270951703564 | epot = -21.4696497272813 | etot = -16.6812618917108
143000  ekin = 2.51025257633095 |  erot = 2.34490813785869 | epot = -21.4354188777126 | etot = -16.5802581635229
144000  ekin = 2.17885596770953 |  erot = 2.68144409760418 | epot = -21.3248191816703 | etot = -16.4645191163566
145000  ekin = 2.84349867621368 |  erot = 1.8508587545299 | epot = -21.3109917341923 | etot = -16.6166343034487
146000  ekin = 3.05753088878413 |  erot = 2.72332045337987 | epot = -21.3497303832592 | etot = -15.5688790410952
147000  ekin = 2.2283021921888 |  erot = 2.46740486895351 | epot = -21.2919322514124 | etot = -16.5962251902701
148000  ekin = 2.82987291110692 |  erot = 2.58927177069173 | epot = -21.2274588660736 | etot = -15.8083141842749
149000  ekin = 2.51807212845508 |  erot = 3.51983162929834 | epot = -21.1410648931108 | etot = -15.1031611353574
150000  ekin = 2.17678230245944 |  erot = 3.06982673911451 | epot = -20.9920389037226 | etot = -15.7454298621487
151000  ekin = 2.28831412321732 |  erot = 1.83194727294766 | epot = -20.7674982766615 | etot = -16.6472368804965
152000  ekin = 1.98301298060938 |  erot = 2.46746146894156 | epot = -20.5878298856808 | etot = -16.1373554361298
153000  ekin = 2.98569507403301 |  erot = 1.96326154025061 | epot = -20.3802249991926 | etot = -15.431268384909
154000  ekin = 2.18397675381597 |  erot = 2.65395766658591 | epot = -20.2236899676785 | etot = -15.3857555472766
155000  ekin = 1.98234389744071 |  erot = 3.14484788317619 | epot = -20.3120176541901 | etot = -15.1848258735733
156000  ekin = 1.79627175784992 |  erot = 2.45003190807681 | epot = -20.4427642028629 | etot = -16.1964605369362
157000  ekin = 2.08813829181571 |  erot = 2.86805073450795 | epot = -20.4068963975021 | etot = -15.4507073711785
158000  ekin = 2.13754629139889 |  erot = 2.50565304464043 | epot = -20.5000647108131 | etot = -15.8568653747738
159000  ekin = 2.32432664951923 |  erot = 2.21181195015077 | epot = -20.4461948722556 | etot = -15.9100562725856
160000  ekin = 2.29843661796481 |  erot = 2.04734430906125 | epot = -20.4895307827882 | etot = -16.1437498557622
161000  ekin = 2.23580165168164 |  erot = 3.09795808796494 | epot = -20.4604113949936 | etot = -15.1266516553471
162000  ekin = 2.27788131701757 |  erot = 3.18930781722903 | epot = -20.4055670102948 | etot = -14.9383778760482
163000  ekin = 2.66209778569769 |  erot = 1.99831390079222 | epot = -20.478834119379 | etot = -15.818422432889
164000  ekin = 2.85237445432713 |  erot = 2.09395739893628 | epot = -20.5290893575273 | etot = -15.5827575042639
165000  ekin = 2.844850377293 |  erot = 2.41086867486456 | epot = -20.6036123453942 | etot = -15.3478932932366
166000  ekin = 2.88871841943243 |  erot = 2.75907617861285 | epot = -20.6364060066782 | etot = -14.9886114086329
167000  ekin = 2.33401011994289 |  erot = 2.67924974508076 | epot = -20.6165299772347 | etot = -15.6032701122111
168000  ekin = 1.92402418255426 |  erot = 2.97671028846682 | epot = -20.6579623991061 | etot = -15.757227928085
169000  ekin = 1.45227250585843 |  erot = 3.00044635606599 | epot = -20.6604847017272 | etot = -16.2077658398028
170000  ekin = 2.38963327875271 |  erot = 2.57319962856527 | epot = -20.5917217962717 | etot = -15.6288888889537
171000  ekin = 2.80845034608602 |  erot = 3.23550643318803 | epot = -20.4339401909471 | etot = -14.389983411673
172000  ekin = 1.75595395868988 |  erot = 3.11670644235735 | epot = -20.4303280135804 | etot = -15.5576676125332
173000  ekin = 2.36542864984832 |  erot = 2.33401400621061 | epot = -20.461542301553 | etot = -15.762099645494
174000  ekin = 2.91188322010058 |  erot = 3.02580072847476 | epot = -20.4826483076726 | etot = -14.5449643590973
175000  ekin = 2.34596314175668 |  erot = 2.05518602890955 | epot = -20.4826180285718 | etot = -16.0814688579056
176000  ekin = 2.34063483491509 |  erot = 2.14365101192323 | epot = -20.5223253129403 | etot = -16.038039466102
177000  ekin = 2.83442610602656 |  erot = 2.44228402244709 | epot = -20.5004228147967 | etot = -15.2237126863231
178000  ekin = 2.56694406156095 |  erot = 2.68586423540814 | epot = -20.4487279334542 | etot = -15.1959196364851
179000  ekin = 2.36213497817569 |  erot = 2.35004866474703 | epot = -20.4111045739455 | etot = -15.6989209310228
180000  ekin = 2.53348788073238 |  erot = 3.28552220659809 | epot = -20.4179868807306 | etot = -14.5989767934002
181000  ekin = 2.81806280535128 |  erot = 2.9277911887905 | epot = -20.4222077380284 | etot = -14.6763537438867
182000  ekin = 2.55815928166599 |  erot = 2.53114052662283 | epot = -20.4374186049284 | etot = -15.3481187966396
183000  ekin = 3.15513311019178 |  erot = 1.7631762377912 | epot = -20.355430292536 | etot = -15.437120944553
184000  ekin = 2.54608747794258 |  erot = 2.20087589042825 | epot = -20.388648460888 | etot = -15.6416850925172
185000  ekin = 2.83324404113538 |  erot = 1.64366044927389 | epot = -20.4599770643125 | etot = -15.9830725739032
186000  ekin = 2.67178115491873 |  erot = 3.41386940985046 | epot = -20.4518340351941 | etot = -14.3661834704249
187000  ekin = 2.41786102272103 |  erot = 2.09636717678388 | epot = -20.3904693242667 | etot = -15.8762411247618
188000  ekin = 2.30328158010595 |  erot = 2.38081668198893 | epot = -20.4604445830401 | etot = -15.7763463209452
189000  ekin = 1.92609803990765 |  erot = 2.42815659083887 | epot = -20.470960057862 | etot = -16.1167054271154
190000  ekin = 1.4869237291126 |  erot = 2.45716140381064 | epot = -20.3555681603628 | etot = -16.4114830274395
191000  ekin = 1.72342312609916 |  erot = 2.85677358560256 | epot = -20.3290572965069 | etot = -15.7488605848051
192000  ekin = 2.11513117542744 |  erot = 2.26679791202429 | epot = -20.3542710664828 | etot = -15.9723419790311
193000  ekin = 1.98080430665886 |  erot = 2.28560154541075 | epot = -20.1959446201645 | etot = -15.9295387680949
194000  ekin = 2.76036393462101 |  erot = 2.5712315348034 | epot = -20.4009524060629 | etot = -15.0693569366385
195000  ekin = 2.15747597920121 |  erot = 2.71512450928981 | epot = -20.4684381390347 | etot = -15.5958376505437
196000  ekin = 1.8393138032202 |  erot = 2.10310426752867 | epot = -20.5013626911432 | etot = -16.5589446203943
197000  ekin = 2.40419423783135 |  erot = 3.16599676028603 | epot = -20.5322769981427 | etot = -14.9620860000253
198000  ekin = 1.83568039567069 |  erot = 1.08819548025596 | epot = -20.4497624145598 | etot = -17.5258865386332
199000  ekin = 2.10723940110973 |  erot = 1.84139466096702 | epot = -20.4834760034884 | etot = -16.5348419414116
200000  ekin = 1.6351440894683 |  erot = 3.45549649937619 | epot = -20.5435729502182 | etot = -15.4529323613737
201000  ekin = 2.55502823457565 |  erot = 2.87899420726051 | epot = -20.6217745001984 | etot = -15.1877520583622
202000  ekin = 1.68252265649348 |  erot = 2.82784835003717 | epot = -20.7446927473229 | etot = -16.2343217407922
203000  ekin = 2.27859911548739 |  erot = 1.37677464313892 | epot = -20.9183559374103 | etot = -17.262982178784
204000  ekin = 1.76471790528265 |  erot = 2.11787243736417 | epot = -21.215165479647 | etot = -17.3325751370002
205000  ekin = 2.65592648219469 |  erot = 2.73882563801557 | epot = -21.4243664663511 | etot = -16.0296143461409
206000  ekin = 1.98157342763896 |  erot = 2.53048181159552 | epot = -21.5779920358209 | etot = -17.0659367965864
207000  ekin = 2.73542812066325 |  erot = 2.90705163951399 | epot = -21.725567847324 | etot = -16.0830880871467
208000  ekin = 2.27126454243706 |  erot = 1.80215606274351 | epot = -21.7860683187495 | etot = -17.712647713569
209000  ekin = 2.70228152644459 |  erot = 3.27736485013164 | epot = -21.8140234703161 | etot = -15.8343770937399
210000  ekin = 2.95057917247322 |  erot = 2.53500536914665 | epot = -21.8281158755865 | etot = -16.3425313339666
211000  ekin = 1.62308417534784 |  erot = 3.12689361132934 | epot = -21.9370425736338 | etot = -17.1870647869566
212000  ekin = 2.41397341044729 |  erot = 1.55937305197024 | epot = -22.0227967001242 | etot = -18.0494502377066
213000  ekin = 3.59790592056133 |  erot = 1.80238311486057 | epot = -22.0522886390217 | etot = -16.6519996035998
214000  ekin = 2.33388647040504 |  erot = 3.31765188606072 | epot = -22.094864769502 | etot = -16.4433264130362
215000  ekin = 1.68599483699518 |  erot = 1.6886960206665 | epot = -22.1387093976738 | etot = -18.7640185400121
216000  ekin = 2.16478915390126 |  erot = 2.01267715021607 | epot = -22.1600459208976 | etot = -17.9825796167803
217000  ekin = 2.24764773818369 |  erot = 1.76959956238714 | epot = -22.2196958818046 | etot = -18.2024485812337
218000  ekin = 3.09787142239507 |  erot = 2.147360123501 | epot = -22.187729835915 | etot = -16.942498290019
219000  ekin = 2.73529690755447 |  erot = 2.24432205869896 | epot = -22.2208863882435 | etot = -17.2412674219901
220000  ekin = 1.59897669601942 |  erot = 2.09687665120016 | epot = -22.1905436455753 | etot = -18.4946902983557
221000  ekin = 2.02036723190665 |  erot = 2.09556761809996 | epot = -22.1918422762317 | etot = -18.0759074262251
222000  ekin = 1.49638242871729 |  erot = 2.60155067871545 | epot = -22.2138680442106 | etot = -18.1159349367779
223000  ekin = 1.87035956176731 |  erot = 2.17428364138641 | epot = -22.2522300106432 | etot = -18.2075868074895
224000  ekin = 2.00012234158446 |  erot = 2.08797924503085 | epot = -22.3008209317274 | etot = -18.2127193451121
225000  ekin = 2.76899981482197 |  erot = 2.10407741019115 | epot = -22.2923280876379 | etot = -17.4192508626248
226000  ekin = 1.65594195825997 |  erot = 2.96408405246179 | epot = -22.2412422409935 | etot = -17.6212162302717
227000  ekin = 1.65149334350461 |  erot = 2.33624919097943 | epot = -22.1839030474218 | etot = -18.1961605129378
228000  ekin = 1.77667520093955 |  erot = 2.07022248763616 | epot = -22.190082399945 | etot = -18.3431847113693
229000  ekin = 1.75998954286045 |  erot = 1.99971962659531 | epot = -22.1925536092818 | etot = -18.432844439826
230000  ekin = 1.85550710350725 |  erot = 2.74978389359617 | epot = -22.2323181394799 | etot = -17.6270271423765
231000  ekin = 1.97404425726792 |  erot = 2.8591085722124 | epot = -22.3587778332499 | etot = -17.5256250037696
232000  ekin = 1.83594071902042 |  erot = 1.84486816748803 | epot = -22.4142326949303 | etot = -18.7334238084218
233000  ekin = 1.9775557551425 |  erot = 2.77476973317783 | epot = -22.4730971080617 | etot = -17.7207716197414
234000  ekin = 2.04507964635856 |  erot = 2.12412888091634 | epot = -22.4528692690191 | etot = -18.2836607417442
235000  ekin = 1.83741797080413 |  erot = 2.27527404789702 | epot = -22.3894037590401 | etot = -18.2767117403389
236000  ekin = 2.29676135534337 |  erot = 2.73772269108634 | epot = -22.3437181608649 | etot = -17.3092341144352
237000  ekin = 2.99612158854431 |  erot = 2.54830043008273 | epot = -22.3785677193778 | etot = -16.8341457007508
238000  ekin = 2.84856377450785 |  erot = 1.51843159349686 | epot = -22.4925648554082 | etot = -18.1255694874035
239000  ekin = 2.34941565742248 |  erot = 2.2748078935664 | epot = -22.5183324837169 | etot = -17.894108932728
240000  ekin = 2.51839888496975 |  erot = 2.75953618107037 | epot = -22.5431072760399 | etot = -17.2651722099998
241000  ekin = 2.14848726876551 |  erot = 2.03960215902078 | epot = -22.5438722492198 | etot = -18.3557828214335
242000  ekin = 2.82792017740818 |  erot = 2.33166189618953 | epot = -22.5196653288642 | etot = -17.3600832552665
243000  ekin = 3.09639727716721 |  erot = 2.2796836117743 | epot = -22.5255221472051 | etot = -17.1494412582636
244000  ekin = 2.00770290751963 |  erot = 2.92818946227802 | epot = -22.3843525086898 | etot = -17.4484601388922
245000  ekin = 2.20153185882779 |  erot = 2.35319297711805 | epot = -22.3136015343845 | etot = -17.7588766984386
246000  ekin = 1.71888815358301 |  erot = 2.54639055911096 | epot = -22.2435936631228 | etot = -17.9783149504288
247000  ekin = 1.80658675177085 |  erot = 2.51921445221004 | epot = -22.1330576416749 | etot = -17.807256437694
248000  ekin = 1.85207364211154 |  erot = 2.4683032200598 | epot = -21.9568887677588 | etot = -17.6365119055875
249000  ekin = 2.51856601001609 |  erot = 2.93661977849076 | epot = -21.9760448332988 | etot = -16.520859044792
250000  ekin = 1.90610664800785 |  erot = 2.13761070048004 | epot = -21.9519106904868 | etot = -17.9081933419989
251000  ekin = 1.91301466450533 |  erot = 2.19381594165343 | epot = -21.9658986962505 | etot = -17.8590680900917
252000  ekin = 1.7694506809982 |  erot = 2.34380777374446 | epot = -21.9987732022196 | etot = -17.885514747477
253000  ekin = 2.53390618906554 |  erot = 2.11580051628288 | epot = -21.963923072657 | etot = -17.3142163673086
254000  ekin = 2.73814680625822 |  erot = 1.97658911847143 | epot = -21.8873118634952 | etot = -17.1725759387655
255000  ekin = 2.58414822446348 |  erot = 1.92162376235726 | epot = -21.9046684320646 | etot = -17.3988964452439
256000  ekin = 2.83533171191429 |  erot = 2.34556852499195 | epot = -21.9918136976116 | etot = -16.8109134607054
257000  ekin = 1.79080741322806 |  erot = 2.1583309436755 | epot = -21.9764016664672 | etot = -18.0272633095636
258000  ekin = 2.02546985592639 |  erot = 2.37900731903622 | epot = -21.94696880393 | etot = -17.5424916289674
259000  ekin = 2.02120852322937 |  erot = 2.65082205319526 | epot = -21.8753889290559 | etot = -17.2033583526313
260000  ekin = 2.5418831241984 |  erot = 1.76900593628532 | epot = -21.7382501086084 | etot = -17.4273610481247
261000  ekin = 2.37202203889564 |  erot = 3.05365451397859 | epot = -21.6500401894419 | etot = -16.2243636365676
262000  ekin = 2.36703059840232 |  erot = 2.59857255579641 | epot = -21.5636222051381 | etot = -16.5980190509394
263000  ekin = 1.48725867643513 |  erot = 3.56097093668928 | epot = -21.4829067033817 | etot = -16.4346770902573
264000  ekin = 2.01712659940279 |  erot = 2.56045232695787 | epot = -21.3650896532119 | etot = -16.7875107268513
265000  ekin = 1.9256806454763 |  erot = 2.45301887212087 | epot = -21.1763501751048 | etot = -16.7976506575077
266000  ekin = 2.43579391271629 |  erot = 2.13017920290526 | epot = -21.0638256055522 | etot = -16.4978524899306
267000  ekin = 2.6797061400345 |  erot = 1.87217347640716 | epot = -21.1659208952924 | etot = -16.6140412788507
268000  ekin = 2.81167219084083 |  erot = 3.48365196567131 | epot = -21.1805665035137 | etot = -14.8852423470016
269000  ekin = 3.65006310127924 |  erot = 2.0633180554268 | epot = -21.2804404454309 | etot = -15.5670592887249
270000  ekin = 3.70718183825424 |  erot = 2.6634661985827 | epot = -21.334700072238 | etot = -14.9640520354011
271000  ekin = 3.1228861362751 |  erot = 2.80382846107485 | epot = -21.2768519170945 | etot = -15.3501373197446
272000  ekin = 2.18441964103106 |  erot = 2.48838927155419 | epot = -21.1586936970712 | etot = -16.485884784486
273000  ekin = 1.62367738669515 |  erot = 2.06613684999152 | epot = -21.1463832607497 | etot = -17.4565690240631
274000  ekin = 2.09483537524525 |  erot = 1.73683037596794 | epot = -21.0854569400916 | etot = -17.2537911888784
275000  ekin = 2.15896719638319 |  erot = 2.63807604617379 | epot = -21.0218219035778 | etot = -16.2247786610208
276000  ekin = 2.53400161244232 |  erot = 2.28806220778739 | epot = -20.9035185671206 | etot = -16.0814547468909
277000  ekin = 2.75382631570864 |  erot = 1.72673567196237 | epot = -20.8706109377323 | etot = -16.3900489500613
278000  ekin = 2.91491290628895 |  erot = 2.77311291328583 | epot = -20.9317610514473 | etot = -15.2437352318725
279000  ekin = 2.02517025977243 |  erot = 2.09305476585062 | epot = -20.9442742425091 | etot = -16.826049216886
280000  ekin = 1.97753710970474 |  erot = 3.61678072163941 | epot = -21.0262558542301 | etot = -15.431938022886
281000  ekin = 1.82419322507649 |  erot = 1.6651781366915 | epot = -21.1201806472721 | etot = -17.6308092855041
282000  ekin = 2.24724891412515 |  erot = 2.76163411959958 | epot = -21.2471566590785 | etot = -16.2382736253537
283000  ekin = 1.95235148273684 |  erot = 2.19247815633163 | epot = -21.3658384247974 | etot = -17.2210087857289
284000  ekin = 2.37420245103293 |  erot = 2.92847343390954 | epot = -21.4354988362253 | etot = -16.1328229512828
285000  ekin = 2.14111042832144 |  erot = 1.93272604759549 | epot = -21.4249163187885 | etot = -17.3510798428716
286000  ekin = 2.3089931854671 |  erot = 2.9549878352624 | epot = -21.410690858081 | etot = -16.1467098373515
287000  ekin = 2.75740939203045 |  erot = 2.54992948452122 | epot = -21.361349627387 | etot = -16.0540107508354
288000  ekin = 2.4973684902549 |  erot = 1.77921390189244 | epot = -21.3226552597778 | etot = -17.0460728676305
289000  ekin = 3.03667111409878 |  erot = 2.27333969470544 | epot = -21.2624849218961 | etot = -15.9524741130919
290000  ekin = 2.93615271039474 |  erot = 2.05980439278362 | epot = -21.2683689035894 | etot = -16.272411800411
291000  ekin = 2.34386107667528 |  erot = 1.46321938248152 | epot = -21.2140383631523 | etot = -17.4069579039955
292000  ekin = 2.65918419203853 |  erot = 1.89282969390395 | epot = -21.2236371489175 | etot = -16.671623262975
293000  ekin = 1.65980211274946 |  erot = 1.93596248005317 | epot = -21.1709242407238 | etot = -17.5751596479212
294000  ekin = 2.05177259027721 |  erot = 2.70937868067951 | epot = -21.118695679562 | etot = -16.3575444086052
295000  ekin = 2.18091316361484 |  erot = 2.29658422251402 | epot = -21.1063478242178 | etot = -16.628850438089
296000  ekin = 1.73512163732749 |  erot = 2.2939087869047 | epot = -21.0753058385671 | etot = -17.0462754143349
297000  ekin = 2.14034245047531 |  erot = 2.48337000971383 | epot = -21.0179202381765 | etot = -16.3942077779874
298000  ekin = 1.86633783948898 |  erot = 2.24123109190867 | epot = -21.0191121214796 | etot = -16.9115431900819
299000  ekin = 2.3724958410662 |  erot = 2.94115676424376 | epot = -21.0282251986753 | etot = -15.7145725933653
300000  ekin = 2.00915095981889 |  erot = 2.49876359248192 | epot = -21.0962245214173 | etot = -16.5883099691165
301000  ekin = 2.44395311761861 |  erot = 2.22130936182324 | epot = -21.2587123479617 | etot = -16.5934498685199
302000  ekin = 1.78695328404457 |  erot = 3.23471772753344 | epot = -21.2051813270302 | etot = -16.1835103154522
303000  ekin = 2.83554228892005 |  erot = 2.41847408993813 | epot = -20.9895087538096 | etot = -15.7354923749514
304000  ekin = 2.5748344551977 |  erot = 2.53904386184566 | epot = -20.8081548458415 | etot = -15.6942765287982
305000  ekin = 2.7080077219652 |  erot = 1.93232119496624 | epot = -20.6487181745961 | etot = -16.0083892576647
306000  ekin = 2.90325321533282 |  erot = 3.77773540311511 | epot = -20.4326722871757 | etot = -13.7516836687278
307000  ekin = 2.88661727018521 |  erot = 2.83930546331975 | epot = -20.3983368956182 | etot = -14.6724141621132
308000  ekin = 3.37996683871918 |  erot = 2.49138508028931 | epot = -20.552942799017 | etot = -14.6815908800085
309000  ekin = 3.12919794943962 |  erot = 2.78097460391087 | epot = -20.6724065522225 | etot = -14.7622339988721
310000  ekin = 4.00288303942773 |  erot = 2.40415595777585 | epot = -20.7404846798012 | etot = -14.3334456825976
311000  ekin = 2.45489637305039 |  erot = 2.48059788345602 | epot = -20.8349673239367 | etot = -15.8994730674303
312000  ekin = 2.1846981771899 |  erot = 2.59716127944679 | epot = -21.0216008775948 | etot = -16.2397414209581
313000  ekin = 2.317703564151 |  erot = 2.6789227458398 | epot = -21.1436144398564 | etot = -16.1469881298656
314000  ekin = 3.10983720618674 |  erot = 2.59460588654298 | epot = -21.2043761466802 | etot = -15.4999330539505
315000  ekin = 2.33862397078109 |  erot = 1.98845631142114 | epot = -21.3029862184383 | etot = -16.9759059362361
316000  ekin = 2.43344794069394 |  erot = 2.51299367709113 | epot = -21.3421274589086 | etot = -16.3956858411235
317000  ekin = 2.50816133147315 |  erot = 3.00688521936971 | epot = -21.4846717448988 | etot = -15.969625194056
318000  ekin = 2.72917982659687 |  erot = 2.42929045755142 | epot = -21.6108055559997 | etot = -16.4523352718514
319000  ekin = 2.48086277537112 |  erot = 2.63657928805308 | epot = -21.6619103971116 | etot = -16.5444683336874
320000  ekin = 1.90802035381194 |  erot = 2.16713074776292 | epot = -21.6222748683971 | etot = -17.5471237668222
321000  ekin = 2.07147349086639 |  erot = 2.14000512746672 | epot = -21.5609071534361 | etot = -17.349428535103
322000  ekin = 2.7299327433742 |  erot = 2.52579911851033 | epot = -21.5408838138262 | etot = -16.2851519519417
323000  ekin = 2.35554157311837 |  erot = 1.55880476831801 | epot = -21.5370575084776 | etot = -17.6227111670412
324000  ekin = 2.99908558249139 |  erot = 2.58858747384884 | epot = -21.5193356351758 | etot = -15.9316625788355
325000  ekin = 3.6149106267122 |  erot = 2.18887623212488 | epot = -21.4055316941325 | etot = -15.6017448352954
326000  ekin = 3.19807107640948 |  erot = 2.07597635149098 | epot = -21.2986717632965 | etot = -16.024624335396
327000  ekin = 3.51238780584219 |  erot = 2.15176972005387 | epot = -21.2528747486845 | etot = -15.5887172227884
328000  ekin = 2.85561662329478 |  erot = 2.09194555244722 | epot = -21.0237273825278 | etot = -16.0761652067858
329000  ekin = 2.57837354979333 |  erot = 2.79394986965183 | epot = -20.924353525386 | etot = -15.5520301059408
330000  ekin = 2.27396264848732 |  erot = 2.43444416676745 | epot = -20.851387353627 | etot = -16.1429805383722
331000  ekin = 2.40929351707062 |  erot = 2.35903201134677 | epot = -20.820794485097 | etot = -16.0524689566796
332000  ekin = 1.87084558474312 |  erot = 3.323746792107 | epot = -20.720871531961 | etot = -15.5262791551108
333000  ekin = 2.79442922039425 |  erot = 2.96048079254389 | epot = -20.7710249914728 | etot = -15.0161149785347
334000  ekin = 3.28901105496772 |  erot = 3.15776523008122 | epot = -20.9492332847824 | etot = -14.5024569997335
335000  ekin = 2.44459135519565 |  erot = 3.10396420593868 | epot = -20.996910891307 | etot = -15.4483553301726
336000  ekin = 2.63217882625589 |  erot = 2.42921308162644 | epot = -20.8802004705292 | etot = -15.8188085626469
337000  ekin = 2.62628694897184 |  erot = 4.14416682302787 | epot = -20.9592982326719 | etot = -14.1888444606722
338000  ekin = 2.6285277466769 |  erot = 2.82341344702172 | epot = -21.0916810024828 | etot = -15.6397398087842
339000  ekin = 2.70469042740986 |  erot = 2.04044554380182 | epot = -21.1596057068676 | etot = -16.4144697356559
340000  ekin = 2.35821398094898 |  erot = 3.96153682034109 | epot = -21.2009699386477 | etot = -14.8812191373576
341000  ekin = 2.1586156852311 |  erot = 3.15511435317883 | epot = -21.1160094129661 | etot = -15.8022793745562
342000  ekin = 2.74841316500059 |  erot = 1.79353858309003 | epot = -20.969825005758 | etot = -16.4278732576674
343000  ekin = 2.34105659024825 |  erot = 2.11867727943617 | epot = -20.8715761603995 | etot = -16.4118422907151
344000  ekin = 2.08394734923445 |  erot = 2.48599910017424 | epot = -20.8318622292343 | etot = -16.2619157798256
345000  ekin = 2.05525947453451 |  erot = 2.77373938479235 | epot = -20.9330607790443 | etot = -16.1040619197175
346000  ekin = 1.99475462237096 |  erot = 2.76691981271996 | epot = -20.9895100159693 | etot = -16.2278355808784
347000  ekin = 2.50063681172538 |  erot = 2.72912486882233 | epot = -20.9270038055935 | etot = -15.6972421250458
348000  ekin = 2.63861698504615 |  erot = 2.36389256684396 | epot = -20.8747488418386 | etot = -15.8722392899485
349000  ekin = 2.6156601262073 |  erot = 2.55072727899632 | epot = -21.0241583995537 | etot = -15.8577709943501
350000  ekin = 2.26682469943273 |  erot = 3.09324865123119 | epot = -21.2011216824067 | etot = -15.8410483317428
351000  ekin = 2.09669036104182 |  erot = 2.88450713900737 | epot = -21.2212413170376 | etot = -16.2400438169884
352000  ekin = 2.11988536781455 |  erot = 2.46027714494653 | epot = -21.2137291106015 | etot = -16.6335665978404
353000  ekin = 1.89454369026833 |  erot = 2.46650703132122 | epot = -21.257402824183 | etot = -16.8963521025934
354000  ekin = 2.06442839414072 |  erot = 2.50977000531684 | epot = -21.3448491996996 | etot = -16.770650800242
355000  ekin = 2.34771312563938 |  erot = 2.42109669303317 | epot = -21.3161818349904 | etot = -16.5473720163179
356000  ekin = 3.19249430555934 |  erot = 2.58961457063096 | epot = -21.2716702371444 | etot = -15.4895613609541
357000  ekin = 1.68752825219065 |  erot = 2.00352166292633 | epot = -21.2636310736873 | etot = -17.5725811585704
358000  ekin = 2.01774597395433 |  erot = 2.27419880057539 | epot = -21.1820477801384 | etot = -16.8901030056087
359000  ekin = 1.64859465566237 |  erot = 1.91377800523667 | epot = -21.0322298778818 | etot = -17.4698572169828
360000  ekin = 1.98894806425064 |  erot = 2.20083404746503 | epot = -20.9042861155599 | etot = -16.7145040038442
361000  ekin = 2.48411287892138 |  erot = 2.58662906041273 | epot = -20.9902468642362 | etot = -15.9195049249021
362000  ekin = 1.59204477610909 |  erot = 1.63953590188426 | epot = -21.0421420308362 | etot = -17.8105613528428
363000  ekin = 2.62886157913973 |  erot = 2.00665568166525 | epot = -21.0896265903083 | etot = -16.4541093295033
364000  ekin = 2.19815597894263 |  erot = 2.3453337825043 | epot = -21.2051526325076 | etot = -16.6616628710607
365000  ekin = 1.68231686970893 |  erot = 1.73118753276556 | epot = -21.3295612119502 | etot = -17.9160568094757
366000  ekin = 1.97010616386874 |  erot = 3.19711865556512 | epot = -21.342857701358 | etot = -16.1756328819241
367000  ekin = 1.89117943379658 |  erot = 2.01367696143291 | epot = -21.2702604905457 | etot = -17.3654040953162
368000  ekin = 2.15118086127361 |  erot = 2.32041486906297 | epot = -21.3569973423449 | etot = -16.8854016120084
369000  ekin = 1.9245852081307 |  erot = 2.68289663797181 | epot = -21.4476328201889 | etot = -16.8401509740864
370000  ekin = 2.65248358451567 |  erot = 1.38987949903686 | epot = -21.4904056523444 | etot = -17.4480425687918
371000  ekin = 2.14016833408318 |  erot = 2.53612783641263 | epot = -21.411859012805 | etot = -16.7355628423092
372000  ekin = 2.41002441609998 |  erot = 2.48582170708356 | epot = -21.3356988041058 | etot = -16.4398526809223
373000  ekin = 3.15330283751964 |  erot = 1.78939181917622 | epot = -21.3147053177779 | etot = -16.3720106610821
374000  ekin = 3.00600215527816 |  erot = 2.81075111635829 | epot = -21.1555612026384 | etot = -15.338807931002
375000  ekin = 2.30701726398762 |  erot = 2.45176813140163 | epot = -21.0301207869348 | etot = -16.2713353915456
376000  ekin = 2.84969483368163 |  erot = 1.80454014990989 | epot = -20.9913462004071 | etot = -16.3371112168155
377000  ekin = 2.99985480653855 |  erot = 1.75600491796041 | epot = -20.9159158504652 | etot = -16.1600561259663
378000  ekin = 2.16943918213892 |  erot = 3.09197354636979 | epot = -20.9288929876913 | etot = -15.6674802591826
379000  ekin = 1.29043408373901 |  erot = 1.98133193008984 | epot = -20.9547678960174 | etot = -17.6830018821886
380000  ekin = 1.62578229800639 |  erot = 2.37682588209541 | epot = -21.0376439622141 | etot = -17.0350357821123
381000  ekin = 1.90860633213654 |  erot = 2.33445489711269 | epot = -21.0368433001662 | etot = -16.793782070917
382000  ekin = 2.50160606374432 |  erot = 2.57643999909647 | epot = -21.1013731126881 | etot = -16.0233270498473
383000  ekin = 2.27277585884086 |  erot = 2.28672280475153 | epot = -21.0579280260376 | etot = -16.4984293624452
384000  ekin = 2.20250563644918 |  erot = 1.77542868362494 | epot = -21.0175919496069 | etot = -17.0396576295328
385000  ekin = 2.89735241542521 |  erot = 3.06556592848616 | epot = -21.0410791180899 | etot = -15.0781607741785
386000  ekin = 2.51987506904177 |  erot = 3.00420290309539 | epot = -21.0330743261708 | etot = -15.5089963540336
387000  ekin = 2.34329022071913 |  erot = 2.44401391549509 | epot = -20.9782106602308 | etot = -16.1909065240166
388000  ekin = 2.58554684050076 |  erot = 3.24557608403617 | epot = -20.9666010104406 | etot = -15.1354780859037
389000  ekin = 3.3826068254426 |  erot = 2.29786513596162 | epot = -20.9878221066372 | etot = -15.3073501452329
390000  ekin = 2.75660817135671 |  erot = 2.11254683844235 | epot = -20.9841946375191 | etot = -16.1150396277201
391000  ekin = 2.97063289465891 |  erot = 1.96378812837447 | epot = -20.9923116037879 | etot = -16.0578905807546
392000  ekin = 2.34806855591043 |  erot = 2.17288367376337 | epot = -21.1371407868237 | etot = -16.6161885571499
393000  ekin = 2.2614087070019 |  erot = 1.28790778629252 | epot = -21.2320884235218 | etot = -17.6827719302274
394000  ekin = 2.10627067708356 |  erot = 2.52191364014957 | epot = -21.2164623060641 | etot = -16.588277988831
395000  ekin = 2.0789722675595 |  erot = 2.63051534960195 | epot = -21.2393512454933 | etot = -16.5298636283319
396000  ekin = 2.28912536328102 |  erot = 2.13269562305926 | epot = -21.2037210473647 | etot = -16.7819000610244
397000  ekin = 2.70456621376039 |  erot = 1.98718189504727 | epot = -21.0748597774872 | etot = -16.3831116686795
398000  ekin = 1.9206420745127 |  erot = 2.03574041855157 | epot = -20.995278364271 | etot = -17.0388958712067
399000  ekin = 2.30922664749083 |  erot = 2.97861269366351 | epot = -20.9261390750166 | etot = -15.6382997338623
400000  ekin = 2.14518904483552 |  erot = 1.96962035139287 | epot = -20.8446747082555 | etot = -16.7298653120271
401000  ekin = 2.3067795658842 |  erot = 2.34205400902549 | epot = -20.7493205343958 | etot = -16.1004869594861
402000  ekin = 3.01851835826577 |  erot = 3.80008817198254 | epot = -20.6730374357049 | etot = -13.8544309054566
403000  ekin = 1.89066029258315 |  erot = 3.48818631141181 | epot = -20.693773732039 | etot = -15.314927128044
404000  ekin = 1.41375978297528 |  erot = 2.23985514975078 | epot = -20.7143943264468 | etot = -17.0607793937207
405000  ekin = 1.72201324126964 |  erot = 1.97150027953443 | epot = -20.6743775577839 | etot = -16.9808640369798
406000  ekin = 1.86363781887663 |  erot = 2.2017627441282 | epot = -20.5394407365341 | etot = -16.4740401735293
407000  ekin = 1.70401111115087 |  erot = 1.93439699046857 | epot = -20.4204904145467 | etot = -16.7820823129273
408000  ekin = 1.41169325656762 |  erot = 2.86803249389363 | epot = -20.4447568772029 | etot = -16.1650311267416
409000  ekin = 1.9273673345307 |  erot = 1.7987467235013 | epot = -20.4998840455585 | etot = -16.7737699875265
410000  ekin = 2.06921393660801 |  erot = 1.69592195923814 | epot = -20.463690623264 | etot = -16.6985547274179
411000  ekin = 2.08555135276276 |  erot = 2.59549110499746 | epot = -20.5412198645417 | etot = -15.8601774067815
412000  ekin = 2.10527284136691 |  erot = 2.15029987186114 | epot = -20.6006753340785 | etot = -16.3451026208505
413000  ekin = 2.3138767660687 |  erot = 2.3460194787523 | epot = -20.4649879426563 | etot = -15.8050916978353
414000  ekin = 2.20594134672254 |  erot = 3.13249628832207 | epot = -20.3739492967033 | etot = -15.0355116616587
415000  ekin = 2.51484908920425 |  erot = 2.37570786813853 | epot = -20.3458963865237 | etot = -15.4553394291809
416000  ekin = 2.40397390514623 |  erot = 3.01104628320283 | epot = -20.2513479647614 | etot = -14.8363277764123
417000  ekin = 2.58104593652433 |  erot = 3.03430181092136 | epot = -20.2280519268332 | etot = -14.6127041793875
418000  ekin = 2.66227596979347 |  erot = 2.93716872067351 | epot = -20.2616737173723 | etot = -14.6622290269053
419000  ekin = 2.14943138164847 |  erot = 2.64803956418195 | epot = -20.264145219093 | etot = -15.4666742732626
420000  ekin = 1.72747018007148 |  erot = 2.7603479756351 | epot = -20.2016935813705 | etot = -15.7138754256639
421000  ekin = 2.07990996992537 |  erot = 2.4973504225713 | epot = -20.0914323614563 | etot = -15.5141719689597
422000  ekin = 1.89134172132532 |  erot = 2.54662530612421 | epot = -20.0447479309789 | etot = -15.6067809035294
423000  ekin = 2.58508710347089 |  erot = 2.29877340807843 | epot = -20.0905645853262 | etot = -15.2067040737769
424000  ekin = 2.92048696759008 |  erot = 1.57838610483115 | epot = -20.1912174577401 | etot = -15.6923443853189
425000  ekin = 2.3503703242082 |  erot = 2.6939739689077 | epot = -20.1826895049774 | etot = -15.1383452118615
426000  ekin = 2.22168623423727 |  erot = 2.47437452441745 | epot = -20.0723118749851 | etot = -15.3762511163304
427000  ekin = 1.93800562615018 |  erot = 2.63387195402405 | epot = -20.0657753528381 | etot = -15.4938977726639
428000  ekin = 2.21486790291174 |  erot = 2.10875271281421 | epot = -20.1925926621884 | etot = -15.8689720464624
429000  ekin = 1.98506415777162 |  erot = 1.65644401380905 | epot = -20.269673517991 | etot = -16.6281653464103
430000  ekin = 1.65822263867087 |  erot = 2.80750721581718 | epot = -20.3335284290795 | etot = -15.8677985745914
431000  ekin = 2.13643211407969 |  erot = 1.53825195205633 | epot = -20.324054036477 | etot = -16.649369970341
432000  ekin = 1.96168645641422 |  erot = 1.91819704003936 | epot = -20.3846743731169 | etot = -16.5047908766633
433000  ekin = 1.66143135350612 |  erot = 2.49432196063527 | epot = -20.5150299004251 | etot = -16.3592765862837
434000  ekin = 1.47853665852404 |  erot = 2.34802901419081 | epot = -20.508620600715 | etot = -16.6820549280002
435000  ekin = 1.90155323299398 |  erot = 1.86243458711087 | epot = -20.5057684053578 | etot = -16.741780585253
436000  ekin = 2.00653018266252 |  erot = 2.01233928149676 | epot = -20.4105781753051 | etot = -16.3917087111458
437000  ekin = 2.01807440097076 |  erot = 2.70772334845618 | epot = -20.3444723819269 | etot = -15.6186746325
438000  ekin = 2.92542085088362 |  erot = 1.76608614793686 | epot = -20.2709764676754 | etot = -15.5794694688549
439000  ekin = 2.7094345959839 |  erot = 2.86427568781434 | epot = -20.1991233226328 | etot = -14.6254130388346
440000  ekin = 2.50165663912229 |  erot = 3.15662971445041 | epot = -20.1630904419972 | etot = -14.5048040884245
441000  ekin = 2.66218138783034 |  erot = 2.38249255937436 | epot = -20.1078485092067 | etot = -15.063174562002
442000  ekin = 2.09884602008468 |  erot = 1.69492117504485 | epot = -20.1293237206481 | etot = -16.3355565255186
443000  ekin = 1.83675305195932 |  erot = 2.40117155433001 | epot = -20.2444036617778 | etot = -16.0064790554885
444000  ekin = 2.23907158730481 |  erot = 2.39021075478672 | epot = -20.3413155885449 | etot = -15.7120332464534
445000  ekin = 1.60461351507068 |  erot = 2.42654085142641 | epot = -20.3618932780596 | etot = -16.3307389115625
446000  ekin = 1.66887337090825 |  erot = 2.33443324433889 | epot = -20.3992640872204 | etot = -16.3959574719733
447000  ekin = 2.06469231731045 |  erot = 2.43335359051358 | epot = -20.3530985234226 | etot = -15.8550526155986
448000  ekin = 2.87176423240965 |  erot = 2.36370109500329 | epot = -20.326546771775 | etot = -15.091081444362
449000  ekin = 2.75944681775365 |  erot = 2.23697025732503 | epot = -20.2722312225661 | etot = -15.2758141474874
450000  ekin = 1.83314196513689 |  erot = 2.16796044645558 | epot = -20.3178885723692 | etot = -16.3167861607767
451000  ekin = 1.83261445783196 |  erot = 2.16068524946403 | epot = -20.3779027846418 | etot = -16.3846030773458
452000  ekin = 1.83347777646493 |  erot = 2.44438624871729 | epot = -20.3626243459477 | etot = -16.0847603207655
453000  ekin = 2.2417948225134 |  erot = 3.2637152689977 | epot = -20.1910061931263 | etot = -14.6854961016152
454000  ekin = 2.35658314340669 |  erot = 2.29919507579684 | epot = -20.0403078938501 | etot = -15.3845296746466
455000  ekin = 2.30080167907004 |  erot = 2.59309610035491 | epot = -19.9244118853603 | etot = -15.0305141059353
456000  ekin = 2.31751241036553 |  erot = 1.96901684548311 | epot = -19.8345457136493 | etot = -15.5480164578006
457000  ekin = 2.35831047697486 |  erot = 3.29682345908104 | epot = -19.853237683047 | etot = -14.1981037469911
458000  ekin = 1.87354224894056 |  erot = 2.52564204489951 | epot = -19.897949132578 | etot = -15.4987648387379
459000  ekin = 2.68247099519307 |  erot = 2.36817534954795 | epot = -20.0649130774861 | etot = -15.0142667327451
460000  ekin = 2.51818092530534 |  erot = 2.46277017057004 | epot = -20.1235491811362 | etot = -15.1425980852608
461000  ekin = 2.31880094187306 |  erot = 2.53235546535914 | epot = -20.1203758299545 | etot = -15.2692194227223
462000  ekin = 2.12791570850434 |  erot = 2.88685144625382 | epot = -20.0941022743702 | etot = -15.079335119612
463000  ekin = 1.86280316554262 |  erot = 3.56105147201551 | epot = -19.9922507516173 | etot = -14.5683961140592
464000  ekin = 1.65471175894172 |  erot = 1.95331214557289 | epot = -19.9609259978904 | etot = -16.3529020933758
465000  ekin = 1.66995170982479 |  erot = 3.93486467011958 | epot = -20.001459240092 | etot = -14.3966428601477
466000  ekin = 1.85789656205662 |  erot = 2.51431804300851 | epot = -20.1777729439741 | etot = -15.805558338909
467000  ekin = 1.80007225679483 |  erot = 2.32305986065848 | epot = -20.2595670017821 | etot = -16.1364348843287
468000  ekin = 1.60434044260887 |  erot = 2.53687320248403 | epot = -20.3174391093868 | etot = -16.1762254642939
469000  ekin = 2.12511917709205 |  erot = 3.04713950204261 | epot = -20.3250840966292 | etot = -15.1528254174945
470000  ekin = 2.19080624630342 |  erot = 3.06797948693252 | epot = -20.2568369960253 | etot = -14.9980512627893
471000  ekin = 2.53609474899934 |  erot = 2.01288250194533 | epot = -20.0871158145543 | etot = -15.5381385636096
472000  ekin = 2.186895711787 |  erot = 2.20738884854999 | epot = -19.9857052273849 | etot = -15.5914206670479
473000  ekin = 2.6827830837034 |  erot = 2.98532143500359 | epot = -19.9278050652209 | etot = -14.2597005465139
474000  ekin = 2.35347576544017 |  erot = 1.60818862423581 | epot = -19.9101988116604 | etot = -15.9485344219844
475000  ekin = 2.59778481726142 |  erot = 1.87756563541795 | epot = -20.0156809311114 | etot = -15.540330478432
476000  ekin = 2.37944588210687 |  erot = 2.07193946347373 | epot = -20.0056427590135 | etot = -15.5542574134329
477000  ekin = 2.96291367053978 |  erot = 2.65306982379557 | epot = -20.1104178967575 | etot = -14.4944344024221
478000  ekin = 2.53264837126516 |  erot = 3.31797592526183 | epot = -20.2563914381042 | etot = -14.4057671415772
479000  ekin = 1.89931215938048 |  erot = 3.3739882817738 | epot = -20.326859707284 | etot = -15.0535592661297
480000  ekin = 1.95051082123462 |  erot = 2.50819098167733 | epot = -20.374526054926 | etot = -15.9158242520141
481000  ekin = 2.51921802474917 |  erot = 2.37663949775375 | epot = -20.4176334723208 | etot = -15.5217759498179
482000  ekin = 2.95015930344798 |  erot = 1.8513382992358 | epot = -20.522212659863 | etot = -15.7207150571792
483000  ekin = 2.30454726457416 |  erot = 2.51007055516216 | epot = -20.5979018726517 | etot = -15.7832840529154
484000  ekin = 2.90160086311199 |  erot = 2.73311411727587 | epot = -20.6335346859617 | etot = -14.9988197055739
485000  ekin = 2.53752705214054 |  erot = 2.50229884636447 | epot = -20.6748733641132 | etot = -15.6350474656082
486000  ekin = 1.82325139915813 |  erot = 2.39980624211393 | epot = -20.6562104770682 | etot = -16.4331528357961
487000  ekin = 2.1711533290416 |  erot = 3.53672146807429 | epot = -20.7337968563405 | etot = -15.0259220592246
488000  ekin = 2.4313116356346 |  erot = 3.63643688883023 | epot = -20.8366978205568 | etot = -14.768949296092
489000  ekin = 1.80975817340035 |  erot = 2.16746852731286 | epot = -20.9713526288043 | etot = -16.9941259280911
490000  ekin = 1.91886902308968 |  erot = 2.90616400797623 | epot = -21.0778621980834 | etot = -16.2528291670175
491000  ekin = 2.05731750394549 |  erot = 2.9158609437173 | epot = -21.1922437330679 | etot = -16.2190652854051
492000  ekin = 2.05004801133222 |  erot = 3.43699412012175 | epot = -21.3173131351883 | etot = -15.8302710037343
493000  ekin = 1.77159459106831 |  erot = 2.616016844702 | epot = -21.4071671239861 | etot = -17.0195556882158
494000  ekin = 2.81260746431339 |  erot = 2.66584464666153 | epot = -21.4763538774473 | etot = -15.9979017664724
495000  ekin = 2.50319513517912 |  erot = 2.72329227712703 | epot = -21.5172897628178 | etot = -16.2908023505116
496000  ekin = 1.69115266466532 |  erot = 2.39474928001116 | epot = -21.4742419476093 | etot = -17.3883400029328
497000  ekin = 2.44050512257241 |  erot = 1.91718313716498 | epot = -21.3447526572289 | etot = -16.9870643974916
498000  ekin = 2.24762388746851 |  erot = 2.08162502546319 | epot = -21.2551082358199 | etot = -16.9258593228883
499000  ekin = 3.11740025193822 |  erot = 1.78875243770483 | epot = -21.2314178167815 | etot = -16.3252651271384
500000  ekin = 2.09765243705066 |  erot = 2.69227459492293 | epot = -21.2086242204009 | etot = -16.4186971884273
501000  ekin = 2.24828655301258 |  erot = 2.15112591471208 | epot = -21.0546472147234 | etot = -16.6552347469988
502000  ekin = 2.01993839482456 |  erot = 2.54114413981723 | epot = -20.9403245523271 | etot = -16.3792420176853
503000  ekin = 2.12373572447829 |  erot = 3.366590267231 | epot = -20.8667032848681 | etot = -15.3763772931588
504000  ekin = 2.46350802161708 |  erot = 3.3145736317215 | epot = -20.779110699506 | etot = -15.0010290461674
505000  ekin = 3.11987956261102 |  erot = 2.72325921562311 | epot = -20.7817382187639 | etot = -14.9385994405298
506000  ekin = 2.92484304604434 |  erot = 2.28972983412041 | epot = -20.7544833703253 | etot = -15.5399104901606
507000  ekin = 3.71518675739341 |  erot = 2.23346745995615 | epot = -20.8669147645377 | etot = -14.9182605471882
508000  ekin = 3.2833461614869 |  erot = 2.96881689665496 | epot = -21.0540960766287 | etot = -14.8019330184869
509000  ekin = 2.99009784928013 |  erot = 2.6194550755102 | epot = -21.1696185853116 | etot = -15.5600656605212
510000  ekin = 2.91146555226115 |  erot = 1.7351294038524 | epot = -21.2476465597361 | etot = -16.6010516036225
511000  ekin = 2.60021299857668 |  erot = 1.43544405936248 | epot = -21.3253632870993 | etot = -17.2897062291601
512000  ekin = 2.02970755465749 |  erot = 2.16254978785826 | epot = -21.423793952397 | etot = -17.2315366098812
513000  ekin = 1.28128111291514 |  erot = 2.56472434135736 | epot = -21.5074176538797 | etot = -17.6614121996072
514000  ekin = 1.69728610641755 |  erot = 2.50579908706835 | epot = -21.6116383418588 | etot = -17.4085531483729
515000  ekin = 1.96814679878174 |  erot = 1.7332186089178 | epot = -21.6685117976104 | etot = -17.9671463899108
516000  ekin = 2.40233832290582 |  erot = 2.40446480211802 | epot = -21.7559776490947 | etot = -16.9491745240709
517000  ekin = 2.26767464898029 |  erot = 2.63985529086677 | epot = -21.8176269935124 | etot = -16.9100970536653
518000  ekin = 1.85568204074544 |  erot = 2.22857990217156 | epot = -21.809273262524 | etot = -17.725011319607
519000  ekin = 2.30147704698169 |  erot = 2.87305923151987 | epot = -21.8963189970375 | etot = -16.721782718536
520000  ekin = 1.71638720332723 |  erot = 2.6601300783116 | epot = -21.9426964260451 | etot = -17.5661791444063
521000  ekin = 2.01974912202236 |  erot = 2.36582562178059 | epot = -21.9357096290975 | etot = -17.5501348852946
522000  ekin = 2.29089166223601 |  erot = 2.97096451333945 | epot = -21.8328115279192 | etot = -16.5709553523437
523000  ekin = 2.00332810145025 |  erot = 2.52997354689617 | epot = -21.8197251002463 | etot = -17.2864234518999
524000  ekin = 2.56028576870021 |  erot = 2.17945695229195 | epot = -21.8891247830004 | etot = -17.1493820620082
525000  ekin = 2.13606975671418 |  erot = 2.18386416902867 | epot = -22.0088703575634 | etot = -17.6889364318205
526000  ekin = 2.6266463230623 |  erot = 2.29511500767329 | epot = -22.1132898012097 | etot = -17.1915284704741
527000  ekin = 2.499347642124 |  erot = 2.06939435180649 | epot = -22.0394887072411 | etot = -17.4707467133106
528000  ekin = 2.95934805417995 |  erot = 2.14178574234221 | epot = -22.0425698498456 | etot = -16.9414360533234
529000  ekin = 3.49186644168699 |  erot = 3.12092842032286 | epot = -21.9896253333055 | etot = -15.3768304712957
530000  ekin = 3.4070271819895 |  erot = 2.79214803400251 | epot = -21.9437945658559 | etot = -15.7446193498639
531000  ekin = 3.15680110657117 |  erot = 2.25918773702242 | epot = -21.934041928131 | etot = -16.5180530845375
532000  ekin = 3.05817396923003 |  erot = 2.49785182539026 | epot = -22.0268430292477 | etot = -16.4708172346274
533000  ekin = 2.47889031524147 |  erot = 2.07480095574302 | epot = -21.9989896181436 | etot = -17.4452983471591
534000  ekin = 2.02755862410909 |  erot = 1.74749904740666 | epot = -21.9376047717871 | etot = -18.1625471002713
535000  ekin = 2.47179242753511 |  erot = 2.45704012106125 | epot = -21.816277432611 | etot = -16.8874448840147
536000  ekin = 2.07213939743727 |  erot = 2.0294331138596 | epot = -21.7921009540847 | etot = -17.6905284427879
537000  ekin = 1.82766523426288 |  erot = 2.86900168118761 | epot = -21.8273662342365 | etot = -17.130699318786
538000  ekin = 2.7387168552056 |  erot = 2.12305877523771 | epot = -21.8144890186803 | etot = -16.952713388237
539000  ekin = 2.85645929702389 |  erot = 1.59136578129351 | epot = -21.9032894202844 | etot = -17.455464341967
540000  ekin = 2.44263164316874 |  erot = 1.93344983951606 | epot = -22.0461482421766 | etot = -17.6700667594918
541000  ekin = 2.99164758798521 |  erot = 2.78110988210369 | epot = -22.1094710367189 | etot = -16.33671356663
542000  ekin = 1.88437786877021 |  erot = 2.69983456587556 | epot = -22.170049707328 | etot = -17.5858372726823
543000  ekin = 2.78561654681575 |  erot = 2.32494373806523 | epot = -22.3371392266546 | etot = -17.2265789417736
544000  ekin = 2.26238941490537 |  erot = 1.75984026070127 | epot = -22.4044443167754 | etot = -18.3822146411687
545000  ekin = 2.16156561712341 |  erot = 2.47025909066086 | epot = -22.4497203735798 | etot = -17.8178956657955
546000  ekin = 2.22358838818173 |  erot = 2.31988408776537 | epot = -22.482643801478 | etot = -17.9391713255309
547000  ekin = 2.19712621147028 |  erot = 1.63906364423738 | epot = -22.389817693167 | etot = -18.5536278374594
548000  ekin = 1.51032633802649 |  erot = 2.34823244367625 | epot = -22.3874093022576 | etot = -18.5288505205548
549000  ekin = 1.40486100415305 |  erot = 2.31768747118255 | epot = -22.4618217230234 | etot = -18.7392732476879
550000  ekin = 1.62291781227763 |  erot = 1.75552862370979 | epot = -22.549725953455 | etot = -19.1712795174675
551000  ekin = 1.88676425743514 |  erot = 2.71329152488648 | epot = -22.5643075195419 | etot = -17.9642517372203
552000  ekin = 2.01762811460725 |  erot = 2.40168378382918 | epot = -22.4887523073802 | etot = -18.0694404089438
553000  ekin = 2.575871241193 |  erot = 2.26685777518883 | epot = -22.4994849213804 | etot = -17.6567559049986
554000  ekin = 2.9575931575439 |  erot = 2.61177071046529 | epot = -22.5234973237222 | etot = -16.954133455713
555000  ekin = 2.28332371824101 |  erot = 2.87998446447841 | epot = -22.5874436764632 | etot = -17.4241354937437
556000  ekin = 2.46907430964198 |  erot = 2.0256597997427 | epot = -22.6208775453815 | etot = -18.1261434359969
557000  ekin = 2.24899387510303 |  erot = 2.39419169075788 | epot = -22.6703262692177 | etot = -18.0271407033568
558000  ekin = 2.71437930211668 |  erot = 2.28346129362921 | epot = -22.6874572962056 | etot = -17.6896167004597
559000  ekin = 2.68304803331321 |  erot = 2.04932053534659 | epot = -22.6344720614715 | etot = -17.9021034928117
560000  ekin = 2.58787178713846 |  erot = 2.24928321032224 | epot = -22.5736568407678 | etot = -17.7365018433071
561000  ekin = 2.58043988633023 |  erot = 1.98199100633948 | epot = -22.4429992470459 | etot = -17.8805683543762
562000  ekin = 2.29927524273564 |  erot = 3.18188488551155 | epot = -22.287237417765 | etot = -16.8060772895178
563000  ekin = 2.17011945283455 |  erot = 2.5972098723297 | epot = -22.3246589311327 | etot = -17.5573296059685
564000  ekin = 1.98522306584759 |  erot = 1.99397732123941 | epot = -22.3408244706878 | etot = -18.3616240836008
565000  ekin = 2.2220491188364 |  erot = 2.04464737334718 | epot = -22.4493799179511 | etot = -18.1826834257675
566000  ekin = 1.84156813585093 |  erot = 2.7052902359086 | epot = -22.4410160518075 | etot = -17.8941576800479
567000  ekin = 3.02204239053264 |  erot = 3.24943052583044 | epot = -22.4316407465854 | etot = -16.1601678302223
568000  ekin = 3.44576365667645 |  erot = 2.27344044248588 | epot = -22.5283884856979 | etot = -16.8091843865356
569000  ekin = 3.02730051114882 |  erot = 3.04151822464621 | epot = -22.5065762014916 | etot = -16.4377574656966
570000  ekin = 2.81674016105211 |  erot = 2.60689581966592 | epot = -22.4733068766407 | etot = -17.0496708959227
571000  ekin = 2.97181953192571 |  erot = 2.77708428753638 | epot = -22.5242663658691 | etot = -16.775362546407
572000  ekin = 2.19018829046877 |  erot = 2.27074414431636 | epot = -22.5063969472132 | etot = -18.0454645124281
573000  ekin = 2.49976335587693 |  erot = 2.11004785480543 | epot = -22.5559025553868 | etot = -17.9460913447044
574000  ekin = 3.08302568953388 |  erot = 2.62950278422063 | epot = -22.6392081963577 | etot = -16.9266797226032
575000  ekin = 2.15594243104009 |  erot = 2.13055081467088 | epot = -22.6666563161298 | etot = -18.3801630704188
576000  ekin = 2.79602504380197 |  erot = 2.82599422424087 | epot = -22.5727968068264 | etot = -16.9507775387836
577000  ekin = 3.24211145364671 |  erot = 2.62989975798801 | epot = -22.5725072763476 | etot = -16.7004960647129
578000  ekin = 2.37043073152954 |  erot = 2.55457335543864 | epot = -22.4217179154841 | etot = -17.4967138285159
579000  ekin = 2.004623303683 |  erot = 2.11256355068972 | epot = -22.2890550197002 | etot = -18.1718681653274
580000  ekin = 2.46186474866057 |  erot = 2.15043415178293 | epot = -22.1867602527968 | etot = -17.5744613523533
581000  ekin = 2.42646914452466 |  erot = 2.84865557232425 | epot = -22.1422737283762 | etot = -16.8671490115273
582000  ekin = 1.83989043239753 |  erot = 3.20515294707749 | epot = -22.190707284627 | etot = -17.145663905152
583000  ekin = 1.8221312833767 |  erot = 3.11129995307954 | epot = -22.2772597226654 | etot = -17.3438284862092
584000  ekin = 2.38232746989683 |  erot = 1.97362131675281 | epot = -22.3012171665544 | etot = -17.9452683799048
585000  ekin = 1.88837134888157 |  erot = 2.24141216552833 | epot = -22.1818327856936 | etot = -18.0520492712837
586000  ekin = 2.4865049042441 |  erot = 1.63816221257403 | epot = -22.1391058849745 | etot = -18.0144387681563
587000  ekin = 2.45716902128221 |  erot = 2.23471038644307 | epot = -22.1665170269878 | etot = -17.4746376192625
588000  ekin = 2.54015923186908 |  erot = 1.72666548015711 | epot = -22.1388677668669 | etot = -17.8720430548408
589000  ekin = 1.95785791747518 |  erot = 2.32182180260208 | epot = -22.1823368876026 | etot = -17.9026571675254
590000  ekin = 3.0693858729009 |  erot = 1.70385545144917 | epot = -22.1612025423003 | etot = -17.3879612179502
591000  ekin = 1.857452610614 |  erot = 2.5815816555521 | epot = -22.125235339337 | etot = -17.6862010731709
592000  ekin = 2.08370307510696 |  erot = 3.7887435223463 | epot = -22.1612182945732 | etot = -16.2887716971199
593000  ekin = 2.0363360919261 |  erot = 2.86651716738088 | epot = -22.1637245197498 | etot = -17.2608712604428
594000  ekin = 2.550604808165 |  erot = 1.67902805584315 | epot = -22.1532510930261 | etot = -17.923618229018
595000  ekin = 2.16687328786212 |  erot = 1.91215082688957 | epot = -22.1596120172239 | etot = -18.0805879024723
596000  ekin = 1.88499460216773 |  erot = 1.93380364432106 | epot = -22.1921117540946 | etot = -18.3733135076058
597000  ekin = 1.5579806314959 |  erot = 2.82241029028705 | epot = -22.2409859137509 | etot = -17.8605949919679
598000  ekin = 1.82991612774801 |  erot = 2.46398345346961 | epot = -22.2189469104398 | etot = -17.9250473292222
599000  ekin = 2.36423145294125 |  erot = 2.48303557748004 | epot = -22.2034969980363 | etot = -17.356229967615
600000  ekin = 2.0092047602418 |  erot = 2.48968346065476 | epot = -22.1180232436743 | etot = -17.6191350227778
601000  ekin = 2.359596928042 |  erot = 2.91211479062806 | epot = -21.9850309373585 | etot = -16.7133192186884
602000  ekin = 1.9496255189497 |  erot = 2.06349712637936 | epot = -21.8268890328184 | etot = -17.8137663874893
603000  ekin = 2.07691897449729 |  erot = 2.77962367505674 | epot = -21.701847039926 | etot = -16.845304390372
604000  ekin = 1.83038895973186 |  erot = 2.89647647782356 | epot = -21.6933206591155 | etot = -16.9664552215601
605000  ekin = 1.90881330958552 |  erot = 2.76144298220857 | epot = -21.646947679332 | etot = -16.9766913875379
606000  ekin = 2.57385433910675 |  erot = 2.1964504177381 | epot = -21.6435167015862 | etot = -16.8732119447413
607000  ekin = 3.57562679725143 |  erot = 3.46826635718132 | epot = -21.7288935649017 | etot = -14.6850004104689
608000  ekin = 2.68939298485363 |  erot = 2.36058796336657 | epot = -21.7914644647537 | etot = -16.7414835165335
609000  ekin = 2.5671373297698 |  erot = 2.58657036263051 | epot = -21.8386717434035 | etot = -16.6849640510032
610000  ekin = 3.02087096996248 |  erot = 3.34178792544732 | epot = -21.9261377523523 | etot = -15.5634788569425
611000  ekin = 2.90552483882157 |  erot = 3.09090105931876 | epot = -22.0177990533077 | etot = -16.0213731551674
612000  ekin = 2.35852123435901 |  erot = 2.08897589334564 | epot = -22.107962167217 | etot = -17.6604650395123
613000  ekin = 2.49939494423232 |  erot = 2.13363848500006 | epot = -22.1410562676797 | etot = -17.5080228384473
614000  ekin = 2.2565312346277 |  erot = 2.80120244846632 | epot = -22.0537056408227 | etot = -16.9959719577287
615000  ekin = 2.32616986635187 |  erot = 2.36230569252627 | epot = -22.0033539029756 | etot = -17.3148783440974
616000  ekin = 2.97524764771825 |  erot = 2.6220762161882 | epot = -22.0597579115787 | etot = -16.4624340476722
617000  ekin = 3.55567955264756 |  erot = 2.49254789273405 | epot = -22.1745622782859 | etot = -16.1263348329043
618000  ekin = 3.57269332956949 |  erot = 2.47796181164691 | epot = -22.2534046029412 | etot = -16.2027494617248
619000  ekin = 3.05773069491397 |  erot = 2.32183119915686 | epot = -22.3228012415381 | etot = -16.9432393474672
620000  ekin = 3.86381285773686 |  erot = 1.88552758078665 | epot = -22.2903826065999 | etot = -16.5410421680764
621000  ekin = 2.82207543037133 |  erot = 1.72967010841487 | epot = -22.2345185884858 | etot = -17.6827730496996
622000  ekin = 2.58848141148969 |  erot = 3.03160872610433 | epot = -22.178277971133 | etot = -16.558187833539
623000  ekin = 2.28726191466577 |  erot = 2.55787573753584 | epot = -22.0424826026596 | etot = -17.197344950458
624000  ekin = 2.44464747373672 |  erot = 3.40938574053486 | epot = -22.1574878371573 | etot = -16.3034546228857
625000  ekin = 2.94426856987708 |  erot = 2.04122293803043 | epot = -22.188540407336 | etot = -17.2030488994285
626000  ekin = 2.19326941416386 |  erot = 2.63861580108877 | epot = -22.2361524541037 | etot = -17.404267238851
627000  ekin = 2.32301148456835 |  erot = 2.13912695539669 | epot = -22.3517457885911 | etot = -17.889607348626
628000  ekin = 2.3436823847645 |  erot = 2.76757492030586 | epot = -22.4658227164533 | etot = -17.3545654113829
629000  ekin = 1.70176340864726 |  erot = 2.22993463257926 | epot = -22.5980276059285 | etot = -18.666329564702
630000  ekin = 2.00438525152254 |  erot = 1.9186159517769 | epot = -22.6880419032015 | etot = -18.765040699902
631000  ekin = 2.24094986098823 |  erot = 2.11278923415218 | epot = -22.7203908130445 | etot = -18.3666517179041
632000  ekin = 1.99406794271065 |  erot = 2.95514055935848 | epot = -22.7813700341949 | etot = -17.8321615321258
633000  ekin = 2.50228926040913 |  erot = 2.95087118704612 | epot = -22.8557750135243 | etot = -17.4026145660691
634000  ekin = 1.95232936980033 |  erot = 2.50459145675636 | epot = -22.8545697481037 | etot = -18.397648921547
635000  ekin = 2.6961898834621 |  erot = 2.72970313738217 | epot = -22.8238012745757 | etot = -17.3979082537315
636000  ekin = 2.47376191392543 |  erot = 2.84406047985084 | epot = -22.7775284922984 | etot = -17.4597060985222
637000  ekin = 2.91776239743711 |  erot = 2.52943953616358 | epot = -22.7566089684347 | etot = -17.309407034834
638000  ekin = 3.1125011100995 |  erot = 3.17420862697257 | epot = -22.7274383358149 | etot = -16.4407285987428
639000  ekin = 2.66297724022844 |  erot = 1.91105987905998 | epot = -22.774257150919 | etot = -18.2002200316306
640000  ekin = 2.40814160144978 |  erot = 2.46973134675557 | epot = -22.8070131491381 | etot = -17.9291402009328
641000  ekin = 1.96108669984758 |  erot = 1.84635985918408 | epot = -22.8181430638745 | etot = -19.0106965048428
642000  ekin = 2.32142054700006 |  erot = 2.20075534720682 | epot = -22.7903353183538 | etot = -18.2681594241469
643000  ekin = 2.21692248310665 |  erot = 2.10335634272443 | epot = -22.6923706847504 | etot = -18.3720918589194
644000  ekin = 2.50952807701156 |  erot = 3.34902458900479 | epot = -22.5717791687292 | etot = -16.7132265027128
645000  ekin = 1.94559845277959 |  erot = 2.55591091226444 | epot = -22.5399403587402 | etot = -18.0384309936961
646000  ekin = 2.40016600313851 |  erot = 2.29574399480739 | epot = -22.5984588021702 | etot = -17.9025488042243
647000  ekin = 1.95019619060449 |  erot = 2.30803841460414 | epot = -22.5889976028201 | etot = -18.3307629976115
648000  ekin = 1.76204952720165 |  erot = 1.86470240981947 | epot = -22.5384263525641 | etot = -18.9116744155429
649000  ekin = 1.63729402740461 |  erot = 1.59199815162114 | epot = -22.5317608465785 | etot = -19.3024686675528
650000  ekin = 1.94512401529551 |  erot = 2.03507525549448 | epot = -22.6087478122982 | etot = -18.6285485415082
651000  ekin = 1.9462228303073 |  erot = 2.18718567007199 | epot = -22.6633177394453 | etot = -18.529909239066
652000  ekin = 2.69972938964267 |  erot = 1.93392807782213 | epot = -22.6929256938762 | etot = -18.0592682264114
653000  ekin = 2.21168299855254 |  erot = 2.09159219524968 | epot = -22.7399752416954 | etot = -18.4367000478932
654000  ekin = 2.0080689360848 |  erot = 2.02847802917546 | epot = -22.7367310132498 | etot = -18.7001840479895
655000  ekin = 2.01646820685408 |  erot = 2.1251764560695 | epot = -22.7047154268965 | etot = -18.563070763973
656000  ekin = 2.46598794050094 |  erot = 2.81798171292441 | epot = -22.6431069445574 | etot = -17.359137291132
657000  ekin = 2.96062468442597 |  erot = 3.03608303488132 | epot = -22.5190674190161 | etot = -16.5223596997088
658000  ekin = 3.23710801763439 |  erot = 2.16711922359953 | epot = -22.3408740861506 | etot = -16.9366468449167
659000  ekin = 2.52138564826716 |  erot = 3.56762001215687 | epot = -22.1645091928986 | etot = -16.0755035324746
660000  ekin = 2.08600587002599 |  erot = 2.63395200613317 | epot = -22.0504092561474 | etot = -17.3304513799882
661000  ekin = 2.16799967770767 |  erot = 2.26908609048044 | epot = -21.977128692532 | etot = -17.5400429243439
662000  ekin = 2.06941804486314 |  erot = 2.3748589551122 | epot = -21.8120613900184 | etot = -17.3677843900431
663000  ekin = 2.09390889109106 |  erot = 2.06591296246712 | epot = -21.5696403542568 | etot = -17.4098185006986
664000  ekin = 1.92615021175434 |  erot = 2.18264466217111 | epot = -21.536379225689 | etot = -17.4275843517636
665000  ekin = 2.28148475816236 |  erot = 2.80798615339528 | epot = -21.6159051583616 | etot = -16.526434246804
666000  ekin = 1.71501354689833 |  erot = 2.50623109840159 | epot = -21.6769260751917 | etot = -17.4556814298917
667000  ekin = 2.09990319245617 |  erot = 2.7277344162151 | epot = -21.7302790947615 | etot = -16.9026414860903
668000  ekin = 1.71377838579664 |  erot = 2.90303247820322 | epot = -21.6468106932679 | etot = -17.029999829268
669000  ekin = 2.1214797995027 |  erot = 2.51968898868649 | epot = -21.4970964980521 | etot = -16.8559277098629
[...]
835000  ekin = 3.09090378216102 |  erot = 2.75962865551323 | epot = -21.1781560700169 | etot = -15.3276236323426
836000  ekin = 2.48674870873051 |  erot = 2.3789089966916 | epot = -21.1180526149454 | etot = -16.2523949095233
837000  ekin = 2.07390534091574 |  erot = 3.03290468066138 | epot = -21.0898346460078 | etot = -15.9830246244307
838000  ekin = 2.21890219157633 |  erot = 2.33745128978811 | epot = -21.1822855455659 | etot = -16.6259320642015
839000  ekin = 2.62060976563713 |  erot = 2.38585863046552 | epot = -21.2809065720863 | etot = -16.2744381759837
840000  ekin = 2.52262689811625 |  erot = 2.96525742985052 | epot = -21.340026552801 | etot = -15.8521422248343
841000  ekin = 2.81120489742367 |  erot = 2.60396614830672 | epot = -21.4227136124347 | etot = -16.0075425667043
842000  ekin = 1.98921241112416 |  erot = 1.82554587748123 | epot = -21.4305157146292 | etot = -17.6157574260238
843000  ekin = 2.34587404515929 |  erot = 2.14089924708526 | epot = -21.372653887208 | etot = -16.8858805949635
844000  ekin = 2.19111029299713 |  erot = 1.61323501086602 | epot = -21.2933719829145 | etot = -17.4890266790513
845000  ekin = 2.30371384261266 |  erot = 2.61820152036068 | epot = -21.1966373828434 | etot = -16.27472201987
846000  ekin = 2.21539482516647 |  erot = 2.99526674993632 | epot = -21.1168795826296 | etot = -15.9062180075268
847000  ekin = 1.95523385983001 |  erot = 2.18984449450422 | epot = -20.9766080128093 | etot = -16.8315296584751
848000  ekin = 2.02886630256597 |  erot = 1.4323091093812 | epot = -20.9721453599725 | etot = -17.5109699480253
849000  ekin = 1.94036027127937 |  erot = 3.01551956517066 | epot = -21.057296191085 | etot = -16.1014163546349
850000  ekin = 2.7816165995701 |  erot = 2.52117542843303 | epot = -21.1982482218979 | etot = -15.8954561938948
851000  ekin = 2.37249913363246 |  erot = 3.29871887449352 | epot = -21.1650745471516 | etot = -15.4938565390256
852000  ekin = 2.27429260902492 |  erot = 3.64648769608065 | epot = -20.985632411987 | etot = -15.0648521068814
853000  ekin = 2.65810096150669 |  erot = 2.41674787825247 | epot = -20.8281182693237 | etot = -15.7532694295645
854000  ekin = 2.5504810780174 |  erot = 2.26327760292054 | epot = -20.7136494057367 | etot = -15.8998907247987
855000  ekin = 2.03333612582139 |  erot = 2.89636185679461 | epot = -20.7011924112921 | etot = -15.7714944286761
856000  ekin = 2.05823841623053 |  erot = 2.90610418966649 | epot = -20.6594494842415 | etot = -15.6951068783444
857000  ekin = 2.67889578836458 |  erot = 2.24685809890735 | epot = -20.6552932231795 | etot = -15.7295393359075
858000  ekin = 2.72411703200006 |  erot = 2.41326587282181 | epot = -20.6299387767681 | etot = -15.4925558719463
859000  ekin = 1.87125142959723 |  erot = 2.79389525070888 | epot = -20.7088029506011 | etot = -16.043656270295
860000  ekin = 2.14209772896332 |  erot = 2.16372673149714 | epot = -20.7962042711422 | etot = -16.4903798106817
861000  ekin = 2.57693736896724 |  erot = 2.99957408909765 | epot = -20.8252085399839 | etot = -15.248697081919
862000  ekin = 2.53576118786593 |  erot = 2.36136883108352 | epot = -20.862609600015 | etot = -15.9654795810655
863000  ekin = 2.88624178683627 |  erot = 2.04148788644275 | epot = -21.0438465425759 | etot = -16.1161168692969
864000  ekin = 2.5793328539957 |  erot = 2.73232916210939 | epot = -21.1877400425289 | etot = -15.8760780264238
865000  ekin = 2.29887385774315 |  erot = 2.68430234472791 | epot = -21.2534438942278 | etot = -16.2702676917568
866000  ekin = 2.51864876072217 |  erot = 3.2392302104677 | epot = -21.3113227797228 | etot = -15.5534438085329
867000  ekin = 2.42110256129631 |  erot = 3.01072616164633 | epot = -21.4005538941483 | etot = -15.9687251712057
868000  ekin = 2.39489221304699 |  erot = 2.42069418854515 | epot = -21.4294418513358 | etot = -16.6138554497437
869000  ekin = 3.10886170771131 |  erot = 2.77968262881702 | epot = -21.3889546508835 | etot = -15.5004103143552
870000  ekin = 2.65835188227213 |  erot = 2.68859904452952 | epot = -21.3293846132565 | etot = -15.9824336864549
871000  ekin = 2.75963360150329 |  erot = 1.84053963201815 | epot = -21.2380750619958 | etot = -16.6379018284743
872000  ekin = 2.07620945029126 |  erot = 1.69306653215201 | epot = -21.1660349411243 | etot = -17.396758958681
873000  ekin = 1.40670860719905 |  erot = 2.2491582175542 | epot = -21.1954055539405 | etot = -17.5395387291872
874000  ekin = 1.36329892604647 |  erot = 2.3537742128612 | epot = -21.2889325033461 | etot = -17.5718593644384
875000  ekin = 1.64226312187479 |  erot = 2.185312441697 | epot = -21.2404499995437 | etot = -17.4128744359719
876000  ekin = 2.05196712418165 |  erot = 2.32798902042396 | epot = -21.231657885496 | etot = -16.8517017408904
877000  ekin = 2.29103829733718 |  erot = 1.97829282713969 | epot = -21.2818216199647 | etot = -17.0124904954878
878000  ekin = 2.21506957849136 |  erot = 2.17286539998992 | epot = -21.2128827764544 | etot = -16.8249477979732
879000  ekin = 2.61168500463637 |  erot = 2.44867928129879 | epot = -21.1037042458631 | etot = -16.0433399599279
880000  ekin = 2.26132988339362 |  erot = 2.8801558424935 | epot = -21.0793790368405 | etot = -15.9378933109534
881000  ekin = 2.93711716673343 |  erot = 2.60589188940392 | epot = -21.0686661189601 | etot = -15.5256570628227
882000  ekin = 3.02903009620458 |  erot = 2.24984603258107 | epot = -21.0754531458418 | etot = -15.7965770170562
883000  ekin = 2.0783056104551 |  erot = 2.0760406097498 | epot = -21.0208897600393 | etot = -16.8665435398344
884000  ekin = 2.42899309436464 |  erot = 2.09552005822318 | epot = -20.958429244589 | etot = -16.4339160920011
885000  ekin = 3.48700591798595 |  erot = 2.35134057639115 | epot = -20.865181709759 | etot = -15.0268352153819
886000  ekin = 2.51755026747336 |  erot = 2.12194197139755 | epot = -20.7946711449436 | etot = -16.1551789060727
887000  ekin = 1.95810181755466 |  erot = 2.22725876766461 | epot = -20.8323255702533 | etot = -16.646964985034
888000  ekin = 2.35426067524532 |  erot = 3.08715450622882 | epot = -20.8181148404103 | etot = -15.3766996589362
889000  ekin = 2.49019428083856 |  erot = 1.83537799546205 | epot = -20.7209581331296 | etot = -16.395385856829
890000  ekin = 1.56642229725145 |  erot = 2.98343588968279 | epot = -20.7691875628829 | etot = -16.2193293759487
891000  ekin = 1.99232202418251 |  erot = 2.45478762541982 | epot = -20.8902362833242 | etot = -16.4431266337218
892000  ekin = 1.69181189252031 |  erot = 2.3378572751646 | epot = -20.9433824969089 | etot = -16.913713329224
893000  ekin = 1.44189854808983 |  erot = 1.97163778019214 | epot = -20.9033048197202 | etot = -17.4897684914383
894000  ekin = 2.03737897710502 |  erot = 2.73993899827525 | epot = -20.9459833683855 | etot = -16.1686653930052
895000  ekin = 1.7364493258592 |  erot = 2.02916108670879 | epot = -21.0271674786347 | etot = -17.2615570660667
896000  ekin = 1.35141177033573 |  erot = 2.7110370523724 | epot = -21.0853449214075 | etot = -17.0228960986994
897000  ekin = 2.02862140523953 |  erot = 2.43828958953912 | epot = -21.0964834414632 | etot = -16.6295724466846
898000  ekin = 2.50792719419542 |  erot = 3.65991185208578 | epot = -21.1357684818513 | etot = -14.9679294355701
899000  ekin = 2.17493901195752 |  erot = 2.39179769013353 | epot = -21.1649293552002 | etot = -16.5981926531092
900000  ekin = 2.51933357197373 |  erot = 2.34747460757647 | epot = -21.1765374135246 | etot = -16.3097292339744
901000  ekin = 2.08729184575083 |  erot = 2.31399756194167 | epot = -21.2127431033834 | etot = -16.8114536956909
902000  ekin = 2.56582956619464 |  erot = 2.37051284920591 | epot = -21.1623494191918 | etot = -16.2260070037913
903000  ekin = 3.09511943086254 |  erot = 2.35844547952287 | epot = -21.1093394447589 | etot = -15.6557745343734
904000  ekin = 3.45899399228749 |  erot = 2.75721166842862 | epot = -21.0636338230779 | etot = -14.8474281623618
905000  ekin = 3.18590015477019 |  erot = 2.01933450962505 | epot = -20.9751383569164 | etot = -15.7699036925211
906000  ekin = 2.74834658408746 |  erot = 2.36686000581768 | epot = -20.9421911730393 | etot = -15.8269845831341
907000  ekin = 2.67635908573604 |  erot = 2.20346023742474 | epot = -20.9854846617402 | etot = -16.1056653385794
908000  ekin = 2.30285288714005 |  erot = 3.52381732710354 | epot = -20.9889815872496 | etot = -15.162311373006
909000  ekin = 2.62328108030907 |  erot = 1.45874272069826 | epot = -21.0120662713385 | etot = -16.9300424703311
910000  ekin = 2.23018605242211 |  erot = 3.14350145656426 | epot = -21.1279580730716 | etot = -15.7542705640852
911000  ekin = 1.88082762623854 |  erot = 2.98177691668358 | epot = -21.1825021145276 | etot = -16.3198975716055
912000  ekin = 2.58086617112005 |  erot = 2.82776033407466 | epot = -21.3213513486301 | etot = -15.9127248434354
913000  ekin = 2.52409091054913 |  erot = 2.45650113751936 | epot = -21.4069666604143 | etot = -16.4263746123458
914000  ekin = 1.93077866878605 |  erot = 2.40292517606587 | epot = -21.4719129192905 | etot = -17.1382090744385
915000  ekin = 2.80940552900773 |  erot = 2.3334977997875 | epot = -21.5507696263312 | etot = -16.407866297536
916000  ekin = 2.91600374041458 |  erot = 2.74499965210426 | epot = -21.50776429003 | etot = -15.8467608975112
917000  ekin = 2.86188129241977 |  erot = 3.27161360672132 | epot = -21.4767653464297 | etot = -15.3432704472886
918000  ekin = 2.85676405598938 |  erot = 2.30273506120003 | epot = -21.5625556928298 | etot = -16.4030565756404
919000  ekin = 2.59643013056644 |  erot = 2.24601400768188 | epot = -21.7096620141385 | etot = -16.8672178758901
920000  ekin = 3.08871813118825 |  erot = 2.73756747861284 | epot = -21.8555084755581 | etot = -16.029222865757
921000  ekin = 2.93381103050428 |  erot = 1.99167307338423 | epot = -21.9026907890168 | etot = -16.9772066851283
922000  ekin = 1.72030208071341 |  erot = 2.19015836330226 | epot = -22.003218481461 | etot = -18.0927580374454
923000  ekin = 2.06868664367905 |  erot = 2.4148428201282 | epot = -22.1043887380011 | etot = -17.6208592741939
924000  ekin = 1.98565397872727 |  erot = 1.80597528266698 | epot = -22.0671406740993 | etot = -18.2755114127051
925000  ekin = 2.19760844104935 |  erot = 1.62325554321967 | epot = -22.075202547563 | etot = -18.254338563294
926000  ekin = 2.24590044595891 |  erot = 2.33960802755446 | epot = -22.0638309838187 | etot = -17.4783225103054
927000  ekin = 1.74874815520284 |  erot = 2.30559935287968 | epot = -21.9549889355932 | etot = -17.9006414275107
928000  ekin = 2.37940585436478 |  erot = 2.43210003778802 | epot = -21.9730383790675 | etot = -17.1615324869147
929000  ekin = 2.14789955679629 |  erot = 2.14717937020945 | epot = -21.9484139324277 | etot = -17.6533350054219
930000  ekin = 1.94660600586844 |  erot = 1.64930420601294 | epot = -21.9042587208928 | etot = -18.3083485090114
931000  ekin = 2.49921658404368 |  erot = 2.2591023507564 | epot = -21.8130915125964 | etot = -17.0547725777963
932000  ekin = 2.82239309394827 |  erot = 2.31994161605693 | epot = -21.7567411383422 | etot = -16.614406428337
933000  ekin = 3.19315060339441 |  erot = 3.19491054677166 | epot = -21.7852477399988 | etot = -15.3971865898327
934000  ekin = 3.36222308158896 |  erot = 2.09481409287677 | epot = -21.847359161852 | etot = -16.3903219873862
935000  ekin = 2.31918014142322 |  erot = 2.85433424707622 | epot = -21.906113909211 | etot = -16.7325995207115
936000  ekin = 2.48766489576112 |  erot = 2.60923524759259 | epot = -21.9980035028509 | etot = -16.9011033594972
937000  ekin = 2.11160126948982 |  erot = 2.08060614435689 | epot = -22.0147358547335 | etot = -17.8225284408867
938000  ekin = 2.33457269538596 |  erot = 1.99277491230659 | epot = -21.9845733921218 | etot = -17.6572257844293
939000  ekin = 2.59411075952893 |  erot = 1.94327049634628 | epot = -22.0273766753235 | etot = -17.4899954194483
940000  ekin = 2.68032819331539 |  erot = 1.85294643743209 | epot = -21.9843720690875 | etot = -17.45109743834
941000  ekin = 1.9946475852202 |  erot = 1.87790629154454 | epot = -21.8952071681073 | etot = -18.0226532913426
942000  ekin = 2.1321029174253 |  erot = 1.49277310831775 | epot = -21.8714620146911 | etot = -18.2465859889481
943000  ekin = 3.04125193404997 |  erot = 3.09678851888315 | epot = -21.9513872070908 | etot = -15.8133467541577
944000  ekin = 2.55673078660389 |  erot = 2.92275108655791 | epot = -21.9515500243905 | etot = -16.4720681512287
945000  ekin = 1.85498702730243 |  erot = 1.96912433563436 | epot = -21.8412985034302 | etot = -18.0171871404934
946000  ekin = 1.89117910835426 |  erot = 2.81990602436628 | epot = -21.7805337073025 | etot = -17.0694485745819
947000  ekin = 2.08456744588424 |  erot = 2.47960880457227 | epot = -21.7648287828156 | etot = -17.2006525323591
948000  ekin = 2.07788107156579 |  erot = 2.33495125343138 | epot = -21.7571326282881 | etot = -17.3443003032909
949000  ekin = 2.6882576480807 |  erot = 2.64563532976085 | epot = -21.7477409398198 | etot = -16.4138479619783
950000  ekin = 2.18233212049096 |  erot = 2.39373829882828 | epot = -21.7450831216406 | etot = -17.1690127023214
951000  ekin = 1.69675259627922 |  erot = 2.14369616362075 | epot = -21.7938454170861 | etot = -17.9533966571861
952000  ekin = 1.9233749829116 |  erot = 2.07716128711449 | epot = -21.7819675318822 | etot = -17.7814312618561
953000  ekin = 1.92945502101507 |  erot = 2.0419837447163 | epot = -21.7503207333625 | etot = -17.7788819676311
954000  ekin = 1.60923480777573 |  erot = 1.6795239019815 | epot = -21.6914773281045 | etot = -18.4027186183473
955000  ekin = 2.22726902656397 |  erot = 1.90968097155062 | epot = -21.6168479890876 | etot = -17.4798979909731
956000  ekin = 1.91074507814038 |  erot = 2.02521677448797 | epot = -21.5324484662257 | etot = -17.5964866135973
957000  ekin = 1.57945569392376 |  erot = 2.34883375498629 | epot = -21.5247814531209 | etot = -17.5964920042108
958000  ekin = 1.7334748501644 |  erot = 2.21447286684229 | epot = -21.5584613735583 | etot = -17.6105136565516
959000  ekin = 2.1217428267739 |  erot = 2.00253304921271 | epot = -21.5782643433887 | etot = -17.4539884674021
960000  ekin = 2.38087531212334 |  erot = 2.7000673233128 | epot = -21.5976277990845 | etot = -16.5166851636483
961000  ekin = 2.79586682352327 |  erot = 3.13885360949775 | epot = -21.5200475426707 | etot = -15.5853271096496
962000  ekin = 2.48430596269748 |  erot = 3.61041021479083 | epot = -21.5259200624603 | etot = -15.431203884972
963000  ekin = 2.03318815312775 |  erot = 1.80037334201252 | epot = -21.4655385952763 | etot = -17.631977100136
964000  ekin = 1.89117344288311 |  erot = 1.84020547997885 | epot = -21.3248488245963 | etot = -17.5934699017344
965000  ekin = 1.52895848573123 |  erot = 2.30749450996226 | epot = -21.3145320041484 | etot = -17.4780790084549
966000  ekin = 2.20206586048471 |  erot = 2.80034781543694 | epot = -21.2745233787505 | etot = -16.2721097028289
967000  ekin = 2.48841364783826 |  erot = 2.6150408582056 | epot = -21.2063698717056 | etot = -16.1029153656618
968000  ekin = 2.08742901802281 |  erot = 2.67482416482085 | epot = -21.1120156774168 | etot = -16.3497624945732
969000  ekin = 1.6881130199616 |  erot = 2.69603710702507 | epot = -21.0585076216385 | etot = -16.6743574946519
970000  ekin = 2.47892170715963 |  erot = 3.02550815508039 | epot = -21.10751582078 | etot = -15.6030859585399
971000  ekin = 2.94768899048295 |  erot = 1.69804162000492 | epot = -21.1500922648875 | etot = -16.5043616543996
972000  ekin = 2.64867816653423 |  erot = 2.46741634791136 | epot = -21.1965497335841 | etot = -16.0804552191385
973000  ekin = 2.82437362517027 |  erot = 1.9252709405042 | epot = -21.2029520589716 | etot = -16.4533074932972
974000  ekin = 2.31207898124633 |  erot = 1.28136884408504 | epot = -21.1755778171284 | etot = -17.5821299917971
975000  ekin = 1.95884057841822 |  erot = 2.15714159184444 | epot = -21.0892900495356 | etot = -16.9733078792729
976000  ekin = 2.703777958474 |  erot = 1.78832940336403 | epot = -20.9986859487739 | etot = -16.5065785869359
977000  ekin = 2.64517526708361 |  erot = 1.93732463693727 | epot = -20.9907073152079 | etot = -16.408207411187
978000  ekin = 2.16381921354365 |  erot = 2.83877150808715 | epot = -21.0357566414917 | etot = -16.0331659198609
979000  ekin = 2.74100950650495 |  erot = 2.33756741780127 | epot = -21.0370906200129 | etot = -15.9585136957067
980000  ekin = 2.36481192505635 |  erot = 2.09350183896744 | epot = -21.0136439083465 | etot = -16.5553301443227
981000  ekin = 2.00756204817999 |  erot = 2.33057786628033 | epot = -21.0165936502567 | etot = -16.6784537357964
982000  ekin = 1.36645476362975 |  erot = 2.11699562590053 | epot = -21.0705958011919 | etot = -17.5871454116616
983000  ekin = 1.71595033442038 |  erot = 2.5477655006833 | epot = -21.1475362624228 | etot = -16.8838204273191
984000  ekin = 2.28506824294966 |  erot = 2.526947313224 | epot = -21.2406857398353 | etot = -16.4286701836617
985000  ekin = 2.63370074201785 |  erot = 1.70674415604096 | epot = -21.3297375835414 | etot = -16.9892926854826
986000  ekin = 2.24359463744301 |  erot = 1.55197044695296 | epot = -21.3540066821269 | etot = -17.5584415977309
987000  ekin = 2.66719934257769 |  erot = 2.60115530773589 | epot = -21.3747331412304 | etot = -16.1063784909168
988000  ekin = 2.87272595713834 |  erot = 2.77722483748334 | epot = -21.4262881005304 | etot = -15.7763373059088
989000  ekin = 3.13038466310324 |  erot = 3.34201843449457 | epot = -21.3852112979936 | etot = -14.9128082003958
990000  ekin = 2.32667225860804 |  erot = 2.57643010383954 | epot = -21.3426776363824 | etot = -16.4395752739348
991000  ekin = 2.2412629293854 |  erot = 1.61677915367798 | epot = -21.3622639300301 | etot = -17.5042218469668
992000  ekin = 1.97222022002654 |  erot = 2.35030665099251 | epot = -21.4514572629028 | etot = -17.1289303918837
993000  ekin = 2.147108921749 |  erot = 2.05475178974566 | epot = -21.4856889795579 | etot = -17.2838282680633
994000  ekin = 2.42364479761691 |  erot = 3.0894247141373 | epot = -21.4654208645574 | etot = -15.9523513528032
995000  ekin = 2.4864794506291 |  erot = 2.30508425018688 | epot = -21.5202202330215 | etot = -16.7286565322055
996000  ekin = 2.65576343082076 |  erot = 2.43914252422242 | epot = -21.4593551754672 | etot = -16.3644492204241
997000  ekin = 2.724083588247 |  erot = 1.84625151978024 | epot = -21.416727497903 | etot = -16.8463923898757
998000  ekin = 1.97919657532959 |  erot = 2.40861941553693 | epot = -21.3776497927063 | etot = -16.9898338018398
999000  ekin = 3.29581116035642 |  erot = 2.6849126945212 | epot = -21.3271095473938 | etot = -15.3463856925162
1000000  ekin = 2.37908794778894 |  erot = 2.62435022560484 | epot = -21.4021317529325 | etot = -16.3986935795387
 1000000   0.10573724   -1.3847646  0.047131324   -1.1889402 -0.00013733953 
Loop time of 104.843 on 4 procs for 1000000 steps with 16 atoms

Performance: 8240.930 tau/day, 9538.114 timesteps/s
56.7% CPU use with 4 MPI tasks x 1 OpenMP threads

MPI task timing breakdown:
Section |  min time  |  avg time  |  max time  |%varavg| %total
---------------------------------------------------------------
Pair    | 1.003      | 36.273     | 74.908     | 586.6 | 34.60
Bond    | 0.15324    | 0.76102    | 1.3859     |  68.5 |  0.73
Neigh   | 0          | 0          | 0          |   0.0 |  0.00
Comm    | 4.1602     | 5.5736     | 6.9396     |  45.4 |  5.32
Output  | 0.23736    | 0.24255    | 0.24901    |   0.9 |  0.23
Modify  | 0.32892    | 7.7115     | 16.74      | 268.4 |  7.36
Other   |            | 54.28      |            |       | 51.77

Nlocal:    4 ave 9 max 0 min
Histogram: 2 0 0 0 0 0 0 1 0 1
Nghost:    10 ave 12 max 7 min
Histogram: 1 0 0 0 1 0 0 0 0 2
Neighs:    35.25 ave 75 max 0 min
Histogram: 2 0 0 0 0 0 0 0 1 1

Total # of neighbors = 141
Ave neighs/atom = 8.8125
Ave special neighs/atom = 3.75
Neighbor list builds = 0
Dangerous builds = 0

#write_restart config.${number}.*
Total wall time: 0:01:44
