NaCl_8_molten_333.data (written by ASE) + shell  Na x=0.5 (1u3) Volume Expanded

432   atoms
216   bonds
0     angles
0     dihedrals

4     atom types
2     bond types
0     angle types
0     dihedral types

0.0 24.09597 xlo xhi
0.0 24.09597 ylo yhi
0.0 24.09597 zlo zhi


Masses

1 20.690784
2 31.90500
3 2.298976
4 3.54500

Atoms 

1    1    2   1.5005    0.0000000000   0.0000000000   0.0000000000
2    1    4  -2.5005    0.0000000000   0.0000000000   0.0000000000
3    2    2   1.5005    0.0000000000   4.0159950000   4.0159950000
4    2    4  -2.5005    0.0000000000   4.0159950000   4.0159950000
5    3    2   1.5005    4.0159950000   0.0000000000   4.0159950000
6    3    4  -2.5005    4.0159950000   0.0000000000   4.0159950000
7    4    2   1.5005    4.0159950000   4.0159950000   0.0000000000
8    4    4  -2.5005    4.0159950000   4.0159950000   0.0000000000
9    5    1   1.5056    4.0159950000   4.0159950000   4.0159950000
10   5    3  -0.5056    4.0159950000   4.0159950000   4.0159950000
11   6    1   1.5056    4.0159950000   0.0000000000   0.0000000000
12   6    3  -0.5056    4.0159950000   0.0000000000   0.0000000000
13   7    1   1.5056    0.0000000000   4.0159950000   0.0000000000
14   7    3  -0.5056    0.0000000000   4.0159950000   0.0000000000
15   8    1   1.5056    0.0000000000   0.0000000000   4.0159950000
16   8    3  -0.5056    0.0000000000   0.0000000000   4.0159950000
17   9    2   1.5005    0.0000000000   0.0000000000   8.0319900000
18   9    4  -2.5005    0.0000000000   0.0000000000   8.0319900000
19   10   2   1.5005    0.0000000000   4.0159950000   12.0479850000
20   10   4  -2.5005    0.0000000000   4.0159950000   12.0479850000
21   11   2   1.5005    4.0159950000   0.0000000000   12.0479850000
22   11   4  -2.5005    4.0159950000   0.0000000000   12.0479850000
23   12   2   1.5005    4.0159950000   4.0159950000   8.0319900000
24   12   4  -2.5005    4.0159950000   4.0159950000   8.0319900000
25   13   1   1.5056    4.0159950000   4.0159950000   12.0479850000
26   13   3  -0.5056    4.0159950000   4.0159950000   12.0479850000
27   14   1   1.5056    4.0159950000   0.0000000000   8.0319900000
28   14   3  -0.5056    4.0159950000   0.0000000000   8.0319900000
29   15   1   1.5056    0.0000000000   4.0159950000   8.0319900000
30   15   3  -0.5056    0.0000000000   4.0159950000   8.0319900000
31   16   1   1.5056    0.0000000000   0.0000000000   12.0479850000
32   16   3  -0.5056    0.0000000000   0.0000000000   12.0479850000
33   17   2   1.5005    0.0000000000   0.0000000000   16.0639800000
34   17   4  -2.5005    0.0000000000   0.0000000000   16.0639800000
35   18   2   1.5005    0.0000000000   4.0159950000   20.0799750000
36   18   4  -2.5005    0.0000000000   4.0159950000   20.0799750000
37   19   2   1.5005    4.0159950000   0.0000000000   20.0799750000
38   19   4  -2.5005    4.0159950000   0.0000000000   20.0799750000
39   20   2   1.5005    4.0159950000   4.0159950000   16.0639800000
40   20   4  -2.5005    4.0159950000   4.0159950000   16.0639800000
41   21   1   1.5056    4.0159950000   4.0159950000   20.0799750000
42   21   3  -0.5056    4.0159950000   4.0159950000   20.0799750000
43   22   1   1.5056    4.0159950000   0.0000000000   16.0639800000
44   22   3  -0.5056    4.0159950000   0.0000000000   16.0639800000
45   23   1   1.5056    0.0000000000   4.0159950000   16.0639800000
46   23   3  -0.5056    0.0000000000   4.0159950000   16.0639800000
47   24   1   1.5056    0.0000000000   0.0000000000   20.0799750000
48   24   3  -0.5056    0.0000000000   0.0000000000   20.0799750000
49   25   2   1.5005    0.0000000000   8.0319900000   0.0000000000
50   25   4  -2.5005    0.0000000000   8.0319900000   0.0000000000
51   26   2   1.5005    0.0000000000   12.0479850000   4.0159950000
52   26   4  -2.5005    0.0000000000   12.0479850000   4.0159950000
53   27   2   1.5005    4.0159950000   8.0319900000   4.0159950000
54   27   4  -2.5005    4.0159950000   8.0319900000   4.0159950000
55   28   2   1.5005    4.0159950000   12.0479850000   0.0000000000
56   28   4  -2.5005    4.0159950000   12.0479850000   0.0000000000
57   29   1   1.5056    4.0159950000   12.0479850000   4.0159950000
58   29   3  -0.5056    4.0159950000   12.0479850000   4.0159950000
59   30   1   1.5056    4.0159950000   8.0319900000   0.0000000000
60   30   3  -0.5056    4.0159950000   8.0319900000   0.0000000000
61   31   1   1.5056    0.0000000000   12.0479850000   0.0000000000
62   31   3  -0.5056    0.0000000000   12.0479850000   0.0000000000
63   32   1   1.5056    0.0000000000   8.0319900000   4.0159950000
64   32   3  -0.5056    0.0000000000   8.0319900000   4.0159950000
65   33   2   1.5005    0.0000000000   8.0319900000   8.0319900000
66   33   4  -2.5005    0.0000000000   8.0319900000   8.0319900000
67   34   2   1.5005    0.0000000000   12.0479850000   12.0479850000
68   34   4  -2.5005    0.0000000000   12.0479850000   12.0479850000
69   35   2   1.5005    4.0159950000   8.0319900000   12.0479850000
70   35   4  -2.5005    4.0159950000   8.0319900000   12.0479850000
71   36   2   1.5005    4.0159950000   12.0479850000   8.0319900000
72   36   4  -2.5005    4.0159950000   12.0479850000   8.0319900000
73   37   1   1.5056    4.0159950000   12.0479850000   12.0479850000
74   37   3  -0.5056    4.0159950000   12.0479850000   12.0479850000
75   38   1   1.5056    4.0159950000   8.0319900000   8.0319900000
76   38   3  -0.5056    4.0159950000   8.0319900000   8.0319900000
77   39   1   1.5056    0.0000000000   12.0479850000   8.0319900000
78   39   3  -0.5056    0.0000000000   12.0479850000   8.0319900000
79   40   1   1.5056    0.0000000000   8.0319900000   12.0479850000
80   40   3  -0.5056    0.0000000000   8.0319900000   12.0479850000
81   41   2   1.5005    0.0000000000   8.0319900000   16.0639800000
82   41   4  -2.5005    0.0000000000   8.0319900000   16.0639800000
83   42   2   1.5005    0.0000000000   12.0479850000   20.0799750000
84   42   4  -2.5005    0.0000000000   12.0479850000   20.0799750000
85   43   2   1.5005    4.0159950000   8.0319900000   20.0799750000
86   43   4  -2.5005    4.0159950000   8.0319900000   20.0799750000
87   44   2   1.5005    4.0159950000   12.0479850000   16.0639800000
88   44   4  -2.5005    4.0159950000   12.0479850000   16.0639800000
89   45   1   1.5056    4.0159950000   12.0479850000   20.0799750000
90   45   3  -0.5056    4.0159950000   12.0479850000   20.0799750000
91   46   1   1.5056    4.0159950000   8.0319900000   16.0639800000
92   46   3  -0.5056    4.0159950000   8.0319900000   16.0639800000
93   47   1   1.5056    0.0000000000   12.0479850000   16.0639800000
94   47   3  -0.5056    0.0000000000   12.0479850000   16.0639800000
95   48   1   1.5056    0.0000000000   8.0319900000   20.0799750000
96   48   3  -0.5056    0.0000000000   8.0319900000   20.0799750000
97   49   2   1.5005    0.0000000000   16.0639800000   0.0000000000
98   49   4  -2.5005    0.0000000000   16.0639800000   0.0000000000
99   50   2   1.5005    0.0000000000   20.0799750000   4.0159950000
100  50   4  -2.5005    0.0000000000   20.0799750000   4.0159950000
101  51   2   1.5005    4.0159950000   16.0639800000   4.0159950000
102  51   4  -2.5005    4.0159950000   16.0639800000   4.0159950000
103  52   2   1.5005    4.0159950000   20.0799750000   0.0000000000
104  52   4  -2.5005    4.0159950000   20.0799750000   0.0000000000
105  53   1   1.5056    4.0159950000   20.0799750000   4.0159950000
106  53   3  -0.5056    4.0159950000   20.0799750000   4.0159950000
107  54   1   1.5056    4.0159950000   16.0639800000   0.0000000000
108  54   3  -0.5056    4.0159950000   16.0639800000   0.0000000000
109  55   1   1.5056    0.0000000000   20.0799750000   0.0000000000
110  55   3  -0.5056    0.0000000000   20.0799750000   0.0000000000
111  56   1   1.5056    0.0000000000   16.0639800000   4.0159950000
112  56   3  -0.5056    0.0000000000   16.0639800000   4.0159950000
113  57   2   1.5005    0.0000000000   16.0639800000   8.0319900000
114  57   4  -2.5005    0.0000000000   16.0639800000   8.0319900000
115  58   2   1.5005    0.0000000000   20.0799750000   12.0479850000
116  58   4  -2.5005    0.0000000000   20.0799750000   12.0479850000
117  59   2   1.5005    4.0159950000   16.0639800000   12.0479850000
118  59   4  -2.5005    4.0159950000   16.0639800000   12.0479850000
119  60   2   1.5005    4.0159950000   20.0799750000   8.0319900000
120  60   4  -2.5005    4.0159950000   20.0799750000   8.0319900000
121  61   1   1.5056    4.0159950000   20.0799750000   12.0479850000
122  61   3  -0.5056    4.0159950000   20.0799750000   12.0479850000
123  62   1   1.5056    4.0159950000   16.0639800000   8.0319900000
124  62   3  -0.5056    4.0159950000   16.0639800000   8.0319900000
125  63   1   1.5056    0.0000000000   20.0799750000   8.0319900000
126  63   3  -0.5056    0.0000000000   20.0799750000   8.0319900000
127  64   1   1.5056    0.0000000000   16.0639800000   12.0479850000
128  64   3  -0.5056    0.0000000000   16.0639800000   12.0479850000
129  65   2   1.5005    0.0000000000   16.0639800000   16.0639800000
130  65   4  -2.5005    0.0000000000   16.0639800000   16.0639800000
131  66   2   1.5005    0.0000000000   20.0799750000   20.0799750000
132  66   4  -2.5005    0.0000000000   20.0799750000   20.0799750000
133  67   2   1.5005    4.0159950000   16.0639800000   20.0799750000
134  67   4  -2.5005    4.0159950000   16.0639800000   20.0799750000
135  68   2   1.5005    4.0159950000   20.0799750000   16.0639800000
136  68   4  -2.5005    4.0159950000   20.0799750000   16.0639800000
137  69   1   1.5056    4.0159950000   20.0799750000   20.0799750000
138  69   3  -0.5056    4.0159950000   20.0799750000   20.0799750000
139  70   1   1.5056    4.0159950000   16.0639800000   16.0639800000
140  70   3  -0.5056    4.0159950000   16.0639800000   16.0639800000
141  71   1   1.5056    0.0000000000   20.0799750000   16.0639800000
142  71   3  -0.5056    0.0000000000   20.0799750000   16.0639800000
143  72   1   1.5056    0.0000000000   16.0639800000   20.0799750000
144  72   3  -0.5056    0.0000000000   16.0639800000   20.0799750000
145  73   2   1.5005    8.0319900000   0.0000000000   0.0000000000
146  73   4  -2.5005    8.0319900000   0.0000000000   0.0000000000
147  74   2   1.5005    8.0319900000   4.0159950000   4.0159950000
148  74   4  -2.5005    8.0319900000   4.0159950000   4.0159950000
149  75   2   1.5005    12.0479850000   0.0000000000   4.0159950000
150  75   4  -2.5005    12.0479850000   0.0000000000   4.0159950000
151  76   2   1.5005    12.0479850000   4.0159950000   0.0000000000
152  76   4  -2.5005    12.0479850000   4.0159950000   0.0000000000
153  77   1   1.5056    12.0479850000   4.0159950000   4.0159950000
154  77   3  -0.5056    12.0479850000   4.0159950000   4.0159950000
155  78   1   1.5056    12.0479850000   0.0000000000   0.0000000000
156  78   3  -0.5056    12.0479850000   0.0000000000   0.0000000000
157  79   1   1.5056    8.0319900000   4.0159950000   0.0000000000
158  79   3  -0.5056    8.0319900000   4.0159950000   0.0000000000
159  80   1   1.5056    8.0319900000   0.0000000000   4.0159950000
160  80   3  -0.5056    8.0319900000   0.0000000000   4.0159950000
161  81   2   1.5005    8.0319900000   0.0000000000   8.0319900000
162  81   4  -2.5005    8.0319900000   0.0000000000   8.0319900000
163  82   2   1.5005    8.0319900000   4.0159950000   12.0479850000
164  82   4  -2.5005    8.0319900000   4.0159950000   12.0479850000
165  83   2   1.5005    12.0479850000   0.0000000000   12.0479850000
166  83   4  -2.5005    12.0479850000   0.0000000000   12.0479850000
167  84   2   1.5005    12.0479850000   4.0159950000   8.0319900000
168  84   4  -2.5005    12.0479850000   4.0159950000   8.0319900000
169  85   1   1.5056    12.0479850000   4.0159950000   12.0479850000
170  85   3  -0.5056    12.0479850000   4.0159950000   12.0479850000
171  86   1   1.5056    12.0479850000   0.0000000000   8.0319900000
172  86   3  -0.5056    12.0479850000   0.0000000000   8.0319900000
173  87   1   1.5056    8.0319900000   4.0159950000   8.0319900000
174  87   3  -0.5056    8.0319900000   4.0159950000   8.0319900000
175  88   1   1.5056    8.0319900000   0.0000000000   12.0479850000
176  88   3  -0.5056    8.0319900000   0.0000000000   12.0479850000
177  89   2   1.5005    8.0319900000   0.0000000000   16.0639800000
178  89   4  -2.5005    8.0319900000   0.0000000000   16.0639800000
179  90   2   1.5005    8.0319900000   4.0159950000   20.0799750000
180  90   4  -2.5005    8.0319900000   4.0159950000   20.0799750000
181  91   2   1.5005    12.0479850000   0.0000000000   20.0799750000
182  91   4  -2.5005    12.0479850000   0.0000000000   20.0799750000
183  92   2   1.5005    12.0479850000   4.0159950000   16.0639800000
184  92   4  -2.5005    12.0479850000   4.0159950000   16.0639800000
185  93   1   1.5056    12.0479850000   4.0159950000   20.0799750000
186  93   3  -0.5056    12.0479850000   4.0159950000   20.0799750000
187  94   1   1.5056    12.0479850000   0.0000000000   16.0639800000
188  94   3  -0.5056    12.0479850000   0.0000000000   16.0639800000
189  95   1   1.5056    8.0319900000   4.0159950000   16.0639800000
190  95   3  -0.5056    8.0319900000   4.0159950000   16.0639800000
191  96   1   1.5056    8.0319900000   0.0000000000   20.0799750000
192  96   3  -0.5056    8.0319900000   0.0000000000   20.0799750000
193  97   2   1.5005    8.0319900000   8.0319900000   0.0000000000
194  97   4  -2.5005    8.0319900000   8.0319900000   0.0000000000
195  98   2   1.5005    8.0319900000   12.0479850000   4.0159950000
196  98   4  -2.5005    8.0319900000   12.0479850000   4.0159950000
197  99   2   1.5005    12.0479850000   8.0319900000   4.0159950000
198  99   4  -2.5005    12.0479850000   8.0319900000   4.0159950000
199  100  2   1.5005    12.0479850000   12.0479850000   0.0000000000
200  100  4  -2.5005    12.0479850000   12.0479850000   0.0000000000
201  101  1   1.5056    12.0479850000   12.0479850000   4.0159950000
202  101  3  -0.5056    12.0479850000   12.0479850000   4.0159950000
203  102  1   1.5056    12.0479850000   8.0319900000   0.0000000000
204  102  3  -0.5056    12.0479850000   8.0319900000   0.0000000000
205  103  1   1.5056    8.0319900000   12.0479850000   0.0000000000
206  103  3  -0.5056    8.0319900000   12.0479850000   0.0000000000
207  104  1   1.5056    8.0319900000   8.0319900000   4.0159950000
208  104  3  -0.5056    8.0319900000   8.0319900000   4.0159950000
209  105  2   1.5005    8.0319900000   8.0319900000   8.0319900000
210  105  4  -2.5005    8.0319900000   8.0319900000   8.0319900000
211  106  2   1.5005    8.0319900000   12.0479850000   12.0479850000
212  106  4  -2.5005    8.0319900000   12.0479850000   12.0479850000
213  107  2   1.5005    12.0479850000   8.0319900000   12.0479850000
214  107  4  -2.5005    12.0479850000   8.0319900000   12.0479850000
215  108  2   1.5005    12.0479850000   12.0479850000   8.0319900000
216  108  4  -2.5005    12.0479850000   12.0479850000   8.0319900000
217  109  1   1.5056    12.0479850000   12.0479850000   12.0479850000
218  109  3  -0.5056    12.0479850000   12.0479850000   12.0479850000
219  110  1   1.5056    12.0479850000   8.0319900000   8.0319900000
220  110  3  -0.5056    12.0479850000   8.0319900000   8.0319900000
221  111  1   1.5056    8.0319900000   12.0479850000   8.0319900000
222  111  3  -0.5056    8.0319900000   12.0479850000   8.0319900000
223  112  1   1.5056    8.0319900000   8.0319900000   12.0479850000
224  112  3  -0.5056    8.0319900000   8.0319900000   12.0479850000
225  113  2   1.5005    8.0319900000   8.0319900000   16.0639800000
226  113  4  -2.5005    8.0319900000   8.0319900000   16.0639800000
227  114  2   1.5005    8.0319900000   12.0479850000   20.0799750000
228  114  4  -2.5005    8.0319900000   12.0479850000   20.0799750000
229  115  2   1.5005    12.0479850000   8.0319900000   20.0799750000
230  115  4  -2.5005    12.0479850000   8.0319900000   20.0799750000
231  116  2   1.5005    12.0479850000   12.0479850000   16.0639800000
232  116  4  -2.5005    12.0479850000   12.0479850000   16.0639800000
233  117  1   1.5056    12.0479850000   12.0479850000   20.0799750000
234  117  3  -0.5056    12.0479850000   12.0479850000   20.0799750000
235  118  1   1.5056    12.0479850000   8.0319900000   16.0639800000
236  118  3  -0.5056    12.0479850000   8.0319900000   16.0639800000
237  119  1   1.5056    8.0319900000   12.0479850000   16.0639800000
238  119  3  -0.5056    8.0319900000   12.0479850000   16.0639800000
239  120  1   1.5056    8.0319900000   8.0319900000   20.0799750000
240  120  3  -0.5056    8.0319900000   8.0319900000   20.0799750000
241  121  2   1.5005    8.0319900000   16.0639800000   0.0000000000
242  121  4  -2.5005    8.0319900000   16.0639800000   0.0000000000
243  122  2   1.5005    8.0319900000   20.0799750000   4.0159950000
244  122  4  -2.5005    8.0319900000   20.0799750000   4.0159950000
245  123  2   1.5005    12.0479850000   16.0639800000   4.0159950000
246  123  4  -2.5005    12.0479850000   16.0639800000   4.0159950000
247  124  2   1.5005    12.0479850000   20.0799750000   0.0000000000
248  124  4  -2.5005    12.0479850000   20.0799750000   0.0000000000
249  125  1   1.5056    12.0479850000   20.0799750000   4.0159950000
250  125  3  -0.5056    12.0479850000   20.0799750000   4.0159950000
251  126  1   1.5056    12.0479850000   16.0639800000   0.0000000000
252  126  3  -0.5056    12.0479850000   16.0639800000   0.0000000000
253  127  1   1.5056    8.0319900000   20.0799750000   0.0000000000
254  127  3  -0.5056    8.0319900000   20.0799750000   0.0000000000
255  128  1   1.5056    8.0319900000   16.0639800000   4.0159950000
256  128  3  -0.5056    8.0319900000   16.0639800000   4.0159950000
257  129  2   1.5005    8.0319900000   16.0639800000   8.0319900000
258  129  4  -2.5005    8.0319900000   16.0639800000   8.0319900000
259  130  2   1.5005    8.0319900000   20.0799750000   12.0479850000
260  130  4  -2.5005    8.0319900000   20.0799750000   12.0479850000
261  131  2   1.5005    12.0479850000   16.0639800000   12.0479850000
262  131  4  -2.5005    12.0479850000   16.0639800000   12.0479850000
263  132  2   1.5005    12.0479850000   20.0799750000   8.0319900000
264  132  4  -2.5005    12.0479850000   20.0799750000   8.0319900000
265  133  1   1.5056    12.0479850000   20.0799750000   12.0479850000
266  133  3  -0.5056    12.0479850000   20.0799750000   12.0479850000
267  134  1   1.5056    12.0479850000   16.0639800000   8.0319900000
268  134  3  -0.5056    12.0479850000   16.0639800000   8.0319900000
269  135  1   1.5056    8.0319900000   20.0799750000   8.0319900000
270  135  3  -0.5056    8.0319900000   20.0799750000   8.0319900000
271  136  1   1.5056    8.0319900000   16.0639800000   12.0479850000
272  136  3  -0.5056    8.0319900000   16.0639800000   12.0479850000
273  137  2   1.5005    8.0319900000   16.0639800000   16.0639800000
274  137  4  -2.5005    8.0319900000   16.0639800000   16.0639800000
275  138  2   1.5005    8.0319900000   20.0799750000   20.0799750000
276  138  4  -2.5005    8.0319900000   20.0799750000   20.0799750000
277  139  2   1.5005    12.0479850000   16.0639800000   20.0799750000
278  139  4  -2.5005    12.0479850000   16.0639800000   20.0799750000
279  140  2   1.5005    12.0479850000   20.0799750000   16.0639800000
280  140  4  -2.5005    12.0479850000   20.0799750000   16.0639800000
281  141  1   1.5056    12.0479850000   20.0799750000   20.0799750000
282  141  3  -0.5056    12.0479850000   20.0799750000   20.0799750000
283  142  1   1.5056    12.0479850000   16.0639800000   16.0639800000
284  142  3  -0.5056    12.0479850000   16.0639800000   16.0639800000
285  143  1   1.5056    8.0319900000   20.0799750000   16.0639800000
286  143  3  -0.5056    8.0319900000   20.0799750000   16.0639800000
287  144  1   1.5056    8.0319900000   16.0639800000   20.0799750000
288  144  3  -0.5056    8.0319900000   16.0639800000   20.0799750000
289  145  2   1.5005    16.0639800000   0.0000000000   0.0000000000
290  145  4  -2.5005    16.0639800000   0.0000000000   0.0000000000
291  146  2   1.5005    16.0639800000   4.0159950000   4.0159950000
292  146  4  -2.5005    16.0639800000   4.0159950000   4.0159950000
293  147  2   1.5005    20.0799750000   0.0000000000   4.0159950000
294  147  4  -2.5005    20.0799750000   0.0000000000   4.0159950000
295  148  2   1.5005    20.0799750000   4.0159950000   0.0000000000
296  148  4  -2.5005    20.0799750000   4.0159950000   0.0000000000
297  149  1   1.5056    20.0799750000   4.0159950000   4.0159950000
298  149  3  -0.5056    20.0799750000   4.0159950000   4.0159950000
299  150  1   1.5056    20.0799750000   0.0000000000   0.0000000000
300  150  3  -0.5056    20.0799750000   0.0000000000   0.0000000000
301  151  1   1.5056    16.0639800000   4.0159950000   0.0000000000
302  151  3  -0.5056    16.0639800000   4.0159950000   0.0000000000
303  152  1   1.5056    16.0639800000   0.0000000000   4.0159950000
304  152  3  -0.5056    16.0639800000   0.0000000000   4.0159950000
305  153  2   1.5005    16.0639800000   0.0000000000   8.0319900000
306  153  4  -2.5005    16.0639800000   0.0000000000   8.0319900000
307  154  2   1.5005    16.0639800000   4.0159950000   12.0479850000
308  154  4  -2.5005    16.0639800000   4.0159950000   12.0479850000
309  155  2   1.5005    20.0799750000   0.0000000000   12.0479850000
310  155  4  -2.5005    20.0799750000   0.0000000000   12.0479850000
311  156  2   1.5005    20.0799750000   4.0159950000   8.0319900000
312  156  4  -2.5005    20.0799750000   4.0159950000   8.0319900000
313  157  1   1.5056    20.0799750000   4.0159950000   12.0479850000
314  157  3  -0.5056    20.0799750000   4.0159950000   12.0479850000
315  158  1   1.5056    20.0799750000   0.0000000000   8.0319900000
316  158  3  -0.5056    20.0799750000   0.0000000000   8.0319900000
317  159  1   1.5056    16.0639800000   4.0159950000   8.0319900000
318  159  3  -0.5056    16.0639800000   4.0159950000   8.0319900000
319  160  1   1.5056    16.0639800000   0.0000000000   12.0479850000
320  160  3  -0.5056    16.0639800000   0.0000000000   12.0479850000
321  161  2   1.5005    16.0639800000   0.0000000000   16.0639800000
322  161  4  -2.5005    16.0639800000   0.0000000000   16.0639800000
323  162  2   1.5005    16.0639800000   4.0159950000   20.0799750000
324  162  4  -2.5005    16.0639800000   4.0159950000   20.0799750000
325  163  2   1.5005    20.0799750000   0.0000000000   20.0799750000
326  163  4  -2.5005    20.0799750000   0.0000000000   20.0799750000
327  164  2   1.5005    20.0799750000   4.0159950000   16.0639800000
328  164  4  -2.5005    20.0799750000   4.0159950000   16.0639800000
329  165  1   1.5056    20.0799750000   4.0159950000   20.0799750000
330  165  3  -0.5056    20.0799750000   4.0159950000   20.0799750000
331  166  1   1.5056    20.0799750000   0.0000000000   16.0639800000
332  166  3  -0.5056    20.0799750000   0.0000000000   16.0639800000
333  167  1   1.5056    16.0639800000   4.0159950000   16.0639800000
334  167  3  -0.5056    16.0639800000   4.0159950000   16.0639800000
335  168  1   1.5056    16.0639800000   0.0000000000   20.0799750000
336  168  3  -0.5056    16.0639800000   0.0000000000   20.0799750000
337  169  2   1.5005    16.0639800000   8.0319900000   0.0000000000
338  169  4  -2.5005    16.0639800000   8.0319900000   0.0000000000
339  170  2   1.5005    16.0639800000   12.0479850000   4.0159950000
340  170  4  -2.5005    16.0639800000   12.0479850000   4.0159950000
341  171  2   1.5005    20.0799750000   8.0319900000   4.0159950000
342  171  4  -2.5005    20.0799750000   8.0319900000   4.0159950000
343  172  2   1.5005    20.0799750000   12.0479850000   0.0000000000
344  172  4  -2.5005    20.0799750000   12.0479850000   0.0000000000
345  173  1   1.5056    20.0799750000   12.0479850000   4.0159950000
346  173  3  -0.5056    20.0799750000   12.0479850000   4.0159950000
347  174  1   1.5056    20.0799750000   8.0319900000   0.0000000000
348  174  3  -0.5056    20.0799750000   8.0319900000   0.0000000000
349  175  1   1.5056    16.0639800000   12.0479850000   0.0000000000
350  175  3  -0.5056    16.0639800000   12.0479850000   0.0000000000
351  176  1   1.5056    16.0639800000   8.0319900000   4.0159950000
352  176  3  -0.5056    16.0639800000   8.0319900000   4.0159950000
353  177  2   1.5005    16.0639800000   8.0319900000   8.0319900000
354  177  4  -2.5005    16.0639800000   8.0319900000   8.0319900000
355  178  2   1.5005    16.0639800000   12.0479850000   12.0479850000
356  178  4  -2.5005    16.0639800000   12.0479850000   12.0479850000
357  179  2   1.5005    20.0799750000   8.0319900000   12.0479850000
358  179  4  -2.5005    20.0799750000   8.0319900000   12.0479850000
359  180  2   1.5005    20.0799750000   12.0479850000   8.0319900000
360  180  4  -2.5005    20.0799750000   12.0479850000   8.0319900000
361  181  1   1.5056    20.0799750000   12.0479850000   12.0479850000
362  181  3  -0.5056    20.0799750000   12.0479850000   12.0479850000
363  182  1   1.5056    20.0799750000   8.0319900000   8.0319900000
364  182  3  -0.5056    20.0799750000   8.0319900000   8.0319900000
365  183  1   1.5056    16.0639800000   12.0479850000   8.0319900000
366  183  3  -0.5056    16.0639800000   12.0479850000   8.0319900000
367  184  1   1.5056    16.0639800000   8.0319900000   12.0479850000
368  184  3  -0.5056    16.0639800000   8.0319900000   12.0479850000
369  185  2   1.5005    16.0639800000   8.0319900000   16.0639800000
370  185  4  -2.5005    16.0639800000   8.0319900000   16.0639800000
371  186  2   1.5005    16.0639800000   12.0479850000   20.0799750000
372  186  4  -2.5005    16.0639800000   12.0479850000   20.0799750000
373  187  2   1.5005    20.0799750000   8.0319900000   20.0799750000
374  187  4  -2.5005    20.0799750000   8.0319900000   20.0799750000
375  188  2   1.5005    20.0799750000   12.0479850000   16.0639800000
376  188  4  -2.5005    20.0799750000   12.0479850000   16.0639800000
377  189  1   1.5056    20.0799750000   12.0479850000   20.0799750000
378  189  3  -0.5056    20.0799750000   12.0479850000   20.0799750000
379  190  1   1.5056    20.0799750000   8.0319900000   16.0639800000
380  190  3  -0.5056    20.0799750000   8.0319900000   16.0639800000
381  191  1   1.5056    16.0639800000   12.0479850000   16.0639800000
382  191  3  -0.5056    16.0639800000   12.0479850000   16.0639800000
383  192  1   1.5056    16.0639800000   8.0319900000   20.0799750000
384  192  3  -0.5056    16.0639800000   8.0319900000   20.0799750000
385  193  2   1.5005    16.0639800000   16.0639800000   0.0000000000
386  193  4  -2.5005    16.0639800000   16.0639800000   0.0000000000
387  194  2   1.5005    16.0639800000   20.0799750000   4.0159950000
388  194  4  -2.5005    16.0639800000   20.0799750000   4.0159950000
389  195  2   1.5005    20.0799750000   16.0639800000   4.0159950000
390  195  4  -2.5005    20.0799750000   16.0639800000   4.0159950000
391  196  2   1.5005    20.0799750000   20.0799750000   0.0000000000
392  196  4  -2.5005    20.0799750000   20.0799750000   0.0000000000
393  197  1   1.5056    20.0799750000   20.0799750000   4.0159950000
394  197  3  -0.5056    20.0799750000   20.0799750000   4.0159950000
395  198  1   1.5056    20.0799750000   16.0639800000   0.0000000000
396  198  3  -0.5056    20.0799750000   16.0639800000   0.0000000000
397  199  1   1.5056    16.0639800000   20.0799750000   0.0000000000
398  199  3  -0.5056    16.0639800000   20.0799750000   0.0000000000
399  200  1   1.5056    16.0639800000   16.0639800000   4.0159950000
400  200  3  -0.5056    16.0639800000   16.0639800000   4.0159950000
401  201  2   1.5005    16.0639800000   16.0639800000   8.0319900000
402  201  4  -2.5005    16.0639800000   16.0639800000   8.0319900000
403  202  2   1.5005    16.0639800000   20.0799750000   12.0479850000
404  202  4  -2.5005    16.0639800000   20.0799750000   12.0479850000
405  203  2   1.5005    20.0799750000   16.0639800000   12.0479850000
406  203  4  -2.5005    20.0799750000   16.0639800000   12.0479850000
407  204  2   1.5005    20.0799750000   20.0799750000   8.0319900000
408  204  4  -2.5005    20.0799750000   20.0799750000   8.0319900000
409  205  1   1.5056    20.0799750000   20.0799750000   12.0479850000
410  205  3  -0.5056    20.0799750000   20.0799750000   12.0479850000
411  206  1   1.5056    20.0799750000   16.0639800000   8.0319900000
412  206  3  -0.5056    20.0799750000   16.0639800000   8.0319900000
413  207  1   1.5056    16.0639800000   20.0799750000   8.0319900000
414  207  3  -0.5056    16.0639800000   20.0799750000   8.0319900000
415  208  1   1.5056    16.0639800000   16.0639800000   12.0479850000
416  208  3  -0.5056    16.0639800000   16.0639800000   12.0479850000
417  209  2   1.5005    16.0639800000   16.0639800000   16.0639800000
418  209  4  -2.5005    16.0639800000   16.0639800000   16.0639800000
419  210  2   1.5005    16.0639800000   20.0799750000   20.0799750000
420  210  4  -2.5005    16.0639800000   20.0799750000   20.0799750000
421  211  2   1.5005    20.0799750000   16.0639800000   20.0799750000
422  211  4  -2.5005    20.0799750000   16.0639800000   20.0799750000
423  212  2   1.5005    20.0799750000   20.0799750000   16.0639800000
424  212  4  -2.5005    20.0799750000   20.0799750000   16.0639800000
425  213  1   1.5056    20.0799750000   20.0799750000   20.0799750000
426  213  3  -0.5056    20.0799750000   20.0799750000   20.0799750000
427  214  1   1.5056    20.0799750000   16.0639800000   16.0639800000
428  214  3  -0.5056    20.0799750000   16.0639800000   16.0639800000
429  215  1   1.5056    16.0639800000   20.0799750000   16.0639800000
430  215  3  -0.5056    16.0639800000   20.0799750000   16.0639800000
431  216  1   1.5056    16.0639800000   16.0639800000   20.0799750000
432  216  3  -0.5056    16.0639800000   16.0639800000   20.0799750000


Bonds

1     2     1     2   
2     2     3     4   