 LAMMPS 2d micelle data file
 
        1200  atoms
         300  bonds
           0  angles
           0  dihedrals
           0  impropers
 
           4  atom types
           1  bond types
           0  angle types
           0  dihedral types
           0  improper types
 
  0.0000000E+00   35.85686      xlo xhi
  0.0000000E+00   35.85686      ylo yhi
 -0.1000000      0.1000000      zlo zhi
 
 Masses
 
           1   1.000000    
           2   1.000000    
           3   1.000000    
           4   1.000000    
 
 Atoms
 
      1    139      2   0.000   0.000   0.000
      2      0      1   1.195   0.000   0.000
      3      0      1   2.390   0.000   0.000
      4      0      1   3.586   0.000   0.000
      5      0      1   4.781   0.000   0.000
      6      0      1   5.976   0.000   0.000
      7      0      1   7.171   0.000   0.000
      8      0      1   8.367   0.000   0.000
      9      0      1   9.562   0.000   0.000
     10    114      2  10.757   0.000   0.000
     11      0      1  11.952   0.000   0.000
     12     52      2  13.148   0.000   0.000
     13      0      1  14.343   0.000   0.000
     14      0      1  15.538   0.000   0.000
     15      0      1  16.733   0.000   0.000
     16      0      1  17.928   0.000   0.000
     17      0      1  19.124   0.000   0.000
     18      0      1  20.319   0.000   0.000
     19      0      1  21.514   0.000   0.000
     20      0      1  22.709   0.000   0.000
     21      0      1  23.905   0.000   0.000
     22      0      1  25.100   0.000   0.000
     23      0      1  26.295   0.000   0.000
     24    110      2  27.490   0.000   0.000
     25    128      2  28.685   0.000   0.000
     26      0      1  29.881   0.000   0.000
     27      0      1  31.076   0.000   0.000
     28      0      1  32.271   0.000   0.000
     29      0      1  33.466   0.000   0.000
     30      0      1  34.662   0.000   0.000
     31      0      1   0.000   1.195   0.000
     32      0      1   1.195   1.195   0.000
     33    113      2   2.390   1.195   0.000
     34      0      1   3.586   1.195   0.000
     35     75      2   4.781   1.195   0.000
     36      0      1   5.976   1.195   0.000
     37      0      1   7.171   1.195   0.000
     38     89      2   8.367   1.195   0.000
     39      0      1   9.562   1.195   0.000
     40     94      2  10.757   1.195   0.000
     41      0      1  11.952   1.195   0.000
     42     35      2  13.148   1.195   0.000
     43      0      1  14.343   1.195   0.000
     44      0      1  15.538   1.195   0.000
     45      0      1  16.733   1.195   0.000
     46      0      1  17.928   1.195   0.000
     47      0      1  19.124   1.195   0.000
     48      0      1  20.319   1.195   0.000
     49      0      1  21.514   1.195   0.000
     50      0      1  22.709   1.195   0.000
     51      0      1  23.905   1.195   0.000
     52      0      1  25.100   1.195   0.000
     53      0      1  26.295   1.195   0.000
     54      0      1  27.490   1.195   0.000
     55      0      1  28.685   1.195   0.000
     56      0      1  29.881   1.195   0.000
     57      0      1  31.076   1.195   0.000
     58      0      1  32.271   1.195   0.000
     59      0      1  33.466   1.195   0.000
     60      0      1  34.662   1.195   0.000
     61      0      1   0.000   2.390   0.000
     62      0      1   1.195   2.390   0.000
     63    119      2   2.390   2.390   0.000
     64      0      1   3.586   2.390   0.000
     65     24      2   4.781   2.390   0.000
     66      0      1   5.976   2.390   0.000
     67      0      1   7.171   2.390   0.000
     68      0      1   8.367   2.390   0.000
     69      0      1   9.562   2.390   0.000
     70      0      1  10.757   2.390   0.000
     71      0      1  11.952   2.390   0.000
     72      0      1  13.148   2.390   0.000
     73      0      1  14.343   2.390   0.000
     74      0      1  15.538   2.390   0.000
     75      0      1  16.733   2.390   0.000
     76      0      1  17.928   2.390   0.000
     77      0      1  19.124   2.390   0.000
     78      0      1  20.319   2.390   0.000
     79      0      1  21.514   2.390   0.000
     80      0      1  22.709   2.390   0.000
     81      0      1  23.905   2.390   0.000
     82     74      2  25.100   2.390   0.000
     83      0      1  26.295   2.390   0.000
     84      0      1  27.490   2.390   0.000
     85      0      1  28.685   2.390   0.000
     86     47      2  29.881   2.390   0.000
     87      0      1  31.076   2.390   0.000
     88      0      1  32.271   2.390   0.000
     89      0      1  33.466   2.390   0.000
     90      0      1  34.662   2.390   0.000
     91      0      1   0.000   3.586   0.000
     92      0      1   1.195   3.586   0.000
     93      0      1   2.390   3.586   0.000
     94      0      1   3.586   3.586   0.000
     95      0      1   4.781   3.586   0.000
     96      0      1   5.976   3.586   0.000
     97      0      1   7.171   3.586   0.000
     98      0      1   8.367   3.586   0.000
     99      0      1   9.562   3.586   0.000
    100    121      2  10.757   3.586   0.000
    101      0      1  11.952   3.586   0.000
    102      0      1  13.148   3.586   0.000
    103    129      2  14.343   3.586   0.000
    104      0      1  15.538   3.586   0.000
    105      0      1  16.733   3.586   0.000
    106      0      1  17.928   3.586   0.000
    107      0      1  19.124   3.586   0.000
    108      0      1  20.319   3.586   0.000
    109    117      2  21.514   3.586   0.000
    110      0      1  22.709   3.586   0.000
    111      0      1  23.905   3.586   0.000
    112      0      1  25.100   3.586   0.000
    113      0      1  26.295   3.586   0.000
    114      0      1  27.490   3.586   0.000
    115      0      1  28.685   3.586   0.000
    116     49      2  29.881   3.586   0.000
    117      0      1  31.076   3.586   0.000
    118      0      1  32.271   3.586   0.000
    119      0      1  33.466   3.586   0.000
    120      0      1  34.662   3.586   0.000
    121      0      1   0.000   4.781   0.000
    122      0      1   1.195   4.781   0.000
    123      0      1   2.390   4.781   0.000
    124      0      1   3.586   4.781   0.000
    125     38      2   4.781   4.781   0.000
    126      0      1   5.976   4.781   0.000
    127     67      2   7.171   4.781   0.000
    128      0      1   8.367   4.781   0.000
    129      3      2   9.562   4.781   0.000
    130      0      1  10.757   4.781   0.000
    131     41      2  11.952   4.781   0.000
    132      0      1  13.148   4.781   0.000
    133    131      2  14.343   4.781   0.000
    134      0      1  15.538   4.781   0.000
    135      0      1  16.733   4.781   0.000
    136      0      1  17.928   4.781   0.000
    137      0      1  19.124   4.781   0.000
    138      0      1  20.319   4.781   0.000
    139      0      1  21.514   4.781   0.000
    140      0      1  22.709   4.781   0.000
    141      0      1  23.905   4.781   0.000
    142      0      1  25.100   4.781   0.000
    143      0      1  26.295   4.781   0.000
    144      0      1  27.490   4.781   0.000
    145      0      1  28.685   4.781   0.000
    146      0      1  29.881   4.781   0.000
    147      0      1  31.076   4.781   0.000
    148      0      1  32.271   4.781   0.000
    149      0      1  33.466   4.781   0.000
    150      0      1  34.662   4.781   0.000
    151     53      2   0.000   5.976   0.000
    152      0      1   1.195   5.976   0.000
    153      0      1   2.390   5.976   0.000
    154      0      1   3.586   5.976   0.000
    155      0      1   4.781   5.976   0.000
    156      0      1   5.976   5.976   0.000
    157     48      2   7.171   5.976   0.000
    158      0      1   8.367   5.976   0.000
    159     30      2   9.562   5.976   0.000
    160      0      1  10.757   5.976   0.000
    161      0      1  11.952   5.976   0.000
    162    104      2  13.148   5.976   0.000
    163      0      1  14.343   5.976   0.000
    164    136      2  15.538   5.976   0.000
    165      0      1  16.733   5.976   0.000
    166      0      1  17.928   5.976   0.000
    167      0      1  19.124   5.976   0.000
    168    116      2  20.319   5.976   0.000
    169      0      1  21.514   5.976   0.000
    170      0      1  22.709   5.976   0.000
    171      0      1  23.905   5.976   0.000
    172      0      1  25.100   5.976   0.000
    173     40      2  26.295   5.976   0.000
    174      0      1  27.490   5.976   0.000
    175    145      2  28.685   5.976   0.000
    176     33      2  29.881   5.976   0.000
    177      0      1  31.076   5.976   0.000
    178      0      1  32.271   5.976   0.000
    179      0      1  33.466   5.976   0.000
    180      0      1  34.662   5.976   0.000
    181      0      1   0.000   7.171   0.000
    182      0      1   1.195   7.171   0.000
    183      0      1   2.390   7.171   0.000
    184      0      1   3.586   7.171   0.000
    185      0      1   4.781   7.171   0.000
    186      0      1   5.976   7.171   0.000
    187      0      1   7.171   7.171   0.000
    188      0      1   8.367   7.171   0.000
    189      0      1   9.562   7.171   0.000
    190      0      1  10.757   7.171   0.000
    191      0      1  11.952   7.171   0.000
    192     15      2  13.148   7.171   0.000
    193      0      1  14.343   7.171   0.000
    194      0      1  15.538   7.171   0.000
    195      0      1  16.733   7.171   0.000
    196      0      1  17.928   7.171   0.000
    197      0      1  19.124   7.171   0.000
    198      0      1  20.319   7.171   0.000
    199      0      1  21.514   7.171   0.000
    200      0      1  22.709   7.171   0.000
    201    108      2  23.905   7.171   0.000
    202      0      1  25.100   7.171   0.000
    203      0      1  26.295   7.171   0.000
    204      0      1  27.490   7.171   0.000
    205    132      2  28.685   7.171   0.000
    206      0      1  29.881   7.171   0.000
    207      0      1  31.076   7.171   0.000
    208      0      1  32.271   7.171   0.000
    209      0      1  33.466   7.171   0.000
    210      0      1  34.662   7.171   0.000
    211      0      1   0.000   8.367   0.000
    212      0      1   1.195   8.367   0.000
    213      0      1   2.390   8.367   0.000
    214      0      1   3.586   8.367   0.000
    215      0      1   4.781   8.367   0.000
    216      0      1   5.976   8.367   0.000
    217      0      1   7.171   8.367   0.000
    218      0      1   8.367   8.367   0.000
    219      0      1   9.562   8.367   0.000
    220      0      1  10.757   8.367   0.000
    221      0      1  11.952   8.367   0.000
    222      0      1  13.148   8.367   0.000
    223      0      1  14.343   8.367   0.000
    224      0      1  15.538   8.367   0.000
    225      0      1  16.733   8.367   0.000
    226      0      1  17.928   8.367   0.000
    227      0      1  19.124   8.367   0.000
    228      0      1  20.319   8.367   0.000
    229      0      1  21.514   8.367   0.000
    230     97      2  22.709   8.367   0.000
    231      0      1  23.905   8.367   0.000
    232     12      2  25.100   8.367   0.000
    233     71      2  26.295   8.367   0.000
    234      0      1  27.490   8.367   0.000
    235      0      1  28.685   8.367   0.000
    236      0      1  29.881   8.367   0.000
    237      0      1  31.076   8.367   0.000
    238      6      2  32.271   8.367   0.000
    239      0      1  33.466   8.367   0.000
    240     34      2  34.662   8.367   0.000
    241      0      1   0.000   9.562   0.000
    242      0      1   1.195   9.562   0.000
    243      0      1   2.390   9.562   0.000
    244      0      1   3.586   9.562   0.000
    245    146      2   4.781   9.562   0.000
    246      0      1   5.976   9.562   0.000
    247     90      2   7.171   9.562   0.000
    248      0      1   8.367   9.562   0.000
    249      0      1   9.562   9.562   0.000
    250      0      1  10.757   9.562   0.000
    251      0      1  11.952   9.562   0.000
    252      0      1  13.148   9.562   0.000
    253      0      1  14.343   9.562   0.000
    254      0      1  15.538   9.562   0.000
    255      0      1  16.733   9.562   0.000
    256      0      1  17.928   9.562   0.000
    257     61      2  19.124   9.562   0.000
    258      0      1  20.319   9.562   0.000
    259      0      1  21.514   9.562   0.000
    260      0      1  22.709   9.562   0.000
    261      0      1  23.905   9.562   0.000
    262     64      2  25.100   9.562   0.000
    263      0      1  26.295   9.562   0.000
    264      0      1  27.490   9.562   0.000
    265      0      1  28.685   9.562   0.000
    266      0      1  29.881   9.562   0.000
    267      0      1  31.076   9.562   0.000
    268      0      1  32.271   9.562   0.000
    269      0      1  33.466   9.562   0.000
    270      0      1  34.662   9.562   0.000
    271      0      1   0.000  10.757   0.000
    272      0      1   1.195  10.757   0.000
    273      0      1   2.390  10.757   0.000
    274      0      1   3.586  10.757   0.000
    275     68      2   4.781  10.757   0.000
    276      0      1   5.976  10.757   0.000
    277      0      1   7.171  10.757   0.000
    278      0      1   8.367  10.757   0.000
    279      0      1   9.562  10.757   0.000
    280      0      1  10.757  10.757   0.000
    281      0      1  11.952  10.757   0.000
    282      0      1  13.148  10.757   0.000
    283      0      1  14.343  10.757   0.000
    284    109      2  15.538  10.757   0.000
    285      0      1  16.733  10.757   0.000
    286      0      1  17.928  10.757   0.000
    287      0      1  19.124  10.757   0.000
    288      0      1  20.319  10.757   0.000
    289      0      1  21.514  10.757   0.000
    290      0      1  22.709  10.757   0.000
    291      0      1  23.905  10.757   0.000
    292      0      1  25.100  10.757   0.000
    293      0      1  26.295  10.757   0.000
    294     73      2  27.490  10.757   0.000
    295      0      1  28.685  10.757   0.000
    296      0      1  29.881  10.757   0.000
    297      0      1  31.076  10.757   0.000
    298      0      1  32.271  10.757   0.000
    299      0      1  33.466  10.757   0.000
    300      0      1  34.662  10.757   0.000
    301      0      1   0.000  11.952   0.000
    302      0      1   1.195  11.952   0.000
    303      0      1   2.390  11.952   0.000
    304      0      1   3.586  11.952   0.000
    305      0      1   4.781  11.952   0.000
    306    134      2   5.976  11.952   0.000
    307      0      1   7.171  11.952   0.000
    308      0      1   8.367  11.952   0.000
    309     57      2   9.562  11.952   0.000
    310    101      2  10.757  11.952   0.000
    311    120      2  11.952  11.952   0.000
    312      0      1  13.148  11.952   0.000
    313      0      1  14.343  11.952   0.000
    314      0      1  15.538  11.952   0.000
    315      0      1  16.733  11.952   0.000
    316      0      1  17.928  11.952   0.000
    317     32      2  19.124  11.952   0.000
    318      0      1  20.319  11.952   0.000
    319      0      1  21.514  11.952   0.000
    320      0      1  22.709  11.952   0.000
    321      0      1  23.905  11.952   0.000
    322      0      1  25.100  11.952   0.000
    323      0      1  26.295  11.952   0.000
    324      0      1  27.490  11.952   0.000
    325      0      1  28.685  11.952   0.000
    326      0      1  29.881  11.952   0.000
    327      0      1  31.076  11.952   0.000
    328     42      2  32.271  11.952   0.000
    329      0      1  33.466  11.952   0.000
    330      0      1  34.662  11.952   0.000
    331      0      1   0.000  13.148   0.000
    332     10      2   1.195  13.148   0.000
    333     54      2   2.390  13.148   0.000
    334      0      1   3.586  13.148   0.000
    335      0      1   4.781  13.148   0.000
    336      0      1   5.976  13.148   0.000
    337      0      1   7.171  13.148   0.000
    338      0      1   8.367  13.148   0.000
    339     20      2   9.562  13.148   0.000
    340      0      1  10.757  13.148   0.000
    341      0      1  11.952  13.148   0.000
    342      0      1  13.148  13.148   0.000
    343     11      2  14.343  13.148   0.000
    344      0      1  15.538  13.148   0.000
    345      0      1  16.733  13.148   0.000
    346      0      1  17.928  13.148   0.000
    347      0      1  19.124  13.148   0.000
    348      0      1  20.319  13.148   0.000
    349     17      2  21.514  13.148   0.000
    350      0      1  22.709  13.148   0.000
    351      0      1  23.905  13.148   0.000
    352      0      1  25.100  13.148   0.000
    353      0      1  26.295  13.148   0.000
    354      0      1  27.490  13.148   0.000
    355      0      1  28.685  13.148   0.000
    356      0      1  29.881  13.148   0.000
    357      0      1  31.076  13.148   0.000
    358      0      1  32.271  13.148   0.000
    359      0      1  33.466  13.148   0.000
    360      0      1  34.662  13.148   0.000
    361      0      1   0.000  14.343   0.000
    362      0      1   1.195  14.343   0.000
    363      8      2   2.390  14.343   0.000
    364      0      1   3.586  14.343   0.000
    365      0      1   4.781  14.343   0.000
    366      0      1   5.976  14.343   0.000
    367      0      1   7.171  14.343   0.000
    368      0      1   8.367  14.343   0.000
    369      0      1   9.562  14.343   0.000
    370      0      1  10.757  14.343   0.000
    371    106      2  11.952  14.343   0.000
    372      0      1  13.148  14.343   0.000
    373      0      1  14.343  14.343   0.000
    374      0      1  15.538  14.343   0.000
    375      0      1  16.733  14.343   0.000
    376    102      2  17.928  14.343   0.000
    377      0      1  19.124  14.343   0.000
    378     81      2  20.319  14.343   0.000
    379      9      2  21.514  14.343   0.000
    380      0      1  22.709  14.343   0.000
    381      0      1  23.905  14.343   0.000
    382      0      1  25.100  14.343   0.000
    383      0      1  26.295  14.343   0.000
    384      0      1  27.490  14.343   0.000
    385      0      1  28.685  14.343   0.000
    386      0      1  29.881  14.343   0.000
    387      0      1  31.076  14.343   0.000
    388      0      1  32.271  14.343   0.000
    389      0      1  33.466  14.343   0.000
    390      0      1  34.662  14.343   0.000
    391      0      1   0.000  15.538   0.000
    392      0      1   1.195  15.538   0.000
    393      0      1   2.390  15.538   0.000
    394      0      1   3.586  15.538   0.000
    395      0      1   4.781  15.538   0.000
    396      0      1   5.976  15.538   0.000
    397      0      1   7.171  15.538   0.000
    398      0      1   8.367  15.538   0.000
    399     70      2   9.562  15.538   0.000
    400      0      1  10.757  15.538   0.000
    401      0      1  11.952  15.538   0.000
    402      0      1  13.148  15.538   0.000
    403      0      1  14.343  15.538   0.000
    404      0      1  15.538  15.538   0.000
    405      0      1  16.733  15.538   0.000
    406      0      1  17.928  15.538   0.000
    407      0      1  19.124  15.538   0.000
    408      0      1  20.319  15.538   0.000
    409      0      1  21.514  15.538   0.000
    410      0      1  22.709  15.538   0.000
    411      0      1  23.905  15.538   0.000
    412      0      1  25.100  15.538   0.000
    413     93      2  26.295  15.538   0.000
    414      0      1  27.490  15.538   0.000
    415      0      1  28.685  15.538   0.000
    416     27      2  29.881  15.538   0.000
    417      0      1  31.076  15.538   0.000
    418     60      2  32.271  15.538   0.000
    419    107      2  33.466  15.538   0.000
    420    111      2  34.662  15.538   0.000
    421      0      1   0.000  16.733   0.000
    422      0      1   1.195  16.733   0.000
    423      0      1   2.390  16.733   0.000
    424      0      1   3.586  16.733   0.000
    425      0      1   4.781  16.733   0.000
    426      0      1   5.976  16.733   0.000
    427    133      2   7.171  16.733   0.000
    428      0      1   8.367  16.733   0.000
    429      0      1   9.562  16.733   0.000
    430      0      1  10.757  16.733   0.000
    431     65      2  11.952  16.733   0.000
    432      0      1  13.148  16.733   0.000
    433      0      1  14.343  16.733   0.000
    434      0      1  15.538  16.733   0.000
    435      0      1  16.733  16.733   0.000
    436      0      1  17.928  16.733   0.000
    437     80      2  19.124  16.733   0.000
    438      0      1  20.319  16.733   0.000
    439      0      1  21.514  16.733   0.000
    440      0      1  22.709  16.733   0.000
    441      0      1  23.905  16.733   0.000
    442      0      1  25.100  16.733   0.000
    443     51      2  26.295  16.733   0.000
    444      0      1  27.490  16.733   0.000
    445      0      1  28.685  16.733   0.000
    446      0      1  29.881  16.733   0.000
    447     44      2  31.076  16.733   0.000
    448      0      1  32.271  16.733   0.000
    449      0      1  33.466  16.733   0.000
    450    137      2  34.662  16.733   0.000
    451      0      1   0.000  17.928   0.000
    452     86      2   1.195  17.928   0.000
    453      0      1   2.390  17.928   0.000
    454      0      1   3.586  17.928   0.000
    455    112      2   4.781  17.928   0.000
    456      0      1   5.976  17.928   0.000
    457      0      1   7.171  17.928   0.000
    458      0      1   8.367  17.928   0.000
    459      0      1   9.562  17.928   0.000
    460      2      2  10.757  17.928   0.000
    461      0      1  11.952  17.928   0.000
    462      0      1  13.148  17.928   0.000
    463      0      1  14.343  17.928   0.000
    464    147      2  15.538  17.928   0.000
    465      0      1  16.733  17.928   0.000
    466      0      1  17.928  17.928   0.000
    467     14      2  19.124  17.928   0.000
    468      0      1  20.319  17.928   0.000
    469      0      1  21.514  17.928   0.000
    470    142      2  22.709  17.928   0.000
    471      0      1  23.905  17.928   0.000
    472      0      1  25.100  17.928   0.000
    473      0      1  26.295  17.928   0.000
    474      0      1  27.490  17.928   0.000
    475     84      2  28.685  17.928   0.000
    476      0      1  29.881  17.928   0.000
    477      0      1  31.076  17.928   0.000
    478      0      1  32.271  17.928   0.000
    479      0      1  33.466  17.928   0.000
    480     26      2  34.662  17.928   0.000
    481      0      1   0.000  19.124   0.000
    482      0      1   1.195  19.124   0.000
    483     56      2   2.390  19.124   0.000
    484      0      1   3.586  19.124   0.000
    485      0      1   4.781  19.124   0.000
    486      0      1   5.976  19.124   0.000
    487     21      2   7.171  19.124   0.000
    488      0      1   8.367  19.124   0.000
    489      0      1   9.562  19.124   0.000
    490      0      1  10.757  19.124   0.000
    491      0      1  11.952  19.124   0.000
    492      0      1  13.148  19.124   0.000
    493     58      2  14.343  19.124   0.000
    494      0      1  15.538  19.124   0.000
    495      0      1  16.733  19.124   0.000
    496      0      1  17.928  19.124   0.000
    497      0      1  19.124  19.124   0.000
    498      0      1  20.319  19.124   0.000
    499      0      1  21.514  19.124   0.000
    500      0      1  22.709  19.124   0.000
    501      0      1  23.905  19.124   0.000
    502      0      1  25.100  19.124   0.000
    503      0      1  26.295  19.124   0.000
    504      0      1  27.490  19.124   0.000
    505      0      1  28.685  19.124   0.000
    506      0      1  29.881  19.124   0.000
    507      0      1  31.076  19.124   0.000
    508      0      1  32.271  19.124   0.000
    509      0      1  33.466  19.124   0.000
    510    123      2  34.662  19.124   0.000
    511      0      1   0.000  20.319   0.000
    512      0      1   1.195  20.319   0.000
    513      0      1   2.390  20.319   0.000
    514      0      1   3.586  20.319   0.000
    515      0      1   4.781  20.319   0.000
    516      0      1   5.976  20.319   0.000
    517      0      1   7.171  20.319   0.000
    518      0      1   8.367  20.319   0.000
    519    118      2   9.562  20.319   0.000
    520     36      2  10.757  20.319   0.000
    521     76      2  11.952  20.319   0.000
    522      0      1  13.148  20.319   0.000
    523      0      1  14.343  20.319   0.000
    524     22      2  15.538  20.319   0.000
    525      0      1  16.733  20.319   0.000
    526    127      2  17.928  20.319   0.000
    527      0      1  19.124  20.319   0.000
    528      0      1  20.319  20.319   0.000
    529      0      1  21.514  20.319   0.000
    530      0      1  22.709  20.319   0.000
    531     62      2  23.905  20.319   0.000
    532      0      1  25.100  20.319   0.000
    533      0      1  26.295  20.319   0.000
    534      0      1  27.490  20.319   0.000
    535      0      1  28.685  20.319   0.000
    536      4      2  29.881  20.319   0.000
    537      0      1  31.076  20.319   0.000
    538      0      1  32.271  20.319   0.000
    539      0      1  33.466  20.319   0.000
    540      0      1  34.662  20.319   0.000
    541      0      1   0.000  21.514   0.000
    542      0      1   1.195  21.514   0.000
    543      0      1   2.390  21.514   0.000
    544      0      1   3.586  21.514   0.000
    545      0      1   4.781  21.514   0.000
    546      0      1   5.976  21.514   0.000
    547      0      1   7.171  21.514   0.000
    548      0      1   8.367  21.514   0.000
    549      0      1   9.562  21.514   0.000
    550      0      1  10.757  21.514   0.000
    551      0      1  11.952  21.514   0.000
    552      0      1  13.148  21.514   0.000
    553     99      2  14.343  21.514   0.000
    554      0      1  15.538  21.514   0.000
    555      0      1  16.733  21.514   0.000
    556      0      1  17.928  21.514   0.000
    557      0      1  19.124  21.514   0.000
    558      0      1  20.319  21.514   0.000
    559      0      1  21.514  21.514   0.000
    560      1      2  22.709  21.514   0.000
    561    130      2  23.905  21.514   0.000
    562      0      1  25.100  21.514   0.000
    563      0      1  26.295  21.514   0.000
    564      0      1  27.490  21.514   0.000
    565     79      2  28.685  21.514   0.000
    566      0      1  29.881  21.514   0.000
    567      0      1  31.076  21.514   0.000
    568      0      1  32.271  21.514   0.000
    569      0      1  33.466  21.514   0.000
    570      0      1  34.662  21.514   0.000
    571      0      1   0.000  22.709   0.000
    572      0      1   1.195  22.709   0.000
    573      0      1   2.390  22.709   0.000
    574      0      1   3.586  22.709   0.000
    575      0      1   4.781  22.709   0.000
    576      0      1   5.976  22.709   0.000
    577      0      1   7.171  22.709   0.000
    578      0      1   8.367  22.709   0.000
    579      0      1   9.562  22.709   0.000
    580      0      1  10.757  22.709   0.000
    581      0      1  11.952  22.709   0.000
    582      0      1  13.148  22.709   0.000
    583      0      1  14.343  22.709   0.000
    584      0      1  15.538  22.709   0.000
    585      0      1  16.733  22.709   0.000
    586      0      1  17.928  22.709   0.000
    587    100      2  19.124  22.709   0.000
    588      0      1  20.319  22.709   0.000
    589      0      1  21.514  22.709   0.000
    590      0      1  22.709  22.709   0.000
    591      0      1  23.905  22.709   0.000
    592      0      1  25.100  22.709   0.000
    593    126      2  26.295  22.709   0.000
    594      0      1  27.490  22.709   0.000
    595      0      1  28.685  22.709   0.000
    596      0      1  29.881  22.709   0.000
    597      0      1  31.076  22.709   0.000
    598      0      1  32.271  22.709   0.000
    599      0      1  33.466  22.709   0.000
    600      0      1  34.662  22.709   0.000
    601      0      1   0.000  23.905   0.000
    602      0      1   1.195  23.905   0.000
    603      0      1   2.390  23.905   0.000
    604     37      2   3.586  23.905   0.000
    605      0      1   4.781  23.905   0.000
    606    140      2   5.976  23.905   0.000
    607      0      1   7.171  23.905   0.000
    608      0      1   8.367  23.905   0.000
    609      0      1   9.562  23.905   0.000
    610      0      1  10.757  23.905   0.000
    611      0      1  11.952  23.905   0.000
    612      0      1  13.148  23.905   0.000
    613      0      1  14.343  23.905   0.000
    614      0      1  15.538  23.905   0.000
    615      0      1  16.733  23.905   0.000
    616      0      1  17.928  23.905   0.000
    617      0      1  19.124  23.905   0.000
    618      0      1  20.319  23.905   0.000
    619      0      1  21.514  23.905   0.000
    620      0      1  22.709  23.905   0.000
    621      0      1  23.905  23.905   0.000
    622      0      1  25.100  23.905   0.000
    623      0      1  26.295  23.905   0.000
    624      0      1  27.490  23.905   0.000
    625      0      1  28.685  23.905   0.000
    626    141      2  29.881  23.905   0.000
    627      0      1  31.076  23.905   0.000
    628      0      1  32.271  23.905   0.000
    629      0      1  33.466  23.905   0.000
    630      0      1  34.662  23.905   0.000
    631    148      2   0.000  25.100   0.000
    632      0      1   1.195  25.100   0.000
    633      0      1   2.390  25.100   0.000
    634      0      1   3.586  25.100   0.000
    635      0      1   4.781  25.100   0.000
    636      0      1   5.976  25.100   0.000
    637      0      1   7.171  25.100   0.000
    638      0      1   8.367  25.100   0.000
    639     39      2   9.562  25.100   0.000
    640      0      1  10.757  25.100   0.000