LAMMPS (16 Aug 2013)
Reading data file ...
  orthogonal box = (-240 -240 -240) to (240 240 240)
  2 by 2 by 2 MPI processor grid
  1280 atoms
320 atoms in group sphere1
320 atoms in group sphere2
320 atoms in group sphere3
320 atoms in group sphere4
Using a lattice-Boltzmann grid of 120 by 120 by 120 total grid points. (../fix_lb_fluid.cpp:354)
Not adding the fluid force to any of the MD particles.  To add this force use one of the viscous_lb, pc, or rigid_pc_
sphere fixes (../fix_lb_fluid.cpp:575)
Setting up run ...
Memory usage per processor = 13.1925 Mbytes
Step Temp E_pair E_mol TotEng Press 
       0   0.24162089            0            0      6.4e-06 3.8580247e-14 
-------------------------------------------------------------------------------
     F_x          F_y          F_z          T_x          T_y          T_z
-------------------------------------------------------------------------------
-1.044162E-07 -2.449123E-02 -2.138869E-08 3.624597E-06 2.801217E-07 1.511116E-04
-2.558779E-05 -2.216321E-02 -2.953855E-08 3.110420E-06 2.415475E-07 3.706867E-04
-1.240804E-04 -2.103456E-02 -2.632129E-08 3.017582E-06 2.455698E-07 7.020053E-04
-6.499530E-05 -2.022936E-02 -2.524216E-08 2.830047E-06 2.725908E-07 1.033246E-03
-9.202340E-05 -1.983230E-02 -2.453552E-08 2.741904E-06 2.745715E-07 1.325392E-03
-1.034491E-04 -1.949318E-02 -2.412705E-08 2.666945E-06 2.822299E-07 1.569533E-03
-1.106194E-04 -1.929401E-02 -2.380893E-08 2.615488E-06 2.889920E-07 1.769933E-03
-1.187176E-04 -1.905467E-02 -2.341960E-08 2.548968E-06 2.930677E-07 1.934564E-03
-1.289826E-04 -1.877471E-02 -2.305510E-08 2.487851E-06 2.968795E-07 2.069949E-03
-1.484568E-04 -1.857833E-02 -2.258770E-08 2.439835E-06 2.983920E-07 2.181211E-03
-1.709625E-04 -1.853532E-02 -2.249271E-08 2.410615E-06 2.983898E-07 2.272796E-03
-1.754883E-04 -1.848647E-02 -2.260276E-08 2.383751E-06 3.011635E-07 2.349097E-03
-1.671215E-04 -1.832285E-02 -2.261853E-08 2.342528E-06 3.043047E-07 2.413626E-03
-1.760710E-04 -1.814482E-02 -2.211581E-08 2.295590E-06 3.041093E-07 2.468229E-03
-1.955237E-04 -1.812414E-02 -2.194180E-08 2.269779E-06 3.040100E-07 2.513942E-03
-2.041287E-04 -1.812177E-02 -2.224218E-08 2.251943E-06 3.049451E-07 2.552758E-03
-2.046727E-04 -1.803623E-02 -2.220734E-08 2.223071E-06 3.054935E-07 2.586374E-03
-2.088929E-04 -1.796612E-02 -2.200194E-08 2.191820E-06 3.062785E-07 2.615468E-03
-2.215767E-04 -1.793139E-02 -2.200508E-08 2.167361E-06 3.065128E-07 2.640679E-03
-2.330108E-04 -1.788431E-02 -2.204529E-08 2.143394E-06 3.061442E-07 2.662712E-03
-2.352178E-04 -1.781319E-02 -2.202474E-08 2.113684E-06 3.063044E-07 2.681983E-03
-2.366467E-04 -1.773927E-02 -2.192727E-08 2.082702E-06 3.065051E-07 2.698683E-03
-2.388842E-04 -1.769678E-02 -2.185360E-08 2.055950E-06 3.066294E-07 2.712958E-03
-2.407383E-04 -1.768230E-02 -2.186668E-08 2.033280E-06 3.066532E-07 2.725180E-03
-2.471259E-04 -1.768246E-02 -2.187552E-08 2.014340E-06 3.067187E-07 2.735819E-03
-2.587235E-04 -1.769270E-02 -2.191115E-08 1.998977E-06 3.069067E-07 2.745351E-03
-2.681156E-04 -1.768311E-02 -2.198241E-08 1.981899E-06 3.071166E-07 2.754253E-03
-2.693890E-04 -1.763855E-02 -2.198240E-08 1.959106E-06 3.076090E-07 2.762670E-03
-2.649222E-04 -1.758294E-02 -2.191731E-08 1.932597E-06 3.082559E-07 2.770394E-03
-2.626370E-04 -1.753984E-02 -2.186268E-08 1.906622E-06 3.085242E-07 2.777170E-03
-2.674718E-04 -1.751402E-02 -2.186273E-08 1.884244E-06 3.083890E-07 2.782902E-03
-2.767635E-04 -1.750059E-02 -2.193022E-08 1.866073E-06 3.081233E-07 2.787719E-03
-2.844671E-04 -1.749768E-02 -2.204921E-08 1.851092E-06 3.080618E-07 2.791873E-03
-2.877280E-04 -1.750434E-02 -2.222033E-08 1.837921E-06 3.085088E-07 2.795622E-03
-2.877233E-04 -1.750366E-02 -2.243976E-08 1.824310E-06 3.093114E-07 2.799203E-03
-2.859892E-04 -1.747662E-02 -2.264362E-08 1.808077E-06 3.100288E-07 2.802725E-03
-2.846357E-04 -1.743808E-02 -2.277126E-08 1.790599E-06 3.103300E-07 2.806059E-03
-2.872306E-04 -1.742575E-02 -2.288634E-08 1.776230E-06 3.102956E-07 2.808977E-03
-2.943981E-04 -1.744380E-02 -2.310569E-08 1.766379E-06 3.102618E-07 2.811484E-03
-3.011722E-04 -1.745112E-02 -2.340455E-08 1.756341E-06 3.104279E-07 2.813842E-03
-3.027184E-04 -1.742068E-02 -2.365962E-08 1.741313E-06 3.107315E-07 2.816224E-03
-3.005527E-04 -1.737708E-02 -2.384324E-08 1.722779E-06 3.109952E-07 2.818480E-03
-2.996906E-04 -1.735707E-02 -2.404429E-08 1.705612E-06 3.110932E-07 2.820349E-03
-3.019056E-04 -1.736144E-02 -2.432512E-08 1.691595E-06 3.111421E-07 2.821789E-03
-3.049795E-04 -1.736604E-02 -2.464617E-08 1.678792E-06 3.113458E-07 2.822977E-03
-3.070418E-04 -1.736163E-02 -2.494154E-08 1.665684E-06 3.117093E-07 2.824098E-03
-3.086917E-04 -1.736077E-02 -2.521500E-08 1.652922E-06 3.121159E-07 2.825226E-03
-3.109190E-04 -1.736957E-02 -2.550635E-08 1.641185E-06 3.125525E-07 2.826396E-03
-3.131113E-04 -1.737250E-02 -2.577923E-08 1.629357E-06 3.130127E-07 2.827667E-03
-3.141178E-04 -1.735335E-02 -2.597249E-08 1.615451E-06 3.133808E-07 2.829046E-03
-3.141340E-04 -1.732015E-02 -2.606503E-08 1.599987E-06 3.135323E-07 2.830380E-03
-3.143359E-04 -1.729646E-02 -2.611164E-08 1.585798E-06 3.135103E-07 2.831448E-03
-3.153014E-04 -1.729264E-02 -2.617467E-08 1.574689E-06 3.134689E-07 2.832155E-03
-3.168955E-04 -1.729904E-02 -2.625048E-08 1.566065E-06 3.135032E-07 2.832595E-03
-3.190884E-04 -1.730526E-02 -2.630061E-08 1.558786E-06 3.136117E-07 2.832949E-03
-3.216416E-04 -1.731032E-02 -2.631544E-08 1.552450E-06 3.137667E-07 2.833360E-03
-3.234004E-04 -1.731331E-02 -2.630338E-08 1.546584E-06 3.139489E-07 2.833905E-03
-3.232508E-04 -1.730890E-02 -2.625011E-08 1.540273E-06 3.141221E-07 2.834593E-03
-3.218530E-04 -1.729628E-02 -2.613428E-08 1.533309E-06 3.142025E-07 2.835358E-03
-3.213771E-04 -1.728277E-02 -2.596514E-08 1.526782E-06 3.140997E-07 2.836078E-03
-3.232127E-04 -1.727533E-02 -2.576740E-08 1.521861E-06 3.138136E-07 2.836664E-03
-3.265136E-04 -1.727344E-02 -2.555814E-08 1.518776E-06 3.134557E-07 2.837104E-03
-3.291528E-04 -1.727168E-02 -2.532614E-08 1.516732E-06 3.131488E-07 2.837450E-03
-3.297341E-04 -1.726638E-02 -2.504806E-08 1.514885E-06 3.129170E-07 2.837752E-03
-3.286240E-04 -1.725915E-02 -2.470496E-08 1.513061E-06 3.126949E-07 2.838025E-03
-3.274072E-04 -1.725491E-02 -2.430652E-08 1.511982E-06 3.124062E-07 2.838254E-03
-3.275549E-04 -1.725683E-02 -2.386485E-08 1.512302E-06 3.120257E-07 2.838437E-03
-3.293798E-04 -1.726348E-02 -2.338530E-08 1.514049E-06 3.115806E-07 2.838617E-03
-3.319103E-04 -1.726987E-02 -2.287243E-08 1.516746E-06 3.111252E-07 2.838861E-03
-3.337081E-04 -1.727041E-02 -2.234484E-08 1.518817E-06 3.107409E-07 2.839216E-03
-3.340227E-04 -1.726207E-02 -2.181134E-08 1.518809E-06 3.104389E-07 2.839666E-03
-3.333190E-04 -1.724705E-02 -2.126432E-08 1.517034E-06 3.101341E-07 2.840127E-03
-3.327338E-04 -1.723226E-02 -2.071155E-08 1.514678E-06 3.097732E-07 2.840483E-03
-3.330620E-04 -1.722481E-02 -2.016619E-08 1.513064E-06 3.093895E-07 2.840655E-03
-3.342534E-04 -1.722706E-02 -1.964745E-08 1.512753E-06 3.090947E-07 2.840653E-03
-3.356947E-04 -1.723557E-02 -1.915747E-08 1.513456E-06 3.089708E-07 2.840570E-03
-3.367833E-04 -1.724420E-02 -1.868303E-08 1.514374E-06 3.090271E-07 2.840528E-03
-3.372878E-04 -1.724834E-02 -1.819984E-08 1.514934E-06 3.092097E-07 2.840614E-03
-3.373710E-04 -1.724687E-02 -1.769443E-08 1.514943E-06 3.094391E-07 2.840842E-03
-3.373752E-04 -1.724123E-02 -1.719471E-08 1.514211E-06 3.096897E-07 2.841161E-03
-3.375531E-04 -1.723343E-02 -1.672298E-08 1.512852E-06 3.099760E-07 2.841493E-03
-3.379661E-04 -1.722536E-02 -1.630649E-08 1.510943E-06 3.103380E-07 2.841765E-03
-3.385884E-04 -1.721924E-02 -1.594409E-08 1.508878E-06 3.108073E-07 2.841932E-03
-3.393945E-04 -1.721710E-02 -1.563755E-08 1.506990E-06 3.114169E-07 2.841989E-03
-3.402681E-04 -1.721892E-02 -1.541118E-08 1.505532E-06 3.121870E-07 2.841968E-03
-3.409199E-04 -1.722214E-02 -1.526295E-08 1.504346E-06 3.131190E-07 2.841928E-03
-3.410761E-04 -1.722399E-02 -1.519957E-08 1.503348E-06 3.141625E-07 2.841921E-03
-3.408137E-04 -1.722408E-02 -1.520897E-08 1.502378E-06 3.152698E-07 2.841970E-03
-3.406153E-04 -1.722406E-02 -1.528783E-08 1.501603E-06 3.163965E-07 2.842069E-03
-3.409816E-04 -1.722483E-02 -1.543824E-08 1.501139E-06 3.175230E-07 2.842204E-03
-3.419654E-04 -1.722499E-02 -1.563197E-08 1.501020E-06 3.186126E-07 2.842366E-03
-3.431017E-04 -1.722238E-02 -1.586043E-08 1.501060E-06 3.196734E-07 2.842544E-03
-3.437929E-04 -1.721663E-02 -1.610267E-08 1.501450E-06 3.207043E-07 2.842718E-03
-3.437807E-04 -1.720974E-02 -1.635247E-08 1.502391E-06 3.217073E-07 2.842847E-03
-3.433308E-04 -1.720465E-02 -1.660954E-08 1.504134E-06 3.226731E-07 2.842900E-03
-3.430248E-04 -1.720359E-02 -1.689050E-08 1.506694E-06 3.235896E-07 2.842867E-03
-3.433273E-04 -1.720711E-02 -1.719733E-08 1.510113E-06 3.244686E-07 2.842775E-03
-3.442324E-04 -1.721371E-02 -1.748986E-08 1.514925E-06 3.252833E-07 2.842684E-03
-3.452656E-04 -1.722006E-02 -1.774370E-08 1.520985E-06 3.260257E-07 2.842656E-03
-3.458661E-04 -1.722257E-02 -1.795879E-08 1.527695E-06 3.266743E-07 2.842732E-03
-3.458404E-04 -1.721957E-02 -1.812774E-08 1.534674E-06 3.271904E-07 2.842901E-03
-3.454901E-04 -1.721252E-02 -1.824641E-08 1.541993E-06 3.275264E-07 2.843109E-03
-3.453203E-04 -1.720498E-02 -1.832063E-08 1.550080E-06 3.276619E-07 2.843282E-03
-3.456207E-04 -1.720026E-02 -1.836293E-08 1.559379E-06 3.276229E-07 2.843365E-03
-3.462859E-04 -1.719959E-02 -1.837954E-08 1.570189E-06 3.274682E-07 2.843347E-03
-3.469717E-04 -1.720209E-02 -1.837249E-08 1.582457E-06 3.272450E-07 2.843262E-03
-3.473883E-04 -1.720585E-02 -1.834055E-08 1.595850E-06 3.269737E-07 2.843164E-03
-3.474806E-04 -1.720912E-02 -1.827856E-08 1.610046E-06 3.266386E-07 2.843102E-03
-3.474064E-04 -1.721095E-02 -1.817658E-08 1.624994E-06 3.262098E-07 2.843101E-03
-3.473875E-04 -1.721120E-02 -1.803159E-08 1.640687E-06 3.256546E-07 2.843158E-03
-3.475638E-04 -1.721016E-02 -1.784599E-08 1.657125E-06 3.249580E-07 2.843256E-03
-3.479340E-04 -1.720819E-02 -1.762236E-08 1.674328E-06 3.241225E-07 2.843367E-03
-3.483916E-04 -1.720558E-02 -1.736219E-08 1.692302E-06 3.231611E-07 2.843465E-03
-3.488018E-04 -1.720270E-02 -1.706568E-08 1.711061E-06 3.220893E-07 2.843533E-03
-3.490667E-04 -1.720018E-02 -1.673280E-08 1.730647E-06 3.209218E-07 2.843557E-03
-3.491599E-04 -1.719877E-02 -1.636813E-08 1.751194E-06 3.196696E-07 2.843536E-03
-3.491388E-04 -1.719906E-02 -1.599249E-08 1.773141E-06 3.183345E-07 2.843478E-03
-3.491301E-04 -1.720116E-02 -1.560438E-08 1.796495E-06 3.169152E-07 2.843406E-03
-3.492707E-04 -1.720452E-02 -1.520182E-08 1.821123E-06 3.154038E-07 2.843344E-03
-3.496170E-04 -1.720796E-02 -1.476566E-08 1.846493E-06 3.137913E-07 2.843321E-03
-3.500862E-04 -1.720999E-02 -1.429329E-08 1.872267E-06 3.120704E-07 2.843351E-03
-3.504932E-04 -1.720943E-02 -1.376987E-08 1.897902E-06 3.102611E-07 2.843432E-03
-3.506781E-04 -1.720613E-02 -1.318729E-08 1.923090E-06 3.083797E-07 2.843540E-03
-3.506321E-04 -1.720130E-02 -1.255475E-08 1.947878E-06 3.064662E-07 2.843637E-03
-3.505170E-04 -1.719709E-02 -1.187992E-08 1.972491E-06 3.045505E-07 2.843683E-03
-3.505492E-04 -1.719544E-02 -1.116729E-08 1.997277E-06 3.026419E-07 2.843660E-03
-3.508336E-04 -1.719701E-02 -1.042206E-08 2.022492E-06 3.007460E-07 2.843577E-03
-3.512812E-04 -1.720081E-02 -9.647480E-09 2.048058E-06 2.988861E-07 2.843472E-03
-3.516800E-04 -1.720494E-02 -8.842400E-09 2.073699E-06 2.970784E-07 2.843389E-03
-3.518626E-04 -1.720761E-02 -8.002403E-09 2.099119E-06 2.953200E-07 2.843358E-03
-3.518324E-04 -1.720800E-02 -7.122313E-09 2.124192E-06 2.935778E-07 2.843388E-03
-3.517503E-04 -1.720642E-02 -6.196441E-09 2.149197E-06 2.918108E-07 2.843459E-03
-3.518002E-04 -1.720383E-02 -5.221986E-09 2.174648E-06 2.899919E-07 2.843540E-03
-3.520505E-04 -1.720129E-02 -4.202951E-09 2.200837E-06 2.881156E-07 2.843599E-03
-3.524151E-04 -1.719955E-02 -3.138728E-09 2.228012E-06 2.861839E-07 2.843618E-03
-3.527329E-04 -1.719888E-02 -2.028239E-09 2.256333E-06 2.842109E-07 2.843595E-03
-3.528923E-04 -1.719921E-02 -8.716919E-10 2.285814E-06 2.822183E-07 2.843541E-03
-3.529040E-04 -1.720038E-02 3.319512E-10 2.316460E-06 2.802053E-07 2.843472E-03
-3.528778E-04 -1.720219E-02 1.570696E-09 2.348479E-06 2.781536E-07 2.843406E-03
-3.529337E-04 -1.720433E-02 2.794337E-09 2.381450E-06 2.760860E-07 2.843359E-03
-3.531202E-04 -1.720625E-02 3.963440E-09 2.414649E-06 2.740382E-07 2.843342E-03
-3.533943E-04 -1.720724E-02 5.077705E-09 2.448243E-06 2.720008E-07 2.843359E-03
-3.536652E-04 -1.720677E-02 6.139026E-09 2.482268E-06 2.699727E-07 2.843401E-03
-3.538570E-04 -1.720486E-02 7.157904E-09 2.516661E-06 2.679548E-07 2.843454E-03
-3.539492E-04 -1.720220E-02 8.153271E-09 2.551310E-06 2.659466E-07 2.843493E-03
-3.539773E-04 -1.719988E-02 9.126749E-09 2.586418E-06 2.639473E-07 2.843499E-03
-3.540065E-04 -1.719894E-02 1.007829E-08 2.622219E-06 2.619581E-07 2.843462E-03
-3.540960E-04 -1.719986E-02 1.101260E-08 2.658769E-06 2.599815E-07 2.843389E-03
-3.542697E-04 -1.720236E-02 1.194122E-08 2.695842E-06 2.580217E-07 2.843301E-03
-3.545016E-04 -1.720548E-02 1.285773E-08 2.733222E-06 2.560784E-07 2.843225E-03
-3.547295E-04 -1.720800E-02 1.375882E-08 2.770594E-06 2.541553E-07 2.843184E-03
-3.548908E-04 -1.720897E-02 1.464414E-08 2.807653E-06 2.522413E-07 2.843187E-03
-3.549641E-04 -1.720813E-02 1.551511E-08 2.844196E-06 2.503258E-07 2.843225E-03
-3.549868E-04 -1.720601E-02 1.637339E-08 2.880244E-06 2.483919E-07 2.843274E-03
-3.550313E-04 -1.720362E-02 1.721169E-08 2.915657E-06 2.464231E-07 2.843308E-03
-3.551549E-04 -1.720199E-02 1.803220E-08 2.950650E-06 2.444214E-07 2.843307E-03
-3.553573E-04 -1.720172E-02 1.883458E-08 2.985349E-06 2.424009E-07 2.843267E-03
-3.555790E-04 -1.720277E-02 1.961742E-08 3.019734E-06 2.403834E-07 2.843199E-03
-3.557456E-04 -1.720463E-02 2.037960E-08 3.053664E-06 2.383892E-07 2.843121E-03
-3.558236E-04 -1.720663E-02 2.112086E-08 3.086905E-06 2.364301E-07 2.843054E-03
-3.558460E-04 -1.720823E-02 2.184200E-08 3.119316E-06 2.344902E-07 2.843011E-03
-3.558865E-04 -1.720914E-02 2.254366E-08 3.150819E-06 2.325455E-07 2.842997E-03
-3.560032E-04 -1.720928E-02 2.322637E-08 3.181375E-06 2.305785E-07 2.843006E-03
-3.561953E-04 -1.720868E-02 2.389031E-08 3.210969E-06 2.285870E-07 2.843026E-03
-3.564059E-04 -1.720753E-02 2.453580E-08 3.239565E-06 2.266000E-07 2.843044E-03
-3.565667E-04 -1.720617E-02 2.516448E-08 3.267190E-06 2.246403E-07 2.843047E-03
-3.566484E-04 -1.720509E-02 2.577674E-08 3.293939E-06 2.227209E-07 2.843027E-03
-3.566783E-04 -1.720482E-02 2.636955E-08 3.319965E-06 2.208439E-07 2.842982E-03
-3.567167E-04 -1.720564E-02 2.692944E-08 3.345550E-06 2.190044E-07 2.842916E-03
-3.568119E-04 -1.720742E-02 2.747147E-08 3.370409E-06 2.171994E-07 2.842844E-03
-3.569693E-04 -1.720963E-02 2.799053E-08 3.393602E-06 2.154611E-07 2.842782E-03
-3.571530E-04 -1.721150E-02 2.847612E-08 3.414852E-06 2.138032E-07 2.842744E-03
-3.573149E-04 -1.721236E-02 2.892630E-08 3.433953E-06 2.122246E-07 2.842736E-03
-3.574264E-04 -1.721195E-02 2.934458E-08 3.450841E-06 2.107152E-07 2.842752E-03
-3.574937E-04 -1.721057E-02 2.973757E-08 3.465631E-06 2.092673E-07 2.842775E-03
-3.575479E-04 -1.720890E-02 3.013178E-08 3.478819E-06 2.078561E-07 2.842788E-03
-3.576234E-04 -1.720771E-02 3.052472E-08 3.490599E-06 2.064807E-07 2.842776E-03
-3.577370E-04 -1.720755E-02 3.091359E-08 3.501094E-06 2.051489E-07 2.842734E-03
-3.578805E-04 -1.720852E-02 3.129581E-08 3.510325E-06 2.038722E-07 2.842670E-03
-3.580285E-04 -1.721026E-02 3.166883E-08 3.518200E-06 2.026613E-07 2.842598E-03
-3.581546E-04 -1.721218E-02 3.203073E-08 3.524560E-06 2.015215E-07 2.842537E-03
-3.582475E-04 -1.721367E-02 3.238475E-08 3.529298E-06 2.004456E-07 2.842497E-03
-3.583174E-04 -1.721437E-02 3.273434E-08 3.532368E-06 1.994191E-07 2.842482E-03
-3.583894E-04 -1.721422E-02 3.306756E-08 3.533591E-06 1.984438E-07 2.842487E-03
-3.584868E-04 -1.721348E-02 3.338888E-08 3.533080E-06 1.974918E-07 2.842500E-03
-3.586154E-04 -1.721252E-02 3.370826E-08 3.531092E-06 1.965457E-07 2.842507E-03
-3.587586E-04 -1.721174E-02 3.401584E-08 3.527645E-06 1.956365E-07 2.842497E-03
-3.588883E-04 -1.721145E-02 3.431227E-08 3.522880E-06 1.947836E-07 2.842467E-03
-3.589846E-04 -1.721179E-02 3.459863E-08 3.516908E-06 1.939907E-07 2.842419E-03
-3.590509E-04 -1.721275E-02 3.487523E-08 3.509850E-06 1.932536E-07 2.842362E-03
-3.591122E-04 -1.721413E-02 3.514052E-08 3.501651E-06 1.925655E-07 2.842306E-03
-3.591974E-04 -1.721562E-02 3.539340E-08 3.492228E-06 1.919181E-07 2.842260E-03
-3.593188E-04 -1.721684E-02 3.563294E-08 3.481482E-06 1.913051E-07 2.842232E-03
-3.594629E-04 -1.721744E-02 3.585947E-08 3.469361E-06 1.907327E-07 2.842223E-03
-3.596002E-04 -1.721727E-02 3.607390E-08 3.455745E-06 1.902213E-07 2.842226E-03
-3.597069E-04 -1.721648E-02 3.630459E-08 3.440970E-06 1.897474E-07 2.842233E-03
-3.597808E-04 -1.721546E-02 3.659621E-08 3.425796E-06 1.892660E-07 2.842232E-03
-3.598415E-04 -1.721474E-02 3.694812E-08 3.410463E-06 1.887689E-07 2.842214E-03
-3.599160E-04 -1.721474E-02 3.735369E-08 3.395062E-06 1.882584E-07 2.842176E-03
-3.600191E-04 -1.721557E-02 3.780733E-08 3.379528E-06 1.877258E-07 2.842122E-03
-3.601452E-04 -1.721703E-02 3.830275E-08 3.363661E-06 1.871642E-07 2.842064E-03
-3.602739E-04 -1.721864E-02 3.883811E-08 3.347355E-06 1.865775E-07 2.842014E-03
-3.603859E-04 -1.721992E-02 3.941058E-08 3.330428E-06 1.859619E-07 2.841981E-03
-3.604752E-04 -1.722052E-02 4.001672E-08 3.312789E-06 1.853193E-07 2.841967E-03
-3.605516E-04 -1.722040E-02 4.065574E-08 3.294500E-06 1.846439E-07 2.841968E-03
-3.606317E-04 -1.721978E-02 4.132905E-08 3.275632E-06 1.839326E-07 2.841973E-03
-3.607273E-04 -1.721904E-02 4.203888E-08 3.256321E-06 1.831816E-07 2.841971E-03
-3.608382E-04 -1.721856E-02 4.278517E-08 3.236651E-06 1.823942E-07 2.841956E-03
-3.609537E-04 -1.721858E-02 4.356791E-08 3.216680E-06 1.815778E-07 2.841923E-03
-3.610610E-04 -1.721917E-02 4.438670E-08 3.196422E-06 1.807388E-07 2.841878E-03
-3.611536E-04 -1.722019E-02 4.524229E-08 3.175903E-06 1.798887E-07 2.841828E-03
-3.612348E-04 -1.722142E-02 4.613581E-08 3.155131E-06 1.790320E-07 2.841782E-03
-3.613157E-04 -1.722256E-02 4.706600E-08 3.134050E-06 1.781633E-07 2.841746E-03
-3.614074E-04 -1.722336E-02 4.803201E-08 3.112618E-06 1.772765E-07 2.841725E-03
-3.615137E-04 -1.722369E-02 4.903347E-08 3.090816E-06 1.763672E-07 2.841716E-03
-3.616290E-04 -1.722355E-02 5.008468E-08 3.068837E-06 1.754190E-07 2.841714E-03
-3.617414E-04 -1.722309E-02 5.119337E-08 3.046847E-06 1.744211E-07 2.841713E-03
-3.618403E-04 -1.722258E-02 5.235598E-08 3.024831E-06 1.733955E-07 2.841703E-03
-3.619236E-04 -1.722231E-02 5.356404E-08 3.003155E-06 1.723645E-07 2.841681E-03
-3.619994E-04 -1.722251E-02 5.481696E-08 2.982201E-06 1.713346E-07 2.841646E-03
-3.620804E-04 -1.722325E-02 5.609772E-08 2.962189E-06 1.703099E-07 2.841600E-03
-3.621761E-04 -1.722439E-02 5.739338E-08 2.943381E-06 1.692878E-07 2.841551E-03
-3.622860E-04 -1.722564E-02 5.870586E-08 2.925702E-06 1.682671E-07 2.841508E-03
-3.624005E-04 -1.722667E-02 6.001858E-08 2.908809E-06 1.672666E-07 2.841476E-03
-3.625073E-04 -1.722720E-02 6.133436E-08 2.892619E-06 1.662866E-07 2.841459E-03
-3.626001E-04 -1.722719E-02 6.265104E-08 2.877184E-06 1.653232E-07 2.841452E-03
-3.626821E-04 -1.722678E-02 6.395313E-08 2.862288E-06 1.643870E-07 2.841447E-03
-3.627633E-04 -1.722628E-02 6.524331E-08 2.848022E-06 1.634653E-07 2.841437E-03
-3.628531E-04 -1.722600E-02 6.652650E-08 2.834569E-06 1.625436E-07 2.841415E-03
-3.629538E-04 -1.722617E-02 6.778518E-08 2.821696E-06 1.616481E-07 2.841380E-03
-3.630599E-04 -1.722682E-02 6.898150E-08 2.808804E-06 1.608275E-07 2.841335E-03
-3.631625E-04 -1.722781E-02 7.010682E-08 2.795704E-06 1.600865E-07 2.841286E-03
-3.632564E-04 -1.722889E-02 7.116798E-08 2.782437E-06 1.594161E-07 2.841243E-03
-3.633430E-04 -1.722982E-02 7.216825E-08 2.768937E-06 1.588124E-07 2.841208E-03
-3.634291E-04 -1.723041E-02 7.310960E-08 2.755154E-06 1.582702E-07 2.841185E-03
-3.635212E-04 -1.723061E-02 7.399406E-08 2.741059E-06 1.577854E-07 2.841171E-03
-3.636212E-04 -1.723050E-02 7.481319E-08 2.726798E-06 1.573583E-07 2.841160E-03
-3.637251E-04 -1.723023E-02 7.555136E-08 2.712672E-06 1.569937E-07 2.841146E-03
-3.638261E-04 -1.723001E-02 7.621630E-08 2.698666E-06 1.566939E-07 2.841124E-03
-3.639194E-04 -1.723004E-02 7.681042E-08 2.684840E-06 1.564693E-07 2.841091E-03
-3.640055E-04 -1.723041E-02 7.731177E-08 2.671672E-06 1.563340E-07 2.841050E-03
-3.640893E-04 -1.723112E-02 7.771878E-08 2.659340E-06 1.562921E-07 2.841003E-03
-3.641773E-04 -1.723206E-02 7.803486E-08 2.647875E-06 1.563387E-07 2.840956E-03
-3.642731E-04 -1.723303E-02 7.826116E-08 2.637235E-06 1.564697E-07 2.840915E-03
-3.643754E-04 -1.723381E-02 7.839844E-08 2.627382E-06 1.566807E-07 2.840883E-03
-3.644792E-04 -1.723424E-02 7.844899E-08 2.618215E-06 1.569551E-07 2.840861E-03
-3.645784E-04 -1.723431E-02 7.844665E-08 2.609961E-06 1.572470E-07 2.840844E-03
-3.646703E-04 -1.723411E-02 7.839155E-08 2.602569E-06 1.575505E-07 2.840828E-03
-3.647563E-04 -1.723385E-02 7.825440E-08 2.595631E-06 1.579049E-07 2.840807E-03
-3.648413E-04 -1.723378E-02 7.803087E-08 2.589014E-06 1.583209E-07 2.840778E-03
-3.649305E-04 -1.723403E-02 7.770315E-08 2.582278E-06 1.588211E-07 2.840739E-03
-3.650260E-04 -1.723465E-02 7.730354E-08 2.575023E-06 1.594020E-07 2.840693E-03
-3.651256E-04 -1.723552E-02 7.684096E-08 2.567044E-06 1.600640E-07 2.840645E-03
-3.652248E-04 -1.723646E-02 7.633466E-08 2.557915E-06 1.608149E-07 2.840600E-03
-3.653199E-04 -1.723724E-02 7.575004E-08 2.547779E-06 1.616935E-07 2.840563E-03
-3.654105E-04 -1.723774E-02 7.507510E-08 2.536610E-06 1.627215E-07 2.840535E-03
-3.654991E-04 -1.723791E-02 7.431331E-08 2.524383E-06 1.638966E-07 2.840512E-03
-3.655896E-04 -1.723785E-02 7.346643E-08 2.511111E-06 1.652179E-07 2.840492E-03
-3.656839E-04 -1.723771E-02 7.253600E-08 2.496841E-06 1.666806E-07 2.840468E-03
-3.657808E-04 -1.723767E-02 7.152381E-08 2.481762E-06 1.682544E-07 2.840437E-03
-3.658771E-04 -1.723786E-02 7.043112E-08 2.465953E-06 1.699330E-07 2.840398E-03
-3.659699E-04 -1.723833E-02 6.927254E-08 2.449738E-06 1.716881E-07 2.840352E-03
-3.660590E-04 -1.723902E-02 6.806485E-08 2.433356E-06 1.734962E-07 2.840304E-03
-3.661470E-04 -1.723983E-02 6.680582E-08 2.416797E-06 1.753566E-07 2.840257E-03
-3.662374E-04 -1.724061E-02 6.551801E-08 2.400399E-06 1.772498E-07 2.840215E-03
-3.663321E-04 -1.724121E-02 6.419661E-08 2.384135E-06 1.791727E-07 2.840179E-03
-3.664302E-04 -1.724156E-02 6.283804E-08 2.367962E-06 1.811254E-07 2.840150E-03
-3.665284E-04 -1.724167E-02 6.144076E-08 2.351854E-06 1.831087E-07 2.840123E-03
-3.666234E-04 -1.724162E-02 6.000416E-08 2.335809E-06 1.851270E-07 2.840096E-03
-3.667138E-04 -1.724156E-02 5.852939E-08 2.319912E-06 1.871933E-07 2.840064E-03
-3.668012E-04 -1.724165E-02 5.704556E-08 2.303760E-06 1.893017E-07 2.840026E-03
-3.668887E-04 -1.724198E-02 5.558578E-08 2.286810E-06 1.914521E-07 2.839981E-03
-3.669792E-04 -1.724256E-02 5.414429E-08 2.269061E-06 1.936514E-07 2.839931E-03
-3.670736E-04 -1.724332E-02 5.271584E-08 2.250646E-06 1.959107E-07 2.839880E-03
-3.671703E-04 -1.724411E-02 5.130303E-08 2.231483E-06 1.982288E-07 2.839832E-03
-3.672668E-04 -1.724477E-02 4.991793E-08 2.211366E-06 2.006014E-07 2.839790E-03
-3.673610E-04 -1.724520E-02 4.855821E-08 2.190369E-06 2.030231E-07 2.839753E-03
-3.674523E-04 -1.724539E-02 4.722250E-08 2.168369E-06 2.054974E-07 2.839721E-03
-3.675422E-04 -1.724541E-02 4.592460E-08 2.145161E-06 2.080243E-07 2.839691E-03
-3.676325E-04 -1.724539E-02 4.466154E-08 2.120823E-06 2.106054E-07 2.839659E-03
-3.677246E-04 -1.724547E-02 4.345349E-08 2.095716E-06 2.132162E-07 2.839621E-03
-3.678184E-04 -1.724575E-02 4.230867E-08 2.070051E-06 2.158164E-07 2.839578E-03
-3.679125E-04 -1.724625E-02 4.123137E-08 2.044437E-06 2.183894E-07 2.839529E-03
-3.680055E-04 -1.724691E-02 4.022217E-08 2.018866E-06 2.209241E-07 2.839478E-03
-3.680971E-04 -1.724762E-02 3.927675E-08 1.993317E-06 2.234237E-07 2.839427E-03
-3.681880E-04 -1.724827E-02 3.838435E-08 1.967890E-06 2.258899E-07 2.839381E-03
-3.682797E-04 -1.724877E-02 3.753044E-08 1.942774E-06 2.283243E-07 2.839340E-03
-3.683731E-04 -1.724907E-02 3.671682E-08 1.917952E-06 2.307262E-07 2.839303E-03
-3.684679E-04 -1.724921E-02 3.594366E-08 1.893430E-06 2.330953E-07 2.839267E-03
-3.685626E-04 -1.724927E-02 3.521085E-08 1.869234E-06 2.354304E-07 2.839230E-03
-3.686556E-04 -1.724935E-02 3.451691E-08 1.845466E-06 2.377276E-07 2.839188E-03
-3.687462E-04 -1.724955E-02 3.386197E-08 1.822144E-06 2.399897E-07 2.839141E-03
-3.688354E-04 -1.724994E-02 3.324586E-08 1.799277E-06 2.422185E-07 2.839088E-03
-3.689249E-04 -1.725050E-02 3.266812E-08 1.776870E-06 2.444154E-07 2.839033E-03
-3.690165E-04 -1.725116E-02 3.212770E-08 1.754935E-06 2.465779E-07 2.838977E-03
-3.691104E-04 -1.725182E-02 3.162153E-08 1.733545E-06 2.486944E-07 2.838923E-03
-3.692057E-04 -1.725238E-02 3.114927E-08 1.712698E-06 2.507605E-07 2.838874E-03
-3.693005E-04 -1.725277E-02 3.071116E-08 1.692530E-06 2.527563E-07 2.838829E-03
-3.693935E-04 -1.725298E-02 3.031003E-08 1.672893E-06 2.547003E-07 2.838786E-03
-3.694845E-04 -1.725308E-02 2.994562E-08 1.653777E-06 2.565921E-07 2.838742E-03
-3.695744E-04 -1.725317E-02 2.961957E-08 1.635096E-06 2.584411E-07 2.838696E-03
-3.696646E-04 -1.725334E-02 2.933628E-08 1.616657E-06 2.602625E-07 2.838644E-03
-3.697561E-04 -1.725367E-02 2.909464E-08 1.598494E-06 2.620560E-07 2.838587E-03
-3.698488E-04 -1.725417E-02 2.889390E-08 1.580631E-06 2.638225E-07 2.838527E-03
-3.699421E-04 -1.725478E-02 2.871142E-08 1.563375E-06 2.655679E-07 2.838465E-03
-3.700351E-04 -1.725541E-02 2.850358E-08 1.547338E-06 2.673078E-07 2.838405E-03
-3.701273E-04 -1.725598E-02 2.827143E-08 1.532600E-06 2.690429E-07 2.838348E-03
-3.702189E-04 -1.725641E-02 2.802048E-08 1.519174E-06 2.707688E-07 2.838294E-03
-3.703107E-04 -1.725670E-02 2.775360E-08 1.507024E-06 2.724774E-07 2.838243E-03
-3.704029E-04 -1.725687E-02 2.747254E-08 1.496105E-06 2.741669E-07 2.838192E-03
-3.704956E-04 -1.725700E-02 2.717931E-08 1.486416E-06 2.758380E-07 2.838139E-03
-3.705882E-04 -1.725718E-02 2.687465E-08 1.478058E-06 2.774709E-07 2.838083E-03
-3.706801E-04 -1.725746E-02 2.655825E-08 1.471159E-06 2.790509E-07 2.838022E-03
-3.707711E-04 -1.725788E-02 2.622774E-08 1.465745E-06 2.805760E-07 2.837957E-03
-3.708617E-04 -1.725842E-02 2.588308E-08 1.461946E-06 2.820285E-07 2.837891E-03
-3.709528E-04 -1.725901E-02 2.552975E-08 1.459696E-06 2.834107E-07 2.837824E-03
-3.710450E-04 -1.725958E-02 2.516048E-08 1.459134E-06 2.847341E-07 2.837759E-03
-3.711385E-04 -1.726007E-02 2.478017E-08 1.460173E-06 2.860000E-07 2.837696E-03
-3.712325E-04 -1.726043E-02 2.439958E-08 1.462657E-06 2.872047E-07 2.837636E-03
-3.713261E-04 -1.726067E-02 2.400955E-08 1.466692E-06 2.883479E-07 2.837577E-03
-3.714184E-04 -1.726084E-02 2.360912E-08 1.472297E-06 2.894297E-07 2.837517E-03
-3.715095E-04 -1.726101E-02 2.319993E-08 1.479468E-06 2.904497E-07 2.837456E-03
-3.715999E-04 -1.726126E-02 2.278310E-08 1.488203E-06 2.914079E-07 2.837391E-03
-3.716907E-04 -1.726162E-02 2.235930E-08 1.498499E-06 2.923045E-07 2.837323E-03
-3.717825E-04 -1.726211E-02 2.192751E-08 1.510370E-06 2.931395E-07 2.837253E-03
-3.718754E-04 -1.726267E-02 2.146513E-08 1.524115E-06 2.939184E-07 2.837182E-03
-3.719688E-04 -1.726324E-02 2.097095E-08 1.539783E-06 2.946412E-07 2.837112E-03
-3.720620E-04 -1.726375E-02 2.043384E-08 1.557538E-06 2.953072E-07 2.837045E-03
-3.721546E-04 -1.726415E-02 1.986031E-08 1.577321E-06 2.959102E-07 2.836981E-03
-3.722466E-04 -1.726444E-02 1.926641E-08 1.598922E-06 2.964437E-07 2.836918E-03
-3.723384E-04 -1.726465E-02 1.865425E-08 1.621921E-06 2.969171E-07 2.836855E-03
-3.724304E-04 -1.726485E-02 1.801121E-08 1.645568E-06 2.973621E-07 2.836791E-03
-3.725226E-04 -1.726509E-02 1.733836E-08 1.669856E-06 2.977820E-07 2.836725E-03
-3.726149E-04 -1.726543E-02 1.663757E-08 1.694791E-06 2.981768E-07 2.836656E-03
-3.727071E-04 -1.726586E-02 1.591793E-08 1.720489E-06 2.985429E-07 2.836585E-03
-3.727991E-04 -1.726638E-02 1.519017E-08 1.747127E-06 2.988725E-07 2.836513E-03
-3.728910E-04 -1.726692E-02 1.445143E-08 1.774651E-06 2.991619E-07 2.836442E-03
-3.729832E-04 -1.726744E-02 1.370058E-08 1.803008E-06 2.994115E-07 2.836373E-03
-3.730758E-04 -1.726788E-02 1.293741E-08 1.832172E-06 2.996215E-07 2.836306E-03
-3.731689E-04 -1.726822E-02 1.216188E-08 1.862118E-06 2.997924E-07 2.836242E-03
-3.732620E-04 -1.726848E-02 1.137397E-08 1.892836E-06 2.999245E-07 2.836179E-03
-3.733547E-04 -1.726871E-02 1.057371E-08 1.924283E-06 3.000044E-07 2.836115E-03
-3.734466E-04 -1.726895E-02 9.759795E-09 1.956407E-06 3.000239E-07 2.836050E-03
-3.735380E-04 -1.726925E-02 8.932478E-09 1.989190E-06 2.999846E-07 2.835982E-03
-3.736293E-04 -1.726964E-02 8.091702E-09 2.022610E-06 2.998879E-07 2.835912E-03
-3.737209E-04 -1.727011E-02 7.237345E-09 2.056650E-06 2.997375E-07 2.835841E-03
-3.738133E-04 -1.727064E-02 6.372188E-09 2.091153E-06 2.995528E-07 2.835770E-03
-3.739063E-04 -1.727115E-02 5.501665E-09 2.125793E-06 2.993619E-07 2.835700E-03
-3.739997E-04 -1.727162E-02 4.624275E-09 2.160527E-06 2.991661E-07 2.835632E-03
-3.740928E-04 -1.727200E-02 3.743224E-09 2.195149E-06 2.989775E-07 2.835566E-03
-3.741854E-04 -1.727230E-02 2.859961E-09 2.229579E-06 2.988040E-07 2.835501E-03
-3.742775E-04 -1.727255E-02 1.976669E-09 2.263751E-06 2.986521E-07 2.835436E-03
-3.743693E-04 -1.727280E-02 1.090747E-09 2.297695E-06 2.985223E-07 2.835369E-03
-3.744613E-04 -1.727309E-02 1.856810E-10 2.331212E-06 2.984325E-07 2.835301E-03
-3.745535E-04 -1.727345E-02 -7.401032E-10 2.364270E-06 2.983904E-07 2.835231E-03
-3.746461E-04 -1.727389E-02 -1.685171E-09 2.396894E-06 2.983965E-07 2.835161E-03
-3.747388E-04 -1.727439E-02 -2.654760E-09 2.429022E-06 2.984527E-07 2.835090E-03
-3.748315E-04 -1.727489E-02 -3.662816E-09 2.460421E-06 2.985670E-07 2.835020E-03
-3.749242E-04 -1.727537E-02 -4.707026E-09 2.491098E-06 2.987388E-07 2.834951E-03
-3.750170E-04 -1.727578E-02 -5.774389E-09 2.521240E-06 2.989549E-07 2.834885E-03
-3.751099E-04 -1.727612E-02 -6.849098E-09 2.550986E-06 2.991949E-07 2.834820E-03
-3.752029E-04 -1.727640E-02 -7.873952E-09 2.579520E-06 2.994466E-07 2.834755E-03
-3.752957E-04 -1.727667E-02 -8.833366E-09 2.606787E-06 2.997045E-07 2.834691E-03
-3.753884E-04 -1.727695E-02 -9.723822E-09 2.633126E-06 2.999603E-07 2.834624E-03
-3.754807E-04 -1.727729E-02 -1.055361E-08 2.658570E-06 3.002160E-07 2.834556E-03
-3.755729E-04 -1.727770E-02 -1.132789E-08 2.683170E-06 3.004783E-07 2.834486E-03
-3.756652E-04 -1.727816E-02 -1.205400E-08 2.707038E-06 3.007685E-07 2.834415E-03
-3.757578E-04 -1.727865E-02 -1.273430E-08 2.730233E-06 3.010854E-07 2.834344E-03
-3.758509E-04 -1.727913E-02 -1.337351E-08 2.753025E-06 3.014020E-07 2.834274E-03
-3.759443E-04 -1.727956E-02 -1.397613E-08 2.775758E-06 3.016952E-07 2.834206E-03
-3.760377E-04 -1.727993E-02 -1.454172E-08 2.798516E-06 3.019660E-07 2.834139E-03
-3.761309E-04 -1.728025E-02 -1.507007E-08 2.821318E-06 3.022128E-07 2.834073E-03
-3.762236E-04 -1.728053E-02 -1.556149E-08 2.844194E-06 3.024351E-07 2.834006E-03
-3.763161E-04 -1.728082E-02 -1.601625E-08 2.867180E-06 3.026324E-07 2.833939E-03
-3.764084E-04 -1.728114E-02 -1.643502E-08 2.890329E-06 3.028120E-07 2.833869E-03
-3.765009E-04 -1.728152E-02 -1.681510E-08 2.913688E-06 3.029664E-07 2.833799E-03
-3.765937E-04 -1.728196E-02 -1.715413E-08 2.937249E-06 3.030791E-07 2.833727E-03
-3.766868E-04 -1.728243E-02 -1.744319E-08 2.960912E-06 3.031124E-07 2.833655E-03
-3.767801E-04 -1.728290E-02 -1.768371E-08 2.984609E-06 3.030644E-07 2.833584E-03
-3.768735E-04 -1.728335E-02 -1.789629E-08 3.007916E-06 3.029474E-07 2.833514E-03
-3.769667E-04 -1.728374E-02 -1.808107E-08 3.030731E-06 3.027701E-07 2.833447E-03
-3.770599E-04 -1.728409E-02 -1.824854E-08 3.052821E-06 3.025404E-07 2.833380E-03
-3.771530E-04 -1.728439E-02 -1.841015E-08 3.073889E-06 3.022734E-07 2.833313E-03
-3.772461E-04 -1.728469E-02 -1.856175E-08 3.093918E-06 3.019711E-07 2.833246E-03
-3.773392E-04 -1.728501E-02 -1.868906E-08 3.113093E-06 3.016246E-07 2.833177E-03
-3.774322E-04 -1.728537E-02 -1.878034E-08 3.131669E-06 3.012158E-07 2.833107E-03
-3.775251E-04 -1.728578E-02 -1.884039E-08 3.149580E-06 3.007480E-07 2.833036E-03
-3.776181E-04 -1.728623E-02 -1.887041E-08 3.166783E-06 3.002233E-07 2.832964E-03
-3.777113E-04 -1.728669E-02 -1.887105E-08 3.183235E-06 2.996435E-07 2.832892E-03
-3.778047E-04 -1.728714E-02 -1.884282E-08 3.198890E-06 2.990104E-07 2.832822E-03
-3.778983E-04 -1.728756E-02 -1.878615E-08 3.213706E-06 2.983254E-07 2.832753E-03
-3.779919E-04 -1.728792E-02 -1.870143E-08 3.227643E-06 2.975896E-07 2.832684E-03
-3.780855E-04 -1.728825E-02 -1.859341E-08 3.240816E-06 2.967912E-07 2.832615E-03
-3.781789E-04 -1.728856E-02 -1.846328E-08 3.253244E-06 2.959298E-07 2.832546E-03
-3.782720E-04 -1.728887E-02 -1.831012E-08 3.264876E-06 2.950081E-07 2.832476E-03
-3.783650E-04 -1.728922E-02 -1.813445E-08 3.275688E-06 2.940267E-07 2.832404E-03
-3.784580E-04 -1.728961E-02 -1.794259E-08 3.285813E-06 2.929767E-07 2.832330E-03
-3.785513E-04 -1.729004E-02 -1.773440E-08 3.295206E-06 2.918591E-07 2.832256E-03
-3.786447E-04 -1.729050E-02 -1.750914E-08 3.303797E-06 2.906754E-07 2.832182E-03
-3.787385E-04 -1.729095E-02 -1.726644E-08 3.311517E-06 2.894271E-07 2.832109E-03
-3.788323E-04 -1.729137E-02 -1.700602E-08 3.318297E-06 2.881155E-07 2.832036E-03
-3.789260E-04 -1.729175E-02 -1.672922E-08 3.324092E-06 2.867550E-07 2.831964E-03
-3.790196E-04 -1.729210E-02 -1.643781E-08 3.328879E-06 2.853488E-07 2.831893E-03
-3.791131E-04 -1.729242E-02 -1.616969E-08 3.333130E-06 2.839074E-07 2.831821E-03
-3.792064E-04 -1.729274E-02 -1.595154E-08 3.337302E-06 2.824370E-07 2.831749E-03
-3.792999E-04 -1.729309E-02 -1.576606E-08 3.340869E-06 2.809822E-07 2.831677E-03
-3.793934E-04 -1.729346E-02 -1.561468E-08 3.343667E-06 2.795656E-07 2.831604E-03
-3.794870E-04 -1.729388E-02 -1.549927E-08 3.345640E-06 2.781909E-07 2.831532E-03
-3.795808E-04 -1.729432E-02 -1.541961E-08 3.346934E-06 2.768599E-07 2.831460E-03
-3.796747E-04 -1.729476E-02 -1.539726E-08 3.347883E-06 2.755794E-07 2.831387E-03
-3.797688E-04 -1.729519E-02 -1.545903E-08 3.348736E-06 2.743648E-07 2.831315E-03
-3.798630E-04 -1.729559E-02 -1.560664E-08 3.349317E-06 2.732231E-07 2.831243E-03
-3.799572E-04 -1.729596E-02 -1.582930E-08 3.349507E-06 2.721551E-07 2.831172E-03
-3.800514E-04 -1.729630E-02 -1.612287E-08 3.349124E-06 2.711996E-07 2.831101E-03
-3.801455E-04 -1.729663E-02 -1.647784E-08 3.348317E-06 2.703593E-07 2.831030E-03
-3.802395E-04 -1.729697E-02 -1.688466E-08 3.347432E-06 2.696214E-07 2.830958E-03
-3.803334E-04 -1.729733E-02 -1.732759E-08 3.346762E-06 2.689731E-07 2.830886E-03
-3.804273E-04 -1.729773E-02 -1.780020E-08 3.346370E-06 2.684043E-07 2.830813E-03
-3.805214E-04 -1.729816E-02 -1.830632E-08 3.346299E-06 2.679118E-07 2.830739E-03
-3.806156E-04 -1.729860E-02 -1.884069E-08 3.346500E-06 2.674942E-07 2.830666E-03
-3.807101E-04 -1.729903E-02 -1.937352E-08 3.346582E-06 2.671499E-07 2.830593E-03
-3.808047E-04 -1.729944E-02 -1.988839E-08 3.346341E-06 2.668730E-07 2.830521E-03
-3.808993E-04 -1.729983E-02 -2.037899E-08 3.345709E-06 2.666595E-07 2.830450E-03
-3.809938E-04 -1.730018E-02 -2.085533E-08 3.344894E-06 2.665015E-07 2.830379E-03
-3.810882E-04 -1.730052E-02 -2.132143E-08 3.344034E-06 2.663973E-07 2.830308E-03
-3.811825E-04 -1.730086E-02 -2.177778E-08 3.343195E-06 2.663462E-07 2.830237E-03
-3.812768E-04 -1.730123E-02 -2.222424E-08 3.342441E-06 2.663396E-07 2.830164E-03
-3.813712E-04 -1.730162E-02 -2.266279E-08 3.341899E-06 2.663582E-07 2.830091E-03
-3.814657E-04 -1.730203E-02 -2.309779E-08 3.341745E-06 2.663947E-07 2.830018E-03
-3.815603E-04 -1.730246E-02 -2.351912E-08 3.342169E-06 2.664378E-07 2.829945E-03
-3.816551E-04 -1.730290E-02 -2.392464E-08 3.343084E-06 2.664782E-07 2.829874E-03
-3.817500E-04 -1.730332E-02 -2.428184E-08 3.343639E-06 2.665034E-07 2.829804E-03
-3.818450E-04 -1.730371E-02 -2.457148E-08 3.343584E-06 2.665101E-07 2.829736E-03
-3.819399E-04 -1.730408E-02 -2.479492E-08 3.343121E-06 2.664982E-07 2.829669E-03
-3.820348E-04 -1.730443E-02 -2.496834E-08 3.342086E-06 2.664739E-07 2.829602E-03
-3.821297E-04 -1.730478E-02 -2.509534E-08 3.340464E-06 2.664406E-07 2.829536E-03
-3.822246E-04 -1.730514E-02 -2.518472E-08 3.338164E-06 2.664061E-07 2.829470E-03
-3.823195E-04 -1.730552E-02 -2.523905E-08 3.335163E-06 2.663778E-07 2.829403E-03
-3.824145E-04 -1.730593E-02 -2.525757E-08 3.331499E-06 2.663558E-07 2.829337E-03
-3.825096E-04 -1.730635E-02 -2.524037E-08 3.327202E-06 2.663399E-07 2.829272E-03
-3.826048E-04 -1.730678E-02 -2.519285E-08 3.322210E-06 2.663297E-07 2.829207E-03
-3.827001E-04 -1.730721E-02 -2.512168E-08 3.316418E-06 2.663254E-07 2.829143E-03
-3.827955E-04 -1.730761E-02 -2.502537E-08 3.309856E-06 2.663262E-07 2.829081E-03
-3.828910E-04 -1.730799E-02 -2.490371E-08 3.302545E-06 2.663315E-07 2.829018E-03
-3.829864E-04 -1.730836E-02 -2.475672E-08 3.294508E-06 2.663411E-07 2.828957E-03
-3.830818E-04 -1.730871E-02 -2.458456E-08 3.285770E-06 2.663549E-07 2.828895E-03
-3.831771E-04 -1.730907E-02 -2.438722E-08 3.276354E-06 2.663728E-07 2.828833E-03
-3.832724E-04 -1.730945E-02 -2.416470E-08 3.266283E-06 2.663951E-07 2.828771E-03
-3.833678E-04 -1.730984E-02 -2.391721E-08 3.255579E-06 2.664218E-07 2.828709E-03
-3.834633E-04 -1.731026E-02 -2.364494E-08 3.244263E-06 2.664530E-07 2.828647E-03
-3.835589E-04 -1.731068E-02 -2.334803E-08 3.232352E-06 2.664888E-07 2.828585E-03
-3.836547E-04 -1.731111E-02 -2.302655E-08 3.219864E-06 2.665291E-07 2.828524E-03
-3.837505E-04 -1.731152E-02 -2.269319E-08 3.206973E-06 2.665768E-07 2.828463E-03
-3.838464E-04 -1.731191E-02 -2.237325E-08 3.194023E-06 2.666380E-07 2.828403E-03
-3.839422E-04 -1.731228E-02 -2.206074E-08 3.181006E-06 2.667120E-07 2.828344E-03
-3.840380E-04 -1.731265E-02 -2.175329E-08 3.167931E-06 2.667981E-07 2.828285E-03
-3.841339E-04 -1.731301E-02 -2.145451E-08 3.154890E-06 2.668896E-07 2.828225E-03
-3.842297E-04 -1.731338E-02 -2.117369E-08 3.142083E-06 2.669595E-07 2.828165E-03
-3.843256E-04 -1.731377E-02 -2.092268E-08 3.129691E-06 2.670106E-07 2.828105E-03
-3.844216E-04 -1.731418E-02 -2.069492E-08 3.117705E-06 2.670280E-07 2.828045E-03
-3.845176E-04 -1.731460E-02 -2.048815E-08 3.106090E-06 2.670102E-07 2.827985E-03
-3.846138E-04 -1.731502E-02 -2.029306E-08 3.094718E-06 2.669555E-07 2.827925E-03
-3.847102E-04 -1.731544E-02 -2.010032E-08 3.083384E-06 2.668629E-07 2.827864E-03
-3.848066E-04 -1.731584E-02 -1.991579E-08 3.071520E-06 2.667556E-07 2.827804E-03
-3.849031E-04 -1.731622E-02 -1.976135E-08 3.058704E-06 2.666953E-07 2.827744E-03
-3.849996E-04 -1.731659E-02 -1.963840E-08 3.044897E-06 2.667025E-07 2.827684E-03
-3.850961E-04 -1.731696E-02 -1.954407E-08 3.030100E-06 2.667762E-07 2.827624E-03
-3.851925E-04 -1.731734E-02 -1.947792E-08 3.014315E-06 2.669156E-07 2.827565E-03
-3.852890E-04 -1.731772E-02 -1.943057E-08 2.997713E-06 2.671151E-07 2.827506E-03
-3.853855E-04 -1.731813E-02 -1.938329E-08 2.980774E-06 2.673535E-07 2.827447E-03
-3.854822E-04 -1.731854E-02 -1.933534E-08 2.963675E-06 2.676190E-07 2.827388E-03
-3.855790E-04 -1.731896E-02 -1.929030E-08 2.946401E-06 2.679125E-07 2.827330E-03
-3.856758E-04 -1.731938E-02 -1.924920E-08 2.928961E-06 2.682342E-07 2.827273E-03
-3.857728E-04 -1.731979E-02 -1.921259E-08 2.911366E-06 2.685842E-07 2.827217E-03
-3.858698E-04 -1.732018E-02 -1.916669E-08 2.893478E-06 2.689549E-07 2.827162E-03
-3.859668E-04 -1.732056E-02 -1.910408E-08 2.875353E-06 2.693252E-07 2.827108E-03
-3.860639E-04 -1.732094E-02 -1.902819E-08 2.857033E-06 2.696951E-07 2.827054E-03
-3.861609E-04 -1.732131E-02 -1.894571E-08 2.838663E-06 2.700590E-07 2.827000E-03
-3.862580E-04 -1.732170E-02 -1.886426E-08 2.820460E-06 2.704112E-07 2.826946E-03
-3.863551E-04 -1.732210E-02 -1.878173E-08 2.802395E-06 2.707528E-07 2.826892E-03
-3.864523E-04 -1.732251E-02 -1.869757E-08 2.784460E-06 2.710841E-07 2.826839E-03
-3.865497E-04 -1.732293E-02 -1.861150E-08 2.766645E-06 2.714051E-07 2.826787E-03
-3.866471E-04 -1.732335E-02 -1.852341E-08 2.748943E-06 2.717161E-07 2.826735E-03
-3.867446E-04 -1.732376E-02 -1.843320E-08 2.731345E-06 2.720169E-07 2.826684E-03
-3.868422E-04 -1.732416E-02 -1.834077E-08 2.713845E-06 2.723075E-07 2.826634E-03
-3.869399E-04 -1.732455E-02 -1.824602E-08 2.696437E-06 2.725880E-07 2.826585E-03
-3.870375E-04 -1.732493E-02 -1.814849E-08 2.679119E-06 2.728565E-07 2.826537E-03
-3.871352E-04 -1.732532E-02 -1.805675E-08 2.661781E-06 2.731188E-07 2.826488E-03
-3.872329E-04 -1.732570E-02 -1.798185E-08 2.644271E-06 2.733883E-07 2.826440E-03
-3.873306E-04 -1.732610E-02 -1.793087E-08 2.626377E-06 2.736730E-07 2.826393E-03
-3.874285E-04 -1.732651E-02 -1.790233E-08 2.608062E-06 2.739816E-07 2.826346E-03
-3.875264E-04 -1.732692E-02 -1.791366E-08 2.589020E-06 2.743230E-07 2.826300E-03
-3.876243E-04 -1.732734E-02 -1.797242E-08 2.569040E-06 2.747229E-07 2.826254E-03
-3.877224E-04 -1.732776E-02 -1.805408E-08 2.548462E-06 2.751713E-07 2.826209E-03
-3.878205E-04 -1.732817E-02 -1.813964E-08 2.527584E-06 2.756506E-07 2.826165E-03
-3.879186E-04 -1.732857E-02 -1.821448E-08 2.506636E-06 2.761555E-07 2.826122E-03
-3.880167E-04 -1.732896E-02 -1.827689E-08 2.485679E-06 2.766805E-07 2.826078E-03
-3.881147E-04 -1.732934E-02 -1.833035E-08 2.464708E-06 2.772258E-07 2.826035E-03
-3.882128E-04 -1.732973E-02 -1.837610E-08 2.443731E-06 2.777842E-07 2.825991E-03
-3.883108E-04 -1.733012E-02 -1.841523E-08 2.422752E-06 2.783563E-07 2.825948E-03
-3.884089E-04 -1.733053E-02 -1.844812E-08 2.401773E-06 2.789425E-07 2.825904E-03
-3.885070E-04 -1.733094E-02 -1.847520E-08 2.380794E-06 2.795432E-07 2.825861E-03
-3.886052E-04 -1.733136E-02 -1.849739E-08 2.359816E-06 2.801607E-07 2.825817E-03
-3.887034E-04 -1.733178E-02 -1.851499E-08 2.338842E-06 2.807948E-07 2.825774E-03
-3.888017E-04 -1.733219E-02 -1.852768E-08 2.317878E-06 2.814426E-07 2.825732E-03
-3.888999E-04 -1.733259E-02 -1.853885E-08 2.297048E-06 2.820743E-07 2.825689E-03
-3.889982E-04 -1.733299E-02 -1.856675E-08 2.276581E-06 2.826920E-07 2.825647E-03
-3.890965E-04 -1.733338E-02 -1.863383E-08 2.256866E-06 2.832930E-07 2.825605E-03
-3.891948E-04 -1.733377E-02 -1.874137E-08 2.238035E-06 2.838703E-07 2.825563E-03
-3.892931E-04 -1.733416E-02 -1.887064E-08 2.219722E-06 2.844353E-07 2.825521E-03
-3.893915E-04 -1.733457E-02 -1.901603E-08 2.201846E-06 2.849845E-07 2.825478E-03
-3.894899E-04 -1.733498E-02 -1.916619E-08 2.184156E-06 2.855233E-07 2.825436E-03
-3.895883E-04 -1.733540E-02 -1.932255E-08 2.166604E-06 2.860517E-07 2.825395E-03
-3.896868E-04 -1.733582E-02 -1.947382E-08 2.149022E-06 2.865762E-07 2.825353E-03
-3.897853E-04 -1.733623E-02 -1.961548E-08 2.131337E-06 2.871044E-07 2.825313E-03
-3.898839E-04 -1.733664E-02 -1.975019E-08 2.113552E-06 2.876360E-07 2.825274E-03
-3.899825E-04 -1.733704E-02 -1.987913E-08 2.095665E-06 2.881716E-07 2.825235E-03
-3.900812E-04 -1.733744E-02 -2.000309E-08 2.077671E-06 2.887117E-07 2.825196E-03
-3.901798E-04 -1.733783E-02 -2.012259E-08 2.059566E-06 2.892571E-07 2.825158E-03
-3.902784E-04 -1.733823E-02 -2.023798E-08 2.041345E-06 2.898083E-07 2.825121E-03
-3.903770E-04 -1.733863E-02 -2.034956E-08 2.023003E-06 2.903661E-07 2.825084E-03
-3.904757E-04 -1.733905E-02 -2.045762E-08 2.004535E-06 2.909310E-07 2.825047E-03
-3.905745E-04 -1.733946E-02 -2.056070E-08 1.985968E-06 2.915036E-07 2.825010E-03
-3.906733E-04 -1.733988E-02 -2.064799E-08 1.967569E-06 2.920757E-07 2.824974E-03
-3.907722E-04 -1.734030E-02 -2.072173E-08 1.949363E-06 2.926446E-07 2.824939E-03
-3.908712E-04 -1.734072E-02 -2.077597E-08 1.931520E-06 2.932086E-07 2.824905E-03
-3.909701E-04 -1.734112E-02 -2.083228E-08 1.913913E-06 2.937855E-07 2.824872E-03
-3.910691E-04 -1.734152E-02 -2.090139E-08 1.896407E-06 2.943871E-07 2.824839E-03
-3.911681E-04 -1.734192E-02 -2.097932E-08 1.879033E-06 2.950115E-07 2.824806E-03
-3.912670E-04 -1.734232E-02 -2.106469E-08 1.861809E-06 2.956577E-07 2.824774E-03
-3.913660E-04 -1.734273E-02 -2.115874E-08 1.844792E-06 2.963229E-07 2.824742E-03
-3.914650E-04 -1.734314E-02 -2.127659E-08 1.828378E-06 2.969900E-07 2.824710E-03
-3.915641E-04 -1.734355E-02 -2.142849E-08 1.812930E-06 2.976444E-07 2.824678E-03
-3.916632E-04 -1.734398E-02 -2.160959E-08 1.798445E-06 2.982855E-07 2.824646E-03
-3.917625E-04 -1.734440E-02 -2.181712E-08 1.784907E-06 2.989113E-07 2.824616E-03
-3.918617E-04 -1.734481E-02 -2.204763E-08 1.772308E-06 2.995078E-07 2.824587E-03
-3.919611E-04 -1.734523E-02 -2.228142E-08 1.760491E-06 3.000370E-07 2.824559E-03
-3.920605E-04 -1.734563E-02 -2.250536E-08 1.748911E-06 3.005125E-07 2.824533E-03
-3.921599E-04 -1.734604E-02 -2.273246E-08 1.737212E-06 3.009573E-07 2.824508E-03
-3.922594E-04 -1.734644E-02 -2.297517E-08 1.725268E-06 3.013840E-07 2.824484E-03
-3.923589E-04 -1.734684E-02 -2.324044E-08 1.712962E-06 3.018017E-07 2.824460E-03
-3.924584E-04 -1.734725E-02 -2.353082E-08 1.700252E-06 3.022431E-07 2.824436E-03
-3.925580E-04 -1.734767E-02 -2.383918E-08 1.687201E-06 3.027091E-07 2.824412E-03
-3.926576E-04 -1.734809E-02 -2.415507E-08 1.673957E-06 3.031972E-07 2.824390E-03
-3.927573E-04 -1.734851E-02 -2.446878E-08 1.660669E-06 3.037011E-07 2.824367E-03
-3.928570E-04 -1.734893E-02 -2.477344E-08 1.647458E-06 3.042109E-07 2.824346E-03
-3.929568E-04 -1.734935E-02 -2.507239E-08 1.634328E-06 3.047262E-07 2.824324E-03
-3.930566E-04 -1.734976E-02 -2.536474E-08 1.621318E-06 3.052444E-07 2.824303E-03
-3.931563E-04 -1.735017E-02 -2.561784E-08 1.608857E-06 3.057313E-07 2.824281E-03
-3.932561E-04 -1.735057E-02 -2.582921E-08 1.597049E-06 3.061773E-07 2.824260E-03
-3.933559E-04 -1.735098E-02 -2.600372E-08 1.585900E-06 3.065826E-07 2.824239E-03
-3.934557E-04 -1.735139E-02 -2.614336E-08 1.575429E-06 3.069471E-07 2.824218E-03
-3.935555E-04 -1.735180E-02 -2.624920E-08 1.565656E-06 3.072701E-07 2.824197E-03
-3.936553E-04 -1.735222E-02 -2.632196E-08 1.556602E-06 3.075509E-07 2.824176E-03
-3.937552E-04 -1.735265E-02 -2.636229E-08 1.548287E-06 3.077887E-07 2.824154E-03
-3.938551E-04 -1.735307E-02 -2.637053E-08 1.540732E-06 3.079824E-07 2.824133E-03
-3.939550E-04 -1.735348E-02 -2.634701E-08 1.533960E-06 3.081309E-07 2.824113E-03
-3.940549E-04 -1.735390E-02 -2.629193E-08 1.527992E-06 3.082331E-07 2.824092E-03
-3.941549E-04 -1.735431E-02 -2.620544E-08 1.522852E-06 3.082877E-07 2.824071E-03
-3.942549E-04 -1.735472E-02 -2.608695E-08 1.518552E-06 3.082937E-07 2.824051E-03
-3.943548E-04 -1.735512E-02 -2.592843E-08 1.514968E-06 3.082521E-07 2.824030E-03
-3.944549E-04 -1.735553E-02 -2.572988E-08 1.512099E-06 3.081605E-07 2.824009E-03
-3.945549E-04 -1.735595E-02 -2.549236E-08 1.509981E-06 3.080175E-07 2.823987E-03
-3.946550E-04 -1.735637E-02 -2.521560E-08 1.508633E-06 3.078217E-07 2.823965E-03
-3.947551E-04 -1.735679E-02 -2.489105E-08 1.507931E-06 3.075752E-07 2.823942E-03
-3.948552E-04 -1.735721E-02 -2.451814E-08 1.507874E-06 3.072786E-07 2.823920E-03
-3.949554E-04 -1.735763E-02 -2.409045E-08 1.508366E-06 3.069344E-07 2.823899E-03
-3.950557E-04 -1.735805E-02 -2.360416E-08 1.509327E-06 3.065428E-07 2.823876E-03
-3.951560E-04 -1.735846E-02 -2.306989E-08 1.510917E-06 3.061039E-07 2.823854E-03
-3.952563E-04 -1.735887E-02 -2.252226E-08 1.512540E-06 3.056771E-07 2.823830E-03
-3.953567E-04 -1.735928E-02 -2.198720E-08 1.513441E-06 3.053183E-07 2.823807E-03
-3.954570E-04 -1.735970E-02 -2.146498E-08 1.513798E-06 3.050236E-07 2.823783E-03
-3.955573E-04 -1.736011E-02 -2.095479E-08 1.513814E-06 3.047871E-07 2.823759E-03
-3.956577E-04 -1.736053E-02 -2.044784E-08 1.513653E-06 3.046035E-07 2.823735E-03
-3.957581E-04 -1.736095E-02 -1.994421E-08 1.513335E-06 3.044854E-07 2.823712E-03
-3.958586E-04 -1.736138E-02 -1.944257E-08 1.512921E-06 3.044300E-07 2.823689E-03
-3.959591E-04 -1.736180E-02 -1.894198E-08 1.512481E-06 3.044348E-07 2.823667E-03
-3.960596E-04 -1.736222E-02 -1.843564E-08 1.512219E-06 3.045043E-07 2.823645E-03
-3.961601E-04 -1.736264E-02 -1.792168E-08 1.512253E-06 3.046377E-07 2.823623E-03
-3.962607E-04 -1.736305E-02 -1.742896E-08 1.512256E-06 3.048625E-07 2.823602E-03
-3.963614E-04 -1.736347E-02 -1.697341E-08 1.512020E-06 3.052050E-07 2.823581E-03
-3.964620E-04 -1.736388E-02 -1.657618E-08 1.511274E-06 3.056875E-07 2.823561E-03
-3.965626E-04 -1.736430E-02 -1.623219E-08 1.510064E-06 3.063100E-07 2.823542E-03
-3.966633E-04 -1.736472E-02 -1.593927E-08 1.508447E-06 3.070671E-07 2.823522E-03
-3.967640E-04 -1.736514E-02 -1.571770E-08 1.506673E-06 3.079406E-07 2.823502E-03
-3.968647E-04 -1.736557E-02 -1.556579E-08 1.504915E-06 3.089111E-07 2.823483E-03
-3.969655E-04 -1.736599E-02 -1.549734E-08 1.503493E-06 3.099368E-07 2.823463E-03
-3.970664E-04 -1.736642E-02 -1.550807E-08 1.502363E-06 3.110080E-07 2.823444E-03
-3.971673E-04 -1.736684E-02 -1.559519E-08 1.501503E-06 3.121201E-07 2.823426E-03
-3.972682E-04 -1.736726E-02 -1.575409E-08 1.500854E-06 3.132731E-07 2.823408E-03
-3.973693E-04 -1.736767E-02 -1.595110E-08 1.500562E-06 3.144215E-07 2.823392E-03
-3.974704E-04 -1.736809E-02 -1.618046E-08 1.500713E-06 3.155541E-07 2.823375E-03
-3.975716E-04 -1.736851E-02 -1.642861E-08 1.501641E-06 3.166534E-07 2.823358E-03
-3.976728E-04 -1.736893E-02 -1.669382E-08 1.503385E-06 3.177167E-07 2.823340E-03
-3.977739E-04 -1.736935E-02 -1.697321E-08 1.505825E-06 3.187385E-07 2.823321E-03
-3.978751E-04 -1.736978E-02 -1.727593E-08 1.508602E-06 3.197103E-07 2.823302E-03
-3.979763E-04 -1.737020E-02 -1.759551E-08 1.511575E-06 3.206361E-07 2.823282E-03
-3.980775E-04 -1.737063E-02 -1.788604E-08 1.515423E-06 3.214631E-07 2.823262E-03
-3.981787E-04 -1.737105E-02 -1.812504E-08 1.520464E-06 3.221632E-07 2.823241E-03
-3.982799E-04 -1.737147E-02 -1.832241E-08 1.526657E-06 3.227232E-07 2.823221E-03
-3.983810E-04 -1.737189E-02 -1.848316E-08 1.533939E-06 3.231465E-07 2.823200E-03
-3.984821E-04 -1.737231E-02 -1.860959E-08 1.542239E-06 3.234369E-07 2.823179E-03
-3.985833E-04 -1.737273E-02 -1.870352E-08 1.551493E-06 3.235983E-07 2.823158E-03
-3.986844E-04 -1.737315E-02 -1.876638E-08 1.561636E-06 3.236340E-07 2.823137E-03
-3.987855E-04 -1.737357E-02 -1.879441E-08 1.572728E-06 3.235487E-07 2.823115E-03
-3.988866E-04 -1.737400E-02 -1.878646E-08 1.584801E-06 3.233387E-07 2.823093E-03
-3.989877E-04 -1.737442E-02 -1.874473E-08 1.597792E-06 3.230063E-07 2.823072E-03
-3.990888E-04 -1.737485E-02 -1.867011E-08 1.611654E-06 3.225538E-07 2.823050E-03
-3.991900E-04 -1.737527E-02 -1.855747E-08 1.626496E-06 3.219885E-07 2.823028E-03
-3.992911E-04 -1.737570E-02 -1.840561E-08 1.642346E-06 3.213112E-07 2.823006E-03
-3.993922E-04 -1.737612E-02 -1.821619E-08 1.659158E-06 3.205238E-07 2.822984E-03
-3.994933E-04 -1.737654E-02 -1.798993E-08 1.676893E-06 3.196277E-07 2.822961E-03
-3.995944E-04 -1.737696E-02 -1.772729E-08 1.695515E-06 3.186241E-07 2.822939E-03
-3.996955E-04 -1.737738E-02 -1.742855E-08 1.714987E-06 3.175142E-07 2.822915E-03
-3.997966E-04 -1.737780E-02 -1.709399E-08 1.735273E-06 3.162990E-07 2.822892E-03
-3.998977E-04 -1.737822E-02 -1.672754E-08 1.756400E-06 3.149781E-07 2.822868E-03
-3.999988E-04 -1.737865E-02 -1.634853E-08 1.778714E-06 3.135446E-07 2.822843E-03
-4.000999E-04 -1.737908E-02 -1.595346E-08 1.802185E-06 3.119990E-07 2.822818E-03
-4.002010E-04 -1.737950E-02 -1.553909E-08 1.826735E-06 3.103419E-07 2.822793E-03
-4.003021E-04 -1.737993E-02 -1.508642E-08 1.851989E-06 3.085779E-07 2.822768E-03
-4.004032E-04 -1.738035E-02 -1.459471E-08 1.877839E-06 3.067083E-07 2.822741E-03
-4.005044E-04 -1.738077E-02 -1.405265E-08 1.903950E-06 3.047576E-07 2.822715E-03
-4.006055E-04 -1.738119E-02 -1.345603E-08 1.930078E-06 3.027457E-07 2.822687E-03
-4.007066E-04 -1.738161E-02 -1.281618E-08 1.956114E-06 3.007178E-07 2.822659E-03
-4.008077E-04 -1.738203E-02 -1.213927E-08 1.981944E-06 2.987085E-07 2.822631E-03
-4.009089E-04 -1.738246E-02 -1.142490E-08 2.007571E-06 2.967236E-07 2.822603E-03
-4.010100E-04 -1.738288E-02 -1.067244E-08 2.033094E-06 2.947526E-07 2.822574E-03
-4.011112E-04 -1.738331E-02 -9.882056E-09 2.058547E-06 2.927954E-07 2.822544E-03
-4.012123E-04 -1.738374E-02 -9.053786E-09 2.083964E-06 2.908513E-07 2.822514E-03
-4.013135E-04 -1.738416E-02 -8.187599E-09 2.109376E-06 2.889192E-07 2.822484E-03
-4.014147E-04 -1.738459E-02 -7.283104E-09 2.134839E-06 2.869902E-07 2.822453E-03
-4.015159E-04 -1.738501E-02 -6.337126E-09 2.160613E-06 2.850569E-07 2.822423E-03
-4.016171E-04 -1.738543E-02 -5.346492E-09 2.187045E-06 2.831145E-07 2.822392E-03
-4.017183E-04 -1.738586E-02 -4.312971E-09 2.214227E-06 2.811565E-07 2.822360E-03
-4.018196E-04 -1.738628E-02 -3.233331E-09 2.242268E-06 2.791592E-07 2.822329E-03
-4.019208E-04 -1.738671E-02 -2.104964E-09 2.271280E-06 2.771031E-07 2.822297E-03
-4.020221E-04 -1.738713E-02 -9.279677E-10 2.301293E-06 2.749878E-07 2.822265E-03
-4.021233E-04 -1.738756E-02 2.979982E-10 2.332345E-06 2.728114E-07 2.822233E-03
-4.022246E-04 -1.738799E-02 1.560469E-09 2.364675E-06 2.705704E-07 2.822200E-03
-4.023260E-04 -1.738842E-02 2.808469E-09 2.397897E-06 2.683089E-07 2.822167E-03
-4.024273E-04 -1.738884E-02 4.002575E-09 2.431363E-06 2.660793E-07 2.822133E-03
-4.025287E-04 -1.738927E-02 5.143041E-09 2.465374E-06 2.638743E-07 2.822099E-03
-4.026300E-04 -1.738969E-02 6.231118E-09 2.500079E-06 2.616882E-07 2.822064E-03
-4.027314E-04 -1.739011E-02 7.275776E-09 2.535440E-06 2.595183E-07 2.822029E-03
-4.028327E-04 -1.739054E-02 8.294381E-09 2.571235E-06 2.573622E-07 2.821992E-03
-4.029341E-04 -1.739097E-02 9.287994E-09 2.607463E-06 2.552166E-07 2.821956E-03
-4.030355E-04 -1.739139E-02 1.025727E-08 2.644147E-06 2.530787E-07 2.821918E-03
-4.031369E-04 -1.739182E-02 1.120884E-08 2.681220E-06 2.509469E-07 2.821879E-03
-4.032383E-04 -1.739225E-02 1.215649E-08 2.718483E-06 2.488214E-07 2.821841E-03
-4.033397E-04 -1.739268E-02 1.309539E-08 2.755893E-06 2.466998E-07 2.821802E-03
-4.034412E-04 -1.739311E-02 1.402245E-08 2.793383E-06 2.445867E-07 2.821763E-03
-4.035426E-04 -1.739354E-02 1.493616E-08 2.830861E-06 2.424758E-07 2.821723E-03
-4.036441E-04 -1.739396E-02 1.583585E-08 2.868208E-06 2.403668E-07 2.821684E-03
-4.037455E-04 -1.739439E-02 1.672090E-08 2.905357E-06 2.382547E-07 2.821645E-03
-4.038470E-04 -1.739481E-02 1.758255E-08 2.941957E-06 2.361331E-07 2.821606E-03
-4.039484E-04 -1.739524E-02 1.842326E-08 2.977995E-06 2.340038E-07 2.821566E-03
-4.040499E-04 -1.739567E-02 1.924411E-08 3.013451E-06 2.318680E-07 2.821526E-03
-4.041514E-04 -1.739610E-02 2.004567E-08 3.048297E-06 2.297271E-07 2.821485E-03
-4.042529E-04 -1.739653E-02 2.082805E-08 3.082497E-06 2.275840E-07 2.821444E-03
-4.043544E-04 -1.739696E-02 2.159131E-08 3.115964E-06 2.254479E-07 2.821403E-03
-4.044559E-04 -1.739739E-02 2.233567E-08 3.148682E-06 2.233170E-07 2.821361E-03
-4.045574E-04 -1.739782E-02 2.306093E-08 3.180638E-06 2.211906E-07 2.821318E-03
-4.046589E-04 -1.739825E-02 2.376716E-08 3.211809E-06 2.190698E-07 2.821276E-03
-4.047604E-04 -1.739868E-02 2.445446E-08 3.242171E-06 2.169560E-07 2.821233E-03
-4.048620E-04 -1.739910E-02 2.512299E-08 3.271652E-06 2.148670E-07 2.821190E-03
-4.049635E-04 -1.739953E-02 2.577380E-08 3.300211E-06 2.128081E-07 2.821147E-03
-4.050651E-04 -1.739996E-02 2.640654E-08 3.327838E-06 2.107803E-07 2.821104E-03
-4.051667E-04 -1.740039E-02 2.701757E-08 3.354570E-06 2.087841E-07 2.821061E-03
-4.052683E-04 -1.740083E-02 2.759365E-08 3.380609E-06 2.068198E-07 2.821018E-03
-4.053700E-04 -1.740126E-02 2.815102E-08 3.405676E-06 2.048931E-07 2.820974E-03
-4.054717E-04 -1.740169E-02 2.868575E-08 3.428938E-06 2.030431E-07 2.820931E-03
-4.055735E-04 -1.740212E-02 2.918853E-08 3.450292E-06 2.012831E-07 2.820888E-03
-4.056752E-04 -1.740255E-02 2.965773E-08 3.469699E-06 1.996098E-07 2.820845E-03
-4.057770E-04 -1.740298E-02 3.009603E-08 3.487174E-06 1.980143E-07 2.820802E-03
-4.058789E-04 -1.740341E-02 3.050842E-08 3.502777E-06 1.964942E-07 2.820760E-03
-4.059807E-04 -1.740384E-02 3.092016E-08 3.516853E-06 1.950287E-07 2.820718E-03
-4.060825E-04 -1.740428E-02 3.132773E-08 3.529402E-06 1.936174E-07 2.820675E-03
-4.061843E-04 -1.740471E-02 3.172849E-08 3.540405E-06 1.922624E-07 2.820632E-03
-4.062861E-04 -1.740514E-02 3.212090E-08 3.549850E-06 1.909657E-07 2.820588E-03
-4.063880E-04 -1.740558E-02 3.250386E-08 3.557723E-06 1.897292E-07 2.820545E-03
-4.064898E-04 -1.740601E-02 3.287661E-08 3.564011E-06 1.885548E-07 2.820501E-03
-4.065917E-04 -1.740645E-02 3.324286E-08 3.568757E-06 1.874393E-07 2.820457E-03
-4.066936E-04 -1.740688E-02 3.360593E-08 3.572010E-06 1.863776E-07 2.820413E-03
-4.067956E-04 -1.740731E-02 3.395282E-08 3.573600E-06 1.853846E-07 2.820371E-03
-4.068976E-04 -1.740774E-02 3.428718E-08 3.573590E-06 1.844396E-07 2.820329E-03
-4.069997E-04 -1.740818E-02 3.461842E-08 3.572143E-06 1.835237E-07 2.820287E-03
-4.071018E-04 -1.740861E-02 3.493615E-08 3.569177E-06 1.826599E-07 2.820245E-03
-4.072038E-04 -1.740905E-02 3.524089E-08 3.564763E-06 1.818552E-07 2.820203E-03
-4.073059E-04 -1.740948E-02 3.553391E-08 3.558977E-06 1.811033E-07 2.820162E-03
-4.074079E-04 -1.740992E-02 3.581579E-08 3.551945E-06 1.803970E-07 2.820120E-03
-4.075100E-04 -1.741035E-02 3.608522E-08 3.543652E-06 1.797350E-07 2.820078E-03
-4.076121E-04 -1.741079E-02 3.634195E-08 3.534085E-06 1.791180E-07 2.820036E-03
-4.077142E-04 -1.741122E-02 3.658568E-08 3.523230E-06 1.785470E-07 2.819994E-03
-4.078164E-04 -1.741166E-02 3.681728E-08 3.511114E-06 1.780305E-07 2.819952E-03
-4.079185E-04 -1.741209E-02 3.703757E-08 3.497657E-06 1.775873E-07 2.819910E-03
-4.080207E-04 -1.741253E-02 3.727470E-08 3.483179E-06 1.771887E-07 2.819868E-03
-4.081229E-04 -1.741296E-02 3.757301E-08 3.468365E-06 1.767843E-07 2.819827E-03
-4.082250E-04 -1.741340E-02 3.793057E-08 3.453334E-06 1.763647E-07 2.819785E-03
-4.083272E-04 -1.741383E-02 3.834011E-08 3.438076E-06 1.759319E-07 2.819744E-03
-4.084295E-04 -1.741427E-02 3.879618E-08 3.422490E-06 1.754757E-07 2.819702E-03
-4.085317E-04 -1.741471E-02 3.929339E-08 3.406418E-06 1.749859E-07 2.819661E-03
-4.086339E-04 -1.741514E-02 3.983116E-08 3.389858E-06 1.744641E-07 2.819620E-03
-4.087362E-04 -1.741558E-02 4.040756E-08 3.372745E-06 1.739076E-07 2.819579E-03
-4.088385E-04 -1.741601E-02 4.101953E-08 3.355071E-06 1.733228E-07 2.819538E-03
-4.089408E-04 -1.741645E-02 4.166582E-08 3.336909E-06 1.727101E-07 2.819497E-03
-4.090431E-04 -1.741688E-02 4.234703E-08 3.318285E-06 1.720717E-07 2.819456E-03
-4.091454E-04 -1.741732E-02 4.306445E-08 3.299247E-06 1.714034E-07 2.819415E-03
-4.092478E-04 -1.741775E-02 4.381725E-08 3.279795E-06 1.707049E-07 2.819375E-03
-4.093501E-04 -1.741819E-02 4.460508E-08 3.259928E-06 1.699760E-07 2.819334E-03
-4.094525E-04 -1.741863E-02 4.542765E-08 3.239651E-06 1.692168E-07 2.819294E-03
-4.095549E-04 -1.741906E-02 4.628626E-08 3.219016E-06 1.684365E-07 2.819254E-03
-4.096573E-04 -1.741950E-02 4.718278E-08 3.198083E-06 1.676413E-07 2.819214E-03
-4.097597E-04 -1.741994E-02 4.811673E-08 3.176856E-06 1.668306E-07 2.819174E-03
-4.098622E-04 -1.742037E-02 4.908783E-08 3.155344E-06 1.660041E-07 2.819133E-03
-4.099646E-04 -1.742081E-02 5.009610E-08 3.133554E-06 1.651617E-07 2.819093E-03
-4.100671E-04 -1.742124E-02 5.115600E-08 3.111684E-06 1.642870E-07 2.819053E-03
-4.101696E-04 -1.742168E-02 5.227490E-08 3.089876E-06 1.633659E-07 2.819014E-03
-4.102722E-04 -1.742211E-02 5.344813E-08 3.068063E-06 1.624177E-07 2.818975E-03
-4.103748E-04 -1.742255E-02 5.466627E-08 3.046553E-06 1.614606E-07 2.818936E-03
-4.104775E-04 -1.742299E-02 5.592817E-08 3.025686E-06 1.604976E-07 2.818896E-03
-4.105801E-04 -1.742342E-02 5.721650E-08 3.005662E-06 1.595320E-07 2.818856E-03
-4.106829E-04 -1.742386E-02 5.851904E-08 2.986768E-06 1.585608E-07 2.818814E-03
-4.107857E-04 -1.742430E-02 5.983890E-08 2.968982E-06 1.575840E-07 2.818772E-03
-4.108886E-04 -1.742473E-02 6.116055E-08 2.952023E-06 1.566240E-07 2.818729E-03
-4.109915E-04 -1.742517E-02 6.248782E-08 2.935861E-06 1.556834E-07 2.818686E-03
-4.110944E-04 -1.742560E-02 6.381867E-08 2.920568E-06 1.547600E-07 2.818644E-03
-4.111974E-04 -1.742604E-02 6.513639E-08 2.905899E-06 1.538667E-07 2.818602E-03
-4.113003E-04 -1.742648E-02 6.644233E-08 2.891891E-06 1.529906E-07 2.818559E-03
-4.114032E-04 -1.742691E-02 6.774005E-08 2.878666E-06 1.521146E-07 2.818516E-03
-4.115062E-04 -1.742735E-02 6.901085E-08 2.865943E-06 1.512632E-07 2.818473E-03
-4.116092E-04 -1.742779E-02 7.021625E-08 2.853104E-06 1.504851E-07 2.818430E-03
-4.117121E-04 -1.742822E-02 7.134844E-08 2.839979E-06 1.497836E-07 2.818387E-03
-4.118151E-04 -1.742866E-02 7.241581E-08 2.826658E-06 1.491499E-07 2.818343E-03
-4.119180E-04 -1.742910E-02 7.342289E-08 2.813120E-06 1.485827E-07 2.818300E-03
-4.120210E-04 -1.742953E-02 7.437260E-08 2.799349E-06 1.480811E-07 2.818256E-03
-4.121240E-04 -1.742997E-02 7.526700E-08 2.785326E-06 1.476444E-07 2.818212E-03
-4.122270E-04 -1.743041E-02 7.609714E-08 2.771185E-06 1.472735E-07 2.818168E-03
-4.123300E-04 -1.743084E-02 7.684628E-08 2.757203E-06 1.469710E-07 2.818123E-03
-4.124331E-04 -1.743128E-02 7.752101E-08 2.743329E-06 1.467366E-07 2.818077E-03
-4.125361E-04 -1.743172E-02 7.812278E-08 2.729593E-06 1.465772E-07 2.818031E-03
-4.126392E-04 -1.743215E-02 7.862894E-08 2.716452E-06 1.465033E-07 2.817985E-03
-4.127423E-04 -1.743259E-02 7.903817E-08 2.704083E-06 1.465174E-07 2.817939E-03
-4.128454E-04 -1.743303E-02 7.935473E-08 2.692532E-06 1.466152E-07 2.817892E-03
-4.129485E-04 -1.743347E-02 7.958112E-08 2.681788E-06 1.467941E-07 2.817846E-03
-4.130516E-04 -1.743390E-02 7.971933E-08 2.671847E-06 1.470519E-07 2.817799E-03
-4.131547E-04 -1.743434E-02 7.977250E-08 2.662638E-06 1.473741E-07 2.817752E-03
-4.132578E-04 -1.743478E-02 7.977490E-08 2.654406E-06 1.477140E-07 2.817705E-03
-4.133609E-04 -1.743521E-02 7.972569E-08 2.647090E-06 1.480664E-07 2.817657E-03
-4.134641E-04 -1.743565E-02 7.959344E-08 2.640241E-06 1.484723E-07 2.817610E-03
-4.135672E-04 -1.743609E-02 7.937231E-08 2.633687E-06 1.489417E-07 2.817563E-03
-4.136704E-04 -1.743653E-02 7.904337E-08 2.626949E-06 1.494975E-07 2.817515E-03
-4.137735E-04 -1.743696E-02 7.863929E-08 2.619615E-06 1.501360E-07 2.817467E-03
-4.138767E-04 -1.743740E-02 7.817008E-08 2.611490E-06 1.508575E-07 2.817419E-03
-4.139799E-04 -1.743784E-02 7.765638E-08 2.602175E-06 1.516716E-07 2.817370E-03
-4.140830E-04 -1.743828E-02 7.706468E-08 2.591848E-06 1.526192E-07 2.817321E-03
-4.141862E-04 -1.743871E-02 7.638339E-08 2.580507E-06 1.537250E-07 2.817271E-03
-4.142894E-04 -1.743915E-02 7.561597E-08 2.568131E-06 1.549887E-07 2.817221E-03
-4.143926E-04 -1.743959E-02 7.476334E-08 2.554723E-06 1.564106E-07 2.817171E-03
-4.144957E-04 -1.744002E-02 7.382590E-08 2.540306E-06 1.579852E-07 2.817120E-03
-4.145989E-04 -1.744046E-02 7.280450E-08 2.525046E-06 1.596787E-07 2.817070E-03
-4.147021E-04 -1.744090E-02 7.169971E-08 2.509000E-06 1.614819E-07 2.817018E-03
-4.148053E-04 -1.744134E-02 7.052646E-08 2.492490E-06 1.633624E-07 2.816966E-03
-4.149085E-04 -1.744177E-02 6.930223E-08 2.475764E-06 1.652940E-07 2.816915E-03
-4.150117E-04 -1.744221E-02 6.802562E-08 2.458828E-06 1.672764E-07 2.816863E-03
-4.151150E-04 -1.744265E-02 6.672043E-08 2.442045E-06 1.692903E-07 2.816811E-03
-4.152182E-04 -1.744309E-02 6.538241E-08 2.425411E-06 1.713345E-07 2.816759E-03
-4.153214E-04 -1.744353E-02 6.400807E-08 2.408896E-06 1.734110E-07 2.816706E-03
-4.154246E-04 -1.744396E-02 6.259553E-08 2.392475E-06 1.755212E-07 2.816652E-03
-4.155278E-04 -1.744440E-02 6.114344E-08 2.376138E-06 1.776695E-07 2.816598E-03
-4.156310E-04 -1.744484E-02 5.965202E-08 2.359948E-06 1.798676E-07 2.816544E-03
-4.157342E-04 -1.744528E-02 5.814982E-08 2.343475E-06 1.821093E-07 2.816489E-03
-4.158374E-04 -1.744571E-02 5.666986E-08 2.326154E-06 1.843949E-07 2.816434E-03
-4.159407E-04 -1.744615E-02 5.520651E-08 2.307979E-06 1.867305E-07 2.816379E-03
-4.160439E-04 -1.744659E-02 5.375516E-08 2.289089E-06 1.891269E-07 2.816323E-03
-4.161471E-04 -1.744703E-02 5.231921E-08 2.269423E-06 1.915836E-07 2.816267E-03
-4.162503E-04 -1.744747E-02 5.091145E-08 2.248796E-06 1.940987E-07 2.816210E-03
-4.163536E-04 -1.744790E-02 4.952988E-08 2.227300E-06 1.966679E-07 2.816153E-03
-4.164570E-04 -1.744834E-02 4.817279E-08 2.204820E-06 1.992966E-07 2.816096E-03
-4.165604E-04 -1.744878E-02 4.685353E-08 2.181139E-06 2.019857E-07 2.816039E-03
-4.166639E-04 -1.744922E-02 4.556844E-08 2.156320E-06 2.047361E-07 2.815983E-03
-4.167674E-04 -1.744966E-02 4.433758E-08 2.130707E-06 2.075202E-07 2.815928E-03
-4.168708E-04 -1.745009E-02 4.316915E-08 2.104503E-06 2.102942E-07 2.815872E-03
-4.169743E-04 -1.745053E-02 4.206785E-08 2.078320E-06 2.130376E-07 2.815815E-03
-4.170778E-04 -1.745097E-02 4.103463E-08 2.052158E-06 2.157382E-07 2.815757E-03
-4.171813E-04 -1.745141E-02 4.006561E-08 2.026008E-06 2.184002E-07 2.815699E-03
-4.172848E-04 -1.745185E-02 3.915042E-08 1.999989E-06 2.210260E-07 2.815640E-03
-4.173883E-04 -1.745229E-02 3.827461E-08 1.974302E-06 2.236185E-07 2.815580E-03
-4.174917E-04 -1.745272E-02 3.744003E-08 1.948939E-06 2.261782E-07 2.815520E-03
-4.175952E-04 -1.745316E-02 3.664661E-08 1.923904E-06 2.287056E-07 2.815459E-03
-4.176986E-04 -1.745360E-02 3.589385E-08 1.899215E-06 2.311992E-07 2.815398E-03
-4.178021E-04 -1.745404E-02 3.517984E-08 1.874962E-06 2.336534E-07 2.815336E-03
-4.179055E-04 -1.745448E-02 3.450445E-08 1.851152E-06 2.360698E-07 2.815274E-03
-4.180089E-04 -1.745492E-02 3.386749E-08 1.827785E-06 2.384489E-07 2.815211E-03
-4.181123E-04 -1.745535E-02 3.326866E-08 1.804862E-06 2.407912E-07 2.815147E-03
-4.182157E-04 -1.745579E-02 3.270731E-08 1.782404E-06 2.430942E-07 2.815082E-03
-4.183191E-04 -1.745623E-02 3.218083E-08 1.760495E-06 2.453471E-07 2.815017E-03
-4.184225E-04 -1.745667E-02 3.168920E-08 1.739147E-06 2.475463E-07 2.814952E-03
-4.185259E-04 -1.745711E-02 3.123279E-08 1.718509E-06 2.496725E-07 2.814886E-03
-4.186293E-04 -1.745755E-02 3.081427E-08 1.698433E-06 2.517461E-07 2.814819E-03
-4.187327E-04 -1.745798E-02 3.043306E-08 1.678905E-06 2.537670E-07 2.814751E-03
-4.188361E-04 -1.745842E-02 3.009047E-08 1.659826E-06 2.557446E-07 2.814683E-03
-4.189395E-04 -1.745886E-02 2.979056E-08 1.640987E-06 2.576940E-07 2.814614E-03
-4.190429E-04 -1.745930E-02 2.953214E-08 1.622413E-06 2.596135E-07 2.814544E-03
-4.191463E-04 -1.745974E-02 2.931458E-08 1.604122E-06 2.615029E-07 2.814474E-03
-4.192497E-04 -1.746018E-02 2.911541E-08 1.586430E-06 2.633668E-07 2.814403E-03
-4.193530E-04 -1.746062E-02 2.889111E-08 1.569959E-06 2.652190E-07 2.814331E-03
-4.194564E-04 -1.746105E-02 2.864308E-08 1.554801E-06 2.670607E-07 2.814259E-03
-4.195598E-04 -1.746149E-02 2.837709E-08 1.540979E-06 2.688885E-07 2.814186E-03
-4.196632E-04 -1.746193E-02 2.809597E-08 1.528464E-06 2.706952E-07 2.814112E-03
-4.197666E-04 -1.746237E-02 2.780123E-08 1.517208E-06 2.724799E-07 2.814038E-03
-4.198700E-04 -1.746281E-02 2.749457E-08 1.507205E-06 2.742429E-07 2.813963E-03
-4.199734E-04 -1.746325E-02 2.717655E-08 1.498547E-06 2.759627E-07 2.813888E-03
-4.200768E-04 -1.746369E-02 2.684670E-08 1.491360E-06 2.776229E-07 2.813811E-03
-4.201802E-04 -1.746413E-02 2.650256E-08 1.485660E-06 2.792199E-07 2.813735E-03
-4.202836E-04 -1.746457E-02 2.614435E-08 1.481581E-06 2.807347E-07 2.813657E-03
-4.203871E-04 -1.746501E-02 2.577784E-08 1.479060E-06 2.821701E-07 2.813579E-03
-4.204906E-04 -1.746545E-02 2.539600E-08 1.478245E-06 2.835376E-07 2.813499E-03
-4.205943E-04 -1.746590E-02 2.500394E-08 1.479054E-06 2.848398E-07 2.813419E-03
-4.206979E-04 -1.746634E-02 2.461257E-08 1.481337E-06 2.860742E-07 2.813337E-03
-4.208016E-04 -1.746678E-02 2.421247E-08 1.485202E-06 2.872410E-07 2.813256E-03
-4.209052E-04 -1.746722E-02 2.380247E-08 1.490668E-06 2.883402E-07 2.813174E-03
-4.210089E-04 -1.746766E-02 2.338387E-08 1.497721E-06 2.893711E-07 2.813092E-03
-4.211125E-04 -1.746810E-02 2.295765E-08 1.506352E-06 2.903326E-07 2.813010E-03
-4.212162E-04 -1.746854E-02 2.252441E-08 1.516552E-06 2.912240E-07 2.812928E-03
-4.213198E-04 -1.746899E-02 2.208327E-08 1.528331E-06 2.920446E-07 2.812846E-03
-4.214235E-04 -1.746943E-02 2.161176E-08 1.541994E-06 2.927984E-07 2.812763E-03
-4.215273E-04 -1.746987E-02 2.110896E-08 1.557596E-06 2.934857E-07 2.812680E-03
-4.216310E-04 -1.747032E-02 2.056386E-08 1.575310E-06 2.941059E-07 2.812596E-03
-4.217348E-04 -1.747076E-02 1.998307E-08 1.595085E-06 2.946546E-07 2.812512E-03
-4.218386E-04 -1.747120E-02 1.938259E-08 1.616711E-06 2.951265E-07 2.812427E-03
-4.219424E-04 -1.747165E-02 1.876412E-08 1.639765E-06 2.955329E-07 2.812342E-03
-4.220463E-04 -1.747209E-02 1.811459E-08 1.663481E-06 2.959085E-07 2.812257E-03
-4.221501E-04 -1.747253E-02 1.743489E-08 1.687844E-06 2.962565E-07 2.812172E-03
-4.222540E-04 -1.747298E-02 1.672691E-08 1.712852E-06 2.965757E-07 2.812087E-03
-4.223579E-04 -1.747342E-02 1.599999E-08 1.738621E-06 2.968617E-07 2.812003E-03
-4.224618E-04 -1.747387E-02 1.526517E-08 1.765329E-06 2.971057E-07 2.811918E-03
-4.225657E-04 -1.747431E-02 1.451977E-08 1.792929E-06 2.973045E-07 2.811833E-03
-4.226696E-04 -1.747476E-02 1.376277E-08 1.821377E-06 2.974591E-07 2.811747E-03
-4.227735E-04 -1.747520E-02 1.299409E-08 1.850652E-06 2.975708E-07 2.811662E-03
-4.228774E-04 -1.747565E-02 1.221350E-08 1.880735E-06 2.976408E-07 2.811577E-03
-4.229813E-04 -1.747609E-02 1.142090E-08 1.911614E-06 2.976698E-07 2.811492E-03
-4.230852E-04 -1.747654E-02 1.061609E-08 1.943244E-06 2.976441E-07 2.811407E-03
-4.231891E-04 -1.747699E-02 9.797563E-09 1.975567E-06 2.975549E-07 2.811322E-03
-4.232930E-04 -1.747743E-02 8.965473E-09 2.008555E-06 2.974034E-07 2.811237E-03
-4.233969E-04 -1.747788E-02 8.119831E-09 2.042181E-06 2.971901E-07 2.811152E-03
-4.235009E-04 -1.747832E-02 7.260600E-09 2.076427E-06 2.969187E-07 2.811067E-03
-4.236049E-04 -1.747877E-02 6.390661E-09 2.111135E-06 2.966095E-07 2.810982E-03
-4.237089E-04 -1.747922E-02 5.515660E-09 2.145979E-06 2.962938E-07 2.810897E-03
-4.238129E-04 -1.747966E-02 4.634076E-09 2.180924E-06 2.959731E-07 2.810811E-03
-4.239170E-04 -1.748011E-02 3.749107E-09 2.215768E-06 2.956614E-07 2.810724E-03
-4.240211E-04 -1.748056E-02 2.862106E-09 2.250431E-06 2.953672E-07 2.810638E-03
-4.241252E-04 -1.748100E-02 1.975112E-09 2.284843E-06 2.950973E-07 2.810551E-03
-4.242293E-04 -1.748145E-02 1.085366E-09 2.319029E-06 2.948519E-07 2.810465E-03
-4.243335E-04 -1.748190E-02 1.759170E-10 2.352778E-06 2.946495E-07 2.810378E-03
-4.244377E-04 -1.748235E-02 -7.547149E-10 2.386048E-06 2.944980E-07 2.810292E-03
-4.245419E-04 -1.748279E-02 -1.705044E-09 2.418866E-06 2.943970E-07 2.810207E-03
-4.246462E-04 -1.748324E-02 -2.680204E-09 2.451167E-06 2.943487E-07 2.810121E-03
-4.247505E-04 -1.748369E-02 -3.694267E-09 2.482723E-06 2.943614E-07 2.810035E-03
-4.248548E-04 -1.748414E-02 -4.744901E-09 2.513549E-06 2.944354E-07 2.809950E-03
-4.249592E-04 -1.748459E-02 -5.818746E-09 2.543839E-06 2.945566E-07 2.809864E-03
-4.250636E-04 -1.748504E-02 -6.899892E-09 2.573742E-06 2.947037E-07 2.809778E-03
-4.251680E-04 -1.748548E-02 -7.930966E-09 2.602431E-06 2.948674E-07 2.809693E-03
-4.252724E-04 -1.748593E-02 -8.896321E-09 2.629850E-06 2.950426E-07 2.809608E-03
-4.253769E-04 -1.748638E-02 -9.792321E-09 2.656332E-06 2.952192E-07 2.809522E-03
-4.254813E-04 -1.748683E-02 -1.062743E-08 2.681905E-06 2.953987E-07 2.809436E-03
-4.255858E-04 -1.748728E-02 -1.140675E-08 2.706614E-06 2.955872E-07 2.809350E-03
-4.256903E-04 -1.748773E-02 -1.213769E-08 2.730571E-06 2.958055E-07 2.809264E-03
-4.257948E-04 -1.748818E-02 -1.282251E-08 2.753839E-06 2.960521E-07 2.809178E-03
-4.258994E-04 -1.748863E-02 -1.346594E-08 2.776699E-06 2.962986E-07 2.809091E-03
-4.260039E-04 -1.748908E-02 -1.407252E-08 2.799508E-06 2.965201E-07 2.809004E-03
-4.261085E-04 -1.748953E-02 -1.464186E-08 2.822354E-06 2.967176E-07 2.808917E-03
-4.262131E-04 -1.748998E-02 -1.517387E-08 2.845257E-06 2.968898E-07 2.808830E-03
-4.263177E-04 -1.749043E-02 -1.566883E-08 2.868243E-06 2.970358E-07 2.808743E-03
-4.264224E-04 -1.749088E-02 -1.612709E-08 2.891342E-06 2.971549E-07 2.808656E-03
-4.265271E-04 -1.749133E-02 -1.654916E-08 2.914601E-06 2.972539E-07 2.808568E-03
-4.266318E-04 -1.749178E-02 -1.693232E-08 2.938063E-06 2.973248E-07 2.808481E-03
-4.267365E-04 -1.749223E-02 -1.727404E-08 2.961721E-06 2.973505E-07 2.808393E-03
-4.268412E-04 -1.749268E-02 -1.756517E-08 2.985482E-06 2.972934E-07 2.808305E-03
-4.269460E-04 -1.749313E-02 -1.780715E-08 3.009288E-06 2.971521E-07 2.808218E-03
-4.270509E-04 -1.749358E-02 -1.802103E-08 3.032715E-06 2.969417E-07 2.808130E-03
-4.271557E-04 -1.749403E-02 -1.820699E-08 3.055668E-06 2.966721E-07 2.808043E-03
-4.272607E-04 -1.749448E-02 -1.837576E-08 3.077911E-06 2.963525E-07 2.807956E-03
-4.273656E-04 -1.749493E-02 -1.853896E-08 3.099139E-06 2.959995E-07 2.807869E-03
-4.274706E-04 -1.749538E-02 -1.869236E-08 3.119332E-06 2.956150E-07 2.807781E-03
-4.275755E-04 -1.749583E-02 -1.882139E-08 3.138668E-06 2.951887E-07 2.807694E-03
-4.276806E-04 -1.749628E-02 -1.891406E-08 3.157402E-06 2.947007E-07 2.807606E-03
-4.277856E-04 -1.749674E-02 -1.897525E-08 3.175462E-06 2.941537E-07 2.807519E-03
-4.278906E-04 -1.749719E-02 -1.900619E-08 3.192809E-06 2.935502E-07 2.807431E-03
-4.279957E-04 -1.749764E-02 -1.900749E-08 3.209401E-06 2.928924E-07 2.807343E-03
-4.281008E-04 -1.749809E-02 -1.897973E-08 3.225201E-06 2.921822E-07 2.807255E-03
-4.282059E-04 -1.749854E-02 -1.892334E-08 3.240169E-06 2.914220E-07 2.807166E-03
-4.283110E-04 -1.749899E-02 -1.883880E-08 3.254270E-06 2.906133E-07 2.807078E-03
-4.284162E-04 -1.749944E-02 -1.873087E-08 3.267618E-06 2.897435E-07 2.806989E-03
-4.285214E-04 -1.749990E-02 -1.860074E-08 3.280232E-06 2.888119E-07 2.806900E-03
-4.286266E-04 -1.750035E-02 -1.844758E-08 3.292051E-06 2.878214E-07 2.806810E-03
-4.287318E-04 -1.750080E-02 -1.827183E-08 3.303048E-06 2.867722E-07 2.806720E-03
-4.288371E-04 -1.750125E-02 -1.807986E-08 3.313352E-06 2.856553E-07 2.806630E-03
-4.289423E-04 -1.750170E-02 -1.787146E-08 3.322919E-06 2.844712E-07 2.806539E-03
-4.290476E-04 -1.750215E-02 -1.764595E-08 3.331680E-06 2.832222E-07 2.806449E-03
-4.291529E-04 -1.750261E-02 -1.740291E-08 3.339572E-06 2.819098E-07 2.806358E-03
-4.292583E-04 -1.750306E-02 -1.714216E-08 3.346529E-06 2.805363E-07 2.806267E-03
-4.293636E-04 -1.750351E-02 -1.686507E-08 3.352508E-06 2.791166E-07 2.806175E-03
-4.294690E-04 -1.750396E-02 -1.657345E-08 3.357487E-06 2.776542E-07 2.806084E-03
-4.295744E-04 -1.750442E-02 -1.630542E-08 3.361935E-06 2.761582E-07 2.805992E-03
-4.296798E-04 -1.750487E-02 -1.608776E-08 3.366309E-06 2.746331E-07 2.805901E-03
-4.297853E-04 -1.750532E-02 -1.590306E-08 3.370070E-06 2.731265E-07 2.805810E-03
-4.298908E-04 -1.750578E-02 -1.575274E-08 3.373042E-06 2.716623E-07 2.805720E-03
-4.299965E-04 -1.750623E-02 -1.563876E-08 3.375171E-06 2.702443E-07 2.805631E-03
-4.301021E-04 -1.750668E-02 -1.556074E-08 3.376605E-06 2.688739E-07 2.805542E-03
-4.302079E-04 -1.750714E-02 -1.554039E-08 3.377686E-06 2.675570E-07 2.805452E-03
-4.303138E-04 -1.750759E-02 -1.560470E-08 3.378665E-06 2.663091E-07 2.805362E-03
-4.304197E-04 -1.750804E-02 -1.575557E-08 3.379369E-06 2.651381E-07 2.805271E-03
-4.305257E-04 -1.750850E-02 -1.598210E-08 3.379678E-06 2.640454E-07 2.805180E-03
-4.306316E-04 -1.750895E-02 -1.628024E-08 3.379405E-06 2.630707E-07 2.805089E-03
-4.307376E-04 -1.750941E-02 -1.664019E-08 3.378694E-06 2.622159E-07 2.804999E-03
-4.308437E-04 -1.750986E-02 -1.705230E-08 3.377889E-06 2.614655E-07 2.804908E-03
-4.309497E-04 -1.751032E-02 -1.750061E-08 3.377281E-06 2.608052E-07 2.804818E-03
-4.310559E-04 -1.751077E-02 -1.797867E-08 3.376934E-06 2.602245E-07 2.804728E-03
-4.311620E-04 -1.751123E-02 -1.849030E-08 3.376889E-06 2.597196E-07 2.804637E-03
-4.312682E-04 -1.751169E-02 -1.903027E-08 3.377103E-06 2.592893E-07 2.804547E-03
-4.313745E-04 -1.751214E-02 -1.956864E-08 3.377185E-06 2.589331E-07 2.804456E-03
-4.314807E-04 -1.751260E-02 -2.008891E-08 3.376934E-06 2.586458E-07 2.804365E-03
-4.315871E-04 -1.751306E-02 -2.058476E-08 3.376287E-06 2.584238E-07 2.804275E-03
-4.316934E-04 -1.751351E-02 -2.106622E-08 3.375452E-06 2.582581E-07 2.804184E-03
-4.317998E-04 -1.751397E-02 -2.153742E-08 3.374569E-06 2.581464E-07 2.804094E-03
-4.319063E-04 -1.751443E-02 -2.199883E-08 3.373701E-06 2.580875E-07 2.804003E-03
-4.320127E-04 -1.751489E-02 -2.245023E-08 3.372909E-06 2.580721E-07 2.803912E-03
-4.321193E-04 -1.751534E-02 -2.289356E-08 3.372321E-06 2.580805E-07 2.803821E-03
-4.322258E-04 -1.751580E-02 -2.333319E-08 3.372116E-06 2.581047E-07 2.803730E-03
-4.323324E-04 -1.751626E-02 -2.375872E-08 3.372488E-06 2.581321E-07 2.803641E-03
-4.324391E-04 -1.751672E-02 -2.416806E-08 3.373353E-06 2.581535E-07 2.803551E-03
-4.325459E-04 -1.751718E-02 -2.452889E-08 3.373860E-06 2.581602E-07 2.803463E-03
-4.326527E-04 -1.751764E-02 -2.482168E-08 3.373758E-06 2.581498E-07 2.803376E-03
-4.327596E-04 -1.751810E-02 -2.504786E-08 3.373256E-06 2.581221E-07 2.803290E-03
-4.328665E-04 -1.751856E-02 -2.522379E-08 3.372183E-06 2.580840E-07 2.803204E-03
-4.329734E-04 -1.751902E-02 -2.535307E-08 3.370521E-06 2.580388E-07 2.803118E-03
-4.330804E-04 -1.751948E-02 -2.544464E-08 3.368176E-06 2.579947E-07 2.803033E-03
-4.331875E-04 -1.751994E-02 -2.550106E-08 3.365120E-06 2.579597E-07 2.802949E-03
-4.332946E-04 -1.752040E-02 -2.552152E-08 3.361392E-06 2.579335E-07 2.802865E-03
-4.334018E-04 -1.752086E-02 -2.550607E-08 3.357021E-06 2.579156E-07 2.802782E-03
-4.335090E-04 -1.752132E-02 -2.546019E-08 3.351948E-06 2.579057E-07 2.802700E-03
-4.336163E-04 -1.752178E-02 -2.539069E-08 3.346070E-06 2.579041E-07 2.802618E-03
-4.337236E-04 -1.752224E-02 -2.529609E-08 3.339420E-06 2.579103E-07 2.802537E-03
-4.338310E-04 -1.752270E-02 -2.517604E-08 3.332020E-06 2.579236E-07 2.802455E-03
-4.339384E-04 -1.752316E-02 -2.503069E-08 3.323895E-06 2.579438E-07 2.802374E-03
-4.340459E-04 -1.752362E-02 -2.486004E-08 3.315065E-06 2.579708E-07 2.802293E-03
-4.341534E-04 -1.752408E-02 -2.466411E-08 3.305552E-06 2.580044E-07 2.802213E-03
-4.342610E-04 -1.752454E-02 -2.444290E-08 3.295375E-06 2.580443E-07 2.802133E-03
-4.343686E-04 -1.752501E-02 -2.419654E-08 3.284556E-06 2.580906E-07 2.802053E-03
-4.344762E-04 -1.752547E-02 -2.392522E-08 3.273115E-06 2.581433E-07 2.801973E-03
-4.345839E-04 -1.752593E-02 -2.362911E-08 3.261071E-06 2.582021E-07 2.801894E-03
-4.346917E-04 -1.752639E-02 -2.330824E-08 3.248446E-06 2.582671E-07 2.801814E-03
-4.347995E-04 -1.752685E-02 -2.297539E-08 3.235417E-06 2.583409E-07 2.801735E-03
-4.349073E-04 -1.752732E-02 -2.265605E-08 3.222333E-06 2.584286E-07 2.801657E-03
-4.350152E-04 -1.752778E-02 -2.234419E-08 3.209184E-06 2.585294E-07 2.801578E-03
-4.351231E-04 -1.752824E-02 -2.203730E-08 3.195979E-06 2.586429E-07 2.801500E-03
-4.352311E-04 -1.752870E-02 -2.173906E-08 3.182809E-06 2.587618E-07 2.801421E-03
-4.353392E-04 -1.752917E-02 -2.145870E-08 3.169876E-06 2.588575E-07 2.801343E-03
-4.354474E-04 -1.752963E-02 -2.120812E-08 3.157362E-06 2.589324E-07 2.801265E-03
-4.355555E-04 -1.753009E-02 -2.098067E-08 3.145257E-06 2.589711E-07 2.801187E-03
-4.356638E-04 -1.753056E-02 -2.077406E-08 3.133530E-06 2.589723E-07 2.801110E-03
-4.357721E-04 -1.753102E-02 -2.057896E-08 3.122054E-06 2.589346E-07 2.801032E-03
-4.358805E-04 -1.753148E-02 -2.038605E-08 3.110623E-06 2.588583E-07 2.800953E-03
-4.359890E-04 -1.753195E-02 -2.020152E-08 3.098666E-06 2.587695E-07 2.800875E-03
-4.360976E-04 -1.753241E-02 -2.004752E-08 3.085751E-06 2.587334E-07 2.800796E-03
-4.362062E-04 -1.753288E-02 -1.992547E-08 3.071834E-06 2.587712E-07 2.800716E-03
-4.363149E-04 -1.753334E-02 -1.983239E-08 3.056915E-06 2.588816E-07 2.800638E-03
-4.364236E-04 -1.753381E-02 -1.976779E-08 3.040994E-06 2.590641E-07 2.800560E-03
-4.365324E-04 -1.753427E-02 -1.972212E-08 3.024242E-06 2.593117E-07 2.800482E-03
-4.366412E-04 -1.753474E-02 -1.967633E-08 3.007143E-06 2.596003E-07 2.800406E-03
-4.367501E-04 -1.753521E-02 -1.962976E-08 2.989875E-06 2.599167E-07 2.800329E-03
-4.368591E-04 -1.753567E-02 -1.958608E-08 2.972425E-06 2.602620E-07 2.800254E-03
-4.369681E-04 -1.753614E-02 -1.954635E-08 2.954803E-06 2.606364E-07 2.800179E-03
-4.370772E-04 -1.753661E-02 -1.951114E-08 2.937024E-06 2.610401E-07 2.800105E-03
-4.371863E-04 -1.753707E-02 -1.946662E-08 2.918950E-06 2.614659E-07 2.800031E-03
-4.372956E-04 -1.753754E-02 -1.940523E-08 2.900638E-06 2.618917E-07 2.799958E-03
-4.374049E-04 -1.753801E-02 -1.933057E-08 2.882131E-06 2.623173E-07 2.799885E-03
-4.375142E-04 -1.753848E-02 -1.924933E-08 2.863574E-06 2.627366E-07 2.799812E-03
-4.376236E-04 -1.753895E-02 -1.916916E-08 2.845183E-06 2.631429E-07 2.799740E-03
-4.377331E-04 -1.753942E-02 -1.908793E-08 2.826930E-06 2.635374E-07 2.799669E-03
-4.378427E-04 -1.753988E-02 -1.900510E-08 2.808804E-06 2.639203E-07 2.799598E-03
[...]
3.615461E-04 -1.723745E-02 7.140108E-08 2.345371E-06 2.613903E-07 2.840566E-03
3.614550E-04 -1.723708E-02 7.055216E-08 2.332355E-06 2.616040E-07 2.840603E-03
3.613639E-04 -1.723670E-02 6.962171E-08 2.318699E-06 2.618803E-07 2.840639E-03
3.612728E-04 -1.723633E-02 6.861068E-08 2.304449E-06 2.622161E-07 2.840676E-03
3.611818E-04 -1.723595E-02 6.753255E-08 2.289890E-06 2.626066E-07 2.840712E-03
3.610907E-04 -1.723558E-02 6.640333E-08 2.275249E-06 2.630483E-07 2.840748E-03
3.609996E-04 -1.723521E-02 6.522200E-08 2.260531E-06 2.635414E-07 2.840784E-03
3.609086E-04 -1.723483E-02 6.401043E-08 2.246071E-06 2.640864E-07 2.840819E-03
3.608176E-04 -1.723446E-02 6.276506E-08 2.231864E-06 2.646836E-07 2.840854E-03
3.607266E-04 -1.723408E-02 6.148286E-08 2.217881E-06 2.653333E-07 2.840889E-03
3.606356E-04 -1.723371E-02 6.016222E-08 2.204098E-06 2.660356E-07 2.840924E-03
3.605447E-04 -1.723333E-02 5.880174E-08 2.190509E-06 2.667946E-07 2.840958E-03
3.604537E-04 -1.723296E-02 5.740141E-08 2.177209E-06 2.676311E-07 2.840991E-03
3.603628E-04 -1.723258E-02 5.599297E-08 2.163750E-06 2.685091E-07 2.841025E-03
3.602719E-04 -1.723221E-02 5.461182E-08 2.149534E-06 2.693870E-07 2.841058E-03
3.601810E-04 -1.723184E-02 5.325159E-08 2.134556E-06 2.702669E-07 2.841091E-03
3.600902E-04 -1.723146E-02 5.190703E-08 2.118974E-06 2.711668E-07 2.841124E-03
3.599994E-04 -1.723109E-02 5.058229E-08 2.102721E-06 2.720819E-07 2.841156E-03
3.599085E-04 -1.723071E-02 4.929137E-08 2.085601E-06 2.729941E-07 2.841187E-03
3.598176E-04 -1.723034E-02 4.803118E-08 2.067707E-06 2.739052E-07 2.841218E-03
3.597267E-04 -1.722996E-02 4.680091E-08 2.048921E-06 2.748142E-07 2.841250E-03
3.596358E-04 -1.722959E-02 4.561469E-08 2.029018E-06 2.757105E-07 2.841282E-03
3.595449E-04 -1.722922E-02 4.446824E-08 2.008060E-06 2.765976E-07 2.841315E-03
3.594540E-04 -1.722884E-02 4.337889E-08 1.986367E-06 2.774706E-07 2.841348E-03
3.593631E-04 -1.722847E-02 4.235321E-08 1.964091E-06 2.783003E-07 2.841382E-03
3.592722E-04 -1.722809E-02 4.139193E-08 1.941818E-06 2.791054E-07 2.841414E-03
3.591813E-04 -1.722772E-02 4.049657E-08 1.919517E-06 2.798726E-07 2.841446E-03
3.590904E-04 -1.722735E-02 3.966354E-08 1.897181E-06 2.806038E-07 2.841477E-03
3.589995E-04 -1.722697E-02 3.888223E-08 1.874938E-06 2.813069E-07 2.841508E-03
3.589087E-04 -1.722660E-02 3.813763E-08 1.853002E-06 2.819951E-07 2.841538E-03
3.588179E-04 -1.722622E-02 3.743193E-08 1.831365E-06 2.826688E-07 2.841569E-03
3.587272E-04 -1.722585E-02 3.676525E-08 1.810030E-06 2.833280E-07 2.841599E-03
3.586364E-04 -1.722547E-02 3.613704E-08 1.789014E-06 2.839719E-07 2.841629E-03
3.585457E-04 -1.722510E-02 3.554498E-08 1.768387E-06 2.846016E-07 2.841658E-03
3.584550E-04 -1.722473E-02 3.498926E-08 1.748152E-06 2.852193E-07 2.841687E-03
3.583644E-04 -1.722435E-02 3.446975E-08 1.728311E-06 2.858250E-07 2.841715E-03
3.582738E-04 -1.722398E-02 3.398625E-08 1.708865E-06 2.864187E-07 2.841743E-03
3.581831E-04 -1.722360E-02 3.353808E-08 1.689832E-06 2.869970E-07 2.841771E-03
3.580926E-04 -1.722323E-02 3.312242E-08 1.671289E-06 2.875486E-07 2.841798E-03
3.580020E-04 -1.722285E-02 3.273919E-08 1.653248E-06 2.880710E-07 2.841826E-03
3.579115E-04 -1.722248E-02 3.238907E-08 1.635835E-06 2.885592E-07 2.841853E-03
3.578210E-04 -1.722211E-02 3.207580E-08 1.618925E-06 2.890215E-07 2.841879E-03
3.577304E-04 -1.722173E-02 3.179840E-08 1.602507E-06 2.894556E-07 2.841905E-03
3.576400E-04 -1.722136E-02 3.155864E-08 1.586497E-06 2.898657E-07 2.841931E-03
3.575495E-04 -1.722098E-02 3.136075E-08 1.570710E-06 2.902523E-07 2.841955E-03
3.574590E-04 -1.722061E-02 3.120312E-08 1.555172E-06 2.906143E-07 2.841980E-03
3.573686E-04 -1.722024E-02 3.108501E-08 1.539903E-06 2.909524E-07 2.842004E-03
3.572782E-04 -1.721986E-02 3.098175E-08 1.525235E-06 2.912937E-07 2.842027E-03
3.571878E-04 -1.721949E-02 3.084635E-08 1.511842E-06 2.917026E-07 2.842050E-03
3.570975E-04 -1.721911E-02 3.068051E-08 1.499819E-06 2.921907E-07 2.842073E-03
3.570071E-04 -1.721874E-02 3.049014E-08 1.489180E-06 2.927566E-07 2.842095E-03
3.569168E-04 -1.721837E-02 3.027888E-08 1.479871E-06 2.933907E-07 2.842117E-03
3.568266E-04 -1.721799E-02 3.004856E-08 1.471821E-06 2.940853E-07 2.842139E-03
3.567363E-04 -1.721762E-02 2.980093E-08 1.465023E-06 2.948399E-07 2.842160E-03
3.566461E-04 -1.721725E-02 2.953625E-08 1.459553E-06 2.956423E-07 2.842181E-03
3.565558E-04 -1.721688E-02 2.925418E-08 1.455519E-06 2.964859E-07 2.842201E-03
3.564656E-04 -1.721650E-02 2.895244E-08 1.452967E-06 2.973750E-07 2.842221E-03
3.563754E-04 -1.721613E-02 2.863142E-08 1.452006E-06 2.983003E-07 2.842241E-03
3.562852E-04 -1.721576E-02 2.829783E-08 1.452570E-06 2.992597E-07 2.842260E-03
3.561949E-04 -1.721539E-02 2.794380E-08 1.454831E-06 3.002776E-07 2.842277E-03
3.561045E-04 -1.721502E-02 2.757491E-08 1.458707E-06 3.013548E-07 2.842293E-03
3.560142E-04 -1.721464E-02 2.720268E-08 1.464034E-06 3.024804E-07 2.842309E-03
3.559239E-04 -1.721427E-02 2.681699E-08 1.470926E-06 3.036592E-07 2.842324E-03
3.558337E-04 -1.721390E-02 2.641653E-08 1.479401E-06 3.048926E-07 2.842340E-03
3.557434E-04 -1.721353E-02 2.600268E-08 1.489443E-06 3.061789E-07 2.842355E-03
3.556532E-04 -1.721316E-02 2.557632E-08 1.501040E-06 3.075163E-07 2.842371E-03
3.555630E-04 -1.721279E-02 2.513806E-08 1.514179E-06 3.089034E-07 2.842386E-03
3.554729E-04 -1.721242E-02 2.468689E-08 1.528871E-06 3.103404E-07 2.842402E-03
3.553827E-04 -1.721205E-02 2.419782E-08 1.545436E-06 3.118550E-07 2.842417E-03
3.552925E-04 -1.721168E-02 2.366997E-08 1.563931E-06 3.134539E-07 2.842431E-03
3.552024E-04 -1.721131E-02 2.309151E-08 1.584539E-06 3.151459E-07 2.842445E-03
3.551123E-04 -1.721094E-02 2.247041E-08 1.607204E-06 3.169198E-07 2.842459E-03
3.550221E-04 -1.721057E-02 2.182399E-08 1.631698E-06 3.187531E-07 2.842473E-03
3.549320E-04 -1.721020E-02 2.115633E-08 1.657593E-06 3.206301E-07 2.842487E-03
3.548419E-04 -1.720983E-02 2.045688E-08 1.684140E-06 3.225306E-07 2.842501E-03
3.547519E-04 -1.720946E-02 1.972530E-08 1.711325E-06 3.244538E-07 2.842515E-03
3.546618E-04 -1.720909E-02 1.896322E-08 1.739147E-06 3.263989E-07 2.842530E-03
3.545718E-04 -1.720873E-02 1.817889E-08 1.767708E-06 3.283651E-07 2.842545E-03
3.544818E-04 -1.720836E-02 1.738260E-08 1.797174E-06 3.303523E-07 2.842560E-03
3.543918E-04 -1.720799E-02 1.657209E-08 1.827479E-06 3.323544E-07 2.842575E-03
3.543019E-04 -1.720762E-02 1.574656E-08 1.858559E-06 3.343670E-07 2.842591E-03
3.542120E-04 -1.720725E-02 1.490589E-08 1.890392E-06 3.363902E-07 2.842606E-03
3.541222E-04 -1.720689E-02 1.404996E-08 1.922959E-06 3.384236E-07 2.842622E-03
3.540323E-04 -1.720652E-02 1.317860E-08 1.956254E-06 3.404681E-07 2.842638E-03
3.539425E-04 -1.720615E-02 1.229189E-08 1.990224E-06 3.425103E-07 2.842655E-03
3.538528E-04 -1.720578E-02 1.138849E-08 2.024802E-06 3.445393E-07 2.842672E-03
3.537630E-04 -1.720542E-02 1.046861E-08 2.059962E-06 3.465548E-07 2.842689E-03
3.536733E-04 -1.720505E-02 9.532388E-09 2.095674E-06 3.485554E-07 2.842706E-03
3.535836E-04 -1.720468E-02 8.579837E-09 2.131921E-06 3.505426E-07 2.842723E-03
3.534939E-04 -1.720431E-02 7.614858E-09 2.168564E-06 3.525237E-07 2.842740E-03
3.534042E-04 -1.720395E-02 6.643736E-09 2.205327E-06 3.544992E-07 2.842757E-03
3.533145E-04 -1.720358E-02 5.664597E-09 2.242180E-06 3.564686E-07 2.842773E-03
3.532248E-04 -1.720321E-02 4.680662E-09 2.278935E-06 3.584320E-07 2.842789E-03
3.531351E-04 -1.720285E-02 3.693201E-09 2.315520E-06 3.603963E-07 2.842805E-03
3.530455E-04 -1.720248E-02 2.704197E-09 2.351868E-06 3.623671E-07 2.842821E-03
3.529558E-04 -1.720212E-02 1.710906E-09 2.388007E-06 3.643461E-07 2.842837E-03
3.528662E-04 -1.720175E-02 6.985809E-10 2.423735E-06 3.663351E-07 2.842853E-03
3.527765E-04 -1.720138E-02 -3.344353E-10 2.459019E-06 3.683367E-07 2.842870E-03
3.526869E-04 -1.720102E-02 -1.386935E-09 2.493882E-06 3.703526E-07 2.842886E-03
3.525972E-04 -1.720065E-02 -2.463636E-09 2.528269E-06 3.723838E-07 2.842903E-03
3.525076E-04 -1.720029E-02 -3.577603E-09 2.561969E-06 3.744299E-07 2.842920E-03
3.524180E-04 -1.719992E-02 -4.726794E-09 2.594998E-06 3.764916E-07 2.842936E-03
3.523284E-04 -1.719956E-02 -5.899796E-09 2.627544E-06 3.785704E-07 2.842953E-03
3.522387E-04 -1.719919E-02 -7.081429E-09 2.659741E-06 3.806605E-07 2.842970E-03
3.521491E-04 -1.719883E-02 -8.208505E-09 2.690708E-06 3.826959E-07 2.842987E-03
3.520595E-04 -1.719846E-02 -9.266001E-09 2.720366E-06 3.846592E-07 2.843004E-03
3.519699E-04 -1.719810E-02 -1.025214E-08 2.749038E-06 3.865586E-07 2.843021E-03
3.518804E-04 -1.719773E-02 -1.117537E-08 2.776754E-06 3.883980E-07 2.843038E-03
3.517908E-04 -1.719737E-02 -1.204100E-08 2.803568E-06 3.901870E-07 2.843055E-03
3.517013E-04 -1.719700E-02 -1.285642E-08 2.829634E-06 3.919587E-07 2.843072E-03
3.516118E-04 -1.719664E-02 -1.362391E-08 2.855021E-06 3.937170E-07 2.843088E-03
3.515224E-04 -1.719627E-02 -1.434913E-08 2.879989E-06 3.954582E-07 2.843105E-03
3.514329E-04 -1.719591E-02 -1.503648E-08 2.904868E-06 3.971900E-07 2.843121E-03
3.513435E-04 -1.719554E-02 -1.568524E-08 2.929767E-06 3.989246E-07 2.843137E-03
3.512540E-04 -1.719518E-02 -1.629551E-08 2.954706E-06 4.006619E-07 2.843153E-03
3.511646E-04 -1.719482E-02 -1.686775E-08 2.979710E-06 4.024030E-07 2.843169E-03
3.510752E-04 -1.719445E-02 -1.740246E-08 3.004809E-06 4.041490E-07 2.843185E-03
3.509859E-04 -1.719409E-02 -1.790047E-08 3.030054E-06 4.059085E-07 2.843201E-03
3.508965E-04 -1.719372E-02 -1.835903E-08 3.055466E-06 4.076723E-07 2.843216E-03
3.508072E-04 -1.719336E-02 -1.877570E-08 3.080999E-06 4.094188E-07 2.843232E-03
3.507178E-04 -1.719300E-02 -1.914179E-08 3.106487E-06 4.110958E-07 2.843247E-03
3.506285E-04 -1.719263E-02 -1.945874E-08 3.131851E-06 4.126948E-07 2.843262E-03
3.505391E-04 -1.719227E-02 -1.974486E-08 3.156666E-06 4.141969E-07 2.843277E-03
3.504498E-04 -1.719191E-02 -2.000052E-08 3.180838E-06 4.156015E-07 2.843292E-03
3.503604E-04 -1.719154E-02 -2.023541E-08 3.204147E-06 4.169050E-07 2.843307E-03
3.502710E-04 -1.719118E-02 -2.046031E-08 3.226307E-06 4.181045E-07 2.843322E-03
3.501817E-04 -1.719082E-02 -2.067135E-08 3.247299E-06 4.191996E-07 2.843336E-03
3.500924E-04 -1.719046E-02 -2.085550E-08 3.267294E-06 4.201931E-07 2.843350E-03
3.500030E-04 -1.719009E-02 -2.100139E-08 3.286533E-06 4.210877E-07 2.843364E-03
3.499137E-04 -1.718973E-02 -2.111321E-08 3.304953E-06 4.218822E-07 2.843378E-03
3.498244E-04 -1.718937E-02 -2.119197E-08 3.322514E-06 4.225756E-07 2.843391E-03
3.497351E-04 -1.718900E-02 -2.123813E-08 3.339177E-06 4.231675E-07 2.843404E-03
3.496458E-04 -1.718864E-02 -2.125208E-08 3.354907E-06 4.236569E-07 2.843416E-03
3.495565E-04 -1.718828E-02 -2.123415E-08 3.369665E-06 4.240432E-07 2.843429E-03
3.494672E-04 -1.718791E-02 -2.118470E-08 3.383419E-06 4.243251E-07 2.843441E-03
3.493779E-04 -1.718755E-02 -2.110928E-08 3.396266E-06 4.245002E-07 2.843452E-03
3.492886E-04 -1.718719E-02 -2.100872E-08 3.408214E-06 4.245712E-07 2.843463E-03
3.491993E-04 -1.718682E-02 -2.088179E-08 3.419207E-06 4.245365E-07 2.843473E-03
3.491100E-04 -1.718646E-02 -2.072889E-08 3.429214E-06 4.243930E-07 2.843483E-03
3.490207E-04 -1.718610E-02 -2.055643E-08 3.438363E-06 4.241338E-07 2.843492E-03
3.489314E-04 -1.718574E-02 -2.036387E-08 3.446607E-06 4.237569E-07 2.843501E-03
3.488421E-04 -1.718537E-02 -2.015015E-08 3.453879E-06 4.232595E-07 2.843510E-03
3.487529E-04 -1.718501E-02 -1.991466E-08 3.460116E-06 4.226385E-07 2.843518E-03
3.486636E-04 -1.718465E-02 -1.965692E-08 3.465254E-06 4.218918E-07 2.843526E-03
3.485744E-04 -1.718428E-02 -1.937840E-08 3.469278E-06 4.210325E-07 2.843534E-03
3.484851E-04 -1.718392E-02 -1.908082E-08 3.472186E-06 4.200646E-07 2.843541E-03
3.483959E-04 -1.718356E-02 -1.880584E-08 3.474485E-06 4.190298E-07 2.843548E-03
3.483066E-04 -1.718320E-02 -1.858292E-08 3.476667E-06 4.179654E-07 2.843556E-03
3.482174E-04 -1.718284E-02 -1.839284E-08 3.478233E-06 4.168726E-07 2.843563E-03
3.481281E-04 -1.718247E-02 -1.823708E-08 3.479038E-06 4.157563E-07 2.843571E-03
3.480388E-04 -1.718211E-02 -1.811687E-08 3.479027E-06 4.146152E-07 2.843580E-03
3.479495E-04 -1.718175E-02 -1.803283E-08 3.478346E-06 4.134576E-07 2.843589E-03
3.478602E-04 -1.718139E-02 -1.800886E-08 3.477358E-06 4.123130E-07 2.843597E-03
3.477708E-04 -1.718103E-02 -1.807271E-08 3.476359E-06 4.112130E-07 2.843605E-03
3.476814E-04 -1.718067E-02 -1.822519E-08 3.475202E-06 4.101552E-07 2.843612E-03
3.475921E-04 -1.718031E-02 -1.845472E-08 3.473760E-06 4.091350E-07 2.843619E-03
3.475029E-04 -1.717995E-02 -1.875626E-08 3.471899E-06 4.081887E-07 2.843626E-03
3.474136E-04 -1.717959E-02 -1.912159E-08 3.469785E-06 4.073334E-07 2.843633E-03
3.473244E-04 -1.717922E-02 -1.954185E-08 3.467778E-06 4.065869E-07 2.843641E-03
3.472353E-04 -1.717886E-02 -2.000180E-08 3.466156E-06 4.059545E-07 2.843649E-03
3.471461E-04 -1.717850E-02 -2.049413E-08 3.464985E-06 4.054304E-07 2.843657E-03
3.470570E-04 -1.717815E-02 -2.102288E-08 3.464304E-06 4.050139E-07 2.843665E-03
3.469679E-04 -1.717779E-02 -2.158222E-08 3.464064E-06 4.047036E-07 2.843672E-03
3.468788E-04 -1.717743E-02 -2.213972E-08 3.463848E-06 4.044765E-07 2.843679E-03
3.467898E-04 -1.717707E-02 -2.267794E-08 3.463435E-06 4.043141E-07 2.843687E-03
3.467008E-04 -1.717671E-02 -2.319052E-08 3.462746E-06 4.042082E-07 2.843695E-03
3.466118E-04 -1.717635E-02 -2.368903E-08 3.461980E-06 4.041641E-07 2.843702E-03
3.465229E-04 -1.717599E-02 -2.417800E-08 3.461266E-06 4.041918E-07 2.843710E-03
3.464339E-04 -1.717563E-02 -2.465807E-08 3.460664E-06 4.042940E-07 2.843717E-03
3.463450E-04 -1.717528E-02 -2.512930E-08 3.460223E-06 4.044657E-07 2.843725E-03
3.462562E-04 -1.717492E-02 -2.559413E-08 3.460029E-06 4.046888E-07 2.843732E-03
3.461673E-04 -1.717456E-02 -2.605752E-08 3.460255E-06 4.049623E-07 2.843740E-03
3.460785E-04 -1.717420E-02 -2.651063E-08 3.461088E-06 4.052886E-07 2.843748E-03
3.459897E-04 -1.717385E-02 -2.695008E-08 3.462437E-06 4.056546E-07 2.843758E-03
3.459009E-04 -1.717349E-02 -2.733758E-08 3.463393E-06 4.059878E-07 2.843768E-03
3.458121E-04 -1.717313E-02 -2.765327E-08 3.463681E-06 4.062652E-07 2.843779E-03
3.457233E-04 -1.717277E-02 -2.790036E-08 3.463505E-06 4.064935E-07 2.843790E-03
3.456345E-04 -1.717242E-02 -2.809452E-08 3.462706E-06 4.066724E-07 2.843802E-03
3.455458E-04 -1.717206E-02 -2.823984E-08 3.461269E-06 4.068040E-07 2.843815E-03
3.454571E-04 -1.717171E-02 -2.834422E-08 3.459104E-06 4.068886E-07 2.843828E-03
3.453684E-04 -1.717135E-02 -2.841034E-08 3.456184E-06 4.069295E-07 2.843841E-03
3.452798E-04 -1.717099E-02 -2.843786E-08 3.452548E-06 4.069285E-07 2.843856E-03
3.451911E-04 -1.717064E-02 -2.842717E-08 3.448228E-06 4.068872E-07 2.843871E-03
3.451025E-04 -1.717028E-02 -2.838338E-08 3.443169E-06 4.068057E-07 2.843886E-03
3.450139E-04 -1.716993E-02 -2.831299E-08 3.437276E-06 4.066818E-07 2.843902E-03
3.449253E-04 -1.716957E-02 -2.821484E-08 3.430583E-06 4.065164E-07 2.843918E-03
3.448368E-04 -1.716922E-02 -2.808886E-08 3.423113E-06 4.063106E-07 2.843934E-03
3.447482E-04 -1.716886E-02 -2.793531E-08 3.414891E-06 4.060654E-07 2.843950E-03
3.446597E-04 -1.716850E-02 -2.775434E-08 3.405940E-06 4.057820E-07 2.843967E-03
3.445713E-04 -1.716815E-02 -2.754604E-08 3.396281E-06 4.054614E-07 2.843983E-03
3.444828E-04 -1.716779E-02 -2.731054E-08 3.385935E-06 4.051050E-07 2.844000E-03
3.443944E-04 -1.716744E-02 -2.704807E-08 3.374926E-06 4.047137E-07 2.844017E-03
3.443059E-04 -1.716708E-02 -2.675895E-08 3.363274E-06 4.042888E-07 2.844034E-03
3.442175E-04 -1.716673E-02 -2.644334E-08 3.350999E-06 4.038316E-07 2.844051E-03
3.441292E-04 -1.716637E-02 -2.610143E-08 3.338124E-06 4.033430E-07 2.844068E-03
3.440408E-04 -1.716602E-02 -2.574708E-08 3.324839E-06 4.028375E-07 2.844086E-03
3.439525E-04 -1.716566E-02 -2.540792E-08 3.311518E-06 4.023445E-07 2.844104E-03
3.438642E-04 -1.716531E-02 -2.507737E-08 3.298152E-06 4.018637E-07 2.844121E-03
3.437759E-04 -1.716496E-02 -2.475280E-08 3.284749E-06 4.013952E-07 2.844139E-03
3.436877E-04 -1.716460E-02 -2.443841E-08 3.271397E-06 4.009380E-07 2.844157E-03
3.435994E-04 -1.716425E-02 -2.414486E-08 3.258264E-06 4.004769E-07 2.844175E-03
3.435112E-04 -1.716389E-02 -2.388478E-08 3.245536E-06 4.000252E-07 2.844193E-03
3.434231E-04 -1.716354E-02 -2.365123E-08 3.233177E-06 3.995668E-07 2.844212E-03
3.433350E-04 -1.716319E-02 -2.344169E-08 3.221147E-06 3.990974E-07 2.844231E-03
3.432468E-04 -1.716283E-02 -2.324574E-08 3.209310E-06 3.986065E-07 2.844249E-03
3.431587E-04 -1.716248E-02 -2.305255E-08 3.197454E-06 3.980787E-07 2.844267E-03
3.430706E-04 -1.716213E-02 -2.286550E-08 3.185009E-06 3.974953E-07 2.844284E-03
3.429826E-04 -1.716178E-02 -2.270599E-08 3.171621E-06 3.968880E-07 2.844301E-03
3.428945E-04 -1.716142E-02 -2.257604E-08 3.157290E-06 3.962747E-07 2.844318E-03
3.428065E-04 -1.716107E-02 -2.247293E-08 3.142016E-06 3.956544E-07 2.844336E-03
3.427186E-04 -1.716072E-02 -2.239628E-08 3.125803E-06 3.950260E-07 2.844354E-03
3.426307E-04 -1.716037E-02 -2.233781E-08 3.108820E-06 3.943971E-07 2.844372E-03
3.425428E-04 -1.716002E-02 -2.228009E-08 3.091543E-06 3.937851E-07 2.844391E-03
3.424549E-04 -1.715967E-02 -2.222171E-08 3.074150E-06 3.931944E-07 2.844411E-03
3.423671E-04 -1.715931E-02 -2.216617E-08 3.056630E-06 3.926251E-07 2.844431E-03
3.422793E-04 -1.715896E-02 -2.211451E-08 3.038993E-06 3.920783E-07 2.844451E-03
3.421915E-04 -1.715861E-02 -2.206734E-08 3.021255E-06 3.915548E-07 2.844472E-03
3.421038E-04 -1.715826E-02 -2.200988E-08 3.003261E-06 3.910387E-07 2.844493E-03
3.420160E-04 -1.715791E-02 -2.193406E-08 2.985034E-06 3.905166E-07 2.844515E-03
3.419284E-04 -1.715756E-02 -2.184341E-08 2.966614E-06 3.899918E-07 2.844536E-03
3.418407E-04 -1.715721E-02 -2.174536E-08 2.948147E-06 3.894658E-07 2.844558E-03
3.417531E-04 -1.715686E-02 -2.164750E-08 2.929844E-06 3.889463E-07 2.844581E-03
3.416655E-04 -1.715651E-02 -2.154758E-08 2.911676E-06 3.884331E-07 2.844604E-03
3.415780E-04 -1.715617E-02 -2.144506E-08 2.893634E-06 3.879257E-07 2.844627E-03
3.414904E-04 -1.715582E-02 -2.133968E-08 2.875708E-06 3.874234E-07 2.844650E-03
3.414030E-04 -1.715547E-02 -2.123134E-08 2.857893E-06 3.869260E-07 2.844674E-03
3.413155E-04 -1.715512E-02 -2.111997E-08 2.840182E-06 3.864328E-07 2.844699E-03
3.412281E-04 -1.715477E-02 -2.100550E-08 2.822568E-06 3.859435E-07 2.844724E-03
3.411407E-04 -1.715443E-02 -2.088783E-08 2.805047E-06 3.854577E-07 2.844749E-03
3.410533E-04 -1.715408E-02 -2.076652E-08 2.787611E-06 3.849735E-07 2.844774E-03
3.409660E-04 -1.715373E-02 -2.064923E-08 2.770136E-06 3.844890E-07 2.844800E-03
3.408787E-04 -1.715338E-02 -2.054588E-08 2.752482E-06 3.840074E-07 2.844826E-03
3.407915E-04 -1.715304E-02 -2.046252E-08 2.734437E-06 3.835188E-07 2.844852E-03
3.407042E-04 -1.715269E-02 -2.039867E-08 2.715969E-06 3.830276E-07 2.844879E-03
3.406170E-04 -1.715235E-02 -2.036968E-08 2.696794E-06 3.825275E-07 2.844907E-03
3.405298E-04 -1.715200E-02 -2.038348E-08 2.676729E-06 3.820294E-07 2.844936E-03
3.404426E-04 -1.715165E-02 -2.041793E-08 2.656110E-06 3.815408E-07 2.844965E-03
3.403555E-04 -1.715131E-02 -2.045542E-08 2.635215E-06 3.810626E-07 2.844994E-03
3.402684E-04 -1.715096E-02 -2.048316E-08 2.614280E-06 3.806051E-07 2.845024E-03
3.401813E-04 -1.715062E-02 -2.049943E-08 2.593360E-06 3.801676E-07 2.845053E-03
3.400943E-04 -1.715027E-02 -2.050727E-08 2.572451E-06 3.797497E-07 2.845083E-03
3.400073E-04 -1.714993E-02 -2.050783E-08 2.551555E-06 3.793445E-07 2.845113E-03
3.399203E-04 -1.714958E-02 -2.050200E-08 2.530673E-06 3.789522E-07 2.845144E-03
  300000   0.24162089            0            0      6.4e-06 3.8580247e-14 
Loop time of 201817 on 8 procs for 300000 steps with 1280 atoms

Pair  time (%) = 0.483722 (0.000239683)
Neigh time (%) = 0.691157 (0.000342467)
Comm  time (%) = 10.5913 (0.00524796)
Outpt time (%) = 0.000173956 (8.61948e-08)
Other time (%) = 201806 (99.9942)

Nlocal:    160 ave 160 max 160 min
Histogram: 8 0 0 0 0 0 0 0 0 0
Nghost:    70 ave 70 max 70 min
Histogram: 8 0 0 0 0 0 0 0 0 0
Neighs:    0 ave 0 max 0 min
Histogram: 8 0 0 0 0 0 0 0 0 0

Total # of neighbors = 0
Ave neighs/atom = 0
Neighbor list builds = 239
Dangerous builds = 0
