LAMMPS data file via write_data, version 5 Nov 2016, timestep = 10000

500 atoms
1 atom types

1.1888697636423178e+00 2.3811130236358178e+01 xlo xhi
1.1888697636423178e+00 2.3811130236358178e+01 ylo yhi
1.1888697636423178e+00 2.3811130236358178e+01 zlo zhi

Masses

1 62.5

Pair Coeffs # lj/cut

1 1.1 2.8

Atoms # full

8 0 1 0.0000000000000000e+00 2.5841779010802721e+00 4.1038013170990482e+00 2.2582488362971027e+00 0 0 0
107 0 1 0.0000000000000000e+00 3.4189509835733269e+00 2.2603095134163382e+00 4.3359317235008970e+00 0 0 0
86 0 1 0.0000000000000000e+00 4.6138414416400435e+00 1.8029879178250829e+00 1.4925847229469271e+00 0 1 0
185 0 1 0.0000000000000000e+00 6.3720093808707032e+00 3.3189842513423242e+00 4.0067295052069234e+00 0 1 0
186 0 1 0.0000000000000000e+00 7.6753657795848698e+00 1.4188747870174443e+00 1.5684698298125184e+00 0 1 0
412 0 1 0.0000000000000000e+00 8.2605565312318632e+00 4.5391912977994249e+00 1.5608202928648149e+00 0 0 1
109 0 1 0.0000000000000000e+00 9.4874057578686575e+00 2.6434708909688212e+00 3.8204896480915740e+00 0 0 0
31 0 1 0.0000000000000000e+00 1.2142243722304650e+01 4.2194685423022964e+00 1.2899555513463350e+00 0 0 0
111 0 1 0.0000000000000000e+00 1.2619347646586210e+01 2.6175947808541244e+00 3.9264708588952830e+00 0 0 0
420 0 1 0.0000000000000000e+00 1.5993581011177541e+01 2.2888415336273269e+00 4.2042044531820544e+00 0 0 1
16 0 1 0.0000000000000000e+00 1.5107593339025088e+01 4.7005255852404684e+00 1.1965813881225948e+00 0 0 0
14 0 1 0.0000000000000000e+00 1.4132354703334610e+01 1.4295359588632832e+00 1.2771110116870119e+00 0 0 0
18 0 1 0.0000000000000000e+00 1.8120509551437593e+01 3.7819926248034186e+00 2.3902423119401055e+00 0 0 0
117 0 1 0.0000000000000000e+00 1.9226991285663843e+01 1.6536028982308824e+00 4.3591184725112662e+00 0 0 0
1 0 1 0.0000000000000000e+00 2.2001820350584943e+01 2.8289120892845996e+00 3.0719197796344533e+00 -1 0 0
34 0 1 0.0000000000000000e+00 1.9914187247365106e+01 4.9363726760636748e+00 4.4452615139173952e+00 0 0 0
22 0 1 0.0000000000000000e+00 2.8968754774558683e+00 7.4527509490068962e+00 2.3214577497510249e+00 0 0 0
28 0 1 0.0000000000000000e+00 4.3129944921725736e+00 5.4921250932812455e+00 4.9276803844467558e+00 0 0 0
25 0 1 0.0000000000000000e+00 5.2466788279203698e+00 5.3289108176008897e+00 1.6545186971578028e+00 0 0 0
27 0 1 0.0000000000000000e+00 7.0871236124708155e+00 6.3425131674468229e+00 3.9929501202658804e+00 0 0 0
26 0 1 0.0000000000000000e+00 5.7206354922050453e+00 8.2722960577333637e+00 1.7855580817376873e+00 0 0 0
447 0 1 0.0000000000000000e+00 8.8463779947738779e+00 7.6220250070913353e+00 1.5285894558173989e+00 0 0 1
11 0 1 0.0000000000000000e+00 1.0207352740639488e+01 5.9607669283313252e+00 3.6179864458305313e+00 0 0 0
432 0 1 0.0000000000000000e+00 1.2160069078872850e+01 7.3692038483384588e+00 1.7194626512464046e+00 0 0 1
116 0 1 0.0000000000000000e+00 1.3367935876608691e+01 5.4496570491138359e+00 4.0156358601371078e+00 0 0 0
130 0 1 0.0000000000000000e+00 1.5134749655179965e+01 7.5838822354168478e+00 1.3053942939517340e+00 0 0 0
114 0 1 0.0000000000000000e+00 1.6290753428009111e+01 5.4965162248643900e+00 4.3025454500573854e+00 0 0 0
35 0 1 0.0000000000000000e+00 1.8440911229466344e+01 6.8844274800942022e+00 2.5111218778387396e+00 0 0 0
39 0 1 0.0000000000000000e+00 2.2459257557430526e+01 5.9898180831886467e+00 3.1138448753683026e+00 0 0 0
41 0 1 0.0000000000000000e+00 3.3538130540384983e+00 1.0196365909208918e+01 3.0416281798419504e+00 0 0 0
43 0 1 0.0000000000000000e+00 2.3621670610264708e+01 1.1999241391056090e+01 3.4605083059254076e+00 -1 0 0
45 0 1 0.0000000000000000e+00 7.3770843446733441e+00 9.5239690384976381e+00 3.7768666647643148e+00 0 0 0
46 0 1 0.0000000000000000e+00 5.6752947723040732e+00 1.1446482318388567e+01 1.6697645710882281e+00 0 0 0
146 0 1 0.0000000000000000e+00 1.0532463062567119e+01 9.3774765221743479e+00 3.9705049735246476e+00 0 0 0
153 0 1 0.0000000000000000e+00 9.0228809523765019e+00 1.0804509601698037e+01 1.5350349420171217e+00 0 0 0
149 0 1 0.0000000000000000e+00 1.2729925577342213e+01 1.0505425261963804e+01 2.0356783808500793e+00 0 0 0
150 0 1 0.0000000000000000e+00 1.3493043580090799e+01 8.7336739248105761e+00 4.1983605850858066e+00 0 0 0
156 0 1 0.0000000000000000e+00 1.5878006665756155e+01 1.0406010152135833e+01 1.6229494654766190e+00 0 0 0
71 0 1 0.0000000000000000e+00 1.4634856722432094e+01 1.1696008593723585e+01 4.1452250098297441e+00 0 0 0
134 0 1 0.0000000000000000e+00 1.6684460071935639e+01 8.5398013806283686e+00 4.2629704184319896e+00 0 0 0
354 0 1 0.0000000000000000e+00 1.7486132597624412e+01 1.1693289475777794e+01 3.9836349580635737e+00 0 0 1
57 0 1 0.0000000000000000e+00 1.9821066936810794e+01 9.4924032140764112e+00 3.1704918009420791e+00 0 0 0
480 0 1 0.0000000000000000e+00 1.8694869832430250e+01 1.1673822137003544e+01 2.3269166575935060e+01 0 0 0
24 0 1 0.0000000000000000e+00 2.3025648267665666e+01 8.9319925103005708e+00 3.7095157674217552e+00 -1 0 0
78 0 1 0.0000000000000000e+00 2.1810422425970629e+01 1.1116669232839229e+01 1.3401289033835297e+00 0 0 0
158 0 1 0.0000000000000000e+00 1.7937714252750636e+00 1.5211152414629499e+01 4.3735012232525410e+00 1 0 0
42 0 1 0.0000000000000000e+00 4.0648128052187058e+00 1.3266263048465060e+01 3.3986311534442928e+00 0 0 0
52 0 1 0.0000000000000000e+00 7.5576623369495088e+00 1.2720762871991472e+01 3.5725473809888162e+00 0 0 0
65 0 1 0.0000000000000000e+00 6.0131861251117762e+00 1.4562033897112835e+01 1.6661552023448891e+00 0 0 0
73 0 1 0.0000000000000000e+00 1.0846603937837283e+01 1.2256389855356115e+01 3.8163155200134153e+00 0 0 0
91 0 1 0.0000000000000000e+00 1.1419986100439235e+01 1.5567404076699813e+01 3.5467143517840714e+00 0 0 0
72 0 1 0.0000000000000000e+00 9.4238939629549492e+00 1.3876987377537002e+01 1.4940038101453952e+00 0 0 0
76 0 1 0.0000000000000000e+00 1.3038724964614040e+01 1.3270523252634220e+01 2.3052183046623207e+00 0 0 0
174 0 1 0.0000000000000000e+00 1.4782316243738723e+01 1.5385687837208861e+01 3.7623171410107958e+00 0 0 0
77 0 1 0.0000000000000000e+00 1.6146868042849675e+01 1.3567224212585909e+01 1.8320758246414663e+00 0 0 0
75 0 1 0.0000000000000000e+00 1.8266130487640993e+01 1.4785597431836115e+01 4.3100320921208937e+00 0 0 0
60 0 1 0.0000000000000000e+00 2.0506268378273340e+01 1.2519744417968207e+01 3.6252534436412223e+00 0 0 0
63 0 1 0.0000000000000000e+00 2.2644241742206319e+01 1.4158650396079445e+01 1.5777083293989960e+00 -1 0 0
74 0 1 0.0000000000000000e+00 2.0775817097425524e+01 1.6148105293441660e+01 3.2347402191631849e+00 0 0 0
181 0 1 0.0000000000000000e+00 2.4978150715739091e+00 1.8461780124292083e+01 4.3494758318734803e+00 0 0 0
162 0 1 0.0000000000000000e+00 4.8209469963947225e+00 1.6558790563886920e+01 3.6425181662787960e+00 0 0 0
484 0 1 0.0000000000000000e+00 3.4777556730512793e+00 1.8550746071581045e+01 1.2193134998426400e+00 0 0 1
170 0 1 0.0000000000000000e+00 7.9704323195477214e+00 1.5907515347456524e+01 3.5284514263985303e+00 0 0 0
142 0 1 0.0000000000000000e+00 6.6022989413890611e+00 1.7666313310404917e+01 1.4605317335465551e+00 0 0 0
64 0 1 0.0000000000000000e+00 5.4863890849427168e+00 1.9736542526955283e+01 3.6187592062106311e+00 0 0 0
83 0 1 0.0000000000000000e+00 8.5321502262119644e+00 1.9039297004615179e+01 3.6237588989371599e+00 0 0 0
70 0 1 0.0000000000000000e+00 1.1590558783945358e+01 1.8852900813343432e+01 3.7276475728081548e+00 0 0 0
69 0 1 0.0000000000000000e+00 9.8060703709099215e+00 1.6823283606079187e+01 1.4650717826037751e+00 0 0 0
214 0 1 0.0000000000000000e+00 1.5075835580005062e+01 1.8334341911479697e+01 4.0061685844892638e+00 0 -1 0
471 0 1 0.0000000000000000e+00 1.2989329063329659e+01 1.7248531990020588e+01 1.6717688510922011e+00 0 0 1
475 0 1 0.0000000000000000e+00 1.6643020459296871e+01 1.6880813943966643e+01 1.7896168674903730e+00 0 0 1
197 0 1 0.0000000000000000e+00 1.8439576853322016e+01 1.8043162802282623e+01 4.1734567113713048e+00 0 0 0
490 0 1 0.0000000000000000e+00 1.6893108954904417e+01 1.9926578804861208e+01 2.0369563348438504e+00 0 0 1
161 0 1 0.0000000000000000e+00 2.3252778629077334e+01 1.7135313891802987e+01 2.1320393594416127e+00 -1 0 0
496 0 1 0.0000000000000000e+00 2.1062370637170126e+01 1.9403064819835762e+01 3.1069959409086465e+00 0 0 1
7 0 1 0.0000000000000000e+00 1.6587871653517876e+00 2.3264050341295828e+01 2.0738445036930839e+00 0 -1 0
102 0 1 0.0000000000000000e+00 3.0274139571918055e+00 2.1799714269494324e+01 4.5181844531001474e+00 0 -1 0
5 0 1 0.0000000000000000e+00 4.0626345645623729e+00 2.1470635866279771e+01 1.5435740094843018e+00 0 -1 0
82 0 1 0.0000000000000000e+00 2.3795061887530142e+01 2.0340636367473820e+01 2.1872023553729001e+00 -1 0 0
88 0 1 0.0000000000000000e+00 6.0169021181865094e+00 2.2896219569795690e+01 3.9920942205347005e+00 0 0 0
66 0 1 0.0000000000000000e+00 6.9575839711999725e+00 2.1010906239718530e+01 1.6085670649564889e+00 0 0 0
10 0 1 0.0000000000000000e+00 1.0909714899369153e+01 2.3764936089047431e+01 1.6630070729393929e+00 0 -1 0
67 0 1 0.0000000000000000e+00 9.0283487756275420e+00 2.2270917631995168e+01 3.7006412443625751e+00 0 0 0
472 0 1 0.0000000000000000e+00 1.0092800046751833e+01 2.0352038861969589e+01 1.5027122587108077e+00 0 0 1
13 0 1 0.0000000000000000e+00 1.1990831188621600e+01 2.1848625964847194e+01 3.9822843640698768e+00 0 -1 0
94 0 1 0.0000000000000000e+00 1.5042857028024883e+01 2.1696616260098210e+01 3.7291396896088527e+00 0 0 0
491 0 1 0.0000000000000000e+00 1.3144876434700990e+01 2.1149410765978395e+01 2.3729792160291275e+01 0 0 0
500 0 1 0.0000000000000000e+00 1.7202068524693196e+01 2.3202742844791089e+01 2.1432390916094692e+00 0 0 1
100 0 1 0.0000000000000000e+00 1.8700927745435813e+01 2.1209366206171062e+01 4.0240418236394815e+00 0 0 0
419 0 1 0.0000000000000000e+00 2.1586178814919300e+01 2.2575179043105408e+01 3.1532299703969007e+00 0 -1 1
19 0 1 0.0000000000000000e+00 2.5059300267086888e+00 2.7636971986906378e+00 7.5688861228050204e+00 1 0 0
125 0 1 0.0000000000000000e+00 5.7122138933330602e+00 3.4811137324632249e+00 6.8576090670635024e+00 0 0 0
87 0 1 0.0000000000000000e+00 7.8220851148781234e+00 1.5592440762899504e+00 6.0335982802807724e+00 0 1 0
105 0 1 0.0000000000000000e+00 8.2959490449991105e+00 4.8179066754800717e+00 6.2376550906196471e+00 0 0 0
110 0 1 0.0000000000000000e+00 1.1416865442767907e+01 4.1573546681758078e+00 6.2854835243996616e+00 0 0 0
192 0 1 0.0000000000000000e+00 9.6078206166836218e+00 2.8786564014788190e+00 8.4524392330172358e+00 0 1 0
120 0 1 0.0000000000000000e+00 1.4440753136474994e+01 3.6177863715045633e+00 6.2565290459241707e+00 0 0 0
115 0 1 0.0000000000000000e+00 1.5707050609176619e+01 1.9401080665524209e+00 8.3880253229594359e+00 0 0 0
209 0 1 0.0000000000000000e+00 1.2673800534066176e+01 2.3594019733400025e+00 8.4983160548240821e+00 0 0 0
113 0 1 0.0000000000000000e+00 1.7888403432486719e+01 3.5536459280610888e+00 6.2913831142103511e+00 0 0 0
217 0 1 0.0000000000000000e+00 1.9381360676359250e+01 1.6035254640965393e+00 8.2062836303273663e+00 0 0 0
101 0 1 0.0000000000000000e+00 1.3367325258168112e+00 4.1594889824792762e+00 5.1432233672946861e+00 0 0 0
237 0 1 0.0000000000000000e+00 2.1270360833976362e+01 2.9354889142088112e+00 6.2568429281267592e+00 0 0 0
4 0 1 0.0000000000000000e+00 2.3008098662586981e+01 4.5029412428718043e+00 8.3593897171918758e+00 -1 0 0
2 0 1 0.0000000000000000e+00 2.3596357961508645e+01 2.3694799723173702e+01 5.4789775629073700e+00 -1 -1 0
38 0 1 0.0000000000000000e+00 1.9992716569942584e+00 7.3901758741065020e+00 5.5226207326003536e+00 1 0 0
106 0 1 0.0000000000000000e+00 3.1850585733289094e+00 5.6223699135319212e+00 7.8531969873145187e+00 0 0 0
122 0 1 0.0000000000000000e+00 3.9818601912555076e+00 9.1807994519877703e+00 8.1822655924920191e+00 0 0 0
32 0 1 0.0000000000000000e+00 4.9585516755987982e+00 8.4458066693510006e+00 5.1985004292368817e+00 0 0 0
108 0 1 0.0000000000000000e+00 6.2541376365353463e+00 6.8324124766828378e+00 7.4408059559704274e+00 0 0 0
131 0 1 0.0000000000000000e+00 8.9289457744110443e+00 7.9481451836239314e+00 6.0405918834420325e+00 0 0 0
151 0 1 0.0000000000000000e+00 1.1742822196763514e+01 7.2246489701841679e+00 6.3614637613256404e+00 0 0 0
232 0 1 0.0000000000000000e+00 1.0097737666659658e+01 5.9193368906594159e+00 8.5480904810117018e+00 0 0 0
135 0 1 0.0000000000000000e+00 1.4879756229845293e+01 7.0192216588451037e+00 6.2851711196278330e+00 0 0 0
112 0 1 0.0000000000000000e+00 1.3088158151417879e+01 5.6277111638471542e+00 8.5115277472283246e+00 0 0 0
194 0 1 0.0000000000000000e+00 1.9747630049863396e+01 4.9614896338626373e+00 8.4029830309248439e+00 0 1 0
233 0 1 0.0000000000000000e+00 1.6486380596242832e+01 5.3359196167153087e+00 8.3353305372937996e+00 0 0 0
139 0 1 0.0000000000000000e+00 1.8160930971032002e+01 6.7885060112543814e+00 6.5496105265865472e+00 0 0 0
136 0 1 0.0000000000000000e+00 1.6783252450255574e+01 8.4666962011645417e+00 8.5240959540227728e+00 0 0 0
118 0 1 0.0000000000000000e+00 1.9834866334934318e+01 8.1176676339655280e+00 8.7017383943602731e+00 0 0 0
37 0 1 0.0000000000000000e+00 2.1080794208340897e+01 7.2380793179886309e+00 5.9857695497285945e+00 0 0 0
221 0 1 0.0000000000000000e+00 2.3016310219408815e+01 7.6631537583741860e+00 8.6953615912297426e+00 -1 0 0
23 0 1 0.0000000000000000e+00 2.2103430975019815e+00 1.0389311157345670e+01 5.7495867475854237e+00 0 0 0
141 0 1 0.0000000000000000e+00 4.8701530028161368e+00 1.1996518714271604e+01 8.4927252555860449e+00 0 0 0
148 0 1 0.0000000000000000e+00 5.4127552001967212e+00 1.1289961432677218e+01 5.4101236724338966e+00 0 0 0
132 0 1 0.0000000000000000e+00 7.0508006377101298e+00 9.9898046288159268e+00 7.7425585399685186e+00 0 0 0
126 0 1 0.0000000000000000e+00 9.1627418608493869e+00 1.1005549806198520e+01 5.9016121027850899e+00 0 0 0
147 0 1 0.0000000000000000e+00 1.0140606531184250e+01 9.1654286599651051e+00 8.7099679085564716e+00 0 0 0
152 0 1 0.0000000000000000e+00 1.2134639964838309e+01 1.0551530965850128e+01 6.3929264849927732e+00 0 0 0
230 0 1 0.0000000000000000e+00 1.3534523909529511e+01 8.5834683804577345e+00 8.4650275724376183e+00 0 0 0
173 0 1 0.0000000000000000e+00 1.5416094913986415e+01 1.0144848623477147e+01 6.5656080795168474e+00 0 0 0
196 0 1 0.0000000000000000e+00 1.3953247566663917e+01 1.2226460701262074e+01 8.1782061593455335e+00 0 0 0
137 0 1 0.0000000000000000e+00 1.8689095083313390e+01 9.7438026213607714e+00 6.1418998589778520e+00 0 0 0
179 0 1 0.0000000000000000e+00 1.7297973730485516e+01 1.1574171326197856e+01 8.6121221645988726e+00 0 0 0
157 0 1 0.0000000000000000e+00 2.1673793120617191e+01 1.0762219141602166e+01 5.9028967509079528e+00 0 0 0
273 0 1 0.0000000000000000e+00 2.0672427779903678e+01 1.1140960556276116e+01 8.6998847415890133e+00 0 0 0
143 0 1 0.0000000000000000e+00 3.0045087718209409e+00 1.3434096413820876e+01 6.3720302827713731e+00 0 0 0
258 0 1 0.0000000000000000e+00 5.0269376614300461e+00 1.4928558209965823e+01 8.7991451912179084e+00 1 0 0
263 0 1 0.0000000000000000e+00 7.7792591728573850e+00 1.3115355085966831e+01 7.7061139614305336e+00 0 0 0
48 0 1 0.0000000000000000e+00 5.7733718898524984e+00 1.4455974226420404e+01 5.8565488899752856e+00 0 0 0
168 0 1 0.0000000000000000e+00 8.0159210798844711e+00 1.6042471406322207e+01 7.9785867552032714e+00 0 0 0
249 0 1 0.0000000000000000e+00 1.0711854707650453e+01 1.2670447532742132e+01 7.9352967979437423e+00 0 0 0
172 0 1 0.0000000000000000e+00 9.4812107344755123e+00 1.4411943991388160e+01 5.6463565731697951e+00 0 0 0
246 0 1 0.0000000000000000e+00 1.1096452580870544e+01 1.5845653035068608e+01 8.1441798027179750e+00 0 0 0
250 0 1 0.0000000000000000e+00 1.2777019782813705e+01 1.3865229890448994e+01 5.7758971249218733e+00 0 0 0
278 0 1 0.0000000000000000e+00 1.4297924905019029e+01 1.5317658259050342e+01 8.2830082152748972e+00 0 0 0
40 0 1 0.0000000000000000e+00 1.5962727753445991e+01 1.3275287435536837e+01 6.3626407083598497e+00 0 0 0
138 0 1 0.0000000000000000e+00 1.9420365998801074e+01 1.2692881682175516e+01 6.5108877108673555e+00 0 0 0
277 0 1 0.0000000000000000e+00 1.7749963911157437e+01 1.4770729741912373e+01 8.2853335773134660e+00 0 0 0
80 0 1 0.0000000000000000e+00 1.9635223493865965e+01 1.6237478209232059e+01 6.3951572179192091e+00 0 0 0
99 0 1 0.0000000000000000e+00 2.3700168021228592e+01 1.6061446821780372e+01 7.3185490614305042e+00 0 0 0
154 0 1 0.0000000000000000e+00 2.1968829039080894e+01 1.3965689649043872e+01 5.6934644997214585e+00 0 0 0
140 0 1 0.0000000000000000e+00 2.1158769499611410e+01 1.4373335597157578e+01 8.4468857178226031e+00 0 0 0
68 0 1 0.0000000000000000e+00 3.9278514070012318e+00 1.6856936512571426e+01 6.4882433457670183e+00 0 0 0
164 0 1 0.0000000000000000e+00 1.6473299740625285e+00 1.8851761735675169e+01 7.5077778794268841e+00 0 0 0
165 0 1 0.0000000000000000e+00 6.8519769540506950e+00 1.8111476012973043e+01 5.8306617804626999e+00 0 0 0
266 0 1 0.0000000000000000e+00 8.7376332361995388e+00 1.9004748902358237e+01 8.2815188866918010e+00 0 0 0
269 0 1 0.0000000000000000e+00 1.0035517563896128e+01 1.7270740368081668e+01 5.7001190783975222e+00 0 0 0
270 0 1 0.0000000000000000e+00 1.1813695942911234e+01 1.8870448529384063e+01 8.3675873355555161e+00 0 0 0
176 0 1 0.0000000000000000e+00 1.2897390228346920e+01 1.7004939816187850e+01 5.9626599406375078e+00 0 0 0
291 0 1 0.0000000000000000e+00 1.4835951418003589e+01 1.8526491660371931e+01 8.5985364880901578e+00 0 0 0
293 0 1 0.0000000000000000e+00 1.6305720104573233e+01 1.6765069459682529e+01 6.2060095934954571e+00 0 0 0
95 0 1 0.0000000000000000e+00 1.8261893517479997e+01 1.8069126065012767e+01 8.3983064845391961e+00 0 0 0
190 0 1 0.0000000000000000e+00 1.6729703275259631e+01 1.9970781885656685e+01 6.1252855969031303e+00 0 0 0
198 0 1 0.0000000000000000e+00 2.0071018596937222e+01 1.9286039688073117e+01 6.2793148660024087e+00 0 0 0
98 0 1 0.0000000000000000e+00 2.2525525965111335e+01 1.7822042342711811e+01 5.2085099133616088e+00 0 0 0
180 0 1 0.0000000000000000e+00 2.1553720748942723e+01 1.7848705940858615e+01 8.3040488520736471e+00 0 0 0
166 0 1 0.0000000000000000e+00 4.5563316292627380e+00 1.9832833193099141e+01 6.9054279244791434e+00 0 0 0
298 0 1 0.0000000000000000e+00 2.2027620866830264e+00 2.1693635139834043e+01 7.6887386419853696e+00 1 0 0
103 0 1 0.0000000000000000e+00 4.8537559933134879e+00 2.3311281710213429e+01 6.8824689090941904e+00 0 -1 0
169 0 1 0.0000000000000000e+00 7.2289506843393889e+00 2.1256351770911962e+01 6.1119545337892420e+00 0 0 0
191 0 1 0.0000000000000000e+00 1.0925386420216048e+01 2.3732530603844829e+01 6.1013626105728500e+00 0 0 0
189 0 1 0.0000000000000000e+00 1.0510353104544738e+01 2.0191676133538245e+01 6.1846235479894478e+00 0 0 0
292 0 1 0.0000000000000000e+00 1.2284061675139426e+01 2.1820115505526616e+01 8.2940189218719702e+00 0 0 0
286 0 1 0.0000000000000000e+00 9.3172433526254146e+00 2.2258907062370170e+01 8.1632204506666781e+00 0 0 0
193 0 1 0.0000000000000000e+00 1.3636468386457848e+01 2.0115399047415401e+01 6.1173747322290755e+00 0 0 0
96 0 1 0.0000000000000000e+00 1.3984103625077571e+01 2.3227443674257138e+01 6.0376622475265798e+00 0 0 0
17 0 1 0.0000000000000000e+00 1.5269873380719806e+01 2.1609578754499374e+01 8.3052572390879043e+00 0 -1 0
200 0 1 0.0000000000000000e+00 1.7282747793540615e+01 2.3078376742308080e+01 6.2051597750685854e+00 0 0 0
199 0 1 0.0000000000000000e+00 1.8543631028931792e+01 2.1173380373658631e+01 8.3299339173058300e+00 0 0 0
301 0 1 0.0000000000000000e+00 2.2516982316021974e+01 1.4037243741550716e+00 8.3199848474920692e+00 -1 0 0
84 0 1 0.0000000000000000e+00 2.3009822687535525e+01 2.0602058839930919e+01 5.2303216303341653e+00 -1 0 0
182 0 1 0.0000000000000000e+00 2.0718646875655537e+01 2.2348639372593695e+01 6.1013968397973066e+00 -1 0 0
381 0 1 0.0000000000000000e+00 2.1867171342852210e+01 2.0800173314680343e+01 8.4163106765560691e+00 -1 0 0
124 0 1 0.0000000000000000e+00 4.2396210209330363e+00 3.7995963325847075e+00 1.0047297435365280e+01 0 0 0
218 0 1 0.0000000000000000e+00 1.4065389208962924e+00 2.9087822510571790e+00 1.0685881816940780e+01 1 0 0
187 0 1 0.0000000000000000e+00 6.9912663857122670e+00 1.7234123184795744e+00 9.1522291114521845e+00 0 1 0
203 0 1 0.0000000000000000e+00 5.7856794957848008e+00 1.8835708976751866e+00 1.2087323113429088e+01 0 0 0
206 0 1 0.0000000000000000e+00 7.3592811652151298e+00 4.7201077700249705e+00 9.4676550845882890e+00 0 0 0
188 0 1 0.0000000000000000e+00 8.7632541186834523e+00 2.9557995191871242e+00 1.1516357655372467e+01 0 1 0
227 0 1 0.0000000000000000e+00 1.1476107377853552e+01 4.0569899253176356e+00 1.0523408541857460e+01 0 0 0
211 0 1 0.0000000000000000e+00 1.4691959245953253e+01 3.5854896279970427e+00 1.0521733487199395e+01 0 0 0
334 0 1 0.0000000000000000e+00 1.7701816121397123e+01 3.4871253413848140e+00 1.0425435972964314e+01 0 0 0
119 0 1 0.0000000000000000e+00 2.1030306700115950e+01 3.2697027272229975e+00 1.0489199007986288e+01 0 0 0
224 0 1 0.0000000000000000e+00 2.0575355498716470e+00 6.0579242512710714e+00 1.0601144645146380e+01 0 0 0
204 0 1 0.0000000000000000e+00 6.2463592476262875e+00 5.0975518301930656e+00 1.2407487776239712e+01 0 0 0
225 0 1 0.0000000000000000e+00 4.9856955122335531e+00 6.7863518118701958e+00 1.0156760722299735e+01 0 0 0
129 0 1 0.0000000000000000e+00 7.8754886828415493e+00 7.9431417443828405e+00 9.6330493921623361e+00 0 0 0
228 0 1 0.0000000000000000e+00 9.0168532855452206e+00 6.1882290549213845e+00 1.1693246499396468e+01 0 0 0
229 0 1 0.0000000000000000e+00 1.1752435022721547e+01 7.3757354881548745e+00 1.0657177909975973e+01 0 0 0
235 0 1 0.0000000000000000e+00 1.4864410600855011e+01 6.8339536605629112e+00 1.0683544396424038e+01 0 0 0
240 0 1 0.0000000000000000e+00 1.8237513439769700e+01 6.4029611330793017e+00 1.0734833992789333e+01 0 0 0
20 0 1 0.0000000000000000e+00 2.1504284978637685e+01 6.2122162910859497e+00 1.0802254181438689e+01 0 0 0
121 0 1 0.0000000000000000e+00 2.6000902891346254e+00 8.8790263427352727e+00 1.1115894431829780e+01 0 0 0
145 0 1 0.0000000000000000e+00 3.2796254671573313e+00 1.1904472223052000e+01 1.1516561652264301e+01 0 0 0
128 0 1 0.0000000000000000e+00 5.4928722838580786e+00 1.0011571824176672e+01 1.0612169032847500e+01 0 0 0
47 0 1 0.0000000000000000e+00 8.4904518682064953e+00 1.1354513980662379e+01 1.0166935030094470e+01 0 0 0
226 0 1 0.0000000000000000e+00 9.6569370448012180e+00 9.2465717115632771e+00 1.1818675218374810e+01 0 0 0
231 0 1 0.0000000000000000e+00 1.2221566892821055e+01 1.0775778840523902e+01 1.0289292934491591e+01 0 0 0
265 0 1 0.0000000000000000e+00 1.0517790688050212e+01 1.2361309852125858e+01 1.2291583818580673e+01 0 0 0
234 0 1 0.0000000000000000e+00 1.5202043000425210e+01 1.0000204746645084e+01 1.0685406772353511e+01 0 0 0
238 0 1 0.0000000000000000e+00 1.8685992928560680e+01 9.9714185260277510e+00 1.0691666302576747e+01 0 0 0
163 0 1 0.0000000000000000e+00 2.3594838442234302e+01 1.0893142500767615e+01 8.8205385610540574e+00 -1 0 0
123 0 1 0.0000000000000000e+00 2.1866025037547068e+01 9.5190709872219763e+00 1.1162406167053076e+01 -1 0 0
159 0 1 0.0000000000000000e+00 2.2266757442702868e+01 1.2731376345342547e+01 1.0748533082307818e+01 0 0 0
261 0 1 0.0000000000000000e+00 2.3419625765261922e+00 1.3906710447488241e+01 9.5046787046040624e+00 0 0 0
144 0 1 0.0000000000000000e+00 4.1118002761362362e+00 1.5125863204244666e+01 1.1818270805437102e+01 0 0 0
252 0 1 0.0000000000000000e+00 6.1701940656653660e+00 1.2948296612826290e+01 1.1034459488673816e+01 0 0 0
285 0 1 0.0000000000000000e+00 6.9804015048426855e+00 1.6056854850684012e+01 1.1052605770137379e+01 0 0 0
167 0 1 0.0000000000000000e+00 9.3488307246785354e+00 1.4338612451222717e+01 1.0053002421197970e+01 0 0 0
294 0 1 0.0000000000000000e+00 1.1027027295533001e+01 1.5381415142663025e+01 1.2368565739470599e+01 0 0 0
349 0 1 0.0000000000000000e+00 1.2370956396874830e+01 1.3615018193001767e+01 1.0338822975874146e+01 0 0 0
160 0 1 0.0000000000000000e+00 1.5744155372687997e+01 1.3390205687041654e+01 1.0647966705232211e+01 0 0 0
155 0 1 0.0000000000000000e+00 1.9088332202033449e+01 1.3063457806394299e+01 1.0701584715791750e+01 0 0 0
378 0 1 0.0000000000000000e+00 1.9390286935156851e+01 1.6118092395546846e+01 1.0409288958091834e+01 0 0 0
283 0 1 0.0000000000000000e+00 2.2467213861228409e+01 1.6162912259967435e+01 1.0548818411165497e+01 -1 0 0
264 0 1 0.0000000000000000e+00 2.7822846460910866e+00 1.6941155460466465e+01 9.9369345072734721e+00 0 0 0
184 0 1 0.0000000000000000e+00 4.6951524704568479e+00 1.8339176985336088e+01 1.2145141248185011e+01 0 0 0
183 0 1 0.0000000000000000e+00 3.7022627230336678e+00 2.0131405010327093e+01 9.8526314067110956e+00 0 0 0
262 0 1 0.0000000000000000e+00 5.6314148587721817e+00 1.7910962683642069e+01 8.9553325726618880e+00 0 0 0
268 0 1 0.0000000000000000e+00 7.5401700812329784e+00 1.9260843090777030e+01 1.1316675804093297e+01 0 0 0
365 0 1 0.0000000000000000e+00 9.8927556540151027e+00 1.7528213103367541e+01 1.0499611651599439e+01 0 0 0
171 0 1 0.0000000000000000e+00 1.2872893630412326e+01 1.6930409285851020e+01 1.0477716976901318e+01 0 0 0
274 0 1 0.0000000000000000e+00 1.6111712738736628e+01 1.6730803174793493e+01 1.0626415699473696e+01 0 0 0
272 0 1 0.0000000000000000e+00 1.3666237906921635e+01 1.9992334325672523e+01 1.0706327796610044e+01 0 0 0
394 0 1 0.0000000000000000e+00 1.6618298779045510e+01 1.9712073763641214e+01 1.0709515234553022e+01 0 0 0
281 0 1 0.0000000000000000e+00 2.0105763605583483e+01 1.9542558207746509e+01 1.0562701424950097e+01 -1 0 0
299 0 1 0.0000000000000000e+00 2.3365798095831352e+01 1.8985867313658197e+01 1.0500349481138498e+01 0 0 0
104 0 1 0.0000000000000000e+00 3.9003008101882988e+00 2.3364264920867427e+01 9.7536116560933301e+00 0 -1 0
363 0 1 0.0000000000000000e+00 5.1825283286877841e+00 2.1322252637139975e+01 1.2170528850212447e+01 0 0 0
282 0 1 0.0000000000000000e+00 6.3460293486178658e+00 2.1386062069396772e+01 9.0754379756714769e+00 0 0 0
288 0 1 0.0000000000000000e+00 8.0824198782424901e+00 2.2346668557924183e+01 1.1451620934468773e+01 0 0 0
290 0 1 0.0000000000000000e+00 1.0755392679422544e+01 2.3484329803984799e+01 1.0519718149856837e+01 0 0 0
289 0 1 0.0000000000000000e+00 1.0484708064836882e+01 2.0622253188533072e+01 1.0447859030863688e+01 0 0 0
390 0 1 0.0000000000000000e+00 1.4111957606865783e+01 2.3230504513409670e+01 1.0785395968415505e+01 0 0 0
210 0 1 0.0000000000000000e+00 1.7049357245574122e+01 2.3005898938685036e+01 1.0360514665569898e+01 0 -1 0
382 0 1 0.0000000000000000e+00 2.3316185133449849e+01 2.2091234128558135e+01 1.0656873056411058e+01 -1 0 0
201 0 1 0.0000000000000000e+00 2.0392032354046655e+01 2.2540771107658500e+01 1.0462898044797274e+01 -1 -1 0
321 0 1 0.0000000000000000e+00 3.3884803620305148e+00 4.0365331768777732e+00 1.2871097253764459e+01 0 0 0
304 0 1 0.0000000000000000e+00 4.6422765977437122e+00 2.2829336800789468e+00 1.4871794288179055e+01 0 0 0
324 0 1 0.0000000000000000e+00 1.5254427206481853e+00 2.5277936260554181e+00 1.5146284192315782e+01 0 0 0
305 0 1 0.0000000000000000e+00 7.5977013986339736e+00 3.1940829797904922e+00 1.4411866108507033e+01 0 0 0
202 0 1 0.0000000000000000e+00 1.0469595473179991e+01 4.3701344702766107e+00 1.3692501694177777e+01 0 0 0
207 0 1 0.0000000000000000e+00 1.2601495190289484e+01 2.3907371246664972e+00 1.2787405914788579e+01 0 0 0
333 0 1 0.0000000000000000e+00 1.4680993257461015e+01 3.8035556516786042e+00 1.5038499014616429e+01 0 0 0
213 0 1 0.0000000000000000e+00 1.5873097484668817e+01 1.9725073831550568e+00 1.2773823611143211e+01 0 0 0
314 0 1 0.0000000000000000e+00 1.9085286686291603e+01 1.5210570733409268e+00 1.2658281657686016e+01 0 0 0
335 0 1 0.0000000000000000e+00 1.7774431982212853e+01 3.2388561366145407e+00 1.4931924747861698e+01 0 0 0
336 0 1 0.0000000000000000e+00 1.9452300059843857e+01 4.7277963415304125e+00 1.2937870073036299e+01 0 0 0
337 0 1 0.0000000000000000e+00 2.2823514527226344e+01 4.2326094986121694e+00 1.3038231146956374e+01 0 0 0
318 0 1 0.0000000000000000e+00 2.0768874359301869e+01 2.8152333824763578e+00 1.4953348740671657e+01 0 0 0
239 0 1 0.0000000000000000e+00 2.2420995978105630e+01 1.2647545302823957e+00 1.2663781395147859e+01 0 0 0
241 0 1 0.0000000000000000e+00 4.1748336775080741e+00 7.0767016189339591e+00 1.3092097241300968e+01 0 0 0
322 0 1 0.0000000000000000e+00 2.1390036176160665e+00 5.7075100986720901e+00 1.5083168082921587e+01 0 0 0
339 0 1 0.0000000000000000e+00 2.1957647695958982e+00 9.0605282012021906e+00 1.5077856485836920e+01 1 0 0
127 0 1 0.0000000000000000e+00 6.9825681890885871e+00 8.1048780241069664e+00 1.2375273601865464e+01 0 0 0
243 0 1 0.0000000000000000e+00 5.2832852940062223e+00 5.2293785790448331e+00 1.5210657296920598e+01 0 0 0
222 0 1 0.0000000000000000e+00 8.2718672600152345e+00 6.2545295095602436e+00 1.4506003710534666e+01 0 0 0
328 0 1 0.0000000000000000e+00 5.8364096902851301e+00 8.4817542300986073e+00 1.5488581715736988e+01 0 0 0
251 0 1 0.0000000000000000e+00 1.1066011512595155e+01 7.4736934886635717e+00 1.3859555838419409e+01 0 0 0
306 0 1 0.0000000000000000e+00 1.2443825978181570e+01 5.4697373719957731e+00 1.6158610142632789e+01 0 0 0
326 0 1 0.0000000000000000e+00 1.3091536571352375e+01 5.3776277783429158e+00 1.2672244408981388e+01 0 0 0
355 0 1 0.0000000000000000e+00 1.4701443263403808e+01 6.9972352432274283e+00 1.4425589043127989e+01 0 0 0
330 0 1 0.0000000000000000e+00 1.3315702205865996e+01 8.9855838708139046e+00 1.2614812946684792e+01 0 0 0
216 0 1 0.0000000000000000e+00 1.6393145770530030e+01 5.0716285817468840e+00 1.2731822869543318e+01 0 0 0
279 0 1 0.0000000000000000e+00 1.7906699824130449e+01 6.4287752861546510e+00 1.4966798439878779e+01 0 0 0
212 0 1 0.0000000000000000e+00 1.6923548161955857e+01 8.3256834364172061e+00 1.2719875664691424e+01 0 0 0
353 0 1 0.0000000000000000e+00 1.9896775747829551e+01 7.7734605485196360e+00 1.3037183609653514e+01 0 0 0
259 0 1 0.0000000000000000e+00 2.3148403110323912e+01 7.3546793666474022e+00 1.3152313570618141e+01 0 0 0
458 0 1 0.0000000000000000e+00 2.1402769720124091e+01 5.7787010726503736e+00 1.5162261421560149e+01 0 0 0