LAMMPS (16 Aug 2018)

# example for performing a query to the OpenKIM test database to retrieve
# a parameter to be used in the input. here it requests the aluminium
# lattice constant for a specific test used for a specific model and then
# assigns it to the variable 'latconst'

units metal
info variables out log

Info-Info-Info-Info-Info-Info-Info-Info-Info-Info-Info
Printed on Mon Aug 20 18:44:24 2018


Variable information:

Info-Info-Info-Info-Info-Info-Info-Info-Info-Info-Info

kim_query latconst get_test_result test=TE_156715955670_004 species=["Al"] model=MO_800509458712_001 prop=structure-cubic-crystal-npt keys=["a"] units=["angstrom"]
info variables out log

Info-Info-Info-Info-Info-Info-Info-Info-Info-Info-Info
Printed on Mon Aug 20 18:44:24 2018


Variable information:
Variable[  0]: latconst  ,  style = string    ,  def = 4.0320827961

Info-Info-Info-Info-Info-Info-Info-Info-Info-Info-Info

lattice fcc ${latconst}
lattice fcc 4.0320827961
Lattice spacing in x,y,z = 4.03208 4.03208 4.03208
Total wall time: 0:00:00
