LAMMPS (24 Oct 2018)
OMP_NUM_THREADS environment is not set. Defaulting to 1 thread. (src/comm.cpp:87)
  using 1 OpenMP thread(s) per MPI task
Lattice spacing in x,y,z = 4.43 4.43 4.43
Created orthogonal box = (0 0 0) to (88.6 88.6 88.6)
  1 by 1 by 1 MPI processor grid
Created 32000 atoms
  Time spent = 0.00311494 secs
Neighbor list info ...
  update every 1 steps, delay 0 steps, check yes
  max neighbors/atom: 2000, page size: 100000
  master list distance cutoff = 8.45
  ghost atom cutoff = 8.45
  binsize = 4.225, bins = 21 21 21
  1 neighbor lists, perpetual/occasional/extra = 1 0 0
  (1) pair lj/cut, perpetual
      attributes: half, newton on
      pair build: half/bin/atomonly/newton
      stencil: half/bin/3d/newton
      bin: standard
Setting up Verlet run ...
  Unit style    : metal
  Current step  : 0
  Time step     : 0.001
Per MPI rank memory allocation (min/avg/max) = 19.23 | 19.23 | 19.23 Mbytes
Step Temp E_pair E_mol TotEng Press 
       0          200    6290.8194            0    7118.0584    129712.25 
     100    95.179725     6718.814            0     7112.496    133346.59 
Loop time of 2.22646 on 1 procs for 100 steps with 32000 atoms

Performance: 3.881 ns/day, 6.185 hours/ns, 44.914 timesteps/s
99.9% CPU use with 1 MPI tasks x 1 OpenMP threads

MPI task timing breakdown:
Section |  min time  |  avg time  |  max time  |%varavg| %total
---------------------------------------------------------------
Pair    | 2.0344     | 2.0344     | 2.0344     |   0.0 | 91.38
Neigh   | 0.14575    | 0.14575    | 0.14575    |   0.0 |  6.55
Comm    | 0.01127    | 0.01127    | 0.01127    |   0.0 |  0.51
Output  | 0.000103   | 0.000103   | 0.000103   |   0.0 |  0.00
Modify  | 0.024057   | 0.024057   | 0.024057   |   0.0 |  1.08
Other   |            | 0.01083    |            |       |  0.49

Nlocal:    32000 ave 32000 max 32000 min
Histogram: 1 0 0 0 0 0 0 0 0 0
Nghost:    19911 ave 19911 max 19911 min
Histogram: 1 0 0 0 0 0 0 0 0 0
Neighs:    2.12688e+06 ave 2.12688e+06 max 2.12688e+06 min
Histogram: 1 0 0 0 0 0 0 0 0 0

Total # of neighbors = 2126875
Ave neighs/atom = 66.4648
Neighbor list builds = 3
Dangerous builds = 0
Total wall time: 0:00:02
