LAMMPS (1 Feb 2019)
OMP_NUM_THREADS environment is not set. Defaulting to 1 thread. (src/comm.cpp:87)
  using 1 OpenMP thread(s) per MPI task
Lattice spacing in x,y,z = 4.43 4.43 4.43
Created orthogonal box = (0 0 0) to (88.6 88.6 88.6)
  1 by 1 by 1 MPI processor grid
Created 32000 atoms
  Time spent = 0.003446 secs
WARNING: KIM Model does not provide `partialParticleEnergy'; energy per atom will be zero (src/KIM/pair_kim.cpp:1097)
WARNING: KIM Model does not provide `partialParticleVirial'; virial per atom will be zero (src/KIM/pair_kim.cpp:1102)
Neighbor list info ...
  update every 1 steps, delay 0 steps, check yes
  max neighbors/atom: 2000, page size: 100000
  master list distance cutoff = 8.45
  ghost atom cutoff = 8.45
  binsize = 4.225, bins = 21 21 21
  1 neighbor lists, perpetual/occasional/extra = 1 0 0
  (1) pair kim, perpetual
      attributes: full, newton off, cut 8.45
      pair build: full/bin/atomonly
      stencil: full/bin/3d
      bin: standard
Setting up Verlet run ...
  Unit style    : metal
  Current step  : 0
  Time step     : 0.001
Per MPI rank memory allocation (min/avg/max) = 28.51 | 28.51 | 28.51 Mbytes
Step Temp E_pair E_mol TotEng Press 
       0          200    6290.8194            0    7118.0584    129712.25 
     100    95.179725     6718.814            0     7112.496    133346.59 
Loop time of 3.01669 on 1 procs for 100 steps with 32000 atoms

Performance: 2.864 ns/day, 8.380 hours/ns, 33.149 timesteps/s
99.8% CPU use with 1 MPI tasks x 1 OpenMP threads

MPI task timing breakdown:
Section |  min time  |  avg time  |  max time  |%varavg| %total
---------------------------------------------------------------
Pair    | 2.6562     | 2.6562     | 2.6562     |   0.0 | 88.05
Neigh   | 0.31903    | 0.31903    | 0.31903    |   0.0 | 10.58
Comm    | 0.00634    | 0.00634    | 0.00634    |   0.0 |  0.21
Output  | 9.1e-05    | 9.1e-05    | 9.1e-05    |   0.0 |  0.00
Modify  | 0.024723   | 0.024723   | 0.024723   |   0.0 |  0.82
Other   |            | 0.01032    |            |       |  0.34

Nlocal:    32000 ave 32000 max 32000 min
Histogram: 1 0 0 0 0 0 0 0 0 0
Nghost:    19911 ave 19911 max 19911 min
Histogram: 1 0 0 0 0 0 0 0 0 0
Neighs:    0 ave 0 max 0 min
Histogram: 1 0 0 0 0 0 0 0 0 0
FullNghs:  4.25375e+06 ave 4.25375e+06 max 4.25375e+06 min
Histogram: 1 0 0 0 0 0 0 0 0 0

Total # of neighbors = 4253750
Ave neighs/atom = 132.93
Neighbor list builds = 3
Dangerous builds = 0
Total wall time: 0:00:03
