--------------------------------------------------------------------------
[[30962,1],0]: A high-performance Open MPI point-to-point messaging module
was unable to find any relevant network interfaces:

Module: OpenFabrics (openib)
  Host: ubuntu-artful

Another transport will be used instead, although this may result in
lower performance.

NOTE: You can disable this warning by setting the MCA parameter
btl_base_warn_component_unused to 0.
--------------------------------------------------------------------------
LAMMPS (22 Jun 2018)
Lattice spacing in x,y,z = 4.43 4.43 4.43
Created orthogonal box = (0 0 0) to (88.6 88.6 88.6)
  1 by 2 by 2 MPI processor grid
Created 32000 atoms
  Time spent = 0.00143054 secs
Neighbor list info ...
  update every 1 steps, delay 0 steps, check yes
  max neighbors/atom: 2000, page size: 100000
  master list distance cutoff = 7.85482
  ghost atom cutoff = 7.85482
  binsize = 3.92741, bins = 23 23 23
  1 neighbor lists, perpetual/occasional/extra = 1 0 0
  (1) pair lj/cut, perpetual
      attributes: half, newton on
      pair build: half/bin/atomonly/newton
      stencil: half/bin/3d/newton
      bin: standard
Setting up Verlet run ...
  Unit style    : metal
  Current step  : 0
  Time step     : 0.001
Per MPI rank memory allocation (min/avg/max) = 6.875 | 6.875 | 6.875 Mbytes
Step Temp E_pair E_mol TotEng Press 
       0          200   -495.29247            0    331.94661   -978.84224 
     100    212.66365   -547.67175            0    331.94665   -1054.2086 
Loop time of 1.55473 on 4 procs for 100 steps with 32000 atoms

Performance: 5.557 ns/day, 4.319 hours/ns, 64.320 timesteps/s
23.8% CPU use with 4 MPI tasks x no OpenMP threads

MPI task timing breakdown:
Section |  min time  |  avg time  |  max time  |%varavg| %total
---------------------------------------------------------------
Pair    | 0.47168    | 0.51922    | 0.58923    |   6.2 | 33.40
Neigh   | 0.061309   | 0.077009   | 0.10276    |   5.7 |  4.95
Comm    | 0.87185    | 0.92596    | 0.95327    |   3.4 | 59.56
Output  | 0.00035269 | 0.00047555 | 0.00055331 |   0.0 |  0.03
Modify  | 0.0060711  | 0.00616    | 0.0062612  |   0.1 |  0.40
Other   |            | 0.0259     |            |       |  1.67

Nlocal:    8000 ave 8014 max 7988 min
Histogram: 1 0 0 1 1 0 0 0 0 1
Nghost:    9131 ave 9143 max 9117 min
Histogram: 1 0 0 0 0 1 1 0 0 1
Neighs:    341233 ave 341715 max 340679 min
Histogram: 1 0 0 0 1 0 0 1 0 1

Total # of neighbors = 1364931
Ave neighs/atom = 42.6541
Neighbor list builds = 3
Dangerous builds = 0
Total wall time: 0:00:01
