LAMMPS (1 Feb 2019)
OMP_NUM_THREADS environment is not set. Defaulting to 1 thread. (src/comm.cpp:87)
  using 1 OpenMP thread(s) per MPI task
Lattice spacing in x,y,z = 4.43 4.43 4.43
Created orthogonal box = (0 0 0) to (88.6 88.6 88.6)
  1 by 2 by 2 MPI processor grid
Created 32000 atoms
  Time spent = 0.000893 secs
WARNING: KIM Model does not provide `partialParticleEnergy'; energy per atom will be zero (src/KIM/pair_kim.cpp:1097)
WARNING: KIM Model does not provide `partialParticleVirial'; virial per atom will be zero (src/KIM/pair_kim.cpp:1102)
WARNING: KIM Model does not provide `partialParticleEnergy'; energy per atom will be zero (src/KIM/pair_kim.cpp:1097)
WARNING: KIM Model does not provide `partialParticleVirial'; virial per atom will be zero (src/KIM/pair_kim.cpp:1102)
WARNING: KIM Model does not provide `partialParticleEnergy'; energy per atom will be zero (src/KIM/pair_kim.cpp:1097)
WARNING: KIM Model does not provide `partialParticleVirial'; virial per atom will be zero (src/KIM/pair_kim.cpp:1102)
WARNING: KIM Model does not provide `partialParticleEnergy'; energy per atom will be zero (src/KIM/pair_kim.cpp:1097)
WARNING: KIM Model does not provide `partialParticleVirial'; virial per atom will be zero (src/KIM/pair_kim.cpp:1102)
Neighbor list info ...
  update every 1 steps, delay 0 steps, check yes
  max neighbors/atom: 2000, page size: 100000
  master list distance cutoff = 8.45
  ghost atom cutoff = 8.45
  binsize = 4.225, bins = 21 21 21
  1 neighbor lists, perpetual/occasional/extra = 1 0 0
  (1) pair kim, perpetual
      attributes: full, newton off, cut 8.45
      pair build: full/bin/atomonly
      stencil: full/bin/3d
      bin: standard
Setting up Verlet run ...
  Unit style    : metal
  Current step  : 0
  Time step     : 0.001
Per MPI rank memory allocation (min/avg/max) = 9.789 | 9.789 | 9.789 Mbytes
Step Temp E_pair E_mol TotEng Press 
       0          200    6290.8194            0    7118.0584    129712.25 
     100    95.179725     6718.814            0     7112.496    133346.59 
Loop time of 0.903182 on 4 procs for 100 steps with 32000 atoms

Performance: 9.566 ns/day, 2.509 hours/ns, 110.720 timesteps/s
99.6% CPU use with 4 MPI tasks x 1 OpenMP threads

MPI task timing breakdown:
Section |  min time  |  avg time  |  max time  |%varavg| %total
---------------------------------------------------------------
Pair    | 0.76173    | 0.76349    | 0.76597    |   0.2 | 84.53
Neigh   | 0.088773   | 0.088938   | 0.089074   |   0.0 |  9.85
Comm    | 0.032018   | 0.03452    | 0.03638    |   0.9 |  3.82
Output  | 4e-05      | 4.425e-05  | 5.2e-05    |   0.0 |  0.00
Modify  | 0.009278   | 0.0093917  | 0.009528   |   0.1 |  1.04
Other   |            | 0.006797   |            |       |  0.75

Nlocal:    8000 ave 8018 max 7967 min
Histogram: 1 0 0 0 0 0 1 0 0 2
Nghost:    9131 ave 9164 max 9113 min
Histogram: 2 0 0 1 0 0 0 0 0 1
Neighs:    0 ave 0 max 0 min
Histogram: 4 0 0 0 0 0 0 0 0 0
FullNghs:  1.06344e+06 ave 1.06594e+06 max 1.05881e+06 min
Histogram: 1 0 0 0 0 0 1 0 0 2

Total # of neighbors = 4253750
Ave neighs/atom = 132.93
Neighbor list builds = 3
Dangerous builds = 0
Total wall time: 0:00:00
