LAMMPS (14 Jun 2014)
Lattice spacing in x,y,z = 4.43 4.43 4.43
Created orthogonal box = (0 0 0) to (88.6 88.6 88.6)
  1 by 2 by 2 MPI processor grid
Created 32000 atoms
Setting up run ...
Memory usage per processor = 4.58461 Mbytes
Step Temp E_pair E_mol TotEng Press 
       0          200   -741.55469            0    85.684388   -34.939092 
     100    108.37517   -362.56658            0    85.694308    3963.7892 
Loop time of 3.50562 on 4 procs for 100 steps with 32000 atoms

Pair  time (%) = 1.8707 (53.3628)
Neigh time (%) = 0.297524 (8.48707)
Comm  time (%) = 1.28415 (36.6314)
Outpt time (%) = 0.000634253 (0.0180925)
Other time (%) = 0.052608 (1.50068)

Nlocal:    8000 ave 8010 max 7989 min
Histogram: 1 0 0 0 0 2 0 0 0 1
Nghost:    9240.25 ave 9249 max 9228 min
Histogram: 1 0 0 0 1 0 0 0 0 2
Neighs:    472273 ave 473390 max 471652 min
Histogram: 2 0 0 1 0 0 0 0 0 1

Total # of neighbors = 1889091
Ave neighs/atom = 59.0341
Neighbor list builds = 5
Dangerous builds = 0
