ITEM: TIMESTEP
0
ITEM: NUMBER OF ATOMS
104
ITEM: BOX BOUNDS
0 25
0 25
0 25
ITEM: ATOMS id type xs ys zs
89 3 0.374302 0.0856492 0.014906
90 1 0.394235 0.108219 0.0421444
92 1 0.390019 0.048876 0.020894
93 2 0.306884 0.0896276 0.0103672
96 1 0.298308 0.0806604 0.0573228
1 3 0.863426 0.434648 0.188354
2 1 0.847904 0.397778 0.189622
3 1 0.84575 0.452953 0.219585
4 1 0.901188 0.428929 0.201484
5 2 0.853201 0.460881 0.12712
6 1 0.806406 0.4724 0.127257
7 1 0.884384 0.497596 0.129568
8 1 0.866887 0.422449 0.101055
24 1 0.0010332 0.243667 0.554942
73 3 0.14411 0.243162 0.5791
76 1 0.163273 0.231012 0.611579
77 2 0.117037 0.186712 0.554179
78 1 0.157244 0.165513 0.537566
79 1 0.0955556 0.161554 0.589376
80 1 0.0864012 0.201799 0.519724
17 3 0.0357848 0.316558 0.599811
18 1 0.0289916 0.337212 0.633561
19 1 0.0499224 0.344597 0.575053
20 1 0.0683464 0.296779 0.608952
74 1 0.122765 0.273114 0.592783
75 1 0.172704 0.262004 0.558568
21 2 0.982197 0.279081 0.581906
22 1 0.961289 0.264245 0.623081
23 1 0.956999 0.31209 0.556952
81 3 0.794117 0.425426 0.57139
82 1 0.81656 0.418288 0.538514
83 1 0.788435 0.465213 0.569756
84 1 0.75779 0.410962 0.560748
85 2 0.819058 0.40892 0.632
86 1 0.822665 0.360679 0.631542
87 1 0.861271 0.432528 0.628122
88 1 0.79074 0.426015 0.667579
91 1 0.390987 0.0968292 0.980219
94 1 0.304565 0.135883 0.99637
95 1 0.280913 0.060788 0.981302
65 3 0.28639 0.316709 0.874889
66 1 0.277638 0.354194 0.885962
67 1 0.285831 0.296898 0.910046
68 1 0.252062 0.304373 0.857276
69 2 0.346302 0.318748 0.844074
70 1 0.369255 0.345809 0.877187
71 1 0.365864 0.275138 0.836381
72 1 0.335416 0.341599 0.802894
14 1 0.209778 0.71138 0.175181
53 2 0.472134 0.586042 0.202916
54 1 0.432744 0.608399 0.18577
56 1 0.4895 0.552662 0.172402
55 1 0.505055 0.614731 0.224046
97 3 0.582918 0.643749 0.0552392
98 1 0.598671 0.668582 0.0830012
99 1 0.56627 0.669289 0.0287944
100 1 0.615539 0.630539 0.0355328
101 2 0.543511 0.593927 0.0783276
102 1 0.568422 0.567553 0.110428
103 1 0.505907 0.616999 0.0984012
104 1 0.534896 0.57245 0.0360132
41 3 0.782162 0.658187 0.152641
42 1 0.760478 0.65076 0.18598
43 1 0.753671 0.66542 0.124913
44 1 0.797028 0.694892 0.159735
45 2 0.831223 0.615268 0.135006
46 1 0.852556 0.637964 0.0981008
47 1 0.857462 0.611947 0.17544
48 1 0.807737 0.574998 0.122372
9 3 0.169657 0.784407 0.152524
10 1 0.142494 0.791801 0.181635
11 1 0.148654 0.760672 0.127063
12 1 0.170587 0.819791 0.132451
13 2 0.227044 0.756657 0.176342
15 1 0.254893 0.769364 0.138513
16 1 0.25006 0.765032 0.218882
49 3 0.45026 0.557545 0.260205
50 1 0.419121 0.533648 0.251736
51 1 0.435553 0.581003 0.289949
52 1 0.475242 0.532706 0.280321
25 3 0.186586 0.673071 0.679677
26 1 0.185014 0.651463 0.645539
27 1 0.149782 0.668266 0.694829
28 1 0.209226 0.649836 0.70382
29 2 0.200978 0.738957 0.67884
30 1 0.185189 0.749194 0.72345
31 1 0.248292 0.747573 0.672625
37 2 0.317324 0.653158 0.689374
38 1 0.337227 0.612188 0.672192
39 1 0.278137 0.6668 0.663936
40 1 0.349495 0.689224 0.69273
62 1 0.492276 0.729744 0.60003
58 1 0.554714 0.731954 0.677406
60 1 0.594347 0.736857 0.628684
32 1 0.17288 0.753422 0.642236
63 1 0.483699 0.804414 0.629198
57 3 0.564911 0.757186 0.647421
59 1 0.58528 0.786237 0.667095
61 2 0.513002 0.772931 0.606946
64 1 0.536253 0.78963 0.568013
33 3 0.299561 0.63539 0.751648
34 1 0.332448 0.619869 0.768627
35 1 0.274818 0.603909 0.750631
36 1 0.28416 0.657718 0.781964
ITEM: TIMESTEP
30
ITEM: NUMBER OF ATOMS
104
ITEM: BOX BOUNDS
0 25
0 25
0 25
ITEM: ATOMS id type xs ys zs
89 3 0.373939 0.0855603 0.0147707
90 1 0.392581 0.108509 0.0415917
92 1 0.388668 0.0491418 0.0210011
93 2 0.307505 0.0896658 0.0105448
96 1 0.297761 0.0815576 0.0572869
1 3 0.863383 0.434705 0.188275
2 1 0.84713 0.398518 0.18935
3 1 0.846259 0.453644 0.218889
4 1 0.900837 0.428644 0.200431
5 2 0.853401 0.460643 0.127647
6 1 0.806371 0.471489 0.126528
7 1 0.883744 0.498237 0.128995
8 1 0.866566 0.423613 0.0997662
24 1 0.0017285 0.244243 0.55469
73 3 0.143854 0.243022 0.579295
76 1 0.164049 0.233569 0.61246
77 2 0.116983 0.186827 0.554082
78 1 0.157323 0.165788 0.537735
79 1 0.0954005 0.163297 0.590282
80 1 0.0873262 0.202858 0.519824
17 3 0.0359644 0.316239 0.59978
18 1 0.0307759 0.337369 0.633527
19 1 0.0492187 0.343841 0.57434
20 1 0.0666988 0.295464 0.607093
74 1 0.119512 0.269808 0.591094
75 1 0.170955 0.264023 0.558724
21 2 0.982562 0.279264 0.58192
22 1 0.962533 0.264185 0.623088
23 1 0.956711 0.312302 0.557893
81 3 0.794165 0.425336 0.571805
82 1 0.816985 0.417596 0.539721
83 1 0.789132 0.464735 0.570643
84 1 0.758352 0.41065 0.562038
85 2 0.81893 0.409173 0.631394
86 1 0.822486 0.360956 0.63037
87 1 0.86148 0.432182 0.628387
88 1 0.789767 0.426044 0.665869
91 1 0.390032 0.0964765 0.97996
94 1 0.304358 0.136394 0.997753
95 1 0.283978 0.0600167 0.980637
65 3 0.286707 0.316675 0.874751
66 1 0.278009 0.353973 0.88499
67 1 0.286908 0.297243 0.90936
68 1 0.253465 0.303818 0.856505
69 2 0.345733 0.31882 0.844337
70 1 0.370198 0.345248 0.876667
71 1 0.364324 0.274818 0.837707
72 1 0.334852 0.342576 0.8036
14 1 0.210214 0.71058 0.17524
53 2 0.471834 0.585771 0.203687
54 1 0.432813 0.608735 0.186906
56 1 0.489606 0.551989 0.174211
55 1 0.505675 0.61493 0.222416
97 3 0.58279 0.643536 0.0554085
98 1 0.597825 0.667827 0.083387
99 1 0.565673 0.668436 0.0291349
100 1 0.614913 0.629819 0.0360916
101 2 0.543804 0.594373 0.0781924
102 1 0.569634 0.568057 0.109203
103 1 0.506162 0.617753 0.0971648
104 1 0.534224 0.571842 0.0362643
41 3 0.782379 0.658011 0.152546
42 1 0.761207 0.649717 0.185446
43 1 0.754719 0.664788 0.124637
44 1 0.797745 0.693943 0.15978
45 2 0.830758 0.615624 0.135113
46 1 0.852506 0.638346 0.0984251
47 1 0.857413 0.612351 0.175237
48 1 0.80726 0.575168 0.12319
9 3 0.170159 0.784251 0.152877
10 1 0.143879 0.790375 0.182073
11 1 0.151016 0.760631 0.127163
12 1 0.17252 0.819444 0.134133
13 2 0.226154 0.756915 0.175825
15 1 0.254373 0.768195 0.137756
16 1 0.247076 0.768214 0.217998
49 3 0.450329 0.557626 0.259818
50 1 0.419678 0.53392 0.250683
51 1 0.435931 0.581644 0.288236
52 1 0.475779 0.533595 0.278941
25 3 0.18662 0.673396 0.679701
26 1 0.186184 0.652333 0.645796
27 1 0.149927 0.668675 0.694262
28 1 0.209534 0.651957 0.704186
29 2 0.20074 0.738355 0.678987
30 1 0.185118 0.750273 0.723304
31 1 0.247668 0.746438 0.671779
37 2 0.317357 0.653008 0.68993
38 1 0.336906 0.611727 0.673818
39 1 0.278176 0.665426 0.664052
40 1 0.349713 0.688669 0.695412
62 1 0.493289 0.729305 0.600066
58 1 0.55344 0.733168 0.676676
60 1 0.592919 0.736848 0.628011
32 1 0.172244 0.753552 0.643008
63 1 0.485219 0.804462 0.629863
57 3 0.564536 0.757256 0.647203
59 1 0.5844 0.786834 0.665418
61 2 0.513569 0.772589 0.607372
64 1 0.536424 0.790936 0.568841
33 3 0.299672 0.635389 0.75107
34 1 0.332233 0.620747 0.767732
35 1 0.274943 0.604153 0.750332
36 1 0.284213 0.6591 0.779061
ITEM: TIMESTEP
60
ITEM: NUMBER OF ATOMS
104
ITEM: BOX BOUNDS
0 25
0 25
0 25
ITEM: ATOMS id type xs ys zs
89 3 0.373859 0.0852753 0.0144249
90 1 0.392267 0.109048 0.0405829
92 1 0.388809 0.0489545 0.0219821
93 2 0.307201 0.0901647 0.0110339
96 1 0.295896 0.0821648 0.0573072
1 3 0.863368 0.434675 0.188589
2 1 0.845166 0.399629 0.189911
3 1 0.84794 0.454676 0.219358
4 1 0.900708 0.426537 0.200139
5 2 0.853589 0.460582 0.12765
6 1 0.806204 0.469623 0.125444
7 1 0.881847 0.499684 0.127751
8 1 0.867037 0.42593 0.0968052
24 1 0.00320061 0.246188 0.553737
73 3 0.144089 0.242559 0.57966
76 1 0.164036 0.240937 0.61434
77 2 0.116699 0.186719 0.553683
78 1 0.157418 0.165758 0.538467
79 1 0.0948458 0.167668 0.592209
80 1 0.0885922 0.205586 0.519478
17 3 0.0358321 0.316316 0.599847
18 1 0.0356691 0.337919 0.632821
19 1 0.0513994 0.340664 0.572974
20 1 0.0634651 0.291397 0.605951
74 1 0.113819 0.263371 0.588632
75 1 0.166139 0.268421 0.558726
21 2 0.982857 0.279194 0.581738
22 1 0.965863 0.263559 0.623567
23 1 0.956164 0.312541 0.560141
81 3 0.793984 0.425203 0.57193
82 1 0.816642 0.416897 0.540339
83 1 0.789846 0.464631 0.571136
84 1 0.757837 0.411071 0.562299
85 2 0.819505 0.409308 0.631628
86 1 0.821659 0.36147 0.627447
87 1 0.86183 0.431782 0.629525
88 1 0.786867 0.426585 0.66213
91 1 0.38947 0.0954516 0.979576
94 1 0.303356 0.137159 0.999756
95 1 0.291892 0.057967 0.978589
65 3 0.286681 0.316451 0.874655
66 1 0.277524 0.353736 0.883429
67 1 0.287276 0.297913 0.90994
68 1 0.253967 0.302471 0.85673
69 2 0.346073 0.319288 0.844296
70 1 0.372398 0.344239 0.875977
71 1 0.359669 0.273318 0.839676
72 1 0.333588 0.344011 0.804807
14 1 0.211913 0.709738 0.176996
53 2 0.472028 0.586251 0.203617
54 1 0.432322 0.608906 0.188888
56 1 0.488565 0.549258 0.177748
55 1 0.506953 0.61552 0.219142
97 3 0.582838 0.643553 0.055579
98 1 0.597556 0.667818 0.0835553
99 1 0.565627 0.668083 0.0291193
100 1 0.615097 0.62954 0.0368842
101 2 0.543546 0.594175 0.0780689
102 1 0.572493 0.569882 0.107792
103 1 0.50695 0.619754 0.0960176
104 1 0.532993 0.570851 0.0369994
41 3 0.782326 0.657958 0.152534
42 1 0.76081 0.649231 0.1849
43 1 0.75513 0.66537 0.12432
44 1 0.798194 0.693412 0.160572
45 2 0.830961 0.615456 0.134987
46 1 0.851867 0.638947 0.0984803
47 1 0.857319 0.613364 0.175305
48 1 0.805929 0.575634 0.124631
9 3 0.170246 0.784639 0.153264
10 1 0.143331 0.787789 0.182138
11 1 0.153164 0.762033 0.125712
12 1 0.1726 0.820815 0.136931
13 2 0.226509 0.755965 0.175295
15 1 0.253658 0.765398 0.136607
16 1 0.239515 0.776488 0.216293
49 3 0.450204 0.55739 0.259769
50 1 0.420277 0.533618 0.249969
51 1 0.435204 0.581489 0.287801
52 1 0.475957 0.533914 0.279235
25 3 0.186549 0.673388 0.679684
26 1 0.188696 0.650899 0.646631
27 1 0.149944 0.667598 0.693404
28 1 0.209734 0.654626 0.705761
29 2 0.200287 0.738807 0.679394
30 1 0.185915 0.752399 0.72334
31 1 0.247102 0.743364 0.669796
37 2 0.318227 0.652931 0.689141
38 1 0.337458 0.610114 0.677417
39 1 0.278716 0.663861 0.664127
40 1 0.349391 0.687666 0.701521
62 1 0.495401 0.728311 0.599848
58 1 0.552531 0.734821 0.677779
60 1 0.591419 0.735448 0.628327
32 1 0.170643 0.753639 0.644335
63 1 0.48778 0.803814 0.632971
57 3 0.564466 0.757364 0.647234
59 1 0.585276 0.786915 0.66383
61 2 0.513297 0.772372 0.606923
64 1 0.537132 0.793167 0.570448
33 3 0.299286 0.635219 0.750636
34 1 0.332363 0.622543 0.767956
35 1 0.274991 0.604032 0.751877
36 1 0.283828 0.660835 0.776936
ITEM: TIMESTEP
90
ITEM: NUMBER OF ATOMS
104
ITEM: BOX BOUNDS
0 25
0 25
0 25
ITEM: ATOMS id type xs ys zs
89 3 0.373884 0.084831 0.0141072
90 1 0.393793 0.109887 0.0391207
92 1 0.390985 0.0488552 0.0228002
93 2 0.306221 0.0911398 0.0118383
96 1 0.292806 0.0798975 0.0568892
1 3 0.863415 0.434701 0.18895
2 1 0.842276 0.400617 0.191798
3 1 0.850392 0.455435 0.221219
4 1 0.900307 0.422791 0.200832
5 2 0.853645 0.460621 0.127048
6 1 0.805927 0.467663 0.125554
8 1 0.86918 0.428637 0.094174
24 1 0.00488536 0.248214 0.550948
73 3 0.144246 0.241772 0.580027
76 1 0.161525 0.248553 0.614876
77 2 0.11695 0.187385 0.553476
78 1 0.156962 0.163949 0.539635
79 1 0.0938212 0.172769 0.593617
80 1 0.0895322 0.208441 0.518926
17 3 0.0355849 0.316555 0.599804
18 1 0.0424816 0.339215 0.632461
19 1 0.0560878 0.336085 0.571909
20 1 0.0601386 0.287267 0.606886
74 1 0.108857 0.256306 0.587456
75 1 0.158869 0.271198 0.556944
21 2 0.982958 0.278994 0.581531
22 1 0.970324 0.261318 0.625268
23 1 0.954523 0.313279 0.56213
81 3 0.79365 0.424992 0.571983
82 1 0.81582 0.416745 0.538767
83 1 0.79022 0.465163 0.570053
84 1 0.756272 0.412686 0.560805
85 2 0.820476 0.409202 0.632345
86 1 0.820463 0.361361 0.624593
87 1 0.862877 0.432621 0.63211
88 1 0.783427 0.427706 0.658276
91 1 0.390625 0.0936576 0.978243
94 1 0.301362 0.137213 0.999404
95 1 0.302171 0.0570137 0.977131
65 3 0.2866 0.316034 0.874555
66 1 0.275486 0.353972 0.882272
67 1 0.286195 0.29934 0.911513
68 1 0.252805 0.30055 0.858089
69 2 0.347025 0.320024 0.844229
70 1 0.375385 0.343333 0.875661
71 1 0.352677 0.271964 0.840018
72 1 0.332732 0.344278 0.805053
14 1 0.214194 0.708865 0.18244
53 2 0.472779 0.587267 0.203006
54 1 0.43105 0.608 0.189556
56 1 0.484877 0.54565 0.180905
55 1 0.508708 0.616777 0.215927
97 3 0.582951 0.643633 0.0558038
98 1 0.598265 0.669528 0.0833978
99 1 0.567012 0.668977 0.0281843
100 1 0.616422 0.630396 0.0369047
101 2 0.542836 0.593412 0.0777058
102 1 0.574965 0.573248 0.108018
103 1 0.508608 0.621685 0.097389
104 1 0.531629 0.569514 0.0378119
41 3 0.782163 0.657871 0.152522
42 1 0.758752 0.649896 0.184945
43 1 0.754453 0.667801 0.124316
44 1 0.797633 0.69405 0.162118
45 2 0.8317 0.61496 0.134853
46 1 0.850555 0.638726 0.0973499
47 1 0.857348 0.614378 0.175676
48 1 0.804555 0.576176 0.125373
9 3 0.170308 0.785244 0.153775
10 1 0.139448 0.785358 0.180847
11 1 0.153297 0.765355 0.12233
12 1 0.169102 0.824281 0.140367
13 2 0.227695 0.754172 0.174626
15 1 0.255102 0.762691 0.13586
16 1 0.229641 0.786556 0.212914
49 3 0.450135 0.557147 0.25985
50 1 0.41981 0.531569 0.25055
51 1 0.433038 0.579992 0.289247
52 1 0.475052 0.53295 0.281653
7 1 0.879264 0.501558 0.126995
25 3 0.186525 0.673424 0.679662
26 1 0.191505 0.647283 0.648519
27 1 0.149331 0.663843 0.692618
28 1 0.209743 0.656949 0.708147
29 2 0.199481 0.739941 0.679844
30 1 0.188665 0.75466 0.724523
31 1 0.246668 0.739476 0.667755
37 2 0.319829 0.652394 0.687936
38 1 0.339999 0.608943 0.679709
39 1 0.280432 0.664577 0.662913
40 1 0.347995 0.687595 0.706186
62 1 0.496756 0.727433 0.598692
58 1 0.553592 0.736654 0.680743
60 1 0.591586 0.73215 0.630302
32 1 0.168827 0.75365 0.645222
63 1 0.489195 0.800671 0.637802
57 3 0.564419 0.757545 0.647377
59 1 0.588959 0.786293 0.663493
61 2 0.512572 0.772613 0.605894
64 1 0.537793 0.794304 0.571144
33 3 0.298458 0.635144 0.750203
34 1 0.331903 0.624212 0.769692
35 1 0.274585 0.602539 0.756236
36 1 0.282481 0.662099 0.776011
ITEM: TIMESTEP
120
ITEM: NUMBER OF ATOMS
104
ITEM: BOX BOUNDS
0 25
0 25
0 25
ITEM: ATOMS id type xs ys zs
89 3 0.373719 0.0845358 0.0138049
90 1 0.392133 0.11087 0.0374151
92 1 0.389612 0.0494117 0.023859
93 2 0.306931 0.09185 0.0128038
96 1 0.288859 0.076479 0.05494
1 3 0.863295 0.434877 0.188705
2 1 0.839134 0.403586 0.191983
3 1 0.853398 0.457585 0.220019
4 1 0.899017 0.420118 0.198558
5 2 0.853956 0.460217 0.127503
6 1 0.805407 0.464831 0.127046
8 1 0.871885 0.431037 0.0932805
24 1 0.00468576 0.251688 0.548037
73 3 0.142285 0.241925 0.580531
76 1 0.161405 0.25109 0.61377
77 2 0.117992 0.188774 0.553586
78 1 0.15484 0.160846 0.541043
79 1 0.0921834 0.175232 0.593007
80 1 0.0919828 0.208732 0.518926
17 3 0.0362454 0.315221 0.599461
18 1 0.0437684 0.338043 0.629999
19 1 0.0562795 0.332212 0.569187
20 1 0.0611076 0.286248 0.606517
74 1 0.107515 0.254943 0.589566
75 1 0.152454 0.268481 0.554522
21 2 0.983937 0.279861 0.581852
22 1 0.975528 0.25867 0.624402
23 1 0.952529 0.312568 0.565349
81 3 0.79357 0.424843 0.572425
82 1 0.815589 0.415295 0.540091
83 1 0.791597 0.464729 0.570828
84 1 0.756402 0.413279 0.56233
85 2 0.820525 0.409449 0.631413
86 1 0.820786 0.361207 0.62367
87 1 0.862817 0.432736 0.636234
88 1 0.782712 0.428167 0.65552
91 1 0.388935 0.0916136 0.977467
94 1 0.298101 0.137451 0.9977
95 1 0.30863 0.0572783 0.97606
65 3 0.286953 0.315852 0.874437
66 1 0.274873 0.353221 0.87976
67 1 0.287614 0.301109 0.911377
68 1 0.255196 0.298076 0.857426
69 2 0.346389 0.320529 0.844924
70 1 0.378678 0.341527 0.874324
71 1 0.347167 0.271649 0.839231
72 1 0.333576 0.344776 0.804585
14 1 0.217516 0.708452 0.190706
53 2 0.472807 0.587207 0.204323
54 1 0.430927 0.60711 0.18951
56 1 0.481348 0.54383 0.182892
55 1 0.510253 0.617556 0.211705
97 3 0.582947 0.643488 0.0560557
98 1 0.596913 0.668825 0.0840423
99 1 0.566811 0.667532 0.0284405
100 1 0.615895 0.629415 0.0382531
101 2 0.543024 0.593924 0.0770676
102 1 0.57583 0.575945 0.108013
103 1 0.510089 0.621713 0.0990329
104 1 0.529495 0.566856 0.0383038
41 3 0.782333 0.657611 0.152389
42 1 0.759107 0.647947 0.183611
43 1 0.756407 0.667917 0.123818
44 1 0.798858 0.692135 0.163053
45 2 0.831206 0.615484 0.135194
46 1 0.84952 0.637569 0.0958491
47 1 0.858043 0.614992 0.175732
48 1 0.80387 0.576311 0.125849
9 3 0.170481 0.785319 0.154166
10 1 0.140086 0.780116 0.179606
11 1 0.157968 0.768862 0.120264
12 1 0.170626 0.824755 0.14675
13 2 0.22663 0.754063 0.173349
15 1 0.257673 0.758973 0.136082
16 1 0.226207 0.792081 0.209632
49 3 0.450181 0.557174 0.259344
50 1 0.421337 0.531452 0.248751
51 1 0.432631 0.580437 0.286834
52 1 0.475756 0.534571 0.280295
7 1 0.876412 0.503485 0.127829
25 3 0.186585 0.674191 0.679981
26 1 0.195975 0.648784 0.65057
27 1 0.15036 0.662132 0.691754
28 1 0.21022 0.662677 0.709617
29 2 0.198168 0.739218 0.680185
30 1 0.192784 0.756941 0.725405
31 1 0.244513 0.736047 0.666136
37 2 0.321112 0.650949 0.68926
38 1 0.343868 0.609363 0.678702
39 1 0.284783 0.665165 0.660139
40 1 0.347522 0.688965 0.706501
62 1 0.497413 0.727672 0.596171
58 1 0.551792 0.740537 0.681033
60 1 0.588036 0.730325 0.630761
32 1 0.166608 0.754214 0.646246
63 1 0.489039 0.796455 0.64133
57 3 0.564075 0.757655 0.647242
59 1 0.589091 0.786665 0.659359
61 2 0.513466 0.772501 0.606329
64 1 0.537596 0.795709 0.570621
33 3 0.297663 0.635059 0.749031
34 1 0.330753 0.627522 0.769142
35 1 0.274546 0.603361 0.75735
36 1 0.280808 0.664605 0.769976
ITEM: TIMESTEP
150
ITEM: NUMBER OF ATOMS
104
ITEM: BOX BOUNDS
0 25
0 25
0 25
ITEM: ATOMS id type xs ys zs
89 3 0.374094 0.0845698 0.0138368
90 1 0.39257 0.111867 0.0362595
92 1 0.390279 0.0498116 0.0258521
93 2 0.307694 0.0918378 0.0127893
96 1 0.284745 0.0754698 0.0519811
1 3 0.863206 0.435083 0.188362
2 1 0.836278 0.406793 0.192509
3 1 0.856724 0.459245 0.219223
4 1 0.897594 0.417093 0.197192
5 2 0.854124 0.460314 0.127529
6 1 0.805724 0.460365 0.12889
8 1 0.87412 0.431737 0.0940856
24 1 0.00218 0.255204 0.544579
73 3 0.139933 0.243902 0.581966
76 1 0.166041 0.254738 0.61192
77 2 0.117968 0.187989 0.553315
78 1 0.153004 0.156607 0.541452
79 1 0.0898098 0.17235 0.589193
80 1 0.0935727 0.206932 0.514831
17 3 0.0385634 0.313601 0.598844
18 1 0.0443305 0.340581 0.629129
19 1 0.0547658 0.331468 0.568185
20 1 0.0616763 0.287698 0.6082
74 1 0.109412 0.25805 0.593019
75 1 0.151027 0.27011 0.552626
21 2 0.984072 0.280059 0.581807
22 1 0.978328 0.254804 0.622888
23 1 0.949242 0.31144 0.570457
81 3 0.793395 0.424861 0.572131
82 1 0.815073 0.414051 0.540928
83 1 0.793042 0.464283 0.571395
84 1 0.756067 0.414183 0.562963
85 2 0.820441 0.409637 0.630831
86 1 0.82327 0.362214 0.625982
87 1 0.862027 0.430988 0.640352
88 1 0.784063 0.427027 0.657686
91 1 0.388791 0.0901636 0.977603
94 1 0.294224 0.135553 0.998886
95 1 0.302054 0.0600267 0.976577
65 3 0.286675 0.315888 0.874688
66 1 0.273521 0.352606 0.877698
67 1 0.287644 0.30272 0.912194
68 1 0.256677 0.295738 0.85784
69 2 0.345996 0.320638 0.844969
70 1 0.381483 0.338377 0.871887
71 1 0.3492 0.272743 0.837394
72 1 0.336549 0.346234 0.805621
14 1 0.222017 0.711706 0.195927
53 2 0.472761 0.586996 0.204777
54 1 0.432502 0.608487 0.189408
56 1 0.48251 0.545703 0.181205
55 1 0.510406 0.616238 0.206786
97 3 0.583076 0.643577 0.0560866
98 1 0.596282 0.668678 0.0841049
99 1 0.567015 0.667035 0.0281858
100 1 0.616146 0.629011 0.0395361
101 2 0.543192 0.59435 0.0767849
102 1 0.575231 0.574308 0.107097
103 1 0.508743 0.619929 0.0989083
104 1 0.528002 0.565931 0.0424505
41 3 0.782283 0.65748 0.15232
42 1 0.758713 0.646995 0.182501
43 1 0.757312 0.669031 0.123619
44 1 0.799734 0.690757 0.1643
45 2 0.830908 0.61568 0.135286
46 1 0.849443 0.635808 0.0961651
47 1 0.858859 0.615042 0.174017
48 1 0.805017 0.576105 0.127216
9 3 0.169909 0.785271 0.153778
10 1 0.138507 0.775341 0.176151
11 1 0.160336 0.773695 0.117084
12 1 0.16922 0.825176 0.15217
13 2 0.225791 0.754764 0.173479
15 1 0.258889 0.753705 0.138292
16 1 0.238427 0.786805 0.207436
49 3 0.450015 0.557104 0.259489
50 1 0.422744 0.531491 0.247736
51 1 0.43176 0.580393 0.286127
52 1 0.476137 0.535678 0.280615
7 1 0.873701 0.504256 0.130776
25 3 0.186383 0.674527 0.680482
26 1 0.200681 0.649737 0.652745
27 1 0.152473 0.657888 0.692428
28 1 0.2107 0.668288 0.710562
29 2 0.19708 0.73922 0.680573
30 1 0.195631 0.758565 0.724205
31 1 0.242782 0.735702 0.663435
37 2 0.323149 0.649981 0.690361
38 1 0.349019 0.611709 0.676034
39 1 0.290856 0.662519 0.656157
40 1 0.349754 0.688535 0.702384
62 1 0.497777 0.7296 0.592776
58 1 0.551192 0.744032 0.682347
60 1 0.585404 0.728271 0.632164
32 1 0.164631 0.755259 0.64922
63 1 0.486982 0.794779 0.639529
57 3 0.564218 0.757633 0.647283
59 1 0.590319 0.786094 0.65606
61 2 0.513919 0.772226 0.606626
64 1 0.534295 0.798102 0.572494
33 3 0.296018 0.634702 0.74815
34 1 0.329144 0.631347 0.769323
35 1 0.274037 0.604443 0.760442
36 1 0.278632 0.666676 0.763922
ITEM: TIMESTEP
180
ITEM: NUMBER OF ATOMS
104
ITEM: BOX BOUNDS
0 25
0 25
0 25
ITEM: ATOMS id type xs ys zs
89 3 0.375032 0.0846964 0.0143326
90 1 0.39478 0.113143 0.0350169
92 1 0.392648 0.0503685 0.0269844
93 2 0.307138 0.0911755 0.0120146
96 1 0.28325 0.0769667 0.0515985
1 3 0.863481 0.435174 0.188439
2 1 0.83365 0.408812 0.194328
3 1 0.859432 0.459547 0.220331
4 1 0.896043 0.413325 0.198242
5 2 0.853817 0.46102 0.126521
6 1 0.805707 0.456247 0.128591
8 1 0.875835 0.431324 0.0959806
94 1 0.292283 0.136397 0.00194464
24 1 0.998059 0.258268 0.540955
73 3 0.140484 0.244492 0.581592
76 1 0.167301 0.251283 0.609531
77 2 0.118146 0.187955 0.553728
78 1 0.151457 0.154619 0.54178
79 1 0.0862188 0.167926 0.585088
80 1 0.096887 0.203341 0.51327
17 3 0.0385716 0.314752 0.598572
18 1 0.0420665 0.343378 0.624487
19 1 0.0657569 0.323337 0.570156
20 1 0.0570607 0.285649 0.616551
74 1 0.107677 0.259735 0.598436
75 1 0.147171 0.271839 0.554104
21 2 0.983881 0.279706 0.581795
22 1 0.979307 0.250641 0.619902
23 1 0.946583 0.309829 0.577038
81 3 0.793026 0.424869 0.571342
82 1 0.814287 0.414405 0.538048
83 1 0.793933 0.464865 0.569531
84 1 0.754663 0.416337 0.560408
85 2 0.820587 0.40975 0.631589
86 1 0.825483 0.361414 0.629547
87 1 0.863155 0.430039 0.642766
88 1 0.785974 0.423862 0.662215
91 1 0.390894 0.0893243 0.977042
72 1 0.338983 0.348761 0.805851
95 1 0.291487 0.0622061 0.975994
65 3 0.285937 0.315916 0.875285
66 1 0.269994 0.353148 0.876939
67 1 0.285355 0.30441 0.914002
68 1 0.255417 0.294437 0.859522
69 2 0.3466 0.320331 0.844288
70 1 0.383572 0.336427 0.871088
71 1 0.355407 0.273801 0.834136
14 1 0.221622 0.712326 0.196376
53 2 0.473044 0.587001 0.203374
54 1 0.433503 0.610817 0.189518
56 1 0.48561 0.548602 0.176989
55 1 0.511835 0.616167 0.204589
97 3 0.583472 0.644108 0.055882
98 1 0.597166 0.670591 0.0834338
99 1 0.568945 0.668655 0.0266039
100 1 0.61776 0.630063 0.0393809
101 2 0.542835 0.594025 0.0775577
102 1 0.573372 0.570607 0.106525
103 1 0.506468 0.617961 0.0980923
104 1 0.525891 0.563536 0.042969
41 3 0.781673 0.657662 0.152353
42 1 0.756458 0.648429 0.18293
43 1 0.75609 0.67236 0.124239
44 1 0.799456 0.691081 0.166066
45 2 0.831512 0.614916 0.134951
46 1 0.850999 0.635215 0.0955454
47 1 0.86085 0.614631 0.173432
48 1 0.806355 0.5742 0.128653
9 3 0.168878 0.785338 0.15304
10 1 0.134566 0.77216 0.171198
11 1 0.159887 0.779187 0.113395
12 1 0.164478 0.826173 0.156316
13 2 0.226955 0.754994 0.175062
15 1 0.256943 0.749384 0.137913
16 1 0.2522 0.783834 0.205165
49 3 0.449849 0.55709 0.260436
50 1 0.421899 0.529528 0.248846
51 1 0.429117 0.578436 0.288459
52 1 0.474751 0.534405 0.283661
7 1 0.87237 0.504775 0.13428
25 3 0.186179 0.674309 0.681327
26 1 0.203338 0.650102 0.65401
27 1 0.155058 0.651523 0.694156
28 1 0.211051 0.670766 0.711739
29 2 0.196614 0.740119 0.680637
30 1 0.196222 0.760247 0.725037
31 1 0.240316 0.739242 0.660051
37 2 0.325839 0.649333 0.690227
38 1 0.355325 0.613245 0.675755
39 1 0.295427 0.657656 0.653806
40 1 0.354108 0.687785 0.699434
62 1 0.496865 0.729722 0.588984
58 1 0.553717 0.746244 0.685056
60 1 0.586354 0.724954 0.634939
32 1 0.161334 0.756959 0.651827
63 1 0.482533 0.795952 0.635135
57 3 0.56498 0.757481 0.647807
59 1 0.595077 0.784295 0.655893
61 2 0.512924 0.772158 0.606145
64 1 0.531337 0.802872 0.573045
33 3 0.294101 0.634494 0.74732
34 1 0.325869 0.634563 0.770761
35 1 0.271564 0.60483 0.765408
36 1 0.274467 0.667271 0.759441
ITEM: TIMESTEP
210
ITEM: NUMBER OF ATOMS
104
ITEM: BOX BOUNDS
0 25
0 25
0 25
ITEM: ATOMS id type xs ys zs
89 3 0.374802 0.0851376 0.0145454
90 1 0.394161 0.113845 0.0355218
92 1 0.39174 0.0510935 0.0285063
93 2 0.30725 0.0901085 0.0109228
96 1 0.288111 0.0782631 0.0547174
1 3 0.863639 0.435292 0.188109
2 1 0.832554 0.411827 0.193975
3 1 0.862008 0.460702 0.218966
4 1 0.894862 0.411805 0.197104
5 2 0.853393 0.461052 0.127077
6 1 0.804857 0.45512 0.125426
8 1 0.878668 0.4313 0.0978404
94 1 0.297199 0.137854 0.00507789
24 1 0.993743 0.261532 0.538191
73 3 0.140167 0.244989 0.58091
76 1 0.170091 0.246619 0.607863
77 2 0.118202 0.18726 0.55427
78 1 0.15358 0.15554 0.543866
79 1 0.0838351 0.166876 0.581343
80 1 0.0988318 0.203169 0.512708
17 3 0.0386024 0.314685 0.597949
18 1 0.0391498 0.348979 0.619716
19 1 0.0720205 0.318177 0.575557
20 1 0.0503473 0.288244 0.624503
74 1 0.109267 0.259236 0.601974
75 1 0.149088 0.275417 0.555832
21 2 0.984107 0.279948 0.582025
22 1 0.980858 0.245709 0.616432
23 1 0.945408 0.309103 0.583347
81 3 0.793397 0.424839 0.571475
82 1 0.813867 0.413576 0.538779
83 1 0.794579 0.465065 0.569304
84 1 0.754778 0.416711 0.561325
85 2 0.819971 0.409939 0.630997
86 1 0.825807 0.361275 0.631228
87 1 0.8634 0.430887 0.641391
88 1 0.787002 0.421172 0.66543
91 1 0.389569 0.0884054 0.977975
72 1 0.339172 0.349892 0.806648
95 1 0.28624 0.0644732 0.975533
65 3 0.286218 0.316354 0.875377
66 1 0.269288 0.352359 0.876012
67 1 0.285888 0.305338 0.914326
68 1 0.257658 0.293152 0.859172
69 2 0.345831 0.319574 0.844435
70 1 0.382015 0.336943 0.872691
71 1 0.358913 0.274925 0.829709
14 1 0.21297 0.713177 0.196056
53 2 0.472911 0.585914 0.204032
54 1 0.433307 0.611126 0.189975
56 1 0.48536 0.549828 0.173038
55 1 0.511285 0.6164 0.207334
97 3 0.583401 0.644058 0.0557776
98 1 0.596481 0.670368 0.0838963
99 1 0.569375 0.667881 0.0265821
100 1 0.617617 0.629588 0.0400283
101 2 0.543172 0.594394 0.0776123
102 1 0.571691 0.568699 0.108588
103 1 0.505456 0.61774 0.0990369
104 1 0.526142 0.564406 0.042346
41 3 0.781744 0.657456 0.152247
42 1 0.756873 0.647412 0.182169
43 1 0.757109 0.672757 0.124257
44 1 0.800399 0.689668 0.166406
45 2 0.830798 0.615283 0.135191
46 1 0.851606 0.634091 0.0950375
47 1 0.862068 0.614216 0.173026
48 1 0.807628 0.572574 0.12879
9 3 0.169254 0.784448 0.152818
10 1 0.136304 0.767362 0.167609
11 1 0.164385 0.782923 0.113037
12 1 0.165525 0.823285 0.161842
13 2 0.226805 0.756823 0.176078
15 1 0.249102 0.746531 0.131164
16 1 0.258363 0.782556 0.202873
49 3 0.449944 0.557512 0.260048
50 1 0.423434 0.530602 0.247997
51 1 0.429545 0.579543 0.28723
52 1 0.475622 0.536056 0.282795
7 1 0.871899 0.505249 0.136253
25 3 0.187002 0.674923 0.683267
26 1 0.203462 0.656095 0.652638
27 1 0.1569 0.652761 0.694111
28 1 0.213265 0.668471 0.711957
29 2 0.195372 0.739436 0.680318
30 1 0.196452 0.759117 0.724359
31 1 0.237685 0.744113 0.657031
37 2 0.32796 0.647541 0.691338
38 1 0.359968 0.61296 0.681007
39 1 0.296847 0.653247 0.654846
40 1 0.354861 0.687002 0.69943
62 1 0.496609 0.730824 0.586303
58 1 0.553523 0.748516 0.685519
60 1 0.583952 0.723931 0.635995
32 1 0.158191 0.757164 0.654832
63 1 0.477357 0.795525 0.631961
57 3 0.56514 0.757384 0.647642
59 1 0.594836 0.783917 0.653164
61 2 0.513595 0.772024 0.606965
64 1 0.529954 0.804506 0.573376
33 3 0.292991 0.635227 0.745488
34 1 0.320352 0.640011 0.773106
35 1 0.27108 0.604925 0.757462
36 1 0.269721 0.666525 0.750658
ITEM: TIMESTEP
240
ITEM: NUMBER OF ATOMS
104
ITEM: BOX BOUNDS
0 25
0 25
0 25
ITEM: ATOMS id type xs ys zs
89 3 0.373491 0.0856238 0.014923
90 1 0.392022 0.114385 0.0353027
92 1 0.388771 0.0519608 0.0285591
93 2 0.30757 0.0893963 0.0102242
96 1 0.299031 0.0769277 0.0573342
1 3 0.863947 0.435444 0.187719
2 1 0.831699 0.413693 0.193705
3 1 0.863506 0.46123 0.217713
4 1 0.89368 0.410666 0.196394
5 2 0.852847 0.460785 0.127936
6 1 0.805757 0.457771 0.120934
8 1 0.880942 0.43294 0.100686
94 1 0.307929 0.138225 0.00555414
24 1 0.990104 0.266453 0.536405
73 3 0.138789 0.245986 0.580576
76 1 0.166537 0.242082 0.608372
77 2 0.118039 0.18603 0.554201
78 1 0.15818 0.159533 0.54844
79 1 0.0824115 0.167537 0.581461
80 1 0.100653 0.206553 0.513138
17 3 0.0393741 0.313382 0.597641
18 1 0.0358577 0.348957 0.611896
19 1 0.0747576 0.313376 0.578912
20 1 0.0508233 0.291846 0.630318
74 1 0.109888 0.266065 0.600471
75 1 0.151828 0.27685 0.557487
21 2 0.984496 0.280452 0.582318
22 1 0.984198 0.24153 0.611889
23 1 0.946628 0.309733 0.589245
81 3 0.793871 0.424922 0.571879
82 1 0.814471 0.412535 0.539763
83 1 0.795484 0.464291 0.569974
84 1 0.756108 0.415854 0.563539
85 2 0.819446 0.409703 0.631004
86 1 0.82503 0.361101 0.628332
87 1 0.861436 0.43374 0.634962
88 1 0.786523 0.42177 0.665728
91 1 0.3887 0.0886125 0.977952
72 1 0.335601 0.349748 0.808288
95 1 0.284998 0.0649662 0.974871
65 3 0.286869 0.316785 0.875425
66 1 0.268948 0.352198 0.875653
67 1 0.28696 0.30579 0.913412
68 1 0.2605 0.29268 0.857863
69 2 0.345588 0.318803 0.844347
70 1 0.375693 0.338809 0.877419
71 1 0.358659 0.275172 0.826076
14 1 0.202263 0.72118 0.197556
53 2 0.473028 0.585069 0.204049
54 1 0.431911 0.60892 0.19158
56 1 0.482482 0.549434 0.171549
55 1 0.509645 0.615672 0.215712
97 3 0.583014 0.643493 0.0558773
98 1 0.59498 0.668864 0.0841554
99 1 0.568876 0.667123 0.0266712
100 1 0.616653 0.628521 0.0409275
101 2 0.54359 0.5948 0.0776125
102 1 0.570076 0.570384 0.110603
103 1 0.50744 0.619281 0.0998002
104 1 0.529339 0.568608 0.0399897
41 3 0.781988 0.657109 0.15205
42 1 0.757675 0.646509 0.181774
43 1 0.757846 0.672542 0.124562
44 1 0.801587 0.688203 0.166155
45 2 0.830263 0.615544 0.135557
46 1 0.850044 0.63309 0.0952752
47 1 0.860947 0.614509 0.172782
48 1 0.808317 0.573274 0.12783
9 3 0.170506 0.783142 0.15306
10 1 0.136857 0.763792 0.163301
11 1 0.167535 0.787582 0.113288
12 1 0.165366 0.819839 0.167105
13 2 0.226779 0.758066 0.176079
15 1 0.237716 0.745568 0.124955
16 1 0.260434 0.782717 0.203064
49 3 0.450302 0.558172 0.259569
50 1 0.423945 0.531324 0.246996
51 1 0.430233 0.580519 0.285586