LAMMPS (27 Nov 2018)
  using 1 OpenMP thread(s) per MPI task
# Demonstrate SNAP Ta potential

# Initialize simulation

variable nsteps index 100
variable nrep equal 4
variable a equal 3.1803
units		metal

# generate the box and atom positions using a BCC lattice

variable nx equal ${nrep}
variable nx equal 4
variable ny equal ${nrep}
variable ny equal 4
variable nz equal ${nrep}
variable nz equal 4

boundary	p p p

lattice         bcc $a
lattice         bcc 3.1803
Lattice spacing in x,y,z = 3.1803 3.1803 3.1803
region		box block 0 ${nx} 0 ${ny} 0 ${nz}
region		box block 0 4 0 ${ny} 0 ${nz}
region		box block 0 4 0 4 0 ${nz}
region		box block 0 4 0 4 0 4
create_box	1 box
Created orthogonal box = (0 0 0) to (12.7212 12.7212 12.7212)
  1 by 2 by 2 MPI processor grid
create_atoms	1 box
Created 128 atoms
  Time spent = 0.000297546 secs

mass 1 183.84

# choose potential

include W_2940_2017_2.snap
# DATE: 2017-02-20 CONTRIBUTOR: Mitchell Wood mitwood@sandia.gov CITATION: Wood, M. A. and Thompson, A. P. "Quantum-Accurate Molecular Dynamics Potential for Tungsten" arXiv:1702.07042 [physics.comp-ph]
#
# Definition of SNAP+ZBL potential.
variable zblcutinner equal 4
variable zblcutouter equal 4.8
variable zblz equal 74

# Specify hybrid with SNAP and ZBL

pair_style hybrid/overlay zbl ${zblcutinner} ${zblcutouter} snap
pair_style hybrid/overlay zbl 4 ${zblcutouter} snap
pair_style hybrid/overlay zbl 4 4.8 snap
pair_coeff 1 1 zbl ${zblz} ${zblz}
pair_coeff 1 1 zbl 74 ${zblz}
pair_coeff 1 1 zbl 74 74
pair_coeff * * snap W_2940_2017_2.snapcoeff W W_2940_2017_2.snapparam W
Reading potential file W_2940_2017_2.snapcoeff with DATE: 2017-02-20
SNAP Element = W, Radius 0.5, Weight 1 
Reading potential file W_2940_2017_2.snapparam with DATE: 2017-02-20
SNAP keyword rcutfac 4.73442 
SNAP keyword twojmax 8 
SNAP keyword rfac0 0.99363 
SNAP keyword rmin0 0 
SNAP keyword diagonalstyle 3 
SNAP keyword bzeroflag 0 
SNAP keyword quadraticflag 0 

#Nomenclature on the snap files are Element_DakotaID_Year_Month

# Setup output

thermo		10
thermo_modify norm yes

# Set up NVE run

timestep 0.5e-3
neighbor 1.0 bin
neigh_modify once no every 1 delay 0 check yes

# Run MD

velocity all create 300.0 4928459
fix 1 all nve
run             ${nsteps}
run             100
Neighbor list info ...
  update every 1 steps, delay 0 steps, check yes
  max neighbors/atom: 2000, page size: 100000
  master list distance cutoff = 5.8
  ghost atom cutoff = 5.8
  binsize = 2.9, bins = 5 5 5
  2 neighbor lists, perpetual/occasional/extra = 2 0 0
  (1) pair zbl, perpetual, half/full from (2)
      attributes: half, newton on
      pair build: halffull/newton
      stencil: none
      bin: none
  (2) pair snap, perpetual
      attributes: full, newton on
      pair build: full/bin/atomonly
      stencil: full/bin/3d
      bin: standard
Per MPI rank memory allocation (min/avg/max) = 5.13 | 5.13 | 5.13 Mbytes
Step Temp E_pair E_mol TotEng Press 
       0          300   -11.028325            0    -10.98985     3010.497 
      10    293.22504   -11.027456            0   -10.989849     3258.275 
      20    273.60084   -11.024939            0   -10.989849    3973.9038 
      30    243.15327   -11.021034            0   -10.989849    5077.9172 
      40    205.01905   -11.016142            0   -10.989849    6448.4941 
      50    163.10914   -11.010767            0   -10.989848    7935.6835 
      60    121.67854   -11.005453            0   -10.989848    9378.9959 
      70    84.846972   -11.000729            0   -10.989848    10626.301 
      80    56.127265   -10.997046            0   -10.989848    11551.687 
      90    38.025013   -10.994724            0   -10.989847    12069.936 
     100    31.768127   -10.993922            0   -10.989847    12145.648 
Loop time of 5.38055 on 4 procs for 100 steps with 128 atoms

Performance: 0.803 ns/day, 29.892 hours/ns, 18.585 timesteps/s
96.1% CPU use with 4 MPI tasks x 1 OpenMP threads

MPI task timing breakdown:
Section |  min time  |  avg time  |  max time  |%varavg| %total
---------------------------------------------------------------
Pair    | 4.8254     | 5.0245     | 5.2817     |   7.7 | 93.38
Neigh   | 0          | 0          | 0          |   0.0 |  0.00
Comm    | 0.093845   | 0.34915    | 0.5466     |  29.1 |  6.49
Output  | 0.00032616 | 0.0011846  | 0.0037167  |   4.2 |  0.02
Modify  | 0.00022507 | 0.00025326 | 0.0002687  |   0.0 |  0.00
Other   |            | 0.005432   |            |       |  0.10

Nlocal:    32 ave 32 max 32 min
Histogram: 4 0 0 0 0 0 0 0 0 0
Nghost:    431 ave 431 max 431 min
Histogram: 4 0 0 0 0 0 0 0 0 0
Neighs:    928 ave 928 max 928 min
Histogram: 4 0 0 0 0 0 0 0 0 0
FullNghs:  1856 ave 1856 max 1856 min
Histogram: 4 0 0 0 0 0 0 0 0 0

Total # of neighbors = 7424
Ave neighs/atom = 58
Neighbor list builds = 0
Dangerous builds = 0

Total wall time: 0:00:05
