LAMMPS data file -- atom_style full -- generated by chemfiles
4 atoms
0 bonds
0 angles
0 dihedrals
0 impropers
1 atom types
0 bond types
0 angle types
0 dihedral types
0 improper types
0.00000000 3.60000000 xlo xhi
0.00000000 3.60000000 ylo yhi
0.00000000 3.60000000 zlo zhi

# Pair Coeffs
# 1 Ni

Masses

1 58.6934 # Ni

Atoms # full

1 1 1 0.0 0.06018841 0.05338695 0.06902095 # Ni
2 2 1 0.0 0.01467863 1.9453093299999997 1.89124251 # Ni
3 3 1 0.0 1.9982767399999999 0.034131980000000006 1.8326351300000001 # Ni
4 4 1 0.0 1.8774910999999999 1.9251363299999997 0.10867624000000004 # Ni
