LAMMPS (17 Apr 2024 - Development - patch_5May2020-18508-g3c0eaf6870-modified)
# ------ 2D dam break ------ #

dimension          2
units              lj
atom_style         rheo
boundary           f s p
comm_modify        vel yes
newton             off

# ------ Create simulation box ------ #

variable           n equal 1.0
variable           cut equal 2.2
variable           dx equal 3.0

region             box block -1 150 -1 80 -0.1 0.1 units box
create_box         2 box
Created orthogonal box = (-1 -1 -0.1) to (150 80 0.1)
  2 by 2 by 1 MPI processor grid
lattice            hex ${n}
lattice            hex 1
Lattice spacing in x,y,z = 1.0745699 1.8612097 1.0745699

region             fluid block $(xlo+v_dx+1.0) $(xlo+40.0) $(ylo+v_dx+1.0) $(yhi-20.0) EDGE EDGE units box
region             fluid block 3 $(xlo+40.0) $(ylo+v_dx+1.0) $(yhi-20.0) EDGE EDGE units box
region             fluid block 3 39 $(ylo+v_dx+1.0) $(yhi-20.0) EDGE EDGE units box
region             fluid block 3 39 2.991900000000000226 $(yhi-20.0) EDGE EDGE units box
region             fluid block 3 39 2.991900000000000226 60.008099999999998886 EDGE EDGE units box
region             walls1 block $(xlo+v_dx) $(xhi-v_dx) $(ylo+v_dx) $(yhi-v_dx) EDGE EDGE side out units box
region             walls1 block 2 $(xhi-v_dx) $(ylo+v_dx) $(yhi-v_dx) EDGE EDGE side out units box
region             walls1 block 2 147 $(ylo+v_dx) $(yhi-v_dx) EDGE EDGE side out units box
region             walls1 block 2 147 1.9919000000000000039 $(yhi-v_dx) EDGE EDGE side out units box
region             walls1 block 2 147 1.9919000000000000039 77.008099999999998886 EDGE EDGE side out units box
region             walls2 block EDGE EDGE EDGE $(yhi-v_dx) EDGE EDGE side in units box
region             walls2 block EDGE EDGE EDGE 77.008099999999998886 EDGE EDGE side in units box
region             walls intersect 2 walls1 walls2

create_atoms       1 region fluid
Created 2044 atoms
  using lattice units in orthogonal box = (-1 -1.0081 -0.1) to (150 80.0081 0.1)
  create_atoms CPU = 0.001 seconds
create_atoms       2 region walls
Created 1002 atoms
  using lattice units in orthogonal box = (-1 -1.0081 -0.1) to (150 80.0081 0.1)
  create_atoms CPU = 0.000 seconds

group              fluid type 1
2044 atoms in group fluid
group              rig type 2
1002 atoms in group rig

# ------ Model parameters ------ #

variable           rho0 equal 1.0
variable           mp equal ${rho0}/${n}
variable           mp equal 1/${n}
variable           mp equal 1/1
variable           cs equal 1.0
variable           zeta equal 0.1
variable           dt_max equal  0.1*${cut}/${cs}/3
variable           dt_max equal  0.1*2.2/${cs}/3
variable           dt_max equal  0.1*2.2/1/3
variable           eta equal 0.1
variable           Dr equal 0.1

mass               1 ${mp}
mass               1 1
mass               2 $(2*v_mp)
mass               2 2
set                group all rheo/rho ${rho0}
set                group all rheo/rho 1
Setting atom values ...
  3046 settings made for rheo/rho

set                group all rheo/status 0
Setting atom values ...
  3046 settings made for rheo/status
set                group rig rheo/status 1
Setting atom values ...
  1002 settings made for rheo/status

timestep           ${dt_max}
timestep           0.0733333333333333

pair_style         rheo ${cut} artificial/visc ${zeta} #rho/damp ${Dr}
pair_style         rheo 2.2 artificial/visc ${zeta} 
pair_style         rheo 2.2 artificial/visc 0.1 
pair_coeff         * *

# ------ Fixes & computes ------ #

fix                1 all rheo ${cut} quintic 10                               surface/detection coordination 22 8                               rho/sum
fix                1 all rheo 2.2 quintic 10                               surface/detection coordination 22 8                               rho/sum
fix                2 all rheo/viscosity * constant ${eta}
fix                2 all rheo/viscosity * constant 0.1
fix                3 all rheo/pressure * linear
fix                4 all gravity 1e-3 vector 0 -1 0
fix                5 rig setforce 0.0 0.0 0.0
fix                6 all enforce2d

compute            rho all rheo/property/atom rho
compute            p all rheo/property/atom pressure
compute            surf all rheo/property/atom surface
compute            sn all rheo/property/atom surface/n/x surface/n/y

# ------ Output & Run ------ #

thermo             20
thermo_style       custom step time ke press

dump               1 all custom 200 atomDump id type x y vx vy fx fy c_rho c_surf c_p c_sn[*]

run                30000

CITE-CITE-CITE-CITE-CITE-CITE-CITE-CITE-CITE-CITE-CITE-CITE-CITE

Your simulation uses code contributions which should be cited:

- @article{PalermoInPrep,
 journal = {in prep},
 title = {RHEO: A Hybrid Mesh-Free Model Framework for Dynamic Multi-Phase Flows},
 year = {2024},
 author = {Eric T. Palermo and Ki T. Wolf and Joel T. Clemmer and Thomas C. O'Connor},
}

CITE-CITE-CITE-CITE-CITE-CITE-CITE-CITE-CITE-CITE-CITE-CITE-CITE

Generated 0 of 1 mixed pair_coeff terms from geometric mixing rule
Neighbor list info ...
  update: every = 1 steps, delay = 0 steps, check = yes
  max neighbors/atom: 2000, page size: 100000
  master list distance cutoff = 2.5
  ghost atom cutoff = 2.5
  binsize = 1.25, bins = 121 65 1
  5 neighbor lists, perpetual/occasional/extra = 5 0 0
  (1) pair rheo, perpetual, half/full from (2)
      attributes: half, newton off
      pair build: halffull/newtoff
      stencil: none
      bin: none
  (2) compute RHEO/KERNEL, perpetual
      attributes: full, newton off
      pair build: full/bin/atomonly
      stencil: full/bin/2d
      bin: standard
  (3) compute RHEO/GRAD, perpetual, copy from (1)
      attributes: half, newton off
      pair build: copy
      stencil: none
      bin: none
  (4) compute RHEO/RHO/SUM, perpetual, copy from (1)
      attributes: half, newton off
      pair build: copy
      stencil: none
      bin: none
  (5) compute RHEO/SURFACE, perpetual, copy from (1)
      attributes: half, newton off
      pair build: copy
      stencil: none
      bin: none
Per MPI rank memory allocation (min/avg/max) = 5.707 | 5.721 | 5.736 Mbytes
   Step          Time          KinEng         Press     
         0   0              0             -8.9662357e-06
        20   1.4666667      0.00034058796  8.9684994e-05
        40   2.9333333      6.9365611e-05  2.3675864e-05
        60   4.4            6.1074185e-05  1.6680783e-05
        80   5.8666667      5.0534793e-05  1.2623473e-05
       100   7.3333333      4.1073516e-05  1.1708742e-05
       120   8.8            4.9303871e-05  1.3714304e-05
       140   10.266667      5.1669035e-05  1.3579535e-05
       160   11.733333      6.0107096e-05  1.606084e-05 
       180   13.2           6.9154593e-05  1.8429091e-05
       200   14.666667      8.0009963e-05  2.0757671e-05
       220   16.133333      9.1883493e-05  2.3542955e-05
       240   17.6           0.00010524584  2.6786532e-05
       260   19.066667      0.00011982479  3.0390295e-05
       280   20.533333      0.00013474016  3.4766566e-05
       300   22             0.00015081777  4.0596983e-05
       320   23.466667      0.00016922091  4.7811202e-05
       340   24.933333      0.00018746472  5.436563e-05 
       360   26.4           0.00020594739  5.8634772e-05
       380   27.866667      0.00022673738  6.0759081e-05
       400   29.333333      0.00024754656  6.1922882e-05
       420   30.8           0.00026882061  6.4956859e-05
       440   32.266667      0.00029203     7.2311959e-05
       460   33.733333      0.00031627032  8.1297842e-05
       480   35.2           0.00034113307  8.9913587e-05
       500   36.666667      0.00036599396  9.7909338e-05
       520   38.133333      0.00039120212  0.0001055925 
       540   39.6           0.00041728537  0.00011265914
       560   41.066667      0.00044402713  0.00011842088
       580   42.533333      0.00047160578  0.00012321574
       600   44             0.00050005372  0.00012842455
       620   45.466667      0.00052908365  0.00013533445
       640   46.933333      0.00055833314  0.00014412684
       660   48.4           0.00058760766  0.00015385416
       680   49.866667      0.00061704537  0.00016323184
       700   51.333333      0.00064676026  0.0001720558 
       720   52.8           0.00067674239  0.00018065137
       740   54.266667      0.00070699735  0.00018906348
       760   55.733333      0.00073745009  0.00019856234
       780   57.2           0.00076805806  0.00020874484
       800   58.666667      0.00079892632  0.00021905295
       820   60.133333      0.00083019385  0.00022890532
       840   61.6           0.00086204047  0.00023806257
       860   63.066667      0.00089463638  0.00024675987
       880   64.533333      0.0009280011   0.00025519683
       900   66             0.00096201218  0.00026350368
       920   67.466667      0.00099657113  0.00027166253
       940   68.933333      0.0010317502   0.00027992975
       960   70.4           0.0010676863   0.00028790134
       980   71.866667      0.0011043796   0.00029680468
      1000   73.333333      0.0011417187   0.00030600061
      1020   74.8           0.001179618    0.00031551941
      1040   76.266667      0.0012180222   0.00032540799
      1060   77.733333      0.0012568886   0.00033557079
      1080   79.2           0.0012962727   0.00034616068
      1100   80.666667      0.0013363417   0.00035717164
      1120   82.133333      0.0013772784   0.00036920892
      1140   83.6           0.0014192183   0.00038068516
      1160   85.066667      0.0014621933   0.00039223594
      1180   86.533333      0.0015061045   0.00040532576
      1200   88             0.001550789    0.00041895976
      1220   89.466667      0.0015961278   0.00043309673
      1240   90.933333      0.0016420919   0.0004476234 
      1260   92.4           0.001688693    0.00046248791
      1280   93.866667      0.0017358804   0.00047764479
      1300   95.333333      0.0017834857   0.0004929783 
      1320   96.8           0.0018313096   0.00050814477
      1340   98.266667      0.0018793086   0.00052401678
      1360   99.733333      0.0019277217   0.00053716885
      1380   101.2          0.0019769204   0.00055180327
      1400   102.66667      0.0020270711   0.0005656469 
      1420   104.13333      0.0020779701   0.00057917022
      1440   105.6          0.0021293579   0.00059160854
      1460   107.06667      0.0021813213   0.00060392999
      1480   108.53333      0.0022341025   0.00061636071
      1500   110            0.00228757     0.00062924749
      1520   111.46667      0.0023412951   0.00064266414
      1540   112.93333      0.0023952355   0.0006565177 
      1560   114.4          0.0024498098   0.00067063291
      1580   115.86667      0.0025051272   0.00068509378
      1600   117.33333      0.0025608522   0.00069926059
      1620   118.8          0.0026168714   0.000713059  
      1640   120.26667      0.0026733349   0.00072675496
      1660   121.73333      0.0027302055   0.00074010812
      1680   123.2          0.0027874761   0.00075390199
      1700   124.66667      0.0028453711   0.00076786487
      1720   126.13333      0.0029038156   0.0007820191 
      1740   127.6          0.0029624061   0.00079619745
      1760   129.06667      0.0030211707   0.00081053823
      1780   130.53333      0.0030802801   0.00082493927
      1800   132            0.0031393313   0.00083943639
      1820   133.46667      0.0031981476   0.00085389118
      1840   134.93333      0.0032572803   0.00086793469
      1860   136.4          0.0033167316   0.00088219559
      1880   137.86667      0.0033757606   0.00089612646
      1900   139.33333      0.0034343394   0.00090982709
      1920   140.8          0.0034930349   0.00092382861
      1940   142.26667      0.0035518482   0.00093805745
      1960   143.73333      0.0036105788   0.00095257985
      1980   145.2          0.0036693157   0.00096734041
      2000   146.66667      0.0037279206   0.00098228262
      2020   148.13333      0.0037863272   0.00099753272
      2040   149.6          0.0038448977   0.0010129675 
      2060   151.06667      0.0039035631   0.0010289263 
      2080   152.53333      0.0039618021   0.001044226  
      2100   154            0.0040196981   0.001059823  
      2120   155.46667      0.0040776598   0.0010754207 
      2140   156.93333      0.0041356267   0.0010912489 
      2160   158.4          0.0041933707   0.0011068916 
      2180   159.86667      0.0042506844   0.001122462  
      2200   161.33333      0.0043076551   0.0011378276 
      2220   162.8          0.004364899    0.0011531367 
      2240   164.26667      0.0044223607   0.0011685928 
      2260   165.73333      0.0044790909   0.001183629  
      2280   167.2          0.0045350513   0.0011983147 
      2300   168.66667      0.0045910698   0.0012128941 
      2320   170.13333      0.0046473036   0.0012274902 
      2340   171.6          0.0047034572   0.0012420483 
      2360   173.06667      0.0047594904   0.001256434  
      2380   174.53333      0.0048154857   0.0012710526 
      2400   176            0.0048713579   0.0012854643 
      2420   177.46667      0.0049268461   0.0012999539 
      2440   178.93333      0.0049821065   0.0013141319 
      2460   180.4          0.0050376352   0.0013286044 
      2480   181.86667      0.0050932684   0.0013428647 
      2500   183.33333      0.0051487541   0.0013573039 
      2520   184.8          0.0052041856   0.001371655  
      2540   186.26667      0.005259265    0.0013858701 
      2560   187.73333      0.0053140412   0.0014000303 
      2580   189.2          0.0053687577   0.0014142597 
      2600   190.66667      0.0054226172   0.0014281564 
      2620   192.13333      0.0054756639   0.0014420369 
      2640   193.6          0.0055290419   0.0014559949 
      2660   195.06667      0.0055821088   0.0014698039 
      2680   196.53333      0.0056340694   0.0014837338 
      2700   198            0.0056859198   0.0014973779 
      2720   199.46667      0.0057376404   0.0015110075 
      2740   200.93333      0.0057882397   0.0015247587 
      2760   202.4          0.0058380714   0.0015376559 
      2780   203.86667      0.0058874524   0.0015511804 
      2800   205.33333      0.0059360376   0.0015643594 
      2820   206.8          0.0059840503   0.0015776406 
      2840   208.26667      0.0060315172   0.0015904895 
      2860   209.73333      0.0060778724   0.0016030297 
      2880   211.2          0.0061232681   0.0016153868 
      2900   212.66667      0.0061684129   0.0016276456 
      2920   214.13333      0.0062133058   0.0016395859 
      2940   215.6          0.0062576324   0.0016507189 
      2960   217.06667      0.0063013566   0.0016623583 
      2980   218.53333      0.0063443506   0.0016735007 
      3000   220            0.0063871542   0.001684583  
      3020   221.46667      0.006430519    0.001697154  
      3040   222.93333      0.0064740424   0.0017087524 
      3060   224.4          0.0065176616   0.0017189916 
      3080   225.86667      0.0065615555   0.0017301805 
      3100   227.33333      0.006605039    0.0017410152 
      3120   228.8          0.0066482973   0.0017517164 
      3140   230.26667      0.0066915406   0.0017619713 
      3160   231.73333      0.0067344437   0.0017722386 
      3180   233.2          0.006777227    0.0017824734 
      3200   234.66667      0.006819344    0.0017926386 
      3220   236.13333      0.0068607536   0.0018023968 
      3240   237.6          0.0069026957   0.0018127097 
      3260   239.06667      0.0069450313   0.0018236711 
      3280   240.53333      0.0069865151   0.0018341375 
      3300   242            0.0070275294   0.0018448641 
      3320   243.46667      0.0070688646   0.0018561596 
      3340   244.93333      0.0071092014   0.0018662927 
      3360   246.4          0.0071487936   0.0018770385 
      3380   247.86667      0.0071890814   0.001886802  
      3400   249.33333      0.0072281891   0.0018972625 
      3420   250.8          0.0072657267   0.0019062877 
      3440   252.26667      0.0073033651   0.0019160172 
      3460   253.73333      0.0073406213   0.0019254146 
      3480   255.2          0.0073773312   0.0019343899 
      3500   256.66667      0.0074135814   0.0019431867 
      3520   258.13333      0.0074488904   0.0019521168 
      3540   259.6          0.0074841693   0.0019611895 
      3560   261.06667      0.0075194817   0.0019697561 
      3580   262.53333      0.0075540131   0.0019782744 
      3600   264            0.0075880612   0.0019869585 
      3620   265.46667      0.0076217162   0.0019954264 
      3640   266.93333      0.0076541332   0.0020048511 
      3660   268.4          0.0076854774   0.0020121513 
      3680   269.86667      0.0077170032   0.002020407  
      3700   271.33333      0.0077479535   0.002028555  
      3720   272.8          0.0077778112   0.002035829  
      3740   274.26667      0.0078075791   0.0020445579 
      3760   275.73333      0.0078373125   0.002051243  
      3780   277.2          0.0078671935   0.0020596139 
      3800   278.66667      0.0078966016   0.0020667611 
      3820   280.13333      0.0079259829   0.0020737998 
      3840   281.6          0.0079561144   0.0020823896 
      3860   283.06667      0.0079856022   0.0020898018 
      3880   284.53333      0.0080155451   0.0020975877 
      3900   286            0.008045725    0.0021058637 
      3920   287.46667      0.00807515     0.0021132131 
      3940   288.93333      0.0081055524   0.0021220937 
      3960   290.4          0.0081357323   0.0021293745 
      3980   291.86667      0.0081660373   0.0021372148 
      4000   293.33333      0.0081969984   0.0021452255 
      4020   294.8          0.0082267987   0.0021525847 
      4040   296.26667      0.0082567948   0.0021608073 
      4060   297.73333      0.0082871434   0.0021682544 
      4080   299.2          0.0083173455   0.0021769568 
      4100   300.66667      0.0083480923   0.0021843095 
      4120   302.13333      0.008377833    0.0021919136 
      4140   303.6          0.0084065176   0.0022000503 
      4160   305.06667      0.0084359624   0.0022072124 
      4180   306.53333      0.0084657862   0.0022153288 
      4200   308            0.008494679    0.0022227735 
      4220   309.46667      0.008523307    0.002229996  
      4240   310.93333      0.008553561    0.0022382672 
      4260   312.4          0.0085842107   0.0022462238 
      4280   313.86667      0.0086124223   0.0022536478 
      4300   315.33333      0.0086404396   0.0022608951 
      4320   316.8          0.0086693991   0.0022683957 
      4340   318.26667      0.0086973954   0.0022764575 
      4360   319.73333      0.0087253957   0.0022829952 
      4380   321.2          0.0087529268   0.0022901779 
      4400   322.66667      0.0087798869   0.0022970351 
      4420   324.13333      0.0088070731   0.0023035923 
      4440   325.6          0.0088336854   0.0023108163 
      4460   327.06667      0.00886034     0.002317611  
      4480   328.53333      0.008886686    0.0023244292 
      4500   330            0.0089126796   0.0023323098 
      4520   331.46667      0.0089380439   0.002338006  
      4540   332.93333      0.0089625802   0.0023439698 
      4560   334.4          0.0089876608   0.0023508279 
      4580   335.86667      0.0090119764   0.0023567519 
      4600   337.33333      0.0090358053   0.0023630419 
      4620   338.8          0.0090597056   0.0023696207 
      4640   340.26667      0.0090827564   0.0023757413 
      4660   341.73333      0.0091057102   0.0023825055 
      4680   343.2          0.0091280804   0.0023880185 
      4700   344.66667      0.0091501664   0.0023938041 
      4720   346.13333      0.0091724992   0.0024006288 
      4740   347.6          0.0091940571   0.0024066505 
      4760   349.06667      0.0092145857   0.0024118199 
      4780   350.53333      0.0092353995   0.0024187452 
      4800   352            0.0092558703   0.0024235776 
      4820   353.46667      0.009275219    0.0024285703 
      4840   354.93333      0.0092944603   0.0024339815 
      4860   356.4          0.0093126366   0.0024385746 
      4880   357.86667      0.0093312838   0.0024434876 
      4900   359.33333      0.0093497163   0.0024488983 
      4920   360.8          0.009365989    0.0024527436 
      4940   362.26667      0.0093829249   0.0024572285 
      4960   363.73333      0.0093999951   0.0024620002 
      4980   365.2          0.0094162511   0.0024654432 
      5000   366.66667      0.009432966    0.0024696871 
      5020   368.13333      0.0094491728   0.0024752768 
      5040   369.6          0.0094654395   0.0024791774 
      5060   371.06667      0.0094822028   0.0024833783 
      5080   372.53333      0.0094987002   0.0024876159 
      5100   374            0.0095154669   0.0024916919 
      5120   375.46667      0.0095317268   0.0024971427 
      5140   376.93333      0.0095488298   0.0025012162 
      5160   378.4          0.0095659696   0.0025049341 
      5180   379.86667      0.0095824397   0.0025092752 
      5200   381.33333      0.0096000959   0.0025131409 
      5220   382.8          0.0096178056   0.0025171802 
      5240   384.26667      0.0096358075   0.0025217474 
      5260   385.73333      0.0096536841   0.0025259115 
      5280   387.2          0.0096720374   0.0025307756 
      5300   388.66667      0.0096903176   0.0025371145 
      5320   390.13333      0.0097081278   0.002540216  
      5340   391.6          0.0097268941   0.0025456853 
      5360   393.06667      0.009745217    0.0025499166 
      5380   394.53333      0.0097634815   0.0025546822 
      5400   396            0.0097813844   0.0025591351 
      5420   397.46667      0.0097989874   0.0025645654 
      5440   398.93333      0.0098165651   0.0025681155 
      5460   400.4          0.0098343876   0.0025724122 
      5480   401.86667      0.0098522329   0.0025783873 
      5500   403.33333      0.0098691009   0.0025818597 
      5520   404.8          0.0098860184   0.0025857495 
      5540   406.26667      0.0099028987   0.002590578  
      5560   407.73333      0.0099197309   0.0025942164 
      5580   409.2          0.0099359956   0.0025983095 
      5600   410.66667      0.0099524424   0.0026024035 
      5620   412.13333      0.0099690162   0.0026067584 
      5640   413.6          0.0099843964   0.002611251  
      5660   415.06667      0.010000092    0.0026151565 
      5680   416.53333      0.010015971    0.0026189738 
      5700   418            0.01003088     0.0026226851 
      5720   419.46667      0.010046448    0.0026266212 
      5740   420.93333      0.010061779    0.0026305773 
      5760   422.4          0.010077085    0.002634556  
      5780   423.86667      0.010092596    0.0026403454 
      5800   425.33333      0.010107214    0.0026431069 
      5820   426.8          0.010122323    0.0026467806 
      5840   428.26667      0.010136615    0.0026505801 
      5860   429.73333      0.0101514      0.0026545146 
      5880   431.2          0.010165938    0.0026575254 
      5900   432.66667      0.010180061    0.0026611852 
      5920   434.13333      0.010193978    0.0026651517 
      5940   435.6          0.010207399    0.0026700025 
      5960   437.06667      0.010221274    0.0026724013 
      5980   438.53333      0.0102342      0.002675843  
      6000   440            0.010246851    0.0026796139 
      6020   441.46667      0.010259615    0.0026826456 
      6040   442.93333      0.010271994    0.0026856149 
      6060   444.4          0.010284566    0.0026891263 
      6080   445.86667      0.01029697     0.0026934663 
      6100   447.33333      0.010297087    0.0026929648 
      6120   448.8          0.01026953     0.0026859415 
      6140   450.26667      0.010241322    0.0026788232 
      6160   451.73333      0.010201572    0.0026685955 
      6180   453.2          0.010167529    0.0026596809 
      6200   454.66667      0.010140751    0.0026523585 
      6220   456.13333      0.010096077    0.002641072  
      6240   457.6          0.010043217    0.0026282922 
      6260   459.06667      0.0099830892   0.0026127228 
      6280   460.53333      0.0099406642   0.0026021682 
      6300   462            0.0099151275   0.002595732  
      6320   463.46667      0.0098900642   0.0025891145 
      6340   464.93333      0.0098560891   0.0025805017 
      6360   466.4          0.0098293518   0.0025741231 
      6380   467.86667      0.0098089665   0.0025692332 
      6400   469.33333      0.0097886264   0.0025633005 
      6420   470.8          0.0097672621   0.0025580882 
      6440   472.26667      0.0097438543   0.0025530359 
      6460   473.73333      0.0097156792   0.0025441423 
      6480   475.2          0.0096824023   0.0025359007 
      6500   476.66667      0.0096556854   0.0025282404 
      6520   478.13333      0.0096245146   0.0025200185 
      6540   479.6          0.0095942888   0.0025112709 
      6560   481.06667      0.0095630005   0.0025029005 
      6580   482.53333      0.0095307546   0.0024945223 
      6600   484            0.0094979676   0.0024851442 
      6620   485.46667      0.0094678543   0.0024768078 
      6640   486.93333      0.009440454    0.0024694763 
      6660   488.4          0.0094144007   0.0024632333 
      6680   489.86667      0.0093906089   0.0024562358 
      6700   491.33333      0.0093653494   0.0024490631 
      6720   492.8          0.0093388466   0.0024421324 
      6740   494.26667      0.0093068273   0.0024334756 
      6760   495.73333      0.0092747153   0.0024247141 
      6780   497.2          0.0092468798   0.0024172005 
      6800   498.66667      0.0092160816   0.002409021  
      6820   500.13333      0.0091844109   0.0024010176 
      6840   501.6          0.0091543943   0.0023931861 
      6860   503.06667      0.0091225364   0.00238459   
      6880   504.53333      0.009091163    0.0023764251 
      6900   506            0.0090620145   0.0023688628 
      6920   507.46667      0.0090327696   0.0023610683 
      6940   508.93333      0.0090043995   0.0023537352 
      6960   510.4          0.0089749557   0.0023459457 
      6980   511.86667      0.0089447271   0.0023385936 
      7000   513.33333      0.0089161633   0.0023311311 
      7020   514.8          0.008888379    0.002323798  
      7040   516.26667      0.0088597051   0.0023162749 
      7060   517.73333      0.0088314196   0.0023094901 
      7080   519.2          0.0088032697   0.0023017143 
      7100   520.66667      0.0087764174   0.0022945937 
      7120   522.13333      0.0087493465   0.0022878231 
      7140   523.6          0.0087208106   0.0022805679 
      7160   525.06667      0.0086901023   0.0022726678 
      7180   526.53333      0.0086602781   0.0022649995 
      7200   528            0.0086338883   0.0022581858 
      7220   529.46667      0.0086086121   0.002252324  
      7240   530.93333      0.0085801758   0.0022441934 
      7260   532.4          0.0085495659   0.0022361561 
      7280   533.86667      0.0085199727   0.0022288965 
      7300   535.33333      0.0084891254   0.0022216958 
      7320   536.8          0.0084557275   0.0022130525 
      7340   538.26667      0.0084218841   0.002203592  
      7360   539.73333      0.0083899168   0.0021958184 
      7380   541.2          0.0083585487   0.002188024  
      7400   542.66667      0.0083279264   0.0021795695 
      7420   544.13333      0.0082956611   0.0021711337 
      7440   545.6          0.0082600396   0.0021620937 
      7460   547.06667      0.008222435    0.0021524246 
      7480   548.53333      0.0081847492   0.0021422603 
      7500   550            0.0081480769   0.0021324926 
      7520   551.46667      0.0081129495   0.0021237168 
      7540   552.93333      0.0080794573   0.0021154414 
      7560   554.4          0.0080465003   0.0021057182 
      7580   555.86667      0.0080134857   0.0020967731 
      7600   557.33333      0.0079807769   0.0020882759 
      7620   558.8          0.007949081    0.0020799016 
      7640   560.26667      0.0079178914   0.0020720038 
      7660   561.73333      0.0078871135   0.0020650346 
      7680   563.2          0.007856599    0.0020563039 
      7700   564.66667      0.0078260839   0.002048286  
      7720   566.13333      0.007796051    0.0020402506 
      7740   567.6          0.0077667325   0.0020324247 
      7760   569.06667      0.0077368975   0.0020242564 
      7780   570.53333      0.0077063146   0.002016025  
      7800   572            0.0076756813   0.0020076974 
      7820   573.46667      0.0076444658   0.0019992537 
      7840   574.93333      0.0076122527   0.0019912246 
      7860   576.4          0.00757938     0.0019824601 
      7880   577.86667      0.0075457657   0.0019739889 
      7900   579.33333      0.0075114496   0.0019644524 
      7920   580.8          0.0074775871   0.0019556077 
      7940   582.26667      0.0074449114   0.0019470595 
      7960   583.73333      0.0074125826   0.0019386798 
      7980   585.2          0.0073795946   0.0019298994 
      8000   586.66667      0.0073460046   0.0019208737 
      8020   588.13333      0.0073122744   0.0019120703 
      8040   589.6          0.0072783913   0.0019033047 
      8060   591.06667      0.0072440775   0.0018943414 
      8080   592.53333      0.0072092735   0.0018852102 
      8100   594            0.0071736521   0.0018758623 
      8120   595.46667      0.0071373132   0.0018664102 
      8140   596.93333      0.0071013244   0.0018569886 
      8160   598.4          0.0070657891   0.0018477343 
      8180   599.86667      0.0070299646   0.0018383955 
      8200   601.33333      0.0069940522   0.001829006  
      8220   602.8          0.0069586108   0.0018197189 
      8240   604.26667      0.0069231457   0.0018112586 
      8260   605.73333      0.0068871373   0.0018016096 
      8280   607.2          0.0068512951   0.0017928173 
      8300   608.66667      0.006816413    0.0017834399 
      8320   610.13333      0.0067820205   0.0017745017 
      8340   611.6          0.0067473828   0.0017654991 
      8360   613.06667      0.0067124905   0.0017569034 
      8380   614.53333      0.0066773905   0.0017474775 
      8400   616            0.0066417638   0.0017387333 
      8420   617.46667      0.0066057074   0.0017293058 
      8440   618.93333      0.0065700041   0.0017200093 
      8460   620.4          0.0065351174   0.0017110662 
      8480   621.86667      0.0065006001   0.0017017664 
      8500   623.33333      0.0064659553   0.0016926237 
      8520   624.8          0.0064314284   0.0016834464 
      8540   626.26667      0.0063972759   0.0016730222 
      8560   627.73333      0.006363104    0.0016535358 
      8580   629.2          0.0063283374   0.0016341308 
      8600   630.66667      0.0062929939   0.0016145833 
      8620   632.13333      0.0062575534   0.0015952196 
      8640   633.6          0.0062223967   0.0015767924 
      8660   635.06667      0.0061876077   0.0015584021 
      8680   636.53333      0.0061531388   0.0015432462 
      8700   638            0.0061189895   0.0015255547 
      8720   639.46667      0.0060849843   0.0015087078 
      8740   640.93333      0.0060508603   0.0014912511 
      8760   642.4          0.0060166368   0.0014741414 
      8780   643.86667      0.0059825217   0.0014570326 
      8800   645.33333      0.0059487275   0.0014404208 
      8820   646.8          0.005915195    0.001427214  
      8840   648.26667      0.0058815506   0.0014108717 
      8860   649.73333      0.0058475012   0.001394823  
      8880   651.2          0.005813175    0.0013791763 
      8900   652.66667      0.0057788055   0.0013635495 
      8920   654.13333      0.0057442301   0.0013485291 
      8940   655.6          0.0057092563   0.0013329993 
      8960   657.06667      0.0056742445   0.0013200488 
      8980   658.53333      0.0056395856   0.0013052312 
      9000   660            0.005604919    0.0012908181 
      9020   661.46667      0.0055697452   0.001276258  
      9040   662.93333      0.0055345006   0.0012617179 
      9060   664.4          0.0054999699   0.0012488732 
      9080   665.86667      0.0054658705   0.0012342743 
      9100   667.33333      0.0054312056   0.0012219265 
      9120   668.8          0.0053958845   0.0012069595 
      9140   670.26667      0.0053607107   0.0011946481 
      9160   671.73333      0.0053258562   0.0011805403 
      9180   673.2          0.005290634    0.0011685879 
      9200   674.66667      0.0052548527   0.0011548258 
      9220   676.13333      0.0052191394   0.0011431756 
      9240   677.6          0.0051838155   0.0011292222 
      9260   679.06667      0.0051486178   0.0011177695 
      9280   680.53333      0.0051136287   0.0011043218 
      9300   682            0.0050793517   0.001093456  
      9320   683.46667      0.0050458249   0.00108072   
      9340   684.93333      0.0050124909   0.0010699656 
      9360   686.4          0.0049790841   0.0010577503 
      9380   687.86667      0.0049458438   0.0010471846 
      9400   689.33333      0.0049128193   0.0010353066 
      9420   690.8          0.0048796878   0.0010250736 
      9440   692.26667      0.0048463678   0.0010133357 
      9460   693.73333      0.0048130621   0.0010034192 
      9480   695.2          0.0047797612   0.00099181501
      9500   696.66667      0.0047463058   0.00098192704
      9520   698.13333      0.0047129773   0.00097114316
      9540   699.6          0.0046802695   0.0009614797 
      9560   701.06667      0.0046481303   0.00095001935
      9580   702.53333      0.0046159995   0.00094018625
      9600   704            0.0045836057   0.00093048866
      9620   705.46667      0.0045513113   0.00092093431
      9640   706.93333      0.0045195288   0.00091163732
      9660   708.4          0.0044881214   0.00090108788
      9680   709.86667      0.0044565522   0.00089178586
      9700   711.33333      0.0044245471   0.00088289706
      9720   712.8          0.0043923571   0.00087366447
      9740   714.26667      0.0043603446   0.00086340815
      9760   715.73333      0.0043285042   0.00085450195
      9780   717.2          0.0042965444   0.00084545827
      9800   718.66667      0.0042643896   0.00083689129
      9820   720.13333      0.0042323768   0.00082818681
      9840   721.6          0.0042008631   0.00081834996
      9860   723.06667      0.0041697784   0.00081001308
      9880   724.53333      0.0041387393   0.00080132405
      9900   726            0.0041075523   0.00079289302
      9920   727.46667      0.0040764684   0.00078371229
      9940   728.93333      0.004045842    0.00077617702
      9960   730.4          0.0040156553   0.00076786882
      9980   731.86667      0.0039855818   0.00075942893
     10000   733.33333      0.0039554481   0.0007511838 
     10020   734.8          0.0039255002   0.00074338609
     10040   736.26667      0.0038961167   0.0007357845 
     10060   737.73333      0.0038673423   0.00072863577
     10080   739.2          0.0038388258   0.00072101271
     10100   740.66667      0.0038101889   0.00071325927
     10120   742.13333      0.0037813579   0.00070577634
     10140   743.6          0.0037524894   0.00069840857
     10160   745.06667      0.0037236699   0.0006912217 
     10180   746.53333      0.0036948382   0.00068398999
     10200   748            0.0036659574   0.0006765938 
     10220   749.46667      0.003637161    0.00066944812
     10240   750.93333      0.0036086524   0.00066246958
     10260   752.4          0.0035804876   0.00065555896
     10280   753.86667      0.0035525249   0.00064877214
     10300   755.33333      0.003524549    0.00064262835
     10320   756.8          0.0034964925   0.0006359586 
     10340   758.26667      0.0034685139   0.00062899447
     10360   759.73333      0.0034408225   0.00062253344
     10380   761.2          0.0034134787   0.00061569541
     10400   762.66667      0.0033863357   0.00061002091
     10420   764.13333      0.0033591874   0.00060376799
     10440   765.6          0.0033319865   0.00059696082
     10460   767.06667      0.0033049023   0.00059041399
     10480   768.53333      0.0032781346   0.00058417754
     10500   770            0.0032516844   0.0005781413 
     10520   771.46667      0.0032253297   0.00057280542
     10540   772.93333      0.0031988384   0.00056654214
     10560   774.4          0.0031722162   0.00056022576
     10580   775.86667      0.0031457039   0.0005547685 
     10600   777.33333      0.0031195399   0.00054891424
     10620   778.8          0.003093753    0.00054282948
     10640   780.26667      0.0030681782   0.0005378126 
     10660   781.73333      0.0030426412   0.00053187104
     10680   783.2          0.0030171127   0.00052598426
     10700   784.66667      0.0029917103   0.00052087104
     10720   786.13333      0.0029665734   0.00051521228
     10740   787.6          0.0029417486   0.00050965329
     10760   789.06667      0.0029171964   0.000504914  
     10780   790.53333      0.0028928685   0.00049932491
     10800   792            0.0028687686   0.00049451045
     10820   793.46667      0.0028449566   0.00048905426
     10840   794.93333      0.0028215175   0.00048442583
     10860   796.4          0.0027985141   0.00047942674
     10880   797.86667      0.0027759233   0.00047495434
     10900   799.33333      0.0027536322   0.00046989793
     10920   800.8          0.0027315039   0.00046490714
     10940   802.26667      0.0027094846   0.00046064051
     10960   803.73333      0.0026876651   0.00045602046
     10980   805.2          0.002666198    0.00045168389
     11000   806.66667      0.0026451664   0.00044707481
     11020   808.13333      0.0026244819   0.00044301025
     11040   809.6          0.0026039186   0.00043882304
     11060   811.06667      0.0025833111   0.00043484293
     11080   812.53333      0.0025627062   0.0004302122 
     11100   814            0.0025423309   0.00042635689
     11120   815.46667      0.0025223953   0.00042237706
     11140   816.93333      0.002502881    0.00041811928
     11160   818.4          0.002483558    0.00041427004
     11180   819.86667      0.0024642      0.00041016131
     11200   821.33333      0.002444785    0.00040680079
     11220   822.8          0.0024255271   0.00040255216
     11240   824.26667      0.0024066719   0.0003989581 
     11260   825.73333      0.0023882699   0.00039531616
     11280   827.2          0.0023701608   0.00039149232
     11300   828.66667      0.0023521641   0.00038812202
     11320   830.13333      0.0023342875   0.00038432826
     11340   831.6          0.0023167154   0.00038122373
     11360   833.06667      0.0022996036   0.00037780451
     11380   834.53333      0.0022829198   0.00037461979
     11400   836            0.0022664799   0.00037151931
     11420   837.46667      0.0022501566   0.00036807932
     11440   838.93333      0.0022340312   0.00036508287
     11460   840.4          0.0022183033   0.00036190422
     11480   841.86667      0.0022030817   0.00035916212
     11500   843.33333      0.0021882572   0.00035628429
     11520   844.8          0.0021735959   0.00035351859
     11540   846.26667      0.0021589553   0.00035088484
     11560   847.73333      0.002144383    0.00034780033
     11580   849.2          0.0021300334   0.00034517904
     11600   850.66667      0.0021160134   0.00034238069
     11620   852.13333      0.0021022646   0.00034000514
     11640   853.6          0.0020886207   0.00033719824
     11660   855.06667      0.0020749807   0.00033475998
     11680   856.53333      0.0020613877   0.0003323936 
     11700   858            0.002047954    0.0003295216 
     11720   859.46667      0.0020347589   0.00032713228
     11740   860.93333      0.0020218117   0.00032474079
     11760   862.4          0.0020091095   0.00032239213
     11780   863.86667      0.0019966993   0.00031989799
     11800   865.33333      0.0019846286   0.00031771663
     11820   866.8          0.0019728573   0.0003157215 
     11840   868.26667      0.0019612776   0.00031355627
     11860   869.73333      0.0019498221   0.00031127816
     11880   871.2          0.0019385448   0.00030917103
     11900   872.66667      0.0019275959   0.00030717234
     11920   874.13333      0.0019170876   0.00030529115
     11940   875.6          0.0019069791   0.00030345863
     11960   877.06667      0.0018971139   0.00030170128
     11980   878.53333      0.0018873555   0.0003001492 
     12000   880            0.0018776861   0.000298125  
     12020   881.46667      0.0018681863   0.0002963477 
     12040   882.93333      0.0018589294   0.00029463961
     12060   884.4          0.0018499098   0.00029287916
     12080   885.86667      0.0018410776   0.00029127697
     12100   887.33333      0.0018324309   0.00028984289
     12120   888.8          0.0018240594   0.00028840492
     12140   890.26667      0.0018160961   0.00028702304
     12160   891.73333      0.0018086145   0.00028549007
     12180   893.2          0.0018015575   0.00028402955
     12200   894.66667      0.0017947657   0.00028282399
     12220   896.13333      0.0017880903   0.00028154717
     12240   897.6          0.0017814942   0.00028017139
     12260   899.06667      0.0017750529   0.00027900454
     12280   900.53333      0.0017688698   0.00027808648
     12300   902            0.0017629899   0.00027685309
     12320   903.46667      0.0017573722   0.00027580637
     12340   904.93333      0.0017519364   0.00027485838
     12360   906.4          0.0017466397   0.00027394007
     12380   907.86667      0.001741517    0.00027291856
     12400   909.33333      0.0017366544   0.00027203238
     12420   910.8          0.0017321325   0.00027110163
     12440   912.26667      0.0017279827   0.00027027898
     12460   913.73333      0.0017241867   0.00026956597
     12480   915.2          0.0017207028   0.00026893832
     12500   916.66667      0.0017174942   0.0002684279 
     12520   918.13333      0.0017145473   0.00026791943
     12540   919.6          0.0017118647   0.00026744382
     12560   921.06667      0.0017094489   0.00026685887
     12580   922.53333      0.0017072871   0.00026638424
     12600   924            0.0017053649   0.00026597657
     12620   925.46667      0.0017036738   0.00026563478
     12640   926.93333      0.0017022202   0.00026540665
     12660   928.4          0.0017010329   0.00026520386
     12680   929.86667      0.0017001522   0.00026507626
     12700   931.33333      0.0016995942   0.00026477717
     12720   932.8          0.0016993235   0.0002646703 
     12740   934.26667      0.0016992705   0.00026461169
     12760   935.73333      0.0016993774   0.00026456725
     12780   937.2          0.0016996306   0.00026455988
     12800   938.66667      0.001700059    0.0002646213 
     12820   940.13333      0.0017007039   0.00026482076
     12840   941.6          0.0017015791   0.00026487824
     12860   943.06667      0.0017026482   0.00026493272
     12880   944.53333      0.0017038391   0.00026510172
     12900   946            0.0017050887   0.00026529547
     12920   947.46667      0.0017063854   0.00026551572
     12940   948.93333      0.001707774    0.00026599737
     12960   950.4          0.0017093344   0.00026611126
     12980   951.86667      0.0017111446   0.00026624827
     13000   953.33333      0.0017132414   0.00026655284
     13020   954.8          0.0017156029   0.00026692012
     13040   956.26667      0.0017181728   0.00026731624
     13060   957.73333      0.001720904    0.00026783066
     13080   959.2          0.0017237902   0.00026836703
     13100   960.66667      0.0017268644   0.0002689476 
     13120   962.13333      0.0017301659   0.0002694946 
     13140   963.6          0.0017336967   0.00026985524
     13160   965.06667      0.0017374153   0.00027047141
     13180   966.53333      0.0017412627   0.00027116583
     13200   968            0.0017451982   0.00027186788
     13220   969.46667      0.0017492157   0.00027241441
     13240   970.93333      0.0017533345   0.00027303315
     13260   972.4          0.001757579    0.00027374363
     13280   973.86667      0.0017619627   0.00027451986
     13300   975.33333      0.0017664863   0.00027525007
     13320   976.8          0.0017711394   0.00027591661
     13340   978.26667      0.0017759051   0.00027671531
     13360   979.73333      0.0017807725   0.00027754179
     13380   981.2          0.0017857381   0.00027848699
     13400   982.66667      0.0017907994   0.00027931598
     13420   984.13333      0.0017959473   0.00028027815
     13440   985.6          0.0018011601   0.00028113792
     13460   987.06667      0.0018064143   0.00028211623
     13480   988.53333      0.0018117101   0.00028327908
     13500   990            0.0018170864   0.00028409026
     13520   991.46667      0.0018225918   0.00028501376
     13540   992.93333      0.0018282476   0.00028596031
     13560   994.4          0.0018340585   0.00028716447
     13580   995.86667      0.0018400197   0.00028805463
     13600   997.33333      0.0018461017   0.00028921664
     13620   998.8          0.0018522484   0.00029037184
     13640   1000.2667      0.0018583764   0.00029143019
     13660   1001.7333      0.001864373    0.00029269198
     13680   1003.2         0.0018701272   0.0002936223 
     13700   1004.6667      0.001875598    0.00029471055
     13720   1006.1333      0.0018808354   0.00029567952
     13740   1007.6         0.0018859376   0.00029685882
     13760   1009.0667      0.0018910107   0.00029796198
     13780   1010.5333      0.0018961401   0.00029897911
     13800   1012           0.0019013893   0.0002998773 
     13820   1013.4667      0.0019068286   0.00030092291
     13840   1014.9333      0.0019125242   0.00030190868
     13860   1016.4         0.0019185061   0.00030309941
     13880   1017.8667      0.001924749    0.00030441051
     13900   1019.3333      0.0019311778   0.00030560739
     13920   1020.8         0.001937711    0.00030711748
     13940   1022.2667      0.0019442933   0.00030842988
     13960   1023.7333      0.0019508956   0.00030970219
     13980   1025.2         0.0019575153   0.00031088886
     14000   1026.6667      0.0019641693   0.00031199334
     14020   1028.1333      0.0019708823   0.00031333167
     14040   1029.6         0.0019776662   0.0003147189 
     14060   1031.0667      0.0019845097   0.0003161484 
     14080   1032.5333      0.0019913915   0.00031776661
     14100   1034           0.0019983071   0.00031912667
     14120   1035.4667      0.0020052807   0.00032037968
     14140   1036.9333      0.0020123438   0.00032176152
     14160   1038.4         0.002019523    0.00032328697
     14180   1039.8667      0.0020268687   0.00032480224
     14200   1041.3333      0.0020344454   0.0003263506 
     14220   1042.8         0.0020422702   0.00032803708
     14240   1044.2667      0.0020503074   0.00032950555
     14260   1045.7333      0.0020584954   0.00033107602
     14280   1047.2         0.0020667453   0.00033272838
     14300   1048.6667      0.0020749518   0.00033440292
     14320   1050.1333      0.0020830298   0.00033616301
     14340   1051.6         0.0020909561   0.00033777436
     14360   1053.0667      0.002098763    0.00033939304
     14380   1054.5333      0.0021064571   0.00034108867
     14400   1056           0.0021139812   0.00034279091
     14420   1057.4667      0.0021212743   0.00034442447
     14440   1058.9333      0.0021283312   0.00034608006
     14460   1060.4         0.0021351913   0.00034766535
     14480   1061.8667      0.0021418558   0.00034931633
     14500   1063.3333      0.0021482781   0.00035065187
     14520   1064.8         0.0021544661   0.00035206483
     14540   1066.2667      0.0021605274   0.00035349517
     14560   1067.7333      0.0021666138   0.00035497387
     14580   1069.2         0.002172775    0.00035650749
     14600   1070.6667      0.0021789434   0.00035816361
     14620   1072.1333      0.0021850567   0.00035981347
     14640   1073.6         0.0021911017   0.00036119002
     14660   1075.0667      0.0021970459   0.00036263527
     14680   1076.5333      0.002202891    0.00036408979
     14700   1078           0.0022086678   0.00036558706
     14720   1079.4667      0.0022143659   0.00036708363
     14740   1080.9333      0.0022200095   0.00036872316
     14760   1082.4         0.0022256795   0.00037031852
     14780   1083.8667      0.0022314598   0.00037172104
     14800   1085.3333      0.0022373988   0.00037326473
     14820   1086.8         0.0022435042   0.00037481567
     14840   1088.2667      0.0022497418   0.0003767171 
     14860   1089.7333      0.0022560684   0.00037860978
     14880   1091.2         0.002262451    0.00038015024
     14900   1092.6667      0.0022688473   0.00038171512
     14920   1094.1333      0.0022751666   0.00038333305
     14940   1095.6         0.0022812118   0.00038546448
     14960   1097.0667      0.0022867513   0.00038693328
     14980   1098.5333      0.0022917745   0.00038844788
     15000   1100           0.002296287    0.00038988563
     15020   1101.4667      0.0022999653   0.00039138878
     15040   1102.9333      0.0023028622   0.00039244167
     15060   1104.4         0.002305798    0.00039349216
     15080   1105.8667      0.0023089263   0.00039463979
     15100   1107.3333      0.0023120599   0.00039582741
     15120   1108.8         0.0023154124   0.00039746408
     15140   1110.2667      0.0023192069   0.00039877981
     15160   1111.7333      0.0023234403   0.00040024924
     15180   1113.2         0.0023275332   0.00040194985
     15200   1114.6667      0.0023309379   0.00040319063
     15220   1116.1333      0.0023333104   0.0004046024 
     15240   1117.6         0.0023350271   0.00040564766
     15260   1119.0667      0.0023370916   0.00040733425
     15280   1120.5333      0.0023395929   0.00040838933
     15300   1122           0.0023424998   0.00040987095
     15320   1123.4667      0.0023453536   0.00041107287
     15340   1124.9333      0.0023473165   0.00041242318
     15360   1126.4         0.0023477134   0.00041322951
     15380   1127.8667      0.0023491753   0.0004146031 
     15400   1129.3333      0.0023509302   0.00041566144
     15420   1130.8         0.0023529326   0.00041714975
     15440   1132.2667      0.0023554779   0.00041837505
     15460   1133.7333      0.0023580661   0.00042017965
     15480   1135.2         0.0023607312   0.0004213224 
     15500   1136.6667      0.0023635957   0.00042300666
     15520   1138.1333      0.0023666602   0.00042436098
     15540   1139.6         0.0023691001   0.0004260457 
     15560   1141.0667      0.0023700594   0.00042714685
     15580   1142.5333      0.0023705741   0.00042853206
     15600   1144           0.0023711825   0.00042951675
     15620   1145.4667      0.002371987    0.00043109076
     15640   1146.9333      0.0023732281   0.00043221551
     15660   1148.4         0.0023749382   0.00043370865
     15680   1149.8667      0.0023770404   0.00043490458
     15700   1151.3333      0.0023793818   0.0004365297 
     15720   1152.8         0.0023816701   0.00043819097
     15740   1154.2667      0.0023836808   0.00043980236
     15760   1155.7333      0.0023856065   0.00044146758
     15780   1157.2         0.0023876705   0.0004433163 
     15800   1158.6667      0.0023898905   0.00044465376
     15820   1160.1333      0.0023918799   0.00044645614
     15840   1161.6         0.0023914238   0.00044759356
     15860   1163.0667      0.0023885514   0.00044839265
     15880   1164.5333      0.0023867062   0.00044939387
     15900   1166           0.0023853424   0.00045041476
     15920   1167.4667      0.0023837839   0.00045152066
     15940   1168.9333      0.0023823865   0.00045222801
     15960   1170.4         0.0023800327   0.00045327302
     15980   1171.8667      0.0023735917   0.00045357981
     16000   1173.3333      0.0023643861   0.00045337685
     16020   1174.8         0.0023565577   0.00045352436
     16040   1176.2667      0.0023484436   0.00045344895
     16060   1177.7333      0.0023408376   0.00045346696
     16080   1179.2         0.0023326737   0.00045286966
     16100   1180.6667      0.0023236531   0.00045261832
     16120   1182.1333      0.0023169178   0.00045293394
     16140   1183.6         0.0023111828   0.00045311831
     16160   1185.0667      0.0023064172   0.00045378709
     16180   1186.5333      0.002302184    0.00045455946
     16200   1188           0.0022983621   0.00045539262
     16220   1189.4667      0.0022953512   0.00045591645
     16240   1190.9333      0.0022929801   0.00045712856
     16260   1192.4         0.0022909009   0.00045847159
     16280   1193.8667      0.0022885525   0.00045961196
     16300   1195.3333      0.0022855688   0.00046061347
     16320   1196.8         0.002282828    0.00046188788
     16340   1198.2667      0.0022802183   0.00046302244
     16360   1199.7333      0.0022773774   0.00046375719
     16380   1201.2         0.0022731903   0.00046492183
     16400   1202.6667      0.0022645201   0.00046516447
     16420   1204.1333      0.0022568251   0.00046542882
     16440   1205.6         0.0022422695   0.00046437586
     16460   1207.0667      0.0022155713   0.00046051887
     16480   1208.5333      0.0022035759   0.00046001297
     16500   1210           0.002190894    0.00045893493
     16520   1211.4667      0.0021802322   0.00045942457
     16540   1212.9333      0.0021704133   0.000459471  
     16560   1214.4         0.0021615234   0.00045918488
     16580   1215.8667      0.0021529915   0.00045936006
     16600   1217.3333      0.0021451373   0.00045959338
     16620   1218.8         0.0021383906   0.0004600505 
     16640   1220.2667      0.0021325315   0.00046005064
     16660   1221.7333      0.0021277429   0.00046108228
     16680   1223.2         0.0021237755   0.00046243368
     16700   1224.6667      0.0021203172   0.00046394738
     16720   1226.1333      0.0021172137   0.00046532716
     16740   1227.6         0.0021142084   0.00046719106
     16760   1229.0667      0.0021110689   0.00046854799
     16780   1230.5333      0.0021077864   0.00046991776
     16800   1232           0.0021045002   0.00047183286
     16820   1233.4667      0.0021013226   0.00047317989
     16840   1234.9333      0.002098386    0.0004747552 
     16860   1236.4         0.0020957505   0.00047738008
     16880   1237.8667      0.0020931882   0.0004792455 
     16900   1239.3333      0.0020905705   0.00048104549
     16920   1240.8         0.0020878895   0.00048403265
     16940   1242.2667      0.0020853857   0.00048573735
     16960   1243.7333      0.0020831358   0.00048728108
     16980   1245.2         0.0020808323   0.00048952128
     17000   1246.6667      0.0020784817   0.00049099168
     17020   1248.1333      0.0020761732   0.00049278614
     17040   1249.6         0.0020739063   0.00049556886
     17060   1251.0667      0.0020717239   0.00049826766
     17080   1252.5333      0.0020697361   0.00050040771
     17100   1254           0.0020679208   0.00050266159
     17120   1255.4667      0.0020661569   0.00050465637
     17140   1256.9333      0.0020645102   0.00050644859
     17160   1258.4         0.002063175    0.00050945115
     17180   1259.8667      0.0020620744   0.00051135072
     17200   1261.3333      0.0020578831   0.00051271416
     17220   1262.8         0.002036801    0.00051070868
     17240   1264.2667      0.0020246474   0.0005105671 
     17260   1265.7333      0.0020154083   0.00051056266
     17280   1267.2         0.0020081398   0.00051203914
     17300   1268.6667      0.0020033592   0.00051368703
     17320   1270.1333      0.0019993325   0.00051565203
     17340   1271.6         0.0019965177   0.00051918806
     17360   1273.0667      0.0019938276   0.000522221  
     17380   1274.5333      0.0019914867   0.00052433401
     17400   1276           0.0019892544   0.0005278718 
     17420   1277.4667      0.0019871107   0.00052787286
     17440   1278.9333      0.0019850499   0.00052722809
     17460   1280.4         0.0019830428   0.0005263569 
     17480   1281.8667      0.0019811987   0.00052588328
     17500   1283.3333      0.0019795831   0.00052534586
     17520   1284.8         0.0019781827   0.00052537295
     17540   1286.2667      0.0019770664   0.00052509105
     17560   1287.7333      0.0019762397   0.00052445472
     17580   1289.2         0.0019755625   0.0005240242 
     17600   1290.6667      0.001974964    0.00052397078
     17620   1292.1333      0.0019744966   0.00052447005
     17640   1293.6         0.0019741078   0.00052446447
     17660   1295.0667      0.0019735916   0.0005241986 
     17680   1296.5333      0.001972809    0.00052362297
     17700   1298           0.0019718021   0.00052322362
     17720   1299.4667      0.0019707205   0.00052316488
     17740   1300.9333      0.0019696972   0.00052280952
     17760   1302.4         0.0019687912   0.00052267588
     17780   1303.8667      0.0019679901   0.00052231283
     17800   1305.3333      0.0019672622   0.00052253006
     17820   1306.8         0.0019665862   0.00052301876
     17840   1308.2667      0.0019659299   0.00052301364
     17860   1309.7333      0.00196528     0.0005229424 
     17880   1311.2         0.0019646495   0.00052264866
     17900   1312.6667      0.0019640476   0.00052292066
     17920   1314.1333      0.0019634587   0.0005229915 
     17940   1315.6         0.0019628594   0.00052284877
     17960   1317.0667      0.0019622352   0.00052292872
     17980   1318.5333      0.0019612399   0.00052337341
     18000   1320           0.0019519628   0.00052094399
     18020   1321.4667      0.0019343509   0.00051533063
     18040   1322.9333      0.0019199585   0.00051174103
     18060   1324.4         0.001905945    0.00050822167
     18080   1325.8667      0.0018954044   0.00050571386
     18100   1327.3333      0.0018867099   0.0005045138 
     18120   1328.8         0.0018790423   0.00050281498
     18140   1330.2667      0.0018724677   0.00050092806
     18160   1331.7333      0.0018669293   0.00049977801
     18180   1333.2         0.0018621946   0.0004988236 
     18200   1334.6667      0.0018581668   0.00049860903
     18220   1336.1333      0.0018546088   0.00049734989
     18240   1337.6         0.001851507    0.00049612125
     18260   1339.0667      0.0018488437   0.00049539768
     18280   1340.5333      0.0018464974   0.00049462331
     18300   1342           0.0018441554   0.00049419987
     18320   1343.4667      0.0018418357   0.00049359519
     18340   1344.9333      0.0018400699   0.00049361929
     18360   1346.4         0.0018391163   0.0004934397 
     18380   1347.8667      0.0018386451   0.00049401695
     18400   1349.3333      0.0018382434   0.00049404913
     18420   1350.8         0.0018377762   0.00049284789
     18440   1352.2667      0.0018373163   0.00049253988
     18460   1353.7333      0.0018368769   0.00049170154
     18480   1355.2         0.00183642     0.00049134218
     18500   1356.6667      0.0018359651   0.00049049622
     18520   1358.1333      0.0018355476   0.00049018604
     18540   1359.6         0.0018351502   0.00049009857
     18560   1361.0667      0.0018347415   0.00049034975
     18580   1362.5333      0.0018343456   0.00048962734
     18600   1364           0.0018340032   0.00048910267
     18620   1365.4667      0.0018337131   0.000489678  
     18640   1366.9333      0.0018334434   0.00048942363
     18660   1368.4         0.0018331908   0.00048883791
     18680   1369.8667      0.0018330003   0.00048842189
     18700   1371.3333      0.0018328613   0.00048778042
     18720   1372.8         0.0018326423   0.0004879605 
     18740   1374.2667      0.0018322085   0.00048760414
     18760   1375.7333      0.0018316466   0.00048749865
     18780   1377.2         0.0018311569   0.00048717362
     18800   1378.6667      0.0018307322   0.0004871375 
     18820   1380.1333      0.0018303267   0.00048680704
     18840   1381.6         0.0018299711   0.00048676556
     18860   1383.0667      0.0018296776   0.00048663795
     18880   1384.5333      0.0018294387   0.00048659964
     18900   1386           0.0018292809   0.00048698663
     18920   1387.4667      0.0018292225   0.00048709797
     18940   1388.9333      0.0018292283   0.0004870647 
     18960   1390.4         0.0018292259   0.00048674819
     18980   1391.8667      0.0018291569   0.00048679582
     19000   1393.3333      0.0018290098   0.00048689638
     19020   1394.8         0.001828716    0.00048714893
     19040   1396.2667      0.0018281487   0.00048793626
     19060   1397.7333      0.0018274368   0.00048766312
     19080   1399.2         0.0018267859   0.00048800122
     19100   1400.6667      0.0018262357   0.00048767989
     19120   1402.1333      0.001825769    0.0004870923 
     19140   1403.6         0.001825325    0.00048705214
     19160   1405.0667      0.0018249161   0.00048807286
     19180   1406.5333      0.0018245622   0.0004872987 
     19200   1408           0.001824239    0.00048742747
     19220   1409.4667      0.0018239467   0.00048750738
     19240   1410.9333      0.0018230912   0.00048779822
     19260   1412.4         0.0018134463   0.00048497862
     19280   1413.8667      0.0018021878   0.00048230785
     19300   1415.3333      0.0017955735   0.00048083973
     19320   1416.8         0.0017872753   0.0004788259 
     19340   1418.2667      0.0017779883   0.00047646403
     19360   1419.7333      0.0017738211   0.00047574559
     19380   1421.2         0.0017704561   0.00047501448
     19400   1422.6667      0.0017677224   0.00047433091
     19420   1424.1333      0.0017653706   0.00047260445
     19440   1425.6         0.0017632679   0.00047170106
     19460   1427.0667      0.0017613642   0.00047105927
     19480   1428.5333      0.001759646    0.00047082774
     19500   1430           0.001758063    0.00047009269
     19520   1431.4667      0.0017566191   0.00046954867
     19540   1432.9333      0.0017551775   0.00046892643
     19560   1434.4         0.0017536259   0.00046842898
     19580   1435.8667      0.0017521006   0.00046822248
     19600   1437.3333      0.0017508378   0.00046758045
     19620   1438.8         0.0017499266   0.0004680761 
     19640   1440.2667      0.0017492698   0.00046815863
     19660   1441.7333      0.0017486531   0.00046811847
     19680   1443.2         0.0017479735   0.00046864003
     19700   1444.6667      0.0017472425   0.00046795012
     19720   1446.1333      0.0017465091   0.0004669531 
     19740   1447.6         0.0017458236   0.00046666543
     19760   1449.0667      0.0017452108   0.00046610386
     19780   1450.5333      0.0017446777   0.00046578676
     19800   1452           0.0017442315   0.00046559966
     19820   1453.4667      0.0017438755   0.00046570962
     19840   1454.9333      0.0017435917   0.00046591684
     19860   1456.4         0.0017433538   0.00046605781
     19880   1457.8667      0.0017431368   0.0004662092 
     19900   1459.3333      0.0017429113   0.00046639344
     19920   1460.8         0.0017426466   0.00046609654
     19940   1462.2667      0.0017423307   0.00046558461
     19960   1463.7333      0.0017419767   0.00046538275
     19980   1465.2         0.0017416057   0.00046473626
     20000   1466.6667      0.0017412248   0.00046427697
     20020   1468.1333      0.0017408365   0.00046360441
     20040   1469.6         0.0017404537   0.00046250116
     20060   1471.0667      0.0017400878   0.00046219676
     20080   1472.5333      0.0017397348   0.0004620366 
     20100   1474           0.0017393906   0.00046142035
     20120   1475.4667      0.0017390634   0.00046119888
     20140   1476.9333      0.0017387599   0.00046114118
     20160   1478.4         0.0017384654   0.00046119273
     20180   1479.8667      0.0017381599   0.00046112037
     20200   1481.3333      0.001737838    0.00046085119
     20220   1482.8         0.0017374971   0.00046088054
     20240   1484.2667      0.0017371388   0.00046097027
     20260   1485.7333      0.0017368201   0.00046112449
     20280   1487.2         0.0017365948   0.00046064697
     20300   1488.6667      0.0017364148   0.00046068874
     20320   1490.1333      0.001736224    0.00046068502
     20340   1491.6         0.0017360297   0.00046057861
     20360   1493.0667      0.0017358482   0.00046044137
     20380   1494.5333      0.0017356781   0.00046043159
     20400   1496           0.0017355222   0.00046062752
     20420   1497.4667      0.0017353902   0.00046067799
     20440   1498.9333      0.0017352915   0.00046071384
     20460   1500.4         0.0017352299   0.00046111809
     20480   1501.8667      0.0017352025   0.0004613299 
     20500   1503.3333      0.0017352027   0.00046183541
     20520   1504.8         0.0017352278   0.00046106542
     20540   1506.2667      0.0017352815   0.00046149717
     20560   1507.7333      0.0017353649   0.00046105371
     20580   1509.2         0.0017354697   0.00046104238
     20600   1510.6667      0.0017355805   0.00046116932
     20620   1512.1333      0.001735681    0.00046162233
     20640   1513.6         0.001735758    0.00046178245
     20660   1515.0667      0.0017358047   0.00046196886
     20680   1516.5333      0.0017358199   0.00046215457
     20700   1518           0.0017358084   0.00046228161
     20720   1519.4667      0.0017357806   0.00046261955
     20740   1520.9333      0.0017357486   0.00046271037
     20760   1522.4         0.0017357257   0.00046257919
     20780   1523.8667      0.0017357263   0.00046250064
     20800   1525.3333      0.0017357658   0.00046146349
     20820   1526.8         0.0017358584   0.00046138905
     20840   1528.2667      0.0017360144   0.00046135266
     20860   1529.7333      0.0017362378   0.00046136088
     20880   1531.2         0.0017365251   0.00046203214
     20900   1532.6667      0.0017368656   0.00046240805
     20920   1534.1333      0.0017372463   0.00046245586
     20940   1535.6         0.0017376552   0.00046233017
     20960   1537.0667      0.0017380838   0.00046211905
     20980   1538.5333      0.0017385273   0.00046221175
     21000   1540           0.0017389813   0.0004623322 
     21020   1541.4667      0.0017394408   0.00046248895
     21040   1542.9333      0.0017399011   0.00046262683
     21060   1544.4         0.0017403582   0.0004628631 
     21080   1545.8667      0.0017408086   0.00046287413
     21100   1547.3333      0.0017412486   0.00046253863
     21120   1548.8         0.0017416739   0.00046239188
     21140   1550.2667      0.0017420824   0.00046252093
     21160   1551.7333      0.0017424775   0.00046243663
     21180   1553.2         0.0017428687   0.00046231674
     21200   1554.6667      0.0017432678   0.00046228047
     21220   1556.1333      0.0017436835   0.00046205345
     21240   1557.6         0.0017441181   0.00046191794
     21260   1559.0667      0.001744567    0.00046187817
     21280   1560.5333      0.00174502     0.00046195933
     21300   1562           0.0017454629   0.00046207568
     21320   1563.4667      0.0017458791   0.00046237686
     21340   1564.9333      0.0017462532   0.00046251185
     21360   1566.4         0.00174658     0.00046256338
     21380   1567.8667      0.0017468761   0.00046258103
     21400   1569.3333      0.0017471787   0.00046203359
     21420   1570.8         0.0017475092   0.00046236915
     21440   1572.2667      0.0017478285   0.00046240886
     21460   1573.7333      0.0017480488   0.00046268024
     21480   1575.2         0.0017481357   0.00046249851
     21500   1576.6667      0.0017481758   0.00046252177
     21520   1578.1333      0.0017482237   0.00046224255
     21540   1579.6         0.0017482326   0.00046244066
     21560   1581.0667      0.0017481857   0.0004626825 
     21580   1582.5333      0.0017481066   0.00046272441
     21600   1584           0.0017480121   0.00046281669
     21620   1585.4667      0.0017479031   0.0004630027 
     21640   1586.9333      0.0017477655   0.00046237554
     21660   1588.4         0.0017475794   0.00046236536
     21680   1589.8667      0.0017473246   0.00046234947
     21700   1591.3333      0.0017469863   0.00046229056
     21720   1592.8         0.0017465596   0.00046226293
     21740   1594.2667      0.0017460487   0.00046221488
     21760   1595.7333      0.0017454604   0.00046228835
     21780   1597.2         0.0017447972   0.00046224033
     21800   1598.6667      0.0017440567   0.00046196921
     21820   1600.1333      0.0017432373   0.00046193024
     21840   1601.6         0.0017423442   0.00046190113
     21860   1603.0667      0.0017413885   0.00046182645
     21880   1604.5333      0.0017403804   0.00046153595
     21900   1606           0.0017393239   0.00046141594
     21920   1607.4667      0.0017382204   0.00046059163
     21940   1608.9333      0.0017370711   0.00046011476
     21960   1610.4         0.0017358772   0.00045995874
     21980   1611.8667      0.001734638    0.00045946276
     22000   1613.3333      0.0017333523   0.00045909152
     22020   1614.8         0.0017320214   0.00045871657
     22040   1616.2667      0.0017306506   0.00045875126
     22060   1617.7333      0.001729244    0.00045851969
     22080   1619.2         0.0017277891   0.00045815   
     22100   1620.6667      0.0017262472   0.00045800503
     22120   1622.1333      0.0017245557   0.00045722613
     22140   1623.6         0.0017226312   0.00045612428
     22160   1625.0667      0.0017203846   0.00045558148
     22180   1626.5333      0.0017177538   0.00045493102
     22200   1628           0.0017147219   0.00045354235
     22220   1629.4667      0.0017113235   0.00045252377
     22240   1630.9333      0.0017076396   0.00045148679
     22260   1632.4         0.0017037869   0.00045053035
     22280   1633.8667      0.0016998953   0.0004495377 
     22300   1635.3333      0.0016960489   0.00044816777
     22320   1636.8         0.0016922401   0.00044714973
     22340   1638.2667      0.0016884053   0.00044610277
     22360   1639.7333      0.0016844703   0.00044568763
     22380   1641.2         0.0016803511   0.00044439173
     22400   1642.6667      0.0016759401   0.00044314089
     22420   1644.1333      0.0016711286   0.00044193566
     22440   1645.6         0.0016658281   0.0004406589 
     22460   1647.0667      0.0016599393   0.00043844661
     22480   1648.5333      0.001653471    0.00043656014
     22500   1650           0.0016466439   0.00043470146
     22520   1651.4667      0.0016396283   0.00043288723
     22540   1652.9333      0.0016322717   0.00043091896
     22560   1654.4         0.0016242406   0.00042878807
     22580   1655.8667      0.0016143541   0.00042598276
     22600   1657.3333      0.0015984531   0.00042184208
     22620   1658.8         0.0015774545   0.00041639723
     22640   1660.2667      0.0015581678   0.00041151234
     22660   1661.7333      0.0015392455   0.0004074519 
     22680   1663.2         0.0015238703   0.0004031907 
     22700   1664.6667      0.0015082033   0.00039905746
     22720   1666.1333      0.0014910701   0.00039410593
     22740   1667.6         0.0014773215   0.00039023578
     22760   1669.0667      0.0014646054   0.00038693028
     22780   1670.5333      0.0014509254   0.00038338321
     22800   1672           0.0014387044   0.00038022989
     22820   1673.4667      0.0014276038   0.00037738369
     22840   1674.9333      0.0014165206   0.00037467759
     22860   1676.4         0.0014054416   0.00037186956
     22880   1677.8667      0.0013942654   0.00036919292
     22900   1679.3333      0.0013833555   0.00036666326
     22920   1680.8         0.0013733025   0.00036390292
     22940   1682.2667      0.001364207    0.00036143657
     22960   1683.7333      0.001355472    0.00035947361
     22980   1685.2         0.0013467462   0.00035649775
     23000   1686.6667      0.0013381467   0.00035425964
     23020   1688.1333      0.0013298724   0.00035194314
     23040   1689.6         0.0013219998   0.0003499467 
     23060   1691.0667      0.0013145189   0.00034806194
     23080   1692.5333      0.0013073428   0.00034626601
     23100   1694           0.0013004081   0.00034470285
     23120   1695.4667      0.0012935813   0.00034306885
     23140   1696.9333      0.0012865972   0.0003412658 
     23160   1698.4         0.0012792092   0.00033945219
     23180   1699.8667      0.0012712869   0.00033750315
     23200   1701.3333      0.0012627886   0.0003353201 
     23220   1702.8         0.001253784    0.00033296654
     23240   1704.2667      0.0012445082   0.00033053745
     23260   1705.7333      0.001235266    0.00032759425
     23280   1707.2         0.0012261717   0.000325215  
     23300   1708.6667      0.0012168943   0.00032279239
     23320   1710.1333      0.0012071081   0.00032042001
     23340   1711.6         0.0011971594   0.00031782638
     23360   1713.0667      0.0011876725   0.00031524799
     23380   1714.5333      0.0011786269   0.00031289556
     23400   1716           0.001169404    0.00031049786
     23420   1717.4667      0.0011595669   0.00030723977
     23440   1718.9333      0.001149266    0.00030443096
     23460   1720.4         0.001138992    0.00030161041
     23480   1721.8667      0.001129081    0.00029923744
     23500   1723.3333      0.0011195152   0.00029668379
     23520   1724.8         0.0011100863   0.00029417354
     23540   1726.2667      0.0011005982   0.00029164586
     23560   1727.7333      0.0010910778   0.0002889626 
     23580   1729.2         0.0010816854   0.00028655072
     23600   1730.6667      0.001072494    0.00028419823
     23620   1732.1333      0.0010634481   0.00028189699
     23640   1733.6         0.0010544699   0.00027928614
     23660   1735.0667      0.0010455565   0.00027694249
     23680   1736.5333      0.0010367472   0.00027466258
     23700   1738           0.0010280561   0.00027240232
     23720   1739.4667      0.0010194696   0.00027014395
     23740   1740.9333      0.0010109726   0.00026815472
     23760   1742.4         0.0010025582   0.00026636602
     23780   1743.8667      0.00099420961  0.0002639384 
     23800   1745.3333      0.00098589439  0.00026185788
     23820   1746.8         0.00097758322  0.00025980082
     23840   1748.2667      0.00096925998  0.00025767237
     23860   1749.7333      0.00096092015  0.00025564227
     23880   1751.2         0.00095256615  0.0002533114 
     23900   1752.6667      0.00094419511  0.00025115421
     23920   1754.1333      0.00093579195  0.00024903122
     23940   1755.6         0.00092733111  0.00024683875
     23960   1757.0667      0.00091878509  0.00024461091
     23980   1758.5333      0.00091013147  0.00024236826
     24000   1760           0.00090135324  0.0002404806 
     24020   1761.4667      0.00089243423  0.0002380936 
     24040   1762.9333      0.00088336053  0.00023549546
     24060   1764.4         0.00087412784  0.00023319301
     24080   1765.8667      0.00086474945  0.00023084155
     24100   1767.3333      0.00085525774  0.00022851664
     24120   1768.8         0.0008456963   0.00022615872
     24140   1770.2667      0.00083610859  0.00022375601
     24160   1771.7333      0.00082652908  0.00022120807
     24180   1773.2         0.00081698057  0.00021815795
     24200   1774.6667      0.00080747609  0.00021555543
     24220   1776.1333      0.00079802183  0.00021298564
     24240   1777.6         0.00078862131  0.00021045545
     24260   1779.0667      0.00077927933  0.00020806904
     24280   1780.5333      0.00077000523  0.0002058181 
     24300   1782           0.00076081568  0.00020320246
     24320   1783.4667      0.00075173462  0.00020084308
     24340   1784.9333      0.0007427896   0.00019868422
     24360   1786.4         0.00073400423  0.00019651532
     24380   1787.8667      0.00072538996  0.00019445357
     24400   1789.3333      0.00071694344  0.00019222062
     24420   1790.8         0.00070865664  0.0001900288 
     24440   1792.2667      0.00070053087  0.00018789961
     24460   1793.7333      0.00069258266  0.0001848306 
     24480   1795.2         0.00068483291  0.00018274366
     24500   1796.6667      0.00067729047  0.00018074446
     24520   1798.1333      0.00066994193  0.00017882986
     24540   1799.6         0.00066275021  0.00017698882
     24560   1801.0667      0.00065565627  0.00017510426
     24580   1802.5333      0.00064858738  0.00017328965
     24600   1804           0.00064147322  0.00017147388
     24620   1805.4667      0.00063426805  0.00016964736
     24640   1806.9333      0.0006269663   0.00016781232
     24660   1808.4         0.00061960354  0.00016597943
     24680   1809.8667      0.00061223634  0.00016419561
     24700   1811.3333      0.00060491662  0.00016237355
     24720   1812.8         0.00059767953  0.00016075431
     24740   1814.2667      0.00059053949  0.00015905558
     24760   1815.7333      0.00058349084  0.00015739614
     24780   1817.2         0.0005765115   0.00015502575
     24800   1818.6667      0.0005695693   0.00015330761
     24820   1820.1333      0.00056263283  0.00015162196
     24840   1821.6         0.00055568243  0.00014995088
     24860   1823.0667      0.00054871692  0.00014819243
     24880   1824.5333      0.00054175223  0.00014652991
     24900   1826           0.00053481455  0.00014490663
     24920   1827.4667      0.00052793142  0.00014324987
     24940   1828.9333      0.00052112566  0.00014156756
     24960   1830.4         0.00051441308  0.0001397807 
     24980   1831.8667      0.00050780341  0.00013808181
     25000   1833.3333      0.0005013017   0.00013637046
     25020   1834.8         0.00049490926  0.00013464589
     25040   1836.2667      0.00048862482  0.00013292356
     25060   1837.7333      0.0004824453   0.0001314188 
     25080   1839.2         0.00047636617  0.0001293314 
     25100   1840.6667      0.00047038116  0.00012754146
     25120   1842.1333      0.00046448251  0.00012554913
     25140   1843.6         0.0004586615   0.00012383425
     25160   1845.0667      0.00045290921  0.00012215229
     25180   1846.5333      0.00044721746  0.00012074608
     25200   1848           0.00044157971  0.0001189818 
     25220   1849.4667      0.00043599245  0.00011737642
     25240   1850.9333      0.00043045564  0.00011575387
     25260   1852.4         0.00042497205  0.00011421704
     25280   1853.8667      0.00041954608  0.00011269281
     25300   1855.3333      0.00041418267  0.00011124707
     25320   1856.8         0.0004088869   0.00010985539
     25340   1858.2667      0.00040366377  0.00010856688
     25360   1859.7333      0.0003985179   0.00010747086
     25380   1861.2         0.00039345294  0.00010624143
     25400   1862.6667      0.00038847115  0.00010464611
     25420   1864.1333      0.00038357328  0.00010342367
     25440   1865.6         0.00037875866  0.00010197951
     25460   1867.0667      0.0003740255   0.00010083387
     25480   1868.5333      0.00036937131  9.9727459e-05
     25500   1870           0.00036479358  9.8715792e-05
     25520   1871.4667      0.00036029053  9.7693667e-05
     25540   1872.9333      0.00035586162  9.6659947e-05
     25560   1874.4         0.00035150779  9.5730365e-05
     25580   1875.8667      0.000347231    9.4850676e-05
     25600   1877.3333      0.00034303359  9.4132269e-05
     25620   1878.8         0.00033891749  9.3355928e-05
     25640   1880.2667      0.00033488372  9.282199e-05 
     25660   1881.7333      0.00033093187  9.2101633e-05
     25680   1883.2         0.00032705982  9.1331225e-05
     25700   1884.6667      0.00032326391  8.9490029e-05
     25720   1886.1333      0.0003195392   8.8603192e-05
     25740   1887.6         0.00031588037  8.7694411e-05
     25760   1889.0667      0.0003122828   8.6761483e-05
     25780   1890.5333      0.00030874312  8.5806827e-05
     25800   1892           0.00030525908  8.4835735e-05
     25820   1893.4667      0.00030182927  8.402954e-05 
     25840   1894.9333      0.00029845296  8.3049666e-05
     25860   1896.4         0.00029512991  8.211056e-05 
     25880   1897.8667      0.00029186078  8.1134374e-05
     25900   1899.3333      0.00028864743  8.0199975e-05
     25920   1900.8         0.00028549282  7.9325687e-05
     25940   1902.2667      0.0002824008   7.8437438e-05
     25960   1903.7333      0.00027937535  7.7544386e-05
     25980   1905.2         0.00027642007  7.6706594e-05
     26000   1906.6667      0.00027353814  7.579826e-05 
     26020   1908.1333      0.00027073244  7.5008665e-05
     26040   1909.6         0.00026800557  7.4544912e-05
     26060   1911.0667      0.00026535971  7.3786981e-05
     26080   1912.5333      0.00026279611  7.2166049e-05
     26100   1914           0.00026031456  7.1403392e-05
     26120   1915.4667      0.00025791305  7.0702466e-05
     26140   1916.9333      0.00025558794  7.0006351e-05
     26160   1918.4         0.00025333488  6.9317329e-05
     26180   1919.8667      0.00025115003  6.8688062e-05
     26200   1921.3333      0.00024903038  6.8122851e-05
     26220   1922.8         0.00024697358  6.7568833e-05
     26240   1924.2667      0.00024497771  6.6968209e-05
     26260   1925.7333      0.00024304157  6.6501986e-05
     26280   1927.2         0.0002411651   6.6088755e-05
     26300   1928.6667      0.00023934939  6.5705322e-05
     26320   1930.1333      0.00023759592  6.5362857e-05
     26340   1931.6         0.00023590514  6.5049803e-05
     26360   1933.0667      0.00023427484  6.473807e-05 
     26380   1934.5333      0.00023269956  6.4466061e-05
     26400   1936           0.00023117121  6.4080253e-05
     26420   1937.4667      0.0002296809   6.3752394e-05
     26440   1938.9333      0.00022822123  6.3357126e-05
     26460   1940.4         0.00022678837  6.3049852e-05
     26480   1941.8667      0.00022538306  6.2753673e-05
     26500   1943.3333      0.00022400995  6.2294535e-05
     26520   1944.8         0.00022267608  6.2038117e-05
     26540   1946.2667      0.00022138844  6.1782883e-05
     26560   1947.7333      0.00022015168  6.1574119e-05
     26580   1949.2         0.00021896802  6.1384003e-05
     26600   1950.6667      0.00021783788  6.1156768e-05
     26620   1952.1333      0.00021676111  6.0986244e-05
     26640   1953.6         0.0002157381   6.0849325e-05
     26660   1955.0667      0.00021477001  6.0683878e-05
     26680   1956.5333      0.00021385807  6.0516059e-05
     26700   1958           0.00021300223  6.0329517e-05
     26720   1959.4667      0.00021220038  6.0110922e-05
     26740   1960.9333      0.0002114485   5.9940604e-05
     26760   1962.4         0.00021074077  5.977174e-05 
     26780   1963.8667      0.00021007047  5.9606511e-05
     26800   1965.3333      0.00020943091  5.9060466e-05
     26820   1966.8         0.00020881619  5.8839697e-05
     26840   1968.2667      0.00020822134  5.8633638e-05
     26860   1969.7333      0.00020764269  5.8541664e-05
     26880   1971.2         0.0002070779   5.83276e-05  
     26900   1972.6667      0.00020652606  5.8076903e-05
     26920   1974.1333      0.00020598762  5.7951516e-05
     26940   1975.6         0.00020546407  5.7793633e-05
     26960   1977.0667      0.00020495767  5.7642438e-05
     26980   1978.5333      0.00020447095  5.7497463e-05
     27000   1980           0.00020400643  5.7358967e-05
     27020   1981.4667      0.00020356638  5.7197798e-05
     27040   1982.9333      0.00020315297  5.7081118e-05
     27060   1984.4         0.00020276878  5.6970958e-05
     27080   1985.8667      0.0002024165   5.6875439e-05
     27100   1987.3333      0.00020209914  5.6749323e-05
     27120   1988.8         0.00020182082  5.6684087e-05
     27140   1990.2667      0.0002015866   5.6665814e-05
     27160   1991.7333      0.00020140121  5.6663183e-05
     27180   1993.2         0.0002012666   5.6636454e-05
     27200   1994.6667      0.00020117997  5.6723443e-05
     27220   1996.1333      0.00020113417  5.6708615e-05
     27240   1997.6         0.00020111982  5.6574526e-05
     27260   1999.0667      0.00020112751  5.6159e-05   
     27280   2000.5333      0.00020114945  5.612955e-05 
     27300   2002           0.00020118054  5.607577e-05 
     27320   2003.4667      0.00020121792  5.6026534e-05
     27340   2004.9333      0.00020125939  5.5904818e-05
     27360   2006.4         0.0002013021   5.5872498e-05
     27380   2007.8667      0.00020134272  5.5850226e-05
     27400   2009.3333      0.00020137844  5.5792845e-05
     27420   2010.8         0.0002014071   5.5793502e-05
     27440   2012.2667      0.00020142601  5.5834389e-05
     27460   2013.7333      0.00020143246  5.5853674e-05
     27480   2015.2         0.00020142475  5.5879946e-05
     27500   2016.6667      0.00020140167  5.5911328e-05
     27520   2018.1333      0.000201362    5.5946112e-05
     27540   2019.6         0.00020130361  5.5982457e-05
     27560   2021.0667      0.00020122365  5.6018854e-05
     27580   2022.5333      0.00020111911  5.6199876e-05
     27600   2024           0.00020098676  5.6207908e-05
     27620   2025.4667      0.00020082461  5.6235125e-05
     27640   2026.9333      0.00020063251  5.6261668e-05
     27660   2028.4         0.00020041288  5.6264024e-05
     27680   2029.8667      0.00020017135  5.6292857e-05
     27700   2031.3333      0.00019991548  5.6350987e-05
     27720   2032.8         0.00019965421  5.6386525e-05
     27740   2034.2667      0.00019939714  5.6330983e-05
     27760   2035.7333      0.00019915264  5.6315529e-05
     27780   2037.2         0.00019892685  5.6357912e-05
     27800   2038.6667      0.00019872342  5.6400674e-05
     27820   2040.1333      0.00019854343  5.592942e-05 
     27840   2041.6         0.00019838552  5.5933967e-05
     27860   2043.0667      0.00019824625  5.5937495e-05
     27880   2044.5333      0.00019812108  5.5939048e-05
     27900   2046           0.00019800547  5.5938225e-05
     27920   2047.4667      0.00019789596  5.5934984e-05
     27940   2048.9333      0.00019779049  5.5998316e-05
     27960   2050.4         0.00019768847  5.5990459e-05
     27980   2051.8667      0.00019759007  5.5934942e-05
     28000   2053.3333      0.00019749517  5.5921371e-05
     28020   2054.8         0.00019740272  5.5903442e-05
     28040   2056.2667      0.00019731052  5.5860176e-05
     28060   2057.7333      0.00019721613  5.58009e-05  
     28080   2059.2         0.00019711761  5.576013e-05 
     28100   2060.6667      0.00019701413  5.5709878e-05
     28120   2062.1333      0.00019690592  5.5650013e-05
     28140   2063.6         0.00019679371  5.549438e-05 
     28160   2065.0667      0.00019667803  5.5419813e-05
     28180   2066.5333      0.00019655854  5.5339684e-05
     28200   2068           0.0001964341   5.5255642e-05
     28220   2069.4667      0.00019630305  5.516945e-05 
     28240   2070.9333      0.00019616373  5.5082892e-05
     28260   2072.4         0.00019601462  5.4997644e-05
     28280   2073.8667      0.00019585462  5.4915059e-05
     28300   2075.3333      0.00019568308  5.4836332e-05
     28320   2076.8         0.00019549977  5.4945429e-05
     28340   2078.2667      0.00019530501  5.4861235e-05
     28360   2079.7333      0.00019509987  5.46661e-05  
     28380   2081.2         0.00019488603  5.4604902e-05
     28400   2082.6667      0.00019466562  5.4548672e-05
     28420   2084.1333      0.00019444125  5.4495481e-05
     28440   2085.6         0.00019421575  5.4450188e-05
     28460   2087.0667      0.00019399217  5.441163e-05 
     28480   2088.5333      0.00019377343  5.4375395e-05
     28500   2090           0.00019356194  5.4441594e-05
     28520   2091.4667      0.00019335923  5.4431527e-05
     28540   2092.9333      0.00019316575  5.4433248e-05
     28560   2094.4         0.00019298088  5.4331854e-05
     28580   2095.8667      0.00019280294  5.4731573e-05
     28600   2097.3333      0.00019262915  5.4763809e-05
     28620   2098.8         0.00019245592  5.4802719e-05
     28640   2100.2667      0.00019227949  5.4072056e-05
     28660   2101.7333      0.00019209613  5.4088674e-05
     28680   2103.2         0.00019190237  5.4104871e-05
     28700   2104.6667      0.00019169556  5.4118777e-05
     28720   2106.1333      0.00019147409  5.4129434e-05
     28740   2107.6         0.00019123755  5.4109248e-05
     28760   2109.0667      0.00019098676  5.4095416e-05
     28780   2110.5333      0.00019072352  5.40944e-05  
     28800   2112           0.0001904505   5.4089923e-05
     28820   2113.4667      0.00019017109  5.4081987e-05
     28840   2114.9333      0.00018988915  5.4070363e-05
     28860   2116.4         0.00018960886  5.4054643e-05
     28880   2117.8667      0.00018933429  5.4034314e-05
     28900   2119.3333      0.00018906938  5.4008966e-05
     28920   2120.8         0.00018881786  5.3978254e-05
     28940   2122.2667      0.00018858319  5.3942187e-05
     28960   2123.7333      0.00018836835  5.3901318e-05
     28980   2125.2         0.00018817583  5.4169759e-05
     29000   2126.6667      0.00018800763  5.4121319e-05
     29020   2128.1333      0.00018786525  5.4070295e-05
     29040   2129.6         0.00018774951  5.4018165e-05
     29060   2131.0667      0.00018766058  5.3884893e-05
     29080   2132.5333      0.00018759795  5.3876376e-05
     29100   2134           0.00018756047  5.3823317e-05
     29120   2135.4667      0.00018754627  5.3770657e-05
     29140   2136.9333      0.00018755268  5.3718045e-05
     29160   2138.4         0.00018757627  5.3665402e-05
     29180   2139.8667      0.00018761287  5.3612408e-05
     29200   2141.3333      0.00018765753  5.3558506e-05
     29220   2142.8         0.0001877046   5.3503291e-05
     29240   2144.2667      0.00018774817  5.3446796e-05
     29260   2145.7333      0.00018778315  5.3389512e-05
     29280   2147.2         0.00018780643  5.3332431e-05
     29300   2148.6667      0.00018781742  5.3277223e-05
     29320   2150.1333      0.00018781793  5.3226314e-05
     29340   2151.6         0.00018781143  5.3176641e-05
     29360   2153.0667      0.00018780238  5.3141246e-05
     29380   2154.5333      0.00018779594  5.3117607e-05
     29400   2156           0.00018779765  5.310825e-05 
     29420   2157.4667      0.0001878128   5.3115468e-05
     29440   2158.9333      0.00018784561  5.3139946e-05
     29460   2160.4         0.00018789868  5.288786e-05 
     29480   2161.8667      0.00018797309  5.294168e-05 
     29500   2163.3333      0.00018806883  5.3008359e-05
     29520   2164.8         0.0001881852   5.3085712e-05
     29540   2166.2667      0.000188321    5.317109e-05 
     29560   2167.7333      0.00018847475  5.3261964e-05
     29580   2169.2         0.00018864479  5.3217461e-05
     29600   2170.6667      0.00018882945  5.3313718e-05
     29620   2172.1333      0.00018902706  5.3374367e-05
     29640   2173.6         0.00018923607  5.347584e-05 
     29660   2175.0667      0.00018945509  5.3579085e-05
     29680   2176.5333      0.000189683    5.3683544e-05
     29700   2178           0.00018991893  5.3789562e-05
     29720   2179.4667      0.00019016223  5.3898155e-05
     29740   2180.9333      0.00019041244  5.4010173e-05
     29760   2182.4         0.00019066923  5.4125994e-05
     29780   2183.8667      0.00019093232  5.4245712e-05
     29800   2185.3333      0.00019120142  5.436933e-05 
     29820   2186.8         0.00019147625  5.449677e-05 
     29840   2188.2667      0.00019175653  5.4627812e-05
     29860   2189.7333      0.00019204205  5.476186e-05 
     29880   2191.2         0.00019233262  5.4897917e-05
     29900   2192.6667      0.00019262806  5.5034988e-05
     29920   2194.1333      0.00019292829  5.5172428e-05
     29940   2195.6         0.00019323338  5.5309532e-05
     29960   2197.0667      0.0001935435   5.5445368e-05
     29980   2198.5333      0.00019385897  5.5579065e-05
     30000   2200           0.00019418014  5.5710007e-05
Loop time of 120.806 on 4 procs for 30000 steps with 3046 atoms

Performance: 1573425.361 tau/day, 248.331 timesteps/s, 756.416 katom-step/s
99.3% CPU use with 4 MPI tasks x no OpenMP threads

MPI task timing breakdown:
Section |  min time  |  avg time  |  max time  |%varavg| %total
---------------------------------------------------------------
Pair    | 0.89764    | 12.463     | 25.361     | 316.2 | 10.32
Neigh   | 0.083839   | 0.94363    | 1.8654     |  87.4 |  0.78
Comm    | 0.23436    | 0.25427    | 0.27244    |   2.9 |  0.21
Output  | 1.2745     | 2.0289     | 2.7205     |  46.3 |  1.68
Modify  | 88.101     | 92.266     | 95.765     |  34.6 | 76.38
Other   |            | 12.85      |            |       | 10.64

Nlocal:          761.5 ave        1685 max         105 min
Histogram: 2 0 0 0 0 0 1 0 0 1
Nghost:           28.5 ave          51 max           7 min
Histogram: 2 0 0 0 0 0 0 0 0 2
Neighs:         6128.5 ave       14174 max         567 min
Histogram: 2 0 0 0 0 0 1 0 0 1
FullNghs:        12164 ave       28184 max        1117 min
Histogram: 2 0 0 0 0 0 1 0 0 1

Total # of neighbors = 48656
Ave neighs/atom = 15.973736
Neighbor list builds = 3012
Dangerous builds = 0

Total wall time: 0:02:00
