LAMMPS data file created from Tinker water_box.xyz and amoeba_water.prm files

648 atoms
432 bonds
216 angles
2 atom types
1 bond types
1 angle types
0 18.643 xlo xhi
0 18.643 ylo yhi
0 18.643 zlo zhi

Masses

1 15.995
2 1.008

Atoms

1 1 1 0 8.679662 7.087692 -0.696862
2 1 2 0 7.809455 6.755792 -0.382259
3 1 2 0 8.722232 6.814243 -1.617561
4 2 1 0 -0.117313 8.244447 6.837616
5 2 2 0 0.216892 7.895445 6.050027
6 2 2 0 0.444268 7.826013 7.530196
7 3 1 0 8.379057 -0.092611 6.814631
8 3 2 0 9.340423 0.098069 6.734062
9 3 2 0 7.939619 0.573676 6.269838
10 4 1 0 6.589952 1.844323 -6.923167
11 4 2 0 5.885429 2.402305 -6.717934
12 4 2 0 6.181533 1.062747 -7.273678
13 5 1 0 7.146600 5.753582 2.331517
14 5 2 0 6.368123 6.126035 2.862678
15 5 2 0 7.025018 6.294645 1.518196
16 6 1 0 -2.426581 -8.504195 -2.504834
17 6 2 0 -1.692063 -8.368252 -3.058292
18 6 2 0 -2.793207 -7.602469 -2.403097
19 7 1 0 -8.038375 -3.605589 2.303691
20 7 2 0 -8.113753 -4.248127 3.018494
21 7 2 0 -7.619392 -2.863004 2.709622
22 8 1 0 -1.480631 8.244085 -8.272215
23 8 2 0 -2.090204 8.687978 -7.676996
24 8 2 0 -0.700878 8.823325 -8.322213
25 9 1 0 -3.741962 -2.777830 -2.326319
26 9 2 0 -4.620456 -2.444778 -2.390519
27 9 2 0 -3.728921 -3.160952 -1.433101
28 10 1 0 -6.467812 -5.265942 0.408263
29 10 2 0 -6.585076 -4.796537 -0.413008
30 10 2 0 -7.021252 -4.752640 1.007958
31 11 1 0 9.273577 5.342431 4.055460
32 11 2 0 8.645939 5.466500 4.837640
33 11 2 0 8.741774 5.686149 3.302820
34 12 1 0 1.830160 4.276731 -6.993499
35 12 2 0 1.703275 5.223773 -6.703852
36 12 2 0 2.408113 3.853447 -6.383339
37 13 1 0 1.964382 6.832988 8.373101
38 13 2 0 2.496135 7.215781 9.056298
39 13 2 0 1.811283 5.905846 8.573539
40 14 1 0 5.405568 4.388994 7.932737
41 14 2 0 5.537380 3.438955 7.781311
42 14 2 0 4.755156 4.734908 7.290617
43 15 1 0 3.229998 2.928417 -1.090650
44 15 2 0 3.931090 3.198265 -1.702769
45 15 2 0 3.004438 3.708969 -0.493266
46 16 1 0 7.462400 5.262829 6.131170
47 16 2 0 8.025650 5.588493 6.881770
48 16 2 0 6.935076 4.455766 6.325405
49 17 1 0 -8.864042 7.023845 -6.659632
50 17 2 0 -8.370939 6.372557 -7.141895
51 17 2 0 -9.489800 7.315873 -7.293125
52 18 1 0 -4.526299 3.549989 8.030031
53 18 2 0 -5.169770 4.224127 7.731323
54 18 2 0 -4.262096 3.801892 8.884875
55 19 1 0 4.823286 -1.386218 4.038464
56 19 2 0 5.493155 -0.669965 4.013081
57 19 2 0 4.187463 -1.101832 3.338433
58 20 1 0 -2.151150 -2.017060 -8.593685
59 20 2 0 -2.475709 -2.320356 -7.783564
60 20 2 0 -2.650484 -2.434614 -9.307384
61 21 1 0 1.944893 4.933226 0.497910
62 21 2 0 2.553221 5.263352 1.205303
63 21 2 0 2.082534 5.590999 -0.202171
64 22 1 0 -6.827006 -5.285917 -2.371899
65 22 2 0 -7.405873 -6.022738 -2.075913
66 22 2 0 -6.398443 -5.453726 -3.235054
67 23 1 0 -8.538047 -7.577917 -1.688532
68 23 2 0 -8.075591 -8.448260 -1.513455
69 23 2 0 -9.389507 -7.836271 -2.051835
70 24 1 0 -6.916556 -1.100882 -5.168782
71 24 2 0 -6.365888 -1.659366 -5.746210
72 24 2 0 -6.538885 -0.249374 -5.325993
73 25 1 0 6.330290 -9.323893 -6.416630
74 25 2 0 7.026026 -9.680578 -7.007727
75 25 2 0 6.812488 -8.683594 -5.925799
76 26 1 0 -2.424345 -5.918126 2.701855
77 26 2 0 -1.613829 -5.486394 2.503024
78 26 2 0 -3.144797 -5.307275 2.618121
79 27 1 0 0.637202 -6.080457 5.849135
80 27 2 0 0.892312 -6.092342 4.907709
81 27 2 0 -0.339074 -5.838972 5.853292
82 28 1 0 5.199216 -2.264918 -0.138343
83 28 2 0 5.802838 -2.788698 -0.697536
84 28 2 0 5.670340 -1.679393 0.462296
85 29 1 0 0.510145 7.629450 4.054500
86 29 2 0 -0.071135 8.146563 3.452959
87 29 2 0 1.464962 7.740819 3.669172
88 30 1 0 3.146724 8.895843 6.526257
89 30 2 0 3.506091 8.599906 7.352942
90 30 2 0 2.145729 8.929622 6.682029
91 31 1 0 7.308541 -8.339335 -2.471342
92 31 2 0 6.562127 -8.180601 -3.062803
93 31 2 0 6.993025 -8.364954 -1.531235
94 32 1 0 -7.530792 1.069683 4.989387
95 32 2 0 -7.565406 1.971422 4.648636
96 32 2 0 -7.938250 0.433547 4.370266
97 33 1 0 4.452035 2.700609 -5.437815
98 33 2 0 4.603326 3.058652 -4.551590
99 33 2 0 4.386453 1.737004 -5.180419
100 34 1 0 8.427922 -8.619286 1.784691
101 34 2 0 8.340498 -8.005342 2.536225
102 34 2 0 8.496720 -9.530562 2.174667
103 35 1 0 -8.109456 1.753830 -3.096997
104 35 2 0 -7.245287 1.827177 -2.721417
105 35 2 0 -8.082178 1.783171 -4.059329
106 36 1 0 2.776933 -5.701955 7.748213
107 36 2 0 3.287974 -5.069688 7.233816
108 36 2 0 1.987041 -5.817355 7.200131
109 37 1 0 3.635171 -6.953519 5.339628
110 37 2 0 3.353851 -7.592789 6.031367
111 37 2 0 2.875801 -6.787975 4.740576
112 38 1 0 6.888027 -4.169023 -1.800190
113 38 2 0 7.559735 -4.813701 -2.004669
114 38 2 0 6.603805 -3.759237 -2.626496
115 39 1 0 -4.470837 -4.105640 3.415362
116 39 2 0 -4.991607 -3.358538 3.140956
117 39 2 0 -4.791764 -4.392214 4.254387
118 40 1 0 8.282263 -0.462068 -2.560579
119 40 2 0 8.776769 -1.293641 -2.335945
120 40 2 0 8.760297 0.384816 -2.651128
121 41 1 0 4.737236 1.616430 4.901115
122 41 2 0 3.969692 2.168368 5.152631
123 41 2 0 5.184651 2.148403 4.154746
124 42 1 0 -3.497332 -5.781436 -2.202713
125 42 2 0 -4.038857 -5.773824 -1.381680
126 42 2 0 -4.152970 -6.012265 -2.829379
127 43 1 0 -2.863989 -0.259334 -1.857006
128 43 2 0 -2.132201 -0.027953 -1.174211
129 43 2 0 -2.873625 -1.224425 -1.874253
130 44 1 0 1.138300 1.133100 -2.085899
131 44 2 0 1.965506 1.503520 -1.725316
132 44 2 0 0.420521 1.534440 -1.551356
133 45 1 0 -0.561328 4.590705 -2.780017
134 45 2 0 -0.061173 3.919356 -3.294128
135 45 2 0 -0.082763 4.733898 -1.955602
136 46 1 0 -6.423002 -1.705204 -2.528225
137 46 2 0 -7.233989 -1.949552 -1.975418
138 46 2 0 -6.678416 -1.321413 -3.351278
139 47 1 0 -2.772100 2.552210 -0.672282
140 47 2 0 -2.907489 3.483552 -0.385605
141 47 2 0 -2.977127 2.592348 -1.635820
142 48 1 0 6.708678 -4.852016 -8.379280
143 48 2 0 6.593474 -5.094964 -7.447187
144 48 2 0 6.582524 -5.591596 -8.966502
145 49 1 0 -8.497001 -0.440284 2.803721
146 49 2 0 -8.422350 0.331961 2.183451
147 49 2 0 -9.377295 -0.756160 2.677026
148 50 1 0 2.975383 -0.894970 6.060783
149 50 2 0 2.093991 -0.995700 5.670129
150 50 2 0 3.458832 -0.759248 5.263958
151 51 1 0 -6.085023 -1.629620 7.970284
152 51 2 0 -6.685848 -2.391830 7.820849
153 51 2 0 -6.177296 -1.190584 8.835912
154 52 1 0 -3.763523 -3.356777 8.285436
155 52 2 0 -4.660650 -3.029414 8.406662
156 52 2 0 -3.411834 -3.178947 7.431180
157 53 1 0 -1.100120 -0.320162 0.375372
158 53 2 0 -0.527013 -1.012183 0.128652
159 53 2 0 -0.673226 0.288559 0.934677
160 54 1 0 0.910209 -8.271802 1.411429
161 54 2 0 0.158544 -8.759532 1.870895
162 54 2 0 0.565924 -7.546113 0.944383
163 55 1 0 1.554065 -6.468033 3.310872
164 55 2 0 1.362455 -7.162802 2.722340
165 55 2 0 1.616233 -5.622409 2.872854
166 56 1 0 0.543127 -1.388652 4.886094
167 56 2 0 0.110320 -0.665826 5.311239
168 56 2 0 0.420366 -2.216367 5.267301
169 57 1 0 1.100526 1.019490 -9.255318
170 57 2 0 1.460815 0.575286 -8.484128
171 57 2 0 0.265613 0.594128 -9.297750
172 58 1 0 -1.842348 2.327827 -5.355326
173 58 2 0 -1.572941 2.573139 -6.288125
174 58 2 0 -2.216679 1.439934 -5.361006
175 59 1 0 2.452307 -2.814686 -6.448759
176 59 2 0 2.862295 -3.091668 -5.589336
177 59 2 0 2.913920 -3.262923 -7.181510
178 60 1 0 -2.207998 -3.112007 5.945795
179 60 2 0 -1.262203 -3.125339 6.205467
180 60 2 0 -2.228269 -2.421858 5.220629
181 61 1 0 5.845471 5.020556 -6.836491
182 61 2 0 5.557986 5.913737 -6.753889
183 61 2 0 5.089998 4.459153 -6.661079
184 62 1 0 -3.421643 4.865553 0.731755
185 62 2 0 -3.965419 4.458452 1.478214
186 62 2 0 -3.973445 4.958338 -0.044430
187 63 1 0 -2.302950 -2.349717 2.112168
188 63 2 0 -2.576438 -1.873492 2.873191
189 63 2 0 -1.882868 -1.715106 1.503782
190 64 1 0 0.305885 4.878766 3.791182
191 64 2 0 0.299338 5.855407 4.097578
192 64 2 0 1.169911 4.563497 4.030616
193 65 1 0 2.925008 -3.664845 -3.607450
194 65 2 0 3.015896 -3.916618 -2.644267
195 65 2 0 2.353923 -2.889459 -3.518284
196 66 1 0 1.111505 -4.070255 -9.085693
197 66 2 0 2.084905 -4.227348 -9.180249
198 66 2 0 0.897072 -4.902218 -8.740523
199 67 1 0 -4.992929 -1.974219 -7.099668
200 67 2 0 -5.173269 -1.186309 -7.673625
201 67 2 0 -5.070893 -2.753273 -7.658821
202 68 1 0 4.730983 1.478420 0.720986
203 68 2 0 4.271686 1.988265 0.034225
204 68 2 0 4.117413 0.788607 1.061818
205 69 1 0 1.421583 -0.176666 -6.729105
206 69 2 0 1.217660 0.394331 -5.978213
207 69 2 0 1.948444 -0.877988 -6.400659
208 70 1 0 -7.093223 -8.541193 4.116187
209 70 2 0 -7.074252 -8.047477 3.242159
210 70 2 0 -6.153142 -8.537148 4.455550
211 71 1 0 8.382540 -6.460958 3.765735
212 71 2 0 9.258625 -6.141972 4.060763
213 71 2 0 7.637364 -6.217910 4.407852
214 72 1 0 -4.320241 4.037137 3.297092
215 72 2 0 -3.750151 4.141786 4.105470
216 72 2 0 -5.172925 4.455578 3.488906
217 73 1 0 5.581877 1.781994 7.505132
218 73 2 0 5.017196 1.139584 8.120950
219 73 2 0 5.330781 1.591217 6.595286
220 74 1 0 -0.734443 1.125031 4.884666
221 74 2 0 -0.239224 1.540322 4.142070
222 74 2 0 -0.961628 1.783437 5.554548
223 75 1 0 6.831005 -9.249970 4.497165
224 75 2 0 6.836746 -9.068011 5.427146
225 75 2 0 7.668067 -9.652510 4.249957
226 76 1 0 2.714055 -3.677581 1.962003
227 76 2 0 3.333432 -3.851775 2.663540
228 76 2 0 3.095021 -3.978526 1.102566
229 77 1 0 -1.364034 -5.762724 -5.514747
230 77 2 0 -2.238584 -5.409106 -5.314718
231 77 2 0 -0.948185 -4.908428 -5.559580
232 78 1 0 -3.623435 -8.061229 1.383141
233 78 2 0 -3.132847 -7.446722 1.857906
234 78 2 0 -4.307943 -7.546630 0.933298
235 79 1 0 5.717894 6.958376 4.528556
236 79 2 0 5.852657 7.879846 4.341790
237 79 2 0 6.443636 6.708413 5.135144
238 80 1 0 8.121415 8.262619 -8.483986
239 80 2 0 8.585190 8.939651 -8.974230
240 80 2 0 7.560207 7.748539 -9.044644
241 81 1 0 -5.111889 -0.352865 5.807903
242 81 2 0 -5.940048 0.102298 5.569630
243 81 2 0 -5.349104 -1.014090 6.507582
244 82 1 0 0.327324 2.563438 0.113251
245 82 2 0 -0.633994 2.522136 -0.069385
246 82 2 0 0.724331 3.482989 0.160564
247 83 1 0 -6.003367 -7.683112 -8.874252
248 83 2 0 -6.987751 -7.912403 -8.892689
249 83 2 0 -5.699015 -8.504722 -8.558813
250 84 1 0 0.789377 -6.357883 -7.563043
251 84 2 0 -0.151101 -6.341313 -7.440906
252 84 2 0 1.090881 -5.879281 -6.770796
253 85 1 0 5.045666 7.219298 -5.151826
254 85 2 0 5.598994 7.846492 -5.618276
255 85 2 0 5.480466 6.978976 -4.337211
256 86 1 0 1.286092 6.990271 -6.806004
257 86 2 0 0.481329 7.140371 -7.345224
258 86 2 0 1.716012 7.791024 -6.762706
259 87 1 0 -3.198783 -9.175883 -6.334156
260 87 2 0 -3.032721 -8.198157 -6.198635
261 87 2 0 -3.084774 -9.539992 -5.434969
262 88 1 0 -2.002554 -5.668583 5.440781
263 88 2 0 -2.347493 -4.756386 5.542471
264 88 2 0 -2.133027 -6.049986 4.540349
265 89 1 0 6.174952 -8.574733 0.210584
266 89 2 0 5.358389 -8.191902 0.557392
267 89 2 0 6.760918 -8.561710 0.943985
268 90 1 0 -6.278610 6.057339 4.042358
269 90 2 0 -6.169211 6.708022 3.383078
270 90 2 0 -7.221766 5.771239 4.032205
271 91 1 0 0.124733 -5.816398 0.203961
272 91 2 0 0.029974 -5.049468 0.786871
273 91 2 0 -0.458026 -5.646677 -0.555312
274 92 1 0 3.839311 -0.064469 8.619720
275 92 2 0 3.586253 -0.282978 7.705313
276 92 2 0 3.079936 0.282626 9.065559
277 93 1 0 7.375986 -1.368885 4.452411
278 93 2 0 8.024931 -0.682735 4.768078
279 93 2 0 7.477247 -1.279372 3.493009
280 94 1 0 9.209092 -1.611532 -6.423337
281 94 2 0 9.487648 -2.470973 -6.800897
282 94 2 0 9.998917 -1.354277 -5.866779
283 95 1 0 -5.314625 -5.613762 7.941745
284 95 2 0 -5.589748 -6.389969 8.478078
285 95 2 0 -4.444519 -5.357513 8.149460
286 96 1 0 -3.655884 2.941259 -3.295211
287 96 2 0 -4.418712 2.528163 -3.712668
288 96 2 0 -2.937568 3.025005 -3.971189
289 97 1 0 -8.786626 -3.149090 -1.640379
290 97 2 0 -8.441651 -4.011755 -1.901885
291 97 2 0 -9.285717 -3.276173 -0.834535
292 98 1 0 -7.358188 8.239942 -2.093781
293 98 2 0 -7.811518 7.751233 -2.768278
294 98 2 0 -6.892430 7.625331 -1.541437
295 99 1 0 3.770974 -0.453172 -1.931225
296 99 2 0 4.245757 -0.966218 -1.286114
297 99 2 0 3.797803 0.441972 -1.542180
298 100 1 0 2.205813 4.098894 8.958738
299 100 2 0 3.001973 3.555440 8.746430
300 100 2 0 2.103639 4.243668 9.940011
301 101 1 0 -8.723398 -8.284874 -8.890692
302 101 2 0 -9.298972 -7.537539 -9.239127
303 101 2 0 -8.772683 -8.361037 -7.925940
304 102 1 0 -8.908952 0.807167 -7.785764
305 102 2 0 -9.061230 -0.061912 -7.422589
306 102 2 0 -9.534219 1.030144 -8.475490
307 103 1 0 9.182207 -3.418263 -8.430667
308 103 2 0 9.046738 -2.558299 -8.879898
309 103 2 0 8.390804 -3.958734 -8.701949
310 104 1 0 1.003162 9.279867 -8.313986
311 104 2 0 1.167271 10.190392 -8.070619
312 104 2 0 1.849962 8.761188 -8.493178
313 105 1 0 -1.842572 4.893383 8.198130
314 105 2 0 -2.468210 5.316242 8.833179
315 105 2 0 -1.155294 4.389410 8.716281
316 106 1 0 -4.005055 -3.953707 0.402347
317 106 2 0 -3.682148 -3.305443 1.058769
318 106 2 0 -4.738199 -4.452434 0.841144
319 107 1 0 3.511815 -7.590537 -9.004707
320 107 2 0 3.415066 -7.281286 -8.094635
321 107 2 0 3.251550 -6.835442 -9.579171
322 108 1 0 -7.614136 -7.773463 1.262079
323 108 2 0 -7.489497 -6.927033 0.753779
324 108 2 0 -8.528840 -8.050689 1.164710
325 109 1 0 -5.419143 7.061880 -5.745275
326 109 2 0 -4.504905 6.840455 -5.750772
327 109 2 0 -5.895918 6.221393 -5.676189
328 110 1 0 -9.017162 1.888781 0.937813
329 110 2 0 -9.868157 2.115056 0.623903
330 110 2 0 -8.466599 1.708818 0.191067
331 111 1 0 -8.037596 -5.106016 4.750802
332 111 2 0 -7.322228 -5.707104 5.043673
333 111 2 0 -8.230169 -4.481051 5.475067
334 112 1 0 -4.390546 1.691502 -7.756245
335 112 2 0 -3.558844 1.264966 -7.996466
336 112 2 0 -4.136121 2.629917 -7.760619
337 113 1 0 -3.975194 -6.218233 -6.927330
338 113 2 0 -3.085645 -6.066352 -7.325296
339 113 2 0 -4.640815 -6.676349 -7.524295
340 114 1 0 8.240648 5.082183 -8.857912
341 114 2 0 7.453645 5.101728 -8.259448
342 114 2 0 8.368223 4.228825 -9.227974
343 115 1 0 1.598931 -1.829796 -0.316752
344 115 2 0 1.992252 -1.475465 -1.149815
345 115 2 0 1.726926 -2.749881 -0.397199
346 116 1 0 1.433819 -1.386702 -3.304673
347 116 2 0 1.323094 -0.486757 -3.067110
348 116 2 0 0.623143 -1.802016 -3.264828
349 117 1 0 3.735991 5.554990 6.219603
350 117 2 0 3.320916 6.265941 6.761937
351 117 2 0 4.195666 6.053207 5.526652
352 118 1 0 -6.285976 -9.228132 -4.460410
353 118 2 0 -5.683885 -10.005163 -4.740870
354 118 2 0 -6.707036 -9.488426 -3.608438
355 119 1 0 4.036200 -3.378299 6.905724
356 119 2 0 3.457441 -2.618106 6.794504
357 119 2 0 4.929409 -2.991177 6.666963
358 120 1 0 0.606517 8.561279 -3.782406
359 120 2 0 0.498099 9.526035 -3.699299
360 120 2 0 1.288545 8.500162 -4.475972
361 121 1 0 -5.666717 8.368298 -8.299623
362 121 2 0 -4.926661 7.904359 -8.744783
363 121 2 0 -5.742748 8.095703 -7.389592
364 122 1 0 -3.344692 7.636718 3.475830
365 122 2 0 -4.140634 7.105012 3.296472
366 122 2 0 -3.350797 7.470949 4.433350
367 123 1 0 -1.322186 6.638182 0.028906
368 123 2 0 -1.895088 6.054034 0.554933
369 123 2 0 -1.928852 7.271511 -0.442137
370 124 1 0 8.793551 6.925450 7.841717
371 124 2 0 9.639675 7.325848 7.850680
372 124 2 0 8.776882 6.398711 8.674036
373 125 1 0 -6.322101 0.607808 1.174099
374 125 2 0 -5.647986 1.150825 1.588348
375 125 2 0 -5.852992 -0.060471 0.660730
376 126 1 0 5.685139 -3.546046 -4.128549
377 126 2 0 4.727966 -3.473549 -4.165755
378 126 2 0 6.024761 -2.749532 -4.610993
379 127 1 0 3.821999 6.538527 1.678030
380 127 2 0 3.549684 7.331168 1.175762
381 127 2 0 3.816423 6.788603 2.602522
382 128 1 0 3.892622 -7.034239 -6.415978
383 128 2 0 4.720509 -6.539827 -6.295004
384 128 2 0 3.262810 -6.550918 -5.890370
385 129 1 0 5.454437 3.881722 -2.767521
386 129 2 0 5.906266 3.240489 -3.272250
387 129 2 0 6.116652 4.657253 -2.669082
388 130 1 0 -4.179373 -8.326009 4.395005
389 130 2 0 -3.737878 -8.754475 5.134173
390 130 2 0 -3.934584 -8.825320 3.534465
391 131 1 0 7.949488 -1.353498 9.244688
392 131 2 0 7.234465 -1.100736 9.869694
393 131 2 0 8.010855 -0.754076 8.476271
394 132 1 0 4.498603 -4.219267 3.963173
395 132 2 0 4.895226 -3.311215 4.147093
396 132 2 0 4.802371 -4.871698 4.671292
397 133 1 0 -4.307250 7.384668 -2.879462
398 133 2 0 -3.402854 7.237543 -3.252031
399 133 2 0 -4.143231 7.834459 -2.019767
400 134 1 0 2.868752 -0.418389 1.909340
401 134 2 0 2.544472 -0.880398 1.179279
402 134 2 0 2.082841 -0.227627 2.457964
403 135 1 0 7.961389 1.611971 4.525253
404 135 2 0 7.498497 1.833174 3.728113
405 135 2 0 8.841880 2.050996 4.576281
406 136 1 0 2.692467 -4.517946 -0.884665
407 136 2 0 1.789435 -4.835617 -0.587396
408 136 2 0 3.330887 -5.126025 -0.474679
409 137 1 0 0.711797 1.680547 -4.780435
410 137 2 0 0.854596 1.567911 -3.850059
411 137 2 0 -0.187286 1.868256 -4.936632
412 138 1 0 4.558200 -0.044434 -4.673875
413 138 2 0 5.376141 -0.551202 -4.913295
414 138 2 0 4.409600 -0.197728 -3.739555
415 139 1 0 7.109730 0.453475 -0.268844
416 139 2 0 6.996444 0.098599 -1.119484
417 139 2 0 6.343115 1.050849 -0.110689
418 140 1 0 -2.549577 -0.200852 -4.492507
419 140 2 0 -3.199039 -0.856439 -4.888752
420 140 2 0 -2.605120 -0.151501 -3.534000
421 141 1 0 -8.527353 4.524174 -2.347408
422 141 2 0 -7.662213 4.342466 -2.104852
423 141 2 0 -8.794374 3.696793 -2.795740
424 142 1 0 -2.820431 -0.700478 4.413266
425 142 2 0 -2.088343 -0.069797 4.530521
426 142 2 0 -3.535913 -0.413547 5.069151
427 143 1 0 6.924598 -1.285634 -4.901833
428 143 2 0 7.496477 -0.831510 -4.206076
429 143 2 0 7.527035 -1.446676 -5.677236
430 144 1 0 -5.353763 6.572088 6.734366
431 144 2 0 -4.428432 6.663173 6.834862
432 144 2 0 -5.603600 6.385787 5.822425
433 145 1 0 7.661597 2.386104 9.175259
434 145 2 0 7.321694 2.395921 10.055536
435 145 2 0 6.959141 2.102200 8.533079
436 146 1 0 -3.496590 -3.765912 -4.994838
437 146 2 0 -3.612181 -3.620689 -4.036115
438 146 2 0 -4.323649 -3.527816 -5.463213
439 147 1 0 -9.351953 8.343146 3.704719
440 147 2 0 -8.465363 8.758592 3.736785
441 147 2 0 -9.159223 7.399420 3.880808
442 148 1 0 -0.957571 -5.174275 -2.190170
443 148 2 0 -1.907345 -5.209294 -2.303164
444 148 2 0 -0.758582 -4.314608 -2.636469
445 149 1 0 5.048831 -7.988284 2.587515
446 149 2 0 5.870168 -8.296198 3.043816
447 149 2 0 4.551970 -7.498875 3.229280
448 150 1 0 3.705658 8.368298 -8.304931
449 150 2 0 3.860607 9.297256 -8.425405
450 150 2 0 3.866516 8.146007 -7.371475
451 151 1 0 -2.535134 7.116414 6.338590
452 151 2 0 -1.918884 7.705593 6.804078
453 151 2 0 -1.975225 6.330832 6.121365
454 152 1 0 -3.440263 7.005018 9.111704
455 152 2 0 -2.633953 7.421761 9.465848
456 152 2 0 -3.654896 7.513753 8.256470
457 153 1 0 6.452501 -5.478051 -5.722874
458 153 2 0 7.297698 -5.914122 -5.586895
459 153 2 0 6.253267 -4.919338 -4.937095
460 154 1 0 -6.528475 4.497861 -5.573636
461 154 2 0 -6.257840 4.684056 -4.656222
462 154 2 0 -7.247764 3.931701 -5.623068
463 155 1 0 -7.310706 8.183648 7.852201
464 155 2 0 -6.552879 7.735013 7.436342
465 155 2 0 -6.877865 8.451022 8.686616
466 156 1 0 -1.476441 -7.867001 7.421787
467 156 2 0 -0.852398 -8.570669 7.084405
468 156 2 0 -1.363740 -7.190554 6.737331
469 157 1 0 5.228019 -0.495870 -7.592953
470 157 2 0 4.737616 -0.538139 -6.742036
471 157 2 0 4.625354 -0.901329 -8.269022
472 158 1 0 7.566531 -1.006734 1.808213
473 158 2 0 7.657411 -1.866188 1.428564
474 158 2 0 7.358547 -0.388051 1.139943
475 159 1 0 1.850924 -5.717449 -5.035416
476 159 2 0 1.721040 -6.227449 -4.217213
477 159 2 0 2.199319 -4.856378 -4.692892
478 160 1 0 -8.904325 6.791585 -3.842866
479 160 2 0 -8.690637 5.952112 -3.490118
480 160 2 0 -8.676001 6.844077 -4.770651
481 161 1 0 -3.434304 4.397198 -7.863568
482 161 2 0 -2.634777 3.892027 -7.779256
483 161 2 0 -3.432847 5.161485 -7.310788
484 162 1 0 -7.446738 6.124823 0.150068
485 162 2 0 -7.404893 5.207959 0.481504
486 162 2 0 -8.405563 6.215466 -0.024439
487 163 1 0 0.195330 -7.307128 -3.501714
488 163 2 0 -0.240912 -6.769004 -4.243655
489 163 2 0 -0.194915 -6.981989 -2.679860
490 164 1 0 7.068819 9.130323 7.260588
491 164 2 0 6.559855 8.400987 7.699406
492 164 2 0 7.972497 8.829223 7.213747
493 165 1 0 -0.185218 -3.192290 -6.289346
494 165 2 0 0.776651 -3.073203 -6.391948
495 165 2 0 -0.497426 -2.964088 -7.170893
496 166 1 0 -2.073630 4.369672 5.251074
497 166 2 0 -1.868638 3.811508 6.060261
498 166 2 0 -1.253174 4.326708 4.781680
499 167 1 0 -0.855003 3.069108 -7.935226
500 167 2 0 0.075758 3.132202 -7.617253
501 167 2 0 -1.009845 2.207487 -8.320426
502 168 1 0 -6.328833 0.064083 -8.467228
503 168 2 0 -7.268416 0.384648 -8.383978
504 168 2 0 -5.825246 0.919304 -8.320175
505 169 1 0 -8.276352 -8.809851 -6.344910
506 169 2 0 -7.541457 -8.792368 -5.688031
507 169 2 0 -8.510208 -9.731116 -6.353248
508 170 1 0 0.463654 2.826776 7.018388
509 170 2 0 0.875324 3.588447 7.482107
510 170 2 0 0.770257 2.126646 7.583650
511 171 1 0 0.478371 -3.407198 6.910039
512 171 2 0 0.585298 -2.996750 7.756467
513 171 2 0 0.556531 -4.390636 7.183527
514 172 1 0 -1.689559 7.002511 -3.303561
515 172 2 0 -1.009152 7.635432 -3.553133
516 172 2 0 -1.333699 6.195680 -2.919485
517 173 1 0 9.000097 -6.227871 8.137681
518 173 2 0 9.373858 -6.821152 7.497417
519 173 2 0 8.024020 -6.011019 8.033727
520 174 1 0 1.272378 1.954065 3.058033
521 174 2 0 1.260842 2.615112 2.341207
522 174 2 0 1.890312 2.223439 3.732934
523 175 1 0 4.139066 -3.527427 -9.022609
524 175 2 0 4.070028 -3.499117 -9.985525
525 175 2 0 4.960292 -3.942364 -8.778433
526 176 1 0 7.176276 2.178662 -4.075940
527 176 2 0 6.995275 1.684022 -4.873223
528 176 2 0 7.621313 2.984315 -4.393994
529 177 1 0 -0.034836 -3.929919 2.148095
530 177 2 0 0.838003 -3.513346 2.259663
531 177 2 0 -0.654999 -3.288581 2.426748
532 178 1 0 -8.701616 2.795237 -5.700842
533 178 2 0 -8.848959 2.145603 -6.420186
534 178 2 0 -9.464654 3.362988 -5.610379
535 179 1 0 2.804444 8.909551 -5.635389
536 179 2 0 3.063615 9.805993 -5.770957
537 179 2 0 3.512196 8.486179 -5.165468
538 180 1 0 3.236002 8.357402 3.636639
539 180 2 0 3.450854 9.071799 3.073263
540 180 2 0 3.476445 8.586691 4.607935
541 181 1 0 5.628532 7.185941 8.510937
542 181 2 0 5.467837 6.318153 8.138885
543 181 2 0 4.964153 7.477925 9.150467
544 182 1 0 -3.767261 1.260390 2.017681
545 182 2 0 -3.707734 2.019520 2.565591
546 182 2 0 -3.364602 1.609935 1.212351
547 183 1 0 8.228917 -3.441761 0.850139
548 183 2 0 9.022130 -3.709208 1.334881
549 183 2 0 7.553662 -3.976731 1.276651
550 184 1 0 -3.004292 1.345869 7.236734
551 184 2 0 -3.715311 0.724731 6.912689
552 184 2 0 -3.525684 2.111901 7.538936
553 185 1 0 4.901423 -5.547141 -0.119795
554 185 2 0 5.327550 -5.560969 0.769770
555 185 2 0 5.447642 -4.930752 -0.617088
556 186 1 0 -3.306210 8.469477 -0.495057
557 186 2 0 -2.836855 9.122642 -1.080706
558 186 2 0 -3.311215 8.916887 0.353875
559 187 1 0 -6.572180 3.018421 -0.262079
560 187 2 0 -6.711444 2.659956 0.606460
561 187 2 0 -6.040782 2.473886 -0.843542
562 188 1 0 -5.429147 -5.967833 5.177682
563 188 2 0 -4.896648 -6.608203 4.692534
564 188 2 0 -5.386594 -6.130690 6.117931
565 189 1 0 6.054430 7.035601 0.031519
566 189 2 0 5.939348 7.951184 -0.141094
567 189 2 0 5.390949 6.866654 0.702638
568 190 1 0 -0.890229 -2.615376 -3.621726
569 190 2 0 -1.695442 -2.097314 -3.537976
570 190 2 0 -0.895128 -2.637531 -4.561712
571 191 1 0 -5.446979 0.994907 -2.106714
572 191 2 0 -4.494883 0.997912 -1.881595
573 191 2 0 -5.759736 0.094199 -1.919247
574 192 1 0 -7.517688 -4.078340 7.202707
575 192 2 0 -8.242348 -4.324693 7.729813
576 192 2 0 -6.924399 -4.817453 7.269430
577 193 1 0 -1.134884 8.628488 2.081069
578 193 2 0 -1.962897 8.634713 2.554947
579 193 2 0 -1.119731 7.882422 1.516003
580 194 1 0 -6.288317 8.011683 2.022129
581 194 2 0 -6.404647 8.858198 1.546109
582 194 2 0 -6.669138 7.315199 1.482614
583 195 1 0 -6.766934 -4.026505 -8.306645
584 195 2 0 -6.542552 -4.855702 -8.828363
585 195 2 0 -7.743726 -3.954163 -8.170031
586 196 1 0 6.895244 7.052113 -3.031289
587 196 2 0 7.810039 7.265357 -3.330751
588 196 2 0 6.666757 7.541675 -2.202178
589 197 1 0 8.003260 4.735929 -5.168656
590 197 2 0 7.233375 4.730204 -5.685772
591 197 2 0 8.406708 5.629580 -5.300038
592 198 1 0 -5.230160 -6.461196 -4.390836
593 198 2 0 -5.701559 -7.313756 -4.377348
594 198 2 0 -4.855545 -6.327970 -5.273444
595 199 1 0 -3.803496 -9.221115 7.305476
596 199 2 0 -2.934288 -8.877999 7.425047
597 199 2 0 -4.416066 -8.566250 7.573191
598 200 1 0 -5.990438 -1.574415 3.072521
599 200 2 0 -5.805447 -1.119293 3.933731
600 200 2 0 -6.651651 -0.947206 2.634773
601 201 1 0 1.155451 7.138377 -1.178317
602 201 2 0 0.330359 7.363227 -0.724568
603 201 2 0 1.055145 7.478676 -2.100793
604 202 1 0 -5.886817 5.150957 -2.997276
605 202 2 0 -5.191777 4.556623 -2.611465
606 202 2 0 -5.401622 6.003350 -3.064194
607 203 1 0 2.539927 3.387568 4.976180
608 203 2 0 1.760904 3.182324 5.589217
609 203 2 0 2.841539 4.315465 5.278853
610 204 1 0 8.331859 -7.344673 -5.188191
611 204 2 0 8.424401 -7.586778 -4.198621
612 204 2 0 8.911675 -7.764424 -5.823267
613 205 1 0 -5.774081 1.315144 -5.304553
614 205 2 0 -5.222992 1.580336 -6.077077
615 205 2 0 -6.219878 2.178441 -5.093360
616 206 1 0 6.340084 -4.926064 2.149626
617 206 2 0 5.639784 -4.766017 2.829591
618 206 2 0 6.883511 -5.598794 2.562820
619 207 1 0 -2.722394 6.614441 -5.843805
620 207 2 0 -2.332414 7.251953 -6.403722
621 207 2 0 -2.221682 6.596615 -5.034993
622 208 1 0 -1.813152 0.712824 -9.048176
623 208 2 0 -1.763921 -0.271744 -8.916841
624 208 2 0 -2.097796 0.860500 -9.970314
625 209 1 0 6.146244 -6.879929 8.376712
626 209 2 0 5.324465 -7.183905 8.841506
627 209 2 0 6.642264 -7.749945 8.201756
628 210 1 0 2.887544 8.612615 0.453821
629 210 2 0 2.452117 8.047637 -0.251289
630 210 2 0 2.348751 9.285636 0.895642
631 211 1 0 -8.475558 -8.180718 6.501232
632 211 2 0 -8.034310 -8.945692 6.891221
633 211 2 0 -8.173606 -8.179435 5.569319
634 212 1 0 6.714205 -2.947903 6.551671
635 212 2 0 7.143284 -2.459194 7.270891
636 212 2 0 7.212365 -2.637046 5.791018
637 213 1 0 6.445003 -5.462306 5.577966
638 213 2 0 6.730099 -4.696457 6.073312
639 213 2 0 6.099428 -6.099736 6.222859
640 214 1 0 -1.818761 -6.080111 -8.805420
641 214 2 0 -1.644534 -6.777931 -9.477669
642 214 2 0 -2.078582 -5.258591 -9.215838
643 215 1 0 6.037377 2.950576 2.863541
644 215 2 0 6.409766 3.757001 2.570754
645 215 2 0 5.577033 2.617474 2.090587
646 216 1 0 -7.731645 3.337668 3.301121
647 216 2 0 -8.345957 4.027222 3.589257
648 216 2 0 -8.130328 2.845238 2.577949

Bonds

1 1 1 2
2 1 1 3
3 1 4 5
4 1 4 6
5 1 7 8
6 1 7 9
7 1 10 11
8 1 10 12
9 1 13 14
10 1 13 15
11 1 16 17
12 1 16 18
13 1 19 20
14 1 19 21
15 1 22 23
16 1 22 24
17 1 25 26
18 1 25 27
19 1 28 29
20 1 28 30
21 1 31 32
22 1 31 33
23 1 34 35
24 1 34 36
25 1 37 38
26 1 37 39
27 1 40 41
28 1 40 42
29 1 43 44
30 1 43 45
31 1 46 47
32 1 46 48
33 1 49 50
34 1 49 51
35 1 52 53
36 1 52 54
37 1 55 56
38 1 55 57
39 1 58 59
40 1 58 60
41 1 61 62
42 1 61 63
43 1 64 65
44 1 64 66
45 1 67 68
46 1 67 69
47 1 70 71
48 1 70 72
49 1 73 74
50 1 73 75
51 1 76 77
52 1 76 78
53 1 79 80
54 1 79 81
55 1 82 83
56 1 82 84
57 1 85 86
58 1 85 87
59 1 88 89
60 1 88 90
61 1 91 92
62 1 91 93
63 1 94 95
64 1 94 96
65 1 97 98
66 1 97 99
67 1 100 101
68 1 100 102
69 1 103 104
70 1 103 105
71 1 106 107
72 1 106 108
73 1 109 110
74 1 109 111
75 1 112 113
76 1 112 114
77 1 115 116
78 1 115 117
79 1 118 119
80 1 118 120
81 1 121 122
82 1 121 123
83 1 124 125
84 1 124 126
85 1 127 128
86 1 127 129
87 1 130 131
88 1 130 132
89 1 133 134
90 1 133 135
91 1 136 137
92 1 136 138
93 1 139 140
94 1 139 141
95 1 142 143
96 1 142 144
97 1 145 146
98 1 145 147
99 1 148 149
100 1 148 150
101 1 151 152
102 1 151 153
103 1 154 155
104 1 154 156
105 1 157 158
106 1 157 159
107 1 160 161
108 1 160 162
109 1 163 164
110 1 163 165
111 1 166 167
112 1 166 168
113 1 169 170
114 1 169 171
115 1 172 173
116 1 172 174
117 1 175 176
118 1 175 177
119 1 178 179
120 1 178 180
121 1 181 182
122 1 181 183
123 1 184 185
124 1 184 186
125 1 187 188
126 1 187 189
127 1 190 191
128 1 190 192
129 1 193 194
130 1 193 195
131 1 196 197
132 1 196 198
133 1 199 200
134 1 199 201
135 1 202 203
136 1 202 204
137 1 205 206
138 1 205 207
139 1 208 209
140 1 208 210
141 1 211 212
142 1 211 213
143 1 214 215
144 1 214 216
145 1 217 218
146 1 217 219
147 1 220 221
148 1 220 222
149 1 223 224
150 1 223 225
151 1 226 227
152 1 226 228
153 1 229 230
154 1 229 231
155 1 232 233
156 1 232 234
157 1 235 236
158 1 235 237
159 1 238 239
160 1 238 240
161 1 241 242
162 1 241 243
163 1 244 245
164 1 244 246
165 1 247 248
166 1 247 249
167 1 250 251
168 1 250 252
169 1 253 254
170 1 253 255
171 1 256 257
172 1 256 258
173 1 259 260
174 1 259 261
175 1 262 263
176 1 262 264
177 1 265 266
178 1 265 267
179 1 268 269
180 1 268 270
181 1 271 272
182 1 271 273
183 1 274 275
184 1 274 276
185 1 277 278
186 1 277 279
187 1 280 281
188 1 280 282
189 1 283 284
190 1 283 285
191 1 286 287
192 1 286 288
193 1 289 290
194 1 289 291
195 1 292 293
196 1 292 294
197 1 295 296
198 1 295 297
199 1 298 299
200 1 298 300
201 1 301 302
202 1 301 303
203 1 304 305
204 1 304 306
205 1 307 308
206 1 307 309
207 1 310 311
208 1 310 312
209 1 313 314
210 1 313 315
211 1 316 317
212 1 316 318
213 1 319 320
214 1 319 321
215 1 322 323
216 1 322 324
217 1 325 326
218 1 325 327
219 1 328 329
220 1 328 330
221 1 331 332
222 1 331 333
223 1 334 335
224 1 334 336
225 1 337 338
226 1 337 339
227 1 340 341
228 1 340 342
229 1 343 344
230 1 343 345
231 1 346 347
232 1 346 348
233 1 349 350
234 1 349 351
235 1 352 353
236 1 352 354
237 1 355 356
238 1 355 357
239 1 358 359
240 1 358 360
241 1 361 362
242 1 361 363
243 1 364 365
244 1 364 366
245 1 367 368
246 1 367 369
247 1 370 371
248 1 370 372
249 1 373 374
250 1 373 375
251 1 376 377
252 1 376 378
253 1 379 380
254 1 379 381
255 1 382 383
256 1 382 384
257 1 385 386
258 1 385 387
259 1 388 389
260 1 388 390
261 1 391 392
262 1 391 393
263 1 394 395
264 1 394 396
265 1 397 398
266 1 397 399
267 1 400 401
268 1 400 402
269 1 403 404
270 1 403 405
271 1 406 407
272 1 406 408
273 1 409 410
274 1 409 411
275 1 412 413
276 1 412 414
277 1 415 416
278 1 415 417
279 1 418 419
280 1 418 420
281 1 421 422
282 1 421 423
283 1 424 425
284 1 424 426
285 1 427 428
286 1 427 429
287 1 430 431
288 1 430 432
289 1 433 434
290 1 433 435
291 1 436 437
292 1 436 438
293 1 439 440
294 1 439 441
295 1 442 443
296 1 442 444
297 1 445 446
298 1 445 447
299 1 448 449