LAMMPS data file created from Tinker ubiquitin.xyz and amoeba_ubiquitin.prm files

9737 atoms
6908 bonds
5094 angles
3297 dihedrals
651 impropers
6 atom types
48 bond types
111 angle types
189 dihedral types
33 improper types
0 54.99 xlo xhi
0 41.91 ylo yhi
0 41.91 zlo zhi
6 pitorsion types
71 bitorsions
106 pitorsions

Masses

1 14.003
2 12.0
3 15.995
4 1.008
5 31.972
6 15.999

Atoms

1 1 1 0 9.963103 5.604761 0.008413
2 1 2 0 9.595854 5.616857 -1.387669
3 1 2 0 8.190092 6.079015 -1.537478
4 1 3 0 7.228002 5.276741 -1.343729
5 1 4 0 9.248539 5.324856 0.671238
6 1 4 0 10.310756 6.543175 0.309331
7 1 4 0 10.709289 4.952168 0.170763
8 1 4 0 10.342605 6.385672 -1.876827
9 1 2 0 9.777424 4.134312 -1.928716
10 1 2 0 9.485635 3.817581 -3.412559
11 1 5 0 10.117567 2.116666 -3.905314
12 1 2 0 9.214556 1.102048 -2.698793
13 1 4 0 8.995937 3.481218 -1.313618
14 1 4 0 10.813555 3.756529 -1.729292
15 1 4 0 10.074410 4.479912 -4.109344
16 1 4 0 8.425285 3.844015 -3.623677
17 1 4 0 9.476005 1.466410 -1.683717
18 1 4 0 9.531462 0.065851 -2.728696
19 1 4 0 8.157703 1.221346 -2.837348
20 1 1 0 8.075651 7.407997 -1.589694
21 1 2 0 6.846787 8.085212 -1.711474
22 1 2 0 6.189365 7.484141 -3.005186
23 1 3 0 6.734597 7.675309 -4.068223
24 1 4 0 8.951370 7.929371 -1.808185
25 1 4 0 6.170991 7.786742 -0.821099
26 1 2 0 7.045430 9.684350 -1.731240
27 1 2 0 5.783147 10.543682 -1.755861
28 1 2 0 4.878227 10.489051 -3.011941
29 1 3 0 5.100354 11.293553 -3.954911
30 1 1 0 3.787647 9.697542 -2.965312
31 1 4 0 7.774130 9.919050 -2.476360
32 1 4 0 7.651586 10.027873 -0.831299
33 1 4 0 6.211664 11.592747 -1.874653
34 1 4 0 5.241990 10.447103 -0.794638
35 1 4 0 3.649816 9.134508 -2.112027
36 1 4 0 3.185263 9.534971 -3.811678
37 1 1 0 5.036494 6.768214 -2.882880
38 1 2 0 4.174197 6.305367 -3.990075
39 1 2 0 2.728098 6.643573 -3.679890
40 1 3 0 2.485580 7.278505 -2.662964
41 1 4 0 4.569007 6.922928 -2.037115
42 1 4 0 4.411152 6.930990 -4.873795
43 1 2 0 4.308955 4.772244 -4.223706
44 1 2 0 3.611944 3.837131 -3.115456
45 1 2 0 5.819814 4.327532 -4.394409
46 1 2 0 3.741844 2.375632 -3.462760
47 1 4 0 3.791883 4.511448 -5.208449
48 1 4 0 2.547744 4.084411 -3.073934
49 1 4 0 4.014866 4.138283 -2.115089
50 1 4 0 6.389594 4.495961 -3.449963
51 1 4 0 6.367709 4.976173 -5.128547
52 1 4 0 5.908880 3.195479 -4.756566
53 1 4 0 3.393827 2.185310 -4.536109
54 1 4 0 3.102312 1.694874 -2.887955
55 1 4 0 4.760146 2.000072 -3.426085
56 1 1 0 1.684147 6.367185 -4.575190
57 1 2 0 0.304736 6.655628 -4.231748
58 1 2 0 -0.626185 5.414986 -4.519968
59 1 3 0 -0.188430 4.481000 -5.239972
60 1 4 0 1.811341 5.682101 -5.345446
61 1 4 0 0.263980 6.686032 -3.118862
62 1 2 0 -0.297187 7.876289 -4.967331
63 1 2 0 0.656467 9.081574 -5.199077
64 1 2 0 1.564880 9.231158 -6.344247
65 1 2 0 0.518242 10.180719 -4.311011
66 1 2 0 2.254905 10.428397 -6.564398
67 1 2 0 1.266077 11.295338 -4.552651
68 1 2 0 2.142006 11.455092 -5.583064
69 1 4 0 -1.140556 8.280905 -4.296048
70 1 4 0 -0.810414 7.566064 -5.884866
71 1 4 0 1.670266 8.406033 -7.077975
72 1 4 0 -0.165699 10.178758 -3.490791
73 1 4 0 2.904650 10.539850 -7.451626
74 1 4 0 1.204400 12.095766 -3.710976
75 1 4 0 2.760015 12.463610 -5.750178
76 1 1 0 -1.919463 5.547799 -4.105657
77 1 2 0 -3.045010 4.631011 -4.380927
78 1 2 0 -4.206191 5.442932 -4.923986
79 1 3 0 -4.727895 6.299647 -4.174539
80 1 4 0 -2.189033 6.454364 -3.576690
81 1 4 0 -2.684685 3.831124 -5.207150
82 1 2 0 -3.444418 3.799031 -3.130661
83 1 2 0 -4.638073 2.796605 -3.426800
84 1 2 0 -2.172636 3.025555 -2.692910
85 1 4 0 -3.669812 4.518348 -2.290701
86 1 4 0 -4.428840 2.137544 -4.376863
87 1 4 0 -5.534299 3.436652 -3.543248
88 1 4 0 -4.789185 2.176325 -2.494354
89 1 4 0 -1.667617 3.522055 -1.846039
90 1 4 0 -1.416445 2.861139 -3.471806
91 1 4 0 -2.413054 1.986644 -2.328475
92 1 1 0 -4.550673 5.196731 -6.274871
93 1 2 0 -5.820881 5.714130 -6.792896
94 1 2 0 -6.901797 4.657281 -6.559257
95 1 3 0 -6.707326 3.538748 -6.976520
96 1 4 0 -4.247417 4.330282 -6.731623
97 1 4 0 -6.018895 6.628095 -6.157881
98 1 2 0 -5.786797 6.030910 -8.386430
99 1 2 0 -7.031253 6.879587 -8.916479
100 1 2 0 -6.946629 7.328107 -10.409836
101 1 2 0 -6.782582 6.224048 -11.537592
102 1 1 0 -6.791739 6.775547 -12.918869
103 1 4 0 -5.650656 5.119864 -8.896094
104 1 4 0 -4.894535 6.632893 -8.720825
105 1 4 0 -7.188700 7.743879 -8.218707
106 1 4 0 -7.899583 6.225721 -8.760371
107 1 4 0 -5.985957 7.986594 -10.510771
108 1 4 0 -7.792216 7.961266 -10.639952
109 1 4 0 -7.448325 5.332480 -11.448147
110 1 4 0 -5.800269 5.666745 -11.336805
111 1 4 0 -5.991776 7.279636 -13.178670
112 1 4 0 -7.621495 7.404931 -13.058222
113 1 4 0 -6.983504 6.085979 -13.693073
114 1 1 0 -8.069363 5.037776 -5.939754
115 1 2 0 -9.334342 4.259320 -5.870215
116 1 2 0 -10.106400 4.390027 -7.235984
117 1 3 0 -9.678872 5.138872 -8.064541
118 1 4 0 -8.065341 5.988423 -5.484094
119 1 4 0 -9.057846 3.167719 -5.835950
120 1 2 0 -10.266512 4.660993 -4.660344
121 1 3 0 -10.534149 6.114601 -4.706758
122 1 2 0 -9.745157 4.269631 -3.191928
123 1 4 0 -11.263017 4.131676 -4.781723
124 1 4 0 -9.713871 6.599029 -4.391676
125 1 4 0 -9.116723 4.972749 -2.508566
126 1 4 0 -9.168034 3.361328 -3.330127
127 1 4 0 -10.522836 3.973872 -2.499829
128 1 1 0 -11.233860 3.687218 -7.306137
129 1 2 0 -12.200193 3.653311 -8.374575
130 1 2 0 -13.220650 4.788154 -8.169599
131 1 3 0 -13.737841 5.372844 -9.165473
132 1 4 0 -11.460538 2.988105 -6.540266
133 1 4 0 -11.637688 3.949136 -9.406377
134 1 2 0 -12.914543 2.186268 -8.423705
135 1 2 0 -12.050888 0.859767 -8.189045
136 1 2 0 -12.754212 -0.443223 -8.481524
137 1 2 0 -10.761720 0.854864 -8.962914
138 1 4 0 -13.378342 2.203311 -9.441391
139 1 4 0 -13.731396 2.273518 -7.697910
140 1 4 0 -11.784384 0.837730 -7.097584
141 1 4 0 -12.178199 -1.386252 -8.511713
142 1 4 0 -13.030296 -0.361584 -9.541647
143 1 4 0 -13.665537 -0.574300 -7.888432
144 1 4 0 -10.907312 0.853311 -10.020395
145 1 4 0 -10.166450 -0.087962 -8.625340
146 1 4 0 -10.131655 1.808766 -8.717686
147 1 1 0 -13.463568 5.196109 -6.936262
148 1 2 0 -14.321525 6.337206 -6.640073
149 1 2 0 -13.602436 7.749411 -6.813046
150 1 3 0 -14.285287 8.753093 -7.068264
151 1 4 0 -13.224563 4.686522 -6.108713
152 1 4 0 -15.116925 6.447123 -7.471724
153 1 2 0 -15.130805 6.126006 -5.300665
154 1 3 0 -14.245708 5.884444 -4.246742
155 1 2 0 -16.085304 4.854769 -5.370470
156 1 4 0 -15.668029 7.073411 -5.139360
157 1 4 0 -13.863528 6.745981 -4.031876
158 1 4 0 -16.931480 4.985645 -6.114646
159 1 4 0 -16.633409 4.776539 -4.392875
160 1 4 0 -15.447009 3.996959 -5.527187
161 1 1 0 -12.255780 7.804163 -6.773987
162 1 2 0 -11.475822 9.029360 -6.961862
163 1 2 0 -10.482668 9.429993 -5.875126
164 1 3 0 -9.615012 10.212498 -6.150085
165 1 4 0 -11.791631 6.946169 -6.476230
166 1 4 0 -10.849439 8.869550 -7.825758
167 1 4 0 -12.070294 9.912283 -7.089554
168 1 1 0 -10.710240 8.937450 -4.551265
169 1 2 0 -9.795182 9.275190 -3.486218
170 1 2 0 -8.432503 8.733444 -3.903900
171 1 3 0 -8.256860 7.497941 -4.141932
172 1 4 0 -11.613017 8.458729 -4.378865
173 1 4 0 -9.758201 10.415786 -3.586213
174 1 2 0 -10.207682 8.847560 -2.068515
175 1 2 0 -9.468868 9.640494 -0.969458
176 1 2 0 -9.960726 11.106750 -0.880514
177 1 2 0 -8.996147 11.882980 0.056845
178 1 1 0 -9.422979 13.246330 0.389189
179 1 4 0 -10.025076 7.711214 -1.993654
180 1 4 0 -11.260829 8.969143 -1.909413
181 1 4 0 -8.357381 9.561485 -1.037070
182 1 4 0 -9.831062 9.156523 0.052119
183 1 4 0 -10.951565 11.152527 -0.421834
184 1 4 0 -10.025528 11.645570 -1.861235
185 1 4 0 -7.996392 12.007902 -0.493686
186 1 4 0 -8.903714 11.241749 1.019391
187 1 4 0 -9.372439 13.931515 -0.356496
188 1 4 0 -8.869279 13.642636 1.216690
189 1 4 0 -10.417962 13.346471 0.725918
190 1 1 0 -7.417712 9.626751 -3.887457
191 1 2 0 -6.048686 9.319758 -4.265281
192 1 2 0 -5.195256 9.655954 -3.012996
193 1 3 0 -5.383682 10.790154 -2.469855
194 1 4 0 -7.536192 10.638944 -3.603417
195 1 4 0 -5.899497 8.237555 -4.489940
196 1 2 0 -5.632346 10.139153 -5.558621
197 1 3 0 -6.651850 9.845307 -6.610520
198 1 2 0 -4.307909 9.733791 -6.252541
199 1 4 0 -5.546957 11.240303 -5.391676
200 1 4 0 -7.479446 10.239776 -6.352124
201 1 4 0 -4.057722 10.346459 -7.141293
202 1 4 0 -4.216816 8.651918 -6.414903
203 1 4 0 -3.513698 9.947681 -5.542599
204 1 1 0 -4.487761 8.698281 -2.479508
205 1 2 0 -3.941682 8.719222 -1.101838
206 1 2 0 -2.471661 8.338585 -1.186861
207 1 3 0 -2.098577 7.337481 -1.795680
208 1 4 0 -4.371107 7.734334 -2.775858
209 1 4 0 -3.985516 9.750968 -0.737465
210 1 2 0 -4.697768 7.852820 -0.064484
211 1 2 0 -4.708913 6.295035 -0.438982
212 1 2 0 -6.123205 8.316839 0.212195
213 1 2 0 -5.620903 5.382941 0.512646
214 1 4 0 -4.057362 7.911400 0.860642
215 1 4 0 -3.677285 5.838816 -0.381317
216 1 4 0 -5.097879 6.136516 -1.456773
217 1 4 0 -6.958332 8.061232 -0.486042
218 1 4 0 -6.120750 9.492014 0.254246
219 1 4 0 -6.463653 8.052122 1.235972
220 1 4 0 -6.708420 5.577546 0.309314
221 1 4 0 -5.353714 5.729677 1.560568
222 1 4 0 -5.449967 4.323238 0.397743
223 1 1 0 -1.597496 9.147378 -0.364603
224 1 2 0 -0.135695 9.298656 -0.268971
225 1 2 0 0.407838 8.259131 0.762984
226 1 3 0 -0.125678 8.256398 1.864934
227 1 4 0 -2.061490 9.698188 0.341812
228 1 4 0 0.291486 9.062300 -1.222284
229 1 2 0 0.359683 10.712136 0.203065
230 1 3 0 -0.513535 11.802509 -0.157986
231 1 2 0 1.661404 11.100111 -0.496546
232 1 4 0 0.487415 10.613723 1.289529
233 1 4 0 -0.894682 12.193680 0.613553
234 1 4 0 1.924560 12.095482 -0.170163
235 1 4 0 1.527624 11.126022 -1.612055
236 1 4 0 2.524096 10.406872 -0.273554
237 1 1 0 1.458638 7.533911 0.367476
238 1 2 0 2.250809 6.653110 1.155065
239 1 2 0 3.767103 6.967571 0.917085
240 1 3 0 4.150469 7.414883 -0.134304
241 1 4 0 1.800100 7.626011 -0.603649
242 1 4 0 1.984132 6.848652 2.199761
243 1 2 0 1.985932 5.208560 0.673411
244 1 2 0 0.499001 4.775460 0.950638
245 1 2 0 0.302449 3.382258 0.307039
246 1 2 0 0.318833 4.590905 2.467625
247 1 4 0 2.620352 4.479840 1.153057
248 1 4 0 2.170192 5.140748 -0.421262
249 1 4 0 -0.141837 5.460611 0.448133
250 1 4 0 -0.765868 3.158508 0.337643
251 1 4 0 0.881511 2.586559 0.876485
252 1 4 0 0.635114 3.382961 -0.727832
253 1 4 0 0.991181 3.809378 2.860913
254 1 4 0 -0.810422 4.305406 2.724253
255 1 4 0 0.495432 5.527245 3.085307
256 1 1 0 4.493868 6.668739 2.051013
257 1 2 0 5.977452 6.826187 2.081574
258 1 2 0 6.574479 5.473810 2.542943
259 1 3 0 7.539223 5.437653 3.331859
260 1 4 0 4.101906 6.335458 2.916399
261 1 4 0 6.354091 6.853748 1.027532
262 1 2 0 6.470006 8.005228 2.962480
263 1 2 0 6.523156 9.385148 2.265263
264 1 2 0 6.660389 10.531119 3.176475
265 1 3 0 7.818717 10.946737 3.494784
266 1 3 0 5.641727 11.057335 3.676704
267 1 4 0 7.426538 7.872313 3.417016
268 1 4 0 5.818378 7.862045 3.841666
269 1 4 0 5.562369 9.490953 1.596644
270 1 4 0 7.296811 9.382149 1.478494
271 1 1 0 6.080956 4.317668 2.172588
272 1 2 0 6.395184 2.914756 2.360428
273 1 2 0 7.756330 2.626277 1.796235
274 1 3 0 8.336336 3.369371 0.946953
275 1 4 0 5.286582 4.431259 1.580017
276 1 4 0 6.544551 2.775770 3.450173
277 1 2 0 5.254270 2.029334 1.828047
278 1 2 0 3.855516 2.115298 2.663831
279 1 2 0 4.878513 2.275077 0.297641
280 1 4 0 5.659978 0.937168 1.997214
281 1 4 0 3.988977 1.632132 3.721066
282 1 4 0 3.154094 1.488836 2.202125
283 1 4 0 3.518024 3.208135 2.707458
284 1 4 0 4.391723 3.244259 0.119355
285 1 4 0 4.197460 1.515591 -0.214541
286 1 4 0 5.820024 2.281294 -0.232189
287 1 1 0 8.439412 1.532076 2.306730
288 1 2 0 9.766718 1.104522 1.810124
289 1 2 0 9.609640 -0.146333 0.921245
290 1 3 0 8.595667 -0.823014 1.060066
291 1 4 0 7.906057 0.817610 2.769235
292 1 4 0 10.402589 1.878772 1.340853
293 1 2 0 10.623245 0.647963 3.024596
294 1 2 0 11.099332 1.681203 4.040791
295 1 2 0 12.471923 2.276164 3.591284
296 1 3 0 13.467460 1.635754 4.022756
297 1 3 0 12.447093 3.241865 2.732975
298 1 4 0 11.464087 0.045385 2.632771
299 1 4 0 10.035308 -0.165388 3.606999
300 1 4 0 11.283249 1.117646 5.042705
301 1 4 0 10.341030 2.493195 4.310498
302 1 1 0 10.649425 -0.442448 0.039711
303 1 2 0 10.721650 -1.691625 -0.719097
304 1 2 0 10.688929 -3.019270 0.171469
305 1 3 0 10.136780 -4.017164 -0.258017
306 1 4 0 9.824725 -1.703322 -1.331408
307 1 2 0 12.047830 -1.730137 -1.583772
308 1 2 0 12.438841 -0.254934 -1.430560
309 1 2 0 11.880473 0.342410 -0.130781
310 1 4 0 11.910217 -2.011767 -2.680814
311 1 4 0 12.740874 -2.453727 -1.101295
312 1 4 0 12.084519 0.391154 -2.320456
313 1 4 0 13.550172 -0.165266 -1.345695
314 1 4 0 11.730541 1.403440 -0.268593
315 1 4 0 12.568702 0.262680 0.684216
316 1 1 0 11.185418 -2.821488 1.401909
317 1 2 0 11.478487 -3.819995 2.417066
318 1 2 0 10.240507 -4.133695 3.340195
319 1 3 0 10.437807 -4.944657 4.272068
320 1 4 0 11.675553 -1.939666 1.629182
321 1 4 0 11.715305 -4.763029 1.892686
322 1 2 0 12.726302 -3.441835 3.258589
323 1 3 0 12.588509 -2.169159 3.871288
324 1 4 0 13.594515 -3.465914 2.619460
325 1 4 0 12.919669 -4.225010 4.041833
326 1 4 0 11.928461 -2.056942 4.572136
327 1 1 0 8.989610 -3.538327 3.147788
328 1 2 0 7.780090 -3.809839 3.903153
329 1 2 0 6.830692 -4.723128 3.182411
330 1 3 0 6.843975 -4.931536 1.971249
331 1 4 0 8.790490 -2.959432 2.207143
332 1 4 0 8.112743 -4.402734 4.754275
333 1 2 0 7.007696 -2.493713 4.325713
334 1 2 0 7.757815 -1.793205 5.421557
335 1 3 0 8.301432 -0.683792 5.213313
336 1 3 0 8.105449 -2.430264 6.467845
337 1 4 0 6.015719 -2.736995 4.787540
338 1 4 0 6.870322 -1.705199 3.554568
339 1 1 0 5.911537 -5.420074 3.889645
340 1 2 0 4.985368 -6.339027 3.207488
341 1 2 0 3.791981 -5.460118 2.675447
342 1 3 0 3.602436 -4.262217 3.058351
343 1 4 0 5.945002 -5.355465 4.936544
344 1 4 0 5.522096 -6.871961 2.401608
345 1 2 0 4.403843 -7.437211 4.151447
346 1 3 0 3.984983 -6.837474 5.417872
347 1 2 0 5.484751 -8.435266 4.460478
348 1 4 0 3.543374 -7.871125 3.610585
349 1 4 0 3.626750 -7.635311 5.866975
350 1 4 0 5.852794 -8.923165 3.576288
351 1 4 0 5.092476 -9.235700 5.230406
352 1 4 0 6.347457 -8.009387 5.033245
353 1 1 0 3.001520 -6.091562 1.873663
354 1 2 0 1.770212 -5.563203 1.356920
355 1 2 0 0.721356 -5.331197 2.570590
356 1 3 0 -0.022158 -4.354859 2.639919
357 1 4 0 3.312873 -6.951353 1.400664
358 1 4 0 2.050592 -4.577254 0.922928
359 1 2 0 1.071972 -6.339450 0.158527
360 1 2 0 1.737761 -5.960287 -1.242592
361 1 2 0 -0.457848 -6.189077 0.133627
362 1 2 0 3.239275 -5.961276 -1.280042
363 1 4 0 1.324741 -7.458613 0.269568
364 1 4 0 1.479259 -4.859796 -1.271486
365 1 4 0 1.361220 -6.531125 -2.132946
366 1 4 0 -0.903041 -6.854230 -0.657366
367 1 4 0 -0.782418 -5.132849 -0.071473
368 1 4 0 -0.922422 -6.573767 1.109124
369 1 4 0 3.570026 -6.965706 -1.066579
370 1 4 0 3.783014 -5.330759 -0.595789
371 1 4 0 3.656696 -5.782972 -2.272787
372 1 1 0 0.712989 -6.304521 3.584311
373 1 2 0 0.052790 -6.261661 4.839148
374 1 2 0 0.191347 -4.895606 5.488007
375 1 3 0 -0.836031 -4.209177 5.761481
376 1 4 0 1.234822 -7.176952 3.358561
377 1 4 0 -1.022887 -6.329021 4.691721
378 1 2 0 0.463881 -7.420468 5.813551
379 1 2 0 -0.181732 -7.570702 7.165576
380 1 2 0 0.007120 -6.414258 8.102713
381 1 3 0 -0.893307 -5.557057 8.345423
382 1 3 0 1.071916 -6.451342 8.739901
383 1 4 0 1.565739 -7.379644 5.945185
384 1 4 0 0.280894 -8.335875 5.233490
385 1 4 0 0.223173 -8.515314 7.648734
386 1 4 0 -1.278836 -7.754581 6.974807
387 1 1 0 1.506487 -4.494779 5.655260
388 1 2 0 2.024384 -3.272083 6.150972
389 1 2 0 1.585880 -2.044887 5.407014
390 1 3 0 1.072089 -1.054656 5.937784
391 1 4 0 2.247022 -5.169015 5.381363
392 1 4 0 1.726295 -3.077017 7.202284
393 1 2 0 3.519486 -3.297907 6.249706
394 1 2 0 4.110165 -2.209620 7.106417
395 1 3 0 4.558866 -1.206675 6.574355
396 1 1 0 3.975447 -2.353795 8.429417
397 1 4 0 3.926527 -3.312701 5.199577
398 1 4 0 3.906987 -4.290859 6.729019
399 1 4 0 3.351621 -3.100412 8.835262
400 1 4 0 4.250233 -1.572327 9.095945
401 1 1 0 1.646215 -2.106555 3.995169
402 1 2 0 0.960547 -1.056203 3.144271
403 1 2 0 -0.585323 -0.906494 3.471384
404 1 3 0 -1.001272 0.221409 3.639638
405 1 4 0 2.076586 -2.917444 3.633085
406 1 4 0 1.398083 -0.037330 3.348893
407 1 2 0 1.148406 -1.421290 1.565953
408 1 2 0 0.469253 -0.291141 0.677094
409 1 2 0 2.652804 -1.432319 1.256255
410 1 4 0 0.776571 -2.470203 1.403081
411 1 4 0 -0.604778 -0.059927 0.825468
412 1 4 0 0.696071 -0.403531 -0.364402
413 1 4 0 0.904174 0.691668 0.985463
414 1 4 0 2.642691 -1.597766 0.131660
415 1 4 0 3.137894 -2.381059 1.586216
416 1 4 0 3.298051 -0.632131 1.598249
417 1 1 0 -1.305966 -1.988607 3.652565
418 1 2 0 -2.689415 -1.960736 4.065894
419 1 2 0 -2.947986 -1.384388 5.464246
420 1 3 0 -3.956927 -0.687209 5.701440
421 1 4 0 -0.971106 -2.849328 3.302467
422 1 4 0 -3.296900 -1.262385 3.382761
423 1 2 0 -3.427836 -3.412377 3.961933
424 1 2 0 -3.574171 -3.928612 2.505721
425 1 2 0 -3.982306 -5.479470 2.370643
426 1 2 0 -4.137753 -5.916145 0.907307
427 1 1 0 -4.842456 -7.207476 0.671588
428 1 4 0 -4.389394 -3.425752 4.550163
429 1 4 0 -2.806920 -4.163717 4.552623
430 1 4 0 -2.578225 -3.744348 2.022778
431 1 4 0 -4.131610 -3.317335 1.794895
432 1 4 0 -4.944670 -5.685367 2.884988
433 1 4 0 -3.219699 -6.072549 2.922384
434 1 4 0 -3.220948 -5.866340 0.240386
435 1 4 0 -4.886137 -5.224022 0.371600
436 1 4 0 -4.398637 -8.010724 1.108282
437 1 4 0 -4.689919 -7.536305 -0.283243
438 1 4 0 -5.789366 -7.298894 0.961468
439 1 1 0 -1.966539 -1.653932 6.352370
440 1 2 0 -1.877059 -1.184384 7.700740
441 1 2 0 -1.810243 0.352689 7.772527
442 1 3 0 -2.478130 1.012858 8.630055
443 1 4 0 -1.296883 -2.342673 6.065841
444 1 4 0 -2.903503 -1.425619 8.306499
445 1 2 0 -0.719870 -1.906634 8.460693
446 1 4 0 -0.392867 -1.394748 9.399750
447 1 4 0 0.201561 -1.700787 7.931161
448 1 4 0 -0.824494 -3.016135 8.415257
449 1 1 0 -1.014819 0.884949 6.873831
450 1 2 0 -0.928004 2.359933 6.752150
451 1 2 0 -2.242871 3.020975 6.141860
452 1 3 0 -2.667293 4.165871 6.497798
453 1 4 0 -0.255487 0.266534 6.475305
454 1 4 0 -0.709751 2.767594 7.790539
455 1 2 0 0.185451 2.818592 5.731872
456 1 2 0 1.718082 2.368933 6.157097
457 1 2 0 1.976397 2.630036 7.634372
458 1 2 0 3.272626 1.811866 8.042755
459 1 1 0 3.783277 2.119562 9.341763
460 1 4 0 0.173809 4.017727 5.824418
461 1 4 0 -0.110843 2.644975 4.655738
462 1 4 0 2.436177 2.906087 5.459782
463 1 4 0 1.767963 1.228903 6.013437
464 1 4 0 1.214734 2.413689 8.372810
465 1 4 0 2.023085 3.725792 7.759055
466 1 4 0 4.113891 1.884123 7.336520
467 1 4 0 2.915132 0.727469 8.065927
468 1 4 0 3.879659 1.332383 9.938486
469 1 4 0 3.292027 2.768104 9.893226
470 1 4 0 4.657654 2.620898 9.415395
471 1 1 0 -2.951323 2.325118 5.282730
472 1 2 0 -4.325905 2.722744 4.841568
473 1 2 0 -5.448579 2.576087 5.910067
474 1 3 0 -6.209518 3.521045 6.095847
475 1 4 0 -2.521898 1.551084 4.791650
476 1 4 0 -4.313051 3.829830 4.708638
477 1 2 0 -4.631289 2.056947 3.491556
478 1 2 0 -3.597982 2.356462 2.341899
479 1 2 0 -6.057287 2.415036 2.978562
480 1 2 0 -3.795503 1.412901 1.156511
481 1 4 0 -4.671054 0.937191 3.752299
482 1 4 0 -2.607674 2.121882 2.680974
483 1 4 0 -3.588639 3.467984 2.067654
484 1 4 0 -6.778277 2.127584 3.784506
485 1 4 0 -6.408690 1.672558 2.286363
486 1 4 0 -6.257305 3.445522 2.543283
487 1 4 0 -2.827681 1.370598 0.452926
488 1 4 0 -4.701905 1.709692 0.600596
489 1 4 0 -3.968868 0.353877 1.535108
490 1 1 0 -5.427736 1.517434 6.772139
491 1 2 0 -6.281638 1.417159 7.917235
492 1 2 0 -6.135061 2.619316 8.825463
493 1 3 0 -7.083993 3.050483 9.468967
494 1 4 0 -4.778187 0.710522 6.592937
495 1 4 0 -7.347518 1.392997 7.523591
496 1 2 0 -5.911289 0.089334 8.730160
497 1 2 0 -6.704804 -0.165892 10.024245
498 1 2 0 -8.207420 0.060746 9.966819
499 1 3 0 -8.766731 0.511631 10.987813
500 1 1 0 -8.851167 -0.577098 8.977765
501 1 4 0 -4.871800 0.035639 8.932959
502 1 4 0 -6.099650 -0.797867 8.002499
503 1 4 0 -6.379603 0.602172 10.795373
504 1 4 0 -6.514059 -1.228415 10.339368
505 1 4 0 -8.316985 -1.014678 8.258816
506 1 4 0 -9.833090 -0.545963 8.919578
507 1 1 0 -4.878643 3.139322 9.062914
508 1 2 0 -4.649566 4.328949 9.987955
509 1 2 0 -4.957775 5.668926 9.413617
510 1 3 0 -5.630236 6.445624 10.106188
511 1 4 0 -4.081549 2.846329 8.507102
512 1 4 0 -5.406537 4.281488 10.784832
513 1 2 0 -3.243945 4.227889 10.546816
514 1 2 0 -3.087728 5.171882 11.728346
515 1 3 0 -4.053576 5.190045 12.600221
516 1 3 0 -2.058101 5.835943 11.978474
517 1 4 0 -2.562382 4.521403 9.724738
518 1 4 0 -2.932032 3.215635 10.964683
519 1 1 0 -4.878039 5.785317 8.031390
520 1 2 0 -5.310084 7.089332 7.406389
521 1 2 0 -6.749125 7.172087 6.971101
522 1 3 0 -7.405628 8.229614 7.089684
523 1 4 0 -4.283642 5.091117 7.531729
524 1 4 0 -5.274077 7.841191 8.198368
525 1 2 0 -4.287673 7.649544 6.440392
526 1 2 0 -4.264316 6.824230 5.084233
527 1 2 0 -3.348184 7.282872 3.940214
528 1 2 0 -1.862959 6.984827 4.246876
529 1 1 0 -1.232990 7.951755 5.175746
530 1 4 0 -3.353989 7.682751 6.978380
531 1 4 0 -4.577117 8.665353 6.188031
532 1 4 0 -5.271336 7.010431 4.645228
533 1 4 0 -4.183939 5.756196 5.214904
534 1 4 0 -3.478219 8.414723 3.726542
535 1 4 0 -3.567163 6.665420 3.125679
536 1 4 0 -1.380469 7.033451 3.200397
537 1 4 0 -1.658625 5.960828 4.579387
538 1 4 0 -1.681026 8.865239 5.169898
539 1 4 0 -0.322832 8.170574 4.811931
540 1 4 0 -1.120976 7.690090 6.115363
541 1 1 0 -7.260673 6.129896 6.365283
542 1 2 0 -8.574938 6.119982 5.731267
543 1 2 0 -9.544300 5.242356 6.500946
544 1 3 0 -10.776630 5.341657 6.228564
545 1 4 0 -6.694313 5.297054 6.084394
546 1 4 0 -8.965369 7.148290 5.836761
547 1 2 0 -8.593435 5.700600 4.232465
548 1 2 0 -8.142917 6.797216 3.313691
549 1 2 0 -8.922098 8.128550 3.290754
550 1 3 0 -10.019708 8.282415 2.683597
551 1 3 0 -8.418377 9.080422 3.962396
552 1 4 0 -9.637470 5.370747 3.983240
553 1 4 0 -7.841735 4.791994 4.106244
554 1 4 0 -7.988334 6.410373 2.240226
555 1 4 0 -7.108545 7.056748 3.606925
556 1 1 0 -9.109752 4.287946 7.340476
557 1 2 0 -10.009860 3.416611 8.055823
558 1 2 0 -10.705939 2.327979 7.248022
559 1 3 0 -11.556202 1.623209 7.719085
560 1 4 0 -8.134437 4.133993 7.462110
561 1 4 0 -9.403268 2.909131 8.828371
562 1 4 0 -10.766691 4.008828 8.630570
563 1 1 0 -10.238426 2.084832 5.988242
564 1 2 0 -10.830327 1.014314 5.135787
565 1 2 0 -10.123635 -0.408365 5.490888
566 1 3 0 -8.886974 -0.473105 5.573450
567 1 4 0 -9.463779 2.473999 5.471519
568 1 4 0 -11.972825 0.862184 5.405029
569 1 2 0 -10.573783 1.408499 3.605155
570 1 2 0 -11.473874 2.659840 3.274246
571 1 2 0 -10.768674 0.116838 2.675834
572 1 2 0 -11.386046 3.100490 1.827956
573 1 4 0 -9.497664 1.719665 3.575726
574 1 4 0 -11.189235 3.505368 3.971634
575 1 4 0 -12.466031 2.387035 3.608591
576 1 4 0 -10.418619 0.285197 1.650312
577 1 4 0 -11.889425 -0.154704 2.658339
578 1 4 0 -10.253412 -0.844191 2.935472
579 1 4 0 -10.489631 3.687189 1.608836
580 1 4 0 -12.252949 3.808896 1.730836
581 1 4 0 -11.600834 2.256313 1.164934
582 1 1 0 -10.904182 -1.495291 5.769914
583 1 2 0 -10.294825 -2.685192 6.266115
584 1 2 0 -9.362686 -3.411747 5.150144
585 1 3 0 -9.822907 -3.806655 4.048145
586 1 4 0 -9.678597 -2.483780 7.200705
587 1 2 0 -11.433893 -3.623279 6.740457
588 1 2 0 -12.623002 -3.096904 5.800687
589 1 2 0 -12.355474 -1.596314 5.926055
590 1 4 0 -11.632975 -3.481644 7.836795
591 1 4 0 -11.185183 -4.717775 6.760900
592 1 4 0 -13.676441 -3.284634 6.130235
593 1 4 0 -12.571296 -3.294434 4.749284
594 1 4 0 -12.712668 -1.093954 6.983468
595 1 4 0 -12.878080 -1.082331 5.087665
596 1 1 0 -8.141305 -3.913338 5.553940
597 1 2 0 -7.265296 -4.892156 4.877616
598 1 2 0 -7.954629 -6.074235 4.106746
599 1 3 0 -7.526189 -6.449816 3.017058
600 1 4 0 -6.579043 -4.462262 4.120819
601 1 2 0 -6.340090 -5.386881 5.987491
602 1 2 0 -6.098980 -4.115508 6.793069
603 1 2 0 -7.478029 -3.499220 6.819358
604 1 4 0 -5.439953 -5.907262 5.648183
605 1 4 0 -6.857707 -6.166813 6.603499
606 1 4 0 -5.359728 -3.456071 6.338156
607 1 4 0 -5.774381 -4.378426 7.875984
608 1 4 0 -7.367742 -2.409829 6.921891
609 1 4 0 -8.055072 -3.868224 7.656931
610 1 1 0 -9.008919 -6.608446 4.793434
611 1 2 0 -9.678181 -7.733135 4.285369
612 1 2 0 -10.514900 -7.453854 3.062726
613 1 3 0 -10.598980 -8.267352 2.099054
614 1 4 0 -9.372380 -6.226786 5.718134
615 1 4 0 -8.952673 -8.430078 3.800831
616 1 2 0 -10.385978 -8.504460 5.406790
617 1 2 0 -11.095963 -9.718862 4.959627
618 1 3 0 -12.323382 -9.860403 5.304109
619 1 3 0 -10.342738 -10.617376 4.418998
620 1 4 0 -11.151852 -7.927877 5.826167
621 1 4 0 -9.623560 -8.740853 6.193107
622 1 1 0 -11.049078 -6.202245 2.940419
623 1 2 0 -11.642018 -5.709443 1.705877
624 1 2 0 -10.614336 -5.092838 0.713167
625 1 3 0 -10.927213 -4.951138 -0.459225
626 1 4 0 -11.081256 -5.587042 3.696816
627 1 4 0 -11.984075 -6.605539 1.087897
628 1 2 0 -12.768231 -4.705104 1.983069
629 1 2 0 -13.883829 -5.316250 2.907105
630 1 2 0 -15.114338 -4.418666 2.924881
631 1 3 0 -15.405304 -3.917271 4.026449
632 1 1 0 -15.906827 -4.358107 1.868346
633 1 4 0 -13.285557 -4.431812 1.024843
634 1 4 0 -12.425058 -3.757312 2.498081
635 1 4 0 -13.493993 -5.422715 3.976146
636 1 4 0 -14.172955 -6.317959 2.590855
637 1 4 0 -15.643280 -4.761085 0.943045
638 1 4 0 -16.887617 -4.110344 2.002905
639 1 1 0 -9.403516 -4.718671 1.187009
640 1 2 0 -8.418526 -4.190723 0.263736
641 1 2 0 -7.842430 -5.239112 -0.660532
642 1 3 0 -7.328931 -6.262671 -0.141830
643 1 4 0 -9.039521 -4.862514 2.100989
644 1 4 0 -8.913388 -3.436668 -0.331077
645 1 2 0 -7.143827 -3.503558 1.041637
646 1 2 0 -7.586437 -2.244888 1.828880
647 1 2 0 -6.397386 -1.503568 2.513414
648 1 3 0 -5.279630 -1.340947 1.984414
649 1 1 0 -6.649301 -1.020214 3.747788
650 1 4 0 -6.392988 -3.161834 0.246377
651 1 4 0 -6.600747 -4.159050 1.729753
652 1 4 0 -8.388106 -2.412938 2.663083
653 1 4 0 -8.063908 -1.554062 1.129126
654 1 4 0 -7.599327 -0.974932 4.121687
655 1 4 0 -5.824088 -0.762663 4.379842
656 1 1 0 -7.975739 -5.085940 -2.051099
657 1 2 0 -7.316226 -5.859411 -3.099220
658 1 2 0 -6.535954 -4.884159 -3.940503
659 1 3 0 -7.016650 -4.323287 -4.885061
660 1 4 0 -8.649330 -4.421740 -2.442279
661 1 4 0 -6.552638 -6.577875 -2.549459
662 1 2 0 -8.293193 -6.657174 -4.000956
663 1 2 0 -8.951016 -7.920548 -3.205693
664 1 2 0 -8.120004 -9.231611 -2.981077
665 1 1 0 -7.224446 -9.317181 -1.844858
666 1 2 0 -6.456272 -10.352566 -1.540149
667 1 1 0 -6.261777 -11.358001 -2.422146
668 1 1 0 -6.102837 -10.524228 -0.288739
669 1 4 0 -7.757336 -7.047341 -4.904160
670 1 4 0 -9.163272 -5.963583 -4.290787
671 1 4 0 -9.924984 -8.240285 -3.732011
672 1 4 0 -9.185465 -7.539611 -2.167170
673 1 4 0 -7.474087 -9.426829 -3.909433
674 1 4 0 -8.804222 -10.092199 -2.813314
675 1 4 0 -7.241497 -8.530605 -1.089185
676 1 4 0 -6.629122 -11.380337 -3.383889
677 1 4 0 -5.815388 -12.216685 -2.108949
678 1 4 0 -6.430516 -9.899279 0.447997
679 1 4 0 -5.622476 -11.346782 -0.024111
680 1 1 0 -5.292942 -4.653337 -3.548836
681 1 2 0 -4.364875 -3.733621 -4.272520
682 1 2 0 -3.884056 -4.434009 -5.580010
683 1 3 0 -3.533279 -5.624908 -5.562725
684 1 4 0 -4.823372 -5.284331 -2.925755
685 1 4 0 -4.946353 -2.808529 -4.509708
686 1 2 0 -3.111739 -3.306714 -3.368632
687 1 2 0 -3.512923 -2.415189 -2.103271
688 1 2 0 -2.187524 -2.216424 -1.223893
689 1 2 0 -3.958754 -1.022674 -2.555738
690 1 4 0 -2.365328 -2.709721 -3.991308
691 1 4 0 -2.556390 -4.179643 -2.968211
692 1 4 0 -4.305604 -2.923554 -1.464240
693 1 4 0 -2.062550 -3.144793 -0.620117
694 1 4 0 -2.115031 -1.291482 -0.497561
695 1 4 0 -1.342308 -2.211899 -1.862143
696 1 4 0 -3.107951 -0.478453 -3.033604
697 1 4 0 -4.161562 -0.403495 -1.628661
698 1 4 0 -4.885892 -1.120725 -3.194404
699 1 1 0 -3.856496 -3.700788 -6.722801
700 1 2 0 -3.452842 -4.182763 -8.089520
701 1 2 0 -2.174020 -3.372729 -8.520048
702 1 3 0 -2.088562 -2.114569 -8.327579
703 1 4 0 -3.898301 -2.618583 -6.734908
704 1 4 0 -3.183017 -5.236597 -7.998616
705 1 2 0 -4.717190 -3.967990 -8.947270
706 1 2 0 -5.895436 -4.854833 -8.519342
707 1 2 0 -4.331848 -4.232926 -10.428080
708 1 2 0 -5.797633 -6.318004 -8.660393
709 1 4 0 -4.967766 -2.891891 -8.863808
710 1 4 0 -6.807800 -4.540991 -9.113471
711 1 4 0 -6.224024 -4.682991 -7.474756
712 1 4 0 -5.263890 -4.453041 -11.073519
713 1 4 0 -3.637199 -5.120375 -10.524428
714 1 4 0 -3.762608 -3.358380 -10.861528
715 1 4 0 -4.807288 -6.678730 -8.216144
716 1 4 0 -5.855482 -6.587729 -9.747066
717 1 4 0 -6.665159 -6.845883 -8.176671
718 1 1 0 -1.222564 -4.057751 -9.205087
719 1 2 0 -0.136624 -3.415950 -9.921138
720 1 2 0 0.070256 -3.976880 -11.394080
721 1 3 0 0.610536 -5.076439 -11.582664
722 1 4 0 -1.285072 -5.056820 -9.232195
723 1 4 0 -0.492377 -2.326993 -10.196345
724 1 2 0 1.325233 -3.451838 -9.292553
725 1 2 0 2.252979 -2.485580 -9.980048
726 1 2 0 1.821424 -1.150642 -9.963953
727 1 2 0 3.553048 -2.772749 -10.524243
728 1 2 0 2.627188 -0.136222 -10.473998
729 1 2 0 4.271695 -1.747890 -11.019280
730 1 2 0 3.875296 -0.391840 -11.048201
731 1 4 0 1.721374 -4.514315 -9.302918
732 1 4 0 1.363608 -3.152679 -8.161531
733 1 4 0 0.900203 -0.869990 -9.442890
734 1 4 0 4.058655 -3.780788 -10.525233
735 1 4 0 2.406689 0.963664 -10.402987
736 1 4 0 5.227337 -2.093738 -11.483853
737 1 4 0 4.613135 0.382875 -11.414402
738 1 1 0 -0.469213 -3.209862 -12.373989
739 1 2 0 -0.546701 -3.542255 -13.816781
740 1 2 0 -1.166423 -4.938647 -14.104553
741 1 3 0 -0.706356 -5.741630 -14.896149
742 1 4 0 -0.983659 -2.328002 -12.034153
743 1 4 0 -1.328286 -2.810564 -14.197792
744 1 2 0 0.847710 -3.453814 -14.522754
745 1 4 0 1.557524 -2.617362 -14.253614
746 1 4 0 0.737328 -3.373371 -15.641978
747 1 4 0 1.440476 -4.334496 -14.238884
748 1 1 0 -2.318816 -5.128826 -13.446057
749 1 2 0 -3.143886 -6.311856 -13.378529
750 1 2 0 -2.861305 -7.249269 -12.148953
751 1 3 0 -3.693124 -8.018797 -11.770725
752 1 4 0 -2.759876 -4.364139 -12.830293
753 1 4 0 -4.238045 -6.105454 -13.271863
754 1 4 0 -3.058170 -6.943948 -14.307195
755 1 1 0 -1.585886 -7.303614 -11.606121
756 1 2 0 -1.141926 -8.330961 -10.575659
757 1 2 0 -1.714720 -8.146916 -9.185538
758 1 3 0 -1.663641 -7.016934 -8.671236
759 1 4 0 -0.991604 -6.486688 -11.627949
760 1 4 0 -1.432507 -9.342075 -10.930403
761 1 2 0 0.441949 -8.242663 -10.513047
762 1 2 0 1.115895 -8.804397 -11.798957
763 1 2 0 2.659392 -8.559556 -11.862927
764 1 2 0 3.525297 -9.477008 -11.044076