ITEM: TIMESTEP
0
ITEM: NUMBER OF ATOMS
648
ITEM: BOX BOUNDS pp pp pp
0.0000000000000000e+00 1.8643000000000001e+01
0.0000000000000000e+00 1.8643000000000001e+01
0.0000000000000000e+00 1.8643000000000001e+01
ITEM: ATOMS id type x y z fx fy fz
1 1 8.67966 7.08769 17.9461 -19.3527 -13.639 6.25201
2 2 7.80945 6.75579 18.2607 18.4949 11.1596 -6.01922
3 2 8.72223 6.81424 17.0254 5.85599 -0.890166 3.45586
4 1 18.5257 8.24445 6.83762 11.8085 12.5587 58.8481
5 2 0.216892 7.89544 6.05003 10.8935 -14.9684 -50.5046
6 2 0.444268 7.82601 7.5302 -15.2958 7.9793 -8.89884
7 1 8.37906 18.5504 6.81463 25.5385 6.64228 -3.75624
8 2 9.34042 0.098069 6.73406 -20.9151 -2.68951 1.38711
9 2 7.93962 0.573676 6.26984 -0.656308 -0.308718 3.40946
10 1 6.58995 1.84432 11.7198 46.6828 -15.9611 -12.5859
11 2 5.88543 2.40231 11.9251 -37.6261 28.8114 18.1934
12 2 6.18153 1.06275 11.3693 -6.58868 -16.6156 -5.55691
13 1 7.1466 5.75358 2.33152 -56.1364 42.5085 -2.61462
14 2 6.36812 6.12603 2.86268 40.1937 -23.4301 -4.21826
15 2 7.02502 6.29465 1.5182 16.3021 -20.7884 10.9258
16 1 16.2164 10.1388 16.1382 -32.0875 21.5958 16.7579
17 2 16.9509 10.2747 15.5847 32.9015 -1.03241 -20.1636
18 2 15.8498 11.0405 16.2399 1.98783 -14.756 2.71439
19 1 10.6046 15.0374 2.30369 -8.13409 -25.494 -7.18668
20 2 10.5292 14.3949 3.01849 1.41683 -0.603724 2.75561
21 2 11.0236 15.78 2.70962 11.6057 19.8833 4.5888
22 1 17.1624 8.24409 10.3708 13.0676 7.07862 9.73504
23 2 16.5528 8.68798 10.966 -4.65968 7.37974 1.83434
24 2 17.9421 8.82333 10.3208 -6.34155 -10.1937 -2.20396
25 1 14.901 15.8652 16.3167 18.01 -6.87509 18.5636
26 2 14.0225 16.1982 16.2525 -26.9236 12.7201 -6.50875
27 2 14.9141 15.482 17.2099 2.63751 -6.05913 -7.59706
28 1 12.1752 13.3771 0.408263 -11.3168 6.26442 9.98381
29 2 12.0579 13.8465 18.23 5.67057 -4.50268 -16.0578
30 2 11.6217 13.8904 1.00796 3.42507 -1.00312 9.73088
31 1 9.27358 5.34243 4.05546 -35.2781 32.5984 16.8393
32 2 8.64594 5.4665 4.83764 28.3783 -16.8163 -28.778
33 2 8.74177 5.68615 3.30282 7.52493 -14.9247 9.48156
34 1 1.83016 4.27673 11.6495 -21.1764 37.5598 -8.14901
35 2 1.70328 5.22377 11.9391 6.02814 -28.7768 -8.29565
36 2 2.40811 3.85345 12.2597 13.4728 -11.3181 18.3421
37 1 1.96438 6.83299 8.3731 -11.1902 3.43717 -25.3738
38 2 2.49614 7.21578 9.0563 9.35281 -0.190165 18.6039
39 2 1.81128 5.90585 8.57354 7.84101 -3.79534 5.21373
40 1 5.40557 4.38899 7.93274 -6.81526 4.7224 -2.63907
41 2 5.53738 3.43895 7.78131 -7.79962 9.88898 0.533881
42 2 4.75516 4.73491 7.29062 10.7858 -16.238 7.24535
43 1 3.23 2.92842 17.5524 -0.538114 20.9936 16.7312
44 2 3.93109 3.19827 16.9402 -0.965509 8.21721 4.01649
45 2 3.00444 3.70897 18.1497 6.13449 -29.114 -23.6081
46 1 7.4624 5.26283 6.13117 9.12728 4.25284 -1.73168
47 2 8.02565 5.58849 6.88177 -24.817 -14.4341 -14.6054
48 2 6.93508 4.45577 6.3254 16.0496 22.0303 12.0173
49 1 9.77896 7.02384 11.9834 11.1205 -3.87253 23.9446
50 2 10.2721 6.37256 11.5011 10.9222 -10.0302 -1.39678
51 2 9.1532 7.31587 11.3499 -23.6433 13.1239 -20.7784
52 1 14.1167 3.54999 8.03003 -30.7601 -1.60704 -37.9113
53 2 13.4732 4.22413 7.73132 15.1608 -10.723 4.30178
54 2 14.3809 3.80189 8.88487 12.8065 16.1495 34.678
55 1 4.82329 17.2568 4.03846 -17.85 32.0436 -31.4073
56 2 5.49315 17.973 4.01308 -7.71314 -24.6342 10.4391
57 2 4.18746 17.5412 3.33843 10.9703 -13.5421 12.8553
58 1 16.4918 16.6259 10.0493 29.9016 15.3745 -40.7533
59 2 16.1673 16.3226 10.8594 -24.6786 -13.0437 37.8908
60 2 15.9925 16.2084 9.33562 -4.01544 -1.82242 7.63759
61 1 1.94489 4.93323 0.49791 29.1886 10.4759 3.59715
62 2 2.55322 5.26335 1.2053 -17.2324 -10.4098 -15.9422
63 2 2.08253 5.591 18.4408 -14.7087 -3.80383 3.81857
64 1 11.816 13.3571 16.2711 -7.8083 1.12937 6.2001
65 2 11.2371 12.6203 16.5671 13.3708 1.96491 -16.2063
66 2 12.2446 13.1893 15.4079 -11.197 -7.32732 11.8633
67 1 10.105 11.0651 16.9545 16.7158 -32.7784 1.37979
68 2 10.5674 10.1947 17.1295 -14.0823 30.097 -5.45833
69 2 9.25349 10.8067 16.5912 -2.99511 2.11526 2.57572
70 1 11.7264 17.5421 13.4742 2.50122 -25.0158 -11.214
71 2 12.2771 16.9836 12.8968 -8.91486 0.79877 6.23222
72 2 12.1041 18.3936 13.317 1.59091 22.4782 2.42571
73 1 6.33029 9.31911 12.2264 15.6898 -25.4439 -25.1534
74 2 7.02603 8.96242 11.6353 -17.823 2.07037 1.33758
75 2 6.81249 9.95941 12.7172 5.93051 22.1649 19.4162
76 1 16.2187 12.7249 2.70186 -8.69715 -37.3569 7.82337
77 2 17.0292 13.1566 2.50302 19.6243 18.7999 -9.68795
78 2 15.4982 13.3357 2.61812 -8.61102 21.6356 1.57727
79 1 0.637202 12.5625 5.84914 -32.6687 7.10288 -2.13707
80 2 0.892312 12.5507 4.90771 -4.51242 -1.40786 13.4578
81 2 18.3039 12.804 5.85329 37.5994 -4.88925 -6.97833
82 1 5.19922 16.3781 18.5047 -7.71264 -0.634541 -12.9921
83 2 5.80284 15.8543 17.9455 2.11468 10.7978 13.7187
84 2 5.67034 16.9636 0.462296 7.23142 -5.58048 -3.24093
85 1 0.510145 7.62945 4.0545 45.851 19.5686 -25.4796
86 2 18.5719 8.14656 3.45296 9.61971 -16.7838 10.3831
87 2 1.46496 7.74082 3.66917 -52.3954 -1.94356 25.3273
88 1 3.14672 8.89584 6.52626 -54.2957 5.34018 -1.73828
89 2 3.50609 8.59991 7.35294 9.18701 -2.26398 8.55435
90 2 2.14573 8.92962 6.68203 45.3688 -0.563656 -9.64228
91 1 7.30854 10.3037 16.1717 -0.0267506 0.140778 15.7468
92 2 6.56213 10.4624 15.5802 1.32412 -0.384411 10.7132
93 2 6.99303 10.278 17.1118 0.130505 3.94788 -23.0495
94 1 11.1122 1.06968 4.98939 -2.83136 -16.8604 13.0177
95 2 11.0776 1.97142 4.64864 2.2702 -4.31387 -11.6367
96 2 10.7048 0.433547 4.37027 2.96408 14.9419 -2.56144
97 1 4.45204 2.70061 13.2052 -8.32298 -31.9478 35.5434
98 2 4.60333 3.05865 14.0914 -0.476624 15.5497 -15.2927
99 2 4.38645 1.737 13.4626 0.207127 24.1129 -25.2696
100 1 8.42792 10.0237 1.78469 -10.6267 -17.9408 16.848
101 2 8.3405 10.6377 2.53622 4.43246 -2.98222 -4.40025
102 2 8.49672 9.11244 2.17467 4.60711 29.3182 -9.45134
103 1 10.5335 1.75383 15.546 -31.9958 -1.22726 0.532554
104 2 11.3977 1.82718 15.9216 23.4057 -5.242 -0.0927752
105 2 10.5608 1.78317 14.5837 3.34522 3.38855 0.282019
106 1 2.77693 12.941 7.74821 -10.6415 2.34425 -2.27994
107 2 3.28797 13.5733 7.23382 5.58977 0.334345 4.09149
108 2 1.98704 12.8256 7.20013 5.22386 -8.52712 2.54059
109 1 3.63517 11.6895 5.33963 -10.2259 -13.0028 -10.3717
110 2 3.35385 11.0502 6.03137 4.73753 15.317 -16.6328
111 2 2.8758 11.855 4.74058 11.3048 -4.09559 12.5928
112 1 6.88803 14.474 16.8428 -13.42 9.46677 6.94107
113 2 7.55973 13.8293 16.6383 4.5229 -1.76969 -1.40507
114 2 6.60381 14.8838 16.0165 0.0834179 -9.06129 -0.120708
115 1 14.1722 14.5374 3.41536 20.1951 -3.19134 -21.8839
116 2 13.6514 15.2845 3.14096 -9.23852 13.3738 0.77613
117 2 13.8512 14.2508 4.25439 -13.5451 -9.47926 16.7085
118 1 8.28226 18.1809 16.0824 -9.43856 -15.6135 -5.07226
119 2 8.77677 17.3494 16.3071 1.43839 31.5077 -5.33478
120 2 8.7603 0.384816 15.9919 11.1327 -19.5096 4.24776
121 1 4.73724 1.61643 4.90111 5.86874 37.6921 -30.6753
122 2 3.96969 2.16837 5.15263 9.12039 -10.9712 -6.28456
123 2 5.18465 2.1484 4.15475 -17.6049 -26.8232 41.7187
124 1 15.1457 12.8616 16.4403 -17.0638 -11.2899 43.408
125 2 14.6041 12.8692 17.2613 22.7365 8.03356 -12.6578
126 2 14.49 12.6307 15.8136 -17.0236 -4.89604 -35.7974
127 1 15.779 18.3837 16.786 48.5063 8.0766 44.3104
128 2 16.5108 18.615 17.4688 -41.9285 -7.99937 -34.0327
129 2 15.7694 17.4186 16.7687 -10.3466 2.2793 -1.1406
130 1 1.1383 1.1331 16.5571 -3.54071 10.9478 5.94974
131 2 1.96551 1.50352 16.9177 -15.9767 0.55296 -3.51275
132 2 0.420521 1.53444 17.0916 21.5279 -7.8795 -5.43288
133 1 18.0817 4.5907 15.863 15.8138 -19.1991 -2.64562
134 2 18.5818 3.91936 15.3489 -11.6552 16.5822 9.8521
135 2 18.5602 4.7339 16.6874 -1.16116 -1.56098 -3.02727
136 1 12.22 16.9378 16.1148 -9.97587 -12.4224 57.0196
137 2 11.409 16.6934 16.6676 29.0172 6.05041 -31.7989
138 2 11.9646 17.3216 15.2917 -14.4882 2.9648 -22.1743
139 1 15.8709 2.55221 17.9707 -3.56258 26.452 -16.7944
140 2 15.7355 3.48355 18.2574 6.35046 -25.5765 3.86241
141 2 15.6659 2.59235 17.0072 6.0189 -6.56803 19.8103
142 1 6.70868 13.791 10.2637 1.94011 22.9489 3.02058
143 2 6.59347 13.548 11.1958 0.710608 -4.45224 -7.92394
144 2 6.58252 13.0514 9.6765 -3.73143 -16.591 0.344408
145 1 10.146 18.2027 2.80372 16.894 35.9 -12.6825
146 2 10.2207 0.331961 2.18345 -1.03174 -23.6422 14.9845
147 2 9.26571 17.8868 2.67703 -18.7462 -7.34721 -7.1199
148 1 2.97538 17.748 6.06078 -27.2244 1.77787 1.96995
149 2 2.09399 17.6473 5.67013 1.23544 -3.46851 16.5241
150 2 3.45883 17.8838 5.26396 32.1509 0.10025 -8.47089
151 1 12.558 17.0134 7.97028 2.72879 -14.1128 -3.91884
152 2 11.9572 16.2512 7.82085 4.20569 13.3061 15.6125
153 2 12.4657 17.4524 8.83591 -10.4039 -6.95813 -9.08653
154 1 14.8795 15.2862 8.28544 5.56082 -19.5077 38.9848
155 2 13.9824 15.6136 8.40666 -1.04882 8.68143 -14.5015
156 2 15.2312 15.4641 7.43118 2.2507 10.8701 -29.8329
157 1 17.5429 18.3228 0.375372 -51.3852 -2.4253 -14.1847
158 2 18.116 17.6308 0.128652 38.5367 -21.5025 -8.63787
159 2 17.9698 0.288559 0.934677 24.3068 21.4661 19.9837
160 1 0.910209 10.3712 1.41143 -2.71779 -52.992 43.3073
161 2 0.158544 9.88347 1.87089 22.0109 19.7614 -26.7074
162 2 0.565924 11.0969 0.944383 -22.7833 34.6337 -23.5778
163 1 1.55407 12.175 3.31087 16.6578 22.9783 50.8488
164 2 1.36245 11.4802 2.72234 -7.70692 -21.3552 -33.2695
165 2 1.61623 13.0206 2.87285 -0.913798 3.83337 -14.7861
166 1 0.543127 17.2543 4.88609 29.8094 34.6465 -52.7559
167 2 0.11032 17.9772 5.31124 -19.8915 12.2203 12.8491
168 2 0.420366 16.4266 5.2673 -10.0988 -43.8479 36.8786
169 1 1.10053 1.01949 9.38768 20.7334 -4.84081 3.89797
170 2 1.46081 0.575286 10.1589 7.03147 5.77442 11.7732
171 2 0.265613 0.594128 9.34525 -29.6063 -3.3853 -10.3011
172 1 16.8007 2.32783 13.2877 6.1037 15.2386 -31.0559
173 2 17.0701 2.57314 12.3549 -10.0746 -10.076 30.4228
174 2 16.4263 1.43993 13.282 1.60122 -3.62923 0.222317
175 1 2.45231 15.8283 12.1942 27.8718 -10.8871 18.2649
176 2 2.8623 15.5513 13.0537 -9.1784 7.03247 -27.4702
177 2 2.91392 15.3801 11.4615 -3.34054 6.42182 7.24567
178 1 16.435 15.531 5.9458 21.7194 38.3058 -21.2998
179 2 17.3808 15.5177 6.20547 -16.0791 -6.59953 3.69269
180 2 16.4147 16.2211 5.22063 -10.9707 -19.0563 26.084
181 1 5.84547 5.02056 11.8065 15.5941 -20.7973 -13.2046
182 2 5.55799 5.91374 11.8891 -11.5246 18.633 11.9833
183 2 5.09 4.45915 11.9819 -3.94875 -1.81326 3.16792
184 1 15.2214 4.86555 0.731755 -13.7826 -16.8748 28.0949
185 2 14.6776 4.45845 1.47821 23.1081 18.7106 -26.9415
186 2 14.6696 4.95834 18.5986 -11.4435 4.17379 2.92627
187 1 16.3401 16.2933 2.11217 18.5695 -12.4905 -31.3072
188 2 16.0666 16.7695 2.87319 -12.4192 21.1701 22.1863
189 2 16.7601 16.9279 1.50378 -10.9162 -1.12869 10.7347
190 1 0.305885 4.87877 3.79118 -7.51195 53.5881 20.4451
191 2 0.299338 5.85541 4.09758 -3.10789 -46.5114 -24.0825
192 2 1.16991 4.5635 4.03062 6.84312 -11.1831 1.05233
193 1 2.92501 14.9782 15.0356 -4.41813 7.08234 41.1019
194 2 3.0159 14.7264 15.9987 0.986861 -4.57119 -32.7424
195 2 2.35392 15.7535 15.1247 6.41577 5.11218 -9.25191
196 1 1.1115 14.5727 9.55731 53.3594 20.601 -11.7192
197 2 2.08491 14.4157 9.46275 -24.0912 20.2308 -9.17401
198 2 0.897072 13.7408 9.90248 -29.0631 -35.5955 19.1061
199 1 13.6501 16.6688 11.5433 6.78983 17.7214 -9.74398
200 2 13.4697 17.4567 10.9694 -2.9322 -22.903 16.7504
201 2 13.5721 15.8897 10.9842 -10.359 0.342192 0.0202177
202 1 4.73098 1.47842 0.720986 -5.29759 -7.25447 0.0447572
203 2 4.27169 1.98826 0.034225 -5.56193 -3.14325 9.7343
204 2 4.11741 0.788607 1.06182 6.25861 16.2271 -3.37713
205 1 1.42158 18.4663 11.9139 -14.0127 27.0043 -17.9914
206 2 1.21766 0.394331 12.6648 1.7087 -1.58128 0.41261
207 2 1.94844 17.765 12.2423 13.0376 -22.9613 11.2697
208 1 11.5498 10.1018 4.11619 27.4262 20.5676 -21.0421
209 2 11.5687 10.5955 3.24216 -3.20948 -18.7647 28.9446
210 2 12.4899 10.1059 4.45555 -29.515 -1.53007 -14.7279
211 1 8.38254 12.182 3.76573 -26.3924 1.04105 6.81072
212 2 9.25863 12.501 4.06076 -19.5654 3.48754 6.33549
213 2 7.63736 12.4251 4.40785 41.4561 -5.4387 -17.0092
214 1 14.3228 4.03714 3.29709 11.5996 0.889358 18.0886
215 2 14.8928 4.14179 4.10547 -12.6664 -0.432988 -23.901
216 2 13.4701 4.45558 3.48891 5.46089 -2.24129 3.2962
217 1 5.58188 1.78199 7.50513 -33.666 -46.5708 42.0626
218 2 5.0172 1.13958 8.12095 34.1345 40.5367 -42.64
219 2 5.33078 1.59122 6.59529 1.4651 -1.13721 -3.53311
220 1 17.9086 1.12503 4.88467 5.13037 -2.27617 -10.7476
221 2 18.4038 1.54032 4.14207 -7.55128 -2.38968 19.1857
222 2 17.6814 1.78344 5.55455 5.62983 -0.00428508 -6.93418
223 1 6.83101 9.39303 4.49716 -12.9019 3.06885 -29.4929
224 2 6.83675 9.57499 5.42715 5.2276 -1.57178 18.8103
225 2 7.66807 8.99049 4.24996 8.60683 3.06936 7.19189
226 1 2.71406 14.9654 1.962 -12.6433 -7.2797 -26.4735
227 2 3.33343 14.7912 2.66354 11.3685 -5.36414 4.18623
228 2 3.09502 14.6645 1.10257 -3.50464 10.9487 24.1748
229 1 17.279 12.8803 13.1283 -18.5839 20.1434 9.0108
230 2 16.4044 13.2339 13.3283 -9.51346 -21.2442 0.20606
231 2 17.6948 13.7346 13.0834 29.6252 3.29486 -10.2855
232 1 15.0196 10.5818 1.38314 -38.8036 -34.5801 -31.952
233 2 15.5102 11.1963 1.85791 33.5109 39.8843 28.1173
234 2 14.3351 11.0964 0.933298 4.14202 -6.46403 5.49191
235 1 5.71789 6.95838 4.52856 4.11089 -29.6335 9.96606
236 2 5.85266 7.87985 4.34179 3.17266 16.1428 1.23553
237 2 6.44364 6.70841 5.13514 -12.5329 -0.461157 -7.94794
238 1 8.12142 8.26262 10.159 -0.855146 6.49391 46.4818
239 2 8.58519 8.93965 9.66877 4.4396 1.59282 -10.2318
240 2 7.56021 7.74854 9.59836 -7.32825 -5.6782 -22.3885
241 1 13.5311 18.2901 5.8079 -14.4364 -13.815 12.5854
242 2 12.703 0.102298 5.56963 8.23181 2.14052 6.61043
243 2 13.2939 17.6289 6.50758 2.60691 23.7973 -17.1373
244 1 0.327324 2.56344 0.113251 2.62118 15.3541 1.11187
245 2 18.009 2.52214 18.5736 10.3638 17.1812 4.70476
246 2 0.724331 3.48299 0.160564 -23.8753 -26.7718 -0.881277
247 1 12.6396 10.9599 9.76875 -60.0152 14.8867 -10.4701
248 2 11.6552 10.7306 9.75031 40.0232 26.8927 -4.84212
249 2 12.944 10.1383 10.0842 28.9404 -31.8014 10.6031
250 1 0.789377 12.2851 11.08 12.3121 4.77193 16.7259
251 2 18.4919 12.3017 11.2021 -18.2956 -1.72231 -7.06107
252 2 1.09088 12.7637 11.8722 5.11265 -11.1183 -7.6011
253 1 5.04567 7.2193 13.4912 -20.9717 -2.87687 -14.2941
254 2 5.59899 7.84649 13.0247 8.94565 11.9067 4.64647
255 2 5.48047 6.97898 14.3058 11.2978 1.34955 6.76892
256 1 1.28609 6.99027 11.837 -50.3798 -70.0072 -12.7986
257 2 0.481329 7.14037 11.2978 16.1889 0.462756 10.6855
258 2 1.71601 7.79102 11.8803 28.8555 60.7949 7.07409
259 1 15.4442 9.46712 12.3088 17.5488 35.5581 30.8368
260 2 15.6103 10.4448 12.4444 -11.4156 -32.7422 -13.7105
261 2 15.5582 9.10301 13.208 -6.0251 -0.167312 -17.6616
262 1 16.6404 12.9744 5.44078 -0.477448 -16.7093 5.71929
263 2 16.2955 13.8866 5.54247 6.71099 -18.3284 -17.4666
264 2 16.51 12.593 4.54035 -5.5475 22.5864 15.6708
265 1 6.17495 10.0683 0.210584 -22.0037 -7.52033 -29.8636
266 2 5.35839 10.4511 0.557392 5.20282 -1.85407 -1.83494
267 2 6.76092 10.0813 0.943985 23.8798 0.550264 15.5383
268 1 12.3644 6.05734 4.04236 -20.6788 -35.4367 28.6454
269 2 12.4738 6.70802 3.38308 -3.94744 31.282 -24.9442
270 2 11.4212 5.77124 4.03221 20.7152 8.11174 -1.23853
271 1 0.124733 12.8266 0.203961 1.72956 2.54106 -4.3392
272 2 0.029974 13.5935 0.786871 -3.06107 -4.47794 0.0529132
273 2 18.185 12.9963 18.0877 7.84157 1.57112 5.96497
274 1 3.83931 18.5785 8.61972 17.9182 -8.56599 -14.1766
275 2 3.58625 18.36 7.70531 -6.70328 -0.941099 8.10721
276 2 3.07994 0.282626 9.06556 -18.5101 7.20519 -0.527908
277 1 7.37599 17.2741 4.45241 45.8101 34.7343 -2.7797
278 2 8.02493 17.9603 4.76808 -26.0663 -25.3607 -1.65849
279 2 7.47725 17.3636 3.49301 -12.8678 -9.31687 6.18264
280 1 9.20909 17.0315 12.2197 44.1268 -5.71549 17.0535
281 2 9.48765 16.172 11.8421 -16.3435 15.6721 -2.29993
282 2 9.99892 17.2887 12.7762 -25.7988 -5.61825 -13.0657
283 1 13.3284 13.0292 7.94175 -52.6762 -33.6944 -6.73328
284 2 13.0533 12.253 8.47808 14.3801 9.17086 -2.06391
285 2 14.1985 13.2855 8.14946 32.3912 12.3835 13.183
286 1 14.9871 2.94126 15.3478 14.7752 10.8142 -9.8874
287 2 14.2243 2.52816 14.9303 6.27209 -7.10728 -1.53608
288 2 15.7054 3.02501 14.6718 -21.9622 -5.02255 13.6584
289 1 9.85637 15.4939 17.0026 6.25802 5.34328 -5.30261
290 2 10.2013 14.6312 16.7411 3.93948 4.67059 -1.18803
291 2 9.35728 15.3668 17.8085 -8.94372 -2.90673 5.88613
292 1 11.2848 8.23994 16.5492 3.15289 33.2939 2.2253
293 2 10.8315 7.75123 15.8747 -9.91387 -14.5897 -7.3255
294 2 11.7506 7.62533 17.1016 4.32393 -13.5731 6.91104
295 1 3.77097 18.1898 16.7118 5.96936 32.6304 11.943
296 2 4.24576 17.6768 17.3569 8.77088 -19.0197 5.38959
297 2 3.7978 0.441972 17.1008 -3.8528 -14.6362 -12.0582
298 1 2.20581 4.09889 8.95874 4.57905 1.19328 9.26631
299 2 3.00197 3.55544 8.74643 -17.2537 17.4622 14.7611
300 2 2.10364 4.24367 9.94001 11.4926 -15.28 -28.3391
301 1 9.9196 10.3581 9.75231 -27.966 16.15 -17.0738
302 2 9.34403 11.1055 9.40387 24.0849 -21.7639 18.0289
303 2 9.87032 10.282 10.7171 1.16507 9.52838 -7.01624
304 1 9.73405 0.807167 10.8572 18.2139 21.6835 4.91261
305 2 9.58177 18.5811 11.2204 -14.9491 -12.8069 -2.84973
306 2 9.10878 1.03014 10.1675 -9.37034 -6.01821 -3.77915
307 1 9.18221 15.2247 10.2123 -19.1642 -10.2407 -19.6365
308 2 9.04674 16.0847 9.7631 0.663926 -17.4388 12.4081
309 2 8.3908 14.6843 9.94105 22.9839 14.6501 17.4764
310 1 1.00316 9.27987 10.329 14.3691 -27.2472 -11.0896
311 2 1.16727 10.1904 10.5724 12.779 8.1681 -2.56256
312 2 1.84996 8.76119 10.1498 -30.7163 35.51 10.5854
313 1 16.8004 4.89338 8.19813 23.5039 -12.6505 29.7165
314 2 16.1748 5.31624 8.83318 15.8467 -9.35353 -17.5774
315 2 17.4877 4.38941 8.71628 -29.2517 16.802 -13.3541
316 1 14.6379 14.6893 0.402347 -11.159 -0.978579 14.7724
317 2 14.9609 15.3376 1.05877 0.0769081 -12.0935 -6.53519
318 2 13.9048 14.1906 0.841144 15.9383 15.9909 -14.4014
319 1 3.51181 11.0525 9.63829 2.1739 12.5105 -11.7746
320 2 3.41507 11.3617 10.5484 4.86707 2.92948 -3.5212
321 2 3.25155 11.8076 9.06383 -0.0479228 -15.275 7.06779
322 1 11.0289 10.8695 1.26208 17.169 21.0662 -6.34954
323 2 11.1535 11.716 0.753779 -4.03889 -27.9068 14.1765
324 2 10.1142 10.5923 1.16471 -3.02205 2.54599 -1.38039
325 1 13.2239 7.06188 12.8977 -30.3793 3.52384 -4.06516
326 2 14.1381 6.84046 12.8922 25.6531 -5.59605 1.27225
327 2 12.7471 6.22139 12.9668 3.13335 6.34025 -4.15647
328 1 9.62584 1.88878 0.937813 20.0839 -1.09549 37.2578
329 2 8.77484 2.11506 0.623903 -26.2152 1.3675 -15.013
330 2 10.1764 1.70882 0.191067 9.10224 -0.512606 -16.4895
331 1 10.6054 13.537 4.7508 -3.45661 -5.20977 -1.23778
332 2 11.3208 12.9359 5.04367 -5.78837 16.6981 -6.98771
333 2 10.4128 14.1619 5.47507 11.2154 -13.4565 -5.70688
334 1 14.2525 1.6915 10.8868 25.1006 21.2848 4.13062
335 2 15.0842 1.26497 10.6465 -4.75627 -8.22365 -3.1417
336 2 14.5069 2.62992 10.8824 -13.5101 -4.08816 2.36647
337 1 14.6678 12.4248 11.7157 -12.7858 -12.3306 -9.5252
338 2 15.5574 12.5766 11.3177 -24.032 -11.5318 -4.29299
339 2 14.0022 11.9667 11.1187 32.4402 16.632 10.9337
340 1 8.24065 5.08218 9.78509 -7.81525 41.6802 29.5679
341 2 7.45364 5.10173 10.3836 16.236 -11.1581 -20.3292
342 2 8.36822 4.22882 9.41503 -10.4798 -31.0118 -7.50393
343 1 1.59893 16.8132 18.3262 1.78713 43.6046 -19.4726
344 2 1.99225 17.1675 17.4932 -13.4068 -2.95443 18.1753
345 2 1.72693 15.8931 18.2458 9.12037 -33.6792 3.80865
346 1 1.43382 17.2563 15.3383 70.3372 -10.1908 -13.5082
347 2 1.32309 18.1562 15.5759 -5.39176 26.6374 11.2222
348 2 0.623143 16.841 15.3782 -64.6751 -20.2725 0.847241
349 1 3.73599 5.55499 6.2196 -13.8181 39.8005 -2.84681
350 2 3.32092 6.26594 6.76194 2.21889 -20.7758 -8.723
351 2 4.19567 6.05321 5.52665 5.67395 -4.434 2.61268
352 1 12.357 9.41487 14.1826 15.3987 -29.3966 1.09302
353 2 12.9591 8.63784 13.9021 -33.8501 34.209 16.2235
354 2 11.936 9.15457 15.0346 16.6427 1.77305 -15.4117
355 1 4.0362 15.2647 6.90572 33.8672 24.728 -7.08093
356 2 3.45744 16.0249 6.7945 -6.17655 -1.99751 -5.28974
357 2 4.92941 15.6518 6.66696 -29.006 -22.9584 9.78444
358 1 0.606517 8.56128 14.8606 9.39684 15.8059 -8.30397
359 2 0.498099 9.52604 14.9437 -1.87135 -9.61679 5.58044
360 2 1.28855 8.50016 14.167 -9.83185 -6.21013 7.33103
361 1 12.9763 8.3683 10.3434 1.19405 4.03237 -29.9304
362 2 13.7163 7.90436 9.89822 -7.22584 1.47622 17.5396
363 2 12.9003 8.0957 11.2534 8.23718 -11.529 10.7869
364 1 15.2983 7.63672 3.47583 -36.323 -26.5913 31.5529
365 2 14.5024 7.10501 3.29647 15.7237 15.5958 -25.1442
366 2 15.2922 7.47095 4.43335 26.8259 14.207 -3.84044
367 1 17.3208 6.63818 0.028906 -16.9884 17.5938 -6.80353
368 2 16.7479 6.05403 0.554933 4.15554 3.30118 -7.73843
369 2 16.7141 7.27151 18.2009 11.1968 -20.2911 18.275
370 1 8.79355 6.92545 7.84172 -17.9944 -26.8715 17.7017
371 2 9.63968 7.32585 7.85068 34.0918 14.4557 -5.0304
372 2 8.77688 6.39871 8.67404 -5.99252 8.25367 -18.4431
373 1 12.3209 0.607808 1.1741 -9.70621 -1.67076 -6.18378
374 2 12.995 1.15082 1.58835 11.8921 -6.95349 3.94176
375 2 12.79 18.5825 0.66073 -1.23695 5.23567 5.50046
376 1 5.68514 15.097 14.5145 3.67475 30.0662 -16.0184
377 2 4.72797 15.1695 14.4772 -3.92865 -1.97247 7.85561
378 2 6.02476 15.8935 14.032 -4.97132 -21.5573 17.6103
379 1 3.822 6.53853 1.67803 9.4136 -3.73603 -11.0507
380 2 3.54968 7.33117 1.17576 -2.2757 -10.4776 17.1213
381 2 3.81642 6.7886 2.60252 -0.785086 8.11893 4.5328
382 1 3.89262 11.6088 12.227 13.3033 3.31132 5.82178
383 2 4.72051 12.1032 12.348 -1.72331 -9.21471 -1.78635
384 2 3.26281 12.0921 12.7526 -14.3078 7.33513 5.3451
385 1 5.45444 3.88172 15.8755 10.9934 63.7886 22.8921
386 2 5.90627 3.24049 15.3708 25.1493 -29.4334 -15.1609
387 2 6.11665 4.65725 15.9739 -37.1513 -37.4972 -5.17498
388 1 14.4636 10.317 4.39501 8.04256 -17.7362 -43.5508
389 2 14.9051 9.88853 5.13417 -2.05112 -4.59794 0.583625
390 2 14.7084 9.81768 3.53446 -13.0506 20.827 46.8358
391 1 7.94949 17.2895 9.24469 -12.4073 10.6503 -4.49958
392 2 7.23447 17.5423 9.86969 11.4984 0.663317 -18.2334
393 2 8.01085 17.8889 8.47627 -8.74254 0.310971 13.2931
394 1 4.4986 14.4237 3.96317 22.7921 6.59984 27.2073
395 2 4.89523 15.3318 4.14709 -15.7294 -33.8816 -1.82578
396 2 4.80237 13.7713 4.67129 -10.4496 32.1184 -24.135
397 1 14.3358 7.38467 15.7635 24.4704 6.70756 7.84838
398 2 15.2401 7.23754 15.391 -26.2451 3.74497 13.7384
399 2 14.4998 7.83446 16.6232 -7.00308 -11.7114 -18.5693
400 1 2.86875 18.2246 1.90934 8.22952 29.9251 46.5059
401 2 2.54447 17.7626 1.17928 -17.7355 -34.6574 -39.0362
402 2 2.08284 18.4154 2.45796 15.223 4.61378 -9.70941
403 1 7.96139 1.61197 4.52525 29.4796 -3.5692 28.5612
404 2 7.4985 1.83317 3.72811 -4.47294 12.8461 -13.1797
405 2 8.84188 2.051 4.57628 -23.8244 -8.06079 -10.6756
406 1 2.69247 14.1251 17.7583 -39.7925 -12.5472 14.0506
407 2 1.78944 13.8074 18.0556 30.3506 3.26472 -13.0537
408 2 3.33089 13.517 18.1683 -2.67461 8.7222 -7.81087
409 1 0.711797 1.68055 13.8626 44.8563 0.102291 -15.8697
410 2 0.854596 1.56791 14.7929 -2.34617 -4.64243 17.7358
411 2 18.4557 1.86826 13.7064 -36.5874 5.33291 1.35002
412 1 4.5582 18.5986 13.9691 17.69 -10.1212 -17.3986
413 2 5.37614 18.0918 13.7297 -17.5363 18.7277 11.6893
414 2 4.4096 18.4453 14.9034 -4.80692 -4.44744 5.40837
415 1 7.10973 0.453475 18.3742 -17.6731 43.6393 33.9394
416 2 6.99644 0.098599 17.5235 3.55611 -15.5456 -38.0778
417 2 6.34312 1.05085 18.5323 11.5496 -19.3687 -0.295067
418 1 16.0934 18.4421 14.1505 -13.5696 -24.3411 -34.6818
419 2 15.444 17.7866 13.7542 20.5302 26.3107 23.9987
420 2 16.0379 18.4915 15.109 -11.2087 -0.403296 -0.42938
421 1 10.1156 4.52417 16.2956 -63.5341 -10.6596 -28.1335
422 2 10.9808 4.34247 16.5381 54.6034 1.03427 17.4186
423 2 9.84863 3.69679 15.8473 1.5569 12.8802 9.55133
424 1 15.8226 17.9425 4.41327 -12.7412 7.89699 33.5898
425 2 16.5547 18.5732 4.53052 -9.15632 -3.64108 -2.38506
426 2 15.1071 18.2295 5.06915 28.1993 -15.1976 -35.9746
427 1 6.9246 17.3574 13.7412 41.9162 15.5861 -1.52717
428 2 7.49648 17.8115 14.4369 -23.1807 -22.4309 -23.3681
429 2 7.52703 17.1963 12.9658 -13.588 5.84324 25.6525
430 1 13.2892 6.57209 6.73437 -45.0771 -7.84691 9.23056
431 2 14.2146 6.66317 6.83486 35.9508 1.69852 -11.4068
432 2 13.0394 6.38579 5.82242 8.43649 1.47489 -3.25235
433 1 7.6616 2.3861 9.17526 8.07841 -8.24756 -37.8228
434 2 7.32169 2.39592 10.0555 -17.554 -3.79201 20.6206
435 2 6.95914 2.1022 8.53308 18.9972 7.96045 22.8376
436 1 15.1464 14.8771 13.6482 -9.08859 5.19149 1.30171
437 2 15.0308 15.0223 14.6069 -2.64384 -0.244686 -12.5428
438 2 14.3194 15.1152 13.1798 15.9342 -4.32482 12.4068
439 1 9.29105 8.34315 3.70472 25.3147 -22.6228 7.1656
440 2 10.1776 8.75859 3.73678 -14.6049 0.788849 -0.227964
441 2 9.48378 7.39942 3.88081 -7.38963 16.6026 -2.51653
442 1 17.6854 13.4687 16.4528 1.20699 34.422 -16.619
443 2 16.7357 13.4337 16.3398 -3.15338 -8.61752 5.60033
444 2 17.8844 14.3284 16.0065 4.30498 -21.0483 11.9174
445 1 5.04883 10.6547 2.58751 21.171 -14.0773 3.70172
446 2 5.87017 10.3468 3.04382 -23.0848 5.17759 -4.78185
447 2 4.55197 11.1441 3.22928 -5.68041 9.33128 13.9497
448 1 3.70566 8.3683 10.3381 2.8322 -31.099 -4.13864
449 2 3.86061 9.29726 10.2176 3.71195 18.7597 0.626964
450 2 3.86652 8.14601 11.2715 -4.70232 11.1023 -9.34814
451 1 16.1079 7.11641 6.33859 19.1617 -15.4194 -14.8444
452 2 16.7241 7.70559 6.80408 -7.69122 -6.37409 -7.38138
453 2 16.6678 6.33083 6.12136 -24.1396 12.8226 8.63966
454 1 15.2027 7.00502 9.1117 -12.4455 33.5656 -30.1004
455 2 16.009 7.42176 9.46585 -11.7729 -5.93044 -7.51071
456 2 14.9881 7.51375 8.25647 14.3105 -22.443 40.0586
457 1 6.4525 13.1649 12.9201 -14.4212 4.62434 6.2224
458 2 7.2977 12.7289 13.0561 -0.519457 -3.7562 7.19322
459 2 6.25327 13.7237 13.7059 9.03992 -10.4089 -22.4145
460 1 12.1145 4.49786 13.0694 60.1541 40.3897 -0.599702
461 2 12.3852 4.68406 13.9868 -12.8154 -8.572 -1.53547
462 2 11.3952 3.9317 13.0199 -51.9002 -33.7145 4.15206
463 1 11.3323 8.18365 7.8522 33.2694 0.481688 12.7059
464 2 12.0901 7.73501 7.43634 -16.2057 -1.97452 -6.97761
465 2 11.7651 8.45102 8.68662 -20.5523 -0.0583287 -5.01537
466 1 17.1666 10.776 7.42179 36.6255 -17.1838 -28.5238
467 2 17.7906 10.0723 7.08441 -19.5131 16.2155 23.227
468 2 17.2793 11.4524 6.73733 -13.1225 1.2547 8.82205
469 1 5.22802 18.1471 11.05 -26.218 -15.3265 2.15414
470 2 4.73762 18.1049 11.901 9.27461 0.443739 -18.2338
471 2 4.62535 17.7417 10.374 18.9971 14.5949 15.121
472 1 7.56653 17.6363 1.80821 2.05543 -3.48119 51.3305
473 2 7.65741 16.7768 1.42856 8.63412 -18.3953 -16.9352
474 2 7.35855 18.2549 1.13994 -1.30452 14.3677 -27.7338
475 1 1.85092 12.9256 13.6076 17.4877 19.0754 23.2488
476 2 1.72104 12.4156 14.4258 -6.17153 0.259213 -13.4945
477 2 2.19932 13.7866 13.9501 -9.51965 -23.6336 -9.57422
478 1 9.73868 6.79159 14.8001 -20.4051 42.5069 -0.796717
479 2 9.95236 5.95211 15.1529 11.7083 -38.3225 9.01974
480 2 9.967 6.84408 13.8723 6.06139 -4.97285 -7.43337
481 1 15.2087 4.3972 10.7794 -26.9028 -24.0998 -25.0358
482 2 16.0082 3.89203 10.8637 24.0661 5.32644 6.50358
483 2 15.2102 5.16148 11.3322 8.70888 13.5856 17.3899
484 1 11.1963 6.12482 0.150068 -24.122 -22.6006 13.7234
485 2 11.2381 5.20796 0.481504 11.6671 13.7026 -10.2768
486 2 10.2374 6.21547 18.6186 16.3103 12.5014 -3.12394
487 1 0.19533 11.3359 15.1413 -21.6592 10.769 -30.7731
488 2 18.4021 11.874 14.3993 14.4722 -20.1415 31.2795
489 2 18.4481 11.661 15.9631 4.68348 9.49999 -5.94609
490 1 7.06882 9.13032 7.26059 -22.6631 -3.09615 15.424
491 2 6.55985 8.40099 7.69941 15.0645 18.9564 -17.5163
492 2 7.9725 8.82922 7.21375 6.85038 -6.33336 0.902711
493 1 18.4578 15.4507 12.3537 6.97015 0.808933 -7.22971
494 2 0.776651 15.5698 12.2511 -16.5258 -3.56518 7.28193
495 2 18.1456 15.6789 11.4721 -4.11121 -1.28038 2.68538
496 1 16.5694 4.36967 5.25107 2.45626 -29.8761 41.2812
497 2 16.7744 3.81151 6.06026 -19.4928 29.4804 -23.4548
498 2 17.3898 4.32671 4.78168 14.6436 6.44337 -19.6343
499 1 17.788 3.06911 10.7078 8.19486 16.3181 17.0759
500 2 0.075758 3.1322 11.0257 -18.3141 -4.46618 -10.1687
501 2 17.6332 2.20749 10.3226 7.04824 -10.7221 -5.22745
502 1 12.3142 0.064083 10.1758 -16.6046 52.5698 5.40656
503 2 11.3746 0.384648 10.259 27.2889 -19.3162 -0.832384
504 2 12.8178 0.919304 10.3228 -10.5773 -40.3011 -9.47381
505 1 10.3666 9.83315 12.2981 15.5663 4.35939 24.9446
506 2 11.1015 9.85063 12.955 -12.9587 3.49885 -14.3711
507 2 10.1328 8.91188 12.2898 -2.48305 -14.5784 -4.85859
508 1 0.463654 2.82678 7.01839 21.5285 29.229 11.0876
509 2 0.875324 3.58845 7.48211 -15.1018 -9.47019 -10.8481
510 2 0.770257 2.12665 7.58365 -2.10845 -18.3887 2.87796
511 1 0.478371 15.2358 6.91004 -5.05906 -57.415 8.40739
512 2 0.585298 15.6463 7.75647 1.85019 10.3725 13.8373
513 2 0.556531 14.2524 7.18353 -2.63305 52.383 -27.2731
514 1 16.9534 7.00251 15.3394 -15.9191 6.08615 -6.45156
515 2 17.6338 7.63543 15.0899 14.1822 -6.8729 3.83609
516 2 17.3093 6.19568 15.7235 10.8839 2.85836 -7.52482
517 1 9.0001 12.4151 8.13768 -31.1102 30.9609 25.8163
518 2 9.37386 11.8218 7.49742 -5.17233 -14.4246 -22.3971
519 2 8.02402 12.632 8.03373 38.2843 -19.0142 -6.47162
520 1 1.27238 1.95406 3.05803 -13.5483 -7.94682 -18.4152
521 2 1.26084 2.61511 2.34121 0.274888 -9.5029 12.9388
522 2 1.89031 2.22344 3.73293 6.76618 11.1556 -0.474465
523 1 4.13907 15.1156 9.62039 -21.6353 8.89781 12.928
524 2 4.07003 15.1439 8.65747 6.73796 -2.17255 1.87071
525 2 4.96029 14.7006 9.86457 13.8731 -5.89958 -3.36363
526 1 7.17628 2.17866 14.5671 10.1969 15.6665 0.500505
527 2 6.99528 1.68402 13.7698 -5.58163 -4.27811 -6.1139
528 2 7.62131 2.98432 14.249 -3.31044 -9.5634 8.35677
529 1 18.6082 14.7131 2.1481 32.6395 -16.0207 -3.46113
530 2 0.838003 15.1297 2.25966 -5.15041 -8.02703 -3.38947
531 2 17.988 15.3544 2.42675 -27.9684 22.1971 4.74449
532 1 9.94138 2.79524 12.9422 16.7157 -19.9527 -5.96647
533 2 9.79404 2.1456 12.2228 -2.63367 12.9584 8.66897
534 2 9.17835 3.36299 13.0326 -7.96092 5.51528 -6.54514
535 1 2.80444 8.90955 13.0076 -17.7822 -13.1167 0.317539
536 2 3.06361 9.80599 12.872 10.5962 22.9278 -4.25378
537 2 3.5122 8.48618 13.4775 15.1932 -9.60442 7.00981
538 1 3.236 8.3574 3.63664 -2.86765 -22.2709 68.2353
539 2 3.45085 9.0718 3.07326 14.564 28.9211 -13.7717
540 2 3.47645 8.58669 4.60794 -11.4307 -4.68562 -51.1711