ITEM: TIMESTEP
0
ITEM: NUMBER OF ATOMS
9737
ITEM: BOX BOUNDS pp pp pp
0.0000000000000000e+00 5.4990000000000002e+01
0.0000000000000000e+00 4.1909999999999997e+01
0.0000000000000000e+00 4.1909999999999997e+01
ITEM: ATOMS id type x y z fx fy fz
1 1 9.9631 5.60476 0.008413 6.29384 29.5246 19.0744
2 2 9.59585 5.61686 40.5223 49.6095 -15.082 -19.7261
3 2 8.19009 6.07902 40.3725 -38.3002 -36.0401 31.6494
4 3 7.228 5.27674 40.5663 25.6537 34.3003 -15.2325
5 4 9.24854 5.32486 0.671238 -4.4712 -3.37565 -7.28982
6 4 10.3108 6.54317 0.309331 -11.8382 -28.5043 -8.77497
7 4 10.7093 4.95217 0.170763 9.79439 -2.80927 4.02983
8 4 10.3426 6.38567 40.0332 -19.5644 -29.2331 3.89265
9 2 9.77742 4.13431 39.9813 -28.2245 -12.7597 2.79543
10 2 9.48564 3.81758 38.4974 43.5672 -24.1926 -8.96475
11 5 10.1176 2.11667 38.0047 -9.19737 11.9016 12.5734
12 2 9.21456 1.10205 39.2112 31.2522 23.9396 11.6177
13 4 8.99594 3.48122 40.5964 28.5446 19.8656 -13.413
14 4 10.8136 3.75653 40.1807 -3.6049 4.77507 7.99264
15 4 10.0744 4.47991 37.8007 -16.03 7.55553 14.4224
16 4 8.42529 3.84402 38.2863 -20.8998 9.83371 -6.83213
17 4 9.47601 1.46641 40.2263 -2.07893 -1.87234 0.341628
18 4 9.53146 0.065851 39.1813 1.34892 -20.4385 -9.90461
19 4 8.1577 1.22135 39.0727 -30.8502 -1.48556 -5.54631
20 1 8.07565 7.408 40.3203 38.3461 4.68909 -14.5778
21 2 6.84679 8.08521 40.1985 -59.0929 12.5985 8.76694
22 2 6.18936 7.48414 38.9048 -11.7821 0.575019 41.3478
23 3 6.7346 7.67531 37.8418 13.9355 0.826162 -41.115
24 4 8.95137 7.92937 40.1018 -13.7432 5.12585 4.7357
25 4 6.17099 7.78674 41.0889 17.7478 9.29385 -16.8634
26 2 7.04543 9.68435 40.1788 6.06779 -36.4281 36.3417
27 2 5.78315 10.5437 40.1541 10.0153 13.6856 -31.2349
28 2 4.87823 10.4891 38.8981 8.0898 32.2503 -21.0798
29 3 5.10035 11.2936 37.9551 -6.38068 -25.249 23.2549
30 1 3.78765 9.69754 38.9447 7.74282 -10.5609 -2.0448
31 4 7.77413 9.91905 39.4336 6.93206 10.4159 -38.5359
32 4 7.65159 10.0279 41.0787 -15.5363 -12.6708 -2.68622
33 4 6.21166 11.5927 40.0353 -14.0103 -9.11046 14.0038
34 4 5.24199 10.4471 41.1154 -6.90019 6.03163 0.39253
35 4 3.64982 9.13451 39.798 -8.63839 -3.4701 -4.98201
36 4 3.18526 9.53497 38.0983 12.4509 11.2825 18.2671
37 1 5.03649 6.76821 39.0271 29.2025 12.626 -49.9624
38 2 4.1742 6.30537 37.9199 2.45922 -5.77224 11.4432
39 2 2.7281 6.64357 38.2301 -33.27 13.9739 -28.2234
40 3 2.48558 7.27851 39.247 -7.20167 1.94081 18.2399
41 4 4.56901 6.92293 39.8729 -36.0812 -3.10094 47.9009
42 4 4.41115 6.93099 37.0362 4.08063 -6.87028 -11.6053
43 2 4.30896 4.77224 37.6863 5.60806 -34.2262 -10.7438
44 2 3.61194 3.83713 38.7945 21.7291 41.8848 -7.6362
45 2 5.81981 4.32753 37.5156 -0.302636 -10.5955 -12.2236
46 2 3.74184 2.37563 38.4472 -21.3499 -20.7746 -35.862
47 4 3.79188 4.51145 36.7016 6.3754 10.432 9.00978
48 4 2.54774 4.08441 38.8361 -15.7139 1.18722 1.17999
49 4 4.01487 4.13828 39.7949 0.987415 -11.5324 -1.87366
50 4 6.38959 4.49596 38.46 -5.87199 -9.93517 1.91854
51 4 6.36771 4.97617 36.7815 -14.8228 -10.6264 -0.132465
52 4 5.90888 3.19548 37.1534 1.72477 39.701 11.5881
53 4 3.39383 2.18531 37.3739 6.37275 7.50384 16.1992
54 4 3.10231 1.69487 39.022 -2.76045 -1.11045 15.6564
55 4 4.76015 2.00007 38.4839 16.883 -5.45935 8.37891
56 1 1.68415 6.36719 37.3348 37.2769 -12.9922 15.6035
57 2 0.304736 6.65563 37.6783 -19.186 -35.7743 -0.468083
58 2 54.3638 5.41499 37.39 23.5408 9.01503 -19.9847
59 3 54.8016 4.481 36.67 -18.0502 12.9096 17.6943
60 4 1.81134 5.6821 36.5646 -2.38907 6.77101 2.69516
61 4 0.26398 6.68603 38.7911 -5.02605 17.0245 3.77253
62 2 54.6928 7.87629 36.9427 9.14228 37.5998 28.2049
63 2 0.656467 9.08157 36.7109 -0.0956801 -8.96924 -14.639
64 2 1.56488 9.23116 35.5658 -28.7887 -16.4207 21.28
65 2 0.518242 10.1807 37.599 12.0453 -33.0617 -42.3022
66 2 2.2549 10.4284 35.3456 -0.685553 9.51875 21.9154
67 2 1.26608 11.2953 37.3573 -6.55985 56.8791 72.0683
68 2 2.14201 11.4551 36.3269 43.9558 24.4422 -61.5967
69 4 53.8494 8.28091 37.614 11.6877 -9.2043 -14.6276
70 4 54.1796 7.56606 36.0251 1.84695 0.514683 -15.8045
71 4 1.67027 8.40603 34.832 -2.56062 3.42592 3.08894
72 4 54.8243 10.1788 38.4192 -16.1978 -2.83683 23.7337
73 4 2.90465 10.5398 34.4584 1.04403 1.06161 3.93542
74 4 1.2044 12.0958 38.199 3.2453 -15.1518 -32.2206
75 4 2.76002 12.4636 36.1598 -24.4207 -43.5556 11.8549
76 1 53.0705 5.5478 37.8043 -13.4682 25.7632 10.8407
77 2 51.945 4.63101 37.5291 33.8243 -29.5042 -37.7332
78 2 50.7838 5.44293 36.986 4.21111 -0.422475 -19.7833
79 3 50.2621 6.29965 37.7355 -1.55474 -12.1519 -25.7528
80 4 52.801 6.45436 38.3333 3.61532 -42.2821 -15.9338
81 4 52.3053 3.83112 36.7028 -14.0928 30.7972 24.0178
82 2 51.5456 3.79903 38.7793 9.75018 1.06621 4.26496
83 2 50.3519 2.79661 38.4832 35.7171 10.1602 1.47909
84 2 52.8174 3.02556 39.2171 -10.4567 -30.55 12.3487
85 4 51.3202 4.51835 39.6193 -10.3559 -7.38818 -7.14654
86 4 50.5612 2.13754 37.5331 -9.75373 16.6535 26.894
87 4 49.4557 3.43665 38.3668 -10.8276 -7.01925 -6.76558
88 4 50.2008 2.17632 39.4156 -2.83245 -1.1989 -13.0752
89 4 53.3224 3.52205 40.064 3.32837 5.49303 2.41605
90 4 53.5736 2.86114 38.4382 5.5955 2.25759 -8.48168
91 4 52.5769 1.98664 39.5815 -0.855844 10.0945 -0.110617
92 1 50.4393 5.19673 35.6351 -19.7264 9.67141 42.9571
93 2 49.1691 5.71413 35.1171 8.57247 21.8964 -7.76629
94 2 48.0882 4.65728 35.3507 -19.9883 30.8425 14.9148
95 3 48.2827 3.53875 34.9335 -4.48089 -38.0316 -8.70437
96 4 50.7426 4.33028 35.1784 2.31221 -1.81777 -1.86606
97 4 48.9711 6.6281 35.7521 -11.2206 -0.672417 -16.6265
98 2 49.2032 6.03091 33.5236 -0.851856 65.2811 26.1578
99 2 47.9587 6.87959 32.9935 21.6676 -24.5773 11.3759
100 2 48.0434 7.32811 31.5002 51.7858 -12.5586 -5.19204
101 2 48.2074 6.22405 30.3724 28.294 -23.2516 17.4346
102 1 48.1983 6.77555 28.9911 -71.9632 -28.6889 -6.605
103 4 49.3393 5.11986 33.0139 -2.20502 -45.3575 -27.512
104 4 50.0955 6.63289 33.1892 -0.645528 -4.64769 17.8413
105 4 47.8013 7.74388 33.6913 1.36166 0.224784 -7.99748
106 4 47.0904 6.22572 33.1496 -13.2574 -0.904539 -3.87726
107 4 49.004 7.98659 31.3992 -27.9616 -9.11626 3.58403
108 4 47.1978 7.96127 31.27 -20.0009 14.5444 -5.73856
109 4 47.5417 5.33248 30.4619 -18.467 18.3391 -3.45282
110 4 49.1897 5.66674 30.5732 -8.59668 22.4275 -14.4147
111 4 48.9982 7.27964 28.7313 27.9214 19.6218 -9.55881
112 4 47.3685 7.40493 28.8518 27.8731 -11.8414 7.77703
113 4 48.0065 6.08598 28.2169 17.275 11.5652 28.2934
114 1 46.9206 5.03778 35.9702 10.3577 18.9682 5.15831
115 2 45.6557 4.25932 36.0398 9.08885 -0.641191 -14.1305
116 2 44.8836 4.39003 34.674 17.924 -7.95306 73.8288
117 3 45.3111 5.13887 33.8455 4.25406 24.8458 -47.415
118 4 46.9247 5.98842 36.4259 -8.42518 -21.6093 -9.66
119 4 45.9322 3.16772 36.074 -4.07513 2.77881 8.35057
120 2 44.7235 4.66099 37.2497 -7.79148 27.6424 25.8282
121 3 44.4559 6.1146 37.2032 37.085 -18.356 15.5747
122 2 45.2448 4.26963 38.7181 22.7861 29.0575 -8.8559
123 4 43.727 4.13168 37.1283 17.3832 10.5512 -0.864114
124 4 45.2761 6.59903 37.5183 -34.0557 -21.4787 -11.7364
125 4 45.8733 4.97275 39.4014 -10.271 -7.81482 -36.7347
126 4 45.822 3.36133 38.5799 14.1835 -15.9263 3.29814
127 4 44.4672 3.97387 39.4102 -27.3329 -5.40347 3.37723
128 1 43.7561 3.68722 34.6039 -10.1769 -38.5504 10.0379
129 2 42.7898 3.65331 33.5354 16.9998 -6.12306 -24.86
130 2 41.7694 4.78815 33.7404 2.26966 -0.410412 -51.1213
131 3 41.2522 5.37284 32.7445 13.6537 -18.3748 18.9894
132 4 43.5295 2.98811 35.3697 5.99608 22.1557 -16.865
133 4 43.3523 3.94914 32.5036 -19.5402 -19.5629 37.0771
134 2 42.0755 2.18627 33.4863 21.9074 34.2086 -29.4327
135 2 42.9391 0.859767 33.721 -6.85443 30.257 35.6042
136 2 42.2358 41.4668 33.4285 -9.81834 -3.65893 -31.5778
137 2 44.2283 0.854864 32.9471 53.2312 13.9788 40.9195
138 4 41.6117 2.20331 32.4686 -4.39523 -13.2201 2.61812
139 4 41.2586 2.27352 34.2121 -10.6776 -10.6054 4.67488
140 4 43.2056 0.83773 34.8124 -0.343624 1.56324 -2.51079
141 4 42.8118 40.5237 33.3983 6.69029 -0.569008 16.3673
142 4 41.9597 41.5484 32.3684 -17.7546 -2.75522 -9.07631
143 4 41.3245 41.3357 34.0216 -8.62626 -3.98831 3.9624
144 4 44.0827 0.853311 31.8896 -3.53557 -4.02089 -36.565
145 4 44.8236 41.822 33.2847 -5.06735 25.2561 -15.1823
146 4 44.8583 1.80877 33.1923 -14.5958 -31.7921 -4.90526
147 1 41.5264 5.19611 34.9737 -24.8334 44.6246 6.63495
148 2 40.6685 6.33721 35.2699 -7.96634 19.3021 -16.1623
149 2 41.3876 7.74941 35.097 -11.5591 -21.8484 1.81155
150 3 40.7047 8.75309 34.8417 -6.4948 4.14558 0.128999
151 4 41.7654 4.68652 35.8013 13.1043 -20.8107 18.8359
152 4 39.8731 6.44712 34.4383 10.8594 -11.0445 14.3032
153 2 39.8592 6.12601 36.6093 -15.5564 -7.24317 -37.5678
154 3 40.7443 5.88444 37.6633 23.6025 16.5055 19.3857
155 2 38.9047 4.85477 36.5395 -12.0583 61.1722 12.675
156 4 39.322 7.07341 36.7706 -11.99 4.52079 9.89046
157 4 41.1265 6.74598 37.8781 -3.93551 -10.4676 -4.79928
158 4 38.0585 4.98564 35.7954 18.0693 -6.53498 -0.435941
159 4 38.3566 4.77654 37.5171 8.14363 -6.92414 -3.72239
160 4 39.543 3.99696 36.3828 0.165947 -30.6128 -6.86199
161 1 42.7342 7.80416 35.136 -13.9315 11.8694 11.7976
162 2 43.5142 9.02936 34.9481 17.7181 -46.9691 35.2138
163 2 44.5073 9.42999 36.0349 -55.8537 -50.7646 50.0035
164 3 45.375 10.2125 35.7599 43.422 25.9365 -4.74067
165 4 43.1984 6.94617 35.4338 19.599 0.647333 4.29925
166 4 44.1406 8.86955 34.0842 9.16679 3.97336 -28.1373
167 4 42.9197 9.91228 34.8204 -18.5221 19.1219 -12.9063
168 1 44.2798 8.93745 37.3587 -4.0043 10.1489 -58.0949
169 2 45.1948 9.27519 38.4238 -4.17993 36.3676 -26.0855
170 2 46.5575 8.73344 38.0061 12.5522 -20.4469 18.6928
171 3 46.7331 7.49794 37.7681 -6.88831 31.8582 -6.20611
172 4 43.377 8.45873 37.5311 9.37776 2.67644 11.4724
173 4 45.2318 10.4158 38.3238 5.33405 -13.6354 14.6161
174 2 44.7823 8.84756 39.8415 35.39 -32.4267 -9.44324
175 2 45.5211 9.64049 40.9405 -33.0234 -16.4934 27.578
176 2 45.0293 11.1067 41.0295 26.955 13.1382 1.75579
177 2 45.9939 11.883 0.056845 5.44769 -3.52142 -7.77113
178 1 45.567 13.2463 0.389189 -21.8942 22.5552 58.7427
179 4 44.9649 7.71121 39.9163 -1.68078 22.7299 4.94117
180 4 43.7292 8.96914 40.0006 -34.3585 3.91778 0.788359
181 4 46.6326 9.56148 40.8729 -4.12637 -0.755434 -1.7729
182 4 45.1589 9.15652 0.052119 21.5355 9.01144 -26.2886
183 4 44.0384 11.1525 41.4882 -17.6691 -1.8484 1.78047
184 4 44.9645 11.6456 40.0488 1.32443 -5.52779 3.51863
185 4 46.9936 12.0079 41.4163 -11.0521 -7.71607 17.8496
186 4 46.0863 11.2417 1.01939 6.64185 25.7549 -16.0759
187 4 45.6176 13.9315 41.5535 6.39074 -1.54943 -2.93714
188 4 46.1207 13.6426 1.21669 -15.3499 -18.2055 -38.2327
189 4 44.572 13.3465 0.725918 28.6554 -12.4083 -12.8179
190 1 47.5723 9.62675 38.0225 1.62241 16.525 -13.2778
191 2 48.9413 9.31976 37.6447 28.3505 6.17866 3.85392
192 2 49.7947 9.65595 38.897 -51.2415 76.6103 -24.0977
193 3 49.6063 10.7902 39.4401 12.9093 -42.4425 -12.577
194 4 47.4538 10.6389 38.3066 -1.81401 -22.4625 -4.08398
195 4 49.0905 8.23756 37.4201 -8.03606 -0.867672 -0.903629
196 2 49.3577 10.1392 36.3514 -15.5639 -8.86216 -34.5575
197 3 48.3381 9.84531 35.2995 20.2521 4.60838 26.9691
198 2 50.6821 9.73379 35.6575 -13.1705 -1.52152 26.2758
199 4 49.443 11.2403 36.5183 -14.2645 -0.263993 8.70321
200 4 47.5106 10.2398 35.5579 0.218555 2.62212 3.26783
201 4 50.9323 10.3465 34.7687 -2.88514 -3.55444 -7.60949
202 4 50.7732 8.65192 35.4951 -3.14548 -9.24106 -12.1943
203 4 51.4763 9.94768 36.3674 17.1427 5.0591 10.0517
204 1 50.5022 8.69828 39.4305 24.0939 -43.466 77.1583
205 2 51.0483 8.71922 40.8082 -0.802123 10.2433 -32.8315
206 2 52.5183 8.33859 40.7231 46.1376 25.1574 58.8821
207 3 52.8914 7.33748 40.1143 13.0446 10.4001 -14.6089
208 4 50.6189 7.73433 39.1341 -5.48208 -8.91176 -29.3848
209 4 51.0045 9.75097 41.1725 -0.547397 17.2241 4.09797
210 2 50.2922 7.85282 41.8455 19.6626 -50.7873 -7.63422
211 2 50.2811 6.29504 41.471 -17.2864 -17.6708 26.7503
212 2 48.8668 8.31684 0.212195 -17.3783 63.506 12.4232
213 2 49.3691 5.38294 0.512646 14.3884 65.6628 -4.02696
214 4 50.9326 7.9114 0.860642 -12.3241 5.1929 3.57402
215 4 51.3127 5.83882 41.5287 -4.74499 10.5855 -5.5164
216 4 49.8921 6.13652 40.4532 1.6457 0.843055 -11.9856
217 4 48.0317 8.06123 41.424 13.0217 -7.20036 -2.54126
218 4 48.8693 9.49201 0.254246 -0.917701 -32.4673 -2.46528
219 4 48.5263 8.05212 1.23597 1.41612 -6.96817 -0.649274
220 4 48.2816 5.57755 0.309314 6.34191 -1.32326 5.14384
221 4 49.6363 5.72968 1.56057 -11.1106 -15.1353 -5.99489
222 4 49.54 4.32324 0.397743 7.27301 -24.1582 -2.3836
223 1 53.3925 9.14738 41.5454 -19.7766 -15.6836 -47.6014
224 2 54.8543 9.29866 41.641 -12.5045 -20.0873 29.727
225 2 0.407838 8.25913 0.762984 -29.7207 32.5524 -37.8245
226 3 54.8643 8.2564 1.86493 17.0269 -29.0845 20.332
227 4 52.9285 9.69819 0.341812 -9.11605 14.2566 13.2302
228 4 0.291486 9.0623 40.6877 9.99865 -5.39191 -34.8298
229 2 0.359683 10.7121 0.203065 -6.90664 -3.88067 -14.6485
230 3 54.4765 11.8025 41.752 -11.2022 -21.2627 -5.88002
231 2 1.6614 11.1001 41.4135 2.5167 -27.9916 -13.3179
232 4 0.487415 10.6137 1.28953 0.410521 18.1219 13.0764
233 4 54.0953 12.1937 0.613553 1.59003 1.59721 11.7532
234 4 1.92456 12.0955 41.7398 14.8193 23.7252 4.53742
235 4 1.52762 11.126 40.2979 3.61624 1.93597 7.36374
236 4 2.5241 10.4069 41.6364 -8.38015 7.04993 1.52106
237 1 1.45864 7.53391 0.367476 0.545631 9.71791 -21.8799
238 2 2.25081 6.65311 1.15507 26.446 -0.0641839 -18.4938
239 2 3.7671 6.96757 0.917085 -57.4365 -22.4689 85.9929
240 3 4.15047 7.41488 41.7757 21.4144 12.1214 -29.7802
241 4 1.8001 7.62601 41.3064 3.76941 -0.348546 3.21752
242 4 1.98413 6.84865 2.19976 1.77378 -4.57114 13.3572
243 2 1.98593 5.20856 0.673411 -39.0557 8.05152 -2.47083
244 2 0.499001 4.77546 0.950638 51.92 -35.3278 3.54994
245 2 0.302449 3.38226 0.307039 12.2804 5.92691 27.6936
246 2 0.318833 4.59091 2.46762 -57.1886 17.9845 23.4913
247 4 2.62035 4.47984 1.15306 24.0478 -12.5257 10.4353
248 4 2.17019 5.14075 41.4887 6.74012 -0.473312 -2.7006
249 4 54.8482 5.46061 0.448133 -33.0903 28.7369 -7.07308
250 4 54.2241 3.15851 0.337643 -14.6094 -12.7265 -2.24176
251 4 0.881511 2.58656 0.876485 -8.96903 11.0382 -11.5819
252 4 0.635114 3.38296 41.1822 2.70741 -4.49002 -20.1461
253 4 0.991181 3.80938 2.86091 2.53728 -4.51346 7.06316
254 4 54.1796 4.30541 2.72425 38.6722 3.44969 -10.622
255 4 0.495432 5.52724 3.08531 2.73328 -11.7655 -13.2166
256 1 4.49387 6.66874 2.05101 59.25 35.5651 -63.8633
257 2 5.97745 6.82619 2.08157 -13.5783 -40.6566 -15.6714
258 2 6.57448 5.47381 2.54294 67.6927 12.9151 50.3283
259 3 7.53922 5.43765 3.33186 -5.78511 6.85237 -12.8739
260 4 4.10191 6.33546 2.9164 -11.2688 -10.0369 11.6191
261 4 6.35409 6.85375 1.02753 1.73229 12.3732 3.55997
262 2 6.47001 8.00523 2.96248 -35.1701 -2.47648 -9.01657
263 2 6.52316 9.38515 2.26526 -52.089 -36.3571 -52.5381
264 2 6.66039 10.5311 3.17647 23.2175 30.5211 32.7092
265 3 7.81872 10.9467 3.49478 5.10838 -9.19539 -6.96115
266 3 5.64173 11.0573 3.6767 -20.5888 -1.64097 0.158765
267 4 7.42654 7.87231 3.41702 35.4584 -16.2138 5.63399
268 4 5.81838 7.86205 3.84167 -4.54492 27.3919 10.2645
269 4 5.56237 9.49095 1.59664 20.5708 1.89307 25.306
270 4 7.29681 9.38215 1.47849 13.2355 1.21078 1.19218
271 1 6.08096 4.31767 2.17259 -39.414 -15.8224 -24.7678
272 2 6.39518 2.91476 2.36043 4.12081 37.0723 19.1814
273 2 7.75633 2.62628 1.79624 63.8838 -9.4865 -25.3011
274 3 8.33634 3.36937 0.946953 -27.4154 -16.213 26.3787
275 4 5.28658 4.43126 1.58002 -24.0887 -1.16266 -20.2566
276 4 6.54455 2.77577 3.45017 -8.86613 -5.70482 8.60941
277 2 5.25427 2.02933 1.82805 -30.6144 -48.6247 5.61864
278 2 3.85552 2.1153 2.66383 78.486 27.413 32.1434
279 2 4.87851 2.27508 0.297641 -10.4566 -15.7718 22.2154
280 4 5.65998 0.937168 1.99721 -15.6319 23.5495 -14.0675
281 4 3.98898 1.63213 3.72107 -1.04911 23.3354 -24.3429
282 4 3.15409 1.48884 2.20213 -45.477 -24.0418 -26.2275
283 4 3.51802 3.20813 2.70746 -2.40249 -20.6527 6.6832
284 4 4.39172 3.24426 0.119355 -1.44384 9.21297 0.0772101
285 4 4.19746 1.51559 41.6955 12.4172 8.09212 16.5491
286 4 5.82002 2.28129 41.6778 17.5327 1.3005 -22.4945
287 1 8.43941 1.53208 2.30673 1.7292 42.4201 -39.4356
288 2 9.76672 1.10452 1.81012 11.995 -19.5667 23.3003
289 2 9.60964 41.7637 0.921245 4.05677 21.7498 -11.1929
290 3 8.59567 41.087 1.06007 7.18507 -15.5872 -8.58634
291 4 7.90606 0.81761 2.76924 -8.42032 -19.931 16.3865
292 4 10.4026 1.87877 1.34085 -18.5158 15.1062 -12.7744
293 2 10.6232 0.647963 3.0246 -34.7832 -39.5023 14.4787
294 2 11.0993 1.6812 4.04079 16.2934 16.5377 23.708
295 2 12.4719 2.27616 3.59128 -46.8378 -2.52013 6.7155
296 3 13.4675 1.63575 4.02276 22.0629 14.477 -13.463
297 3 12.4471 3.24187 2.73298 15.8946 -22.2661 28.0778
298 4 11.4641 0.045385 2.63277 10.8271 5.92943 5.75519
299 4 10.0353 41.7446 3.607 8.35649 20.5438 -12.0897
300 4 11.2832 1.11765 5.0427 -4.51453 13.9694 -21.6118
301 4 10.341 2.4932 4.3105 9.65416 -13.2167 -8.7997
302 1 10.6494 41.4676 0.039711 8.78515 0.440053 18.9323
303 2 10.7217 40.2184 41.1909 10.2574 -28.5822 12.1248
304 2 10.6889 38.8907 0.171469 -17.3791 70.2346 -13.2363
305 3 10.1368 37.8928 41.652 0.864281 -20.5458 12.6113
306 4 9.82473 40.2067 40.5786 -14.2689 -8.84554 -18.4029
307 2 12.0478 40.1799 40.3262 -31.3786 20.6535 10.6233
308 2 12.4388 41.6551 40.4794 16.223 20.8678 -10.392
309 2 11.8805 0.34241 41.7792 -28.1233 -36.7072 -34.4959
310 4 11.9102 39.8982 39.2292 -1.08614 0.893428 17.4874
311 4 12.7409 39.4563 40.8087 9.93344 3.46544 -3.32375
312 4 12.0845 0.391154 39.5895 8.62314 -16.2997 14.2071
313 4 13.5502 41.7447 40.5643 -1.70925 0.910467 -12.4735
314 4 11.7305 1.40344 41.6414 -9.5626 24.5309 -2.35213
315 4 12.5687 0.26268 0.684216 19.8182 -9.73862 27.9097
316 1 11.1854 39.0885 1.40191 34.1901 -11.3327 18.3686
317 2 11.4785 38.09 2.41707 -37.5808 13.2867 4.32174
318 2 10.2405 37.7763 3.3402 -0.155099 -13.1844 6.87934
319 3 10.4378 36.9653 4.27207 -11.6928 9.67513 -22.7546
320 4 11.6756 39.9703 1.62918 -8.97807 -2.58442 -2.36164
321 4 11.7153 37.147 1.89269 -3.37493 -11.1801 -2.58831
322 2 12.7263 38.4682 3.25859 -32.7454 -15.529 27.3397
323 3 12.5885 39.7408 3.87129 1.54426 18.5893 -11.5354
324 4 13.5945 38.4441 2.61946 23.9879 5.88222 -14.7576
325 4 12.9197 37.685 4.04183 -3.566 10.9198 -2.82194
326 4 11.9285 39.8531 4.57214 8.5625 -16.1459 -5.7164
327 1 8.98961 38.3717 3.14779 19.3135 28.1448 -76.0315
328 2 7.78009 38.1002 3.90315 -4.26896 22.0341 0.229441
329 2 6.83069 37.1869 3.18241 -25.8564 -25.3069 -16.1867
330 3 6.84398 36.9785 1.97125 20.9058 23.903 -13.4458
331 4 8.79049 38.9506 2.20714 10.5577 -30.8167 54.9659
332 4 8.11274 37.5073 4.75427 1.14536 -6.32615 23.8911
333 2 7.0077 39.4163 4.32571 4.21253 -4.87986 18.678
334 2 7.75781 40.1168 5.42156 46.58 -14.1846 12.934
335 3 8.30143 41.2262 5.21331 -14.6188 11.6514 -5.86083
336 3 8.10545 39.4797 6.46784 -18.045 3.20128 -4.6129
337 4 6.01572 39.173 4.78754 -1.72287 0.045533 -10.2864
338 4 6.87032 40.2048 3.55457 -4.98407 -10.6589 -12.5629
339 1 5.91154 36.4899 3.88964 18.6928 -0.691686 25.3425
340 2 4.98537 35.571 3.20749 -24.0931 31.8814 30.8723
341 2 3.79198 36.4499 2.67545 58.5623 50.3783 54.6165
342 3 3.60244 37.6478 3.05835 4.98938 -42.2114 -12.2812
343 4 5.945 36.5545 4.93654 -10.5756 -4.83423 -16.3239
344 4 5.5221 35.038 2.40161 -3.05594 2.46612 -11.4716
345 2 4.40384 34.4728 4.15145 -1.70261 45.9252 5.92389
346 3 3.98498 35.0725 5.41787 -8.00202 -46.5665 -16.5053
347 2 5.48475 33.4747 4.46048 0.249803 -29.9924 71.6177
348 4 3.54337 34.0389 3.61058 -6.82183 -12.9435 7.69028
349 4 3.62675 34.2747 5.86698 6.39679 27.749 2.05336
350 4 5.85279 32.9868 3.57629 11.3184 -16.9973 -22.3871
351 4 5.09248 32.6743 5.23041 8.97186 17.4623 -32.7541
352 4 6.34746 33.9006 5.03324 -0.476546 4.78606 -11.5797
353 1 3.00152 35.8184 1.87366 -46.1462 -42.5584 -55.0681
354 2 1.77021 36.3468 1.35692 -36.7765 14.163 11.1031
355 2 0.721356 36.5788 2.57059 18.2386 -29.7925 23.2574
356 3 54.9678 37.5551 2.63992 10.9193 3.0322 -8.68025
357 4 3.31287 34.9586 1.40066 1.19836 -3.77239 4.28893
358 4 2.05059 37.3327 0.922928 -11.4048 10.7741 9.22697
359 2 1.07197 35.5705 0.158527 41.3495 -39.9506 -9.05678
360 2 1.73776 35.9497 40.6674 -26.4234 39.8053 33.0301
361 2 54.5322 35.7209 0.133627 -14.8072 -12.0564 -1.20894
362 2 3.23928 35.9487 40.63 7.11928 -24.1756 -12.68
363 4 1.32474 34.4514 0.269568 -7.211 20.0201 5.35532
364 4 1.47926 37.0502 40.6385 -3.87579 -7.90549 -26.2729
365 4 1.36122 35.3789 39.7771 -4.72819 3.84386 12.155
366 4 54.087 35.0558 41.2526 3.68912 7.63158 3.17282
367 4 54.2076 36.7772 41.8385 0.949253 -6.55132 4.09096
368 4 54.0676 35.3362 1.10912 4.22691 12.456 -17.368
369 4 3.57003 34.9443 40.8434 9.13412 -24.8126 8.40569
370 4 3.78301 36.5792 41.3142 5.34684 18.5101 18.1918
371 4 3.6567 36.127 39.6372 -0.20476 7.44967 -14.9904
372 1 0.712989 35.6055 3.58431 38.0557 9.26554 -59.6495
373 2 0.05279 35.6483 4.83915 -15.0961 2.42646 38.658
374 2 0.191347 37.0144 5.48801 7.00468 33.8104 1.40802
375 3 54.154 37.7008 5.76148 35.4113 -11.6645 -8.2681
376 4 1.23482 34.733 3.35856 -11.2418 4.01634 10.8504
377 4 53.9671 35.581 4.69172 -20.2496 -5.13772 -12.456
378 2 0.463881 34.4895 5.81355 17.031 15.9659 -33.5139
379 2 54.8083 34.3393 7.16558 -30.7527 -16.2072 -11.1445
380 2 0.00712 35.4957 8.10271 3.59003 -8.69902 15.3198
381 3 54.0967 36.3529 8.34542 -1.77732 -9.94333 -12.6544
382 3 1.07192 35.4587 8.7399 35.3598 16.353 18.5034
383 4 1.56574 34.5304 5.94519 0.590681 0.639559 4.32925
384 4 0.280894 33.5741 5.23349 -1.52963 -16.3279 0.16603
385 4 0.223173 33.3947 7.64873 -6.8885 8.42796 -3.46601
386 4 53.7112 34.1554 6.97481 9.65493 -2.46487 7.60139
387 1 1.50649 37.4152 5.65526 -22.458 -31.2308 -17.0045
388 2 2.02438 38.6379 6.15097 -3.22056 29.1656 36.4104
389 2 1.58588 39.8651 5.40701 -13.5031 20.9194 -76.104
390 3 1.07209 40.8553 5.93778 8.03965 -15.1327 11.1864
391 4 2.24702 36.741 5.38136 -6.00826 1.88497 2.51587
392 4 1.72629 38.833 7.20228 -22.1923 -11.9073 0.0585309
393 2 3.51949 38.6121 6.24971 43.6984 -50.5664 -0.0787057
394 2 4.11017 39.7004 7.10642 -5.48661 12.2779 -12.8977
395 3 4.55887 40.7033 6.57435 6.12607 11.2234 -5.55098
396 1 3.97545 39.5562 8.42942 -13.6958 7.00999 41.6346
397 4 3.92653 38.5973 5.19958 6.67843 9.43594 11.2804
398 4 3.90699 37.6191 6.72902 -10.8805 23.4385 -12.7616
399 4 3.35162 38.8096 8.83526 13.2612 9.60447 -6.60232
400 4 4.25023 40.3377 9.09595 -2.56729 -20.1743 -21.9158
401 1 1.64621 39.8034 3.99517 -50.1719 52.4074 67.8966
402 2 0.960547 40.8538 3.14427 -3.37695 -31.9032 -17.009
403 2 54.4047 41.0035 3.47138 71.1401 19.2662 2.3079
404 3 53.9887 0.221409 3.63964 -22.8765 18.4333 9.81455
405 4 2.07659 38.9926 3.63308 18.9969 -31.9912 -34.7926
406 4 1.39808 41.8727 3.34889 0.835518 -9.01277 1.27119
407 2 1.14841 40.4887 1.56595 -9.49555 20.2148 39.7014
408 2 0.469253 41.6189 0.677094 10.8075 11.2475 47.495
409 2 2.6528 40.4777 1.25625 -15.459 -47.3647 -39.6369
410 4 0.776571 39.4398 1.40308 -11.1955 11.1351 -6.38222
411 4 54.3852 41.8501 0.825468 -5.0709 -17.7069 -2.05205
412 4 0.696071 41.5065 41.5456 0.0730393 -4.82529 -32.9133
413 4 0.904174 0.691668 0.985463 6.30616 -9.41897 -5.2369
414 4 2.64269 40.3122 0.13166 16.7998 18.1471 15.5753
415 4 3.13789 39.5289 1.58622 -1.56816 4.1145 9.56394
416 4 3.29805 41.2779 1.59825 6.1243 20.9887 1.16769
417 1 53.684 39.9214 3.65257 -36.1976 13.6917 8.19643
418 2 52.3006 39.9493 4.06589 -56.8626 -17.5359 -10.0305
419 2 52.042 40.5256 5.46425 9.62461 10.2848 -5.14962
420 3 51.0331 41.2228 5.70144 14.4944 -11.372 -4.23176
421 4 54.0189 39.0607 3.30247 15.8062 -40.5534 -6.95561
422 4 51.6931 40.6476 3.38276 19.0563 -8.07776 7.22418
423 2 51.5622 38.4976 3.96193 14.5706 2.1127 21.5154
424 2 51.4158 37.9814 2.50572 24.752 -20.928 -15.9835
425 2 51.0077 36.4305 2.37064 11.3099 30.9145 9.08043
426 2 50.8522 35.9939 0.907307 -46.4939 -7.09254 -49.7464
427 1 50.1475 34.7025 0.671588 69.6077 -32.405 2.84717
428 4 50.6006 38.4842 4.55016 3.73478 6.81079 -18.2086
429 4 52.1831 37.7463 4.55262 -3.81101 12.3643 -13.1539
430 4 52.4118 38.1657 2.02278 1.77015 -18.5404 7.48984
431 4 50.8584 38.5927 1.79489 -26.3581 9.74254 8.34414
432 4 50.0453 36.2246 2.88499 -2.56193 3.57961 3.68626
433 4 51.7703 35.8375 2.92238 0.215708 -6.73604 -5.33103
434 4 51.7691 36.0437 0.240386 -6.2594 -4.10885 19.6388
435 4 50.1039 36.686 0.3716 22.9763 1.60597 16.3794
436 4 50.5914 33.8993 1.10828 2.95648 12.8391 18.7814
437 4 50.3001 34.3737 41.6268 -19.3387 19.3411 -4.27099
438 4 49.2006 34.6111 0.961468 -24.084 7.88088 -0.582308
439 1 53.0235 40.2561 6.35237 -32.3128 10.4579 -5.0201
440 2 53.1129 40.7256 7.70074 -41.6363 -1.15369 57.3167
441 2 53.1798 0.352689 7.77253 -34.9991 -20.8035 37.2736
442 3 52.5119 1.01286 8.63006 21.7579 -17.6925 -30.8538
443 4 53.6931 39.5673 6.06584 22.7894 -18.2937 1.39271
444 4 52.0865 40.4844 8.3065 35.7608 3.68212 -29.1988
445 2 54.2701 40.0034 8.46069 6.08948 28.5921 -6.02695
446 4 54.5971 40.5153 9.39975 -22.234 -14.34 10.1754
447 4 0.201561 40.2092 7.93116 13.6903 -2.08726 -21.3806
448 4 54.1655 38.8939 8.41526 -0.559105 0.118215 15.5404
449 1 53.9752 0.884949 6.87383 32.3465 35.364 -24.1241
450 2 54.062 2.35993 6.75215 -1.13821 -0.709889 -34.8218
451 2 52.7471 3.02097 6.14186 4.92946 35.4069 59.7439
452 3 52.3227 4.16587 6.4978 18.9545 -33.4145 3.00952
453 4 54.7345 0.266534 6.4753 -18.8262 24.4346 -1.05702
454 4 54.2802 2.76759 7.79054 -12.1814 3.84369 -14.3249
455 2 0.185451 2.81859 5.73187 27.2059 46.9588 30.4236
456 2 1.71808 2.36893 6.1571 -63.9259 -20.0653 -29.4315
457 2 1.9764 2.63004 7.63437 43.6306 13.7343 2.97159
458 2 3.27263 1.81187 8.04275 -33.9139 -3.58936 -6.58926
459 1 3.78328 2.11956 9.34176 26.6398 21.4152 24.507
460 4 0.173809 4.01773 5.82442 4.54198 -39.0295 -6.50933
461 4 54.8792 2.64498 4.65574 11.0791 -10.5686 10.592
462 4 2.43618 2.90609 5.45978 -2.35628 -10.1976 10.4282
463 4 1.76796 1.2289 6.01344 4.57023 21.5888 -8.89179
464 4 1.21473 2.41369 8.37281 -19.449 -19.8593 5.28327
465 4 2.02309 3.72579 7.75906 18.9296 5.96095 -1.30777
466 4 4.11389 1.88412 7.33652 2.51142 0.584915 -8.00636
467 4 2.91513 0.727469 8.06593 14.1612 11.4678 0.952909
468 4 3.87966 1.33238 9.93849 2.65093 -23.7146 9.43734
469 4 3.29203 2.7681 9.89323 -42.3935 13.6729 9.41431
470 4 4.65765 2.6209 9.4154 12.4458 -11.5538 -21.8273
471 1 52.0387 2.32512 5.28273 -51.3661 -11.8477 -11.6622
472 2 50.6641 2.72274 4.84157 25.7857 6.93126 13.1254
473 2 49.5414 2.57609 5.91007 27.6149 -7.37739 5.45836
474 3 48.7805 3.52104 6.09585 -8.9672 -1.93713 4.87304
475 4 52.4681 1.55108 4.79165 6.19099 -18.5603 -5.58783
476 4 50.6769 3.82983 4.70864 1.41274 -1.50214 -10.3294
477 2 50.3587 2.05695 3.49156 -22.4167 -18.5545 -8.10533
478 2 51.392 2.35646 2.3419 -24.5199 12.8001 2.40788
479 2 48.9327 2.41504 2.97856 -9.14079 -2.86031 26.3031
480 2 51.1945 1.4129 1.15651 29.522 -13.6455 -15.5517
481 4 50.3189 0.937191 3.7523 9.08136 15.4094 -11.3523
482 4 52.3823 2.12188 2.68097 31.5971 -0.36407 15.4796
483 4 51.4014 3.46798 2.06765 -1.078 -19.9026 -0.0406259
484 4 48.2117 2.12758 3.78451 -1.04241 22.2186 2.00084
485 4 48.5813 1.67256 2.28636 2.21501 -12.0529 -35.8697
486 4 48.7327 3.44552 2.54328 5.48386 -12.5705 11.3103
487 4 52.1623 1.3706 0.452926 -36.5132 5.61179 20.4585
488 4 50.2881 1.70969 0.600596 -1.11419 -0.409473 -10.6314
489 4 51.0211 0.353877 1.53511 3.53067 13.7442 -8.50616
490 1 49.5623 1.51743 6.77214 29.0905 -0.0770965 -25.5222
491 2 48.7084 1.41716 7.91723 -3.12505 -21.6463 4.96918
492 2 48.8549 2.61932 8.82546 31.903 20.2748 29.0475
493 3 47.906 3.05048 9.46897 -16.8524 2.35798 -10.3438
494 4 50.2118 0.710522 6.59294 -12.9921 18.0739 4.61122
495 4 47.6425 1.393 7.52359 9.91609 0.328738 10.372
496 2 49.0787 0.089334 8.73016 -60.0302 -9.6098 -44.8862
497 2 48.2852 41.7441 10.0242 3.18066 15.7764 -9.96769
498 2 46.7826 0.060746 9.96682 -2.34726 -14.6607 41.7592
499 3 46.2233 0.511631 10.9878 -5.96974 4.10403 -23.4495
500 1 46.1388 41.3329 8.97776 32.9533 20.065 15.0282
501 4 50.1182 0.035639 8.93296 42.8084 2.68407 12.3764
502 4 48.8904 41.1121 8.0025 3.88899 17.9501 19.4277
503 4 48.6104 0.602172 10.7954 4.73737 -18.8132 -0.914642
504 4 48.4759 40.6816 10.3394 0.165969 9.19265 10.3013
505 4 46.673 40.8953 8.25882 14.2049 -15.3063 -26.5369
506 4 45.1569 41.364 8.91958 -49.0994 -2.53611 0.320683
507 1 50.1114 3.13932 9.06291 -28.12 32.8195 0.337886
508 2 50.3404 4.32895 9.98795 -1.65029 -57.226 -17.8628
509 2 50.0322 5.66893 9.41362 -36.2334 -9.83443 -38.9072
510 3 49.3598 6.44562 10.1062 15.3309 6.40082 -5.38514
511 4 50.9085 2.84633 8.5071 12.3092 -10.0263 -3.45928
512 4 49.5835 4.28149 10.7848 -3.38143 -13.253 14.1405
513 2 51.7461 4.22789 10.5468 25.7206 14.4209 20.1557
514 2 51.9023 5.17188 11.7283 -67.9962 -1.36338 64.1829
515 3 50.9364 5.19004 12.6002 28.9599 1.18541 -41.9912
516 3 52.9319 5.83594 11.9785 18.8411 2.87417 -24.5577
517 4 52.4276 4.5214 9.72474 12.6887 -3.13287 0.413374
518 4 52.058 3.21563 10.9647 -9.24198 7.66389 -16.6414
519 1 50.112 5.78532 8.03139 7.52033 29.602 25.459
520 2 49.6799 7.08933 7.40639 14.3534 -30.8181 22.5674
521 2 48.2409 7.17209 6.9711 -2.24553 44.7474 7.57528
522 3 47.5844 8.22961 7.08968 18.1939 -9.81929 5.41459
523 4 50.7064 5.09112 7.53173 -12.638 14.3936 -6.22521
524 4 49.7159 7.84119 8.19837 -7.36252 7.51614 21.2329
525 2 50.7023 7.64954 6.44039 -16.0213 -40.4967 -48.4302
526 2 50.7257 6.82423 5.08423 -13.7427 47.9405 2.4816
527 2 51.6418 7.28287 3.94021 29.8472 39.248 73.299
528 2 53.127 6.98483 4.24688 1.29977 19.7271 -18.9866
529 1 53.757 7.95176 5.17575 -11.1866 13.844 -62.5277
530 4 51.636 7.68275 6.97838 28.3767 1.23741 1.58475
531 4 50.4129 8.66535 6.18803 -0.179632 23.7408 -3.11047
532 4 49.7187 7.01043 4.64523 -5.97611 -10.1095 1.48316
533 4 50.8061 5.7562 5.2149 3.4405 -22.8364 10.0865
534 4 51.5118 8.41472 3.72654 -1.36136 -26.6124 -3.74792
535 4 51.4228 6.66542 3.12568 -20.7249 -22.8033 -58.4365
536 4 53.6095 7.03345 3.2004 3.85152 5.93338 28.8514
537 4 53.3314 5.96083 4.57939 -0.112253 -9.13532 8.29834
538 4 53.309 8.86524 5.1699 0.162268 -2.42959 1.84412
539 4 54.6672 8.17057 4.81193 19.2107 -0.812718 7.6593
540 4 53.869 7.69009 6.11536 0.991087 -15.435 33.6166