ITEM: TIMESTEP
0
ITEM: NUMBER OF ATOMS
648
ITEM: BOX BOUNDS pp pp pp
0.0000000000000000e+00 1.8643000000000001e+01
0.0000000000000000e+00 1.8643000000000001e+01
0.0000000000000000e+00 1.8643000000000001e+01
ITEM: ATOMS id type x y z fx fy fz
1 1 8.67966 7.08769 17.9461 -18.0057 -16.954 4.82612
2 2 7.80945 6.75579 18.2607 19.8034 12.4721 -7.17463
3 2 8.72223 6.81424 17.0254 7.13784 0.0282027 3.08606
4 1 18.5257 8.24445 6.83762 8.52147 14.2257 60.5703
5 2 0.216892 7.89544 6.05003 12.0964 -15.6711 -53.3384
6 2 0.444268 7.82601 7.5302 -13.3675 6.47926 -9.3119
7 1 8.37906 18.5504 6.81463 24.6094 6.61103 -1.11969
8 2 9.34042 0.098069 6.73406 -18.7879 -2.64022 0.747908
9 2 7.93962 0.573676 6.26984 -2.09268 1.16699 2.67386
10 1 6.58995 1.84432 11.7198 46.7475 -13.739 -10.5489
11 2 5.88543 2.40231 11.9251 -37.1346 27.545 16.57
12 2 6.18153 1.06275 11.3693 -7.36455 -17.4045 -5.52161
13 1 7.1466 5.75358 2.33152 -53.3657 41.599 -1.38826
14 2 6.36812 6.12603 2.86268 38.0857 -22.9036 -2.95785
15 2 7.02502 6.29465 1.5182 16.1101 -20.4591 11.2904
16 1 16.2164 10.1388 16.1382 -32.9296 19.8915 17.3579
17 2 16.9509 10.2747 15.5847 32.6569 -1.09677 -20.2087
18 2 15.8498 11.0405 16.2399 2.59134 -12.8635 2.30838
19 1 10.6046 15.0374 2.30369 -9.45108 -28.933 -9.95229
20 2 10.5292 14.3949 3.01849 1.67759 -0.529274 5.48943
21 2 11.0236 15.78 2.70962 13.2591 21.3673 6.11781
22 1 17.1624 8.24409 10.3708 10.41 5.9387 11.3227
23 2 16.5528 8.68798 10.966 -4.81374 9.55532 3.583
24 2 17.9421 8.82333 10.3208 -3.63548 -8.99367 -3.64514
25 1 14.901 15.8652 16.3167 21.2892 -10.1645 16.79
26 2 14.0225 16.1982 16.2525 -30.7371 12.6366 -7.00126
27 2 14.9141 15.482 17.2099 1.64171 -7.21798 -3.7798
28 1 12.1752 13.3771 0.408263 -10.449 7.39269 11.8256
29 2 12.0579 13.8465 18.23 5.34035 -4.48355 -17.1718
30 2 11.6217 13.8904 1.00796 2.45905 -0.157672 9.39156
31 1 9.27358 5.34243 4.05546 -29.354 32.8373 13.3322
32 2 8.64594 5.4665 4.83764 23.9402 -17.6274 -26.2044
33 2 8.74177 5.68615 3.30282 4.39732 -15.4932 8.77495
34 1 1.83016 4.27673 11.6495 -22.4867 33.9085 -11.1027
35 2 1.70328 5.22377 11.9391 5.26663 -24.2909 -6.35354
36 2 2.40811 3.85345 12.2597 16.6835 -12.3735 20.3319
37 1 1.96438 6.83299 8.3731 -11.8866 6.09586 -26.8326
38 2 2.49614 7.21578 9.0563 11.4719 0.0715494 18.6532
39 2 1.81128 5.90585 8.57354 7.57659 -6.58781 5.32172
40 1 5.40557 4.38899 7.93274 -5.84675 9.40812 -2.24834
41 2 5.53738 3.43895 7.78131 -7.95286 9.95376 -0.129754
42 2 4.75516 4.73491 7.29062 11.2407 -18.5615 7.61563
43 1 3.23 2.92842 17.5524 1.14755 15.2746 17.0601
44 2 3.93109 3.19827 16.9402 0.871842 10.3641 0.782189
45 2 3.00444 3.70897 18.1497 2.9668 -26.2705 -22.3315
46 1 7.4624 5.26283 6.13117 4.99569 4.7543 -2.87263
47 2 8.02565 5.58849 6.88177 -21.8117 -10.641 -11.2175
48 2 6.93508 4.45577 6.3254 15.5754 16.5621 10.3274
49 1 9.77896 7.02384 11.9834 11.1892 -4.91774 24.9965
50 2 10.2721 6.37256 11.5011 12.944 -11.2243 -3.64487
51 2 9.1532 7.31587 11.3499 -25.3515 14.1302 -21.9158
52 1 14.1167 3.54999 8.03003 -26.7224 -2.96987 -36.9282
53 2 13.4732 4.22413 7.73132 14.0058 -9.36539 3.16858
54 2 14.3809 3.80189 8.88487 12.5079 17.7406 36.8421
55 1 4.82329 17.2568 4.03846 -17.1239 31.8599 -29.451
56 2 5.49315 17.973 4.01308 -7.2715 -20.7015 10.2799
57 2 4.18746 17.5412 3.33843 11.1391 -13.8034 10.6312
58 1 16.4918 16.6259 10.0493 30.7319 18.7558 -40.9431
59 2 16.1673 16.3226 10.8594 -24.9276 -14.9205 38.9888
60 2 15.9925 16.2084 9.33562 -5.59472 -4.21747 7.16045
61 1 1.94489 4.93323 0.49791 29.2037 9.87254 4.22328
62 2 2.55322 5.26335 1.2053 -16.134 -9.14189 -14.6469
63 2 2.08253 5.591 18.4408 -15.0883 -1.49688 2.64821
64 1 11.816 13.3571 16.2711 -9.40148 3.94995 7.41554
65 2 11.2371 12.6203 16.5671 11.2868 -0.226619 -16.3723
66 2 12.2446 13.1893 15.4079 -8.93504 -7.51369 10.5349
67 1 10.105 11.0651 16.9545 19.171 -30.5561 3.11717
68 2 10.5674 10.1947 17.1295 -13.2328 27.8223 -6.21699
69 2 9.25349 10.8067 16.5912 -4.96621 2.04172 2.74708
70 1 11.7264 17.5421 13.4742 -3.04385 -27.7441 -11.1528
71 2 12.2771 16.9836 12.8968 -5.80236 0.92931 5.24929
72 2 12.1041 18.3936 13.317 3.92972 25.4072 2.69815
73 1 6.33029 9.31911 12.2264 14.5686 -26.7823 -24.0739
74 2 7.02603 8.96242 11.6353 -16.9594 2.64581 0.0898615
75 2 6.81249 9.95941 12.7172 6.645 23.591 18.9185
76 1 16.2187 12.7249 2.70186 -8.60429 -40.8729 7.98732
77 2 17.0292 13.1566 2.50302 21.6794 20.3416 -10.6726
78 2 15.4982 13.3357 2.61812 -11.4268 23.7847 2.88762
79 1 0.637202 12.5625 5.84914 -31.8402 8.87564 3.58131
80 2 0.892312 12.5507 4.90771 -4.9886 -2.92912 11.9697
81 2 18.3039 12.804 5.85329 37.806 -5.77498 -8.15105
82 1 5.19922 16.3781 18.5047 -8.79571 2.1563 -13.4584
83 2 5.80284 15.8543 17.9455 2.86332 8.92403 13.1762
84 2 5.67034 16.9636 0.462296 7.01287 -6.10758 -1.1835
85 1 0.510145 7.62945 4.0545 45.1401 15.6351 -20.049
86 2 18.5719 8.14656 3.45296 8.17292 -14.6601 7.70417
87 2 1.46496 7.74082 3.66917 -48.4928 -0.554047 23.6518
88 1 3.14672 8.89584 6.52626 -55.2927 3.32392 -1.46176
89 2 3.50609 8.59991 7.35294 11.5609 -2.03159 9.82262
90 2 2.14573 8.92962 6.68203 43.6989 0.357582 -10.1043
91 1 7.30854 10.3037 16.1717 1.78466 -0.469392 13.5048
92 2 6.56213 10.4624 15.5802 -0.177974 -0.17468 9.69093
93 2 6.99303 10.278 17.1118 -1.93161 2.46429 -18.5659
94 1 11.1122 1.06968 4.98939 -2.5529 -18.3754 16.0671
95 2 11.0776 1.97142 4.64864 2.28669 -2.46607 -13.2595
96 2 10.7048 0.433547 4.37027 3.43033 14.549 -3.59534
97 1 4.45204 2.70061 13.2052 -5.66348 -30.5004 33.0628
98 2 4.60333 3.05865 14.0914 -1.92534 16.2672 -14.1546
99 2 4.38645 1.737 13.4626 -0.349226 19.9023 -23.5316
100 1 8.42792 10.0237 1.78469 -10.3917 -19.899 15.7952
101 2 8.3405 10.6377 2.53622 4.61332 0.207175 -2.25283
102 2 8.49672 9.11244 2.17467 4.01989 28.7847 -10.326
103 1 10.5335 1.75383 15.546 -34.1458 -0.453574 1.15961
104 2 11.3977 1.82718 15.9216 24.1476 -5.37633 -0.0681618
105 2 10.5608 1.78317 14.5837 3.50677 3.31298 -0.339701
106 1 2.77693 12.941 7.74821 -10.4378 -0.583625 -1.53852
107 2 3.28797 13.5733 7.23382 6.48403 3.62296 3.43855
108 2 1.98704 12.8256 7.20013 3.29426 -8.64685 -0.0486837
109 1 3.63517 11.6895 5.33963 -11.8109 -10.1864 -4.68879
110 2 3.35385 11.0502 6.03137 5.66752 13.6786 -16.6554
111 2 2.8758 11.855 4.74058 12.1084 -4.04172 11.1294
112 1 6.88803 14.474 16.8428 -11.4129 11.5698 10.6698
113 2 7.55973 13.8293 16.6383 5.64016 -3.74285 -2.32739
114 2 6.60381 14.8838 16.0165 -1.10143 -9.42407 -1.70294
115 1 14.1722 14.5374 3.41536 22.8916 -3.95473 -24.8295
116 2 13.6514 15.2845 3.14096 -10.2906 15.0357 0.984662
117 2 13.8512 14.2508 4.25439 -13.7068 -8.63673 17.9444
118 1 8.28226 18.1809 16.0824 -12.751 -14.2632 -6.38017
119 2 8.77677 17.3494 16.3071 3.86396 27.0257 -3.69586
120 2 8.7603 0.384816 15.9919 13.8336 -15.3184 3.9152
121 1 4.73724 1.61643 4.90111 4.42093 34.2728 -25.3552
122 2 3.96969 2.16837 5.15263 7.5353 -10.5013 -8.47368
123 2 5.18465 2.1484 4.15475 -16.3947 -25.6944 40.0476
124 1 15.1457 12.8616 16.4403 -17.2871 -9.38827 44.2976
125 2 14.6041 12.8692 17.2613 20.1997 8.40389 -10.3991
126 2 14.49 12.6307 15.8136 -19.9308 -5.03226 -40.1466
127 1 15.779 18.3837 16.786 46.4421 11.1965 42.4368
128 2 16.5108 18.615 17.4688 -40.0732 -8.23978 -31.409
129 2 15.7694 17.4186 16.7687 -10.9286 -0.13557 -0.275231
130 1 1.1383 1.1331 16.5571 -3.78806 10.8903 6.59298
131 2 1.96551 1.50352 16.9177 -13.4358 3.04324 -1.88802
132 2 0.420521 1.53444 17.0916 18.9396 -8.74897 -5.5358
133 1 18.0817 4.5907 15.863 15.5867 -18.8741 -0.0488223
134 2 18.5818 3.91936 15.3489 -11.2031 15.1049 7.34982
135 2 18.5602 4.7339 16.6874 -0.349245 -1.77666 -1.18458
136 1 12.22 16.9378 16.1148 -5.50141 -11.6153 60.0453
137 2 11.409 16.6934 16.6676 25.9686 4.83442 -31.2532
138 2 11.9646 17.3216 15.2917 -16.184 2.10738 -25.7541
139 1 15.8709 2.55221 17.9707 -0.937802 24.4841 -15.6355
140 2 15.7355 3.48355 18.2574 7.57333 -26.0521 3.95198
141 2 15.6659 2.59235 17.0072 3.66916 -5.77112 18.206
142 1 6.70868 13.791 10.2637 2.56639 25.7323 0.00368182
143 2 6.59347 13.548 11.1958 -0.357243 -4.92282 -5.01928
144 2 6.58252 13.0514 9.6765 -3.72683 -17.1721 -0.802691
145 1 10.146 18.2027 2.80372 18.7695 36.9578 -11.0057
146 2 10.2207 0.331961 2.18345 -3.04248 -21.6078 13.7214
147 2 9.26571 17.8868 2.67703 -19.5044 -8.44618 -8.21612
148 1 2.97538 17.748 6.06078 -25.8303 0.797173 6.8887
149 2 2.09399 17.6473 5.67013 0.763714 -3.05404 12.9421
150 2 3.45883 17.8838 5.26396 31.3429 0.483929 -10.2997
151 1 12.558 17.0134 7.97028 5.92903 -16.4499 -7.28316
152 2 11.9572 16.2512 7.82085 0.921176 10.9238 13.6165
153 2 12.4657 17.4524 8.83591 -10.9555 -3.32417 -4.29455
154 1 14.8795 15.2862 8.28544 4.29768 -18.9738 42.4504
155 2 13.9824 15.6136 8.40666 -1.92729 9.60106 -14.0248
156 2 15.2312 15.4641 7.43118 3.9302 10.2131 -33.7787
157 1 17.5429 18.3228 0.375372 -51.2916 -3.32975 -15.7386
158 2 18.116 17.6308 0.128652 39.2354 -21.6017 -8.51882
159 2 17.9698 0.288559 0.934677 25.0864 23.4945 21.3611
160 1 0.910209 10.3712 1.41143 1.2541 -53.8465 46.4292
161 2 0.158544 9.88347 1.87089 19.8792 18.5163 -27.3041
162 2 0.565924 11.0969 0.944383 -23.7591 37.8535 -27.1782
163 1 1.55407 12.175 3.31087 17.0236 24.8743 53.6813
164 2 1.36245 11.4802 2.72234 -7.32763 -23.5838 -35.6732
165 2 1.61623 13.0206 2.87285 0.136729 5.19924 -18.0355
166 1 0.543127 17.2543 4.88609 31.8084 34.0538 -50.8525
167 2 0.11032 17.9772 5.31124 -21.3387 12.8349 12.3342
168 2 0.420366 16.4266 5.2673 -11.294 -44.4064 35.6607
169 1 1.10053 1.01949 9.38768 20.2638 -3.47079 3.57058
170 2 1.46081 0.575286 10.1589 5.67003 5.93636 13.5245
171 2 0.265613 0.594128 9.34525 -28.6257 -3.15214 -10.2647
172 1 16.8007 2.32783 13.2877 6.99662 17.0137 -29.7497
173 2 17.0701 2.57314 12.3549 -10.9982 -8.19012 27.7721
174 2 16.4263 1.43993 13.282 0.147057 -7.47121 1.20179
175 1 2.45231 15.8283 12.1942 24.161 -10.1121 18.9704
176 2 2.8623 15.5513 13.0537 -7.72007 6.59246 -26.0318
177 2 2.91392 15.3801 11.4615 0.0476102 5.48907 2.61928
178 1 16.435 15.531 5.9458 18.7492 36.0842 -19.2976
179 2 17.3808 15.5177 6.20547 -11.8351 -4.55683 5.24266
180 2 16.4147 16.2211 5.22063 -11.381 -14.928 22.2973
181 1 5.84547 5.02056 11.8065 17.7106 -18.2202 -11.4458
182 2 5.55799 5.91374 11.8891 -12.2572 20.16 10.1838
183 2 5.09 4.45915 11.9819 -6.52029 -3.58907 3.63352
184 1 15.2214 4.86555 0.731755 -13.1216 -14.4231 22.9417
185 2 14.6776 4.45845 1.47821 22.203 16.7553 -20.5876
186 2 14.6696 4.95834 18.5986 -12.3693 6.08689 2.65647
187 1 16.3401 16.2933 2.11217 18.14 -13.9799 -32.9854
188 2 16.0666 16.7695 2.87319 -13.0548 23.8975 25.5489
189 2 16.7601 16.9279 1.50378 -12.2165 -0.858221 10.4248
190 1 0.305885 4.87877 3.79118 -8.03527 51.7998 21.7755
191 2 0.299338 5.85541 4.09758 -2.9952 -44.8334 -24.4202
192 2 1.16991 4.5635 4.03062 6.79251 -10.5604 -0.715716
193 1 2.92501 14.9782 15.0356 -0.55527 3.1583 33.427
194 2 3.0159 14.7264 15.9987 -0.365372 -5.40078 -25.4532
195 2 2.35392 15.7535 15.1247 4.98076 9.37108 -6.84819
196 1 1.1115 14.5727 9.55731 53.2995 18.2393 -15.0567
197 2 2.08491 14.4157 9.46275 -24.2978 21.5236 -5.71591
198 2 0.897072 13.7408 9.90248 -27.8007 -35.1999 18.1171
199 1 13.6501 16.6688 11.5433 6.47975 17.456 -8.04391
200 2 13.4697 17.4567 10.9694 -3.73037 -22.0736 15.6897
201 2 13.5721 15.8897 10.9842 -9.76738 -0.866763 -1.05724
202 1 4.73098 1.47842 0.720986 0.301824 -3.12152 0.469647
203 2 4.27169 1.98826 0.034225 -8.26683 -3.93854 8.43126
204 2 4.11741 0.788607 1.06182 2.96071 12.6313 -1.58966
205 1 1.42158 18.4663 11.9139 -14.1117 26.2958 -21.249
206 2 1.21766 0.394331 12.6648 1.16138 0.455671 2.39682
207 2 1.94844 17.765 12.2423 13.6408 -23.7742 11.0988
208 1 11.5498 10.1018 4.11619 25.3456 17.7005 -19.3629
209 2 11.5687 10.5955 3.24216 -3.14233 -16.3641 23.7483
210 2 12.4899 10.1059 4.45555 -25.4417 -1.6091 -14.3563
211 1 8.38254 12.182 3.76573 -28.852 -4.31545 3.66513
212 2 9.25863 12.501 4.06076 -17.1001 4.9792 7.32521
213 2 7.63736 12.4251 4.40785 39.3791 -3.23553 -14.7997
214 1 14.3228 4.03714 3.29709 9.27375 -1.14036 13.2131
215 2 14.8928 4.14179 4.10547 -9.51715 0.900554 -20.2647
216 2 13.4701 4.45558 3.48891 4.64833 -1.13545 4.69814
217 1 5.58188 1.78199 7.50513 -29.4992 -43.0538 46.7434
218 2 5.0172 1.13958 8.12095 30.2312 35.5173 -41.7355
219 2 5.33078 1.59122 6.59529 -0.079259 -3.9625 -11.0752
220 1 17.9086 1.12503 4.88467 2.95857 -4.16946 -9.18468
221 2 18.4038 1.54032 4.14207 -4.82318 -1.26447 16.1692
222 2 17.6814 1.78344 5.55455 4.62183 1.86586 -4.7268
223 1 6.83101 9.39303 4.49716 -16.0719 2.4093 -32.0921
224 2 6.83675 9.57499 5.42715 5.68499 0.0447418 21.7322
225 2 7.66807 8.99049 4.24996 11.5264 2.90932 7.40733
226 1 2.71406 14.9654 1.962 -15.6661 -3.22344 -28.3015
227 2 3.33343 14.7912 2.66354 12.1361 -6.91733 6.37301
228 2 3.09502 14.6645 1.10257 -2.31521 10.6903 23.881
229 1 17.279 12.8803 13.1283 -15.852 18.187 11.8592
230 2 16.4044 13.2339 13.3283 -9.52452 -19.4408 0.302495
231 2 17.6948 13.7346 13.0834 29.0619 4.95471 -11.8483
232 1 15.0196 10.5818 1.38314 -38.2265 -36.9922 -31.977
233 2 15.5102 11.1963 1.85791 34.2907 40.991 28.9525
234 2 14.3351 11.0964 0.933298 3.32659 -5.3471 5.33786
235 1 5.71789 6.95838 4.52856 0.683996 -27.8748 7.64407
236 2 5.85266 7.87985 4.34179 3.58991 17.4746 0.820156
237 2 6.44364 6.70841 5.13514 -10.315 -1.76088 -5.92415
238 1 8.12142 8.26262 10.159 -0.695069 1.43108 44.445
239 2 8.58519 8.93965 9.66877 7.60931 4.76567 -12.7632
240 2 7.56021 7.74854 9.59836 -11.8614 -6.52029 -23.2391
241 1 13.5311 18.2901 5.8079 -10.639 -13.2321 14.1155
242 2 12.703 0.102298 5.56963 3.89465 4.4637 5.13268
243 2 13.2939 17.6289 6.50758 1.00889 22.2284 -14.4481
244 1 0.327324 2.56344 0.113251 1.70035 12.7901 -0.992224
245 2 18.009 2.52214 18.5736 8.63965 15.9711 4.89881
246 2 0.724331 3.48299 0.160564 -21.1536 -24.6374 0.514976
247 1 12.6396 10.9599 9.76875 -56.8672 19.3176 -11.2335
248 2 11.6552 10.7306 9.75031 35.1307 23.7735 -5.55284
249 2 12.944 10.1383 10.0842 27.9729 -33.5927 10.4043
250 1 0.789377 12.2851 11.08 11.4395 6.49483 14.2632
251 2 18.4919 12.3017 11.2021 -18.2818 -3.30898 -6.09679
252 2 1.09088 12.7637 11.8722 5.75277 -12.0493 -6.6955
253 1 5.04567 7.2193 13.4912 -21.0137 -4.20407 -15.1033
254 2 5.59899 7.84649 13.0247 8.33052 12.0635 4.31379
255 2 5.48047 6.97898 14.3058 12.3979 0.954472 8.53674
256 1 1.28609 6.99027 11.837 -51.8154 -68.8711 -15.2848
257 2 0.481329 7.14037 11.2978 13.8945 0.267944 10.341
258 2 1.71601 7.79102 11.8803 31.2664 60.1884 9.92158
259 1 15.4442 9.46712 12.3088 17.5832 34.764 29.4487
260 2 15.6103 10.4448 12.4444 -11.1607 -30.7672 -13.8763
261 2 15.5582 9.10301 13.208 -6.74487 -0.409264 -16.2653
262 1 16.6404 12.9744 5.44078 0.476019 -21.9889 6.56196
263 2 16.2955 13.8866 5.54247 3.20084 -14.9841 -16.6056
264 2 16.51 12.593 4.54035 -6.85686 22.0547 12.2483
265 1 6.17495 10.0683 0.210584 -24.8048 -7.78292 -31.6597
266 2 5.35839 10.4511 0.557392 3.36584 -0.936069 -2.46609
267 2 6.76092 10.0813 0.943985 27.7338 0.90169 16.297
268 1 12.3644 6.05734 4.04236 -18.3706 -38.3329 30.2118
269 2 12.4738 6.70802 3.38308 -4.23006 32.9396 -25.2938
270 2 11.4212 5.77124 4.03221 17.6012 8.78206 -0.800798
271 1 0.124733 12.8266 0.203961 3.20067 -1.28022 -4.47052
272 2 0.029974 13.5935 0.786871 -4.13202 -3.19163 0.984476
273 2 18.185 12.9963 18.0877 7.32574 2.49628 4.77591
274 1 3.83931 18.5785 8.61972 20.3146 -6.32916 -11.386
275 2 3.58625 18.36 7.70531 -8.03976 -3.33875 5.01892
276 2 3.07994 0.282626 9.06556 -19.534 7.19375 -0.404578
277 1 7.37599 17.2741 4.45241 46.8945 31.0513 1.9622
278 2 8.02493 17.9603 4.76808 -26.2103 -24.7083 -3.79352
279 2 7.47725 17.3636 3.49301 -14.0292 -8.10987 6.13371
280 1 9.20909 17.0315 12.2197 40.0448 -1.21715 18.2255
281 2 9.48765 16.172 11.8421 -14.9023 11.2095 -3.08284
282 2 9.99892 17.2887 12.7762 -22.6762 -6.36186 -10.9913
283 1 13.3284 13.0292 7.94175 -54.0325 -32.963 -10.3586
284 2 13.0533 12.253 8.47808 14.6554 7.99008 1.85075
285 2 14.1985 13.2855 8.14946 35.8516 11.3519 14.341
286 1 14.9871 2.94126 15.3478 14.8638 12.3357 -7.44451
287 2 14.2243 2.52816 14.9303 4.35222 -7.49481 -2.56315
288 2 15.7054 3.02501 14.6718 -19.1947 -5.47381 11.1555
289 1 9.85637 15.4939 17.0026 4.34281 7.61827 -6.92944
290 2 10.2013 14.6312 16.7411 4.19591 2.79737 -1.68983
291 2 9.35728 15.3668 17.8085 -9.66212 -2.87408 7.84053
292 1 11.2848 8.23994 16.5492 3.25751 34.7591 1.5155
293 2 10.8315 7.75123 15.8747 -12.3664 -15.1549 -6.58201
294 2 11.7506 7.62533 17.1016 5.33248 -14.8245 8.28699
295 1 3.77097 18.1898 16.7118 4.01905 33.5947 11.0152
296 2 4.24576 17.6768 17.3569 8.65949 -22.0954 6.28955
297 2 3.7978 0.441972 17.1008 -4.25038 -14.6471 -12.4326
298 1 2.20581 4.09889 8.95874 2.08991 2.93543 4.28652
299 2 3.00197 3.55544 8.74643 -14.7124 14.9899 14.3923
300 2 2.10364 4.24367 9.94001 10.2614 -16.6264 -23.5165
301 1 9.9196 10.3581 9.75231 -25.3187 14.4865 -18.1673
302 2 9.34403 11.1055 9.40387 23.5511 -18.6954 16.391
303 2 9.87032 10.282 10.7171 2.48436 10.3271 -7.39297
304 1 9.73405 0.807167 10.8572 20.2474 21.386 4.54274
305 2 9.58177 18.5811 11.2204 -17.7151 -14.7389 -0.277185
306 2 9.10878 1.03014 10.1675 -11.7891 -3.63679 -6.29284
307 1 9.18221 15.2247 10.2123 -13.9791 -9.46207 -17.3808
308 2 9.04674 16.0847 9.7631 0.486754 -17.6411 9.75771
309 2 8.3908 14.6843 9.94105 18.1048 12.7648 16.7376
310 1 1.00316 9.27987 10.329 16.2357 -30.0069 -12.307
311 2 1.16727 10.1904 10.5724 12.5584 13.4462 -0.132091
312 2 1.84996 8.76119 10.1498 -29.1191 35.4904 9.82697
313 1 16.8004 4.89338 8.19813 20.3933 -12.8673 28.5682
314 2 16.1748 5.31624 8.83318 13.8703 -8.22156 -17.3769
315 2 17.4877 4.38941 8.71628 -28.7666 17.1718 -13.9408
316 1 14.6379 14.6893 0.402347 -11.3933 -1.08114 12.583
317 2 14.9609 15.3376 1.05877 1.73558 -10.8431 -5.12344
318 2 13.9048 14.1906 0.841144 16.133 14.0369 -13.7985
319 1 3.51181 11.0525 9.63829 3.71178 7.51059 -9.42611
320 2 3.41507 11.3617 10.5484 4.21267 3.5616 -2.2445
321 2 3.25155 11.8076 9.06383 -1.86739 -11.3951 3.16022
322 1 11.0289 10.8695 1.26208 17.5529 18.9634 -6.32419
323 2 11.1535 11.716 0.753779 -2.53448 -25.7082 13.9861
324 2 10.1142 10.5923 1.16471 -5.76816 1.63272 -1.45278
325 1 13.2239 7.06188 12.8977 -31.5053 10.0751 -2.41927
326 2 14.1381 6.84046 12.8922 27.4331 -7.40558 0.979603
327 2 12.7471 6.22139 12.9668 2.74296 5.12722 -5.48309
328 1 9.62584 1.88878 0.937813 20.2039 -2.98483 37.6532
329 2 8.77484 2.11506 0.623903 -27.5663 2.83673 -14.773
330 2 10.1764 1.70882 0.191067 9.03311 -1.803 -18.3794
331 1 10.6054 13.537 4.7508 -5.88392 -4.211 -2.61457
332 2 11.3208 12.9359 5.04367 -2.43279 15.5075 -5.53386
333 2 10.4128 14.1619 5.47507 10.6777 -11.2442 -5.71889
334 1 14.2525 1.6915 10.8868 22.6682 20.2673 6.9187
335 2 15.0842 1.26497 10.6465 -0.175006 -8.05208 -4.1062
336 2 14.5069 2.62992 10.8824 -12.4791 -0.486299 1.09093
337 1 14.6678 12.4248 11.7157 -13.2082 -11.6835 -6.16669
338 2 15.5574 12.5766 11.3177 -21.8957 -10.6844 -5.73724
339 2 14.0022 11.9667 11.1187 29.6297 15.7618 7.64488
340 1 8.24065 5.08218 9.78509 -6.47861 44.5837 29.4664
341 2 7.45364 5.10173 10.3836 14.047 -11.9893 -18.2698
342 2 8.36822 4.22882 9.41503 -9.58488 -33.9934 -8.19516
343 1 1.59893 16.8132 18.3262 1.96117 45.1636 -18.3395
344 2 1.99225 17.1675 17.4932 -11.7114 -3.37836 17.8399
345 2 1.72693 15.8931 18.2458 8.8364 -33.8164 2.61771
346 1 1.43382 17.2563 15.3383 72.5903 -10.7327 -13.0674
347 2 1.32309 18.1562 15.5759 -7.01853 28.114 11.2541
348 2 0.623143 16.841 15.3782 -65.0193 -20.0106 1.99827
349 1 3.73599 5.55499 6.2196 -15.153 37.171 -3.6345
350 2 3.32092 6.26594 6.76194 -0.427016 -18.6419 -6.59332
351 2 4.19567 6.05321 5.52665 9.16489 -2.39818 -0.177123
352 1 12.357 9.41487 14.1826 14.7553 -23.0333 -0.513454
353 2 12.9591 8.63784 13.9021 -31.7094 29.7183 13.6876
354 2 11.936 9.15457 15.0346 15.6336 0.764049 -11.787
355 1 4.0362 15.2647 6.90572 29.1452 22.7898 -8.55589
356 2 3.45744 16.0249 6.7945 -6.03593 0.633302 -6.25525
357 2 4.92941 15.6518 6.66696 -24.7672 -22.8121 8.07817
358 1 0.606517 8.56128 14.8606 8.16327 11.3924 -6.42857
359 2 0.498099 9.52604 14.9437 -1.3098 -5.53798 5.35752
360 2 1.28855 8.50016 14.167 -7.84877 -5.15776 5.22176
361 1 12.9763 8.3683 10.3434 -0.844759 8.90572 -31.1716
362 2 13.7163 7.90436 9.89822 -4.62341 -2.31264 17.3373
363 2 12.9003 8.0957 11.2534 8.39581 -13.8091 14.665
364 1 15.2983 7.63672 3.47583 -36.1974 -22.3868 30.0346
365 2 14.5024 7.10501 3.29647 15.8969 13.8763 -24.8874
366 2 15.2922 7.47095 4.43335 27.1257 13.219 -1.62631
367 1 17.3208 6.63818 0.028906 -14.8751 21.4285 -7.11338
368 2 16.7479 6.05403 0.554933 2.23596 0.744461 -7.2242
369 2 16.7141 7.27151 18.2009 9.57247 -21.991 17.917
370 1 8.79355 6.92545 7.84172 -22.0329 -24.5159 21.3067
371 2 9.63968 7.32585 7.85068 36.717 16.3192 -5.46325
372 2 8.77688 6.39871 8.67404 -5.56167 6.19415 -17.3543
373 1 12.3209 0.607808 1.1741 -8.60043 -0.59496 -5.94607
374 2 12.995 1.15082 1.58835 11.0262 -7.11766 4.69751
375 2 12.79 18.5825 0.66073 -1.01688 3.73434 3.9163
376 1 5.68514 15.097 14.5145 8.08213 26.2607 -13.8654
377 2 4.72797 15.1695 14.4772 -8.65505 -1.66018 8.38379
378 2 6.02476 15.8935 14.032 -4.56821 -16.9623 16.8148
379 1 3.822 6.53853 1.67803 10.5239 -7.29529 -10.476
380 2 3.54968 7.33117 1.17576 -0.94291 -9.86176 19.1013
381 2 3.81642 6.7886 2.60252 -1.1437 7.90849 5.70077
382 1 3.89262 11.6088 12.227 12.6183 0.535598 5.61903
383 2 4.72051 12.1032 12.348 1.21499 -6.42147 -0.654839
384 2 3.26281 12.0921 12.7526 -15.9809 8.56892 5.74885
385 1 5.45444 3.88172 15.8755 8.44756 62.1439 23.7417
386 2 5.90627 3.24049 15.3708 26.1603 -31.2362 -14.1171
387 2 6.11665 4.65725 15.9739 -35.5554 -35.0069 -5.06549
388 1 14.4636 10.317 4.39501 5.54347 -18.2961 -43.8287
389 2 14.9051 9.88853 5.13417 0.162303 -5.91623 3.64337
390 2 14.7084 9.81768 3.53446 -11.8135 21.0668 42.8202
391 1 7.94949 17.2895 9.24469 -10.6799 8.8199 -1.02562
392 2 7.23447 17.5423 9.86969 8.35341 2.50468 -15.9799
393 2 8.01085 17.8889 8.47627 -8.2125 1.31495 9.33291
394 1 4.4986 14.4237 3.96317 23.4879 4.54475 27.495
395 2 4.89523 15.3318 4.14709 -14.6852 -27.1979 0.729547
396 2 4.80237 13.7713 4.67129 -11.1841 28.5155 -20.9146
397 1 14.3358 7.38467 15.7635 18.2582 5.36164 1.70543
398 2 15.2401 7.23754 15.391 -25.5283 4.5174 14.2628
399 2 14.4998 7.83446 16.6232 -7.00614 -11.7321 -15.3353
400 1 2.86875 18.2246 1.90934 11.7547 29.7641 47.6357
401 2 2.54447 17.7626 1.17928 -20.4445 -34.8995 -41.4626
402 2 2.08284 18.4154 2.45796 12.4063 3.86937 -8.17484
403 1 7.96139 1.61197 4.52525 30.3503 -5.61589 29.1814
404 2 7.4985 1.83317 3.72811 -5.85178 12.6793 -14.6648
405 2 8.84188 2.051 4.57628 -22.8061 -6.44347 -10.2559
406 1 2.69247 14.1251 17.7583 -44.9975 -8.30966 9.027
407 2 1.78944 13.8074 18.0556 29.9332 0.951363 -12.1679
408 2 3.33089 13.517 18.1683 -0.885538 6.08231 -6.55793
409 1 0.711797 1.68055 13.8626 46.1903 -0.903658 -18.4125
410 2 0.854596 1.56791 14.7929 -3.1534 -4.53792 18.4431
411 2 18.4557 1.86826 13.7064 -36.4408 7.03813 3.66844
412 1 4.5582 18.5986 13.9691 16.7448 -5.62304 -20.7496
413 2 5.37614 18.0918 13.7297 -17.5024 17.6116 13.2075
414 2 4.4096 18.4453 14.9034 -5.9637 -5.97884 8.59903
415 1 7.10973 0.453475 18.3742 -15.9095 45.4284 35.234
416 2 6.99644 0.098599 17.5235 1.36411 -17.312 -40.4978
417 2 6.34312 1.05085 18.5323 11.251 -17.9428 -0.916775
418 1 16.0934 18.4421 14.1505 -12.1616 -21.5095 -38.715
419 2 15.444 17.7866 13.7542 19.2119 24.6311 23.4234
420 2 16.0379 18.4915 15.109 -11.392 0.0248185 1.48898
421 1 10.1156 4.52417 16.2956 -62.1497 -10.7811 -30.3439
422 2 10.9808 4.34247 16.5381 55.5233 -0.530433 19.4573
423 2 9.84863 3.69679 15.8473 1.30878 12.8229 10.5952
424 1 15.8226 17.9425 4.41327 -8.6596 2.53656 28.4341
425 2 16.5547 18.5732 4.53052 -7.53986 -1.28134 -1.76301
426 2 15.1071 18.2295 5.06915 24.8326 -13.5436 -35.3744
427 1 6.9246 17.3574 13.7412 35.4232 12.1969 -4.79491
428 2 7.49648 17.8115 14.4369 -19.095 -19.6264 -17.6052
429 2 7.52703 17.1963 12.9658 -8.44681 6.90552 21.4872
430 1 13.2892 6.57209 6.73437 -47.4462 -6.01427 11.894
431 2 14.2146 6.66317 6.83486 37.5911 0.460957 -13.6759
432 2 13.0394 6.38579 5.82242 8.60231 0.411312 -6.48828
433 1 7.6616 2.3861 9.17526 11.1339 -5.58665 -35.6695
434 2 7.32169 2.39592 10.0555 -17.0215 -5.04529 20.6135
435 2 6.95914 2.1022 8.53308 18.7558 7.43711 21.2842
436 1 15.1464 14.8771 13.6482 -7.73724 1.21311 0.537171
437 2 15.0308 15.0223 14.6069 -1.84691 1.26092 -11.2626
438 2 14.3194 15.1152 13.1798 14.9291 -3.65447 11.731
439 1 9.29105 8.34315 3.70472 21.3149 -22.535 5.81715
440 2 10.1776 8.75859 3.73678 -10.082 3.55323 2.49013
441 2 9.48378 7.39942 3.88081 -6.26995 14.6936 -2.40173
442 1 17.6854 13.4687 16.4528 7.27147 30.461 -18.2669
443 2 16.7357 13.4337 16.3398 -4.89197 -8.49248 4.47316
444 2 17.8844 14.3284 16.0065 3.65909 -18.1112 10.9221
445 1 5.04883 10.6547 2.58751 22.4142 -14.5409 3.1837
446 2 5.87017 10.3468 3.04382 -22.783 5.18619 -3.79272
447 2 4.55197 11.1441 3.22928 -6.35653 9.92745 13.9967
448 1 3.70566 8.3683 10.3381 0.421872 -35.3081 -1.7593
449 2 3.86061 9.29726 10.2176 3.60826 23.2513 -1.90293
450 2 3.86652 8.14601 11.2715 -1.83662 8.64514 -7.63686
451 1 16.1079 7.11641 6.33859 18.7251 -13.7954 -9.96454
452 2 16.7241 7.70559 6.80408 -7.87205 -5.85527 -7.24175
453 2 16.6678 6.33083 6.12136 -22.8952 10.0887 6.36104
454 1 15.2027 7.00502 9.1117 -13.5711 31.2066 -33.9348
455 2 16.009 7.42176 9.46585 -10.2898 -7.03399 -7.73296
456 2 14.9881 7.51375 8.25647 13.8068 -20.3115 41.0185
457 1 6.4525 13.1649 12.9201 -16.9811 1.25576 1.12717
458 2 7.2977 12.7289 13.0561 1.55279 -4.02118 8.73008
459 2 6.25327 13.7237 13.7059 9.12735 -9.15034 -19.1848
460 1 12.1145 4.49786 13.0694 62.3048 41.2439 -0.723073
461 2 12.3852 4.68406 13.9868 -14.3297 -10.0558 -0.292641
462 2 11.3952 3.9317 13.0199 -52.2119 -35.1204 4.15665
463 1 11.3323 8.18365 7.8522 27.7169 3.03613 12.328
464 2 12.0901 7.73501 7.43634 -12.9205 -4.29619 -7.69129
465 2 11.7651 8.45102 8.68662 -18.4456 -0.736999 -3.04515
466 1 17.1666 10.776 7.42179 36.4822 -17.3878 -25.363
467 2 17.7906 10.0723 7.08441 -17.5934 13.4566 22.3886
468 2 17.2793 11.4524 6.73733 -15.3427 2.84073 7.18141
469 1 5.22802 18.1471 11.05 -23.1388 -14.8798 2.48444
470 2 4.73762 18.1049 11.901 7.4508 0.565766 -17.6495
471 2 4.62535 17.7417 10.374 17.7336 12.8347 12.9373
472 1 7.56653 17.6363 1.80821 4.35794 -3.26776 57.5888
473 2 7.65741 16.7768 1.42856 9.05039 -19.6913 -22.9027
474 2 7.35855 18.2549 1.13994 -1.37991 13.1573 -30.1972
475 1 1.85092 12.9256 13.6076 18.7065 20.702 19.2299
476 2 1.72104 12.4156 14.4258 -5.54537 -0.960406 -11.4426
477 2 2.19932 13.7866 13.9501 -8.88955 -22.8153 -6.43965
478 1 9.73868 6.79159 14.8001 -20.0718 45.6966 0.235719
479 2 9.95236 5.95211 15.1529 12.0129 -40.6355 11.2206
480 2 9.967 6.84408 13.8723 5.59208 -5.10263 -8.66058
481 1 15.2087 4.3972 10.7794 -27.6923 -26.0969 -27.5028
482 2 16.0082 3.89203 10.8637 26.1176 6.2885 5.33656
483 2 15.2102 5.16148 11.3322 8.48984 16.211 19.3779
484 1 11.1963 6.12482 0.150068 -21.1972 -23.7011 14.8212
485 2 11.2381 5.20796 0.481504 11.4486 12.9471 -10.1704
486 2 10.2374 6.21547 18.6186 14.0424 14.8346 -3.67395
487 1 0.19533 11.3359 15.1413 -20.6703 11.3325 -28.7309
488 2 18.4021 11.874 14.3993 9.91215 -19.3636 27.3138
489 2 18.4481 11.661 15.9631 4.36494 9.01906 -3.16307
490 1 7.06882 9.13032 7.26059 -19.4655 -1.24154 14.8953
491 2 6.55985 8.40099 7.69941 12.6354 16.9737 -16.1687
492 2 7.9725 8.82922 7.21375 8.43039 -5.65083 0.275054
493 1 18.4578 15.4507 12.3537 3.87705 -1.0699 -4.92487
494 2 0.776651 15.5698 12.2511 -12.7177 -2.03387 6.80581
495 2 18.1456 15.6789 11.4721 -4.67377 -0.406651 0.743757
496 1 16.5694 4.36967 5.25107 0.98709 -29.8421 42.9348
497 2 16.7744 3.81151 6.06026 -19.0257 27.4778 -23.1846
498 2 17.3898 4.32671 4.78168 15.572 7.21618 -21.1326
499 1 17.788 3.06911 10.7078 7.64381 16.9425 17.2861
500 2 0.075758 3.1322 11.0257 -14.4921 -2.82201 -9.29777
501 2 17.6332 2.20749 10.3226 4.29805 -13.9207 -6.70838
502 1 12.3142 0.064083 10.1758 -16.2036 46.6093 2.93236
503 2 11.3746 0.384648 10.259 24.7548 -16.9496 1.0795
504 2 12.8178 0.919304 10.3228 -10.1981 -36.9052 -8.89593
505 1 10.3666 9.83315 12.2981 10.0643 6.74252 24.9843
506 2 11.1015 9.85063 12.955 -7.48254 2.69098 -11.3777
507 2 10.1328 8.91188 12.2898 -1.25875 -17.3524 -2.69444
508 1 0.463654 2.82678 7.01839 23.1504 30.9543 10.494
509 2 0.875324 3.58845 7.48211 -15.8261 -9.71426 -11.3384
510 2 0.770257 2.12665 7.58365 -2.51696 -19.6875 3.88184
511 1 0.478371 15.2358 6.91004 -5.36214 -57.1351 9.88058
512 2 0.585298 15.6463 7.75647 2.33624 13.0536 15.0713
513 2 0.556531 14.2524 7.18353 -2.6234 48.5984 -27.3232
514 1 16.9534 7.00251 15.3394 -19.8576 7.98442 -8.98385
515 2 17.6338 7.63543 15.0899 18.202 -5.57661 4.9227
516 2 17.3093 6.19568 15.7235 12.2576 0.0838452 -6.46227
517 1 9.0001 12.4151 8.13768 -31.7276 34.3494 27.7642
518 2 9.37386 11.8218 7.49742 -2.69042 -17.0115 -24.8182
519 2 8.02402 12.632 8.03373 37.271 -17.4326 -7.14384
520 1 1.27238 1.95406 3.05803 -14.2139 -9.70678 -17.9319
521 2 1.26084 2.61511 2.34121 0.72572 -7.36998 11.1944
522 2 1.89031 2.22344 3.73293 7.71835 10.2015 -2.21509
523 1 4.13907 15.1156 9.62039 -24.138 8.67184 14.727
524 2 4.07003 15.1439 8.65747 7.76366 -2.53025 0.663124
525 2 4.96029 14.7006 9.86457 16.019 -6.11163 -3.79055
526 1 7.17628 2.17866 14.5671 8.05543 15.8774 -0.750343
527 2 6.99528 1.68402 13.7698 -4.08254 -5.57585 -6.74919
528 2 7.62131 2.98432 14.249 -3.31184 -9.11349 9.13274
529 1 18.6082 14.7131 2.1481 32.1263 -19.3615 -2.59353
530 2 0.838003 15.1297 2.25966 -2.55576 -5.62694 -3.02712
531 2 17.988 15.3544 2.42675 -29.4597 23.3621 5.14018
532 1 9.94138 2.79524 12.9422 18.0301 -20.084 -2.65944
533 2 9.79404 2.1456 12.2228 -2.72579 10.1868 5.0837
534 2 9.17835 3.36299 13.0326 -9.76513 7.42125 -6.32672
535 1 2.80444 8.90955 13.0076 -21.3878 -12.6555 -0.633582
536 2 3.06361 9.80599 12.872 11.8276 24.8177 -4.92621
537 2 3.5122 8.48618 13.4775 16.8101 -10.8298 6.5617
538 1 3.236 8.3574 3.63664 -3.24123 -25.7508 65.6997
539 2 3.45085 9.0718 3.07326 14.699 31.6407 -15.7982
540 2 3.47645 8.58669 4.60794 -10.8292 -3.55345 -46.4885