LAMMPS (23 Jun 2022)
OMP_NUM_THREADS environment is not set. Defaulting to 1 thread. (src/comm.cpp:98)
  using 1 OpenMP thread(s) per MPI task
# water hexamer with AMOEBA or HIPPO

units           real
boundary        s s s

atom_style      amoeba
bond_style      class2
angle_style     amoeba
dihedral_style  none

# per-atom properties required by AMOEBA or HIPPO

fix             amtype all property/atom i_amtype ghost yes
fix             extra all property/atom i_amgroup d_redID d_pval ghost yes
fix             extra2 all property/atom i_polaxe d2_xyzaxis 3

# read data file

read_data       data.water_hexamer.amoeba fix amtype NULL "Tinker Types"
Reading data file ...
  orthogonal box = (-2.517835 -1.523041 -1.734766) to (2.675716 2.01883 2.220847)
  2 by 1 by 2 MPI processor grid
  reading atoms ...
  18 atoms
  scanning bonds ...
  2 = max bonds/atom
  scanning angles ...
  1 = max angles/atom
  reading bonds ...
  12 bonds
  reading angles ...
  6 angles
Finding 1-2 1-3 1-4 neighbors ...
  special bond factors lj:    0        0        0       
  special bond factors coul:  0        0        0       
     2 = max # of 1-2 neighbors
     1 = max # of 1-3 neighbors
     1 = max # of 1-4 neighbors
     2 = max # of special neighbors
  special bonds CPU = 0.000 seconds
  read_data CPU = 0.004 seconds

# force field

pair_style      amoeba
pair_coeff      * * amoeba_water.prm amoeba_water.key

special_bonds   lj/coul 0.5 0.5 0.5 one/five yes
Finding 1-2 1-3 1-4 neighbors ...
  special bond factors lj:    0.5      0.5      0.5     
  special bond factors coul:  0.5      0.5      0.5     
     2 = max # of 1-2 neighbors
     1 = max # of 1-3 neighbors
     1 = max # of 1-4 neighbors
     2 = max # of 1-5 neighbors
     2 = max # of special neighbors
  special bonds CPU = 0.000 seconds

# thermo output

compute         virial all pressure NULL virial

thermo_style    custom step temp epair ebond eangle edihed eimp                 emol etotal press c_virial[*]

#dump            1 all custom 10 dump.water_hexamer id type x y z fx fy fz
#dump_modify     1 sort id

# zero step run

#run             0

# dynamics

fix             1 all nve

thermo          1
run             5
AMOEBA force field settings
  hal: cut 10 taper 8 vscale 0 0 1 1
  multipole: cut 10 aewald 0 mscale 0 0 0.4 1
  polar: cut 10 aewald 0
         pscale 0 0 1 1 piscale 0 0 0.5 1 wscale 1 1 1 1 d/u scale 0 1
  precondition: cut 4.5
Generated 0 of 1 mixed pair_coeff terms from geometric mixing rule
Neighbor list info ...
  update every 1 steps, delay 10 steps, check yes
  max neighbors/atom: 2000, page size: 100000
  master list distance cutoff = 12
  ghost atom cutoff = 12
  binsize = 6, bins = 1 1 1
  1 neighbor lists, perpetual/occasional/extra = 1 0 0
  (1) pair amoeba, perpetual
      attributes: half, newton on
      pair build: half/bin/newton
      stencil: half/bin/3d
      bin: standard
WARNING: Proc sub-domain size < neighbor skin, could lead to lost atoms (src/domain.cpp:970)
  AMOEBA group count: 6
Per MPI rank memory allocation (min/avg/max) = 48.3 | 48.3 | 48.3 Mbytes
   Step          Temp          E_pair         E_bond        E_angle        E_dihed        E_impro         E_mol          TotEng         Press       c_virial[1]    c_virial[2]    c_virial[3]    c_virial[4]    c_virial[5]    c_virial[6]  
         0   0             -48.469664      1.9820353      2.2499329      0              0              4.2319683     -44.237696     -26322.671     -28303.103     -27669.614     -22995.296      1312.6688      2624.8394      4042.0489    
         1   5.318656      -48.202382      1.5369859      2.1322394      0              0              3.6692253     -44.26364      -20236.446     -20385.617     -23104.961     -17727.152      417.52781      2728.2976      3750.7708    
         2   14.415671     -47.491537      0.6389772      1.8136212      0              0              2.4525984     -44.308442     -4127.4968      1051.8436     -10980.156     -3832.1256     -2285.3376      2991.8274      2945.888     
         3   15.996484     -46.59119       0.087228651    1.3862662      0              0              1.4734948     -44.307093      15705.166      28374.161      4124.662       13087.621     -6242.1769      3159.6508      1787.4159    
         4   10.888785     -45.839064      0.062461924    0.96598997     0              0              1.0284519     -44.258837      30226.38       48920.372      15666.108      25051.837     -9443.9251      2603.8275      435.5257     
         5   10.58575      -45.503287      0.071817565    0.64254674     0              0              0.71436431    -44.252503      31899.04       51066.283      18170.57       25448.409     -9478.6752      638.72265     -1011.7679    
Loop time of 0.0015204 on 4 procs for 5 steps with 18 atoms

Performance: 284.136 ns/day, 0.084 hours/ns, 3288.611 timesteps/s
98.8% CPU use with 4 MPI tasks x 1 OpenMP threads

AMOEBA timing breakdown:
  Init    time: 2.00392e-05    1.57%
  Hal     time: 2.58605e-05    2.02%
  Mpole   time: 0.000137192   10.74%
  Induce  time: 0.000858714   67.22%
  Polar   time: 0.00023507    18.40%
  Total   time: 0.00127742  

MPI task timing breakdown:
Section |  min time  |  avg time  |  max time  |%varavg| %total
---------------------------------------------------------------
Pair    | 0.0012876  | 0.0012913  | 0.0012951  |   0.0 | 84.93
Bond    | 4.076e-06  | 6.434e-06  | 1.0051e-05 |   0.0 |  0.42
Neigh   | 0          | 0          | 0          |   0.0 |  0.00
Comm    | 1.4924e-05 | 5.9337e-05 | 8.3417e-05 |   0.0 |  3.90
Output  | 0.00012796 | 0.00014846 | 0.00018928 |   0.0 |  9.76
Modify  | 2.066e-06  | 2.5358e-06 | 3.07e-06   |   0.0 |  0.17
Other   |            | 1.236e-05  |            |       |  0.81

Nlocal:            4.5 ave           6 max           3 min
Histogram: 1 0 0 1 0 0 1 0 0 1
Nghost:           13.5 ave          15 max          12 min
Histogram: 1 0 0 1 0 0 1 0 0 1
Neighs:          38.25 ave          77 max           9 min
Histogram: 2 0 0 0 0 0 1 0 0 1

Total # of neighbors = 153
Ave neighs/atom = 8.5
Ave special neighs/atom = 2
Neighbor list builds = 0
Dangerous builds = 0
Total wall time: 0:00:00
