LAMMPS (23 Jun 2022)
OMP_NUM_THREADS environment is not set. Defaulting to 1 thread. (src/comm.cpp:98)
  using 1 OpenMP thread(s) per MPI task
# water hexamer with AMOEBA or HIPPO

units           real
boundary        s s s

atom_style      amoeba
bond_style      class2
angle_style     amoeba
dihedral_style  none

# per-atom properties required by AMOEBA or HIPPO

fix             amtype all property/atom i_amtype ghost yes
fix             extra all property/atom i_amgroup d_redID d_pval ghost yes
fix             extra2 all property/atom i_polaxe d2_xyzaxis 3

# read data file

read_data       data.water_hexamer.hippo fix amtype NULL "Tinker Types"
Reading data file ...
  orthogonal box = (-2.517835 -1.523041 -1.734766) to (2.675716 2.01883 2.220847)
  1 by 1 by 1 MPI processor grid
  reading atoms ...
  18 atoms
  scanning bonds ...
  2 = max bonds/atom
  scanning angles ...
  1 = max angles/atom
  reading bonds ...
  12 bonds
  reading angles ...
  6 angles
Finding 1-2 1-3 1-4 neighbors ...
  special bond factors lj:    0        0        0       
  special bond factors coul:  0        0        0       
     2 = max # of 1-2 neighbors
     1 = max # of 1-3 neighbors
     1 = max # of 1-4 neighbors
     2 = max # of special neighbors
  special bonds CPU = 0.000 seconds
  read_data CPU = 0.003 seconds

# force field

pair_style      hippo
pair_coeff      * * hippo_water.prm hippo_water.key
Reading potential file hippo_water.prm with DATE: 2022-07-05

special_bonds   lj/coul 0.5 0.5 0.5 one/five yes
Finding 1-2 1-3 1-4 neighbors ...
  special bond factors lj:    0.5      0.5      0.5     
  special bond factors coul:  0.5      0.5      0.5     
     2 = max # of 1-2 neighbors
     1 = max # of 1-3 neighbors
     1 = max # of 1-4 neighbors
     2 = max # of 1-5 neighbors
     2 = max # of special neighbors
  special bonds CPU = 0.000 seconds

# thermo output

compute         virial all pressure NULL virial

thermo_style    custom step temp epair ebond eangle edihed eimp                 emol etotal press c_virial[*]

#dump            1 all custom 10 dump.water_hexamer id type x y z fx fy fz
#dump_modify     1 sort id

# zero step run

#run             0

# dynamics

fix             1 all nve

thermo          1
run             5
HIPPO force field settings
  repulsion: cut 10 taper 8 rscale 0 0 1 1
  qxfer: cut 10 taper 8 mscale 0 0 0.4 1
  dispersion: cut 10 aewald 0 dspscale 0 0 0.4 1
  multipole: cut 10 aewald 0 mscale 0 0 0.4 1
  polar: cut 10 aewald 0
         pscale 0 0 1 1 piscale 0 0 0.5 1 wscale 0.2 1 1 1 d/u scale 0 1
  precondition: cut 4.5
Generated 0 of 1 mixed pair_coeff terms from geometric mixing rule
Neighbor list info ...
  update every 1 steps, delay 10 steps, check yes
  max neighbors/atom: 2000, page size: 100000
  master list distance cutoff = 12
  ghost atom cutoff = 12
  binsize = 6, bins = 1 1 1
  1 neighbor lists, perpetual/occasional/extra = 1 0 0
  (1) pair hippo, perpetual
      attributes: half, newton on
      pair build: half/bin/newton
      stencil: half/bin/3d
      bin: standard
  HIPPO group count: 6
Per MPI rank memory allocation (min/avg/max) = 47.84 | 47.84 | 47.84 Mbytes
   Step          Temp          E_pair         E_bond        E_angle        E_dihed        E_impro         E_mol          TotEng         Press       c_virial[1]    c_virial[2]    c_virial[3]    c_virial[4]    c_virial[5]    c_virial[6]  
         0   0             -47.362156      1.9820353      1.6634749      0              0              3.6455102     -43.716646     -34513.768     -42206.078     -31383.641     -29951.584      2850.1184      3579.9253      5768.3698    
         1   7.1819351     -47.135822      1.4553325      1.5620463      0              0              3.0173788     -43.754508     -26763.923     -32046.377     -25919.73      -23012.16       1848.028       3578.5744      5396.0234    
         2   18.776762     -46.526843      0.46636815     1.2906982      0              0              1.7570664     -43.818287     -6352.6601     -4602.4631     -11460.465     -4789.8629     -1296.5558      3625.7641      4391.7607    
         3   19.013509     -45.750445      0.043880608    0.9336078      0              0              0.97748841    -43.809471      18351.549      29896.314      6275.5012      17065.39      -6055.8639      3664.6024      3015.6633    
         4   11.017518     -45.12347       0.24124811     0.58878104     0              0              0.83002915    -43.735142      35358.63       54252.632      19050.919      31719.21      -9822.7607      3160.7845      1520.1368    
         5   12.143149     -44.904245      0.22320916     0.3270434      0              0              0.55025256    -43.738653      35160.919      53395.572      20272.979      30653.482     -9511.0241      1392.4959      35.692826    
Loop time of 0.000984386 on 1 procs for 5 steps with 18 atoms

Performance: 438.852 ns/day, 0.055 hours/ns, 5079.308 timesteps/s
99.8% CPU use with 1 MPI tasks x 1 OpenMP threads

HIPPO timing breakdown:
  Init    time: 1.2669e-05     1.45%
  Repulse time: 0.000132325   15.15%
  Disp    time: 4.2534e-05     4.87%
  Mpole   time: 0.000177341   20.30%
  Induce  time: 0.000303723   34.77%
  Polar   time: 0.000179318   20.53%
  Qxfer   time: 2.5413e-05     2.91%
  Total   time: 0.000873466 

MPI task timing breakdown:
Section |  min time  |  avg time  |  max time  |%varavg| %total
---------------------------------------------------------------
Pair    | 0.00087559 | 0.00087559 | 0.00087559 |   0.0 | 88.95
Bond    | 6.455e-06  | 6.455e-06  | 6.455e-06  |   0.0 |  0.66
Neigh   | 0          | 0          | 0          |   0.0 |  0.00
Comm    | 7.87e-07   | 7.87e-07   | 7.87e-07   |   0.0 |  0.08
Output  | 9.3142e-05 | 9.3142e-05 | 9.3142e-05 |   0.0 |  9.46
Modify  | 2.351e-06  | 2.351e-06  | 2.351e-06  |   0.0 |  0.24
Other   |            | 6.065e-06  |            |       |  0.62

Nlocal:             18 ave          18 max          18 min
Histogram: 1 0 0 0 0 0 0 0 0 0
Nghost:              0 ave           0 max           0 min
Histogram: 1 0 0 0 0 0 0 0 0 0
Neighs:            153 ave         153 max         153 min
Histogram: 1 0 0 0 0 0 0 0 0 0

Total # of neighbors = 153
Ave neighs/atom = 8.5
Ave special neighs/atom = 2
Neighbor list builds = 0
Dangerous builds = 0
Total wall time: 0:00:00
