LAMMPS (23 Jun 2022)
OMP_NUM_THREADS environment is not set. Defaulting to 1 thread. (src/comm.cpp:98)
  using 1 OpenMP thread(s) per MPI task
# water box with AMOEBA or HIPPO

units           real
boundary        p p p

atom_style      amoeba
bond_style      class2
angle_style     amoeba
dihedral_style  none

# per-atom properties required by AMOEBA or HIPPO

fix             amtype all property/atom i_amtype ghost yes
fix             extra all property/atom i_amgroup d_redID d_pval ghost yes
fix             extra2 all property/atom i_polaxe d2_xyzaxis 3

# read data file

read_data       data.water_box.hippo fix amtype NULL "Tinker Types"
Reading data file ...
  orthogonal box = (0 0 0) to (18.643 18.643 18.643)
  1 by 1 by 1 MPI processor grid
  reading atoms ...
  648 atoms
  scanning bonds ...
  2 = max bonds/atom
  scanning angles ...
  1 = max angles/atom
  reading bonds ...
  432 bonds
  reading angles ...
  216 angles
Finding 1-2 1-3 1-4 neighbors ...
  special bond factors lj:    0        0        0       
  special bond factors coul:  0        0        0       
     2 = max # of 1-2 neighbors
     1 = max # of 1-3 neighbors
     1 = max # of 1-4 neighbors
     2 = max # of special neighbors
  special bonds CPU = 0.000 seconds
  read_data CPU = 0.004 seconds

# force field

pair_style      hippo
pair_coeff      * * hippo_water.prm hippo_water_box.key

special_bonds   lj/coul 0.5 0.5 0.5 one/five yes
Finding 1-2 1-3 1-4 neighbors ...
  special bond factors lj:    0.5      0.5      0.5     
  special bond factors coul:  0.5      0.5      0.5     
     2 = max # of 1-2 neighbors
     1 = max # of 1-3 neighbors
     1 = max # of 1-4 neighbors
     2 = max # of 1-5 neighbors
     2 = max # of special neighbors
  special bonds CPU = 0.000 seconds

# thermo output

compute         virial all pressure NULL virial

thermo_style    custom step temp epair ebond eangle edihed eimp                 emol etotal press c_virial[*]

#dump            1 all custom 10 dump.water_box id type x y z fx fy fz
#dump_modify     1 sort id

# zero step run

#run             0

# dynamics

fix             1 all nve

thermo          1
run             5
HIPPO force field settings
  repulsion: cut 7 taper 6 rscale 0 0 1 1
  qxfer: cut 7 taper 6 mscale 0 0 0.4 1
  dispersion: cut 7 aewald 0.45 bsorder 4 FFT 16 16 16 dspscale 0 0 0.4 1
  multipole: cut 7 aewald 0.4 bsorder 5 FFT 24 24 24 mscale 0 0 0.4 1
  polar: cut 7 aewald 0.5 bsorder 5 FFT 24 24 24
         pscale 0 0 1 1 piscale 0 0 0.5 1 wscale 0.2 1 1 1 d/u scale 0 1
  precondition: cut 4.5
Generated 0 of 1 mixed pair_coeff terms from geometric mixing rule
Neighbor list info ...
  update every 1 steps, delay 10 steps, check yes
  max neighbors/atom: 2000, page size: 100000
  master list distance cutoff = 9
  ghost atom cutoff = 9
  binsize = 4.5, bins = 5 5 5
  1 neighbor lists, perpetual/occasional/extra = 1 0 0
  (1) pair hippo, perpetual
      attributes: half, newton on
      pair build: half/bin/newton
      stencil: half/bin/3d
      bin: standard
  HIPPO group count: 216
Per MPI rank memory allocation (min/avg/max) = 56.46 | 56.46 | 56.46 Mbytes
   Step          Temp          E_pair         E_bond        E_angle        E_dihed        E_impro         E_mol          TotEng         Press       c_virial[1]    c_virial[2]    c_virial[3]    c_virial[4]    c_virial[5]    c_virial[6]  
         0   0             -2188.594       166.82637      77.478353      0              0              244.30473     -1944.2893     -10859.589     -9285.4645     -11598.049     -11695.254     -282.7072       3164.4148      2495.2578    
         1   29.599499     -2189.0009      110.80903      70.640769      0              0              181.4498      -1950.466      -9781.8027     -8491.8338     -11237.523     -10824.225     -316.85579      2724.3099      2103.706     
         2   77.782401     -2189.0806      26.465487      53.091297      0              0              79.556784     -1959.5139     -5674.5913     -4709.6895     -8454.6227     -7034.3366     -270.02397      1600.8009      1104.5782    
         3   83.751912     -2189.1561      36.936027      32.349803      0              0              69.285831     -1958.3477      1505.3642      2789.4989     -1919.6532      227.71216      3.4467207      240.18575     -91.250567    
         4   59.186129     -2195.3882      116.40559      17.314099      0              0              133.71969     -1947.5231      7666.6109      9441.7634      4355.1915      6787.0543      329.33631     -768.83277     -966.66638    
         5   70.911532     -2215.1422      115.71443      14.75745       0              0              130.47188     -1947.9114      7292.9034      8506.6309      4019.0295      6458.6256      348.80878     -911.32703     -1060.6123    
Loop time of 0.328811 on 1 procs for 5 steps with 648 atoms

Performance: 1.314 ns/day, 18.267 hours/ns, 15.206 timesteps/s
99.7% CPU use with 1 MPI tasks x 1 OpenMP threads

HIPPO timing breakdown:
  Init    time: 0.000849843    0.26%
  Repulse time: 0.0386964     11.79%
  Disp    time: 0.0176955      5.39%
  Mpole   time: 0.0625716     19.06%
  Induce  time: 0.122108      37.20%
  Polar   time: 0.0762897     23.24%
  Qxfer   time: 0.010031       3.06%
  Total   time: 0.328242    

MPI task timing breakdown:
Section |  min time  |  avg time  |  max time  |%varavg| %total
---------------------------------------------------------------
Pair    | 0.32826    | 0.32826    | 0.32826    |   0.0 | 99.83
Bond    | 0.00014786 | 0.00014786 | 0.00014786 |   0.0 |  0.04
Neigh   | 0          | 0          | 0          |   0.0 |  0.00
Comm    | 9.3603e-05 | 9.3603e-05 | 9.3603e-05 |   0.0 |  0.03
Output  | 0.00022715 | 0.00022715 | 0.00022715 |   0.0 |  0.07
Modify  | 5.5594e-05 | 5.5594e-05 | 5.5594e-05 |   0.0 |  0.02
Other   |            | 2.723e-05  |            |       |  0.01

Nlocal:            648 ave         648 max         648 min
Histogram: 1 0 0 0 0 0 0 0 0 0
Nghost:           4302 ave        4302 max        4302 min
Histogram: 1 0 0 0 0 0 0 0 0 0
Neighs:          98585 ave       98585 max       98585 min
Histogram: 1 0 0 0 0 0 0 0 0 0

Total # of neighbors = 98585
Ave neighs/atom = 152.13735
Ave special neighs/atom = 2
Neighbor list builds = 0
Dangerous builds = 0
Total wall time: 0:00:00
