LAMMPS (5 Jun 2019)
OMP_NUM_THREADS environment is not set. Defaulting to 1 thread. (../comm.cpp:88)
  using 1 OpenMP thread(s) per MPI task
# Initialization
units           metal
boundary        p p p
atom_style      full
processors      * * 1     # domain decomposition over x and y

# System and atom definition
# we use 2 molecule ids so that inter- and intra-layer
# interactions can be specified separately
# read lammps data file
read_data       Bi_gr_AB_stack_2L_noH.data
  orthogonal box = (0 0 0) to (42.6 41.8117 100)
  2 by 2 by 1 MPI processor grid
  reading atoms ...
  1360 atoms
  0 = max # of 1-2 neighbors
  0 = max # of 1-3 neighbors
  0 = max # of 1-4 neighbors
  1 = max # of special neighbors
  special bonds CPU = 0.000147377 secs
  read_data CPU = 0.0025185 secs
mass            1 12.0107   # carbon mass (g/mole) | membrane
mass            2 12.0107   # carbon mass (g/mole) | adsorbate
# Separate atom groups
group		layer1 molecule 1
680 atoms in group layer1
group		layer2 molecule 2
680 atoms in group layer2

######################## Potential defition ########################
pair_style  hybrid/overlay  rebo  ilp/graphene/hbn 16.0
####################################################################
pair_coeff  * * rebo               CH.rebo   C  C  # chemical
Reading potential file CH.rebo with DATE: 2018-7-3
pair_coeff  * * ilp/graphene/hbn   BNCH.ILP  C  C  # long range
####################################################################
# Neighbor update settings
neighbor        2.0 bin
neigh_modify    every 1
neigh_modify    delay 0
neigh_modify    check yes

#### Simulation settings ####
timestep	0.001
velocity	all create 300.0 12345

compute   	0 all pair rebo
compute  	1 all pair ilp/graphene/hbn
variable  	REBO  equal c_0     # REBO energy
variable  	ILP   equal c_1     # total interlayer energy
variable  	Evdw  equal c_1[1]  # attractive energy
variable 	Erep  equal c_1[2]  # repulsive  energy

############################

# Output
thermo          100
thermo_style    custom step cpu etotal pe ke v_REBO v_ILP v_Erep v_Evdw temp
thermo_modify   line one format float %.16f
thermo_modify   flush yes norm no lost warn

###### Run molecular dynamics ######
fix       	thermostat all nve
run 	  	1000
Neighbor list info ...
  update every 1 steps, delay 0 steps, check yes
  max neighbors/atom: 2000, page size: 100000
  master list distance cutoff = 18
  ghost atom cutoff = 18
  binsize = 9, bins = 5 5 12
  2 neighbor lists, perpetual/occasional/extra = 2 0 0
  (1) pair rebo, perpetual
      attributes: full, newton on, ghost
      pair build: full/bin/ghost
      stencil: full/ghost/bin/3d
      bin: standard
  (2) pair ilp/graphene/hbn, perpetual, copy from (1)
      attributes: full, newton on, ghost
      pair build: copy
      stencil: none
      bin: none
Per MPI rank memory allocation (min/avg/max) = 11.64 | 11.64 | 11.64 Mbytes
Step CPU TotEng PotEng KinEng v_REBO v_ILP v_Erep v_Evdw Temp 
       0 0.0000000000000000 -10037.2853168516194273 -10089.9846779681192857 52.6993611164999933 -10057.1894932866325689 -32.7951846814872354 43.6401037466782640 -76.4352884281594527 299.9999999999999432 
     100 1.5180878639221191 -10037.0338552867851831 -10064.7651651139967726 27.7313098272123320 -10032.1809546658569161 -32.5842104481406381 34.7308676709827395 -67.3150781191209546 157.8651576016720242 
     200 3.0293023219564930 -10036.9626863095381850 -10061.1437965400909889 24.1811102305529495 -10028.8556641958311957 -32.2881323442601911 28.1799358234373614 -60.4680681676959750 137.6550477173541367 
     300 4.5289151089964435 -10037.0034097789121006 -10063.5001355365566269 26.4967257576439188 -10030.8230306457808183 -32.6771048907772084 34.9238490632284311 -67.6009539540031454 150.8370795942033453 
     400 6.0309539699228480 -10037.0320901258182857 -10064.3886163746046805 27.3565262487870413 -10031.8532011416427849 -32.5354152329611424 44.2423469839354624 -76.7777622168941747 155.7316388806569307 
     500 7.5873900629812852 -10037.0233394482729636 -10064.1136184894312464 27.0902790411581904 -10031.4312007416810957 -32.6824177477510176 37.2292320482201404 -69.9116497959683159 154.2159817531999124 
     600 9.1088078819448128 -10037.0033561502586963 -10063.6570740290553658 26.6537178787959803 -10031.3274097829398670 -32.3296642461160033 28.5090732060055281 -60.8387374521202773 151.7307837178928480 
     700 10.6168858460150659 -10037.0041655805125629 -10063.3498627390090405 26.3456971584962574 -10030.8006321782777377 -32.5492305607314165 32.5646861904650535 -65.1139167511946653 149.9773238251696910 
     800 12.1294107990106568 -10037.0245724491123838 -10064.2193369538508705 27.1947645047383304 -10031.7656842933720327 -32.4536526604775162 43.3815569718824179 -75.8352096323571629 154.8107828743130767 
     900 13.6509861790109426 -10037.0283918584264029 -10064.6675188165099826 27.6391269580827625 -10032.1673975747471559 -32.5001212417642336 39.9934500237184380 -72.4935712654798436 157.3403910740904905 
    1000 15.1634582940023392 -10037.0033475405834906 -10063.6621727185720374 26.6588251779879926 -10031.3371200905276055 -32.3250526280445740 29.5735783776581442 -61.8986310057012972 151.7598578798018707 
Loop time of 15.1635 on 4 procs for 1000 steps with 1360 atoms

Performance: 5.698 ns/day, 4.212 hours/ns, 65.948 timesteps/s
99.9% CPU use with 4 MPI tasks x 1 OpenMP threads

MPI task timing breakdown:
Section |  min time  |  avg time  |  max time  |%varavg| %total
---------------------------------------------------------------
Pair    | 13.997     | 14.363     | 14.741     |   9.0 | 94.72
Bond    | 0.00036359 | 0.00040186 | 0.00044586 |   0.0 |  0.00
Neigh   | 0          | 0          | 0          |   0.0 |  0.00
Comm    | 0.40664    | 0.78485    | 1.1509     |  38.6 |  5.18
Output  | 0.00027687 | 0.00036825 | 0.00063194 |   0.0 |  0.00
Modify  | 0.0043962  | 0.0045847  | 0.0047857  |   0.2 |  0.03
Other   |            | 0.01055    |            |       |  0.07

Nlocal:    340 ave 340 max 340 min
Histogram: 4 0 0 0 0 0 0 0 0 0
Nghost:    4628 ave 4628 max 4628 min
Histogram: 4 0 0 0 0 0 0 0 0 0
Neighs:    0 ave 0 max 0 min
Histogram: 4 0 0 0 0 0 0 0 0 0
FullNghs:  259250 ave 259250 max 259250 min
Histogram: 4 0 0 0 0 0 0 0 0 0

Total # of neighbors = 1037000
Ave neighs/atom = 762.5
Ave special neighs/atom = 0
Neighbor list builds = 0
Dangerous builds = 0
Total wall time: 0:00:15
