LAMMPS (25 Oct 2011)
  using 1 OpenMP thread(s) per MPI task
variable	x index 1
variable	y index 1
variable	z index 1

variable	xx equal 10*$x
variable	xx equal 10*1
variable	yy equal 10*$y
variable	yy equal 10*1
variable	zz equal 10*$z
variable	zz equal 10*1

units		lj
atom_style	charge
newton      off
lattice		fcc 0.8442
Lattice spacing in x,y,z = 1.6796 1.6796 1.6796
region		box block 0 ${xx} 0 ${yy} 0 ${zz}
region		box block 0 10 0 ${yy} 0 ${zz}
region		box block 0 10 0 10 0 ${zz}
region		box block 0 10 0 10 0 10
region    half block 0 ${xx} 0 ${yy} 0 4.5
region    half block 0 10 0 ${yy} 0 4.5
region    half block 0 10 0 10 0 4.5
create_box	2 box
Created orthogonal box = (0 0 0) to (16.796 16.796 16.796)
  1 by 1 by 3 processor grid
create_atoms	1 box
Created 4000 atoms
group     ga region box 
4000 atoms in group ga
group     gp region half
2000 atoms in group gp
group     gn subtract ga gp
2000 atoms in group gn
set group gp charge 0.5
  2000 settings made for charge
set group gn charge -0.5
  2000 settings made for charge
set group gn type 2
  2000 settings made for type

mass		1 1.0
mass            2 1.1

velocity	all create 1.44 87287 loop geom

pair_style  lj/charmm/coul/long 3 5
pair_coeff	1 1 1.0 1.0
pair_coeff      2 2 0.8 0.85
kspace_style    pppm 1e-4

neighbor	0.3 bin
neigh_modify	delay 0 every 20 check no

fix		1 all nve

timestep 0.003
thermo   100
thermo_style custom step temp evdwl ecoul epair etotal press

run		400
PPPM initialization ...
  G vector = 0.58028
  grid = 24 24 24
  stencil order = 5
  RMS precision = 4.53695e-05
  using double precision FFTs
  brick FFT buffer size/proc = 10933 4608 7569
Memory usage per processor = 6.83867 Mbytes
Step Temp E_vdwl E_coul E_pair TotEng Press 
       0         1.44   -4.8899632   0.59246594    2.6419487    4.8014087   -2.1553003 
     100     1.565316   -3.9971059   0.53227214    2.4535605    4.8009474    4.4827931 
     200     1.912068   -3.6115318    0.5024863    1.9329343    4.8003193    7.5318493 
     300    2.0762384   -3.6068506   0.48634611    1.6868769    4.8004559    7.7874387 
     400    2.1645451   -3.5670414   0.45603564    1.5544263    4.8004321    7.6601779 
Loop time of 11.6958 on 3 procs (3 MPI x 1 OpenMP) for 400 steps with 4000 atoms

Pair  time (%) = 8.87824 (75.91)
Kspce time (%) = 2.16415 (18.5037)
Neigh time (%) = 0.550888 (4.71015)
Comm  time (%) = 0.0889638 (0.760651)
Outpt time (%) = 0.000194391 (0.00166206)
Other time (%) = 0.0133138 (0.113834)

FFT time (% of Kspce) = 0.410334 (18.9605)
FFT Gflps 3d (1d only) = 2.56962 4.63301

Nlocal:    1333.33 ave 1515 max 1240 min
Histogram: 2 0 0 0 0 0 0 0 0 1
Nghost:    8970 ave 9172 max 8653 min
Histogram: 1 0 0 0 0 0 0 0 1 1
Neighs:    528411 ave 572188 max 489640 min
Histogram: 1 0 0 0 1 0 0 0 0 1

Total # of neighbors = 1585233
Ave neighs/atom = 396.308
Neighbor list builds = 20
Dangerous builds = 0
