LAMMPS (25 Oct 2011)
  using 1 OpenMP thread(s) per MPI task
package gpu force 0 0 0.8
variable	x index 1
variable	y index 1
variable	z index 1

variable	xx equal 10*$x
variable	xx equal 10*1
variable	yy equal 10*$y
variable	yy equal 10*1
variable	zz equal 10*$z
variable	zz equal 10*1

units		lj
atom_style	charge
newton      off
lattice		fcc 0.8442
Lattice spacing in x,y,z = 1.6796 1.6796 1.6796
region		box block 0 ${xx} 0 ${yy} 0 ${zz}
region		box block 0 10 0 ${yy} 0 ${zz}
region		box block 0 10 0 10 0 ${zz}
region		box block 0 10 0 10 0 10
region    half block 0 ${xx} 0 ${yy} 0 4.5
region    half block 0 10 0 ${yy} 0 4.5
region    half block 0 10 0 10 0 4.5
create_box	2 box
Created orthogonal box = (0 0 0) to (16.796 16.796 16.796)
  1 by 1 by 3 processor grid
create_atoms	1 box
Created 4000 atoms
group     ga region box 
4000 atoms in group ga
group     gp region half
2000 atoms in group gp
group     gn subtract ga gp
2000 atoms in group gn
set group gp charge 0.5
  2000 settings made for charge
set group gn charge -0.5
  2000 settings made for charge
set group gn type 2
  2000 settings made for type

mass		1 1.0
mass            2 1.1

velocity	all create 1.44 87287 loop geom

pair_style  hybrid/overlay lj/cut/coul/cut/gpu 2.5 5.0 lj/cut/gpu 2.5
pair_coeff	1 1 lj/cut/coul/cut/gpu 1.0 1.0
pair_coeff	1 1 lj/cut/gpu 1.0 1.0
pair_coeff  1 2 lj/cut/coul/cut/gpu 0.95 0.9
pair_coeff  1 2 lj/cut/gpu 0.95 0.9
pair_coeff  2 2 lj/cut/gpu 0.8 0.85
pair_coeff	2 2 lj/cut/coul/cut/gpu 1.0 1.0

neighbor	0.3 bin
neigh_modify	delay 0 every 20 check no

fix		1 all nve

timestep 0.003
thermo   100
thermo_style custom step temp evdwl ecoul epair etotal press

run		400
Memory usage per processor = 8.73158 Mbytes
Step Temp E_vdwl E_coul E_pair TotEng Press 
       0         1.44   -11.227509    9.6114363   -1.6160732   0.54338681   -7.2941575 
     100   0.92562036   -10.180723    8.8996948   -1.2810284   0.10705505  -0.89765624 
     200   0.99131613   -10.073098    8.2425974   -1.8305009  -0.34389848   0.48591533 
     300    1.0509956   -10.140531     8.154242   -1.9862885  -0.41018926    1.0055606 
     400    1.0820444   -10.202086    8.1806912   -2.0213944  -0.39873355    1.5023499 
Loop time of 3.08024 on 3 procs (3 MPI x 1 OpenMP) for 400 steps with 4000 atoms

Pair  time (%) = 2.21491 (71.9071)
Neigh time (%) = 0.595055 (19.3184)
Comm  time (%) = 0.246568 (8.00483)
Outpt time (%) = 0.0114458 (0.371589)
Other time (%) = 0.012262 (0.398086)

Nlocal:    1333.33 ave 1422 max 1203 min
Histogram: 1 0 0 0 0 0 0 1 0 1
Nghost:    9057.33 ave 9242 max 8774 min
Histogram: 1 0 0 0 0 0 0 0 1 1
Neighs:    0 ave 0 max 0 min
Histogram: 3 0 0 0 0 0 0 0 0 0
FullNghs: 708890 ave 772685 max 598660 min
Histogram: 1 0 0 0 0 0 0 0 0 2

Total # of neighbors = 2126670
Ave neighs/atom = 531.668
Neighbor list builds = 20
Dangerous builds = 0
