LAMMPS (25 Oct 2011)
  using 1 OpenMP thread(s) per MPI task
variable	x index 1
variable	y index 1
variable	z index 1

variable	xx equal 10*$x
variable	xx equal 10*1
variable	yy equal 10*$y
variable	yy equal 10*1
variable	zz equal 10*$z
variable	zz equal 10*1

units		lj
atom_style	atomic
newton      off
lattice		fcc 0.8442
Lattice spacing in x,y,z = 1.6796 1.6796 1.6796
region		box block 0 ${xx} 0 ${yy} 0 ${zz}
region		box block 0 10 0 ${yy} 0 ${zz}
region		box block 0 10 0 10 0 ${zz}
region		box block 0 10 0 10 0 10
create_box	1 box
Created orthogonal box = (0 0 0) to (16.796 16.796 16.796)
  1 by 1 by 3 processor grid
create_atoms	1 box
Created 4000 atoms
mass		1 1.0

velocity	all create 1.44 87287 loop geom

pair_style  lj96/cut 2.5
pair_coeff	1 1 1.0 1.0 2.5

neighbor	0.3 bin
neigh_modify	delay 0 every 20 check no

fix		1 all nve

timestep 0.003
thermo   100
run		400
Memory usage per processor = 1.96268 Mbytes
Step Temp E_pair E_mol TotEng Press 
       0         1.44    -4.553072            0    -2.393612   -1.9972702 
     100   0.73039551   -3.4964558            0   -2.4011364    1.8228744 
     200   0.71756722   -3.4763271            0   -2.4002453    1.8951706 
     300   0.71931419   -3.4790723            0   -2.4003708    1.8942588 
     400   0.71484592   -3.4709921            0   -2.3989913    1.9208387 
Loop time of 0.884224 on 3 procs (3 MPI x 1 OpenMP) for 400 steps with 4000 atoms

Pair  time (%) = 0.727574 (82.2839)
Neigh time (%) = 0.111988 (12.6651)
Comm  time (%) = 0.0335359 (3.79269)
Outpt time (%) = 0.000652711 (0.0738173)
Other time (%) = 0.0104736 (1.1845)

Nlocal:    1333.33 ave 1338 max 1329 min
Histogram: 1 0 0 0 1 0 0 0 0 1
Nghost:    3425.67 ave 3441 max 3416 min
Histogram: 1 1 0 0 0 0 0 0 0 1
Neighs:    64971.7 ave 65196 max 64613 min
Histogram: 1 0 0 0 0 0 0 0 1 1

Total # of neighbors = 194915
Ave neighs/atom = 48.7287
Neighbor list builds = 20
Dangerous builds = 0
