LAMMPS (7 Jan 2012)
  using 4 OpenMP thread(s) per MPI task
package gpu force/neigh 0 0 -1
variable	x index 1
variable	y index 1
variable	z index 1

variable	xx equal 10*$x
variable	xx equal 10*1
variable	yy equal 10*$y
variable	yy equal 10*1
variable	zz equal 10*$z
variable	zz equal 10*1

units		lj
atom_style	atomic
newton      off
lattice		fcc 0.8442
Lattice spacing in x,y,z = 1.6796 1.6796 1.6796
region		box block 0 ${xx} 0 ${yy} 0 ${zz}
region		box block 0 10 0 ${yy} 0 ${zz}
region		box block 0 10 0 10 0 ${zz}
region		box block 0 10 0 10 0 10
create_box	1 box
Created orthogonal box = (0 0 0) to (16.796 16.796 16.796)
  1 by 1 by 3 MPI processor grid
create_atoms	1 box
Created 4000 atoms
mass		1 1.0

velocity	all create 1.44 87287 loop geom

pair_style  lj96/cut/gpu 2.5
pair_coeff	1 1 1.0 1.0 2.5

neighbor	0.3 bin
neigh_modify	delay 0 every 20 check no

fix		1 all nve

timestep 0.003
thermo   100
run		400
Memory usage per processor = 2.61441 Mbytes
Step Temp E_pair E_mol TotEng Press 
       0         1.44   -4.5530722            0   -2.3936122   -1.9972705 
     100   0.73039552   -3.4964558            0   -2.4011364    1.8228742 
     200   0.71756735    -3.476327            0   -2.4002451    1.8951709 
     300   0.71931429   -3.4790724            0   -2.4003707    1.8942589 
     400   0.71484552   -3.4709913            0   -2.3989911    1.9208417 
Loop time of 0.256565 on 12 procs (3 MPI x 4 OpenMP) for 400 steps with 4000 atoms

Pair  time (%) = 0.181305 (70.6664)
Neigh time (%) = 6.19888e-06 (0.00241611)
Comm  time (%) = 0.0638103 (24.871)
Outpt time (%) = 0.000595649 (0.232163)
Other time (%) = 0.0108475 (4.22797)

Nlocal:    1333.33 ave 1338 max 1329 min
Histogram: 1 0 0 0 1 0 0 0 0 1
Nghost:    3425.67 ave 3441 max 3416 min
Histogram: 1 1 0 0 0 0 0 0 0 1
Neighs:    0 ave 0 max 0 min
Histogram: 3 0 0 0 0 0 0 0 0 0

Total # of neighbors = 0
Ave neighs/atom = 0
Neighbor list builds = 20
Dangerous builds = 0
