LAMMPS (25 Oct 2011)
  using 1 OpenMP thread(s) per MPI task
variable	x index 1
variable	y index 1
variable	z index 1

variable	xx equal 10*$x
variable	xx equal 10*1
variable	yy equal 10*$y
variable	yy equal 10*1
variable	zz equal 10*$z
variable	zz equal 10*1

units		lj
atom_style	charge
newton      off
lattice		fcc 0.8442
Lattice spacing in x,y,z = 1.6796 1.6796 1.6796
region		box block 0 ${xx} 0 ${yy} 0 ${zz}
region		box block 0 10 0 ${yy} 0 ${zz}
region		box block 0 10 0 10 0 ${zz}
region		box block 0 10 0 10 0 10
region    half block 0 ${xx} 0 ${yy} 0 4.5
region    half block 0 10 0 ${yy} 0 4.5
region    half block 0 10 0 10 0 4.5
create_box	2 box
Created orthogonal box = (0 0 0) to (16.796 16.796 16.796)
  1 by 1 by 3 processor grid
create_atoms	1 box
Created 4000 atoms
group     ga region box 
4000 atoms in group ga
group     gp region half
2000 atoms in group gp
group     gn subtract ga gp
2000 atoms in group gn
set group gp charge 0.5
  2000 settings made for charge
set group gn charge -0.5
  2000 settings made for charge
set group gn type 2
  2000 settings made for type

mass		1 1.0
mass            2 1.1

velocity	all create 1.44 87287 loop geom

pair_style  lj/class2/coul/long 2.5 5.0
pair_coeff	1 1 1.0 1.0
pair_coeff      1 2 0.95 0.9
pair_coeff      2 2 0.8 0.85
kspace_style    pppm 1e-4

neighbor	0.3 bin
neigh_modify	delay 0 every 20 check no

fix		1 all nve

timestep 0.003
thermo   100
thermo_style custom step temp evdwl ecoul epair etotal press

run		400
PPPM initialization ...
  G vector = 0.58028
  grid = 24 24 24
  stencil order = 5
  RMS precision = 4.53695e-05
  using double precision FFTs
  brick FFT buffer size/proc = 10933 4608 7569
Memory usage per processor = 6.83867 Mbytes
Step Temp E_vdwl E_coul E_pair TotEng Press 
       0         1.44   -3.2021094   0.59246616    4.3298026    6.4892626  -0.77985141 
     100    2.1472944   -2.9101351   0.51083414    3.2673456     6.487482    3.9151837 
     200    3.1752342   -2.7236645   0.38954883    1.7173607    6.4790213    6.0120267 
     300    3.7383886   -2.5766382    0.3113069   0.87065159    6.4768327    6.9900517 
     400    4.0747628   -2.5052033   0.24501344   0.37456084     6.485177     6.613956 
Loop time of 20.0776 on 3 procs (3 MPI x 1 OpenMP) for 400 steps with 4000 atoms

Pair  time (%) = 16.5777 (82.5681)
Kspce time (%) = 2.83984 (14.1443)
Neigh time (%) = 0.554493 (2.76175)
Comm  time (%) = 0.0923183 (0.459807)
Outpt time (%) = 0.000169834 (0.000845885)
Other time (%) = 0.0130827 (0.0651609)

FFT time (% of Kspce) = 0.361869 (12.7426)
FFT Gflps 3d (1d only) = 2.91377 4.80162

Nlocal:    1333.33 ave 1558 max 1214 min
Histogram: 2 0 0 0 0 0 0 0 0 1
Nghost:    8891.67 ave 9118 max 8528 min
Histogram: 1 0 0 0 0 0 0 0 1 1
Neighs:    529308 ave 592915 max 482216 min
Histogram: 1 0 1 0 0 0 0 0 0 1

Total # of neighbors = 1587925
Ave neighs/atom = 396.981
Neighbor list builds = 20
Dangerous builds = 0
