LAMMPS (20 Aug 2011)
package gpu force 0 0 -1  
newton off
units lj
atom_style  ellipsoid

lattice sc 0.02
Lattice spacing in x,y,z = 3.68403 3.68403 3.68403
region  box block 0 10 0 10 0 10
create_box 2 box
Created orthogonal box = (0 0 0) to (36.8403 36.8403 36.8403)
  1 by 1 by 3 processor grid
create_atoms 1 box
Created 1000 atoms
set group all type/fraction 2 0.5 14992
  510 settings made for type/fraction

set type 1 mass 1.0
  490 settings made for mass
set type 2 mass 1.5
  510 settings made for mass
set type 1 shape 0 0 0
  490 settings made for shape
set type 2 shape 1 1 3
  510 settings made for shape
set type 2 quat/random 982381
  510 settings made for quat/random

compute  rot all temp/asphere
group spheroid type 2
510 atoms in group spheroid
variable dof equal count(spheroid)+3
compute_modify rot extra ${dof}
compute_modify rot extra 513

velocity all create 2.4 41787 loop geom

pair_style resquared/gpu 7.0
pair_coeff  1 1 3.0 1.0 0 0 0 0 0 0
pair_coeff  1 2 3.0 1.0 3.0 3.0 3.0 1.0 1.0 0.2
pair_coeff  2 2 1.0 1.0 1.0 1.0 0.2 1.0 1.0 0.2

neighbor 0.8 bin
neigh_modify delay 4 every 4

timestep 0.002
thermo 100

fix  1 all npt/asphere temp 2.4 2.4 0.5 iso 0.0 8.0 0.5
compute_modify 1_temp extra ${dof}
compute_modify 1_temp extra 513
run 400
Memory usage per processor = 4.65891 Mbytes
Step Temp E_pair E_mol TotEng Press Volume 
       0          2.4 -0.0077445757            0    3.5886554  0.047578105        50000 
     100    3.5020562 -0.0027674449            0    5.2450638   0.13938638    30382.624 
     200    5.4559615  0.098035959            0    8.2737942    0.6850725    16769.728 
     300    8.8162608   0.40760666            0    13.618773    2.4516979    10499.954 
     400    12.056963    1.1528772            0    19.220236    5.7012334    7874.0362 
Loop time of 14.5673 on 3 procs for 400 steps with 1000 atoms

Pair  time (%) = 13.9211 (95.564)
Neigh time (%) = 0.125679 (0.862746)
Comm  time (%) = 0.0365805 (0.251114)
Outpt time (%) = 0.000177622 (0.00121932)
Other time (%) = 0.483769 (3.32092)

Nlocal:    333.333 ave 339 max 328 min
Histogram: 1 0 0 0 1 0 0 0 0 1
Nghost:    3218 ave 3248 max 3202 min
Histogram: 2 0 0 0 0 0 0 0 0 1
Neighs:    0 ave 0 max 0 min
Histogram: 3 0 0 0 0 0 0 0 0 0
FullNghs: 83882.7 ave 85831 max 82745 min
Histogram: 1 1 0 0 0 0 0 0 0 1

Total # of neighbors = 251648
Ave neighs/atom = 251.648
Neighbor list builds = 62
Dangerous builds = 33
