LAMMPS (7 Jan 2012)
  using 4 OpenMP thread(s) per MPI task
package gpu force 0 0 1
variable	x index 1
variable	y index 1
variable	z index 1

variable	xx equal 10*$x
variable	xx equal 10*1
variable	yy equal 10*$y
variable	yy equal 10*1
variable	zz equal 10*$z
variable	zz equal 10*1

units		lj
atom_style	atomic
newton      off
lattice		fcc 0.8442
Lattice spacing in x,y,z = 1.6796 1.6796 1.6796
region		box block 0 ${xx} 0 ${yy} 0 ${zz}
region		box block 0 10 0 ${yy} 0 ${zz}
region		box block 0 10 0 10 0 ${zz}
region		box block 0 10 0 10 0 10
create_box	1 box
Created orthogonal box = (0 0 0) to (16.796 16.796 16.796)
  1 by 1 by 3 MPI processor grid
create_atoms	1 box
Created 4000 atoms
mass		1 1.0

velocity	all create 1.44 87287 loop geom

pair_style  table/gpu spline 1000
pair_coeff	1 1 lj126_table.txt LJ_126

neighbor	0.3 bin
neigh_modify	delay 0 every 20 check no

fix		1 all nve

timestep 0.003
thermo   100
run		400
Memory usage per processor = 4.3589 Mbytes
Step Temp E_pair E_mol TotEng Press 
       0         1.44 -2.4391243e-12            0      2.15946    1.2153441 
     100    1.1355449   0.95028726            0    2.6531787    6.4762661 
     200    1.1341318   0.99333481            0    2.6941072    6.7700429 
     300    1.1398415   0.97077039            0    2.6801052     6.636851 
     400    1.1236642    1.0011856            0    2.6862604    6.7749802 
Loop time of 0.654847 on 12 procs (3 MPI x 4 OpenMP) for 400 steps with 4000 atoms

Pair  time (%) = 0.314226 (47.9846)
Neigh time (%) = 0.170375 (26.0176)
Comm  time (%) = 0.153562 (23.45)
Outpt time (%) = 0.00612895 (0.935936)
Other time (%) = 0.0105556 (1.61192)

Nlocal:    1333.33 ave 1338 max 1330 min
Histogram: 1 0 1 0 0 0 0 0 0 1
Nghost:    4348.67 ave 4364 max 4333 min
Histogram: 1 0 0 0 0 1 0 0 0 1
Neighs:    0 ave 0 max 0 min
Histogram: 3 0 0 0 0 0 0 0 0 0
FullNghs: 170265 ave 171332 max 169691 min
Histogram: 2 0 0 0 0 0 0 0 0 1

Total # of neighbors = 510794
Ave neighs/atom = 127.698
Neighbor list builds = 20
Dangerous builds = 0

