LAMMPS (7 Jan 2012)
  using 4 OpenMP thread(s) per MPI task
package gpu force 0 0 1
variable	x index 1
variable	y index 1
variable	z index 1

variable	xx equal 10*$x
variable	xx equal 10*1
variable	yy equal 10*$y
variable	yy equal 10*1
variable	zz equal 10*$z
variable	zz equal 10*1

units		lj
atom_style	atomic
newton      off
lattice		fcc 0.8442
Lattice spacing in x,y,z = 1.6796 1.6796 1.6796
region		box block 0 ${xx} 0 ${yy} 0 ${zz}
region		box block 0 10 0 ${yy} 0 ${zz}
region		box block 0 10 0 10 0 ${zz}
region		box block 0 10 0 10 0 10
create_box	1 box
Created orthogonal box = (0 0 0) to (16.796 16.796 16.796)
  1 by 1 by 3 MPI processor grid
create_atoms	1 box
Created 4000 atoms
mass		1 1.0

velocity	all create 1.44 87287 loop geom

pair_style  table/gpu linear 1000
pair_coeff	1 1 lj126_table.txt LJ_126

neighbor	0.3 bin
neigh_modify	delay 0 every 20 check no

fix		1 all nve

timestep 0.003
thermo   100
run		400
Memory usage per processor = 4.3589 Mbytes
Step Temp E_pair E_mol TotEng Press 
       0         1.44 -1.9191748e-12            0      2.15946    1.2153441 
     100    1.1352125   0.95125183            0    2.6536448     6.482837 
     200    1.1330612     0.996971            0    2.6961379    6.7929725 
     300    1.1267407    1.0010354            0    2.6907239    6.7923984 
     400    1.1339535   0.98844999            0     2.688955    6.7390322 
Loop time of 0.577458 on 12 procs (3 MPI x 4 OpenMP) for 400 steps with 4000 atoms

Pair  time (%) = 0.263125 (45.566)
Neigh time (%) = 0.170115 (29.4593)
Comm  time (%) = 0.131686 (22.8045)
Outpt time (%) = 0.00194685 (0.337141)
Other time (%) = 0.0105854 (1.8331)

Nlocal:    1333.33 ave 1338 max 1326 min
Histogram: 1 0 0 0 0 0 0 0 1 1
Nghost:    4365.33 ave 4379 max 4356 min
Histogram: 1 0 1 0 0 0 0 0 0 1
Neighs:    0 ave 0 max 0 min
Histogram: 3 0 0 0 0 0 0 0 0 0
FullNghs: 170458 ave 170934 max 169625 min
Histogram: 1 0 0 0 0 0 0 0 0 2

Total # of neighbors = 511374
Ave neighs/atom = 127.844
Neighbor list builds = 20
Dangerous builds = 0

