LAMMPS (27 Nov 2018)
  using 1 OpenMP thread(s) per MPI task
# calculate the energy volume curve for InP zincblende

# define volume range and filename

variable	ndelta equal 100
variable	volatom_min equal 20.0
variable	volatom_max equal 29.0
variable	evsvolfile string evsvol.dat

# set up cell

units		metal

boundary	p p p

# setup loop variables for box volume

variable	amin equal ${volatom_min}^(1/3)*2
variable	amin equal 20^(1/3)*2
variable 	delta equal (${volatom_max}-${volatom_min})/${ndelta}
variable 	delta equal (29-${volatom_min})/${ndelta}
variable 	delta equal (29-20)/${ndelta}
variable 	delta equal (29-20)/100
variable	scale equal (${delta}/v_volatom+1)^(1/3)
variable	scale equal (0.09/v_volatom+1)^(1/3)

# set up 8 atom InP zincblende unit cell

lattice diamond ${amin}
lattice diamond 5.42883523318981
Lattice spacing in x,y,z = 5.42884 5.42884 5.42884

region		box prism 	 	0 1 		0 1 		0 1 		0 0 0

create_box	2 box
Created triclinic box = (0 0 0) to (5.42884 5.42884 5.42884) with tilt (0 0 0)
  1 by 2 by 2 MPI processor grid

create_atoms	1	box       			basis 5 2 			basis 6 2 			basis 7 2 			basis 8 2
Created 8 atoms
  Time spent = 0.00030756 secs

mass 		1 114.76
mass 		2 30.98

# choose potential

pair_style	vashishta
pair_coeff 	* * InP.vashishta In P
Reading potential file InP.vashishta with DATE: 2015-10-14

# setup neighbor style

neighbor 	1.0 nsq
neigh_modify 	once no every 1 delay 0 check yes

# setup output

thermo_style 	custom step temp pe press vol
thermo_modify 	norm no
variable 	volatom equal vol/atoms
variable 	eatom equal pe/atoms
print 		"# Volume [A^3/atom] Energy [eV/atom]" file ${evsvolfile}
print 		"# Volume [A^3/atom] Energy [eV/atom]" file evsvol.dat
# Volume [A^3/atom] Energy [eV/atom]

# loop over range of volumes

label 		loop
variable 	i loop ${ndelta}
variable 	i loop 100

change_box 	all x scale ${scale} y scale ${scale} z scale ${scale} remap
change_box 	all x scale 1.00149775560818 y scale ${scale} z scale ${scale} remap
change_box 	all x scale 1.00149775560818 y scale 1.00149775560818 z scale ${scale} remap
change_box 	all x scale 1.00149775560818 y scale 1.00149775560818 z scale 1.00149775560818 remap
  triclinic box = (-0.00406553 0 0) to (5.4329 5.42884 5.42884) with tilt (0 0 0)
  triclinic box = (-0.00406553 -0.00406553 0) to (5.4329 5.4329 5.42884) with tilt (0 0 0)
  triclinic box = (-0.00406553 -0.00406553 -0.00406553) to (5.4329 5.4329 5.4329) with tilt (0 0 0)

# calculate energy
# no energy minimization needed for zincblende

run 		0
WARNING: No fixes defined, atoms won't move (src/verlet.cpp:55)
Neighbor list info ...
  update every 1 steps, delay 0 steps, check yes
  max neighbors/atom: 2000, page size: 100000
  master list distance cutoff = 7
  ghost atom cutoff = 7
  1 neighbor lists, perpetual/occasional/extra = 1 0 0
  (1) pair vashishta, perpetual
      attributes: full, newton on
      pair build: full/nsq
      stencil: none
      bin: none
Per MPI rank memory allocation (min/avg/max) = 2.965 | 2.965 | 2.965 Mbytes
Step Temp PotEng Press Volume 
       0            0   -24.633958     315900.5       160.72 
Loop time of 2.14577e-05 on 4 procs for 0 steps with 8 atoms

81.6% CPU use with 4 MPI tasks x 1 OpenMP threads

MPI task timing breakdown:
Section |  min time  |  avg time  |  max time  |%varavg| %total
---------------------------------------------------------------
Pair    | 0          | 0          | 0          |   0.0 |  0.00
Neigh   | 0          | 0          | 0          |   0.0 |  0.00
Comm    | 0          | 0          | 0          |   0.0 |  0.00
Output  | 0          | 0          | 0          |   0.0 |  0.00
Modify  | 0          | 0          | 0          |   0.0 |  0.00
Other   |            | 2.146e-05  |            |       |100.00

Nlocal:    2 ave 2 max 2 min
Histogram: 4 0 0 0 0 0 0 0 0 0
Nghost:    320 ave 320 max 320 min
Histogram: 4 0 0 0 0 0 0 0 0 0
Neighs:    0 ave 0 max 0 min
Histogram: 4 0 0 0 0 0 0 0 0 0
FullNghs:  140 ave 140 max 140 min
Histogram: 4 0 0 0 0 0 0 0 0 0

Total # of neighbors = 560
Ave neighs/atom = 70
Neighbor list builds = 0
Dangerous builds = 0
print 		"${volatom} ${eatom}" append ${evsvolfile}
print 		"${volatom} ${eatom}" append evsvol.dat
20.09 -3.07924477327226

next 		i
jump 		SELF loop
variable 	i loop ${ndelta}
variable 	i loop 100

change_box 	all x scale ${scale} y scale ${scale} z scale ${scale} remap
change_box 	all x scale 1.00149105588627 y scale ${scale} z scale ${scale} remap
change_box 	all x scale 1.00149105588627 y scale 1.00149105588627 z scale ${scale} remap
change_box 	all x scale 1.00149105588627 y scale 1.00149105588627 z scale 1.00149105588627 remap
  triclinic box = (-0.00811894 -0.00406553 -0.00406553) to (5.43695 5.4329 5.4329) with tilt (0 0 0)
  triclinic box = (-0.00811894 -0.00811894 -0.00406553) to (5.43695 5.43695 5.4329) with tilt (0 0 0)
  triclinic box = (-0.00811894 -0.00811894 -0.00811894) to (5.43695 5.43695 5.43695) with tilt (0 0 0)

# calculate energy
# no energy minimization needed for zincblende

run 		0
WARNING: No fixes defined, atoms won't move (src/verlet.cpp:55)
Per MPI rank memory allocation (min/avg/max) = 2.965 | 2.965 | 2.965 Mbytes
Step Temp PotEng Press Volume 
       0            0   -24.773834    306658.04       161.44 
Loop time of 3.01003e-05 on 4 procs for 0 steps with 8 atoms

65.6% CPU use with 4 MPI tasks x 1 OpenMP threads

MPI task timing breakdown:
Section |  min time  |  avg time  |  max time  |%varavg| %total
---------------------------------------------------------------
Pair    | 0          | 0          | 0          |   0.0 |  0.00
Neigh   | 0          | 0          | 0          |   0.0 |  0.00
Comm    | 0          | 0          | 0          |   0.0 |  0.00
Output  | 0          | 0          | 0          |   0.0 |  0.00
Modify  | 0          | 0          | 0          |   0.0 |  0.00
Other   |            | 3.01e-05   |            |       |100.00

Nlocal:    2 ave 2 max 2 min
Histogram: 4 0 0 0 0 0 0 0 0 0
Nghost:    320 ave 320 max 320 min
Histogram: 4 0 0 0 0 0 0 0 0 0
Neighs:    0 ave 0 max 0 min
Histogram: 4 0 0 0 0 0 0 0 0 0
FullNghs:  140 ave 140 max 140 min
Histogram: 4 0 0 0 0 0 0 0 0 0

Total # of neighbors = 560
Ave neighs/atom = 70
Neighbor list builds = 0
Dangerous builds = 0
print 		"${volatom} ${eatom}" append ${evsvolfile}
print 		"${volatom} ${eatom}" append evsvol.dat
20.1799999999997 -3.09672920462219

next 		i
jump 		SELF loop
variable 	i loop ${ndelta}
variable 	i loop 100

change_box 	all x scale ${scale} y scale ${scale} z scale ${scale} remap
change_box 	all x scale 1.00148441583558 y scale ${scale} z scale ${scale} remap
change_box 	all x scale 1.00148441583558 y scale 1.00148441583558 z scale ${scale} remap
change_box 	all x scale 1.00148441583558 y scale 1.00148441583558 z scale 1.00148441583558 remap
  triclinic box = (-0.0121603 -0.00811894 -0.00811894) to (5.441 5.43695 5.43695) with tilt (0 0 0)
  triclinic box = (-0.0121603 -0.0121603 -0.00811894) to (5.441 5.441 5.43695) with tilt (0 0 0)
  triclinic box = (-0.0121603 -0.0121603 -0.0121603) to (5.441 5.441 5.441) with tilt (0 0 0)

# calculate energy
# no energy minimization needed for zincblende

run 		0
WARNING: No fixes defined, atoms won't move (src/verlet.cpp:55)
Per MPI rank memory allocation (min/avg/max) = 2.965 | 2.965 | 2.965 Mbytes
Step Temp PotEng Press Volume 
       0            0   -24.909615    297676.86       162.16 
Loop time of 2.8193e-05 on 4 procs for 0 steps with 8 atoms

64.7% CPU use with 4 MPI tasks x 1 OpenMP threads

MPI task timing breakdown:
Section |  min time  |  avg time  |  max time  |%varavg| %total
---------------------------------------------------------------
Pair    | 0          | 0          | 0          |   0.0 |  0.00
Neigh   | 0          | 0          | 0          |   0.0 |  0.00
Comm    | 0          | 0          | 0          |   0.0 |  0.00
Output  | 0          | 0          | 0          |   0.0 |  0.00
Modify  | 0          | 0          | 0          |   0.0 |  0.00
Other   |            | 2.819e-05  |            |       |100.00

Nlocal:    2 ave 2 max 2 min
Histogram: 4 0 0 0 0 0 0 0 0 0
Nghost:    320 ave 320 max 320 min
Histogram: 4 0 0 0 0 0 0 0 0 0
Neighs:    0 ave 0 max 0 min
Histogram: 4 0 0 0 0 0 0 0 0 0
FullNghs:  140 ave 140 max 140 min
Histogram: 4 0 0 0 0 0 0 0 0 0

Total # of neighbors = 560
Ave neighs/atom = 70
Neighbor list builds = 0
Dangerous builds = 0
print 		"${volatom} ${eatom}" append ${evsvolfile}
print 		"${volatom} ${eatom}" append evsvol.dat
20.2699999999996 -3.11370182923916

next 		i
jump 		SELF loop
variable 	i loop ${ndelta}
variable 	i loop 100

change_box 	all x scale ${scale} y scale ${scale} z scale ${scale} remap
change_box 	all x scale 1.00147783466245 y scale ${scale} z scale ${scale} remap
change_box 	all x scale 1.00147783466245 y scale 1.00147783466245 z scale ${scale} remap
change_box 	all x scale 1.00147783466245 y scale 1.00147783466245 z scale 1.00147783466245 remap
  triclinic box = (-0.0161898 -0.0121603 -0.0121603) to (5.44502 5.441 5.441) with tilt (0 0 0)
  triclinic box = (-0.0161898 -0.0161898 -0.0121603) to (5.44502 5.44502 5.441) with tilt (0 0 0)
  triclinic box = (-0.0161898 -0.0161898 -0.0161898) to (5.44502 5.44502 5.44502) with tilt (0 0 0)

# calculate energy
# no energy minimization needed for zincblende

run 		0
WARNING: No fixes defined, atoms won't move (src/verlet.cpp:55)
Per MPI rank memory allocation (min/avg/max) = 2.965 | 2.965 | 2.965 Mbytes
Step Temp PotEng Press Volume 
       0            0   -25.041417    288949.17       162.88 
Loop time of 1.54972e-06 on 4 procs for 0 steps with 8 atoms

129.1% CPU use with 4 MPI tasks x 1 OpenMP threads

MPI task timing breakdown:
Section |  min time  |  avg time  |  max time  |%varavg| %total
---------------------------------------------------------------
Pair    | 0          | 0          | 0          |   0.0 |  0.00
Neigh   | 0          | 0          | 0          |   0.0 |  0.00
Comm    | 0          | 0          | 0          |   0.0 |  0.00
Output  | 0          | 0          | 0          |   0.0 |  0.00
Modify  | 0          | 0          | 0          |   0.0 |  0.00
Other   |            | 1.55e-06   |            |       |100.00

Nlocal:    2 ave 2 max 2 min
Histogram: 4 0 0 0 0 0 0 0 0 0
Nghost:    320 ave 320 max 320 min
Histogram: 4 0 0 0 0 0 0 0 0 0
Neighs:    0 ave 0 max 0 min
Histogram: 4 0 0 0 0 0 0 0 0 0
FullNghs:  140 ave 140 max 140 min
Histogram: 4 0 0 0 0 0 0 0 0 0

Total # of neighbors = 560
Ave neighs/atom = 70
Neighbor list builds = 0
Dangerous builds = 0
print 		"${volatom} ${eatom}" append ${evsvolfile}
print 		"${volatom} ${eatom}" append evsvol.dat
20.3599999999999 -3.13017710427322

next 		i
jump 		SELF loop
variable 	i loop ${ndelta}
variable 	i loop 100

change_box 	all x scale ${scale} y scale ${scale} z scale ${scale} remap
change_box 	all x scale 1.00147131158722 y scale ${scale} z scale ${scale} remap
change_box 	all x scale 1.00147131158722 y scale 1.00147131158722 z scale ${scale} remap
change_box 	all x scale 1.00147131158722 y scale 1.00147131158722 z scale 1.00147131158722 remap
  triclinic box = (-0.0202073 -0.0161898 -0.0161898) to (5.44904 5.44502 5.44502) with tilt (0 0 0)
  triclinic box = (-0.0202073 -0.0202073 -0.0161898) to (5.44904 5.44904 5.44502) with tilt (0 0 0)
  triclinic box = (-0.0202073 -0.0202073 -0.0202073) to (5.44904 5.44904 5.44904) with tilt (0 0 0)

# calculate energy
# no energy minimization needed for zincblende

run 		0
WARNING: No fixes defined, atoms won't move (src/verlet.cpp:55)
Per MPI rank memory allocation (min/avg/max) = 2.965 | 2.965 | 2.965 Mbytes
Step Temp PotEng Press Volume 
       0            0   -25.169352    280467.46        163.6 
Loop time of 1.84774e-06 on 4 procs for 0 steps with 8 atoms

94.7% CPU use with 4 MPI tasks x 1 OpenMP threads

MPI task timing breakdown:
Section |  min time  |  avg time  |  max time  |%varavg| %total
---------------------------------------------------------------
Pair    | 0          | 0          | 0          |   0.0 |  0.00
Neigh   | 0          | 0          | 0          |   0.0 |  0.00
Comm    | 0          | 0          | 0          |   0.0 |  0.00
Output  | 0          | 0          | 0          |   0.0 |  0.00
Modify  | 0          | 0          | 0          |   0.0 |  0.00
Other   |            | 1.848e-06  |            |       |100.00

Nlocal:    2 ave 5 max 1 min
Histogram: 3 0 0 0 0 0 0 0 0 1
Nghost:    320 ave 321 max 317 min
Histogram: 1 0 0 0 0 0 0 0 0 3
Neighs:    0 ave 0 max 0 min
Histogram: 4 0 0 0 0 0 0 0 0 0
FullNghs:  140 ave 350 max 70 min
Histogram: 3 0 0 0 0 0 0 0 0 1

Total # of neighbors = 560
Ave neighs/atom = 70
Neighbor list builds = 0
Dangerous builds = 0
print 		"${volatom} ${eatom}" append ${evsvolfile}
print 		"${volatom} ${eatom}" append evsvol.dat
20.4500000000002 -3.14616905711538

next 		i
jump 		SELF loop
variable 	i loop ${ndelta}
variable 	i loop 100

change_box 	all x scale ${scale} y scale ${scale} z scale ${scale} remap
change_box 	all x scale 1.00146484584395 y scale ${scale} z scale ${scale} remap
change_box 	all x scale 1.00146484584395 y scale 1.00146484584395 z scale ${scale} remap
change_box 	all x scale 1.00146484584395 y scale 1.00146484584395 z scale 1.00146484584395 remap
  triclinic box = (-0.0242131 -0.0202073 -0.0202073) to (5.45305 5.44904 5.44904) with tilt (0 0 0)
  triclinic box = (-0.0242131 -0.0242131 -0.0202073) to (5.45305 5.45305 5.44904) with tilt (0 0 0)
  triclinic box = (-0.0242131 -0.0242131 -0.0242131) to (5.45305 5.45305 5.45305) with tilt (0 0 0)

# calculate energy
# no energy minimization needed for zincblende

run 		0
WARNING: No fixes defined, atoms won't move (src/verlet.cpp:55)
Per MPI rank memory allocation (min/avg/max) = 2.965 | 2.965 | 2.965 Mbytes
Step Temp PotEng Press Volume 
       0            0    -25.29353    272224.44       164.32 
Loop time of 1.60933e-06 on 4 procs for 0 steps with 8 atoms

108.7% CPU use with 4 MPI tasks x 1 OpenMP threads

MPI task timing breakdown:
Section |  min time  |  avg time  |  max time  |%varavg| %total
---------------------------------------------------------------
Pair    | 0          | 0          | 0          |   0.0 |  0.00
Neigh   | 0          | 0          | 0          |   0.0 |  0.00
Comm    | 0          | 0          | 0          |   0.0 |  0.00
Output  | 0          | 0          | 0          |   0.0 |  0.00
Modify  | 0          | 0          | 0          |   0.0 |  0.00
Other   |            | 1.609e-06  |            |       |100.00

Nlocal:    2 ave 5 max 1 min
Histogram: 3 0 0 0 0 0 0 0 0 1
Nghost:    320 ave 321 max 317 min
Histogram: 1 0 0 0 0 0 0 0 0 3
Neighs:    0 ave 0 max 0 min
Histogram: 4 0 0 0 0 0 0 0 0 0
FullNghs:  140 ave 350 max 70 min
Histogram: 3 0 0 0 0 0 0 0 0 1

Total # of neighbors = 560
Ave neighs/atom = 70
Neighbor list builds = 0
Dangerous builds = 0
print 		"${volatom} ${eatom}" append ${evsvolfile}
print 		"${volatom} ${eatom}" append evsvol.dat
20.5400000000003 -3.16169129950254

next 		i
jump 		SELF loop
variable 	i loop ${ndelta}
variable 	i loop 100

change_box 	all x scale ${scale} y scale ${scale} z scale ${scale} remap
change_box 	all x scale 1.0014584366801 y scale ${scale} z scale ${scale} remap
change_box 	all x scale 1.0014584366801 y scale 1.0014584366801 z scale ${scale} remap
change_box 	all x scale 1.0014584366801 y scale 1.0014584366801 z scale 1.0014584366801 remap
  triclinic box = (-0.0282073 -0.0242131 -0.0242131) to (5.45704 5.45305 5.45305) with tilt (0 0 0)
  triclinic box = (-0.0282073 -0.0282073 -0.0242131) to (5.45704 5.45704 5.45305) with tilt (0 0 0)
  triclinic box = (-0.0282073 -0.0282073 -0.0282073) to (5.45704 5.45704 5.45704) with tilt (0 0 0)

# calculate energy
# no energy minimization needed for zincblende

run 		0
WARNING: No fixes defined, atoms won't move (src/verlet.cpp:55)
Per MPI rank memory allocation (min/avg/max) = 2.965 | 2.965 | 2.965 Mbytes
Step Temp PotEng Press Volume 
       0            0   -25.414056    264213.09       165.04 
Loop time of 1.37091e-06 on 4 procs for 0 steps with 8 atoms

127.7% CPU use with 4 MPI tasks x 1 OpenMP threads

MPI task timing breakdown:
Section |  min time  |  avg time  |  max time  |%varavg| %total
---------------------------------------------------------------
Pair    | 0          | 0          | 0          |   0.0 |  0.00
Neigh   | 0          | 0          | 0          |   0.0 |  0.00
Comm    | 0          | 0          | 0          |   0.0 |  0.00
Output  | 0          | 0          | 0          |   0.0 |  0.00
Modify  | 0          | 0          | 0          |   0.0 |  0.00
Other   |            | 1.371e-06  |            |       |100.00

Nlocal:    2 ave 5 max 1 min
Histogram: 3 0 0 0 0 0 0 0 0 1
Nghost:    320 ave 321 max 317 min
Histogram: 1 0 0 0 0 0 0 0 0 3
Neighs:    0 ave 0 max 0 min
Histogram: 4 0 0 0 0 0 0 0 0 0
FullNghs:  140 ave 350 max 70 min
Histogram: 3 0 0 0 0 0 0 0 0 1

Total # of neighbors = 560
Ave neighs/atom = 70
Neighbor list builds = 0
Dangerous builds = 0
print 		"${volatom} ${eatom}" append ${evsvolfile}
print 		"${volatom} ${eatom}" append evsvol.dat
20.6300000000001 -3.17675704110845

next 		i
jump 		SELF loop
variable 	i loop ${ndelta}
variable 	i loop 100

change_box 	all x scale ${scale} y scale ${scale} z scale ${scale} remap
change_box 	all x scale 1.00145208335626 y scale ${scale} z scale ${scale} remap
change_box 	all x scale 1.00145208335626 y scale 1.00145208335626 z scale ${scale} remap
change_box 	all x scale 1.00145208335626 y scale 1.00145208335626 z scale 1.00145208335626 remap
  triclinic box = (-0.0321898 -0.0282073 -0.0282073) to (5.46103 5.45704 5.45704) with tilt (0 0 0)
  triclinic box = (-0.0321898 -0.0321898 -0.0282073) to (5.46103 5.46103 5.45704) with tilt (0 0 0)
  triclinic box = (-0.0321898 -0.0321898 -0.0321898) to (5.46103 5.46103 5.46103) with tilt (0 0 0)

# calculate energy
# no energy minimization needed for zincblende

run 		0
WARNING: No fixes defined, atoms won't move (src/verlet.cpp:55)
Per MPI rank memory allocation (min/avg/max) = 2.965 | 2.965 | 2.965 Mbytes
Step Temp PotEng Press Volume 
       0            0   -25.531033    256426.58       165.76 
Loop time of 1.66893e-06 on 4 procs for 0 steps with 8 atoms

104.9% CPU use with 4 MPI tasks x 1 OpenMP threads

MPI task timing breakdown:
Section |  min time  |  avg time  |  max time  |%varavg| %total
---------------------------------------------------------------
Pair    | 0          | 0          | 0          |   0.0 |  0.00
Neigh   | 0          | 0          | 0          |   0.0 |  0.00
Comm    | 0          | 0          | 0          |   0.0 |  0.00
Output  | 0          | 0          | 0          |   0.0 |  0.00
Modify  | 0          | 0          | 0          |   0.0 |  0.00
Other   |            | 1.669e-06  |            |       |100.00

Nlocal:    2 ave 5 max 1 min
Histogram: 3 0 0 0 0 0 0 0 0 1
Nghost:    320 ave 321 max 317 min
Histogram: 1 0 0 0 0 0 0 0 0 3
Neighs:    0 ave 0 max 0 min
Histogram: 4 0 0 0 0 0 0 0 0 0
FullNghs:  140 ave 350 max 70 min
Histogram: 3 0 0 0 0 0 0 0 0 1

Total # of neighbors = 560
Ave neighs/atom = 70
Neighbor list builds = 0
Dangerous builds = 0
print 		"${volatom} ${eatom}" append ${evsvolfile}
print 		"${volatom} ${eatom}" append evsvol.dat
20.7200000000001 -3.19137910264163

next 		i
jump 		SELF loop
variable 	i loop ${ndelta}
variable 	i loop 100

change_box 	all x scale ${scale} y scale ${scale} z scale ${scale} remap
change_box 	all x scale 1.00144578514582 y scale ${scale} z scale ${scale} remap
change_box 	all x scale 1.00144578514582 y scale 1.00144578514582 z scale ${scale} remap
change_box 	all x scale 1.00144578514582 y scale 1.00144578514582 z scale 1.00144578514582 remap
  triclinic box = (-0.0361608 -0.0321898 -0.0321898) to (5.465 5.46103 5.46103) with tilt (0 0 0)
  triclinic box = (-0.0361608 -0.0361608 -0.0321898) to (5.465 5.465 5.46103) with tilt (0 0 0)
  triclinic box = (-0.0361608 -0.0361608 -0.0361608) to (5.465 5.465 5.465) with tilt (0 0 0)

# calculate energy
# no energy minimization needed for zincblende

run 		0
WARNING: No fixes defined, atoms won't move (src/verlet.cpp:55)
Per MPI rank memory allocation (min/avg/max) = 2.965 | 2.965 | 2.965 Mbytes
Step Temp PotEng Press Volume 
       0            0   -25.644559    248858.32       166.48 
Loop time of 1.72853e-06 on 4 procs for 0 steps with 8 atoms

101.2% CPU use with 4 MPI tasks x 1 OpenMP threads

MPI task timing breakdown:
Section |  min time  |  avg time  |  max time  |%varavg| %total
---------------------------------------------------------------
Pair    | 0          | 0          | 0          |   0.0 |  0.00
Neigh   | 0          | 0          | 0          |   0.0 |  0.00
Comm    | 0          | 0          | 0          |   0.0 |  0.00
Output  | 0          | 0          | 0          |   0.0 |  0.00
Modify  | 0          | 0          | 0          |   0.0 |  0.00
Other   |            | 1.729e-06  |            |       |100.00

Nlocal:    2 ave 5 max 1 min
Histogram: 3 0 0 0 0 0 0 0 0 1
Nghost:    320 ave 321 max 317 min
Histogram: 1 0 0 0 0 0 0 0 0 3
Neighs:    0 ave 0 max 0 min
Histogram: 4 0 0 0 0 0 0 0 0 0
FullNghs:  140 ave 350 max 70 min
Histogram: 3 0 0 0 0 0 0 0 0 1

Total # of neighbors = 560
Ave neighs/atom = 70
Neighbor list builds = 0
Dangerous builds = 0
print 		"${volatom} ${eatom}" append ${evsvolfile}
print 		"${volatom} ${eatom}" append evsvol.dat
20.8100000000003 -3.20556992846954

next 		i
jump 		SELF loop
variable 	i loop ${ndelta}
variable 	i loop 100

change_box 	all x scale ${scale} y scale ${scale} z scale ${scale} remap
change_box 	all x scale 1.00143954133473 y scale ${scale} z scale ${scale} remap
change_box 	all x scale 1.00143954133473 y scale 1.00143954133473 z scale ${scale} remap
change_box 	all x scale 1.00143954133473 y scale 1.00143954133473 z scale 1.00143954133473 remap
  triclinic box = (-0.0401203 -0.0361608 -0.0361608) to (5.46896 5.465 5.465) with tilt (0 0 0)
  triclinic box = (-0.0401203 -0.0401203 -0.0361608) to (5.46896 5.46896 5.465) with tilt (0 0 0)
  triclinic box = (-0.0401203 -0.0401203 -0.0401203) to (5.46896 5.46896 5.46896) with tilt (0 0 0)

# calculate energy
# no energy minimization needed for zincblende

run 		0
WARNING: No fixes defined, atoms won't move (src/verlet.cpp:55)
Per MPI rank memory allocation (min/avg/max) = 2.965 | 2.965 | 2.965 Mbytes
Step Temp PotEng Press Volume 
       0            0   -25.754685    240961.62        167.2 
Loop time of 1.78814e-06 on 4 procs for 0 steps with 8 atoms

139.8% CPU use with 4 MPI tasks x 1 OpenMP threads

MPI task timing breakdown:
Section |  min time  |  avg time  |  max time  |%varavg| %total
---------------------------------------------------------------
Pair    | 0          | 0          | 0          |   0.0 |  0.00
Neigh   | 0          | 0          | 0          |   0.0 |  0.00
Comm    | 0          | 0          | 0          |   0.0 |  0.00
Output  | 0          | 0          | 0          |   0.0 |  0.00
Modify  | 0          | 0          | 0          |   0.0 |  0.00
Other   |            | 1.788e-06  |            |       |100.00

Nlocal:    2 ave 5 max 1 min
Histogram: 3 0 0 0 0 0 0 0 0 1
Nghost:    320 ave 321 max 317 min
Histogram: 1 0 0 0 0 0 0 0 0 3
Neighs:    0 ave 0 max 0 min
Histogram: 4 0 0 0 0 0 0 0 0 0
FullNghs:  140 ave 350 max 70 min
Histogram: 3 0 0 0 0 0 0 0 0 1

Total # of neighbors = 560
Ave neighs/atom = 70
Neighbor list builds = 0
Dangerous builds = 0
print 		"${volatom} ${eatom}" append ${evsvolfile}
print 		"${volatom} ${eatom}" append evsvol.dat
20.9000000000003 -3.21933565066766

next 		i
jump 		SELF loop
variable 	i loop ${ndelta}
variable 	i loop 100

change_box 	all x scale ${scale} y scale ${scale} z scale ${scale} remap
change_box 	all x scale 1.00143335122124 y scale ${scale} z scale ${scale} remap
change_box 	all x scale 1.00143335122124 y scale 1.00143335122124 z scale ${scale} remap
change_box 	all x scale 1.00143335122124 y scale 1.00143335122124 z scale 1.00143335122124 remap
  triclinic box = (-0.0440686 -0.0401203 -0.0401203) to (5.4729 5.46896 5.46896) with tilt (0 0 0)
  triclinic box = (-0.0440686 -0.0440686 -0.0401203) to (5.4729 5.4729 5.46896) with tilt (0 0 0)
  triclinic box = (-0.0440686 -0.0440686 -0.0440686) to (5.4729 5.4729 5.4729) with tilt (0 0 0)

# calculate energy
# no energy minimization needed for zincblende

run 		0
WARNING: No fixes defined, atoms won't move (src/verlet.cpp:55)
Per MPI rank memory allocation (min/avg/max) = 2.965 | 2.965 | 2.965 Mbytes
Step Temp PotEng Press Volume 
       0            0   -25.861049     232444.2       167.92 
Loop time of 1.84774e-06 on 4 procs for 0 steps with 8 atoms

121.8% CPU use with 4 MPI tasks x 1 OpenMP threads

MPI task timing breakdown:
Section |  min time  |  avg time  |  max time  |%varavg| %total
---------------------------------------------------------------
Pair    | 0          | 0          | 0          |   0.0 |  0.00
Neigh   | 0          | 0          | 0          |   0.0 |  0.00
Comm    | 0          | 0          | 0          |   0.0 |  0.00
Output  | 0          | 0          | 0          |   0.0 |  0.00
Modify  | 0          | 0          | 0          |   0.0 |  0.00
Other   |            | 1.848e-06  |            |       |100.00

Nlocal:    2 ave 5 max 1 min
Histogram: 3 0 0 0 0 0 0 0 0 1
Nghost:    320 ave 321 max 317 min
Histogram: 1 0 0 0 0 0 0 0 0 3
Neighs:    0 ave 0 max 0 min
Histogram: 4 0 0 0 0 0 0 0 0 0
FullNghs:  140 ave 350 max 70 min
Histogram: 3 0 0 0 0 0 0 0 0 1

Total # of neighbors = 560
Ave neighs/atom = 70
Neighbor list builds = 0
Dangerous builds = 0
print 		"${volatom} ${eatom}" append ${evsvolfile}
print 		"${volatom} ${eatom}" append evsvol.dat
20.9900000000005 -3.23263106528896

next 		i
jump 		SELF loop
variable 	i loop ${ndelta}
variable 	i loop 100

change_box 	all x scale ${scale} y scale ${scale} z scale ${scale} remap
change_box 	all x scale 1.00142721411559 y scale ${scale} z scale ${scale} remap
change_box 	all x scale 1.00142721411559 y scale 1.00142721411559 z scale ${scale} remap
change_box 	all x scale 1.00142721411559 y scale 1.00142721411559 z scale 1.00142721411559 remap
  triclinic box = (-0.0480055 -0.0440686 -0.0440686) to (5.47684 5.4729 5.4729) with tilt (0 0 0)
  triclinic box = (-0.0480055 -0.0480055 -0.0440686) to (5.47684 5.47684 5.4729) with tilt (0 0 0)
  triclinic box = (-0.0480055 -0.0480055 -0.0480055) to (5.47684 5.47684 5.47684) with tilt (0 0 0)

# calculate energy
# no energy minimization needed for zincblende

run 		0
WARNING: No fixes defined, atoms won't move (src/verlet.cpp:55)
Per MPI rank memory allocation (min/avg/max) = 2.965 | 2.965 | 2.965 Mbytes
Step Temp PotEng Press Volume 
       0            0   -25.963633    224145.09       168.64 
Loop time of 1.49012e-06 on 4 procs for 0 steps with 8 atoms

134.2% CPU use with 4 MPI tasks x 1 OpenMP threads

MPI task timing breakdown:
Section |  min time  |  avg time  |  max time  |%varavg| %total
---------------------------------------------------------------
Pair    | 0          | 0          | 0          |   0.0 |  0.00
Neigh   | 0          | 0          | 0          |   0.0 |  0.00
Comm    | 0          | 0          | 0          |   0.0 |  0.00
Output  | 0          | 0          | 0          |   0.0 |  0.00
Modify  | 0          | 0          | 0          |   0.0 |  0.00
Other   |            | 1.49e-06   |            |       |100.00

Nlocal:    2 ave 5 max 1 min
Histogram: 3 0 0 0 0 0 0 0 0 1
Nghost:    320 ave 321 max 317 min
Histogram: 1 0 0 0 0 0 0 0 0 3
Neighs:    0 ave 0 max 0 min
Histogram: 4 0 0 0 0 0 0 0 0 0
FullNghs:  140 ave 350 max 70 min
Histogram: 3 0 0 0 0 0 0 0 0 1

Total # of neighbors = 560
Ave neighs/atom = 70
Neighbor list builds = 0
Dangerous builds = 0
print 		"${volatom} ${eatom}" append ${evsvolfile}
print 		"${volatom} ${eatom}" append evsvol.dat
21.0800000000004 -3.24545418655741

next 		i
jump 		SELF loop
variable 	i loop ${ndelta}
variable 	i loop 100

change_box 	all x scale ${scale} y scale ${scale} z scale ${scale} remap
change_box 	all x scale 1.00142112933981 y scale ${scale} z scale ${scale} remap
change_box 	all x scale 1.00142112933981 y scale 1.00142112933981 z scale ${scale} remap
change_box 	all x scale 1.00142112933981 y scale 1.00142112933981 z scale 1.00142112933981 remap
  triclinic box = (-0.0519313 -0.0480055 -0.0480055) to (5.48077 5.47684 5.47684) with tilt (0 0 0)
  triclinic box = (-0.0519313 -0.0519313 -0.0480055) to (5.48077 5.48077 5.47684) with tilt (0 0 0)
  triclinic box = (-0.0519313 -0.0519313 -0.0519313) to (5.48077 5.48077 5.48077) with tilt (0 0 0)

# calculate energy
# no energy minimization needed for zincblende

run 		0
WARNING: No fixes defined, atoms won't move (src/verlet.cpp:55)
Per MPI rank memory allocation (min/avg/max) = 2.965 | 2.965 | 2.965 Mbytes
Step Temp PotEng Press Volume 
       0            0   -26.062537    216058.21       169.36 
Loop time of 1.90735e-06 on 4 procs for 0 steps with 8 atoms

91.8% CPU use with 4 MPI tasks x 1 OpenMP threads

MPI task timing breakdown:
Section |  min time  |  avg time  |  max time  |%varavg| %total
---------------------------------------------------------------
Pair    | 0          | 0          | 0          |   0.0 |  0.00
Neigh   | 0          | 0          | 0          |   0.0 |  0.00
Comm    | 0          | 0          | 0          |   0.0 |  0.00
Output  | 0          | 0          | 0          |   0.0 |  0.00
Modify  | 0          | 0          | 0          |   0.0 |  0.00
Other   |            | 1.907e-06  |            |       |100.00

Nlocal:    2 ave 5 max 1 min
Histogram: 3 0 0 0 0 0 0 0 0 1
Nghost:    320 ave 321 max 317 min
Histogram: 1 0 0 0 0 0 0 0 0 3
Neighs:    0 ave 0 max 0 min
Histogram: 4 0 0 0 0 0 0 0 0 0
FullNghs:  140 ave 350 max 70 min
Histogram: 3 0 0 0 0 0 0 0 0 1

Total # of neighbors = 560
Ave neighs/atom = 70
Neighbor list builds = 0
Dangerous builds = 0
print 		"${volatom} ${eatom}" append ${evsvolfile}
print 		"${volatom} ${eatom}" append evsvol.dat
21.1700000000001 -3.2578171061398

next 		i
jump 		SELF loop
variable 	i loop ${ndelta}
variable 	i loop 100

change_box 	all x scale ${scale} y scale ${scale} z scale ${scale} remap
change_box 	all x scale 1.00141509622744 y scale ${scale} z scale ${scale} remap
change_box 	all x scale 1.00141509622744 y scale 1.00141509622744 z scale ${scale} remap
change_box 	all x scale 1.00141509622744 y scale 1.00141509622744 z scale 1.00141509622744 remap
  triclinic box = (-0.0558459 -0.0519313 -0.0519313) to (5.48468 5.48077 5.48077) with tilt (0 0 0)
  triclinic box = (-0.0558459 -0.0558459 -0.0519313) to (5.48468 5.48468 5.48077) with tilt (0 0 0)
  triclinic box = (-0.0558459 -0.0558459 -0.0558459) to (5.48468 5.48468 5.48468) with tilt (0 0 0)

# calculate energy
# no energy minimization needed for zincblende

run 		0
WARNING: No fixes defined, atoms won't move (src/verlet.cpp:55)
Per MPI rank memory allocation (min/avg/max) = 2.965 | 2.965 | 2.965 Mbytes
Step Temp PotEng Press Volume 
       0            0   -26.157853    208177.66       170.08 
Loop time of 1.60933e-06 on 4 procs for 0 steps with 8 atoms

124.3% CPU use with 4 MPI tasks x 1 OpenMP threads

MPI task timing breakdown:
Section |  min time  |  avg time  |  max time  |%varavg| %total
---------------------------------------------------------------
Pair    | 0          | 0          | 0          |   0.0 |  0.00
Neigh   | 0          | 0          | 0          |   0.0 |  0.00
Comm    | 0          | 0          | 0          |   0.0 |  0.00
Output  | 0          | 0          | 0          |   0.0 |  0.00
Modify  | 0          | 0          | 0          |   0.0 |  0.00
Other   |            | 1.609e-06  |            |       |100.00

Nlocal:    2 ave 5 max 1 min
Histogram: 3 0 0 0 0 0 0 0 0 1
Nghost:    320 ave 321 max 317 min
Histogram: 1 0 0 0 0 0 0 0 0 3
Neighs:    0 ave 0 max 0 min
Histogram: 4 0 0 0 0 0 0 0 0 0
FullNghs:  140 ave 350 max 70 min
Histogram: 3 0 0 0 0 0 0 0 0 1

Total # of neighbors = 560
Ave neighs/atom = 70
Neighbor list builds = 0
Dangerous builds = 0
print 		"${volatom} ${eatom}" append ${evsvolfile}
print 		"${volatom} ${eatom}" append evsvol.dat
21.2600000000005 -3.26973157905241

next 		i
jump 		SELF loop
variable 	i loop ${ndelta}
variable 	i loop 100

change_box 	all x scale ${scale} y scale ${scale} z scale ${scale} remap
change_box 	all x scale 1.00140911412325 y scale ${scale} z scale ${scale} remap
change_box 	all x scale 1.00140911412325 y scale 1.00140911412325 z scale ${scale} remap
change_box 	all x scale 1.00140911412325 y scale 1.00140911412325 z scale 1.00140911412325 remap
  triclinic box = (-0.0597495 -0.0558459 -0.0558459) to (5.48858 5.48468 5.48468) with tilt (0 0 0)
  triclinic box = (-0.0597495 -0.0597495 -0.0558459) to (5.48858 5.48858 5.48468) with tilt (0 0 0)
  triclinic box = (-0.0597495 -0.0597495 -0.0597495) to (5.48858 5.48858 5.48858) with tilt (0 0 0)

# calculate energy
# no energy minimization needed for zincblende

run 		0
WARNING: No fixes defined, atoms won't move (src/verlet.cpp:55)
Per MPI rank memory allocation (min/avg/max) = 2.965 | 2.965 | 2.965 Mbytes
Step Temp PotEng Press Volume 
       0            0   -26.249672    200497.73        170.8 
Loop time of 1.84774e-06 on 4 procs for 0 steps with 8 atoms

121.8% CPU use with 4 MPI tasks x 1 OpenMP threads

MPI task timing breakdown:
Section |  min time  |  avg time  |  max time  |%varavg| %total
---------------------------------------------------------------
Pair    | 0          | 0          | 0          |   0.0 |  0.00
Neigh   | 0          | 0          | 0          |   0.0 |  0.00
Comm    | 0          | 0          | 0          |   0.0 |  0.00
Output  | 0          | 0          | 0          |   0.0 |  0.00
Modify  | 0          | 0          | 0          |   0.0 |  0.00
Other   |            | 1.848e-06  |            |       |100.00

Nlocal:    2 ave 5 max 1 min
Histogram: 3 0 0 0 0 0 0 0 0 1
Nghost:    320 ave 321 max 317 min
Histogram: 1 0 0 0 0 0 0 0 0 3
Neighs:    0 ave 0 max 0 min
Histogram: 4 0 0 0 0 0 0 0 0 0
FullNghs:  140 ave 350 max 70 min
Histogram: 3 0 0 0 0 0 0 0 0 1

Total # of neighbors = 560
Ave neighs/atom = 70
Neighbor list builds = 0
Dangerous builds = 0
print 		"${volatom} ${eatom}" append ${evsvolfile}
print 		"${volatom} ${eatom}" append evsvol.dat
21.3500000000002 -3.28120903415515

next 		i
jump 		SELF loop
variable 	i loop ${ndelta}
variable 	i loop 100

change_box 	all x scale ${scale} y scale ${scale} z scale ${scale} remap
change_box 	all x scale 1.00140318238311 y scale ${scale} z scale ${scale} remap
change_box 	all x scale 1.00140318238311 y scale 1.00140318238311 z scale ${scale} remap
change_box 	all x scale 1.00140318238311 y scale 1.00140318238311 z scale 1.00140318238311 remap
  triclinic box = (-0.0636422 -0.0597495 -0.0597495) to (5.49248 5.48858 5.48858) with tilt (0 0 0)
  triclinic box = (-0.0636422 -0.0636422 -0.0597495) to (5.49248 5.49248 5.48858) with tilt (0 0 0)
  triclinic box = (-0.0636422 -0.0636422 -0.0636422) to (5.49248 5.49248 5.49248) with tilt (0 0 0)

# calculate energy
# no energy minimization needed for zincblende

run 		0
WARNING: No fixes defined, atoms won't move (src/verlet.cpp:55)
Per MPI rank memory allocation (min/avg/max) = 2.965 | 2.965 | 2.965 Mbytes
Step Temp PotEng Press Volume 
       0            0   -26.338085    193012.87       171.52 
Loop time of 1.84774e-06 on 4 procs for 0 steps with 8 atoms

121.8% CPU use with 4 MPI tasks x 1 OpenMP threads

MPI task timing breakdown:
Section |  min time  |  avg time  |  max time  |%varavg| %total
---------------------------------------------------------------
Pair    | 0          | 0          | 0          |   0.0 |  0.00
Neigh   | 0          | 0          | 0          |   0.0 |  0.00
Comm    | 0          | 0          | 0          |   0.0 |  0.00
Output  | 0          | 0          | 0          |   0.0 |  0.00
Modify  | 0          | 0          | 0          |   0.0 |  0.00
Other   |            | 1.848e-06  |            |       |100.00

Nlocal:    2 ave 5 max 1 min
Histogram: 3 0 0 0 0 0 0 0 0 1
Nghost:    320 ave 321 max 317 min
Histogram: 1 0 0 0 0 0 0 0 0 3
Neighs:    0 ave 0 max 0 min
Histogram: 4 0 0 0 0 0 0 0 0 0
FullNghs:  140 ave 350 max 70 min
Histogram: 3 0 0 0 0 0 0 0 0 1

Total # of neighbors = 560
Ave neighs/atom = 70
Neighbor list builds = 0
Dangerous builds = 0
print 		"${volatom} ${eatom}" append ${evsvolfile}
print 		"${volatom} ${eatom}" append evsvol.dat
21.4400000000004 -3.29226058428118

next 		i
jump 		SELF loop
variable 	i loop ${ndelta}
variable 	i loop 100

change_box 	all x scale ${scale} y scale ${scale} z scale ${scale} remap
change_box 	all x scale 1.00139730037362 y scale ${scale} z scale ${scale} remap
change_box 	all x scale 1.00139730037362 y scale 1.00139730037362 z scale ${scale} remap
change_box 	all x scale 1.00139730037362 y scale 1.00139730037362 z scale 1.00139730037362 remap
  triclinic box = (-0.067524 -0.0636422 -0.0636422) to (5.49636 5.49248 5.49248) with tilt (0 0 0)
  triclinic box = (-0.067524 -0.067524 -0.0636422) to (5.49636 5.49636 5.49248) with tilt (0 0 0)
  triclinic box = (-0.067524 -0.067524 -0.067524) to (5.49636 5.49636 5.49636) with tilt (0 0 0)

# calculate energy
# no energy minimization needed for zincblende

run 		0
WARNING: No fixes defined, atoms won't move (src/verlet.cpp:55)
Per MPI rank memory allocation (min/avg/max) = 2.965 | 2.965 | 2.965 Mbytes
Step Temp PotEng Press Volume 
       0            0   -26.423176    185717.71       172.24 
Loop time of 1.3113e-06 on 4 procs for 0 steps with 8 atoms

114.4% CPU use with 4 MPI tasks x 1 OpenMP threads

MPI task timing breakdown:
Section |  min time  |  avg time  |  max time  |%varavg| %total
---------------------------------------------------------------
Pair    | 0          | 0          | 0          |   0.0 |  0.00
Neigh   | 0          | 0          | 0          |   0.0 |  0.00
Comm    | 0          | 0          | 0          |   0.0 |  0.00
Output  | 0          | 0          | 0          |   0.0 |  0.00
Modify  | 0          | 0          | 0          |   0.0 |  0.00
Other   |            | 1.311e-06  |            |       |100.00

Nlocal:    2 ave 5 max 1 min
Histogram: 3 0 0 0 0 0 0 0 0 1
Nghost:    320 ave 321 max 317 min
Histogram: 1 0 0 0 0 0 0 0 0 3
Neighs:    0 ave 0 max 0 min
Histogram: 4 0 0 0 0 0 0 0 0 0
FullNghs:  140 ave 350 max 70 min
Histogram: 3 0 0 0 0 0 0 0 0 1

Total # of neighbors = 560
Ave neighs/atom = 70
Neighbor list builds = 0
Dangerous builds = 0
print 		"${volatom} ${eatom}" append ${evsvolfile}
print 		"${volatom} ${eatom}" append evsvol.dat
21.5300000000002 -3.3028970360141

next 		i
jump 		SELF loop
variable 	i loop ${ndelta}
variable 	i loop 100

change_box 	all x scale ${scale} y scale ${scale} z scale ${scale} remap
change_box 	all x scale 1.00139146747202 y scale ${scale} z scale ${scale} remap
change_box 	all x scale 1.00139146747202 y scale 1.00139146747202 z scale ${scale} remap
change_box 	all x scale 1.00139146747202 y scale 1.00139146747202 z scale 1.00139146747202 remap
  triclinic box = (-0.071395 -0.067524 -0.067524) to (5.50023 5.49636 5.49636) with tilt (0 0 0)
  triclinic box = (-0.071395 -0.071395 -0.067524) to (5.50023 5.50023 5.49636) with tilt (0 0 0)
  triclinic box = (-0.071395 -0.071395 -0.071395) to (5.50023 5.50023 5.50023) with tilt (0 0 0)

# calculate energy
# no energy minimization needed for zincblende

run 		0
WARNING: No fixes defined, atoms won't move (src/verlet.cpp:55)
Per MPI rank memory allocation (min/avg/max) = 2.965 | 2.965 | 2.965 Mbytes
Step Temp PotEng Press Volume 
       0            0   -26.505031    178607.07       172.96 
Loop time of 1.49012e-06 on 4 procs for 0 steps with 8 atoms

134.2% CPU use with 4 MPI tasks x 1 OpenMP threads

MPI task timing breakdown:
Section |  min time  |  avg time  |  max time  |%varavg| %total
---------------------------------------------------------------
Pair    | 0          | 0          | 0          |   0.0 |  0.00
Neigh   | 0          | 0          | 0          |   0.0 |  0.00
Comm    | 0          | 0          | 0          |   0.0 |  0.00
Output  | 0          | 0          | 0          |   0.0 |  0.00
Modify  | 0          | 0          | 0          |   0.0 |  0.00
Other   |            | 1.49e-06   |            |       |100.00

Nlocal:    2 ave 5 max 1 min
Histogram: 3 0 0 0 0 0 0 0 0 1
Nghost:    320 ave 321 max 317 min
Histogram: 1 0 0 0 0 0 0 0 0 3
Neighs:    0 ave 0 max 0 min
Histogram: 4 0 0 0 0 0 0 0 0 0
FullNghs:  140 ave 350 max 70 min
Histogram: 3 0 0 0 0 0 0 0 0 1

Total # of neighbors = 560
Ave neighs/atom = 70
Neighbor list builds = 0
Dangerous builds = 0
print 		"${volatom} ${eatom}" append ${evsvolfile}
print 		"${volatom} ${eatom}" append evsvol.dat
21.6200000000004 -3.31312889912851

next 		i
jump 		SELF loop
variable 	i loop ${ndelta}
variable 	i loop 100

change_box 	all x scale ${scale} y scale ${scale} z scale ${scale} remap
change_box 	all x scale 1.00138568306585 y scale ${scale} z scale ${scale} remap
change_box 	all x scale 1.00138568306585 y scale 1.00138568306585 z scale ${scale} remap
change_box 	all x scale 1.00138568306585 y scale 1.00138568306585 z scale 1.00138568306585 remap
  triclinic box = (-0.0752552 -0.071395 -0.071395) to (5.50409 5.50023 5.50023) with tilt (0 0 0)
  triclinic box = (-0.0752552 -0.0752552 -0.071395) to (5.50409 5.50409 5.50023) with tilt (0 0 0)
  triclinic box = (-0.0752552 -0.0752552 -0.0752552) to (5.50409 5.50409 5.50409) with tilt (0 0 0)

# calculate energy
# no energy minimization needed for zincblende

run 		0
WARNING: No fixes defined, atoms won't move (src/verlet.cpp:55)
Per MPI rank memory allocation (min/avg/max) = 2.965 | 2.965 | 2.965 Mbytes
Step Temp PotEng Press Volume 
       0            0   -26.583731    171675.89       173.68 
Loop time of 1.78814e-06 on 4 procs for 0 steps with 8 atoms

125.8% CPU use with 4 MPI tasks x 1 OpenMP threads

MPI task timing breakdown:
Section |  min time  |  avg time  |  max time  |%varavg| %total
---------------------------------------------------------------
Pair    | 0          | 0          | 0          |   0.0 |  0.00
Neigh   | 0          | 0          | 0          |   0.0 |  0.00
Comm    | 0          | 0          | 0          |   0.0 |  0.00
Output  | 0          | 0          | 0          |   0.0 |  0.00
Modify  | 0          | 0          | 0          |   0.0 |  0.00
Other   |            | 1.788e-06  |            |       |100.00

Nlocal:    2 ave 5 max 1 min
Histogram: 3 0 0 0 0 0 0 0 0 1
Nghost:    320 ave 321 max 317 min
Histogram: 1 0 0 0 0 0 0 0 0 3
Neighs:    0 ave 0 max 0 min
Histogram: 4 0 0 0 0 0 0 0 0 0
FullNghs:  140 ave 350 max 70 min
Histogram: 3 0 0 0 0 0 0 0 0 1

Total # of neighbors = 560
Ave neighs/atom = 70
Neighbor list builds = 0
Dangerous builds = 0
print 		"${volatom} ${eatom}" append ${evsvolfile}
print 		"${volatom} ${eatom}" append evsvol.dat
21.7100000000001 -3.32296639570479

next 		i
jump 		SELF loop
variable 	i loop ${ndelta}
variable 	i loop 100

change_box 	all x scale ${scale} y scale ${scale} z scale ${scale} remap
change_box 	all x scale 1.00137994655284 y scale ${scale} z scale ${scale} remap
change_box 	all x scale 1.00137994655284 y scale 1.00137994655284 z scale ${scale} remap
change_box 	all x scale 1.00137994655284 y scale 1.00137994655284 z scale 1.00137994655284 remap
  triclinic box = (-0.0791048 -0.0752552 -0.0752552) to (5.50794 5.50409 5.50409) with tilt (0 0 0)
  triclinic box = (-0.0791048 -0.0791048 -0.0752552) to (5.50794 5.50794 5.50409) with tilt (0 0 0)
  triclinic box = (-0.0791048 -0.0791048 -0.0791048) to (5.50794 5.50794 5.50794) with tilt (0 0 0)

# calculate energy
# no energy minimization needed for zincblende

run 		0
WARNING: No fixes defined, atoms won't move (src/verlet.cpp:55)
Per MPI rank memory allocation (min/avg/max) = 2.965 | 2.965 | 2.965 Mbytes
Step Temp PotEng Press Volume 
       0            0   -26.659356    164919.29        174.4 
Loop time of 1.90735e-06 on 4 procs for 0 steps with 8 atoms

91.8% CPU use with 4 MPI tasks x 1 OpenMP threads

MPI task timing breakdown:
Section |  min time  |  avg time  |  max time  |%varavg| %total
---------------------------------------------------------------
Pair    | 0          | 0          | 0          |   0.0 |  0.00
Neigh   | 0          | 0          | 0          |   0.0 |  0.00
Comm    | 0          | 0          | 0          |   0.0 |  0.00
Output  | 0          | 0          | 0          |   0.0 |  0.00
Modify  | 0          | 0          | 0          |   0.0 |  0.00
Other   |            | 1.907e-06  |            |       |100.00

Nlocal:    2 ave 5 max 1 min
Histogram: 3 0 0 0 0 0 0 0 0 1
Nghost:    320 ave 321 max 317 min
Histogram: 1 0 0 0 0 0 0 0 0 3
Neighs:    0 ave 0 max 0 min
Histogram: 4 0 0 0 0 0 0 0 0 0
FullNghs:  140 ave 350 max 70 min
Histogram: 3 0 0 0 0 0 0 0 0 1

Total # of neighbors = 560
Ave neighs/atom = 70
Neighbor list builds = 0
Dangerous builds = 0
print 		"${volatom} ${eatom}" append ${evsvolfile}
print 		"${volatom} ${eatom}" append evsvol.dat
21.7999999999999 -3.33241946893207

next 		i
jump 		SELF loop
variable 	i loop ${ndelta}
variable 	i loop 100

change_box 	all x scale ${scale} y scale ${scale} z scale ${scale} remap
change_box 	all x scale 1.00137425734062 y scale ${scale} z scale ${scale} remap
change_box 	all x scale 1.00137425734062 y scale 1.00137425734062 z scale ${scale} remap
change_box 	all x scale 1.00137425734062 y scale 1.00137425734062 z scale 1.00137425734062 remap
  triclinic box = (-0.0829438 -0.0791048 -0.0791048) to (5.51178 5.50794 5.50794) with tilt (0 0 0)
  triclinic box = (-0.0829438 -0.0829438 -0.0791048) to (5.51178 5.51178 5.50794) with tilt (0 0 0)
  triclinic box = (-0.0829438 -0.0829438 -0.0829438) to (5.51178 5.51178 5.51178) with tilt (0 0 0)

# calculate energy
# no energy minimization needed for zincblende

run 		0
WARNING: No fixes defined, atoms won't move (src/verlet.cpp:55)
Per MPI rank memory allocation (min/avg/max) = 2.965 | 2.965 | 2.965 Mbytes
Step Temp PotEng Press Volume 
       0            0   -26.731982    158332.52       175.12 
Loop time of 1.66893e-06 on 4 procs for 0 steps with 8 atoms

119.8% CPU use with 4 MPI tasks x 1 OpenMP threads

MPI task timing breakdown:
Section |  min time  |  avg time  |  max time  |%varavg| %total
---------------------------------------------------------------
Pair    | 0          | 0          | 0          |   0.0 |  0.00
Neigh   | 0          | 0          | 0          |   0.0 |  0.00
Comm    | 0          | 0          | 0          |   0.0 |  0.00
Output  | 0          | 0          | 0          |   0.0 |  0.00
Modify  | 0          | 0          | 0          |   0.0 |  0.00
Other   |            | 1.669e-06  |            |       |100.00

Nlocal:    2 ave 5 max 1 min
Histogram: 3 0 0 0 0 0 0 0 0 1
Nghost:    320 ave 321 max 317 min
Histogram: 1 0 0 0 0 0 0 0 0 3
Neighs:    0 ave 0 max 0 min
Histogram: 4 0 0 0 0 0 0 0 0 0
FullNghs:  140 ave 350 max 70 min
Histogram: 3 0 0 0 0 0 0 0 0 1

Total # of neighbors = 560
Ave neighs/atom = 70
Neighbor list builds = 0
Dangerous builds = 0
print 		"${volatom} ${eatom}" append ${evsvolfile}
print 		"${volatom} ${eatom}" append evsvol.dat
21.89 -3.34149779161019

next 		i
jump 		SELF loop
variable 	i loop ${ndelta}
variable 	i loop 100

change_box 	all x scale ${scale} y scale ${scale} z scale ${scale} remap
change_box 	all x scale 1.00136861484656 y scale ${scale} z scale ${scale} remap
change_box 	all x scale 1.00136861484656 y scale 1.00136861484656 z scale ${scale} remap
change_box 	all x scale 1.00136861484656 y scale 1.00136861484656 z scale 1.00136861484656 remap
  triclinic box = (-0.0867724 -0.0829438 -0.0829438) to (5.51561 5.51178 5.51178) with tilt (0 0 0)
  triclinic box = (-0.0867724 -0.0867724 -0.0829438) to (5.51561 5.51561 5.51178) with tilt (0 0 0)
  triclinic box = (-0.0867724 -0.0867724 -0.0867724) to (5.51561 5.51561 5.51561) with tilt (0 0 0)

# calculate energy
# no energy minimization needed for zincblende

run 		0
WARNING: No fixes defined, atoms won't move (src/verlet.cpp:55)
Per MPI rank memory allocation (min/avg/max) = 2.965 | 2.965 | 2.965 Mbytes
Step Temp PotEng Press Volume 
       0            0   -26.801686       151911       175.84 
Loop time of 1.54972e-06 on 4 procs for 0 steps with 8 atoms

112.9% CPU use with 4 MPI tasks x 1 OpenMP threads

MPI task timing breakdown:
Section |  min time  |  avg time  |  max time  |%varavg| %total
---------------------------------------------------------------
Pair    | 0          | 0          | 0          |   0.0 |  0.00
Neigh   | 0          | 0          | 0          |   0.0 |  0.00
Comm    | 0          | 0          | 0          |   0.0 |  0.00
Output  | 0          | 0          | 0          |   0.0 |  0.00
Modify  | 0          | 0          | 0          |   0.0 |  0.00
Other   |            | 1.55e-06   |            |       |100.00

Nlocal:    2 ave 5 max 1 min
Histogram: 3 0 0 0 0 0 0 0 0 1
Nghost:    199 ave 200 max 196 min
Histogram: 1 0 0 0 0 0 0 0 0 3
Neighs:    0 ave 0 max 0 min
Histogram: 4 0 0 0 0 0 0 0 0 0
FullNghs:  140 ave 350 max 70 min
Histogram: 3 0 0 0 0 0 0 0 0 1

Total # of neighbors = 560
Ave neighs/atom = 70
Neighbor list builds = 0
Dangerous builds = 0
print 		"${volatom} ${eatom}" append ${evsvolfile}
print 		"${volatom} ${eatom}" append evsvol.dat
21.9800000000002 -3.35021077436259

next 		i
jump 		SELF loop
variable 	i loop ${ndelta}
variable 	i loop 100

change_box 	all x scale ${scale} y scale ${scale} z scale ${scale} remap
change_box 	all x scale 1.00136301849755 y scale ${scale} z scale ${scale} remap
change_box 	all x scale 1.00136301849755 y scale 1.00136301849755 z scale ${scale} remap
change_box 	all x scale 1.00136301849755 y scale 1.00136301849755 z scale 1.00136301849755 remap
  triclinic box = (-0.0905904 -0.0867724 -0.0867724) to (5.51943 5.51561 5.51561) with tilt (0 0 0)
  triclinic box = (-0.0905904 -0.0905904 -0.0867724) to (5.51943 5.51943 5.51561) with tilt (0 0 0)
  triclinic box = (-0.0905904 -0.0905904 -0.0905904) to (5.51943 5.51943 5.51943) with tilt (0 0 0)

# calculate energy
# no energy minimization needed for zincblende

run 		0
WARNING: No fixes defined, atoms won't move (src/verlet.cpp:55)
Per MPI rank memory allocation (min/avg/max) = 2.965 | 2.965 | 2.965 Mbytes
Step Temp PotEng Press Volume 
       0            0   -26.868541    145650.26       176.56 
Loop time of 1.49012e-06 on 4 procs for 0 steps with 8 atoms

100.7% CPU use with 4 MPI tasks x 1 OpenMP threads

MPI task timing breakdown:
Section |  min time  |  avg time  |  max time  |%varavg| %total
---------------------------------------------------------------
Pair    | 0          | 0          | 0          |   0.0 |  0.00
Neigh   | 0          | 0          | 0          |   0.0 |  0.00
Comm    | 0          | 0          | 0          |   0.0 |  0.00
Output  | 0          | 0          | 0          |   0.0 |  0.00
Modify  | 0          | 0          | 0          |   0.0 |  0.00
Other   |            | 1.49e-06   |            |       |100.00

Nlocal:    2 ave 5 max 1 min
Histogram: 3 0 0 0 0 0 0 0 0 1
Nghost:    199 ave 200 max 196 min
Histogram: 1 0 0 0 0 0 0 0 0 3
Neighs:    0 ave 0 max 0 min
Histogram: 4 0 0 0 0 0 0 0 0 0
FullNghs:  140 ave 350 max 70 min
Histogram: 3 0 0 0 0 0 0 0 0 1

Total # of neighbors = 560
Ave neighs/atom = 70
Neighbor list builds = 0
Dangerous builds = 0
print 		"${volatom} ${eatom}" append ${evsvolfile}
print 		"${volatom} ${eatom}" append evsvol.dat
22.0700000000002 -3.35856757357085

next 		i
jump 		SELF loop
variable 	i loop ${ndelta}
variable 	i loop 100

change_box 	all x scale ${scale} y scale ${scale} z scale ${scale} remap
change_box 	all x scale 1.00135746772984 y scale ${scale} z scale ${scale} remap
change_box 	all x scale 1.00135746772984 y scale 1.00135746772984 z scale ${scale} remap
change_box 	all x scale 1.00135746772984 y scale 1.00135746772984 z scale 1.00135746772984 remap
  triclinic box = (-0.0943981 -0.0905904 -0.0905904) to (5.52323 5.51943 5.51943) with tilt (0 0 0)
  triclinic box = (-0.0943981 -0.0943981 -0.0905904) to (5.52323 5.52323 5.51943) with tilt (0 0 0)
  triclinic box = (-0.0943981 -0.0943981 -0.0943981) to (5.52323 5.52323 5.52323) with tilt (0 0 0)

# calculate energy
# no energy minimization needed for zincblende

run 		0
WARNING: No fixes defined, atoms won't move (src/verlet.cpp:55)
Per MPI rank memory allocation (min/avg/max) = 2.965 | 2.965 | 2.965 Mbytes
Step Temp PotEng Press Volume 
       0            0   -26.932617    139545.98       177.28 
Loop time of 1.54972e-06 on 4 procs for 0 steps with 8 atoms

112.9% CPU use with 4 MPI tasks x 1 OpenMP threads

MPI task timing breakdown:
Section |  min time  |  avg time  |  max time  |%varavg| %total
---------------------------------------------------------------
Pair    | 0          | 0          | 0          |   0.0 |  0.00
Neigh   | 0          | 0          | 0          |   0.0 |  0.00
Comm    | 0          | 0          | 0          |   0.0 |  0.00
Output  | 0          | 0          | 0          |   0.0 |  0.00
Modify  | 0          | 0          | 0          |   0.0 |  0.00
Other   |            | 1.55e-06   |            |       |100.00

Nlocal:    2 ave 5 max 1 min
Histogram: 3 0 0 0 0 0 0 0 0 1
Nghost:    199 ave 200 max 196 min
Histogram: 1 0 0 0 0 0 0 0 0 3
Neighs:    0 ave 0 max 0 min
Histogram: 4 0 0 0 0 0 0 0 0 0
FullNghs:  140 ave 350 max 70 min
Histogram: 3 0 0 0 0 0 0 0 0 1

Total # of neighbors = 560
Ave neighs/atom = 70
Neighbor list builds = 0
Dangerous builds = 0
print 		"${volatom} ${eatom}" append ${evsvolfile}
print 		"${volatom} ${eatom}" append evsvol.dat
22.1600000000005 -3.36657709904146

next 		i
jump 		SELF loop
variable 	i loop ${ndelta}
variable 	i loop 100

change_box 	all x scale ${scale} y scale ${scale} z scale ${scale} remap
change_box 	all x scale 1.00135196198879 y scale ${scale} z scale ${scale} remap
change_box 	all x scale 1.00135196198879 y scale 1.00135196198879 z scale ${scale} remap
change_box 	all x scale 1.00135196198879 y scale 1.00135196198879 z scale 1.00135196198879 remap
  triclinic box = (-0.0981955 -0.0943981 -0.0943981) to (5.52703 5.52323 5.52323) with tilt (0 0 0)
  triclinic box = (-0.0981955 -0.0981955 -0.0943981) to (5.52703 5.52703 5.52323) with tilt (0 0 0)
  triclinic box = (-0.0981955 -0.0981955 -0.0981955) to (5.52703 5.52703 5.52703) with tilt (0 0 0)

# calculate energy
# no energy minimization needed for zincblende

run 		0
WARNING: No fixes defined, atoms won't move (src/verlet.cpp:55)
Per MPI rank memory allocation (min/avg/max) = 2.965 | 2.965 | 2.965 Mbytes
Step Temp PotEng Press Volume 
       0            0   -26.993984    133593.97          178 
Loop time of 1.60933e-06 on 4 procs for 0 steps with 8 atoms

124.3% CPU use with 4 MPI tasks x 1 OpenMP threads

MPI task timing breakdown:
Section |  min time  |  avg time  |  max time  |%varavg| %total
---------------------------------------------------------------
Pair    | 0          | 0          | 0          |   0.0 |  0.00
Neigh   | 0          | 0          | 0          |   0.0 |  0.00
Comm    | 0          | 0          | 0          |   0.0 |  0.00
Output  | 0          | 0          | 0          |   0.0 |  0.00
Modify  | 0          | 0          | 0          |   0.0 |  0.00
Other   |            | 1.609e-06  |            |       |100.00

Nlocal:    2 ave 5 max 1 min
Histogram: 3 0 0 0 0 0 0 0 0 1
Nghost:    199 ave 200 max 196 min
Histogram: 1 0 0 0 0 0 0 0 0 3
Neighs:    0 ave 0 max 0 min
Histogram: 4 0 0 0 0 0 0 0 0 0
FullNghs:  140 ave 350 max 70 min
Histogram: 3 0 0 0 0 0 0 0 0 1

Total # of neighbors = 560
Ave neighs/atom = 70
Neighbor list builds = 0
Dangerous builds = 0
print 		"${volatom} ${eatom}" append ${evsvolfile}
print 		"${volatom} ${eatom}" append evsvol.dat
22.2500000000003 -3.37424802141441

next 		i
jump 		SELF loop
variable 	i loop ${ndelta}
variable 	i loop 100

change_box 	all x scale ${scale} y scale ${scale} z scale ${scale} remap
change_box 	all x scale 1.00134650072876 y scale ${scale} z scale ${scale} remap
change_box 	all x scale 1.00134650072876 y scale 1.00134650072876 z scale ${scale} remap
change_box 	all x scale 1.00134650072876 y scale 1.00134650072876 z scale 1.00134650072876 remap
  triclinic box = (-0.101983 -0.0981955 -0.0981955) to (5.53082 5.52703 5.52703) with tilt (0 0 0)
  triclinic box = (-0.101983 -0.101983 -0.0981955) to (5.53082 5.53082 5.52703) with tilt (0 0 0)
  triclinic box = (-0.101983 -0.101983 -0.101983) to (5.53082 5.53082 5.53082) with tilt (0 0 0)

# calculate energy
# no energy minimization needed for zincblende

run 		0
WARNING: No fixes defined, atoms won't move (src/verlet.cpp:55)
Per MPI rank memory allocation (min/avg/max) = 2.965 | 2.965 | 2.965 Mbytes
Step Temp PotEng Press Volume 
       0            0    -27.05271    127790.17       178.72 
Loop time of 1.54972e-06 on 4 procs for 0 steps with 8 atoms

112.9% CPU use with 4 MPI tasks x 1 OpenMP threads

MPI task timing breakdown:
Section |  min time  |  avg time  |  max time  |%varavg| %total
---------------------------------------------------------------
Pair    | 0          | 0          | 0          |   0.0 |  0.00
Neigh   | 0          | 0          | 0          |   0.0 |  0.00
Comm    | 0          | 0          | 0          |   0.0 |  0.00
Output  | 0          | 0          | 0          |   0.0 |  0.00
Modify  | 0          | 0          | 0          |   0.0 |  0.00
Other   |            | 1.55e-06   |            |       |100.00

Nlocal:    2 ave 5 max 1 min
Histogram: 3 0 0 0 0 0 0 0 0 1
Nghost:    199 ave 200 max 196 min
Histogram: 1 0 0 0 0 0 0 0 0 3
Neighs:    0 ave 0 max 0 min
Histogram: 4 0 0 0 0 0 0 0 0 0
FullNghs:  140 ave 350 max 70 min
Histogram: 3 0 0 0 0 0 0 0 0 1

Total # of neighbors = 560
Ave neighs/atom = 70
Neighbor list builds = 0
Dangerous builds = 0
print 		"${volatom} ${eatom}" append ${evsvolfile}
print 		"${volatom} ${eatom}" append evsvol.dat
22.34 -3.38158877932393

next 		i
jump 		SELF loop
variable 	i loop ${ndelta}
variable 	i loop 100

change_box 	all x scale ${scale} y scale ${scale} z scale ${scale} remap
change_box 	all x scale 1.00134108341287 y scale ${scale} z scale ${scale} remap
change_box 	all x scale 1.00134108341287 y scale 1.00134108341287 z scale ${scale} remap
change_box 	all x scale 1.00134108341287 y scale 1.00134108341287 z scale 1.00134108341287 remap
  triclinic box = (-0.10576 -0.101983 -0.101983) to (5.53459 5.53082 5.53082) with tilt (0 0 0)
  triclinic box = (-0.10576 -0.10576 -0.101983) to (5.53459 5.53459 5.53082) with tilt (0 0 0)
  triclinic box = (-0.10576 -0.10576 -0.10576) to (5.53459 5.53459 5.53459) with tilt (0 0 0)

# calculate energy
# no energy minimization needed for zincblende

run 		0
WARNING: No fixes defined, atoms won't move (src/verlet.cpp:55)
Per MPI rank memory allocation (min/avg/max) = 2.965 | 2.965 | 2.965 Mbytes
Step Temp PotEng Press Volume 
       0            0   -27.108861    122130.61       179.44 
Loop time of 1.49012e-06 on 4 procs for 0 steps with 8 atoms

117.4% CPU use with 4 MPI tasks x 1 OpenMP threads

MPI task timing breakdown:
Section |  min time  |  avg time  |  max time  |%varavg| %total
---------------------------------------------------------------
Pair    | 0          | 0          | 0          |   0.0 |  0.00
Neigh   | 0          | 0          | 0          |   0.0 |  0.00
Comm    | 0          | 0          | 0          |   0.0 |  0.00
Output  | 0          | 0          | 0          |   0.0 |  0.00
Modify  | 0          | 0          | 0          |   0.0 |  0.00
Other   |            | 1.49e-06   |            |       |100.00

Nlocal:    2 ave 5 max 1 min
Histogram: 3 0 0 0 0 0 0 0 0 1
Nghost:    199 ave 200 max 196 min
Histogram: 1 0 0 0 0 0 0 0 0 3
Neighs:    0 ave 0 max 0 min
Histogram: 4 0 0 0 0 0 0 0 0 0
FullNghs:  140 ave 350 max 70 min
Histogram: 3 0 0 0 0 0 0 0 0 1

Total # of neighbors = 560
Ave neighs/atom = 70
Neighbor list builds = 0
Dangerous builds = 0
print 		"${volatom} ${eatom}" append ${evsvolfile}
print 		"${volatom} ${eatom}" append evsvol.dat
22.4299999999997 -3.38860758631982

next 		i
jump 		SELF loop
variable 	i loop ${ndelta}
variable 	i loop 100

change_box 	all x scale ${scale} y scale ${scale} z scale ${scale} remap
change_box 	all x scale 1.00133570951285 y scale ${scale} z scale ${scale} remap
change_box 	all x scale 1.00133570951285 y scale 1.00133570951285 z scale ${scale} remap
change_box 	all x scale 1.00133570951285 y scale 1.00133570951285 z scale 1.00133570951285 remap
  triclinic box = (-0.109527 -0.10576 -0.10576) to (5.53836 5.53459 5.53459) with tilt (0 0 0)
  triclinic box = (-0.109527 -0.109527 -0.10576) to (5.53836 5.53836 5.53459) with tilt (0 0 0)
  triclinic box = (-0.109527 -0.109527 -0.109527) to (5.53836 5.53836 5.53836) with tilt (0 0 0)

# calculate energy
# no energy minimization needed for zincblende

run 		0
WARNING: No fixes defined, atoms won't move (src/verlet.cpp:55)
Per MPI rank memory allocation (min/avg/max) = 2.965 | 2.965 | 2.965 Mbytes
Step Temp PotEng Press Volume 
       0            0     -27.1625    116611.48       180.16 
Loop time of 1.54972e-06 on 4 procs for 0 steps with 8 atoms

129.1% CPU use with 4 MPI tasks x 1 OpenMP threads

MPI task timing breakdown:
Section |  min time  |  avg time  |  max time  |%varavg| %total
---------------------------------------------------------------
Pair    | 0          | 0          | 0          |   0.0 |  0.00
Neigh   | 0          | 0          | 0          |   0.0 |  0.00
Comm    | 0          | 0          | 0          |   0.0 |  0.00
Output  | 0          | 0          | 0          |   0.0 |  0.00
Modify  | 0          | 0          | 0          |   0.0 |  0.00
Other   |            | 1.55e-06   |            |       |100.00

Nlocal:    2 ave 5 max 1 min
Histogram: 3 0 0 0 0 0 0 0 0 1
Nghost:    199 ave 200 max 196 min
Histogram: 1 0 0 0 0 0 0 0 0 3
Neighs:    0 ave 0 max 0 min
Histogram: 4 0 0 0 0 0 0 0 0 0
FullNghs:  140 ave 350 max 70 min
Histogram: 3 0 0 0 0 0 0 0 0 1

Total # of neighbors = 560
Ave neighs/atom = 70
Neighbor list builds = 0
Dangerous builds = 0
print 		"${volatom} ${eatom}" append ${evsvolfile}
print 		"${volatom} ${eatom}" append evsvol.dat
22.5199999999998 -3.39531243755875

next 		i
jump 		SELF loop
variable 	i loop ${ndelta}
variable 	i loop 100

change_box 	all x scale ${scale} y scale ${scale} z scale ${scale} remap
change_box 	all x scale 1.00133037850885 y scale ${scale} z scale ${scale} remap
change_box 	all x scale 1.00133037850885 y scale 1.00133037850885 z scale ${scale} remap
change_box 	all x scale 1.00133037850885 y scale 1.00133037850885 z scale 1.00133037850885 remap
  triclinic box = (-0.113284 -0.109527 -0.109527) to (5.54212 5.53836 5.53836) with tilt (0 0 0)
  triclinic box = (-0.113284 -0.113284 -0.109527) to (5.54212 5.54212 5.53836) with tilt (0 0 0)
  triclinic box = (-0.113284 -0.113284 -0.113284) to (5.54212 5.54212 5.54212) with tilt (0 0 0)

# calculate energy
# no energy minimization needed for zincblende

run 		0
WARNING: No fixes defined, atoms won't move (src/verlet.cpp:55)
Per MPI rank memory allocation (min/avg/max) = 2.965 | 2.965 | 2.965 Mbytes
Step Temp PotEng Press Volume 
       0            0   -27.213689    111229.06       180.88 
Loop time of 1.90735e-06 on 4 procs for 0 steps with 8 atoms

118.0% CPU use with 4 MPI tasks x 1 OpenMP threads

MPI task timing breakdown:
Section |  min time  |  avg time  |  max time  |%varavg| %total
---------------------------------------------------------------
Pair    | 0          | 0          | 0          |   0.0 |  0.00
Neigh   | 0          | 0          | 0          |   0.0 |  0.00
Comm    | 0          | 0          | 0          |   0.0 |  0.00
Output  | 0          | 0          | 0          |   0.0 |  0.00
Modify  | 0          | 0          | 0          |   0.0 |  0.00
Other   |            | 1.907e-06  |            |       |100.00

Nlocal:    2 ave 5 max 1 min
Histogram: 3 0 0 0 0 0 0 0 0 1
Nghost:    199 ave 200 max 196 min
Histogram: 1 0 0 0 0 0 0 0 0 3
Neighs:    0 ave 0 max 0 min
Histogram: 4 0 0 0 0 0 0 0 0 0
FullNghs:  140 ave 350 max 70 min
Histogram: 3 0 0 0 0 0 0 0 0 1

Total # of neighbors = 560
Ave neighs/atom = 70
Neighbor list builds = 0
Dangerous builds = 0
print 		"${volatom} ${eatom}" append ${evsvolfile}
print 		"${volatom} ${eatom}" append evsvol.dat
22.6099999999997 -3.40171111627368

next 		i
jump 		SELF loop
variable 	i loop ${ndelta}
variable 	i loop 100

change_box 	all x scale ${scale} y scale ${scale} z scale ${scale} remap
change_box 	all x scale 1.00132508988931 y scale ${scale} z scale ${scale} remap
change_box 	all x scale 1.00132508988931 y scale 1.00132508988931 z scale ${scale} remap
change_box 	all x scale 1.00132508988931 y scale 1.00132508988931 z scale 1.00132508988931 remap
  triclinic box = (-0.117031 -0.113284 -0.113284) to (5.54587 5.54212 5.54212) with tilt (0 0 0)
  triclinic box = (-0.117031 -0.117031 -0.113284) to (5.54587 5.54587 5.54212) with tilt (0 0 0)
  triclinic box = (-0.117031 -0.117031 -0.117031) to (5.54587 5.54587 5.54587) with tilt (0 0 0)

# calculate energy
# no energy minimization needed for zincblende

run 		0
WARNING: No fixes defined, atoms won't move (src/verlet.cpp:55)
Per MPI rank memory allocation (min/avg/max) = 2.965 | 2.965 | 2.965 Mbytes
Step Temp PotEng Press Volume 
       0            0    -27.26249    105979.74        181.6 
Loop time of 1.84774e-06 on 4 procs for 0 steps with 8 atoms

108.2% CPU use with 4 MPI tasks x 1 OpenMP threads

MPI task timing breakdown:
Section |  min time  |  avg time  |  max time  |%varavg| %total
---------------------------------------------------------------
Pair    | 0          | 0          | 0          |   0.0 |  0.00
Neigh   | 0          | 0          | 0          |   0.0 |  0.00
Comm    | 0          | 0          | 0          |   0.0 |  0.00
Output  | 0          | 0          | 0          |   0.0 |  0.00
Modify  | 0          | 0          | 0          |   0.0 |  0.00
Other   |            | 1.848e-06  |            |       |100.00

Nlocal:    2 ave 5 max 1 min
Histogram: 3 0 0 0 0 0 0 0 0 1
Nghost:    199 ave 200 max 196 min
Histogram: 1 0 0 0 0 0 0 0 0 3
Neighs:    0 ave 0 max 0 min
Histogram: 4 0 0 0 0 0 0 0 0 0
FullNghs:  140 ave 350 max 70 min
Histogram: 3 0 0 0 0 0 0 0 0 1

Total # of neighbors = 560
Ave neighs/atom = 70
Neighbor list builds = 0
Dangerous builds = 0
print 		"${volatom} ${eatom}" append ${evsvolfile}
print 		"${volatom} ${eatom}" append evsvol.dat
22.6999999999996 -3.40781120002994

next 		i
jump 		SELF loop
variable 	i loop ${ndelta}
variable 	i loop 100

change_box 	all x scale ${scale} y scale ${scale} z scale ${scale} remap
change_box 	all x scale 1.00131984315076 y scale ${scale} z scale ${scale} remap
change_box 	all x scale 1.00131984315076 y scale 1.00131984315076 z scale ${scale} remap
change_box 	all x scale 1.00131984315076 y scale 1.00131984315076 z scale 1.00131984315076 remap
  triclinic box = (-0.120768 -0.117031 -0.117031) to (5.5496 5.54587 5.54587) with tilt (0 0 0)
  triclinic box = (-0.120768 -0.120768 -0.117031) to (5.5496 5.5496 5.54587) with tilt (0 0 0)
  triclinic box = (-0.120768 -0.120768 -0.120768) to (5.5496 5.5496 5.5496) with tilt (0 0 0)

# calculate energy
# no energy minimization needed for zincblende

run 		0
WARNING: No fixes defined, atoms won't move (src/verlet.cpp:55)
Per MPI rank memory allocation (min/avg/max) = 2.965 | 2.965 | 2.965 Mbytes
Step Temp PotEng Press Volume 
       0            0   -27.308961    100860.02       182.32 
Loop time of 1.78814e-06 on 4 procs for 0 steps with 8 atoms

139.8% CPU use with 4 MPI tasks x 1 OpenMP threads

MPI task timing breakdown:
Section |  min time  |  avg time  |  max time  |%varavg| %total
---------------------------------------------------------------
Pair    | 0          | 0          | 0          |   0.0 |  0.00
Neigh   | 0          | 0          | 0          |   0.0 |  0.00
Comm    | 0          | 0          | 0          |   0.0 |  0.00
Output  | 0          | 0          | 0          |   0.0 |  0.00
Modify  | 0          | 0          | 0          |   0.0 |  0.00
Other   |            | 1.788e-06  |            |       |100.00

Nlocal:    2 ave 5 max 1 min
Histogram: 3 0 0 0 0 0 0 0 0 1
Nghost:    199 ave 200 max 196 min
Histogram: 1 0 0 0 0 0 0 0 0 3
Neighs:    0 ave 0 max 0 min
Histogram: 4 0 0 0 0 0 0 0 0 0
FullNghs:  140 ave 350 max 70 min
Histogram: 3 0 0 0 0 0 0 0 0 1

Total # of neighbors = 560
Ave neighs/atom = 70
Neighbor list builds = 0
Dangerous builds = 0
print 		"${volatom} ${eatom}" append ${evsvolfile}
print 		"${volatom} ${eatom}" append evsvol.dat
22.7899999999997 -3.4136200667752

next 		i
jump 		SELF loop
variable 	i loop ${ndelta}
variable 	i loop 100

change_box 	all x scale ${scale} y scale ${scale} z scale ${scale} remap
change_box 	all x scale 1.00131463779767 y scale ${scale} z scale ${scale} remap
change_box 	all x scale 1.00131463779767 y scale 1.00131463779767 z scale ${scale} remap
change_box 	all x scale 1.00131463779767 y scale 1.00131463779767 z scale 1.00131463779767 remap
  triclinic box = (-0.124495 -0.120768 -0.120768) to (5.55333 5.5496 5.5496) with tilt (0 0 0)
  triclinic box = (-0.124495 -0.124495 -0.120768) to (5.55333 5.55333 5.5496) with tilt (0 0 0)
  triclinic box = (-0.124495 -0.124495 -0.124495) to (5.55333 5.55333 5.55333) with tilt (0 0 0)

# calculate energy
# no energy minimization needed for zincblende

run 		0
WARNING: No fixes defined, atoms won't move (src/verlet.cpp:55)
Per MPI rank memory allocation (min/avg/max) = 2.965 | 2.965 | 2.965 Mbytes
Step Temp PotEng Press Volume 
       0            0   -27.353159    95866.497       183.04 
Loop time of 1.72853e-06 on 4 procs for 0 steps with 8 atoms

101.2% CPU use with 4 MPI tasks x 1 OpenMP threads

MPI task timing breakdown:
Section |  min time  |  avg time  |  max time  |%varavg| %total
---------------------------------------------------------------
Pair    | 0          | 0          | 0          |   0.0 |  0.00
Neigh   | 0          | 0          | 0          |   0.0 |  0.00
Comm    | 0          | 0          | 0          |   0.0 |  0.00
Output  | 0          | 0          | 0          |   0.0 |  0.00
Modify  | 0          | 0          | 0          |   0.0 |  0.00
Other   |            | 1.729e-06  |            |       |100.00

Nlocal:    2 ave 5 max 1 min
Histogram: 3 0 0 0 0 0 0 0 0 1
Nghost:    199 ave 200 max 196 min
Histogram: 1 0 0 0 0 0 0 0 0 3
Neighs:    0 ave 0 max 0 min
Histogram: 4 0 0 0 0 0 0 0 0 0
FullNghs:  140 ave 350 max 70 min
Histogram: 3 0 0 0 0 0 0 0 0 1

Total # of neighbors = 560
Ave neighs/atom = 70
Neighbor list builds = 0
Dangerous builds = 0
print 		"${volatom} ${eatom}" append ${evsvolfile}
print 		"${volatom} ${eatom}" append evsvol.dat
22.88 -3.41914490069132

next 		i
jump 		SELF loop
variable 	i loop ${ndelta}
variable 	i loop 100

change_box 	all x scale ${scale} y scale ${scale} z scale ${scale} remap
change_box 	all x scale 1.00130947334229 y scale ${scale} z scale ${scale} remap
change_box 	all x scale 1.00130947334229 y scale 1.00130947334229 z scale ${scale} remap
change_box 	all x scale 1.00130947334229 y scale 1.00130947334229 z scale 1.00130947334229 remap
  triclinic box = (-0.128212 -0.124495 -0.124495) to (5.55705 5.55333 5.55333) with tilt (0 0 0)
  triclinic box = (-0.128212 -0.128212 -0.124495) to (5.55705 5.55705 5.55333) with tilt (0 0 0)
  triclinic box = (-0.128212 -0.128212 -0.128212) to (5.55705 5.55705 5.55705) with tilt (0 0 0)

# calculate energy
# no energy minimization needed for zincblende

run 		0
WARNING: No fixes defined, atoms won't move (src/verlet.cpp:55)
Per MPI rank memory allocation (min/avg/max) = 2.965 | 2.965 | 2.965 Mbytes
Step Temp PotEng Press Volume 
       0            0   -27.395142    90995.879       183.76 
Loop time of 1.78814e-06 on 4 procs for 0 steps with 8 atoms

139.8% CPU use with 4 MPI tasks x 1 OpenMP threads

MPI task timing breakdown:
Section |  min time  |  avg time  |  max time  |%varavg| %total
---------------------------------------------------------------
Pair    | 0          | 0          | 0          |   0.0 |  0.00
Neigh   | 0          | 0          | 0          |   0.0 |  0.00
Comm    | 0          | 0          | 0          |   0.0 |  0.00
Output  | 0          | 0          | 0          |   0.0 |  0.00
Modify  | 0          | 0          | 0          |   0.0 |  0.00
Other   |            | 1.788e-06  |            |       |100.00

Nlocal:    2 ave 5 max 1 min
Histogram: 3 0 0 0 0 0 0 0 0 1
Nghost:    199 ave 200 max 196 min
Histogram: 1 0 0 0 0 0 0 0 0 3
Neighs:    0 ave 0 max 0 min
Histogram: 4 0 0 0 0 0 0 0 0 0
FullNghs:  140 ave 350 max 70 min
Histogram: 3 0 0 0 0 0 0 0 0 1

Total # of neighbors = 560
Ave neighs/atom = 70
Neighbor list builds = 0
Dangerous builds = 0
print 		"${volatom} ${eatom}" append ${evsvolfile}
print 		"${volatom} ${eatom}" append evsvol.dat
22.9699999999997 -3.424392697855

next 		i
jump 		SELF loop
variable 	i loop ${ndelta}
variable 	i loop 100

change_box 	all x scale ${scale} y scale ${scale} z scale ${scale} remap
change_box 	all x scale 1.00130434930454 y scale ${scale} z scale ${scale} remap
change_box 	all x scale 1.00130434930454 y scale 1.00130434930454 z scale ${scale} remap
change_box 	all x scale 1.00130434930454 y scale 1.00130434930454 z scale 1.00130434930454 remap
  triclinic box = (-0.13192 -0.128212 -0.128212) to (5.56076 5.55705 5.55705) with tilt (0 0 0)
  triclinic box = (-0.13192 -0.13192 -0.128212) to (5.56076 5.56076 5.55705) with tilt (0 0 0)
  triclinic box = (-0.13192 -0.13192 -0.13192) to (5.56076 5.56076 5.56076) with tilt (0 0 0)

# calculate energy
# no energy minimization needed for zincblende

run 		0
WARNING: No fixes defined, atoms won't move (src/verlet.cpp:55)
Per MPI rank memory allocation (min/avg/max) = 2.965 | 2.965 | 2.965 Mbytes
Step Temp PotEng Press Volume 
       0            0   -27.434962    86244.961       184.48 
Loop time of 1.49012e-06 on 4 procs for 0 steps with 8 atoms

134.2% CPU use with 4 MPI tasks x 1 OpenMP threads

MPI task timing breakdown:
Section |  min time  |  avg time  |  max time  |%varavg| %total
---------------------------------------------------------------
Pair    | 0          | 0          | 0          |   0.0 |  0.00
Neigh   | 0          | 0          | 0          |   0.0 |  0.00
Comm    | 0          | 0          | 0          |   0.0 |  0.00
Output  | 0          | 0          | 0          |   0.0 |  0.00
Modify  | 0          | 0          | 0          |   0.0 |  0.00
Other   |            | 1.49e-06   |            |       |100.00

Nlocal:    2 ave 5 max 1 min
Histogram: 3 0 0 0 0 0 0 0 0 1
Nghost:    199 ave 200 max 196 min
Histogram: 1 0 0 0 0 0 0 0 0 3
Neighs:    0 ave 0 max 0 min
Histogram: 4 0 0 0 0 0 0 0 0 0
FullNghs:  140 ave 350 max 70 min
Histogram: 3 0 0 0 0 0 0 0 0 1

Total # of neighbors = 560
Ave neighs/atom = 70
Neighbor list builds = 0
Dangerous builds = 0
print 		"${volatom} ${eatom}" append ${evsvolfile}
print 		"${volatom} ${eatom}" append evsvol.dat
23.0599999999998 -3.42937027171443

next 		i
jump 		SELF loop
variable 	i loop ${ndelta}
variable 	i loop 100

change_box 	all x scale ${scale} y scale ${scale} z scale ${scale} remap
change_box 	all x scale 1.00129926521177 y scale ${scale} z scale ${scale} remap
change_box 	all x scale 1.00129926521177 y scale 1.00129926521177 z scale ${scale} remap
change_box 	all x scale 1.00129926521177 y scale 1.00129926521177 z scale 1.00129926521177 remap
  triclinic box = (-0.135618 -0.13192 -0.13192) to (5.56445 5.56076 5.56076) with tilt (0 0 0)
  triclinic box = (-0.135618 -0.135618 -0.13192) to (5.56445 5.56445 5.56076) with tilt (0 0 0)
  triclinic box = (-0.135618 -0.135618 -0.135618) to (5.56445 5.56445 5.56445) with tilt (0 0 0)

# calculate energy
# no energy minimization needed for zincblende

run 		0
WARNING: No fixes defined, atoms won't move (src/verlet.cpp:55)
Per MPI rank memory allocation (min/avg/max) = 2.965 | 2.965 | 2.965 Mbytes
Step Temp PotEng Press Volume 
       0            0   -27.472674    81610.631        185.2 
Loop time of 1.54972e-06 on 4 procs for 0 steps with 8 atoms

96.8% CPU use with 4 MPI tasks x 1 OpenMP threads

MPI task timing breakdown:
Section |  min time  |  avg time  |  max time  |%varavg| %total
---------------------------------------------------------------
Pair    | 0          | 0          | 0          |   0.0 |  0.00
Neigh   | 0          | 0          | 0          |   0.0 |  0.00
Comm    | 0          | 0          | 0          |   0.0 |  0.00
Output  | 0          | 0          | 0          |   0.0 |  0.00
Modify  | 0          | 0          | 0          |   0.0 |  0.00
Other   |            | 1.55e-06   |            |       |100.00

Nlocal:    2 ave 5 max 1 min
Histogram: 3 0 0 0 0 0 0 0 0 1
Nghost:    199 ave 200 max 196 min
Histogram: 1 0 0 0 0 0 0 0 0 3
Neighs:    0 ave 0 max 0 min
Histogram: 4 0 0 0 0 0 0 0 0 0
FullNghs:  140 ave 350 max 70 min
Histogram: 3 0 0 0 0 0 0 0 0 1

Total # of neighbors = 560
Ave neighs/atom = 70
Neighbor list builds = 0
Dangerous builds = 0
print 		"${volatom} ${eatom}" append ${evsvolfile}
print 		"${volatom} ${eatom}" append evsvol.dat
23.1499999999995 -3.43408425838794

next 		i
jump 		SELF loop
variable 	i loop ${ndelta}
variable 	i loop 100

change_box 	all x scale ${scale} y scale ${scale} z scale ${scale} remap
change_box 	all x scale 1.00129422059873 y scale ${scale} z scale ${scale} remap
change_box 	all x scale 1.00129422059873 y scale 1.00129422059873 z scale ${scale} remap
change_box 	all x scale 1.00129422059873 y scale 1.00129422059873 z scale 1.00129422059873 remap
  triclinic box = (-0.139307 -0.135618 -0.135618) to (5.56814 5.56445 5.56445) with tilt (0 0 0)
  triclinic box = (-0.139307 -0.139307 -0.135618) to (5.56814 5.56814 5.56445) with tilt (0 0 0)
  triclinic box = (-0.139307 -0.139307 -0.139307) to (5.56814 5.56814 5.56814) with tilt (0 0 0)

# calculate energy
# no energy minimization needed for zincblende

run 		0
WARNING: No fixes defined, atoms won't move (src/verlet.cpp:55)
Per MPI rank memory allocation (min/avg/max) = 2.965 | 2.965 | 2.965 Mbytes
Step Temp PotEng Press Volume 
       0            0   -27.508329    77089.868       185.92 
Loop time of 1.49012e-06 on 4 procs for 0 steps with 8 atoms

100.7% CPU use with 4 MPI tasks x 1 OpenMP threads

MPI task timing breakdown:
Section |  min time  |  avg time  |  max time  |%varavg| %total
---------------------------------------------------------------
Pair    | 0          | 0          | 0          |   0.0 |  0.00
Neigh   | 0          | 0          | 0          |   0.0 |  0.00
Comm    | 0          | 0          | 0          |   0.0 |  0.00
Output  | 0          | 0          | 0          |   0.0 |  0.00
Modify  | 0          | 0          | 0          |   0.0 |  0.00
Other   |            | 1.49e-06   |            |       |100.00

Nlocal:    2 ave 5 max 1 min
Histogram: 3 0 0 0 0 0 0 0 0 1
Nghost:    199 ave 200 max 196 min
Histogram: 1 0 0 0 0 0 0 0 0 3
Neighs:    0 ave 0 max 0 min
Histogram: 4 0 0 0 0 0 0 0 0 0
FullNghs:  140 ave 350 max 70 min
Histogram: 3 0 0 0 0 0 0 0 0 1

Total # of neighbors = 560
Ave neighs/atom = 70
Neighbor list builds = 0
Dangerous builds = 0
print 		"${volatom} ${eatom}" append ${evsvolfile}
print 		"${volatom} ${eatom}" append evsvol.dat
23.2399999999998 -3.43854112179202

next 		i
jump 		SELF loop
variable 	i loop ${ndelta}
variable 	i loop 100

change_box 	all x scale ${scale} y scale ${scale} z scale ${scale} remap
change_box 	all x scale 1.00128921500731 y scale ${scale} z scale ${scale} remap
change_box 	all x scale 1.00128921500731 y scale 1.00128921500731 z scale ${scale} remap
change_box 	all x scale 1.00128921500731 y scale 1.00128921500731 z scale 1.00128921500731 remap
  triclinic box = (-0.142986 -0.139307 -0.139307) to (5.57182 5.56814 5.56814) with tilt (0 0 0)
  triclinic box = (-0.142986 -0.142986 -0.139307) to (5.57182 5.57182 5.56814) with tilt (0 0 0)
[...]
Output  | 0          | 0          | 0          |   0.0 |  0.00
Modify  | 0          | 0          | 0          |   0.0 |  0.00
Other   |            | 1.55e-06   |            |       |100.00

Nlocal:    2 ave 5 max 1 min
Histogram: 3 0 0 0 0 0 0 0 0 1
Nghost:    199 ave 200 max 196 min
Histogram: 1 0 0 0 0 0 0 0 0 3
Neighs:    0 ave 0 max 0 min
Histogram: 4 0 0 0 0 0 0 0 0 0
FullNghs:  92 ave 230 max 46 min
Histogram: 3 0 0 0 0 0 0 0 0 1

Total # of neighbors = 368
Ave neighs/atom = 46
Neighbor list builds = 0
Dangerous builds = 0
print 		"${volatom} ${eatom}" append ${evsvolfile}
print 		"${volatom} ${eatom}" append evsvol.dat
28.1900000000001 -3.424860150496

next 		i
jump 		SELF loop
variable 	i loop ${ndelta}
variable 	i loop 100

change_box 	all x scale ${scale} y scale ${scale} z scale ${scale} remap
change_box 	all x scale 1.00106307663326 y scale ${scale} z scale ${scale} remap
change_box 	all x scale 1.00106307663326 y scale 1.00106307663326 z scale ${scale} remap
change_box 	all x scale 1.00106307663326 y scale 1.00106307663326 z scale 1.00106307663326 remap
  triclinic box = (-0.33226 -0.329024 -0.329024) to (5.76109 5.75786 5.75786) with tilt (0 0 0)
  triclinic box = (-0.33226 -0.33226 -0.329024) to (5.76109 5.76109 5.75786) with tilt (0 0 0)
  triclinic box = (-0.33226 -0.33226 -0.33226) to (5.76109 5.76109 5.76109) with tilt (0 0 0)

# calculate energy
# no energy minimization needed for zincblende

run 		0
WARNING: No fixes defined, atoms won't move (src/verlet.cpp:55)
Per MPI rank memory allocation (min/avg/max) = 2.965 | 2.965 | 2.965 Mbytes
Step Temp PotEng Press Volume 
       0            0   -27.374932   -53691.221       226.24 
Loop time of 1.84774e-06 on 4 procs for 0 steps with 8 atoms

108.2% CPU use with 4 MPI tasks x 1 OpenMP threads

MPI task timing breakdown:
Section |  min time  |  avg time  |  max time  |%varavg| %total
---------------------------------------------------------------
Pair    | 0          | 0          | 0          |   0.0 |  0.00
Neigh   | 0          | 0          | 0          |   0.0 |  0.00
Comm    | 0          | 0          | 0          |   0.0 |  0.00
Output  | 0          | 0          | 0          |   0.0 |  0.00
Modify  | 0          | 0          | 0          |   0.0 |  0.00
Other   |            | 1.848e-06  |            |       |100.00

Nlocal:    2 ave 5 max 1 min
Histogram: 3 0 0 0 0 0 0 0 0 1
Nghost:    199 ave 200 max 196 min
Histogram: 1 0 0 0 0 0 0 0 0 3
Neighs:    0 ave 0 max 0 min
Histogram: 4 0 0 0 0 0 0 0 0 0
FullNghs:  92 ave 230 max 46 min
Histogram: 3 0 0 0 0 0 0 0 0 1

Total # of neighbors = 368
Ave neighs/atom = 46
Neighbor list builds = 0
Dangerous builds = 0
print 		"${volatom} ${eatom}" append ${evsvolfile}
print 		"${volatom} ${eatom}" append evsvol.dat
28.28 -3.42186646013476

next 		i
jump 		SELF loop
variable 	i loop ${ndelta}
variable 	i loop 100

change_box 	all x scale ${scale} y scale ${scale} z scale ${scale} remap
change_box 	all x scale 1.00105969701333 y scale ${scale} z scale ${scale} remap
change_box 	all x scale 1.00105969701333 y scale 1.00105969701333 z scale ${scale} remap
change_box 	all x scale 1.00105969701333 y scale 1.00105969701333 z scale 1.00105969701333 remap
  triclinic box = (-0.335488 -0.33226 -0.33226) to (5.76432 5.76109 5.76109) with tilt (0 0 0)
  triclinic box = (-0.335488 -0.335488 -0.33226) to (5.76432 5.76432 5.76109) with tilt (0 0 0)
  triclinic box = (-0.335488 -0.335488 -0.335488) to (5.76432 5.76432 5.76432) with tilt (0 0 0)

# calculate energy
# no energy minimization needed for zincblende

run 		0
WARNING: No fixes defined, atoms won't move (src/verlet.cpp:55)
Per MPI rank memory allocation (min/avg/max) = 2.965 | 2.965 | 2.965 Mbytes
Step Temp PotEng Press Volume 
       0            0   -27.350628   -54465.955       226.96 
Loop time of 1.54972e-06 on 4 procs for 0 steps with 8 atoms

112.9% CPU use with 4 MPI tasks x 1 OpenMP threads

MPI task timing breakdown:
Section |  min time  |  avg time  |  max time  |%varavg| %total
---------------------------------------------------------------
Pair    | 0          | 0          | 0          |   0.0 |  0.00
Neigh   | 0          | 0          | 0          |   0.0 |  0.00
Comm    | 0          | 0          | 0          |   0.0 |  0.00
Output  | 0          | 0          | 0          |   0.0 |  0.00
Modify  | 0          | 0          | 0          |   0.0 |  0.00
Other   |            | 1.55e-06   |            |       |100.00

Nlocal:    2 ave 5 max 1 min
Histogram: 3 0 0 0 0 0 0 0 0 1
Nghost:    199 ave 200 max 196 min
Histogram: 1 0 0 0 0 0 0 0 0 3
Neighs:    0 ave 0 max 0 min
Histogram: 4 0 0 0 0 0 0 0 0 0
FullNghs:  92 ave 230 max 46 min
Histogram: 3 0 0 0 0 0 0 0 0 1

Total # of neighbors = 368
Ave neighs/atom = 46
Neighbor list builds = 0
Dangerous builds = 0
print 		"${volatom} ${eatom}" append ${evsvolfile}
print 		"${volatom} ${eatom}" append evsvol.dat
28.3700000000003 -3.41882855739378

next 		i
jump 		SELF loop
variable 	i loop ${ndelta}
variable 	i loop 100

change_box 	all x scale ${scale} y scale ${scale} z scale ${scale} remap
change_box 	all x scale 1.00105633881357 y scale ${scale} z scale ${scale} remap
change_box 	all x scale 1.00105633881357 y scale 1.00105633881357 z scale ${scale} remap
change_box 	all x scale 1.00105633881357 y scale 1.00105633881357 z scale 1.00105633881357 remap
  triclinic box = (-0.33871 -0.335488 -0.335488) to (5.76755 5.76432 5.76432) with tilt (0 0 0)
  triclinic box = (-0.33871 -0.33871 -0.335488) to (5.76755 5.76755 5.76432) with tilt (0 0 0)
  triclinic box = (-0.33871 -0.33871 -0.33871) to (5.76755 5.76755 5.76755) with tilt (0 0 0)

# calculate energy
# no energy minimization needed for zincblende

run 		0
WARNING: No fixes defined, atoms won't move (src/verlet.cpp:55)
Per MPI rank memory allocation (min/avg/max) = 2.965 | 2.965 | 2.965 Mbytes
Step Temp PotEng Press Volume 
       0            0   -27.325983   -55216.518       227.68 
Loop time of 1.49012e-06 on 4 procs for 0 steps with 8 atoms

100.7% CPU use with 4 MPI tasks x 1 OpenMP threads

MPI task timing breakdown:
Section |  min time  |  avg time  |  max time  |%varavg| %total
---------------------------------------------------------------
Pair    | 0          | 0          | 0          |   0.0 |  0.00
Neigh   | 0          | 0          | 0          |   0.0 |  0.00
Comm    | 0          | 0          | 0          |   0.0 |  0.00
Output  | 0          | 0          | 0          |   0.0 |  0.00
Modify  | 0          | 0          | 0          |   0.0 |  0.00
Other   |            | 1.49e-06   |            |       |100.00

Nlocal:    2 ave 5 max 1 min
Histogram: 3 0 0 0 0 0 0 0 0 1
Nghost:    199 ave 200 max 196 min
Histogram: 1 0 0 0 0 0 0 0 0 3
Neighs:    0 ave 0 max 0 min
Histogram: 4 0 0 0 0 0 0 0 0 0
FullNghs:  92 ave 230 max 46 min
Histogram: 3 0 0 0 0 0 0 0 0 1

Total # of neighbors = 368
Ave neighs/atom = 46
Neighbor list builds = 0
Dangerous builds = 0
print 		"${volatom} ${eatom}" append ${evsvolfile}
print 		"${volatom} ${eatom}" append evsvol.dat
28.4600000000007 -3.4157478167018

next 		i
jump 		SELF loop
variable 	i loop ${ndelta}
variable 	i loop 100

change_box 	all x scale ${scale} y scale ${scale} z scale ${scale} remap
change_box 	all x scale 1.00105300183098 y scale ${scale} z scale ${scale} remap
change_box 	all x scale 1.00105300183098 y scale 1.00105300183098 z scale ${scale} remap
change_box 	all x scale 1.00105300183098 y scale 1.00105300183098 z scale 1.00105300183098 remap
  triclinic box = (-0.341925 -0.33871 -0.33871) to (5.77076 5.76755 5.76755) with tilt (0 0 0)
  triclinic box = (-0.341925 -0.341925 -0.33871) to (5.77076 5.77076 5.76755) with tilt (0 0 0)
  triclinic box = (-0.341925 -0.341925 -0.341925) to (5.77076 5.77076 5.77076) with tilt (0 0 0)

# calculate energy
# no energy minimization needed for zincblende

run 		0
WARNING: No fixes defined, atoms won't move (src/verlet.cpp:55)
Per MPI rank memory allocation (min/avg/max) = 2.965 | 2.965 | 2.965 Mbytes
Step Temp PotEng Press Volume 
       0            0   -27.301005   -55943.493        228.4 
Loop time of 1.37091e-06 on 4 procs for 0 steps with 8 atoms

127.7% CPU use with 4 MPI tasks x 1 OpenMP threads

MPI task timing breakdown:
Section |  min time  |  avg time  |  max time  |%varavg| %total
---------------------------------------------------------------
Pair    | 0          | 0          | 0          |   0.0 |  0.00
Neigh   | 0          | 0          | 0          |   0.0 |  0.00
Comm    | 0          | 0          | 0          |   0.0 |  0.00
Output  | 0          | 0          | 0          |   0.0 |  0.00
Modify  | 0          | 0          | 0          |   0.0 |  0.00
Other   |            | 1.371e-06  |            |       |100.00

Nlocal:    2 ave 5 max 1 min
Histogram: 3 0 0 0 0 0 0 0 0 1
Nghost:    199 ave 200 max 196 min
Histogram: 1 0 0 0 0 0 0 0 0 3
Neighs:    0 ave 0 max 0 min
Histogram: 4 0 0 0 0 0 0 0 0 0
FullNghs:  92 ave 230 max 46 min
Histogram: 3 0 0 0 0 0 0 0 0 1

Total # of neighbors = 368
Ave neighs/atom = 46
Neighbor list builds = 0
Dangerous builds = 0
print 		"${volatom} ${eatom}" append ${evsvolfile}
print 		"${volatom} ${eatom}" append evsvol.dat
28.5500000000008 -3.41262557938724

next 		i
jump 		SELF loop
variable 	i loop ${ndelta}
variable 	i loop 100

change_box 	all x scale ${scale} y scale ${scale} z scale ${scale} remap
change_box 	all x scale 1.00104968586512 y scale ${scale} z scale ${scale} remap
change_box 	all x scale 1.00104968586512 y scale 1.00104968586512 z scale ${scale} remap
change_box 	all x scale 1.00104968586512 y scale 1.00104968586512 z scale 1.00104968586512 remap
  triclinic box = (-0.345133 -0.341925 -0.341925) to (5.77397 5.77076 5.77076) with tilt (0 0 0)
  triclinic box = (-0.345133 -0.345133 -0.341925) to (5.77397 5.77397 5.77076) with tilt (0 0 0)
  triclinic box = (-0.345133 -0.345133 -0.345133) to (5.77397 5.77397 5.77397) with tilt (0 0 0)

# calculate energy
# no energy minimization needed for zincblende

run 		0
WARNING: No fixes defined, atoms won't move (src/verlet.cpp:55)
Per MPI rank memory allocation (min/avg/max) = 2.965 | 2.965 | 2.965 Mbytes
Step Temp PotEng Press Volume 
       0            0   -27.275705   -56647.446       229.12 
Loop time of 1.49012e-06 on 4 procs for 0 steps with 8 atoms

100.7% CPU use with 4 MPI tasks x 1 OpenMP threads

MPI task timing breakdown:
Section |  min time  |  avg time  |  max time  |%varavg| %total
---------------------------------------------------------------
Pair    | 0          | 0          | 0          |   0.0 |  0.00
Neigh   | 0          | 0          | 0          |   0.0 |  0.00
Comm    | 0          | 0          | 0          |   0.0 |  0.00
Output  | 0          | 0          | 0          |   0.0 |  0.00
Modify  | 0          | 0          | 0          |   0.0 |  0.00
Other   |            | 1.49e-06   |            |       |100.00

Nlocal:    2 ave 5 max 1 min
Histogram: 3 0 0 0 0 0 0 0 0 1
Nghost:    199 ave 200 max 196 min
Histogram: 1 0 0 0 0 0 0 0 0 3
Neighs:    0 ave 0 max 0 min
Histogram: 4 0 0 0 0 0 0 0 0 0
FullNghs:  92 ave 230 max 46 min
Histogram: 3 0 0 0 0 0 0 0 0 1

Total # of neighbors = 368
Ave neighs/atom = 46
Neighbor list builds = 0
Dangerous builds = 0
print 		"${volatom} ${eatom}" append ${evsvolfile}
print 		"${volatom} ${eatom}" append evsvol.dat
28.6400000000005 -3.40946315450402

next 		i
jump 		SELF loop
variable 	i loop ${ndelta}
variable 	i loop 100

change_box 	all x scale ${scale} y scale ${scale} z scale ${scale} remap
change_box 	all x scale 1.00104639071808 y scale ${scale} z scale ${scale} remap
change_box 	all x scale 1.00104639071808 y scale 1.00104639071808 z scale ${scale} remap
change_box 	all x scale 1.00104639071808 y scale 1.00104639071808 z scale 1.00104639071808 remap
  triclinic box = (-0.348335 -0.345133 -0.345133) to (5.77717 5.77397 5.77397) with tilt (0 0 0)
  triclinic box = (-0.348335 -0.348335 -0.345133) to (5.77717 5.77717 5.77397) with tilt (0 0 0)
  triclinic box = (-0.348335 -0.348335 -0.348335) to (5.77717 5.77717 5.77717) with tilt (0 0 0)

# calculate energy
# no energy minimization needed for zincblende

run 		0
WARNING: No fixes defined, atoms won't move (src/verlet.cpp:55)
Per MPI rank memory allocation (min/avg/max) = 2.965 | 2.965 | 2.965 Mbytes
Step Temp PotEng Press Volume 
       0            0   -27.250095   -57328.932       229.84 
Loop time of 1.43051e-06 on 4 procs for 0 steps with 8 atoms

122.3% CPU use with 4 MPI tasks x 1 OpenMP threads

MPI task timing breakdown:
Section |  min time  |  avg time  |  max time  |%varavg| %total
---------------------------------------------------------------
Pair    | 0          | 0          | 0          |   0.0 |  0.00
Neigh   | 0          | 0          | 0          |   0.0 |  0.00
Comm    | 0          | 0          | 0          |   0.0 |  0.00
Output  | 0          | 0          | 0          |   0.0 |  0.00
Modify  | 0          | 0          | 0          |   0.0 |  0.00
Other   |            | 1.431e-06  |            |       |100.00

Nlocal:    2 ave 5 max 1 min
Histogram: 3 0 0 0 0 0 0 0 0 1
Nghost:    199 ave 200 max 196 min
Histogram: 1 0 0 0 0 0 0 0 0 3
Neighs:    0 ave 0 max 0 min
Histogram: 4 0 0 0 0 0 0 0 0 0
FullNghs:  92 ave 230 max 46 min
Histogram: 3 0 0 0 0 0 0 0 0 1

Total # of neighbors = 368
Ave neighs/atom = 46
Neighbor list builds = 0
Dangerous builds = 0
print 		"${volatom} ${eatom}" append ${evsvolfile}
print 		"${volatom} ${eatom}" append evsvol.dat
28.7300000000009 -3.40626181963491

next 		i
jump 		SELF loop
variable 	i loop ${ndelta}
variable 	i loop 100

change_box 	all x scale ${scale} y scale ${scale} z scale ${scale} remap
change_box 	all x scale 1.00104311619438 y scale ${scale} z scale ${scale} remap
change_box 	all x scale 1.00104311619438 y scale 1.00104311619438 z scale ${scale} remap
change_box 	all x scale 1.00104311619438 y scale 1.00104311619438 z scale 1.00104311619438 remap
  triclinic box = (-0.351529 -0.348335 -0.348335) to (5.78036 5.77717 5.77717) with tilt (0 0 0)
  triclinic box = (-0.351529 -0.351529 -0.348335) to (5.78036 5.78036 5.77717) with tilt (0 0 0)
  triclinic box = (-0.351529 -0.351529 -0.351529) to (5.78036 5.78036 5.78036) with tilt (0 0 0)

# calculate energy
# no energy minimization needed for zincblende

run 		0
WARNING: No fixes defined, atoms won't move (src/verlet.cpp:55)
Per MPI rank memory allocation (min/avg/max) = 2.965 | 2.965 | 2.965 Mbytes
Step Temp PotEng Press Volume 
       0            0   -27.224183   -57988.489       230.56 
Loop time of 1.78814e-06 on 4 procs for 0 steps with 8 atoms

125.8% CPU use with 4 MPI tasks x 1 OpenMP threads

MPI task timing breakdown:
Section |  min time  |  avg time  |  max time  |%varavg| %total
---------------------------------------------------------------
Pair    | 0          | 0          | 0          |   0.0 |  0.00
Neigh   | 0          | 0          | 0          |   0.0 |  0.00
Comm    | 0          | 0          | 0          |   0.0 |  0.00
Output  | 0          | 0          | 0          |   0.0 |  0.00
Modify  | 0          | 0          | 0          |   0.0 |  0.00
Other   |            | 1.788e-06  |            |       |100.00

Nlocal:    2 ave 5 max 1 min
Histogram: 3 0 0 0 0 0 0 0 0 1
Nghost:    199 ave 200 max 196 min
Histogram: 1 0 0 0 0 0 0 0 0 3
Neighs:    0 ave 0 max 0 min
Histogram: 4 0 0 0 0 0 0 0 0 0
FullNghs:  92 ave 230 max 46 min
Histogram: 3 0 0 0 0 0 0 0 0 1

Total # of neighbors = 368
Ave neighs/atom = 46
Neighbor list builds = 0
Dangerous builds = 0
print 		"${volatom} ${eatom}" append ${evsvolfile}
print 		"${volatom} ${eatom}" append evsvol.dat
28.8200000000006 -3.40302282167349

next 		i
jump 		SELF loop
variable 	i loop ${ndelta}
variable 	i loop 100

change_box 	all x scale ${scale} y scale ${scale} z scale ${scale} remap
change_box 	all x scale 1.00103986210104 y scale ${scale} z scale ${scale} remap
change_box 	all x scale 1.00103986210104 y scale 1.00103986210104 z scale ${scale} remap
change_box 	all x scale 1.00103986210104 y scale 1.00103986210104 z scale 1.00103986210104 remap
  triclinic box = (-0.354718 -0.351529 -0.351529) to (5.78355 5.78036 5.78036) with tilt (0 0 0)
  triclinic box = (-0.354718 -0.354718 -0.351529) to (5.78355 5.78355 5.78036) with tilt (0 0 0)
  triclinic box = (-0.354718 -0.354718 -0.354718) to (5.78355 5.78355 5.78355) with tilt (0 0 0)

# calculate energy
# no energy minimization needed for zincblende

run 		0
WARNING: No fixes defined, atoms won't move (src/verlet.cpp:55)
Per MPI rank memory allocation (min/avg/max) = 2.965 | 2.965 | 2.965 Mbytes
Step Temp PotEng Press Volume 
       0            0   -27.197979   -58626.644       231.28 
Loop time of 1.60933e-06 on 4 procs for 0 steps with 8 atoms

124.3% CPU use with 4 MPI tasks x 1 OpenMP threads

MPI task timing breakdown:
Section |  min time  |  avg time  |  max time  |%varavg| %total
---------------------------------------------------------------
Pair    | 0          | 0          | 0          |   0.0 |  0.00
Neigh   | 0          | 0          | 0          |   0.0 |  0.00
Comm    | 0          | 0          | 0          |   0.0 |  0.00
Output  | 0          | 0          | 0          |   0.0 |  0.00
Modify  | 0          | 0          | 0          |   0.0 |  0.00
Other   |            | 1.609e-06  |            |       |100.00

Nlocal:    2 ave 5 max 1 min
Histogram: 3 0 0 0 0 0 0 0 0 1
Nghost:    199 ave 200 max 196 min
Histogram: 1 0 0 0 0 0 0 0 0 3
Neighs:    0 ave 0 max 0 min
Histogram: 4 0 0 0 0 0 0 0 0 0
FullNghs:  92 ave 230 max 46 min
Histogram: 3 0 0 0 0 0 0 0 0 1

Total # of neighbors = 368
Ave neighs/atom = 46
Neighbor list builds = 0
Dangerous builds = 0
print 		"${volatom} ${eatom}" append ${evsvolfile}
print 		"${volatom} ${eatom}" append evsvol.dat
28.9100000000005 -3.39974737758459

next 		i
jump 		SELF loop
variable 	i loop ${ndelta}
variable 	i loop 100

change_box 	all x scale ${scale} y scale ${scale} z scale ${scale} remap
change_box 	all x scale 1.00103662824744 y scale ${scale} z scale ${scale} remap
change_box 	all x scale 1.00103662824744 y scale 1.00103662824744 z scale ${scale} remap
change_box 	all x scale 1.00103662824744 y scale 1.00103662824744 z scale 1.00103662824744 remap
  triclinic box = (-0.357899 -0.354718 -0.354718) to (5.78673 5.78355 5.78355) with tilt (0 0 0)
  triclinic box = (-0.357899 -0.357899 -0.354718) to (5.78673 5.78673 5.78355) with tilt (0 0 0)
  triclinic box = (-0.357899 -0.357899 -0.357899) to (5.78673 5.78673 5.78673) with tilt (0 0 0)

# calculate energy
# no energy minimization needed for zincblende

run 		0
WARNING: No fixes defined, atoms won't move (src/verlet.cpp:55)
Per MPI rank memory allocation (min/avg/max) = 2.965 | 2.965 | 2.965 Mbytes
Step Temp PotEng Press Volume 
       0            0   -27.171493   -59243.909          232 
Loop time of 1.43051e-06 on 4 procs for 0 steps with 8 atoms

104.9% CPU use with 4 MPI tasks x 1 OpenMP threads

MPI task timing breakdown:
Section |  min time  |  avg time  |  max time  |%varavg| %total
---------------------------------------------------------------
Pair    | 0          | 0          | 0          |   0.0 |  0.00
Neigh   | 0          | 0          | 0          |   0.0 |  0.00
Comm    | 0          | 0          | 0          |   0.0 |  0.00
Output  | 0          | 0          | 0          |   0.0 |  0.00
Modify  | 0          | 0          | 0          |   0.0 |  0.00
Other   |            | 1.431e-06  |            |       |100.00

Nlocal:    2 ave 5 max 1 min
Histogram: 3 0 0 0 0 0 0 0 0 1
Nghost:    199 ave 200 max 196 min
Histogram: 1 0 0 0 0 0 0 0 0 3
Neighs:    0 ave 0 max 0 min
Histogram: 4 0 0 0 0 0 0 0 0 0
FullNghs:  92 ave 230 max 46 min
Histogram: 3 0 0 0 0 0 0 0 0 1

Total # of neighbors = 368
Ave neighs/atom = 46
Neighbor list builds = 0
Dangerous builds = 0
print 		"${volatom} ${eatom}" append ${evsvolfile}
print 		"${volatom} ${eatom}" append evsvol.dat
29.0000000000008 -3.39643667514477

next 		i
jump 		SELF loop
Total wall time: 0:00:00
