ITEM: TIMESTEP
50
ITEM: NUMBER OF ATOMS
34
ITEM: BOX BOUNDS pp pp pp
0.0000000000000000e+00 3.0000000000000000e+01
0.0000000000000000e+00 3.0000000000000000e+01
0.0000000000000000e+00 3.0000000000000000e+01
ITEM: ATOMS id type xs ys zs
6 1 0.370674 0.420404 0.47149
14 1 0.460672 0.41852 0.432087
11 1 0.639652 0.504553 0.436168
21 1 0.540601 0.374123 0.443148
24 1 0.60701 0.421969 0.486349
25 1 0.566436 0.459227 0.413766
32 2 0.519564 0.437082 0.49495
34 2 0.56935 0.500032 0.491838
9 1 0.414161 0.497752 0.432411
10 1 0.374355 0.574559 0.469254
12 1 0.490502 0.499703 0.37824
17 1 0.473407 0.578249 0.422754
33 2 0.497297 0.503375 0.458739
16 1 0.561339 0.560137 0.419936
18 1 0.616909 0.575654 0.489699
19 1 0.537545 0.642161 0.455445
31 2 0.524729 0.566645 0.49895
2 1 0.473742 0.420536 0.579327
4 1 0.450202 0.371666 0.506856
8 1 0.380988 0.421172 0.560588
15 1 0.418899 0.498224 0.583519
29 2 0.437456 0.457696 0.509079
3 1 0.647934 0.491881 0.524905
7 1 0.572877 0.44522 0.568745
22 1 0.539329 0.366444 0.529206
27 1 0.516313 0.492195 0.622096
28 2 0.500476 0.497512 0.54372
1 1 0.393266 0.591305 0.55498
13 1 0.491759 0.576225 0.582494
23 1 0.46575 0.63209 0.510436
26 1 0.358202 0.500111 0.514116
30 2 0.442022 0.540367 0.508884
5 1 0.562491 0.628751 0.540272
20 1 0.580384 0.535563 0.568062
ITEM: TIMESTEP
100
ITEM: NUMBER OF ATOMS
34
ITEM: BOX BOUNDS pp pp pp
0.0000000000000000e+00 3.0000000000000000e+01
0.0000000000000000e+00 3.0000000000000000e+01
0.0000000000000000e+00 3.0000000000000000e+01
ITEM: ATOMS id type xs ys zs
6 1 0.38339 0.422514 0.460344
14 1 0.467869 0.426074 0.418963
11 1 0.634436 0.500782 0.447058
21 1 0.539342 0.362255 0.443072
24 1 0.607019 0.415614 0.482631
25 1 0.55882 0.450103 0.40875
32 2 0.519299 0.429345 0.495615
34 2 0.563509 0.494955 0.493034
9 1 0.405032 0.503658 0.42847
10 1 0.382581 0.595449 0.471204
12 1 0.473409 0.505357 0.369208
17 1 0.465713 0.575128 0.424116
33 2 0.49519 0.499776 0.452295
16 1 0.553464 0.544388 0.413497
18 1 0.609785 0.576555 0.49559
19 1 0.544303 0.628478 0.452246
31 2 0.520913 0.564184 0.502711
2 1 0.481821 0.422776 0.577365
4 1 0.455293 0.371965 0.500427
8 1 0.394209 0.422927 0.559961
15 1 0.433952 0.498902 0.589708
29 2 0.445526 0.460858 0.500881
3 1 0.642587 0.498426 0.536451
7 1 0.57173 0.442976 0.566743
22 1 0.538722 0.357723 0.53913
27 1 0.518657 0.500853 0.627991
28 2 0.503204 0.500418 0.544728
1 1 0.396527 0.586062 0.561809
13 1 0.487436 0.581121 0.581247
23 1 0.459209 0.631326 0.509639
26 1 0.37272 0.502048 0.516455
30 2 0.445093 0.545791 0.506933
5 1 0.546876 0.633597 0.54507
20 1 0.579408 0.545714 0.575106
ITEM: TIMESTEP
150
ITEM: NUMBER OF ATOMS
34
ITEM: BOX BOUNDS pp pp pp
0.0000000000000000e+00 3.0000000000000000e+01
0.0000000000000000e+00 3.0000000000000000e+01
0.0000000000000000e+00 3.0000000000000000e+01
ITEM: ATOMS id type xs ys zs
6 1 0.381103 0.427173 0.456241
14 1 0.463469 0.423786 0.419959
11 1 0.635095 0.489665 0.434837
21 1 0.534183 0.364726 0.447081
24 1 0.608291 0.421057 0.486229
25 1 0.550474 0.452819 0.417137
32 2 0.517537 0.432912 0.496891
34 2 0.566618 0.495948 0.489256
9 1 0.41011 0.511182 0.433931
10 1 0.388429 0.5908 0.472538
12 1 0.484054 0.501346 0.378173
17 1 0.469829 0.583118 0.422983
33 2 0.492409 0.503151 0.463539
16 1 0.560402 0.548075 0.414115
18 1 0.610901 0.57769 0.484244
19 1 0.54642 0.637378 0.446733
31 2 0.522227 0.567843 0.491783
2 1 0.479788 0.419354 0.577537
4 1 0.45364 0.373717 0.500027
8 1 0.388254 0.410108 0.554119
15 1 0.427092 0.490101 0.587128
29 2 0.441058 0.460137 0.505719
3 1 0.642092 0.496387 0.525811
7 1 0.573571 0.454987 0.578101
22 1 0.553802 0.368973 0.542335
27 1 0.507428 0.486892 0.63475
28 2 0.505807 0.499059 0.54521
1 1 0.390731 0.583483 0.567587
13 1 0.485183 0.573503 0.585611
23 1 0.466462 0.627757 0.508044
26 1 0.363447 0.499436 0.515739
30 2 0.445631 0.54325 0.514878
5 1 0.556033 0.63384 0.536103
20 1 0.574883 0.551284 0.568595
ITEM: TIMESTEP
200
ITEM: NUMBER OF ATOMS
34
ITEM: BOX BOUNDS pp pp pp
0.0000000000000000e+00 3.0000000000000000e+01
0.0000000000000000e+00 3.0000000000000000e+01
0.0000000000000000e+00 3.0000000000000000e+01
ITEM: ATOMS id type xs ys zs
6 1 0.373207 0.42292 0.467613
14 1 0.463447 0.427664 0.42876
11 1 0.639037 0.50454 0.43171
21 1 0.534617 0.362189 0.452437
24 1 0.610087 0.423976 0.487771
25 1 0.558939 0.451995 0.410805
32 2 0.520458 0.432832 0.496015
34 2 0.57744 0.501903 0.492234
9 1 0.410007 0.502907 0.432081
10 1 0.379255 0.587056 0.46531
12 1 0.480084 0.502339 0.369156
17 1 0.46633 0.579075 0.432523
33 2 0.499469 0.500916 0.456389
16 1 0.557509 0.547541 0.410711
18 1 0.61833 0.581249 0.48416
19 1 0.542405 0.631863 0.45551
31 2 0.528897 0.563208 0.500213
2 1 0.472164 0.419609 0.575774
4 1 0.454593 0.371204 0.501597
8 1 0.382083 0.420372 0.556333
15 1 0.423755 0.496305 0.58783
29 2 0.438964 0.461126 0.505085
3 1 0.65835 0.497377 0.519409
7 1 0.572163 0.455297 0.56892
22 1 0.546034 0.366236 0.546571
27 1 0.506136 0.489909 0.627398
28 2 0.504669 0.498002 0.543033
1 1 0.393814 0.580119 0.558736
13 1 0.489659 0.57238 0.586423
23 1 0.45994 0.62611 0.513024
26 1 0.358102 0.506349 0.509586
30 2 0.44504 0.538943 0.507017
5 1 0.557052 0.629378 0.547858
20 1 0.584052 0.545863 0.572003
ITEM: TIMESTEP
250
ITEM: NUMBER OF ATOMS
34
ITEM: BOX BOUNDS pp pp pp
0.0000000000000000e+00 3.0000000000000000e+01
0.0000000000000000e+00 3.0000000000000000e+01
0.0000000000000000e+00 3.0000000000000000e+01
ITEM: ATOMS id type xs ys zs
6 1 0.387001 0.419551 0.462208
14 1 0.465272 0.420236 0.417173
11 1 0.630146 0.49819 0.437488
21 1 0.538662 0.365205 0.444751
24 1 0.607094 0.415168 0.480672
25 1 0.554447 0.453462 0.408594
32 2 0.51538 0.426647 0.499984
34 2 0.56185 0.494506 0.488117
9 1 0.410238 0.504278 0.426363
10 1 0.386224 0.58515 0.468428
12 1 0.491285 0.49893 0.365727
17 1 0.463631 0.586233 0.424173
33 2 0.490011 0.501867 0.44868
16 1 0.554008 0.552878 0.418539
18 1 0.60565 0.577191 0.492026
19 1 0.541953 0.63672 0.452353
31 2 0.520713 0.565193 0.504133
2 1 0.484891 0.423566 0.587668
4 1 0.455122 0.370712 0.507126
8 1 0.397138 0.420728 0.556488
15 1 0.431 0.505925 0.592246
29 2 0.445156 0.46434 0.503932
3 1 0.639298 0.493948 0.529823
7 1 0.578045 0.435415 0.562626
22 1 0.538496 0.356631 0.5402
27 1 0.521305 0.498243 0.637369
28 2 0.506939 0.497995 0.547405
1 1 0.394087 0.592655 0.557487
13 1 0.48404 0.582822 0.584
23 1 0.460115 0.636421 0.504287
26 1 0.367767 0.500597 0.51534
30 2 0.446126 0.542861 0.512164
5 1 0.547467 0.631682 0.550217
20 1 0.573812 0.54137 0.574013
ITEM: TIMESTEP
300
ITEM: NUMBER OF ATOMS
34
ITEM: BOX BOUNDS pp pp pp
0.0000000000000000e+00 3.0000000000000000e+01
0.0000000000000000e+00 3.0000000000000000e+01
0.0000000000000000e+00 3.0000000000000000e+01
ITEM: ATOMS id type xs ys zs
6 1 0.38279 0.422596 0.470316
14 1 0.46299 0.427263 0.425396
11 1 0.63535 0.497193 0.435033
21 1 0.527552 0.364662 0.441447
24 1 0.60477 0.418716 0.492019
25 1 0.552649 0.456212 0.413864
32 2 0.521023 0.434242 0.494997
34 2 0.574532 0.501294 0.493724
9 1 0.409169 0.505094 0.43327
10 1 0.385731 0.587222 0.467857
12 1 0.482214 0.50707 0.376586
17 1 0.468132 0.581057 0.427486
33 2 0.497547 0.501532 0.460256
16 1 0.564332 0.549478 0.411996
18 1 0.611555 0.580011 0.483469
19 1 0.539495 0.63042 0.441355
31 2 0.528825 0.566297 0.495148
2 1 0.482275 0.411849 0.575364
4 1 0.453362 0.374914 0.498396
8 1 0.384059 0.413644 0.562643
15 1 0.422023 0.498625 0.584129
29 2 0.443979 0.458687 0.509278
3 1 0.644507 0.495367 0.542913
7 1 0.569744 0.452511 0.574697
22 1 0.549588 0.36269 0.532598
27 1 0.512406 0.496615 0.624544
28 2 0.505861 0.501722 0.540774
1 1 0.396624 0.580317 0.562765
13 1 0.487778 0.574991 0.582755
23 1 0.465654 0.626879 0.510222
26 1 0.366477 0.498688 0.516409
30 2 0.446917 0.540868 0.503476
5 1 0.550398 0.637422 0.541895
20 1 0.577306 0.545744 0.571965
ITEM: TIMESTEP
350
ITEM: NUMBER OF ATOMS
34
ITEM: BOX BOUNDS pp pp pp
0.0000000000000000e+00 3.0000000000000000e+01
0.0000000000000000e+00 3.0000000000000000e+01
0.0000000000000000e+00 3.0000000000000000e+01
ITEM: ATOMS id type xs ys zs
6 1 0.370858 0.422233 0.462228
14 1 0.458 0.421936 0.42318
11 1 0.640563 0.506876 0.431658
21 1 0.528016 0.366459 0.448336
24 1 0.611899 0.420299 0.488384
25 1 0.561841 0.454375 0.419964
32 2 0.522261 0.437165 0.495934
34 2 0.572532 0.497677 0.493696
9 1 0.405437 0.508823 0.430695
10 1 0.379822 0.586095 0.473232
12 1 0.484588 0.50459 0.369478
17 1 0.469349 0.57723 0.424818
33 2 0.494181 0.50122 0.455555
16 1 0.559051 0.544926 0.417427
18 1 0.612072 0.572226 0.48934
19 1 0.549632 0.627105 0.451378
31 2 0.52107 0.56151 0.500475
2 1 0.483224 0.419392 0.579337
4 1 0.455139 0.37855 0.501034
8 1 0.38961 0.417213 0.552351
15 1 0.422536 0.498376 0.585655
29 2 0.441203 0.463145 0.503946
3 1 0.650595 0.501893 0.52973
7 1 0.578586 0.452823 0.57064
22 1 0.544021 0.365197 0.538545
27 1 0.518593 0.49498 0.629321
28 2 0.50136 0.497982 0.546263
1 1 0.391464 0.579971 0.569655
13 1 0.484573 0.577605 0.580096
23 1 0.458299 0.624371 0.504134
26 1 0.364671 0.503539 0.514643
30 2 0.441943 0.54255 0.50759
5 1 0.556554 0.631514 0.543017
20 1 0.574241 0.540667 0.569672
ITEM: TIMESTEP
400
ITEM: NUMBER OF ATOMS
34
ITEM: BOX BOUNDS pp pp pp
0.0000000000000000e+00 3.0000000000000000e+01
0.0000000000000000e+00 3.0000000000000000e+01
0.0000000000000000e+00 3.0000000000000000e+01
ITEM: ATOMS id type xs ys zs
6 1 0.385639 0.419211 0.465384
14 1 0.466856 0.420012 0.427684
11 1 0.626661 0.494883 0.437498
21 1 0.536057 0.359402 0.449117
24 1 0.601723 0.419644 0.483684
25 1 0.555697 0.449852 0.407307
32 2 0.519207 0.431746 0.49912
34 2 0.562483 0.499944 0.489657
9 1 0.411419 0.503815 0.430274
10 1 0.387487 0.585809 0.466259
12 1 0.488331 0.505871 0.362797
17 1 0.468028 0.581283 0.429138
33 2 0.494981 0.497732 0.447238
16 1 0.550973 0.552218 0.41355
18 1 0.606926 0.573911 0.488051
19 1 0.534306 0.646074 0.454202
31 2 0.525107 0.571204 0.497967
2 1 0.483419 0.422247 0.580696
4 1 0.4581 0.370858 0.505015
8 1 0.393344 0.421298 0.554375
15 1 0.430773 0.501529 0.584891
29 2 0.446209 0.464007 0.503569
3 1 0.637742 0.492125 0.524386
7 1 0.568136 0.446673 0.572193
22 1 0.541933 0.360579 0.539411
27 1 0.511578 0.495724 0.634773
28 2 0.508463 0.501644 0.546557
1 1 0.396423 0.585314 0.554055
13 1 0.490156 0.571671 0.590181
23 1 0.462266 0.630427 0.514253
26 1 0.370254 0.502756 0.513063
30 2 0.453352 0.544802 0.505952
5 1 0.547621 0.633492 0.551924
20 1 0.582346 0.54676 0.571728
ITEM: TIMESTEP
450
ITEM: NUMBER OF ATOMS
34
ITEM: BOX BOUNDS pp pp pp
0.0000000000000000e+00 3.0000000000000000e+01
0.0000000000000000e+00 3.0000000000000000e+01
0.0000000000000000e+00 3.0000000000000000e+01
ITEM: ATOMS id type xs ys zs
6 1 0.381061 0.416669 0.464477
14 1 0.462774 0.422581 0.424262
11 1 0.635612 0.500864 0.435272
21 1 0.533596 0.368077 0.451461
24 1 0.604943 0.417489 0.482836
25 1 0.552773 0.45874 0.416245
32 2 0.515759 0.433521 0.494454
34 2 0.567939 0.497725 0.492779
9 1 0.416294 0.497813 0.430352
10 1 0.386221 0.581489 0.469149
12 1 0.487247 0.512933 0.378778
17 1 0.468233 0.585151 0.430973
33 2 0.4921 0.498394 0.459873
16 1 0.562211 0.552175 0.414975
18 1 0.614692 0.579167 0.494878
19 1 0.545708 0.633521 0.449413
31 2 0.522832 0.568091 0.496654
2 1 0.4777 0.418981 0.580523
4 1 0.455073 0.372021 0.504252
8 1 0.384844 0.419919 0.560799
15 1 0.426685 0.496962 0.589036
29 2 0.439791 0.456909 0.507197
3 1 0.644278 0.498809 0.526742
7 1 0.571395 0.447133 0.56178
22 1 0.542039 0.367417 0.54403
27 1 0.51705 0.49465 0.61891
28 2 0.505801 0.499327 0.53948
1 1 0.393853 0.582486 0.564141
13 1 0.484072 0.577092 0.577119
23 1 0.458364 0.6261 0.504727
26 1 0.366333 0.500659 0.514136
30 2 0.446265 0.538437 0.508283
5 1 0.560811 0.629823 0.544033
20 1 0.571781 0.545783 0.56746
ITEM: TIMESTEP
500
ITEM: NUMBER OF ATOMS
34
ITEM: BOX BOUNDS pp pp pp
0.0000000000000000e+00 3.0000000000000000e+01
0.0000000000000000e+00 3.0000000000000000e+01
0.0000000000000000e+00 3.0000000000000000e+01
ITEM: ATOMS id type xs ys zs
6 1 0.378311 0.424828 0.462217
14 1 0.456211 0.423956 0.42022
11 1 0.635527 0.497296 0.441705
21 1 0.528988 0.372504 0.443557
24 1 0.606827 0.422048 0.49161
25 1 0.560397 0.45218 0.412881
32 2 0.517458 0.44181 0.492547
34 2 0.572501 0.499356 0.497164
9 1 0.40655 0.505591 0.435287
10 1 0.372268 0.585119 0.471564
12 1 0.488652 0.494731 0.370011
17 1 0.467141 0.575717 0.42397
33 2 0.494144 0.500024 0.452219
16 1 0.55937 0.544883 0.408498
18 1 0.611094 0.574512 0.487601
19 1 0.543122 0.629277 0.454234
31 2 0.521212 0.56458 0.49961
2 1 0.486151 0.426569 0.576081
4 1 0.453394 0.378944 0.497402
8 1 0.398267 0.414768 0.55527
15 1 0.429595 0.501414 0.585461
29 2 0.442779 0.463512 0.505123
3 1 0.65091 0.492239 0.534693
7 1 0.576082 0.44779 0.578332
22 1 0.541044 0.369627 0.531716
27 1 0.515455 0.495097 0.631073
28 2 0.510719 0.50289 0.54405
1 1 0.393912 0.57955 0.558546
13 1 0.488829 0.575548 0.585131
23 1 0.461161 0.626243 0.51177
26 1 0.362117 0.501406 0.521066
30 2 0.441782 0.541761 0.503179
5 1 0.547467 0.631033 0.543354
20 1 0.580809 0.548877 0.570369
ITEM: TIMESTEP
550
ITEM: NUMBER OF ATOMS
34
ITEM: BOX BOUNDS pp pp pp
0.0000000000000000e+00 3.0000000000000000e+01
0.0000000000000000e+00 3.0000000000000000e+01
0.0000000000000000e+00 3.0000000000000000e+01
ITEM: ATOMS id type xs ys zs
6 1 0.376103 0.421031 0.471023
14 1 0.468749 0.424639 0.424139
11 1 0.634904 0.49852 0.440313
21 1 0.530798 0.359605 0.445703
24 1 0.607019 0.417388 0.481358
25 1 0.554338 0.452709 0.412587
32 2 0.523683 0.430845 0.496107
34 2 0.563697 0.50038 0.491305
9 1 0.409756 0.498153 0.425325
10 1 0.38553 0.583946 0.472716
12 1 0.492504 0.508512 0.370558
17 1 0.470272 0.578048 0.418583
33 2 0.492255 0.50411 0.456061
16 1 0.557098 0.54892 0.42099
18 1 0.607478 0.580409 0.491726
19 1 0.537715 0.638443 0.452321
31 2 0.522487 0.565483 0.496185
2 1 0.478649 0.413614 0.575213
4 1 0.45472 0.368442 0.499814
8 1 0.387269 0.421861 0.560071
15 1 0.430772 0.502902 0.591927
29 2 0.444642 0.454635 0.504576
3 1 0.643986 0.507929 0.527897
7 1 0.569446 0.438362 0.568654
22 1 0.546952 0.359352 0.533441
27 1 0.511987 0.499901 0.629416
28 2 0.501854 0.492816 0.547237
1 1 0.396477 0.58432 0.565108
13 1 0.489794 0.581662 0.581826
23 1 0.464095 0.629215 0.507462
26 1 0.371399 0.505429 0.517787
30 2 0.445227 0.543762 0.513399
5 1 0.553102 0.634331 0.539165
20 1 0.572739 0.547078 0.571988
ITEM: TIMESTEP
600
ITEM: NUMBER OF ATOMS
34
ITEM: BOX BOUNDS pp pp pp
0.0000000000000000e+00 3.0000000000000000e+01
0.0000000000000000e+00 3.0000000000000000e+01
0.0000000000000000e+00 3.0000000000000000e+01
ITEM: ATOMS id type xs ys zs
6 1 0.378972 0.413184 0.467943
14 1 0.466713 0.427338 0.418425
11 1 0.637609 0.500561 0.437278
21 1 0.537547 0.371364 0.440521
24 1 0.604589 0.417776 0.489489
25 1 0.554564 0.452826 0.410008
32 2 0.51913 0.431466 0.493923
34 2 0.569839 0.499795 0.486006
9 1 0.414629 0.503434 0.434968
10 1 0.381606 0.587503 0.464622
12 1 0.48287 0.505 0.375789
17 1 0.472476 0.577753 0.429364
33 2 0.497339 0.498528 0.459116
16 1 0.557488 0.549729 0.413766
18 1 0.614976 0.575611 0.486744
19 1 0.54667 0.636304 0.454102
31 2 0.526196 0.563677 0.498744
2 1 0.47977 0.420173 0.581574
4 1 0.452161 0.370661 0.511432
8 1 0.388719 0.417271 0.558152
15 1 0.425695 0.497897 0.583873
29 2 0.4412 0.460679 0.506714
3 1 0.640816 0.497601 0.524373
7 1 0.575894 0.455799 0.566368
22 1 0.538476 0.366142 0.542272
27 1 0.515958 0.493954 0.625101
28 2 0.508415 0.498517 0.542649
1 1 0.39081 0.582473 0.559047
13 1 0.486214 0.571117 0.58236
23 1 0.464712 0.631849 0.512532
26 1 0.36087 0.500784 0.518455
30 2 0.442255 0.544966 0.507071
5 1 0.547916 0.6304 0.546763
20 1 0.57869 0.546904 0.568102
ITEM: TIMESTEP
650
ITEM: NUMBER OF ATOMS
34
ITEM: BOX BOUNDS pp pp pp
0.0000000000000000e+00 3.0000000000000000e+01
0.0000000000000000e+00 3.0000000000000000e+01
0.0000000000000000e+00 3.0000000000000000e+01
ITEM: ATOMS id type xs ys zs
6 1 0.380499 0.425858 0.464135
14 1 0.460325 0.431801 0.421742
11 1 0.632934 0.498083 0.437475
21 1 0.534581 0.368556 0.446993
24 1 0.61106 0.417979 0.48027
25 1 0.548138 0.45404 0.414272
32 2 0.522856 0.436792 0.500315
34 2 0.568206 0.503227 0.491351
9 1 0.410346 0.505639 0.423721
10 1 0.383807 0.581652 0.466988
12 1 0.484548 0.50857 0.369491
17 1 0.465513 0.577272 0.423109
33 2 0.490734 0.500823 0.456123
16 1 0.55392 0.548286 0.416831
18 1 0.612923 0.572943 0.492895
19 1 0.539087 0.629466 0.453657
31 2 0.518855 0.564776 0.498346
2 1 0.484589 0.419545 0.581827
4 1 0.46174 0.37201 0.504652
8 1 0.394608 0.423855 0.553793
15 1 0.426404 0.49979 0.592311
29 2 0.447235 0.457872 0.502979
3 1 0.650187 0.489505 0.523651
7 1 0.572585 0.450695 0.570582
22 1 0.54783 0.36624 0.538493
27 1 0.510874 0.506231 0.632559
28 2 0.50593 0.505879 0.547749
1 1 0.391774 0.579317 0.562523
13 1 0.482021 0.579732 0.582025
23 1 0.45885 0.627174 0.504745
26 1 0.362093 0.500155 0.516702
30 2 0.442857 0.537979 0.504095
5 1 0.553688 0.622122 0.545952
20 1 0.587052 0.539131 0.578035
ITEM: TIMESTEP
700
ITEM: NUMBER OF ATOMS
34
ITEM: BOX BOUNDS pp pp pp
0.0000000000000000e+00 3.0000000000000000e+01
0.0000000000000000e+00 3.0000000000000000e+01
0.0000000000000000e+00 3.0000000000000000e+01
ITEM: ATOMS id type xs ys zs
6 1 0.380431 0.417901 0.470123
14 1 0.465383 0.424821 0.426058
11 1 0.639971 0.497713 0.440459
21 1 0.529231 0.362356 0.444329
24 1 0.602148 0.417702 0.486085
25 1 0.557452 0.447622 0.409091
32 2 0.51526 0.431077 0.494522
34 2 0.569653 0.494729 0.492079
9 1 0.413654 0.502944 0.43258
10 1 0.383322 0.587263 0.472386
12 1 0.490426 0.498753 0.372836
17 1 0.464681 0.580514 0.42633
33 2 0.501311 0.500507 0.457478
16 1 0.552855 0.554527 0.415399
18 1 0.608831 0.57418 0.488611
19 1 0.536285 0.640085 0.458123
31 2 0.523407 0.566615 0.499865
2 1 0.482717 0.421575 0.578081
4 1 0.452257 0.372614 0.499091
8 1 0.395885 0.412892 0.557574
15 1 0.428586 0.501148 0.585188
29 2 0.44475 0.464385 0.508934
3 1 0.644561 0.496102 0.53129
7 1 0.575266 0.441927 0.573352
22 1 0.543806 0.363834 0.530668
27 1 0.519769 0.493438 0.627158
28 2 0.506774 0.498358 0.53984
1 1 0.394802 0.588492 0.560525
13 1 0.483609 0.577551 0.577813
23 1 0.461447 0.632895 0.50753
26 1 0.368911 0.503792 0.517074
30 2 0.449303 0.543585 0.506726
5 1 0.550341 0.639659 0.543205
20 1 0.567179 0.548143 0.569368
ITEM: TIMESTEP
750
ITEM: NUMBER OF ATOMS
34
ITEM: BOX BOUNDS pp pp pp
0.0000000000000000e+00 3.0000000000000000e+01
0.0000000000000000e+00 3.0000000000000000e+01
0.0000000000000000e+00 3.0000000000000000e+01
ITEM: ATOMS id type xs ys zs
6 1 0.383258 0.424815 0.467343
14 1 0.461464 0.418764 0.422905
11 1 0.634301 0.498448 0.440503
21 1 0.540896 0.37079 0.450991
24 1 0.609103 0.42173 0.482047
25 1 0.554257 0.454609 0.413303
32 2 0.51874 0.437798 0.49517
34 2 0.566696 0.50083 0.492668
9 1 0.405931 0.504685 0.431276
10 1 0.386524 0.587973 0.469591
12 1 0.484072 0.50521 0.375698
17 1 0.474406 0.579654 0.42762
33 2 0.491232 0.500483 0.457899
16 1 0.560481 0.546541 0.413681
18 1 0.610824 0.583675 0.488071
19 1 0.547657 0.631383 0.444977
31 2 0.521366 0.564635 0.496471
2 1 0.480582 0.419574 0.581111
4 1 0.457858 0.373429 0.501821
8 1 0.379168 0.43038 0.560455
15 1 0.428569 0.497485 0.590085
29 2 0.441701 0.461784 0.509437
3 1 0.646952 0.498916 0.527927
7 1 0.57072 0.444576 0.562951
22 1 0.543756 0.356865 0.535994
27 1 0.5199 0.491191 0.62242
28 2 0.50262 0.498191 0.54458
1 1 0.389357 0.57479 0.563935
13 1 0.484115 0.573427 0.586783
23 1 0.458458 0.625458 0.508861
26 1 0.368753 0.50285 0.512973
30 2 0.446189 0.540312 0.507166
5 1 0.548274 0.63176 0.541056
20 1 0.577156 0.548634 0.573612
ITEM: TIMESTEP
800
ITEM: NUMBER OF ATOMS
34
ITEM: BOX BOUNDS pp pp pp
0.0000000000000000e+00 3.0000000000000000e+01
0.0000000000000000e+00 3.0000000000000000e+01
0.0000000000000000e+00 3.0000000000000000e+01
ITEM: ATOMS id type xs ys zs
6 1 0.379961 0.422612 0.461988
14 1 0.463653 0.424156 0.422859
11 1 0.632234 0.50201 0.435392
21 1 0.533101 0.371851 0.444564
24 1 0.605914 0.418115 0.488789
25 1 0.560991 0.453036 0.410116
32 2 0.518153 0.437495 0.492365
34 2 0.567512 0.494389 0.493342
9 1 0.406877 0.504109 0.435888
10 1 0.381259 0.582935 0.470194
12 1 0.489892 0.500425 0.371281
17 1 0.464863 0.581194 0.429416
33 2 0.492074 0.504461 0.453765
16 1 0.552224 0.550502 0.409599
18 1 0.606142 0.570918 0.484092
19 1 0.539635 0.629326 0.457179
31 2 0.52307 0.561896 0.505577
2 1 0.480655 0.425202 0.583907
4 1 0.45437 0.373541 0.502006
8 1 0.39191 0.414921 0.554418
15 1 0.424322 0.499855 0.583892
29 2 0.445764 0.459935 0.500104
3 1 0.646342 0.488556 0.526754
7 1 0.5801 0.453481 0.573749
22 1 0.547871 0.372361 0.540225
27 1 0.514198 0.498098 0.631894
28 2 0.504761 0.496675 0.543375
1 1 0.394059 0.588552 0.559702
13 1 0.487203 0.574563 0.583671
23 1 0.462776 0.631744 0.506051
26 1 0.367736 0.500182 0.516693
30 2 0.447613 0.541217 0.509372
5 1 0.556907 0.626543 0.546967
20 1 0.575433 0.543542 0.569958
ITEM: TIMESTEP
850
ITEM: NUMBER OF ATOMS
34
ITEM: BOX BOUNDS pp pp pp
0.0000000000000000e+00 3.0000000000000000e+01
0.0000000000000000e+00 3.0000000000000000e+01
0.0000000000000000e+00 3.0000000000000000e+01
ITEM: ATOMS id type xs ys zs
6 1 0.379201 0.421031 0.467771
14 1 0.465973 0.4221 0.423099
11 1 0.628343 0.49054 0.435493
21 1 0.535288 0.364052 0.449867
24 1 0.606543 0.421213 0.486617
25 1 0.547704 0.449784 0.411548
32 2 0.520076 0.430615 0.497605
34 2 0.568617 0.500442 0.494428
9 1 0.413098 0.500513 0.431976
10 1 0.385162 0.583949 0.469584
12 1 0.482121 0.504753 0.369425
17 1 0.467529 0.586297 0.426053
33 2 0.494139 0.497917 0.45737
16 1 0.560585 0.549087 0.420644
18 1 0.610659 0.584878 0.494941
19 1 0.53798 0.640781 0.451912
31 2 0.52127 0.569757 0.497077
2 1 0.481772 0.426005 0.575666
4 1 0.455587 0.369092 0.502367
8 1 0.39172 0.420844 0.554913
15 1 0.42691 0.499084 0.58514
29 2 0.447839 0.462113 0.506462
3 1 0.64261 0.493853 0.531063
7 1 0.57226 0.445784 0.564742
22 1 0.544766 0.35383 0.536501
27 1 0.523169 0.502223 0.626833
28 2 0.504437 0.5017 0.543953
1 1 0.393486 0.581819 0.5631
13 1 0.490757 0.574769 0.583745
23 1 0.456281 0.625843 0.507721
26 1 0.368626 0.503652 0.510813
30 2 0.445491 0.540397 0.510059
5 1 0.556289 0.635435 0.544482
20 1 0.574479 0.547051 0.569863
ITEM: TIMESTEP
900
ITEM: NUMBER OF ATOMS
34
ITEM: BOX BOUNDS pp pp pp
0.0000000000000000e+00 3.0000000000000000e+01
0.0000000000000000e+00 3.0000000000000000e+01
0.0000000000000000e+00 3.0000000000000000e+01
ITEM: ATOMS id type xs ys zs
6 1 0.380127 0.422985 0.469028
14 1 0.462241 0.428396 0.422786
11 1 0.638095 0.499235 0.436619
21 1 0.534629 0.372576 0.434665
24 1 0.603371 0.416143 0.480822
25 1 0.556428 0.459121 0.416974
32 2 0.513963 0.432148 0.494913
34 2 0.572267 0.498874 0.489844
9 1 0.408861 0.503004 0.430393
10 1 0.382446 0.590524 0.467436
12 1 0.487341 0.503024 0.368748
17 1 0.471334 0.579541 0.431205
33 2 0.495841 0.50306 0.456325
16 1 0.563319 0.546455 0.407721
18 1 0.609958 0.574426 0.481795
19 1 0.544903 0.629779 0.452043
31 2 0.52553 0.56479 0.498724
2 1 0.481957 0.421621 0.589225
4 1 0.451829 0.376604 0.50603
8 1 0.38628 0.41728 0.56077
15 1 0.433408 0.497882 0.593414
29 2 0.445035 0.4625 0.50899
3 1 0.645248 0.499908 0.532757
7 1 0.578546 0.447862 0.566674
22 1 0.542711 0.363021 0.542516
27 1 0.518921 0.492919 0.631059
28 2 0.509207 0.496844 0.546008
1 1 0.391573 0.584113 0.553813
13 1 0.48336 0.575212 0.580167
23 1 0.456629 0.628934 0.504055
26 1 0.366547 0.495664 0.518627
30 2 0.445055 0.539054 0.505855
5 1 0.543043 0.632902 0.547665
20 1 0.572811 0.542488 0.572601
ITEM: TIMESTEP
950
ITEM: NUMBER OF ATOMS
34
ITEM: BOX BOUNDS pp pp pp
0.0000000000000000e+00 3.0000000000000000e+01
0.0000000000000000e+00 3.0000000000000000e+01
0.0000000000000000e+00 3.0000000000000000e+01
ITEM: ATOMS id type xs ys zs
6 1 0.375212 0.425573 0.471208
14 1 0.459952 0.418892 0.425052
11 1 0.633474 0.500708 0.432382
21 1 0.536524 0.362157 0.446113
24 1 0.607169 0.420688 0.48608
25 1 0.556267 0.451315 0.411564
32 2 0.524123 0.431462 0.492454
34 2 0.572373 0.497183 0.492791
9 1 0.407999 0.498248 0.426497
10 1 0.390516 0.587694 0.473972
12 1 0.480538 0.499711 0.368507
17 1 0.467048 0.581166 0.42222
33 2 0.494031 0.499356 0.455324
16 1 0.560182 0.547432 0.421144
18 1 0.612543 0.576313 0.493053
19 1 0.534972 0.636581 0.44979
31 2 0.525449 0.566076 0.501147
2 1 0.486574 0.422321 0.576162
4 1 0.452573 0.373005 0.500659
8 1 0.39362 0.416956 0.55583
15 1 0.423957 0.499397 0.587889
29 2 0.442332 0.462633 0.50764
3 1 0.646929 0.494947 0.531007
7 1 0.575727 0.449809 0.571803
22 1 0.552881 0.365312 0.534648
27 1 0.510038 0.497888 0.625264
28 2 0.50718 0.497187 0.540518
1 1 0.395553 0.584878 0.56359
13 1 0.482669 0.583442 0.585551
23 1 0.46377 0.627009 0.507729
26 1 0.35795 0.507354 0.511104
30 2 0.446095 0.543279 0.514671
5 1 0.553991 0.629249 0.54479
20 1 0.574507 0.543626 0.5737
ITEM: TIMESTEP
1000
ITEM: NUMBER OF ATOMS
34
ITEM: BOX BOUNDS pp pp pp
0.0000000000000000e+00 3.0000000000000000e+01
0.0000000000000000e+00 3.0000000000000000e+01
0.0000000000000000e+00 3.0000000000000000e+01
ITEM: ATOMS id type xs ys zs
6 1 0.383058 0.417852 0.461497
14 1 0.462654 0.420908 0.425186
11 1 0.632803 0.497068 0.438051
21 1 0.537692 0.369928 0.449754
24 1 0.611194 0.417924 0.486215
25 1 0.555331 0.454284 0.409653
32 2 0.521578 0.433327 0.498888
34 2 0.5685 0.497781 0.492313
9 1 0.41228 0.5055 0.433397
10 1 0.375682 0.588731 0.470997
12 1 0.484568 0.501836 0.371827
17 1 0.464195 0.58616 0.429848
33 2 0.496252 0.499183 0.452427
16 1 0.559165 0.549843 0.415088
18 1 0.609339 0.579511 0.484921
19 1 0.541061 0.632606 0.450206
31 2 0.522057 0.563976 0.499752
2 1 0.480712 0.417654 0.581868
4 1 0.451229 0.36681 0.500987
8 1 0.388625 0.42184 0.551801
15 1 0.428875 0.500551 0.587832
29 2 0.447601 0.458957 0.506518
3 1 0.644245 0.495727 0.526406
7 1 0.567935 0.448502 0.570354
22 1 0.544329 0.360717 0.540063
27 1 0.517721 0.499228 0.629633
28 2 0.505012 0.496672 0.544608
1 1 0.396837 0.587088 0.562984
13 1 0.487009 0.574735 0.582718
23 1 0.461002 0.6273 0.511736
26 1 0.369042 0.50413 0.516762
30 2 0.441885 0.540346 0.503145
5 1 0.552777 0.637017 0.541338
20 1 0.578932 0.542333 0.57027
ITEM: TIMESTEP
1050
ITEM: NUMBER OF ATOMS
34
ITEM: BOX BOUNDS pp pp pp
0.0000000000000000e+00 3.0000000000000000e+01
0.0000000000000000e+00 3.0000000000000000e+01
0.0000000000000000e+00 3.0000000000000000e+01
ITEM: ATOMS id type xs ys zs
6 1 0.375597 0.425569 0.461957
14 1 0.461816 0.425914 0.414766
11 1 0.636608 0.497035 0.440721
21 1 0.537751 0.368431 0.450842
24 1 0.611084 0.415966 0.485048
25 1 0.557292 0.453382 0.413673
32 2 0.517632 0.434459 0.499984
34 2 0.568145 0.498293 0.491444
9 1 0.409907 0.503884 0.428323
10 1 0.387455 0.585864 0.472557
12 1 0.481848 0.504615 0.368312
17 1 0.469044 0.580143 0.424864
33 2 0.492805 0.499509 0.455455
16 1 0.554898 0.547971 0.410087
18 1 0.606361 0.569978 0.486766
19 1 0.542012 0.6299 0.449012
31 2 0.52193 0.565321 0.496984
2 1 0.484446 0.421261 0.581511
4 1 0.447399 0.383291 0.494643
8 1 0.390476 0.416891 0.558159
15 1 0.429889 0.495689 0.590005
29 2 0.444169 0.468113 0.504094
3 1 0.645508 0.493221 0.52849
7 1 0.576528 0.451677 0.572528
22 1 0.549809 0.371058 0.543337
27 1 0.514994 0.495032 0.630046
28 2 0.507107 0.500074 0.542477
1 1 0.389778 0.578229 0.5701
13 1 0.482421 0.575432 0.584102
23 1 0.463138 0.628104 0.503016
26 1 0.369807 0.49876 0.520967
30 2 0.446863 0.546397 0.512343
5 1 0.54775 0.632722 0.542596
20 1 0.577186 0.542773 0.571925
ITEM: TIMESTEP
1100
ITEM: NUMBER OF ATOMS
34
ITEM: BOX BOUNDS pp pp pp
0.0000000000000000e+00 3.0000000000000000e+01
0.0000000000000000e+00 3.0000000000000000e+01
0.0000000000000000e+00 3.0000000000000000e+01
ITEM: ATOMS id type xs ys zs
6 1 0.375519 0.427289 0.464895
14 1 0.461382 0.426274 0.434115
11 1 0.633049 0.49595 0.433641
21 1 0.527887 0.358291 0.441104
24 1 0.606707 0.427739 0.484997
25 1 0.555479 0.446959 0.416937
32 2 0.522819 0.43351 0.493819
34 2 0.565191 0.499699 0.496075
9 1 0.408176 0.511214 0.429429
10 1 0.38482 0.59339 0.469123
12 1 0.485274 0.501324 0.375098
17 1 0.467183 0.580011 0.425048
33 2 0.495393 0.500071 0.457833
16 1 0.556058 0.545613 0.420082
18 1 0.612274 0.574661 0.492486
19 1 0.540908 0.632931 0.448054
31 2 0.520844 0.565919 0.502223
2 1 0.48368 0.414419 0.573839
4 1 0.458545 0.368511 0.502928
8 1 0.39485 0.412501 0.555017
15 1 0.426684 0.499617 0.584784
29 2 0.447392 0.458038 0.510742
3 1 0.640848 0.500241 0.527876
7 1 0.571891 0.451391 0.572599
22 1 0.558696 0.365393 0.53309
27 1 0.51539 0.502573 0.627984
28 2 0.504013 0.49529 0.544785
1 1 0.396466 0.585671 0.563439
13 1 0.488646 0.575192 0.584081
23 1 0.458639 0.628625 0.508599
26 1 0.363606 0.507164 0.508496
30 2 0.442916 0.540269 0.507711
5 1 0.553728 0.628846 0.544052
20 1 0.574467 0.542483 0.570392
ITEM: TIMESTEP
1150
ITEM: NUMBER OF ATOMS
34
ITEM: BOX BOUNDS pp pp pp
0.0000000000000000e+00 3.0000000000000000e+01
0.0000000000000000e+00 3.0000000000000000e+01
0.0000000000000000e+00 3.0000000000000000e+01
ITEM: ATOMS id type xs ys zs
6 1 0.382745 0.415518 0.467375
14 1 0.46224 0.425337 0.418826
11 1 0.631531 0.500495 0.438289
21 1 0.53714 0.371006 0.444281
24 1 0.602592 0.414358 0.480538
25 1 0.556098 0.45718 0.419331
32 2 0.519069 0.433409 0.502038
34 2 0.56412 0.496675 0.492759
9 1 0.411947 0.498327 0.438041
10 1 0.38268 0.582327 0.467703
12 1 0.483452 0.501441 0.363894
17 1 0.46614 0.578607 0.43076
33 2 0.495543 0.501315 0.450876
16 1 0.554257 0.548755 0.408432
18 1 0.613598 0.574197 0.486021
19 1 0.538231 0.642055 0.458661
31 2 0.526139 0.56762 0.497837
2 1 0.48126 0.420651 0.576949
4 1 0.45261 0.375239 0.500705
8 1 0.390583 0.423606 0.55704
15 1 0.430222 0.502991 0.590111
29 2 0.448363 0.462196 0.501257
3 1 0.646405 0.493581 0.531659
7 1 0.573316 0.447787 0.567019
22 1 0.540352 0.361255 0.543004
27 1 0.517117 0.497712 0.631457
28 2 0.504109 0.498494 0.542814
1 1 0.395711 0.584933 0.554119
13 1 0.484884 0.574357 0.579039
23 1 0.464776 0.631921 0.511826
26 1 0.371565 0.501728 0.519599
30 2 0.446577 0.539531 0.50468
5 1 0.549438 0.629944 0.55084
20 1 0.576791 0.545144 0.569066