LAMMPS data file from restart file: timestep = 0, procs = 4

15702 atoms

2 atom types

0.0000000000000000e+00 4.0010000000000003e+00 xlo xhi
0.0000000000000000e+00 8.0009999999999994e+00 ylo yhi
-1.0000000000000000e-03 1.0000000000000000e-03 zlo zhi

Masses

1 0.2
2 0.1

Atoms

1 2 1.0000000000000000e+03 0.0000000000000000e+00 1.0000000000000000e+00 0.0000000000000000e+00 0.0000000000000000e+00 0.0000000000000000e+00 0 0 0
2 2 1.0000000000000000e+03 0.0000000000000000e+00 1.0000000000000000e+00 7.0710678118654753e-03 7.0710678118654753e-03 0.0000000000000000e+00 0 0 0
3 2 1.0000000000000000e+03 0.0000000000000000e+00 1.0000000000000000e+00 1.4142135623730951e-02 0.0000000000000000e+00 0.0000000000000000e+00 0 0 0
4 2 1.0000000000000000e+03 0.0000000000000000e+00 1.0000000000000000e+00 2.1213203435596427e-02 7.0710678118654753e-03 0.0000000000000000e+00 0 0 0
5 2 1.0000000000000000e+03 0.0000000000000000e+00 1.0000000000000000e+00 2.8284271247461901e-02 0.0000000000000000e+00 0.0000000000000000e+00 0 0 0
6 2 1.0000000000000000e+03 0.0000000000000000e+00 1.0000000000000000e+00 3.5355339059327376e-02 7.0710678118654753e-03 0.0000000000000000e+00 0 0 0
7 2 1.0000000000000000e+03 0.0000000000000000e+00 1.0000000000000000e+00 4.2426406871192854e-02 0.0000000000000000e+00 0.0000000000000000e+00 0 0 0
8 2 1.0000000000000000e+03 0.0000000000000000e+00 1.0000000000000000e+00 4.9497474683058325e-02 7.0710678118654753e-03 0.0000000000000000e+00 0 0 0
9 2 1.0000000000000000e+03 0.0000000000000000e+00 1.0000000000000000e+00 5.6568542494923803e-02 0.0000000000000000e+00 0.0000000000000000e+00 0 0 0
10 2 1.0000000000000000e+03 0.0000000000000000e+00 1.0000000000000000e+00 6.3639610306789274e-02 7.0710678118654753e-03 0.0000000000000000e+00 0 0 0
11 2 1.0000000000000000e+03 0.0000000000000000e+00 1.0000000000000000e+00 7.0710678118654752e-02 0.0000000000000000e+00 0.0000000000000000e+00 0 0 0
12 2 1.0000000000000000e+03 0.0000000000000000e+00 1.0000000000000000e+00 7.7781745930520230e-02 7.0710678118654753e-03 0.0000000000000000e+00 0 0 0
13 2 1.0000000000000000e+03 0.0000000000000000e+00 1.0000000000000000e+00 8.4852813742385708e-02 0.0000000000000000e+00 0.0000000000000000e+00 0 0 0
14 2 1.0000000000000000e+03 0.0000000000000000e+00 1.0000000000000000e+00 9.1923881554251186e-02 7.0710678118654753e-03 0.0000000000000000e+00 0 0 0
15 2 1.0000000000000000e+03 0.0000000000000000e+00 1.0000000000000000e+00 9.8994949366116650e-02 0.0000000000000000e+00 0.0000000000000000e+00 0 0 0
16 2 1.0000000000000000e+03 0.0000000000000000e+00 1.0000000000000000e+00 1.0606601717798213e-01 7.0710678118654753e-03 0.0000000000000000e+00 0 0 0
17 2 1.0000000000000000e+03 0.0000000000000000e+00 1.0000000000000000e+00 1.1313708498984761e-01 0.0000000000000000e+00 0.0000000000000000e+00 0 0 0
18 2 1.0000000000000000e+03 0.0000000000000000e+00 1.0000000000000000e+00 1.2020815280171308e-01 7.0710678118654753e-03 0.0000000000000000e+00 0 0 0
19 2 1.0000000000000000e+03 0.0000000000000000e+00 1.0000000000000000e+00 1.2727922061357855e-01 0.0000000000000000e+00 0.0000000000000000e+00 0 0 0
20 2 1.0000000000000000e+03 0.0000000000000000e+00 1.0000000000000000e+00 1.3435028842544403e-01 7.0710678118654753e-03 0.0000000000000000e+00 0 0 0
21 2 1.0000000000000000e+03 0.0000000000000000e+00 1.0000000000000000e+00 1.4142135623730950e-01 0.0000000000000000e+00 0.0000000000000000e+00 0 0 0
22 2 1.0000000000000000e+03 0.0000000000000000e+00 1.0000000000000000e+00 1.4849242404917498e-01 7.0710678118654753e-03 0.0000000000000000e+00 0 0 0
23 2 1.0000000000000000e+03 0.0000000000000000e+00 1.0000000000000000e+00 1.5556349186104046e-01 0.0000000000000000e+00 0.0000000000000000e+00 0 0 0
24 2 1.0000000000000000e+03 0.0000000000000000e+00 1.0000000000000000e+00 1.6263455967290594e-01 7.0710678118654753e-03 0.0000000000000000e+00 0 0 0
284 2 1.0000000000000000e+03 0.0000000000000000e+00 1.0000000000000000e+00 0.0000000000000000e+00 1.4142135623730951e-02 0.0000000000000000e+00 0 0 0
285 2 1.0000000000000000e+03 0.0000000000000000e+00 1.0000000000000000e+00 7.0710678118654753e-03 2.1213203435596427e-02 0.0000000000000000e+00 0 0 0
286 2 1.0000000000000000e+03 0.0000000000000000e+00 1.0000000000000000e+00 1.4142135623730951e-02 1.4142135623730951e-02 0.0000000000000000e+00 0 0 0
287 2 1.0000000000000000e+03 0.0000000000000000e+00 1.0000000000000000e+00 2.8284271247461901e-02 1.4142135623730951e-02 0.0000000000000000e+00 0 0 0
288 2 1.0000000000000000e+03 0.0000000000000000e+00 1.0000000000000000e+00 4.2426406871192854e-02 1.4142135623730951e-02 0.0000000000000000e+00 0 0 0
289 2 1.0000000000000000e+03 0.0000000000000000e+00 1.0000000000000000e+00 5.6568542494923803e-02 1.4142135623730951e-02 0.0000000000000000e+00 0 0 0
290 2 1.0000000000000000e+03 0.0000000000000000e+00 1.0000000000000000e+00 7.0710678118654752e-02 1.4142135623730951e-02 0.0000000000000000e+00 0 0 0
291 2 1.0000000000000000e+03 0.0000000000000000e+00 1.0000000000000000e+00 8.4852813742385708e-02 1.4142135623730951e-02 0.0000000000000000e+00 0 0 0
292 2 1.0000000000000000e+03 0.0000000000000000e+00 1.0000000000000000e+00 9.8994949366116650e-02 1.4142135623730951e-02 0.0000000000000000e+00 0 0 0
293 2 1.0000000000000000e+03 0.0000000000000000e+00 1.0000000000000000e+00 1.1313708498984761e-01 1.4142135623730951e-02 0.0000000000000000e+00 0 0 0
294 2 1.0000000000000000e+03 0.0000000000000000e+00 1.0000000000000000e+00 1.2727922061357855e-01 1.4142135623730951e-02 0.0000000000000000e+00 0 0 0
295 2 1.0000000000000000e+03 0.0000000000000000e+00 1.0000000000000000e+00 1.4142135623730950e-01 1.4142135623730951e-02 0.0000000000000000e+00 0 0 0
296 2 1.0000000000000000e+03 0.0000000000000000e+00 1.0000000000000000e+00 1.5556349186104046e-01 1.4142135623730951e-02 0.0000000000000000e+00 0 0 0
427 2 1.0000000000000000e+03 0.0000000000000000e+00 1.0000000000000000e+00 0.0000000000000000e+00 2.8284271247461901e-02 0.0000000000000000e+00 0 0 0
428 2 1.0000000000000000e+03 0.0000000000000000e+00 1.0000000000000000e+00 7.0710678118654753e-03 3.5355339059327376e-02 0.0000000000000000e+00 0 0 0
429 2 1.0000000000000000e+03 0.0000000000000000e+00 1.0000000000000000e+00 1.4142135623730951e-02 2.8284271247461901e-02 0.0000000000000000e+00 0 0 0
430 2 1.0000000000000000e+03 0.0000000000000000e+00 1.0000000000000000e+00 0.0000000000000000e+00 4.2426406871192854e-02 0.0000000000000000e+00 0 0 0
431 2 1.0000000000000000e+03 0.0000000000000000e+00 1.0000000000000000e+00 7.0710678118654753e-03 4.9497474683058325e-02 0.0000000000000000e+00 0 0 0
432 2 1.0000000000000000e+03 0.0000000000000000e+00 1.0000000000000000e+00 1.4142135623730951e-02 4.2426406871192854e-02 0.0000000000000000e+00 0 0 0
433 2 1.0000000000000000e+03 0.0000000000000000e+00 1.0000000000000000e+00 0.0000000000000000e+00 5.6568542494923803e-02 0.0000000000000000e+00 0 0 0
434 2 1.0000000000000000e+03 0.0000000000000000e+00 1.0000000000000000e+00 7.0710678118654753e-03 6.3639610306789274e-02 0.0000000000000000e+00 0 0 0
435 2 1.0000000000000000e+03 0.0000000000000000e+00 1.0000000000000000e+00 1.4142135623730951e-02 5.6568542494923803e-02 0.0000000000000000e+00 0 0 0
436 2 1.0000000000000000e+03 0.0000000000000000e+00 1.0000000000000000e+00 0.0000000000000000e+00 7.0710678118654752e-02 0.0000000000000000e+00 0 0 0
437 2 1.0000000000000000e+03 0.0000000000000000e+00 1.0000000000000000e+00 7.0710678118654753e-03 7.7781745930520230e-02 0.0000000000000000e+00 0 0 0
438 2 1.0000000000000000e+03 0.0000000000000000e+00 1.0000000000000000e+00 1.4142135623730951e-02 7.0710678118654752e-02 0.0000000000000000e+00 0 0 0
439 2 1.0000000000000000e+03 0.0000000000000000e+00 1.0000000000000000e+00 0.0000000000000000e+00 8.4852813742385708e-02 0.0000000000000000e+00 0 0 0
440 2 1.0000000000000000e+03 0.0000000000000000e+00 1.0000000000000000e+00 7.0710678118654753e-03 9.1923881554251186e-02 0.0000000000000000e+00 0 0 0
441 2 1.0000000000000000e+03 0.0000000000000000e+00 1.0000000000000000e+00 1.4142135623730951e-02 8.4852813742385708e-02 0.0000000000000000e+00 0 0 0
442 2 1.0000000000000000e+03 0.0000000000000000e+00 1.0000000000000000e+00 0.0000000000000000e+00 9.8994949366116650e-02 0.0000000000000000e+00 0 0 0
443 2 1.0000000000000000e+03 0.0000000000000000e+00 1.0000000000000000e+00 7.0710678118654753e-03 1.0606601717798213e-01 0.0000000000000000e+00 0 0 0
444 2 1.0000000000000000e+03 0.0000000000000000e+00 1.0000000000000000e+00 1.4142135623730951e-02 9.8994949366116650e-02 0.0000000000000000e+00 0 0 0
445 2 1.0000000000000000e+03 0.0000000000000000e+00 1.0000000000000000e+00 0.0000000000000000e+00 1.1313708498984761e-01 0.0000000000000000e+00 0 0 0
446 2 1.0000000000000000e+03 0.0000000000000000e+00 1.0000000000000000e+00 7.0710678118654753e-03 1.2020815280171308e-01 0.0000000000000000e+00 0 0 0
447 2 1.0000000000000000e+03 0.0000000000000000e+00 1.0000000000000000e+00 1.4142135623730951e-02 1.1313708498984761e-01 0.0000000000000000e+00 0 0 0
448 2 1.0000000000000000e+03 0.0000000000000000e+00 1.0000000000000000e+00 0.0000000000000000e+00 1.2727922061357855e-01 0.0000000000000000e+00 0 0 0
449 2 1.0000000000000000e+03 0.0000000000000000e+00 1.0000000000000000e+00 7.0710678118654753e-03 1.3435028842544403e-01 0.0000000000000000e+00 0 0 0
450 2 1.0000000000000000e+03 0.0000000000000000e+00 1.0000000000000000e+00 1.4142135623730951e-02 1.2727922061357855e-01 0.0000000000000000e+00 0 0 0
451 2 1.0000000000000000e+03 0.0000000000000000e+00 1.0000000000000000e+00 0.0000000000000000e+00 1.4142135623730950e-01 0.0000000000000000e+00 0 0 0
452 2 1.0000000000000000e+03 0.0000000000000000e+00 1.0000000000000000e+00 7.0710678118654753e-03 1.4849242404917498e-01 0.0000000000000000e+00 0 0 0
453 2 1.0000000000000000e+03 0.0000000000000000e+00 1.0000000000000000e+00 1.4142135623730951e-02 1.4142135623730950e-01 0.0000000000000000e+00 0 0 0
454 2 1.0000000000000000e+03 0.0000000000000000e+00 1.0000000000000000e+00 0.0000000000000000e+00 1.5556349186104046e-01 0.0000000000000000e+00 0 0 0
455 2 1.0000000000000000e+03 0.0000000000000000e+00 1.0000000000000000e+00 7.0710678118654753e-03 1.6263455967290594e-01 0.0000000000000000e+00 0 0 0
456 2 1.0000000000000000e+03 0.0000000000000000e+00 1.0000000000000000e+00 1.4142135623730951e-02 1.5556349186104046e-01 0.0000000000000000e+00 0 0 0
6001 1 5.5054257779048794e+02 0.0000000000000000e+00 1.0000000000000000e+00 2.9999999999999999e-02 2.9999999999999999e-02 0.0000000000000000e+00 0 0 0
6002 1 7.1371621756056618e+02 0.0000000000000000e+00 1.0000000000000000e+00 5.0000000000000003e-02 2.9999999999999999e-02 0.0000000000000000e+00 0 0 0
6003 1 7.1371621756056618e+02 0.0000000000000000e+00 1.0000000000000000e+00 7.0000000000000007e-02 2.9999999999999999e-02 0.0000000000000000e+00 0 0 0
6004 1 7.1371621756056618e+02 0.0000000000000000e+00 1.0000000000000000e+00 8.9999999999999997e-02 2.9999999999999999e-02 0.0000000000000000e+00 0 0 0
6005 1 7.1371621756056629e+02 0.0000000000000000e+00 1.0000000000000000e+00 1.1000000000000000e-01 2.9999999999999999e-02 0.0000000000000000e+00 0 0 0
6006 1 7.1371621756056595e+02 0.0000000000000000e+00 1.0000000000000000e+00 1.3000000000000000e-01 2.9999999999999999e-02 0.0000000000000000e+00 0 0 0
6007 1 7.1371621756056641e+02 0.0000000000000000e+00 1.0000000000000000e+00 1.4999999999999999e-01 2.9999999999999999e-02 0.0000000000000000e+00 0 0 0
6050 1 7.1371621756056618e+02 0.0000000000000000e+00 1.0000000000000000e+00 2.9999999999999999e-02 5.0000000000000003e-02 0.0000000000000000e+00 0 0 0
6051 1 9.3882791880927641e+02 0.0000000000000000e+00 1.0000000000000000e+00 4.0000000000000001e-02 4.0000000000000001e-02 0.0000000000000000e+00 0 0 0
6052 1 1.0063722103956354e+03 0.0000000000000000e+00 1.0000000000000000e+00 5.0000000000000003e-02 5.0000000000000003e-02 0.0000000000000000e+00 0 0 0
6053 1 9.7257311157309164e+02 0.0000000000000000e+00 1.0000000000000000e+00 5.9999999999999998e-02 4.0000000000000001e-02 0.0000000000000000e+00 0 0 0
6054 1 1.0063722103956353e+03 0.0000000000000000e+00 1.0000000000000000e+00 7.0000000000000007e-02 5.0000000000000003e-02 0.0000000000000000e+00 0 0 0
6055 1 9.7257311157309209e+02 0.0000000000000000e+00 1.0000000000000000e+00 8.0000000000000002e-02 4.0000000000000001e-02 0.0000000000000000e+00 0 0 0
6056 1 1.0063722103956354e+03 0.0000000000000000e+00 1.0000000000000000e+00 8.9999999999999997e-02 5.0000000000000003e-02 0.0000000000000000e+00 0 0 0
6057 1 9.7257311157309175e+02 0.0000000000000000e+00 1.0000000000000000e+00 1.0000000000000001e-01 4.0000000000000001e-02 0.0000000000000000e+00 0 0 0
6058 1 1.0063722103956356e+03 0.0000000000000000e+00 1.0000000000000000e+00 1.1000000000000000e-01 5.0000000000000003e-02 0.0000000000000000e+00 0 0 0
6059 1 9.7257311157309164e+02 0.0000000000000000e+00 1.0000000000000000e+00 1.2000000000000000e-01 4.0000000000000001e-02 0.0000000000000000e+00 0 0 0
6060 1 1.0063722103956349e+03 0.0000000000000000e+00 1.0000000000000000e+00 1.3000000000000000e-01 5.0000000000000003e-02 0.0000000000000000e+00 0 0 0
6061 1 9.7257311157309198e+02 0.0000000000000000e+00 1.0000000000000000e+00 1.4000000000000001e-01 4.0000000000000001e-02 0.0000000000000000e+00 0 0 0
6062 1 1.0063722103956355e+03 0.0000000000000000e+00 1.0000000000000000e+00 1.4999999999999999e-01 5.0000000000000003e-02 0.0000000000000000e+00 0 0 0
6063 1 9.7257311157309141e+02 0.0000000000000000e+00 1.0000000000000000e+00 1.6000000000000000e-01 4.0000000000000001e-02 0.0000000000000000e+00 0 0 0
6148 1 7.1371621756056618e+02 0.0000000000000000e+00 1.0000000000000000e+00 2.9999999999999999e-02 7.0000000000000007e-02 0.0000000000000000e+00 0 0 0
6149 1 9.7257311157309164e+02 0.0000000000000000e+00 1.0000000000000000e+00 4.0000000000000001e-02 5.9999999999999998e-02 0.0000000000000000e+00 0 0 0
6150 1 1.0063722103956353e+03 0.0000000000000000e+00 1.0000000000000000e+00 5.0000000000000003e-02 7.0000000000000007e-02 0.0000000000000000e+00 0 0 0
6151 1 1.0063722103956351e+03 0.0000000000000000e+00 1.0000000000000000e+00 5.9999999999999998e-02 5.9999999999999998e-02 0.0000000000000000e+00 0 0 0
6152 1 1.0063722103956353e+03 0.0000000000000000e+00 1.0000000000000000e+00 7.0000000000000007e-02 7.0000000000000007e-02 0.0000000000000000e+00 0 0 0
6153 1 1.0063722103956355e+03 0.0000000000000000e+00 1.0000000000000000e+00 8.0000000000000002e-02 5.9999999999999998e-02 0.0000000000000000e+00 0 0 0
6154 1 1.0063722103956353e+03 0.0000000000000000e+00 1.0000000000000000e+00 8.9999999999999997e-02 7.0000000000000007e-02 0.0000000000000000e+00 0 0 0
6155 1 1.0063722103956352e+03 0.0000000000000000e+00 1.0000000000000000e+00 1.0000000000000001e-01 5.9999999999999998e-02 0.0000000000000000e+00 0 0 0
6156 1 1.0063722103956355e+03 0.0000000000000000e+00 1.0000000000000000e+00 1.1000000000000000e-01 7.0000000000000007e-02 0.0000000000000000e+00 0 0 0
6157 1 1.0063722103956350e+03 0.0000000000000000e+00 1.0000000000000000e+00 1.2000000000000000e-01 5.9999999999999998e-02 0.0000000000000000e+00 0 0 0
6158 1 1.0063722103956349e+03 0.0000000000000000e+00 1.0000000000000000e+00 1.3000000000000000e-01 7.0000000000000007e-02 0.0000000000000000e+00 0 0 0
6159 1 1.0063722103956355e+03 0.0000000000000000e+00 1.0000000000000000e+00 1.4000000000000001e-01 5.9999999999999998e-02 0.0000000000000000e+00 0 0 0
6160 1 1.0063722103956353e+03 0.0000000000000000e+00 1.0000000000000000e+00 1.4999999999999999e-01 7.0000000000000007e-02 0.0000000000000000e+00 0 0 0
6161 1 1.0063722103956349e+03 0.0000000000000000e+00 1.0000000000000000e+00 1.6000000000000000e-01 5.9999999999999998e-02 0.0000000000000000e+00 0 0 0
6246 1 7.1371621756056629e+02 0.0000000000000000e+00 1.0000000000000000e+00 2.9999999999999999e-02 8.9999999999999997e-02 0.0000000000000000e+00 0 0 0
6247 1 9.7257311157309209e+02 0.0000000000000000e+00 1.0000000000000000e+00 4.0000000000000001e-02 8.0000000000000002e-02 0.0000000000000000e+00 0 0 0
6248 1 1.0063722103956354e+03 0.0000000000000000e+00 1.0000000000000000e+00 5.0000000000000003e-02 8.9999999999999997e-02 0.0000000000000000e+00 0 0 0
6249 1 1.0063722103956355e+03 0.0000000000000000e+00 1.0000000000000000e+00 5.9999999999999998e-02 8.0000000000000002e-02 0.0000000000000000e+00 0 0 0
6250 1 1.0063722103956353e+03 0.0000000000000000e+00 1.0000000000000000e+00 7.0000000000000007e-02 8.9999999999999997e-02 0.0000000000000000e+00 0 0 0
6251 1 1.0063722103956360e+03 0.0000000000000000e+00 1.0000000000000000e+00 8.0000000000000002e-02 8.0000000000000002e-02 0.0000000000000000e+00 0 0 0
6252 1 1.0063722103956353e+03 0.0000000000000000e+00 1.0000000000000000e+00 8.9999999999999997e-02 8.9999999999999997e-02 0.0000000000000000e+00 0 0 0
6253 1 1.0063722103956356e+03 0.0000000000000000e+00 1.0000000000000000e+00 1.0000000000000001e-01 8.0000000000000002e-02 0.0000000000000000e+00 0 0 0
6254 1 1.0063722103956356e+03 0.0000000000000000e+00 1.0000000000000000e+00 1.1000000000000000e-01 8.9999999999999997e-02 0.0000000000000000e+00 0 0 0
6255 1 1.0063722103956354e+03 0.0000000000000000e+00 1.0000000000000000e+00 1.2000000000000000e-01 8.0000000000000002e-02 0.0000000000000000e+00 0 0 0
6256 1 1.0063722103956349e+03 0.0000000000000000e+00 1.0000000000000000e+00 1.3000000000000000e-01 8.9999999999999997e-02 0.0000000000000000e+00 0 0 0
6257 1 1.0063722103956360e+03 0.0000000000000000e+00 1.0000000000000000e+00 1.4000000000000001e-01 8.0000000000000002e-02 0.0000000000000000e+00 0 0 0
6258 1 1.0063722103956355e+03 0.0000000000000000e+00 1.0000000000000000e+00 1.4999999999999999e-01 8.9999999999999997e-02 0.0000000000000000e+00 0 0 0
6259 1 1.0063722103956353e+03 0.0000000000000000e+00 1.0000000000000000e+00 1.6000000000000000e-01 8.0000000000000002e-02 0.0000000000000000e+00 0 0 0
6344 1 7.1371621756056629e+02 0.0000000000000000e+00 1.0000000000000000e+00 2.9999999999999999e-02 1.1000000000000000e-01 0.0000000000000000e+00 0 0 0
6345 1 9.7257311157309175e+02 0.0000000000000000e+00 1.0000000000000000e+00 4.0000000000000001e-02 1.0000000000000001e-01 0.0000000000000000e+00 0 0 0
6346 1 1.0063722103956356e+03 0.0000000000000000e+00 1.0000000000000000e+00 5.0000000000000003e-02 1.1000000000000000e-01 0.0000000000000000e+00 0 0 0
6347 1 1.0063722103956352e+03 0.0000000000000000e+00 1.0000000000000000e+00 5.9999999999999998e-02 1.0000000000000001e-01 0.0000000000000000e+00 0 0 0
6348 1 1.0063722103956355e+03 0.0000000000000000e+00 1.0000000000000000e+00 7.0000000000000007e-02 1.1000000000000000e-01 0.0000000000000000e+00 0 0 0
6349 1 1.0063722103956356e+03 0.0000000000000000e+00 1.0000000000000000e+00 8.0000000000000002e-02 1.0000000000000001e-01 0.0000000000000000e+00 0 0 0
6350 1 1.0063722103956356e+03 0.0000000000000000e+00 1.0000000000000000e+00 8.9999999999999997e-02 1.1000000000000000e-01 0.0000000000000000e+00 0 0 0
6351 1 1.0063722103956353e+03 0.0000000000000000e+00 1.0000000000000000e+00 1.0000000000000001e-01 1.0000000000000001e-01 0.0000000000000000e+00 0 0 0
6352 1 1.0063722103956359e+03 0.0000000000000000e+00 1.0000000000000000e+00 1.1000000000000000e-01 1.1000000000000000e-01 0.0000000000000000e+00 0 0 0
6353 1 1.0063722103956351e+03 0.0000000000000000e+00 1.0000000000000000e+00 1.2000000000000000e-01 1.0000000000000001e-01 0.0000000000000000e+00 0 0 0
6354 1 1.0063722103956351e+03 0.0000000000000000e+00 1.0000000000000000e+00 1.3000000000000000e-01 1.1000000000000000e-01 0.0000000000000000e+00 0 0 0
6355 1 1.0063722103956356e+03 0.0000000000000000e+00 1.0000000000000000e+00 1.4000000000000001e-01 1.0000000000000001e-01 0.0000000000000000e+00 0 0 0
6356 1 1.0063722103956358e+03 0.0000000000000000e+00 1.0000000000000000e+00 1.4999999999999999e-01 1.1000000000000000e-01 0.0000000000000000e+00 0 0 0
6357 1 1.0063722103956350e+03 0.0000000000000000e+00 1.0000000000000000e+00 1.6000000000000000e-01 1.0000000000000001e-01 0.0000000000000000e+00 0 0 0
6442 1 7.1371621756056595e+02 0.0000000000000000e+00 1.0000000000000000e+00 2.9999999999999999e-02 1.3000000000000000e-01 0.0000000000000000e+00 0 0 0
6443 1 9.7257311157309152e+02 0.0000000000000000e+00 1.0000000000000000e+00 4.0000000000000001e-02 1.2000000000000000e-01 0.0000000000000000e+00 0 0 0
6444 1 1.0063722103956349e+03 0.0000000000000000e+00 1.0000000000000000e+00 5.0000000000000003e-02 1.3000000000000000e-01 0.0000000000000000e+00 0 0 0
6445 1 1.0063722103956351e+03 0.0000000000000000e+00 1.0000000000000000e+00 5.9999999999999998e-02 1.2000000000000000e-01 0.0000000000000000e+00 0 0 0
6446 1 1.0063722103956349e+03 0.0000000000000000e+00 1.0000000000000000e+00 7.0000000000000007e-02 1.3000000000000000e-01 0.0000000000000000e+00 0 0 0
6447 1 1.0063722103956355e+03 0.0000000000000000e+00 1.0000000000000000e+00 8.0000000000000002e-02 1.2000000000000000e-01 0.0000000000000000e+00 0 0 0
6448 1 1.0063722103956349e+03 0.0000000000000000e+00 1.0000000000000000e+00 8.9999999999999997e-02 1.3000000000000000e-01 0.0000000000000000e+00 0 0 0
6449 1 1.0063722103956351e+03 0.0000000000000000e+00 1.0000000000000000e+00 1.0000000000000001e-01 1.2000000000000000e-01 0.0000000000000000e+00 0 0 0
6450 1 1.0063722103956351e+03 0.0000000000000000e+00 1.0000000000000000e+00 1.1000000000000000e-01 1.3000000000000000e-01 0.0000000000000000e+00 0 0 0
6451 1 1.0063722103956351e+03 0.0000000000000000e+00 1.0000000000000000e+00 1.2000000000000000e-01 1.2000000000000000e-01 0.0000000000000000e+00 0 0 0
6452 1 1.0063722103956344e+03 0.0000000000000000e+00 1.0000000000000000e+00 1.3000000000000000e-01 1.3000000000000000e-01 0.0000000000000000e+00 0 0 0
6453 1 1.0063722103956353e+03 0.0000000000000000e+00 1.0000000000000000e+00 1.4000000000000001e-01 1.2000000000000000e-01 0.0000000000000000e+00 0 0 0
6454 1 1.0063722103956351e+03 0.0000000000000000e+00 1.0000000000000000e+00 1.4999999999999999e-01 1.3000000000000000e-01 0.0000000000000000e+00 0 0 0
6455 1 1.0063722103956349e+03 0.0000000000000000e+00 1.0000000000000000e+00 1.6000000000000000e-01 1.2000000000000000e-01 0.0000000000000000e+00 0 0 0
6540 1 7.1371621756056641e+02 0.0000000000000000e+00 1.0000000000000000e+00 2.9999999999999999e-02 1.4999999999999999e-01 0.0000000000000000e+00 0 0 0
6541 1 9.7257311157309209e+02 0.0000000000000000e+00 1.0000000000000000e+00 4.0000000000000001e-02 1.4000000000000001e-01 0.0000000000000000e+00 0 0 0
6542 1 1.0063722103956355e+03 0.0000000000000000e+00 1.0000000000000000e+00 5.0000000000000003e-02 1.4999999999999999e-01 0.0000000000000000e+00 0 0 0
6543 1 1.0063722103956353e+03 0.0000000000000000e+00 1.0000000000000000e+00 5.9999999999999998e-02 1.4000000000000001e-01 0.0000000000000000e+00 0 0 0
6544 1 1.0063722103956355e+03 0.0000000000000000e+00 1.0000000000000000e+00 7.0000000000000007e-02 1.4999999999999999e-01 0.0000000000000000e+00 0 0 0
6545 1 1.0063722103956358e+03 0.0000000000000000e+00 1.0000000000000000e+00 8.0000000000000002e-02 1.4000000000000001e-01 0.0000000000000000e+00 0 0 0
6546 1 1.0063722103956355e+03 0.0000000000000000e+00 1.0000000000000000e+00 8.9999999999999997e-02 1.4999999999999999e-01 0.0000000000000000e+00 0 0 0
6547 1 1.0063722103956354e+03 0.0000000000000000e+00 1.0000000000000000e+00 1.0000000000000001e-01 1.4000000000000001e-01 0.0000000000000000e+00 0 0 0
6548 1 1.0063722103956360e+03 0.0000000000000000e+00 1.0000000000000000e+00 1.1000000000000000e-01 1.4999999999999999e-01 0.0000000000000000e+00 0 0 0
6549 1 1.0063722103956353e+03 0.0000000000000000e+00 1.0000000000000000e+00 1.2000000000000000e-01 1.4000000000000001e-01 0.0000000000000000e+00 0 0 0
6550 1 1.0063722103956351e+03 0.0000000000000000e+00 1.0000000000000000e+00 1.3000000000000000e-01 1.4999999999999999e-01 0.0000000000000000e+00 0 0 0
6551 1 1.0063722103956358e+03 0.0000000000000000e+00 1.0000000000000000e+00 1.4000000000000001e-01 1.4000000000000001e-01 0.0000000000000000e+00 0 0 0
6552 1 1.0063722103956358e+03 0.0000000000000000e+00 1.0000000000000000e+00 1.4999999999999999e-01 1.4999999999999999e-01 0.0000000000000000e+00 0 0 0
6553 1 1.0063722103956352e+03 0.0000000000000000e+00 1.0000000000000000e+00 1.6000000000000000e-01 1.4000000000000001e-01 0.0000000000000000e+00 0 0 0
6639 1 9.7257311157309141e+02 0.0000000000000000e+00 1.0000000000000000e+00 4.0000000000000001e-02 1.6000000000000000e-01 0.0000000000000000e+00 0 0 0
6641 1 1.0063722103956349e+03 0.0000000000000000e+00 1.0000000000000000e+00 5.9999999999999998e-02 1.6000000000000000e-01 0.0000000000000000e+00 0 0 0
6643 1 1.0063722103956353e+03 0.0000000000000000e+00 1.0000000000000000e+00 8.0000000000000002e-02 1.6000000000000000e-01 0.0000000000000000e+00 0 0 0
6645 1 1.0063722103956350e+03 0.0000000000000000e+00 1.0000000000000000e+00 1.0000000000000001e-01 1.6000000000000000e-01 0.0000000000000000e+00 0 0 0
6647 1 1.0063722103956349e+03 0.0000000000000000e+00 1.0000000000000000e+00 1.2000000000000000e-01 1.6000000000000000e-01 0.0000000000000000e+00 0 0 0
6649 1 1.0063722103956352e+03 0.0000000000000000e+00 1.0000000000000000e+00 1.4000000000000001e-01 1.6000000000000000e-01 0.0000000000000000e+00 0 0 0
6651 1 1.0063722103956346e+03 0.0000000000000000e+00 1.0000000000000000e+00 1.6000000000000000e-01 1.6000000000000000e-01 0.0000000000000000e+00 0 0 0
25 2 1.0000000000000000e+03 0.0000000000000000e+00 1.0000000000000000e+00 1.6970562748477142e-01 0.0000000000000000e+00 0.0000000000000000e+00 0 0 0
26 2 1.0000000000000000e+03 0.0000000000000000e+00 1.0000000000000000e+00 1.7677669529663689e-01 7.0710678118654753e-03 0.0000000000000000e+00 0 0 0
27 2 1.0000000000000000e+03 0.0000000000000000e+00 1.0000000000000000e+00 1.8384776310850237e-01 0.0000000000000000e+00 0.0000000000000000e+00 0 0 0
28 2 1.0000000000000000e+03 0.0000000000000000e+00 1.0000000000000000e+00 1.9091883092036782e-01 7.0710678118654753e-03 0.0000000000000000e+00 0 0 0
29 2 1.0000000000000000e+03 0.0000000000000000e+00 1.0000000000000000e+00 1.9798989873223330e-01 0.0000000000000000e+00 0.0000000000000000e+00 0 0 0
30 2 1.0000000000000000e+03 0.0000000000000000e+00 1.0000000000000000e+00 2.0506096654409878e-01 7.0710678118654753e-03 0.0000000000000000e+00 0 0 0
31 2 1.0000000000000000e+03 0.0000000000000000e+00 1.0000000000000000e+00 2.1213203435596426e-01 0.0000000000000000e+00 0.0000000000000000e+00 0 0 0
32 2 1.0000000000000000e+03 0.0000000000000000e+00 1.0000000000000000e+00 2.1920310216782973e-01 7.0710678118654753e-03 0.0000000000000000e+00 0 0 0
33 2 1.0000000000000000e+03 0.0000000000000000e+00 1.0000000000000000e+00 2.2627416997969521e-01 0.0000000000000000e+00 0.0000000000000000e+00 0 0 0
34 2 1.0000000000000000e+03 0.0000000000000000e+00 1.0000000000000000e+00 2.3334523779156069e-01 7.0710678118654753e-03 0.0000000000000000e+00 0 0 0
35 2 1.0000000000000000e+03 0.0000000000000000e+00 1.0000000000000000e+00 2.4041630560342617e-01 0.0000000000000000e+00 0.0000000000000000e+00 0 0 0
36 2 1.0000000000000000e+03 0.0000000000000000e+00 1.0000000000000000e+00 2.4748737341529164e-01 7.0710678118654753e-03 0.0000000000000000e+00 0 0 0
37 2 1.0000000000000000e+03 0.0000000000000000e+00 1.0000000000000000e+00 2.5455844122715710e-01 0.0000000000000000e+00 0.0000000000000000e+00 0 0 0
38 2 1.0000000000000000e+03 0.0000000000000000e+00 1.0000000000000000e+00 2.6162950903902260e-01 7.0710678118654753e-03 0.0000000000000000e+00 0 0 0
39 2 1.0000000000000000e+03 0.0000000000000000e+00 1.0000000000000000e+00 2.6870057685088805e-01 0.0000000000000000e+00 0.0000000000000000e+00 0 0 0
40 2 1.0000000000000000e+03 0.0000000000000000e+00 1.0000000000000000e+00 2.7577164466275356e-01 7.0710678118654753e-03 0.0000000000000000e+00 0 0 0
41 2 1.0000000000000000e+03 0.0000000000000000e+00 1.0000000000000000e+00 2.8284271247461901e-01 0.0000000000000000e+00 0.0000000000000000e+00 0 0 0
42 2 1.0000000000000000e+03 0.0000000000000000e+00 1.0000000000000000e+00 2.8991378028648451e-01 7.0710678118654753e-03 0.0000000000000000e+00 0 0 0
43 2 1.0000000000000000e+03 0.0000000000000000e+00 1.0000000000000000e+00 2.9698484809834996e-01 0.0000000000000000e+00 0.0000000000000000e+00 0 0 0
44 2 1.0000000000000000e+03 0.0000000000000000e+00 1.0000000000000000e+00 3.0405591591021541e-01 7.0710678118654753e-03 0.0000000000000000e+00 0 0 0
45 2 1.0000000000000000e+03 0.0000000000000000e+00 1.0000000000000000e+00 3.1112698372208092e-01 0.0000000000000000e+00 0.0000000000000000e+00 0 0 0
46 2 1.0000000000000000e+03 0.0000000000000000e+00 1.0000000000000000e+00 3.1819805153394637e-01 7.0710678118654753e-03 0.0000000000000000e+00 0 0 0
47 2 1.0000000000000000e+03 0.0000000000000000e+00 1.0000000000000000e+00 3.2526911934581187e-01 0.0000000000000000e+00 0.0000000000000000e+00 0 0 0
48 2 1.0000000000000000e+03 0.0000000000000000e+00 1.0000000000000000e+00 3.3234018715767732e-01 7.0710678118654753e-03 0.0000000000000000e+00 0 0 0
297 2 1.0000000000000000e+03 0.0000000000000000e+00 1.0000000000000000e+00 1.6970562748477142e-01 1.4142135623730951e-02 0.0000000000000000e+00 0 0 0
298 2 1.0000000000000000e+03 0.0000000000000000e+00 1.0000000000000000e+00 1.8384776310850237e-01 1.4142135623730951e-02 0.0000000000000000e+00 0 0 0
299 2 1.0000000000000000e+03 0.0000000000000000e+00 1.0000000000000000e+00 1.9798989873223330e-01 1.4142135623730951e-02 0.0000000000000000e+00 0 0 0
300 2 1.0000000000000000e+03 0.0000000000000000e+00 1.0000000000000000e+00 2.1213203435596426e-01 1.4142135623730951e-02 0.0000000000000000e+00 0 0 0
301 2 1.0000000000000000e+03 0.0000000000000000e+00 1.0000000000000000e+00 2.2627416997969521e-01 1.4142135623730951e-02 0.0000000000000000e+00 0 0 0
302 2 1.0000000000000000e+03 0.0000000000000000e+00 1.0000000000000000e+00 2.4041630560342617e-01 1.4142135623730951e-02 0.0000000000000000e+00 0 0 0
303 2 1.0000000000000000e+03 0.0000000000000000e+00 1.0000000000000000e+00 2.5455844122715710e-01 1.4142135623730951e-02 0.0000000000000000e+00 0 0 0
304 2 1.0000000000000000e+03 0.0000000000000000e+00 1.0000000000000000e+00 2.6870057685088805e-01 1.4142135623730951e-02 0.0000000000000000e+00 0 0 0