data.lmp create_conf simbox.xyz (Built with Packmol)

5500 atoms
5500 bonds
6000 angles
6000 dihedrals
1500 impropers

12 atom types
13 bond types
12 angle types
12 dihedral types
4 improper types

-18.290765 18.335673 xlo xhi
-18.163588 18.162094 ylo yhi
-18.223046 18.328654 zlo zhi

Masses

   1  11.91100 # CAT
   2  11.91100 # CAO
   3  11.91100 # CAM
   4  11.91100 # CAP
   5  11.91100 # CTT
   6   1.00800 # HAT
   7   1.00800 # HT
   8   0.10000 # D_CAT
   9   0.10000 # D_CAO
  10   0.10000 # D_CAM
  11   0.10000 # D_CAP
  12   0.10000 # D_CTT

Bond Coeffs

   1  468.9897    1.4000 # CAT-CAO
   2  316.9976    1.5100 # CAT-CTT
   3  468.9897    1.4000 # CAO-CAM
   4  366.9964    1.0800 # CAO-HAT
   5  468.9897    1.4000 # CAM-CAP
   6  366.9964    1.0800 # CAM-HAT
   7  366.9964    1.0800 # CAP-HAT
   8  339.9894    1.0900 # CTT-HT
   9  500.0000    0.0000 # D_CAT
  10  500.0000    0.0000 # D_CAO
  11  500.0000    0.0000 # D_CAM
  12  500.0000    0.0000 # D_CAP
  13  500.0000    0.0000 # D_CTT

Angle Coeffs

   1   63.0004  120.0000 # CAT-CAO-CAM
   2   35.0015  120.0000 # CAT-CAO-HAT
   3   49.9988  109.5000 # CAT-CTT-HT
   4   70.0031  120.0000 # CAO-CAT-CTT
   5   63.0004  120.0000 # CAO-CAT-CAO
   6   63.0004  120.0000 # CAO-CAM-CAP
   7   35.0015  120.0000 # CAO-CAM-HAT
   8   35.0015  120.0000 # CAM-CAO-HAT
   9   63.0004  120.0000 # CAM-CAP-CAM
  10   35.0015  120.0000 # CAM-CAP-HAT
  11   35.0015  120.0000 # CAP-CAM-HAT
  12   32.9939  107.8000 # HT-CTT-HT

Dihedral Coeffs

   1    0.0000    7.2498    0.0000    0.0000 # CAT-CAO-CAM-CAP
   2    0.0000    7.2498    0.0000    0.0000 # CAT-CAO-CAM-HAT
   3    0.0000    7.2498    0.0000    0.0000 # CAO-CAT-CAO-CAM
   4    0.0000    7.2498    0.0000    0.0000 # CAO-CAT-CAO-HAT
   5    0.0000    7.2498    0.0000    0.0000 # CAO-CAM-CAP-CAM
   6    0.0000    7.2498    0.0000    0.0000 # CAO-CAM-CAP-HAT
   7    0.0000    7.2498    0.0000    0.0000 # CTT-CAT-CAO-CAM
   8    0.0000    7.2498    0.0000    0.0000 # CAM-CAP-CAM-HAT
   9    0.0000    7.2498    0.0000    0.0000 # CAP-CAM-CAO-HAT
  10    0.0000    7.2498    0.0000    0.0000 # CTT-CAT-CAO-HAT
  11    0.0000    7.2498    0.0000    0.0000 # HAT-CAO-CAM-HAT
  12    0.0000    7.2498    0.0000    0.0000 # HAT-CAM-CAP-HAT

Improper Coeffs

   1    0.0000    2.1999    0.0000    0.0000 # CAO-CAO-CAT-CTT
   2    0.0000    2.1999    0.0000    0.0000 # CAT-CAM-CAO-HAT
   3    0.0000    2.1999    0.0000    0.0000 # CAO-CAP-CAM-HAT
   4    0.0000    2.1999    0.0000    0.0000 # CAM-CAM-CAP-HAT

Atoms

      1       1       1   -2.2897 -3.322109e+00  6.095540e+00 -1.811877e+00 # CAT
      2       1       2   -2.3557 -3.122514e+00  5.166589e+00 -7.836690e-01 # CAO
      3       1       3   -2.3537 -4.088997e+00  5.011926e+00  2.173260e-01 # CAM
      4       1       4   -2.3627 -5.255074e+00  5.786214e+00  1.901130e-01 # CAP
      5       1       3   -2.3537 -5.454669e+00  6.715166e+00 -8.380940e-01 # CAM
      6       1       2   -2.3557 -4.488187e+00  6.869829e+00 -1.839089e+00 # CAO
      7       1       5   -2.4057 -2.279689e+00  6.262356e+00 -2.891521e+00 # CTT
      8       1       6    0.1480 -2.222969e+00  4.569281e+00 -7.626760e-01 # HAT
      9       1       6    0.1480 -3.935023e+00  4.295306e+00  1.010515e+00 # HAT
     10       1       6    0.1480 -6.000647e+00  5.666903e+00  9.623090e-01 # HAT
     11       1       6    0.1480 -6.354215e+00  7.312474e+00 -8.590870e-01 # HAT
     12       1       6    0.1480 -4.642160e+00  7.586449e+00 -2.632278e+00 # HAT
     13       1       7    0.0920 -1.760670e+00  5.316298e+00 -3.045455e+00 # HT
     14       1       7    0.0920 -2.762956e+00  6.566329e+00 -3.820043e+00 # HT
     15       1       7    0.0920 -1.561895e+00  7.025026e+00 -2.589519e+00 # HT
     16       2       1   -2.2897  1.330080e+01  1.242859e+01 -6.628229e+00 # CAT
     17       2       2   -2.3557  1.309005e+01  1.275263e+01 -7.973808e+00 # CAO
     18       2       3   -2.3537  1.378722e+01  1.381879e+01 -8.554560e+00 # CAM
     19       2       4   -2.3627  1.469514e+01  1.456090e+01 -7.789733e+00 # CAP
     20       2       3   -2.3537  1.490588e+01  1.423686e+01 -6.444154e+00 # CAM
     21       2       2   -2.3557  1.420871e+01  1.317071e+01 -5.863402e+00 # CAO
     22       2       5   -2.4057  1.254886e+01  1.127867e+01 -6.001846e+00 # CTT
     23       2       6    0.1480  1.238967e+01  1.218015e+01 -8.563818e+00 # HAT
     24       2       6    0.1480  1.362465e+01  1.406876e+01 -9.592579e+00 # HAT
     25       2       6    0.1480  1.523295e+01  1.538336e+01 -8.237742e+00 # HAT
     26       2       6    0.1480  1.560627e+01  1.480935e+01 -5.854145e+00 # HAT
     27       2       6    0.1480  1.437129e+01  1.292073e+01 -4.825384e+00 # HAT
     28       2       7    0.0920  1.233441e+01  1.052720e+01 -6.761720e+00 # HT
     29       2       7    0.0920  1.315541e+01  1.083403e+01 -5.212864e+00 # HT
     30       2       7    0.0920  1.161319e+01  1.164352e+01 -5.578156e+00 # HT
     31       3       1   -2.2897 -1.408348e+01  5.594982e+00 -2.513424e+00 # CAT
     32       3       2   -2.3557 -1.291948e+01  5.491245e+00 -1.742491e+00 # CAO
     33       3       3   -2.3537 -1.179772e+01  4.828081e+00 -2.254234e+00 # CAM
     34       3       4   -2.3627 -1.183997e+01  4.268654e+00 -3.536909e+00 # CAP
     35       3       3   -2.3537 -1.300397e+01  4.372391e+00 -4.307842e+00 # CAM
     36       3       2   -2.3557 -1.412572e+01  5.035554e+00 -3.796099e+00 # CAO
     37       3       5   -2.4057 -1.529337e+01  6.310251e+00 -1.961473e+00 # CTT
     38       3       6    0.1480 -1.288688e+01  5.922803e+00 -7.529990e-01 # HAT
     39       3       6    0.1480 -1.089978e+01  4.748056e+00 -1.659514e+00 # HAT
     40       3       6    0.1480 -1.097462e+01  3.757070e+00 -3.931682e+00 # HAT
     41       3       6    0.1480 -1.303656e+01  3.940832e+00 -5.297334e+00 # HAT
     42       3       6    0.1480 -1.502367e+01  5.115579e+00 -4.390819e+00 # HAT
     43       3       7    0.0920 -1.497146e+01  7.091848e+00 -1.273301e+00 # HT
     44       3       7    0.0920 -1.585674e+01  6.757410e+00 -2.780472e+00 # HT
     45       3       7    0.0920 -1.592651e+01  5.598550e+00 -1.431652e+00 # HT
     46       4       1   -2.2897  9.996776e+00 -8.572805e+00  1.865019e+00 # CAT
     47       4       2   -2.3557  1.107481e+01 -8.713030e+00  9.828700e-01 # CAO
     48       4       3   -2.3537  1.095335e+01 -8.284936e+00 -3.445280e-01 # CAM
     49       4       4   -2.3627  9.753863e+00 -7.716618e+00 -7.897760e-01 # CAP
     50       4       3   -2.3537  8.675833e+00 -7.576394e+00  9.237300e-02 # CAM
     51       4       2   -2.3557  8.797289e+00 -8.004487e+00  1.419771e+00 # CAO
     52       4       5   -2.4057  1.012777e+01 -9.034534e+00  3.296712e+00 # CTT
     53       4       6    0.1480  1.200012e+01 -9.151446e+00  1.326347e+00 # HAT
     54       4       6    0.1480  1.178497e+01 -8.393110e+00 -1.025043e+00 # HAT
     55       4       6    0.1480  9.660168e+00 -7.386375e+00 -1.813769e+00 # HAT
     56       4       6    0.1480  7.750514e+00 -7.137977e+00 -2.511040e-01 # HAT
     57       4       6    0.1480  7.965665e+00 -7.896313e+00  2.100286e+00 # HAT
     58       4       7    0.0920  1.116573e+01 -8.940268e+00  3.615892e+00 # HT
     59       4       7    0.0920  9.494223e+00 -8.420259e+00  3.936540e+00 # HT
     60       4       7    0.0920  9.818074e+00 -1.007685e+01  3.372648e+00 # HT
     61       5       1   -2.2897  9.714973e+00  7.617683e+00 -7.105923e+00 # CAT
     62       5       2   -2.3557  9.300090e+00  8.888751e+00 -7.520961e+00 # CAO
     63       5       3   -2.3537  1.015024e+01  9.682967e+00 -8.299714e+00 # CAM
     64       5       4   -2.3627  1.141528e+01  9.206115e+00 -8.663429e+00 # CAP
     65       5       3   -2.3537  1.183017e+01  7.935046e+00 -8.248390e+00 # CAM
     66       5       2   -2.3557  1.098001e+01  7.140830e+00 -7.469638e+00 # CAO
     67       5       5   -2.4057  8.798020e+00  6.761064e+00 -6.265982e+00 # CTT
     68       5       6    0.1480  8.324203e+00  9.256609e+00 -7.240381e+00 # HAT
     69       5       6    0.1480  9.830193e+00  1.066351e+01 -8.619887e+00 # HAT
     70       5       6    0.1480  1.207112e+01  9.818796e+00 -9.264181e+00 # HAT
     71       5       6    0.1480  1.280606e+01  7.567189e+00 -8.528971e+00 # HAT
     72       5       6    0.1480  1.130007e+01  6.160292e+00 -7.149465e+00 # HAT
     73       5       7    0.0920  7.760789e+00  6.991484e+00 -6.509210e+00 # HT
     74       5       7    0.0920  8.993707e+00  5.708661e+00 -6.471543e+00 # HT
     75       5       7    0.0920  8.976715e+00  6.963813e+00 -5.210018e+00 # HT
     76       6       1   -2.2897 -1.352073e+01  1.296150e+01  1.439885e+01 # CAT
     77       6       2   -2.3557 -1.303733e+01  1.426398e+01  1.422604e+01 # CAO
     78       6       3   -2.3537 -1.167562e+01  1.453488e+01  1.440593e+01 # CAM
     79       6       4   -2.3627 -1.079731e+01  1.350329e+01  1.475863e+01 # CAP
     80       6       3   -2.3537 -1.128071e+01  1.220081e+01  1.493144e+01 # CAM
     81       6       2   -2.3557 -1.264242e+01  1.192991e+01  1.475155e+01 # CAO
     82       6       5   -2.4057 -1.498943e+01  1.266933e+01  1.420482e+01 # CTT
     83       6       6    0.1480 -1.371488e+01  1.505978e+01  1.395396e+01 # HAT
     84       6       6    0.1480 -1.130271e+01  1.553965e+01  1.427262e+01 # HAT
     85       6       6    0.1480 -9.746848e+00  1.371226e+01  1.489741e+01 # HAT
     86       6       6    0.1480 -1.060316e+01  1.140501e+01  1.520352e+01 # HAT
     87       6       6    0.1480 -1.301533e+01  1.092514e+01  1.488485e+01 # HAT
     88       6       7    0.0920 -1.540316e+01  1.335789e+01  1.346806e+01 # HT
     89       6       7    0.0920 -1.511334e+01  1.164488e+01  1.385374e+01 # HT
     90       6       7    0.0920 -1.551350e+01  1.279400e+01  1.515240e+01 # HT
     91       7       1   -2.2897  4.518322e+00  6.121948e+00 -1.516985e+01 # CAT
     92       7       2   -2.3557  4.488764e+00  7.521332e+00 -1.519903e+01 # CAO
     93       7       3   -2.3537  5.681482e+00  8.244300e+00 -1.532045e+01 # CAM
     94       7       4   -2.3627  6.903755e+00  7.567885e+00 -1.541269e+01 # CAP
     95       7       3   -2.3537  6.933312e+00  6.168501e+00 -1.538351e+01 # CAM
     96       7       2   -2.3557  5.740596e+00  5.445533e+00 -1.526209e+01 # CAO
     97       7       5   -2.4057  3.231892e+00  5.342175e+00 -1.503889e+01 # CTT
     98       7       6    0.1480  3.545868e+00  8.043138e+00 -1.512787e+01 # HAT
     99       7       6    0.1480  5.658680e+00  9.323825e+00 -1.534296e+01 # HAT
    100       7       6    0.1480  7.823851e+00  8.125604e+00 -1.550636e+01 # HAT
    101       7       6    0.1480  7.876210e+00  5.646695e+00 -1.545467e+01 # HAT
    102       7       6    0.1480  5.763397e+00  4.366008e+00 -1.523958e+01 # HAT
    103       7       7    0.0920  2.417503e+00  5.904391e+00 -1.549582e+01 # HT
    104       7       7    0.0920  3.336239e+00  4.380933e+00 -1.554210e+01 # HT
    105       7       7    0.0920  3.011997e+00  5.177518e+00 -1.398408e+01 # HT
    106       8       1   -2.2897 -5.377166e+00  5.156898e+00  9.712011e+00 # CAT
    107       8       2   -2.3557 -4.563142e+00  4.268089e+00  1.042432e+01 # CAO
    108       8       3   -2.3537 -4.033520e+00  3.139720e+00  9.786916e+00 # CAM
    109       8       4   -2.3627 -4.317922e+00  2.900160e+00  8.437203e+00 # CAP
    110       8       3   -2.3537 -5.131946e+00  3.788968e+00  7.724894e+00 # CAM
    111       8       2   -2.3557 -5.661568e+00  4.917337e+00  8.362297e+00 # CAO
    112       8       5   -2.4057 -5.948401e+00  6.373924e+00  1.039950e+01 # CTT
    113       8       6    0.1480 -4.343746e+00  4.452893e+00  1.146553e+01 # HAT
    114       8       6    0.1480 -3.405558e+00  2.454068e+00  1.033641e+01 # HAT
    115       8       6    0.1480 -3.909356e+00  2.029703e+00  7.945491e+00 # HAT
    116       8       6    0.1480 -5.351342e+00  3.604164e+00  6.683686e+00 # HAT
    117       8       6    0.1480 -6.289530e+00  5.602989e+00  7.812802e+00 # HAT
    118       8       7    0.0920 -5.268241e+00  6.700153e+00  1.118630e+01 # HT
    119       8       7    0.0920 -6.074391e+00  7.176645e+00  9.672953e+00 # HT
    120       8       7    0.0920 -6.915505e+00  6.124740e+00  1.083621e+01 # HT
    121       9       1   -2.2897 -1.150352e+01 -2.635798e+00 -5.817707e+00 # CAT
    122       9       2   -2.3557 -1.078710e+01 -1.579569e+00 -6.393141e+00 # CAO
    123       9       3   -2.3537 -1.059426e+01 -1.537647e+00 -7.779162e+00 # CAM
    124       9       4   -2.3627 -1.111783e+01 -2.551955e+00 -8.589748e+00 # CAP
    125       9       3   -2.3537 -1.183425e+01 -3.608184e+00 -8.014314e+00 # CAM
    126       9       2   -2.3557 -1.202709e+01 -3.650106e+00 -6.628294e+00 # CAO
    127       9       5   -2.4057 -1.171151e+01 -2.681014e+00 -4.322784e+00 # CTT
    128       9       6    0.1480 -1.038320e+01 -7.971030e-01 -5.767832e+00 # HAT
    129       9       6    0.1480 -1.004159e+01 -7.228420e-01 -8.223068e+00 # HAT
    130       9       6    0.1480 -1.096906e+01 -2.519615e+00 -9.658965e+00 # HAT
    131       9       6    0.1480 -1.223815e+01 -4.390650e+00 -8.639624e+00 # HAT
    132       9       6    0.1480 -1.257976e+01 -4.464911e+00 -6.184387e+00 # HAT
    133       9       7    0.0920 -1.174239e+01 -1.665163e+00 -3.928835e+00 # HT
    134       9       7    0.0920 -1.265244e+01 -3.184759e+00 -4.101417e+00 # HT
    135       9       7    0.0920 -1.089007e+01 -3.225804e+00 -3.857451e+00 # HT
    136      10       1   -2.2897  1.392120e+01 -2.108610e+00 -1.308417e+01 # CAT
    137      10       2   -2.3557  1.254408e+01 -2.352254e+00 -1.301957e+01 # CAO
    138      10       3   -2.3537  1.197493e+01 -2.844561e+00 -1.183901e+01 # CAM
    139      10       4   -2.3627  1.278291e+01 -3.093223e+00 -1.072306e+01 # CAP
    140      10       3   -2.3537  1.416003e+01 -2.849579e+00 -1.078767e+01 # CAM
    141      10       2   -2.3557  1.472917e+01 -2.357272e+00 -1.196822e+01 # CAO
    142      10       5   -2.4057  1.453506e+01 -1.577622e+00 -1.435748e+01 # CTT
    143      10       6    0.1480  1.192078e+01 -2.160429e+00 -1.388044e+01 # HAT
    144      10       6    0.1480  1.091258e+01 -3.032515e+00 -1.178917e+01 # HAT
    145      10       6    0.1480  1.234385e+01 -3.473003e+00 -9.812350e+00 # HAT
    146      10       6    0.1480  1.478333e+01 -3.041404e+00 -9.926794e+00 # HAT
    147      10       6    0.1480  1.579153e+01 -2.169318e+00 -1.201806e+01 # HAT
    148      10       7    0.0920  1.380371e+01 -9.669060e-01 -1.488687e+01 # HT
    149      10       7    0.0920  1.540739e+01 -9.705890e-01 -1.411528e+01 # HT
    150      10       7    0.0920  1.483784e+01 -2.411529e+00 -1.499075e+01 # HT
    151      11       1   -2.2897  1.483606e+01 -2.727292e+00 -5.740444e+00 # CAT
    152      11       2   -2.3557  1.468234e+01 -3.925798e+00 -5.033370e+00 # CAO
    153      11       3   -2.3537  1.473882e+01 -3.925451e+00 -3.634509e+00 # CAM
    154      11       4   -2.3627  1.494901e+01 -2.726598e+00 -2.942723e+00 # CAP
    155      11       3   -2.3537  1.510273e+01 -1.528091e+00 -3.649797e+00 # CAM
    156      11       2   -2.3557  1.504626e+01 -1.528438e+00 -5.048657e+00 # CAO
    157      11       5   -2.4057  1.477515e+01 -2.727666e+00 -7.249214e+00 # CTT
    158      11       6    0.1480  1.452019e+01 -4.850628e+00 -5.567034e+00 # HAT
    159      11       6    0.1480  1.462023e+01 -4.850013e+00 -3.089052e+00 # HAT
    160      11       6    0.1480  1.499258e+01 -2.726330e+00 -1.863602e+00 # HAT
    161      11       6    0.1480  1.526488e+01 -6.032610e-01 -3.116133e+00 # HAT
    162      11       6    0.1480  1.516484e+01 -6.038770e-01 -5.594114e+00 # HAT
    163      11       7    0.0920  1.411943e+01 -3.530317e+00 -7.586688e+00 # HT
    164      11       7    0.0920  1.438651e+01 -1.770862e+00 -7.597908e+00 # HT
    165      11       7    0.0920  1.577547e+01 -2.882092e+00 -7.653708e+00 # HT
    166      12       1   -2.2897 -1.418351e+01  1.029711e+01 -6.488122e+00 # CAT
    167      12       2   -2.3557 -1.308377e+01  1.038532e+01 -5.626265e+00 # CAO
    168      12       3   -2.3537 -1.268345e+01  9.266821e+00 -4.885525e+00 # CAM
    169      12       4   -2.3627 -1.338286e+01  8.060110e+00 -5.006642e+00 # CAP
    170      12       3   -2.3537 -1.448259e+01  7.971898e+00 -5.868499e+00 # CAM
    171      12       2   -2.3557 -1.488292e+01  9.090399e+00 -6.609239e+00 # CAO
    172      12       5   -2.4057 -1.461529e+01  1.150349e+01 -7.287063e+00 # CTT
    173      12       6    0.1480 -1.254422e+01  1.131621e+01 -5.532832e+00 # HAT
    174      12       6    0.1480 -1.183508e+01  9.334869e+00 -4.220664e+00 # HAT
    175      12       6    0.1480 -1.307404e+01  7.197266e+00 -4.435213e+00 # HAT
    176      12       6    0.1480 -1.502214e+01  7.041006e+00 -5.961931e+00 # HAT
    177      12       6    0.1480 -1.573129e+01  9.022350e+00 -7.274100e+00 # HAT
    178      12       7    0.0920 -1.374758e+01  1.212724e+01 -7.501845e+00 # HT
    179      12       7    0.0920 -1.506800e+01  1.117687e+01 -8.223263e+00 # HT
    180      12       7    0.0920 -1.534240e+01  1.207844e+01 -6.713621e+00 # HT
    181      13       1   -2.2897 -4.403558e+00 -1.346616e+01 -9.613074e+00 # CAT
    182      13       2   -2.3557 -5.060220e+00 -1.343664e+01 -8.376982e+00 # CAO
    183      13       3   -2.3537 -4.680611e+00 -1.432230e+01 -7.361350e+00 # CAM
    184      13       4   -2.3627 -3.644342e+00 -1.523747e+01 -7.581810e+00 # CAP
    185      13       3   -2.3537 -2.987680e+00 -1.526699e+01 -8.817903e+00 # CAM
    186      13       2   -2.3557 -3.367288e+00 -1.438133e+01 -9.833535e+00 # CAO
    187      13       5   -2.4057 -4.812992e+00 -1.251091e+01 -1.070851e+01 # CTT
    188      13       6    0.1480 -5.859628e+00 -1.273065e+01 -8.206913e+00 # HAT
    189      13       6    0.1480 -5.187179e+00 -1.429953e+01 -6.407793e+00 # HAT
    190      13       6    0.1480 -3.351501e+00 -1.592069e+01 -6.798323e+00 # HAT
    191      13       6    0.1480 -2.188271e+00 -1.597298e+01 -8.987972e+00 # HAT
    192      13       6    0.1480 -2.860720e+00 -1.440410e+01 -1.078709e+01 # HAT
    193      13       7    0.0920 -5.192471e+00 -1.159020e+01 -1.026534e+01 # HT
    194      13       7    0.0920 -3.950005e+00 -1.228352e+01 -1.133432e+01 # HT
    195      13       7    0.0920 -5.592474e+00 -1.296848e+01 -1.131772e+01 # HT
    196      14       1   -2.2897  1.813791e+00  3.337542e+00 -6.732800e-01 # CAT
    197      14       2   -2.3557  1.154851e+00  2.140895e+00 -9.796040e-01 # CAO
    198      14       3   -2.3537  3.310130e-01  2.064694e+00 -2.108978e+00 # CAM
    199      14       4   -2.3627  1.661160e-01  3.185139e+00 -2.932027e+00 # CAP
    200      14       3   -2.3537  8.250570e-01  4.381786e+00 -2.625703e+00 # CAM
    201      14       2   -2.3557  1.648894e+00  4.457987e+00 -1.496330e+00 # CAO
    202      14       5   -2.4057  2.702359e+00  3.419730e+00  5.448300e-01 # CTT
    203      14       6    0.1480  1.282057e+00  1.276552e+00 -3.446800e-01 # HAT
    204      14       6    0.1480 -1.773120e-01  1.141567e+00 -2.345285e+00 # HAT
    205      14       6    0.1480 -4.694160e-01  3.126356e+00 -3.803259e+00 # HAT
    206      14       6    0.1480  6.978500e-01  5.246130e+00 -3.260628e+00 # HAT
    207      14       6    0.1480  2.157219e+00  5.381115e+00 -1.260023e+00 # HAT
    208      14       7    0.0920  3.137146e+00  2.440404e+00  7.447830e-01 # HT
    209      14       7    0.0920  3.499731e+00  4.140949e+00  3.655510e-01 # HT
    210      14       7    0.0920  2.112529e+00  3.737249e+00  1.404703e+00 # HT
    211      15       1   -2.2897 -1.490141e+01 -1.346290e+01 -7.801144e+00 # CAT
    212      15       2   -2.3557 -1.494447e+01 -1.206668e+01 -7.894572e+00 # CAO
    213      15       3   -2.3537 -1.510236e+01 -1.145320e+01 -9.143055e+00 # CAM
    214      15       4   -2.3627 -1.521717e+01 -1.223593e+01 -1.029811e+01 # CAP
    215      15       3   -2.3537 -1.517411e+01 -1.363214e+01 -1.020468e+01 # CAM
    216      15       2   -2.3557 -1.501623e+01 -1.424563e+01 -8.956200e+00 # CAO
    217      15       5   -2.4057 -1.473112e+01 -1.412459e+01 -6.454567e+00 # CTT
    218      15       6    0.1480 -1.485590e+01 -1.146287e+01 -7.003530e+00 # HAT
    219      15       6    0.1480 -1.513558e+01 -1.037612e+01 -9.215127e+00 # HAT
    220      15       6    0.1480 -1.533897e+01 -1.176267e+01 -1.126122e+01 # HAT
    221      15       6    0.1480 -1.526268e+01 -1.423596e+01 -1.109572e+01 # HAT
    222      15       6    0.1480 -1.498301e+01 -1.532271e+01 -8.884128e+00 # HAT
    223      15       7    0.0920 -1.517400e+01 -1.349626e+01 -5.681803e+00 # HT
    224      15       7    0.0920 -1.522666e+01 -1.509541e+01 -6.460946e+00 # HT
    225      15       7    0.0920 -1.366962e+01 -1.426041e+01 -6.247539e+00 # HT
    226      16       1   -2.2897 -1.304159e+00 -2.149027e+00 -8.322736e+00 # CAT
    227      16       2   -2.3557 -3.711000e-02 -1.761204e+00 -7.870871e+00 # CAO
    228      16       3   -2.3537  6.666540e-01 -2.576093e+00 -6.976069e+00 # CAM
    229      16       4   -2.3627  1.033700e-01 -3.778805e+00 -6.533131e+00 # CAP
    230      16       3   -2.3537 -1.163679e+00 -4.166628e+00 -6.984995e+00 # CAM
    231      16       2   -2.3557 -1.867443e+00 -3.351740e+00 -7.879797e+00 # CAO
    232      16       5   -2.4057 -2.063219e+00 -1.270111e+00 -9.287844e+00 # CTT
    233      16       6    0.1480  3.974230e-01 -8.333980e-01 -8.212566e+00 # HAT
    234      16       6    0.1480  1.644091e+00 -2.276916e+00 -6.627488e+00 # HAT
    235      16       6    0.1480  6.462740e-01 -4.407434e+00 -5.842854e+00 # HAT
    236      16       6    0.1480 -1.598212e+00 -5.094436e+00 -6.643300e+00 # HAT
    237      16       6    0.1480 -2.844880e+00 -3.650918e+00 -8.228378e+00 # HAT
    238      16       7    0.0920 -1.357992e+00 -7.215660e-01 -9.912227e+00 # HT
    239      16       7    0.0920 -2.701298e+00 -1.888882e+00 -9.918778e+00 # HT
    240      16       7    0.0920 -2.679075e+00 -5.645350e-01 -8.730185e+00 # HT
    241      17       1   -2.2897 -7.611989e+00 -7.448325e+00 -1.200176e+01 # CAT
    242      17       2   -2.3557 -6.822933e+00 -8.246950e+00 -1.116535e+01 # CAO
    243      17       3   -2.3537 -5.698847e+00 -7.701741e+00 -1.053354e+01 # CAM
    244      17       4   -2.3627 -5.363817e+00 -6.357907e+00 -1.073815e+01 # CAP
    245      17       3   -2.3537 -6.152873e+00 -5.559282e+00 -1.157457e+01 # CAM
    246      17       2   -2.3557 -7.276959e+00 -6.104491e+00 -1.220637e+01 # CAO
    247      17       5   -2.4057 -8.824397e+00 -8.036372e+00 -1.268321e+01 # CTT
    248      17       6    0.1480 -7.081385e+00 -9.283622e+00 -1.100751e+01 # HAT
    249      17       6    0.1480 -5.090147e+00 -8.317823e+00 -9.888309e+00 # HAT
    250      17       6    0.1480 -4.496664e+00 -5.937317e+00 -1.025076e+01 # HAT
    251      17       6    0.1480 -5.894421e+00 -4.522610e+00 -1.173241e+01 # HAT
    252      17       6    0.1480 -7.885659e+00 -5.488409e+00 -1.285160e+01 # HAT
    253      17       7    0.0920 -9.240665e+00 -8.830581e+00 -1.206349e+01 # HT
    254      17       7    0.0920 -9.573881e+00 -7.258201e+00 -1.282751e+01 # HT
    255      17       7    0.0920 -8.535069e+00 -8.445421e+00 -1.365123e+01 # HT
    256      18       1   -2.2897  7.923460e+00  1.302445e+01  1.357670e+00 # CAT
    257      18       2   -2.3557  6.852707e+00  1.375915e+01  8.345080e-01 # CAO
    258      18       3   -2.3537  7.062252e+00  1.463533e+01 -2.371250e-01 # CAM
    259      18       4   -2.3627  8.342551e+00  1.477681e+01 -7.855940e-01 # CAP
    260      18       3   -2.3537  9.413304e+00  1.404211e+01 -2.624310e-01 # CAM
    261      18       2   -2.3557  9.203759e+00  1.316593e+01  8.092010e-01 # CAO
    262      18       5   -2.4057  7.697451e+00  1.207943e+01  2.513502e+00 # CTT
    263      18       6    0.1480  5.865048e+00  1.365001e+01  1.257612e+00 # HAT
    264      18       6    0.1480  6.236242e+00  1.520210e+01 -6.407080e-01 # HAT
    265      18       6    0.1480  8.504200e+00  1.545273e+01 -1.612282e+00 # HAT
    266      18       6    0.1480  1.040096e+01  1.415125e+01 -6.855360e-01 # HAT
    267      18       6    0.1480  1.002977e+01  1.259916e+01  1.212783e+00 # HAT
    268      18       7    0.0920  6.680698e+00  1.168893e+01  2.470753e+00 # HT
    269      18       7    0.0920  8.406167e+00  1.125356e+01  2.452180e+00 # HT
    270      18       7    0.0920  7.842109e+00  1.261265e+01  3.453100e+00 # HT
    271      19       1   -2.2897 -2.186224e+00 -1.425547e+01 -5.395257e+00 # CAT
    272      19       2   -2.3557 -3.218403e+00 -1.332156e+01 -5.245537e+00 # CAO
    273      19       3   -2.3537 -3.525908e+00 -1.244425e+01 -6.292331e+00 # CAM
    274      19       4   -2.3627 -2.801235e+00 -1.250086e+01 -7.488843e+00 # CAP
    275      19       3   -2.3537 -1.769056e+00 -1.343477e+01 -7.638563e+00 # CAM
    276      19       2   -2.3557 -1.461551e+00 -1.431207e+01 -6.591770e+00 # CAO
    277      19       5   -2.4057 -1.854558e+00 -1.520170e+01 -4.266216e+00 # CTT
    278      19       6    0.1480 -3.777437e+00 -1.327789e+01 -4.322513e+00 # HAT
    279      19       6    0.1480 -4.322161e+00 -1.172381e+01 -6.176832e+00 # HAT
    280      19       6    0.1480 -3.038453e+00 -1.182408e+01 -8.296370e+00 # HAT
    281      19       6    0.1480 -1.210022e+00 -1.347844e+01 -8.561588e+00 # HAT
    282      19       6    0.1480 -6.652980e-01 -1.503252e+01 -6.707269e+00 # HAT
    283      19       7    0.0920 -2.754968e+00 -1.540718e+01 -3.687303e+00 # HT
    284      19       7    0.0920 -1.465590e+00 -1.613414e+01 -4.675322e+00 # HT
    285      19       7    0.0920 -1.103360e+00 -1.474780e+01 -3.619859e+00 # HT
    286      20       1   -2.2897 -1.346451e+00  6.661046e+00  8.787523e+00 # CAT
    287      20       2   -2.3557 -6.521460e-01  7.709245e+00  9.403331e+00 # CAO
    288      20       3   -2.3537  5.137470e-01  8.216290e+00  8.817157e+00 # CAM
    289      20       4   -2.3627  9.853350e-01  7.675137e+00  7.615177e+00 # CAP
    290      20       3   -2.3537  2.910300e-01  6.626938e+00  6.999369e+00 # CAM
    291      20       2   -2.3557 -8.748630e-01  6.119893e+00  7.585541e+00 # CAO
    292      20       5   -2.4057 -2.603949e+00  6.114161e+00  9.419752e+00 # CTT
    293      20       6    0.1480 -1.015941e+00  8.126706e+00  1.033057e+01 # HAT
    294      20       6    0.1480  1.049354e+00  9.024901e+00  9.292209e+00 # HAT
    295      20       6    0.1480  1.884738e+00  8.066287e+00  7.162986e+00 # HAT
    296      20       6    0.1480  6.548260e-01  6.209477e+00  6.072126e+00 # HAT
    297      20       6    0.1480 -1.410470e+00  5.311282e+00  7.110489e+00 # HAT
    298      20       7    0.0920 -3.105695e+00  6.906086e+00  9.975816e+00 # HT
    299      20       7    0.0920 -3.269150e+00  5.739638e+00  8.641716e+00 # HT
    300      20       7    0.0920 -2.346023e+00  5.301427e+00  1.009875e+01 # HT
    301      21       1   -2.2897 -6.695500e-01  6.618239e+00  1.261271e+01 # CAT
    302      21       2   -2.3557  1.759880e-01  7.733820e+00  1.258937e+01 # CAO
    303      21       3   -2.3537 -3.674810e-01  9.023277e+00  1.254529e+01 # CAM
    304      21       4   -2.3627 -1.756486e+00  9.197152e+00  1.252454e+01 # CAP
    305      21       3   -2.3537 -2.602023e+00  8.081571e+00  1.254787e+01 # CAM
    306      21       2   -2.3557 -2.058556e+00  6.792114e+00  1.259196e+01 # CAO
    307      21       5   -2.4057 -8.338100e-02  5.227468e+00  1.266026e+01 # CTT
    308      21       6    0.1480  1.247506e+00  7.599688e+00  1.260538e+01 # HAT
    309      21       6    0.1480  2.847910e-01  9.883868e+00  1.252728e+01 # HAT
    310      21       6    0.1480 -2.175733e+00  1.019188e+01  1.249052e+01 # HAT
    311      21       6    0.1480 -3.673543e+00  8.215703e+00  1.253186e+01 # HAT
    312      21       6    0.1480 -2.710827e+00  5.931523e+00  1.260996e+01 # HAT
    313      21       7    0.0920  8.720660e-01  5.253034e+00  1.318426e+01 # HT
    314      21       7    0.0920 -7.678960e-01  4.561903e+00  1.318615e+01 # HT
    315      21       7    0.0920  6.941900e-02  4.862105e+00  1.164475e+01 # HT
    316      22       1   -2.2897  3.267763e+00 -7.412651e+00 -5.063502e+00 # CAT
    317      22       2   -2.3557  4.097818e+00 -7.104204e+00 -3.979127e+00 # CAO
    318      22       3   -2.3537  5.248325e+00 -6.331161e+00 -4.175947e+00 # CAM
    319      22       4   -2.3627  5.568777e+00 -5.866566e+00 -5.457142e+00 # CAP
    320      22       3   -2.3537  4.738722e+00 -6.175013e+00 -6.541517e+00 # CAM
    321      22       2   -2.3557  3.588215e+00 -6.948055e+00 -6.344697e+00 # CAO
    322      22       5   -2.4057  2.026859e+00 -8.246432e+00 -4.851217e+00 # CTT
    323      22       6    0.1480  3.850612e+00 -7.462606e+00 -2.990776e+00 # HAT
    324      22       6    0.1480  5.888653e+00 -6.093216e+00 -3.339430e+00 # HAT
    325      22       6    0.1480  6.456312e+00 -5.270218e+00 -5.608975e+00 # HAT
    326      22       6    0.1480  4.985929e+00 -5.816610e+00 -7.529868e+00 # HAT
    327      22       6    0.1480  2.947887e+00 -7.186000e+00 -7.181215e+00 # HAT
    328      22       7    0.0920  1.642767e+00 -8.077600e+00 -3.845200e+00 # HT
    329      22       7    0.0920  1.268763e+00 -7.963000e+00 -5.581325e+00 # HT
    330      22       7    0.0920  2.272021e+00 -9.301421e+00 -4.973670e+00 # HT
    331      23       1   -2.2897 -1.396646e+01  1.398547e+01 -1.488841e+01 # CAT
    332      23       2   -2.3557 -1.260950e+01  1.432984e+01 -1.488085e+01 # CAO
    333      23       3   -2.3537 -1.163478e+01  1.333847e+01 -1.504552e+01 # CAM
    334      23       4   -2.3627 -1.201703e+01  1.200272e+01 -1.521775e+01 # CAP
    335      23       3   -2.3537 -1.337400e+01  1.165835e+01 -1.522532e+01 # CAM