LAMMPS (27 Nov 2018)
  using 1 OpenMP thread(s) per MPI task
# 250 toluene system for drude polarizability example (Langevin)

units real
boundary p p p

atom_style full
bond_style harmonic
angle_style harmonic
dihedral_style opls
improper_style opls
ERROR: Unknown improper style opls (src/force.cpp:634)
Last command: improper_style opls
