Created on Mon Oct  3 10:06:14 2011

         384 atoms
         320 bonds
         448 angles
         192 dihedrals
           0 impropers

           4 atom types
           3 bond types
           2 angle types
           1 dihedral types
           0 improper types

           0.000000  19.996890 xlo xhi
           0.000000  19.128160 ylo yhi
           0.000000  19.469710 zlo zhi

Masses

    1   1.0080 # H_     
    2   1.0080 # H___A  
    3  12.0110 # C_3    
    4  15.9994 # O_3    
                

Bond Coeffs

    1             350            1.42 # O_3 C_3 
    2             350            0.98 # O_3 H___A 
    3             350            1.09 # C_3 H_                 

Angle Coeffs

    1              50          104.51 # X O_3 X 
    2              50         109.471 # X C_3 X                 

Dihedral Coeffs

    1        0.333333               1     3             # X O_3 C_3 X 

Atoms

       1      444        3     0.03193    9.75768    9.43603    9.44978    0    0    0
       2      444        4    -0.39965    9.07001    9.89252   10.61030    0    0    0
       3      444        1     0.05269    9.56169    8.37372    9.30573    0    0    0
       4      444        1     0.05269    9.40633    9.98872    8.57739    0    0    0
       5      444        1     0.05269   10.83081    9.58873    9.56849    0    0    0
       6      444        2     0.20964    9.28861   10.84826   10.67569    0    0    0
       7      444        3     0.03193    7.87790    6.57305    4.37926    0    0    0
       8      444        4    -0.39965    9.21046    6.55811    3.88167    0    0    0
       9      444        1     0.05269    7.42565    7.54437    4.17519    0    0    0
      10      444        1     0.05269    7.28908    5.79550    3.89029    0    0    0
      11      444        1     0.05269    7.88159    6.39628    5.45605    0    0    0
      12      444        2     0.20964    9.55621    5.66386    4.09964    0    0    0
      13      444        3     0.03193   19.38728    8.01844    0.29841    0    0    0
      14      444        4    -0.39965   18.30059    8.67235    0.94403    0    0    0
      15      444        1     0.05269   20.09420    7.66052    1.04704    0    0    0
      16      444        1     0.05269   19.01558    7.17130   -0.27928    0    0    0
      17      444        1     0.05269   19.89453    8.71684   -0.36839    0    0    0
      18      444        2     0.20964   17.72537    8.98355    0.21436    0    0    0
      19      444        3     0.03193    3.43963   14.29741   12.62221    0    0    0
      20      444        4    -0.39965    3.07671   15.61822   12.23631    0    0    0
      21      444        1     0.05269    4.27302   14.34187   13.32349    0    0    0
      22      444        1     0.05269    2.59308   13.81008   13.10508    0    0    0
      23      444        1     0.05269    3.73991   13.72415   11.74356    0    0    0
      24      444        2     0.20964    2.32966   15.52033   11.61130    0    0    0
      25      444        3     0.03193   16.06751   17.84957   14.39706    0    0    0
      26      444        4    -0.39965   15.98970   19.07282   15.11734    0    0    0
      27      444        1     0.05269   16.77526   17.18402   14.89204    0    0    0
      28      444        1     0.05269   15.08510   17.37867   14.36938    0    0    0
      29      444        1     0.05269   16.40684   18.04085   13.37809    0    0    0
      30      444        2     0.20964   15.35997   19.62900   14.61094    0    0    0
      31      444        3     0.03193    5.61540   13.90261    0.28024    0    0    0
      32      444        4    -0.39965    6.96329   14.33980    0.39819    0    0    0
      33      444        1     0.05269    5.39381   13.18200    1.06831    0    0    0
      34      444        1     0.05269    4.93854   14.75467    0.36989    0    0    0
      35      444        1     0.05269    5.46825   13.42632   -0.68848    0    0    0
      36      444        2     0.20964    7.08381   14.99923   -0.31851    0    0    0
      37      444        3     0.03193   10.38444   13.74977    1.74423    0    0    0
      38      444        4    -0.39965   10.34865   13.00890    2.96031    0    0    0
      39      444        1     0.05269   11.31498   14.30998    1.68756    0    0    0
      40      444        1     0.05269   10.32135   13.06875    0.89580    0    0    0
      41      444        1     0.05269    9.54190   14.44190    1.71309    0    0    0
      42      444        2     0.20964    9.45315   12.60486    2.98815    0    0    0
      43      444        3     0.03193    2.71877   -0.19852   13.91482    0    0    0
      44      444        4    -0.39965    2.55981    1.00656   13.16980    0    0    0
      45      444        1     0.05269    3.42887   -0.85053   13.40421    0    0    0
      46      444        1     0.05269    3.09835    0.02977   14.91227    0    0    0
      47      444        1     0.05269    1.76062   -0.71177   13.99933    0    0    0
      48      444        2     0.20964    1.92580    1.55260   13.68058    0    0    0
      49      444        3     0.03193   12.86271   12.87291    9.10254    0    0    0
      50      444        4    -0.39965   12.72964   12.19590    7.85730    0    0    0
      51      444        1     0.05269   11.91715   12.83126    9.64447    0    0    0
      52      444        1     0.05269   13.63913   12.39659    9.70188    0    0    0
      53      444        1     0.05269   13.12955   13.91577    8.92585    0    0    0
      54      444        2     0.20964   13.60640   12.28637    7.42000    0    0    0
      55      444        3     0.03193    0.91345    1.84436    7.21758    0    0    0
      56      444        4    -0.39965    0.16704    0.83109    7.88260    0    0    0
      57      444        1     0.05269    1.73149    1.39473    6.65448    0    0    0
      58      444        1     0.05269    0.25949    2.38287    6.53090    0    0    0
      59      444        1     0.05269    1.31674    2.54212    7.95173    0    0    0
      60      444        2     0.20964    0.79209    0.41480    8.51642    0    0    0
      61      444        3     0.03193    3.28235   16.40235    6.34784    0    0    0
      62      444        4    -0.39965    4.40446   15.86811    5.64397    0    0    0
      63      444        1     0.05269    3.52775   16.47384    7.40940    0    0    0
      64      444        1     0.05269    3.04852   17.39543    5.96551    0    0    0
      65      444        1     0.05269    2.41989   15.75077    6.22278    0    0    0
      66      444        2     0.20964    4.15040   15.88018    4.69552    0    0    0
      67      444        3     0.03193   14.28685   11.84833    2.69644    0    0    0
      68      444        4    -0.39965   14.47540   12.00775    4.09802    0    0    0
      69      444        1     0.05269   15.22519   11.52503    2.24449    0    0    0
      70      444        1     0.05269   13.51978   11.09713    2.50925    0    0    0
      71      444        1     0.05269   13.98187   12.79680    2.25228    0    0    0
      72      444        2     0.20964   13.60420   12.29868    4.44979    0    0    0
      73      444        3     0.03193    3.74650    0.37490    9.28202    0    0    0
      74      444        4    -0.39965    4.68624    1.26369    8.68537    0    0    0
      75      444        1     0.05269    4.28178   -0.38700    9.84868    0    0    0
      76      444        1     0.05269    3.08874    0.92642    9.95440    0    0    0
      77      444        1     0.05269    3.15691   -0.10643    8.50276    0    0    0
      78      444        2     0.20964    4.15269    1.92251    8.18619    0    0    0
      79      444        3     0.03193   17.93191    1.98830   17.28592    0    0    0
      80      444        4    -0.39965   16.68990    1.36769   17.60090    0    0    0
      81      444        1     0.05269   18.23740    2.63433   18.10865    0    0    0
      82      444        1     0.05269   18.69345    1.22519   17.12938    0    0    0
      83      444        1     0.05269   17.82727    2.59026   16.38313    0    0    0
      84      444        2     0.20964   16.45659    0.83462   16.81232    0    0    0
      85      444        3     0.03193    4.61466   10.52979   17.10957    0    0    0
      86      444        4    -0.39965    3.62035   11.42538   17.60198    0    0    0
      87      444        1     0.05269    5.60177   10.98718   17.19552    0    0    0
      88      444        1     0.05269    4.60514    9.60666   17.68872    0    0    0
      89      444        1     0.05269    4.42040   10.30112   16.06086    0    0    0
      90      444        2     0.20964    2.76200   10.96432   17.46823    0    0    0
      91      444        3     0.03193    4.21479    2.76452    1.93621    0    0    0
      92      444        4    -0.39965    3.45640    2.43822    3.09183    0    0    0
      93      444        1     0.05269    5.15561    3.22498    2.23935    0    0    0
      94      444        1     0.05269    4.42333    1.85922    1.36296    0    0    0
      95      444        1     0.05269    3.65868    3.46500    1.31342    0    0    0
      96      444        2     0.20964    2.68968    1.92747    2.75853    0    0    0
      97      444        3     0.03193    2.10781   10.76856    1.36312    0    0    0
      98      444        4    -0.39965    0.80698   11.27394    1.07892    0    0    0
      99      444        1     0.05269    2.85114   11.53660    1.14272    0    0    0
     100      444        1     0.05269    2.17873   10.49350    2.41651    0    0    0
     101      444        1     0.05269    2.31220    9.89096    0.74802    0    0    0
     102      444        2     0.20964    0.18009   10.55168    1.30975    0    0    0
     103      444        3     0.03193   16.26093    8.92927    6.57643    0    0    0
     104      444        4    -0.39965   15.77968    8.06983    7.60177    0    0    0
     105      444        1     0.05269   17.30509    9.17300    6.76897    0    0    0
     106      444        1     0.05269   16.18069    8.42876    5.61195    0    0    0
     107      444        1     0.05269   15.67380    9.84869    6.55835    0    0    0
     108      444        2     0.20964   14.84042    7.91008    7.37720    0    0    0
     109      444        3     0.03193   17.80004    2.06792    1.87371    0    0    0
     110      444        4    -0.39965   18.48862    0.99081    1.24012    0    0    0
     111      444        1     0.05269   18.23871    2.25534    2.85453    0    0    0
     112      444        1     0.05269   17.87937    2.96817    1.26859    0    0    0
     113      444        1     0.05269   16.74643    1.80633    1.99693    0    0    0
     114      444        2     0.20964   18.02202    0.85350    0.38356    0    0    0
     115      444        3     0.03193   13.75521   14.57173   15.42181    0    0    0
     116      444        4    -0.39965   12.73183   15.48504   15.80455    0    0    0
     117      444        1     0.05269   14.51862   14.53760   16.20019    0    0    0
     118      444        1     0.05269   13.33164   13.57618   15.29114    0    0    0
     119      444        1     0.05269   14.21175   14.89091   14.48437    0    0    0
     120      444        2     0.20964   12.11746   15.52768   15.03694    0    0    0
     121      444        3     0.03193    6.22569   16.46321   11.49168    0    0    0
     122      444        4    -0.39965    7.37834   15.65849   11.27192    0    0    0
     123      444        1     0.05269    6.47325   17.50688   11.31115    0    0    0
     124      444        1     0.05269    5.42639   16.16714   10.80967    0    0    0
     125      444        1     0.05269    5.88670   16.35324   12.52283    0    0    0
     126      444        2     0.20964    7.09224   14.73066   11.41776    0    0    0
     127      444        3     0.03193   20.01012    9.33317    4.86657    0    0    0
     128      444        4    -0.39965   19.63827    8.14994    5.56401    0    0    0
     129      444        1     0.05269   20.82510    9.82112    5.40128    0    0    0
     130      444        1     0.05269   20.34186    9.07963    3.85908    0    0    0
     131      444        1     0.05269   19.16051   10.01349    4.80673    0    0    0
     132      444        2     0.20964   18.86130    7.79949    5.07585    0    0    0
     133      444        3     0.03193    5.99486    1.97634    5.72513    0    0    0
     134      444        4    -0.39965    6.74021    3.13466    6.08586    0    0    0
     135      444        1     0.05269    4.92875    2.19578    5.79288    0    0    0
     136      444        1     0.05269    6.23376    1.68432    4.70221    0    0    0
     137      444        1     0.05269    6.23815    1.15441    6.40034    0    0    0
     138      444        2     0.20964    7.67684    2.83917    6.07790    0    0    0
     139      444        3     0.03193   13.03835    7.12913    5.28770    0    0    0
     140      444        4    -0.39965   13.02644    7.55487    6.64544    0    0    0
     141      444        1     0.05269   12.06949    6.70203    5.02747    0    0    0
     142      444        1     0.05269   13.24117    7.98172    4.63978    0    0    0
     143      444        1     0.05269   13.81531    6.37647    5.14697    0    0    0
     144      444        2     0.20964   12.38966    8.29858    6.65964    0    0    0
     145      444        3     0.03193   10.64649    1.42163    6.99575    0    0    0
     146      444        4    -0.39965   11.32932    1.55767    8.23581    0    0    0
     147      444        1     0.05269    9.77461    0.78340    7.13967    0    0    0
     148      444        1     0.05269   10.32031    2.40213    6.64261    0    0    0
     149      444        1     0.05269   11.30461    0.96891    6.25436    0    0    0
     150      444        2     0.20964   12.13048    2.09412    8.04749    0    0    0
     151      444        3     0.03193    7.70974   10.56643    0.43745    0    0    0
     152      444        4    -0.39965    6.69643   10.25499    1.38817    0    0    0
     153      444        1     0.05269    8.59868   10.91732    0.96199    0    0    0
     154      444        1     0.05269    7.96121    9.67471   -0.13665    0    0    0
     155      444        1     0.05269    7.36428   11.34806   -0.24011    0    0    0
     156      444        2     0.20964    5.94241    9.89154    0.87302    0    0    0
     157      444        3     0.03193   12.78344    1.18067   14.16301    0    0    0
     158      444        4    -0.39965   14.01647    1.62010   13.60417    0    0    0
     159      444        1     0.05269   12.98217    0.47776   14.97222    0    0    0
     160      444        1     0.05269   12.23227    2.03435   14.55662    0    0    0
     161      444        1     0.05269   12.18352    0.68832   13.39874    0    0    0
     162      444        2     0.20964   13.77530    2.26070   12.89474    0    0    0
     163      444        3     0.03193   16.94139   17.42253    1.05686    0    0    0
     164      444        4    -0.39965   16.08424   16.29569    1.04946    0    0    0
     165      444        1     0.05269   17.18791   17.69368    0.02960    0    0    0
     166      444        1     0.05269   16.43795   18.25970    1.54236    0    0    0
     167      444        1     0.05269   17.85566   17.18021    1.60025    0    0    0
     168      444        2     0.20964   15.85827   16.14412    1.99459    0    0    0
     169      444        3     0.03193   12.48878   18.07306    2.58158    0    0    0
     170      444        4    -0.39965   13.76343   18.70451    2.65479    0    0    0
     171      444        1     0.05269   12.02971   18.30966    1.62310    0    0    0
     172      444        1     0.05269   12.61189   16.99304    2.67149    0    0    0
     173      444        1     0.05269   11.85062   18.43623    3.38623    0    0    0
     174      444        2     0.20964   14.05960   18.54980    3.57438    0    0    0
     175      444        3     0.03193   19.92937   14.32320    3.09954    0    0    0
     176      444        4    -0.39965   20.47921   14.98239    4.23349    0    0    0
     177      444        1     0.05269   19.06424   14.88021    2.74247    0    0    0
     178      444        1     0.05269   20.67424   14.26863    2.30532    0    0    0
     179      444        1     0.05269   19.62003   13.31457    3.37662    0    0    0
     180      444        2     0.20964   21.24382   14.42340    4.50083    0    0    0
     181      444        3     0.03193   10.63009   10.62036    5.48247    0    0    0
     182      444        4    -0.39965   11.32080    9.96459    6.53930    0    0    0
     183      444        1     0.05269    9.97896    9.90801    4.97371    0    0    0
     184      444        1     0.05269   10.02580   11.43533    5.88411    0    0    0
     185      444        1     0.05269   11.34799   11.02578    4.76860    0    0    0
     186      444        2     0.20964   11.85790   10.67095    6.95281    0    0    0
     187      444        3     0.03193   15.65699    9.09727   17.99408    0    0    0
     188      444        4    -0.39965   16.90142    9.78939   17.98916    0    0    0
     189      444        1     0.05269   15.04412    9.44428   18.82685    0    0    0
     190      444        1     0.05269   15.12611    9.28242   17.05809    0    0    0
     191      444        1     0.05269   15.82887    8.02576   18.10423    0    0    0
     192      444        2     0.20964   17.40700    9.38003   17.24481    0    0    0
     193      444        3     0.03193   17.18063    5.09511    5.97377    0    0    0
     194      444        4    -0.39965   17.00699    3.69621    6.16625    0    0    0
     195      444        1     0.05269   16.80087    5.38050    4.99222    0    0    0
     196      444        1     0.05269   16.63290    5.63866    6.74297    0    0    0
     197      444        1     0.05269   18.23947    5.34654    6.03632    0    0    0
     198      444        2     0.20964   17.37922    3.51369    7.05728    0    0    0
     199      444        3     0.03193    9.27176   16.96360   18.60348    0    0    0
     200      444        4    -0.39965   10.16048   17.88001   19.23027    0    0    0
     201      444        1     0.05269    8.24372   17.25233   18.82182    0    0    0
     202      444        1     0.05269    9.42846   16.97594   17.52377    0    0    0
     203      444        1     0.05269    9.45162   15.95835   18.98512    0    0    0
     204      444        2     0.20964   11.05433   17.57777   18.98374    0    0    0
     205      444        3     0.03193   19.02698   11.32629    8.74382    0    0    0
     206      444        4    -0.39965   19.55395   11.57496    7.44476    0    0    0
     207      444        1     0.05269   19.84306   11.28874    9.46486    0    0    0
     208      444        1     0.05269   18.34041   12.12651    9.02172    0    0    0
     209      444        1     0.05269   18.49941   10.37268    8.75573    0    0    0
     210      444        2     0.20964   18.77484   11.55877    6.84653    0    0    0
     211      444        3     0.03193   13.70984   17.91381   18.18096    0    0    0
     212      444        4    -0.39965   12.78082   16.86629   18.42949    0    0    0
     213      444        1     0.05269   14.65264   17.49419   17.82801    0    0    0
     214      444        1     0.05269   13.30579   18.58561   17.42320    0    0    0
     215      444        1     0.05269   13.88737   18.47185   19.10049    0    0    0
     216      444        2     0.20964   12.70938   16.39241   17.57615    0    0    0
     217      444        3     0.03193    7.96084    1.88854    9.90132    0    0    0
     218      444        4    -0.39965    7.16836    0.76877   10.27166    0    0    0
     219      444        1     0.05269    8.08701    1.90679    8.82000    0    0    0
     220      444        1     0.05269    7.47244    2.80930   10.22050    0    0    0
     221      444        1     0.05269    8.93667    1.81039   10.37952    0    0    0
     222      444        2     0.20964    6.33219    0.87991    9.77220    0    0    0
     223      444        3     0.03193    8.67989   16.70958    5.83790    0    0    0
     224      444        4    -0.39965    8.12024   17.60224    6.79460    0    0    0
     225      444        1     0.05269    8.09228   16.75013    4.91967    0    0    0
     226      444        1     0.05269    9.70728   17.00048    5.62151    0    0    0
     227      444        1     0.05269    8.66415   15.69153    6.22812    0    0    0
     228      444        2     0.20964    8.61953   17.44038    7.62546    0    0    0
     229      444        3     0.03193    8.92912    4.00904    0.50900    0    0    0
     230      444        4    -0.39965    8.96759    5.27857   -0.13058    0    0    0
     231      444        1     0.05269    8.33969    4.08141    1.42278    0    0    0
     232      444        1     0.05269    8.47682    3.27429   -0.15833    0    0    0
     233      444        1     0.05269    9.94193    3.69036    0.75961    0    0    0
     234      444        2     0.20964    9.53405    5.14064   -0.92363    0    0    0
     235      444        3     0.03193   14.12006    6.78048   11.59632    0    0    0
     236      444        4    -0.39965   13.07688    7.13628   10.69542    0    0    0
     237      444        1     0.05269   14.86068    7.57932   11.63302    0    0    0
     238      444        1     0.05269   13.70582    6.62813   12.59405    0    0    0
     239      444        1     0.05269   14.60290    5.86276   11.26001    0    0    0
     240      444        2     0.20964   12.46641    6.36815   10.68540    0    0    0
     241      444        3     0.03193   11.17366   12.60541   17.35410    0    0    0
     242      444        4    -0.39965   11.02139   13.96786   17.73395    0    0    0
     243      444        1     0.05269   10.47704   11.99021   17.92352    0    0    0
     244      444        1     0.05269   10.96097   12.49402   16.29011    0    0    0
     245      444        1     0.05269   12.19388   12.27752   17.55780    0    0    0
     246      444        2     0.20964   11.62997   14.46572   17.15437    0    0    0
     247      444        3     0.03193   13.59375   17.68257    6.60725    0    0    0
     248      444        4    -0.39965   14.41796   18.19915    5.56896    0    0    0
     249      444        1     0.05269   12.56750   17.59958    6.25257    0    0    0
     250      444        1     0.05269   13.95140   16.69610    6.90350    0    0    0
     251      444        1     0.05269   13.62441   18.35441    7.46523    0    0    0
     252      444        2     0.20964   15.31701   18.26489    5.96089    0    0    0
     253      444        3     0.03193    5.00550    8.70879    7.93082    0    0    0
     254      444        4    -0.39965    5.30633    7.53730    7.17920    0    0    0
     255      444        1     0.05269    3.92410    8.80228    8.03546    0    0    0
     256      444        1     0.05269    5.45973    8.64206    8.92134    0    0    0
     257      444        1     0.05269    5.39337    9.58812    7.41497    0    0    0
     258      444        2     0.20964    6.28240    7.52607    7.08649    0    0    0
     259      444        3     0.03193   19.22046    1.28969   13.91270    0    0    0
     260      444        4    -0.39965   20.08805    2.12898   14.66921    0    0    0
     261      444        1     0.05269   18.36269    1.87059   13.57299    0    0    0
     262      444        1     0.05269   19.74873    0.89208   13.04541    0    0    0
     263      444        1     0.05269   18.87095    0.46148   14.53042    0    0    0
     264      444        2     0.20964   20.73583    1.52580   15.09558    0    0    0
     265      444        3     0.03193    5.65052    5.42047   10.40141    0    0    0
     266      444        4    -0.39965    6.43233    5.15576   11.55959    0    0    0
     267      444        1     0.05269    4.77591    4.76790   10.40245    0    0    0
     268      444        1     0.05269    5.31750    6.45945   10.40208    0    0    0
     269      444        1     0.05269    6.23775    5.22771    9.50311    0    0    0
     270      444        2     0.20964    7.22334    5.73649   11.49818    0    0    0
     271      444        3     0.03193   13.28289    5.81639   20.26495    0    0    0
     272      444        4    -0.39965   14.46108    5.91020   19.47306    0    0    0
     273      444        1     0.05269   12.54449    6.53149   19.89956    0    0    0
     274      444        1     0.05269   12.86565    4.81041   20.20085    0    0    0
     275      444        1     0.05269   13.51599    6.04282   21.30628    0    0    0
     276      444        2     0.20964   15.06689    5.21681   19.82048    0    0    0
     277      444        3     0.03193    8.93119   18.18764   13.28407    0    0    0
     278      444        4    -0.39965    7.83369   17.94987   14.15258    0    0    0
     279      444        1     0.05269    8.62256   18.85058   12.47662    0    0    0
     280      444        1     0.05269    9.74951   18.65521   13.83984    0    0    0
     281      444        1     0.05269    9.27914   17.24313   12.85839    0    0    0
     282      444        2     0.20964    8.18034   17.33710   14.83873    0    0    0
     283      444        3     0.03193    5.79456    2.19968   17.80701    0    0    0
     284      444        4    -0.39965    6.24133    2.96696   16.69489    0    0    0
     285      444        1     0.05269    5.95925    2.76662   18.72146    0    0    0
     286      444        1     0.05269    4.73133    1.97951   17.70368    0    0    0
     287      444        1     0.05269    6.35360    1.26369   17.85787    0    0    0
     288      444        2     0.20964    6.11167    2.36984   15.93032    0    0    0
     289      444        3     0.03193    7.02257    8.31146   13.32419    0    0    0
     290      444        4    -0.39965    6.81830    9.58617   13.92250    0    0    0
     291      444        1     0.05269    6.70351    7.53159   14.01772    0    0    0
     292      444        1     0.05269    6.43819    8.23664   12.40602    0    0    0
     293      444        1     0.05269    8.08019    8.17829   13.09255    0    0    0
     294      444        2     0.20964    7.15181   10.23194   13.26245    0    0    0
     295      444        3     0.03193   14.02631    3.46938   16.96774    0    0    0
     296      444        4    -0.39965   13.54366    2.24600   17.51611    0    0    0
     297      444        1     0.05269   13.77498    3.53066   15.91013    0    0    0
     298      444        1     0.05269   13.56595    4.30739   17.48900    0    0    0
     299      444        1     0.05269   15.10861    3.52592   17.07904    0    0    0
     300      444        2     0.20964   13.94305    2.20406   18.41525    0    0    0
     301      444        3     0.03193    1.20831   18.57486    2.95108    0    0    0
     302      444        4    -0.39965    1.22576   19.81993    2.26075    0    0    0
     303      444        1     0.05269    0.55458   18.64320    3.82147    0    0    0
     304      444        1     0.05269    0.84728   17.78646    2.28798    0    0    0
     305      444        1     0.05269    2.21813   18.32995    3.28130    0    0    0
     306      444        2     0.20964    0.30364   19.97372    1.97883    0    0    0
     307      444        3     0.03193   13.27354   18.56828   10.67719    0    0    0
     308      444        4    -0.39965   12.48821   17.54334   10.07841    0    0    0
     309      444        1     0.05269   12.67535   19.47728   10.75867    0    0    0
     310      444        1     0.05269   13.59103   18.25289   11.67155    0    0    0
     311      444        1     0.05269   14.15208   18.77184   10.06448    0    0    0
     312      444        2     0.20964   13.09935   16.78781    9.93641    0    0    0
     313      444        3     0.03193    6.36730   14.29234    8.10345    0    0    0
     314      444        4    -0.39965    6.40678   13.98673    6.71535    0    0    0
     315      444        1     0.05269    5.36805   14.09806    8.49177    0    0    0
     316      444        1     0.05269    7.08832   13.66856    8.63166    0    0    0
     317      444        1     0.05269    6.61905   15.34196    8.25886    0    0    0
     318      444        2     0.20964    5.76587   14.60457    6.30951    0    0    0
     319      444        3     0.03193    2.65328    9.08063   11.58358    0    0    0
     320      444        4    -0.39965    2.00217    9.04988   10.31818    0    0    0
     321      444        1     0.05269    2.77179    8.06201   11.95511    0    0    0
     322      444        1     0.05269    3.63556    9.54427   11.48302    0    0    0
     323      444        1     0.05269    2.05382    9.65342   12.29226    0    0    0
     324      444        2     0.20964    1.90245    9.98881   10.05330    0    0    0
     325      444        3     0.03193   16.09537   13.47946   18.75299    0    0    0
     326      444        4    -0.39965   15.35647   12.29789   19.02596    0    0    0
     327      444        1     0.05269   15.44738   14.34606   18.88103    0    0    0
     328      444        1     0.05269   16.93959   13.54850   19.44072    0    0    0
     329      444        1     0.05269   16.46394   13.45617   17.72675    0    0    0
     330      444        2     0.20964   15.94172   11.56097   18.74998    0    0    0
     331      444        3     0.03193    5.36713    6.40841   19.02468    0    0    0
     332      444        4    -0.39965    6.23337    6.92207   18.01801    0    0    0
     333      444        1     0.05269    4.33549    6.65297   18.77623    0    0    0
     334      444        1     0.05269    5.47707    5.32425   19.08654    0    0    0