LAMMPS data file for default_name

587 atoms
12 bonds
18 angles
30 dihedrals
0 impropers

3 atom types
2 bond types
2 angle types
2 dihedral types

-11.3621 18.0429 xlo xhi
-13.9039 16.0051 ylo yhi
-13.1983 16.7857 zlo zhi

Masses

1 12.01
2 1.008
3 18.015000

Bond Coeffs

1 344.30000000000001 1.087
2 478.39999999999998 1.387

Angle Coeffs

1 48.460000000000001 120.01005126147997
2 67.180000000000007 119.97005135892852

Dihedral Coeffs

1 3.625 -1 2
2 1.1000000000000001 -1 2

Atoms

1  1   2.36    1.266   2.813  0.000000  12.0 -0.13 0.00000   0.00000   0.00000  1
2  2   1.613   1.52    3.563  0.000000   1.0  0.13 0.00000   0.00000   0.00000  1
3  1   2.533   2.086   1.698  0.000000  12.0 -0.13 0.00000   0.00000   0.00000  1
4  2   1.927   2.98    1.580  0.000000   1.0  0.13 0.00000   0.00000   0.00000  1
5  1   3.488   1.758   0.736  0.000000  12.0 -0.13 0.00000   0.00000   0.00000  1
6  2   3.626   2.397  -0.132  0.000000   1.0  0.13 0.00000   0.00000   0.00000  1
7  1   4.27    0.61    0.887  0.000000  12.0 -0.13 0.00000   0.00000   0.00000  1
8  2   5.009   0.355   0.137  0.000000   1.0  0.13 0.00000   0.00000   0.00000  1
9  1   4.088  -0.21    2.002  0.000000  12.0 -0.13 0.00000   0.00000   0.00000  1
10 2   4.694  -1.105   2.12   0.000000   1.0  0.13 0.00000   0.00000   0.00000  1
11 1   3.134   0.118   2.964  0.000000  12.0 -0.13 0.00000   0.00000   0.00000  1
12 2   2.996  -0.521   3.833  0.000000   1.0  0.13 0.00000   0.00000   0.00000  1
13 3  -2.106  -4.049   4.900  4.080749 0.5063 0.00 0.53449   0.02447   0.08219  2 
14 3   7.017  -2.905   0.217  4.080749 0.5063 0.00 0.53449   0.02447   0.08219  3 
15 3   1.093  -8.262   0.988  4.080749 0.5063 0.00 0.53449   0.02447   0.08219  4 
16 3  -3.268  -8.103   1.137  4.080749 0.5063 0.00 0.53449   0.02447   0.08219  5 
17 3   8.424   2.737  -8.477  4.080749 0.5063 0.00 0.53449   0.02447   0.08219  6 
18 3   2.505  -8.728  -6.752  4.080749 0.5063 0.00 0.53449   0.02447   0.08219  7 
19 3   2.872   3.382  -9.423  4.080749 0.5063 0.00 0.53449   0.02447   0.08219  8 
20 3   7.844 -10.651  -1.233  4.080749 0.5063 0.00 0.53449   0.02447   0.08219  9 
21 3  -0.259  -3.662  -9.796  4.080749 0.5063 0.00 0.53449   0.02447   0.08219 10 
22 3   0.867  -5.205  -7.083  4.080749 0.5063 0.00 0.53449   0.02447   0.08219 11 
23 3   7.918  -6.103 -10.725  4.080749 0.5063 0.00 0.53449   0.02447   0.08219 12 
24 3   4.315   2.335  -1.911  4.080749 0.5063 0.00 0.53449   0.02447   0.08219 13 
25 3   5.040  -9.618  -0.865  4.080749 0.5063 0.00 0.53449   0.02447   0.08219 14 
26 3  -2.753  -9.780  -1.003  4.080749 0.5063 0.00 0.53449   0.02447   0.08219 15 
27 3   7.179  -6.748   4.580  4.080749 0.5063 0.00 0.53449   0.02447   0.08219 16 
28 3  -9.523   1.404 -11.288  4.080749 0.5063 0.00 0.53449   0.02447   0.08219 17 
29 3   3.013  -9.736   4.514  4.080749 0.5063 0.00 0.53449   0.02447   0.08219 18 
30 3   5.259 -11.183  -7.701  4.080749 0.5063 0.00 0.53449   0.02447   0.08219 19 
31 3  -1.368 -11.346   3.297  4.080749 0.5063 0.00 0.53449   0.02447   0.08219 20 
32 3  -1.634  -7.819   6.053  4.080749 0.5063 0.00 0.53449   0.02447   0.08219 21 
33 3   0.662 -12.148  -7.978  4.080749 0.5063 0.00 0.53449   0.02447   0.08219 22 
34 3  -5.220 -10.591  -8.638  4.080749 0.5063 0.00 0.53449   0.02447   0.08219 23 
35 3   0.905  -1.669  -0.657  4.080749 0.5063 0.00 0.53449   0.02447   0.08219 24 
36 3  -0.615  -9.925  -8.942  4.080749 0.5063 0.00 0.53449   0.02447   0.08219 25 
37 3  -1.551   3.039   5.153  4.080749 0.5063 0.00 0.53449   0.02447   0.08219 26 
38 3  -6.713   3.723  -1.769  4.080749 0.5063 0.00 0.53449   0.02447   0.08219 27 
39 3   0.561   1.520  -3.204  4.080749 0.5063 0.00 0.53449   0.02447   0.08219 28 
40 3   2.572  -2.751  -6.737  4.080749 0.5063 0.00 0.53449   0.02447   0.08219 29 
41 3  -1.435   0.124   5.346  4.080749 0.5063 0.00 0.53449   0.02447   0.08219 30 
42 3   5.576  -6.394  -5.328  4.080749 0.5063 0.00 0.53449   0.02447   0.08219 31 
43 3   2.912  -2.533  -1.925  4.080749 0.5063 0.00 0.53449   0.02447   0.08219 32 
44 3  -3.049 -11.488  -6.657  4.080749 0.5063 0.00 0.53449   0.02447   0.08219 33 
45 3   2.908  -0.518 -10.112  4.080749 0.5063 0.00 0.53449   0.02447   0.08219 34 
46 3  -9.736 -11.084  -5.397  4.080749 0.5063 0.00 0.53449   0.02447   0.08219 35 
47 3   8.564 -10.937  -8.075  4.080749 0.5063 0.00 0.53449   0.02447   0.08219 36 
48 3   2.304 -11.323 -11.335  4.080749 0.5063 0.00 0.53449   0.02447   0.08219 37 
49 3   5.441  -5.532   6.035  4.080749 0.5063 0.00 0.53449   0.02447   0.08219 38 
50 3   5.338   1.516  -4.659  4.080749 0.5063 0.00 0.53449   0.02447   0.08219 39 
51 3   0.472   5.720 -10.219  4.080749 0.5063 0.00 0.53449   0.02447   0.08219 40 
52 3  -5.716  -3.310  -5.642  4.080749 0.5063 0.00 0.53449   0.02447   0.08219 41 
53 3  -6.522  -2.217   1.256  4.080749 0.5063 0.00 0.53449   0.02447   0.08219 42 
54 3  -5.269  -5.302   1.317  4.080749 0.5063 0.00 0.53449   0.02447   0.08219 43 
55 3  -3.859   5.359   2.093  4.080749 0.5063 0.00 0.53449   0.02447   0.08219 44 
56 3  -7.644   6.038  -0.885  4.080749 0.5063 0.00 0.53449   0.02447   0.08219 45 
57 3  -4.788   5.223  -3.486  4.080749 0.5063 0.00 0.53449   0.02447   0.08219 46 
58 3   8.558   1.181   1.881  4.080749 0.5063 0.00 0.53449   0.02447   0.08219 47 
59 3  -2.639  -1.989  -1.064  4.080749 0.5063 0.00 0.53449   0.02447   0.08219 48 
60 3   0.226 -11.491   5.456  4.080749 0.5063 0.00 0.53449   0.02447   0.08219 49 
61 3  -9.725  -3.617 -10.663  4.080749 0.5063 0.00 0.53449   0.02447   0.08219 50 
62 3   7.758 -11.853   1.401  4.080749 0.5063 0.00 0.53449   0.02447   0.08219 51 
63 3  -9.715   5.367  -9.402  4.080749 0.5063 0.00 0.53449   0.02447   0.08219 52 
64 3   3.029 -10.730  -2.561  4.080749 0.5063 0.00 0.53449   0.02447   0.08219 53 
65 3  -3.157  -9.217  -5.380  4.080749 0.5063 0.00 0.53449   0.02447   0.08219 54 
66 3   3.699  -0.203  -3.123  4.080749 0.5063 0.00 0.53449   0.02447   0.08219 55 
67 3  -0.943  -7.260  -0.778  4.080749 0.5063 0.00 0.53449   0.02447   0.08219 56 
68 3  -7.680   4.231   3.580  4.080749 0.5063 0.00 0.53449   0.02447   0.08219 57 
69 3  -5.277   0.133 -11.317  4.080749 0.5063 0.00 0.53449   0.02447   0.08219 58 
70 3   7.805   5.500  -2.112  4.080749 0.5063 0.00 0.53449   0.02447   0.08219 59 
71 3   8.877  -1.109  -6.016  4.080749 0.5063 0.00 0.53449   0.02447   0.08219 60 
72 3  -7.421   0.432  -9.060  4.080749 0.5063 0.00 0.53449   0.02447   0.08219 61 
73 3  -9.144   6.208   7.016  4.080749 0.5063 0.00 0.53449   0.02447   0.08219 62 
74 3  -6.319   3.082   5.870  4.080749 0.5063 0.00 0.53449   0.02447   0.08219 63 
75 3   0.803   1.401  -5.837  4.080749 0.5063 0.00 0.53449   0.02447   0.08219 64 
76 3  -5.392  -0.443  -1.464  4.080749 0.5063 0.00 0.53449   0.02447   0.08219 65 
77 3  -2.347  -0.609 -10.723  4.080749 0.5063 0.00 0.53449   0.02447   0.08219 66 
78 3  -1.748   1.704 -10.420  4.080749 0.5063 0.00 0.53449   0.02447   0.08219 67 
79 3   1.667  -7.217   5.223  4.080749 0.5063 0.00 0.53449   0.02447   0.08219 68 
80 3  -9.646  -1.170  -8.686  4.080749 0.5063 0.00 0.53449   0.02447   0.08219 69 
81 3   7.910  -8.482   6.540  4.080749 0.5063 0.00 0.53449   0.02447   0.08219 70 
82 3   8.279  -0.878   4.244  4.080749 0.5063 0.00 0.53449   0.02447   0.08219 71 
83 3  -0.585 -10.406  -2.663  4.080749 0.5063 0.00 0.53449   0.02447   0.08219 72 
84 3  -4.626  -2.916   4.643  4.080749 0.5063 0.00 0.53449   0.02447   0.08219 73 
85 3  -3.291 -12.446  -0.502  4.080749 0.5063 0.00 0.53449   0.02447   0.08219 74 
86 3  -5.144  -4.321 -10.813  4.080749 0.5063 0.00 0.53449   0.02447   0.08219 75 
87 3   4.745 -12.155   0.748  4.080749 0.5063 0.00 0.53449   0.02447   0.08219 76 
88 3   3.852  -8.862   6.901  4.080749 0.5063 0.00 0.53449   0.02447   0.08219 77 
89 3  -1.484 -10.817 -11.232  4.080749 0.5063 0.00 0.53449   0.02447   0.08219 78 
90 3   5.176  -3.609  -4.649  4.080749 0.5063 0.00 0.53449   0.02447   0.08219 79 
91 3   4.335   4.437   6.664  4.080749 0.5063 0.00 0.53449   0.02447   0.08219 80 
92 3  -1.788  -4.977  -3.199  4.080749 0.5063 0.00 0.53449   0.02447   0.08219 81 
93 3  -9.282  -1.430   6.736  4.080749 0.5063 0.00 0.53449   0.02447   0.08219 82 
94 3  -1.548   1.442   1.013  4.080749 0.5063 0.00 0.53449   0.02447   0.08219 83 
95 3   4.107  -2.620 -11.263  4.080749 0.5063 0.00 0.53449   0.02447   0.08219 84 
96 3  -2.016  -1.281   1.377  4.080749 0.5063 0.00 0.53449   0.02447   0.08219 85 
97 3   4.295  -0.680   5.625  4.080749 0.5063 0.00 0.53449   0.02447   0.08219 86 
98 3   5.835  -8.595  -3.117  4.080749 0.5063 0.00 0.53449   0.02447   0.08219 87 
99 3  -3.666   4.017  -8.175  4.080749 0.5063 0.00 0.53449   0.02447   0.08219 88 
100 3  -4.258   1.449   4.809  4.080749 0.5063 0.00 0.53449   0.02447   0.08219 89 
101 3  -8.903   2.357  -2.710  4.080749 0.5063 0.00 0.53449   0.02447   0.08219 90 
102 3   3.239   5.569  -3.968  4.080749 0.5063 0.00 0.53449   0.02447   0.08219 91 
103 3  -8.146 -12.449  -7.229  4.080749 0.5063 0.00 0.53449   0.02447   0.08219 92 
104 3  -1.172  -8.395   3.004  4.080749 0.5063 0.00 0.53449   0.02447   0.08219 93 
105 3   5.601   6.026  -5.504  4.080749 0.5063 0.00 0.53449   0.02447   0.08219 94 
106 3  -3.061  -8.733  -8.532  4.080749 0.5063 0.00 0.53449   0.02447   0.08219 95 
107 3   8.789  -8.452  -9.160  4.080749 0.5063 0.00 0.53449   0.02447   0.08219 96 
108 3   5.593  -8.986   3.288  4.080749 0.5063 0.00 0.53449   0.02447   0.08219 97 
109 3   3.133  -5.601  -5.721  4.080749 0.5063 0.00 0.53449   0.02447   0.08219 98 
110 3   7.237   3.167   2.757  4.080749 0.5063 0.00 0.53449   0.02447   0.08219 99 
111 3  -5.859   5.561   7.048  4.080749 0.5063 0.00 0.53449   0.02447   0.08219 100 
112 3   4.994   1.627   4.154  4.080749 0.5063 0.00 0.53449   0.02447   0.08219 101 
113 3  -0.399  -0.896  -2.731  4.080749 0.5063 0.00 0.53449   0.02447   0.08219 102 
114 3  -2.439  -0.901  -7.869  4.080749 0.5063 0.00 0.53449   0.02447   0.08219 103 
115 3  -8.871  -4.162  -2.007  4.080749 0.5063 0.00 0.53449   0.02447   0.08219 104 
116 3   6.994   3.602  -5.595  4.080749 0.5063 0.00 0.53449   0.02447   0.08219 105 
117 3  -9.849  -5.551  -8.015  4.080749 0.5063 0.00 0.53449   0.02447   0.08219 106 
118 3   6.823   0.637   6.177  4.080749 0.5063 0.00 0.53449   0.02447   0.08219 107 
119 3  -6.123  -4.048  -1.189  4.080749 0.5063 0.00 0.53449   0.02447   0.08219 108 
120 3  -2.723  -5.667   2.317  4.080749 0.5063 0.00 0.53449   0.02447   0.08219 109 
121 3  -9.234   5.087   1.319  4.080749 0.5063 0.00 0.53449   0.02447   0.08219 110 
122 3   3.012   1.584   6.955  4.080749 0.5063 0.00 0.53449   0.02447   0.08219 111 
123 3  -4.249 -10.926  -3.076  4.080749 0.5063 0.00 0.53449   0.02447   0.08219 112 
124 3   0.184   3.103 -11.488  4.080749 0.5063 0.00 0.53449   0.02447   0.08219 113 
125 3   2.084  -8.575  -3.892  4.080749 0.5063 0.00 0.53449   0.02447   0.08219 114 
126 3  -5.135   2.206  -0.018  4.080749 0.5063 0.00 0.53449   0.02447   0.08219 115 
127 3   6.399  -9.714 -10.497  4.080749 0.5063 0.00 0.53449   0.02447   0.08219 116 
128 3  -5.837  -9.729 -11.533  4.080749 0.5063 0.00 0.53449   0.02447   0.08219 117 
129 3  -3.120   0.020  -2.844  4.080749 0.5063 0.00 0.53449   0.02447   0.08219 118 
130 3   4.753  -0.056  -8.332  4.080749 0.5063 0.00 0.53449   0.02447   0.08219 119 
131 3   2.413 -10.819   1.325  4.080749 0.5063 0.00 0.53449   0.02447   0.08219 120 
132 3   0.603  -1.394  -8.322  4.080749 0.5063 0.00 0.53449   0.02447   0.08219 121 
133 3   8.316   3.170  -0.589  4.080749 0.5063 0.00 0.53449   0.02447   0.08219 122 
134 3   0.214   3.023   2.139  4.080749 0.5063 0.00 0.53449   0.02447   0.08219 123 
135 3   4.691  -4.875  -2.092  4.080749 0.5063 0.00 0.53449   0.02447   0.08219 124 
136 3   0.614   5.766   2.166  4.080749 0.5063 0.00 0.53449   0.02447   0.08219 125 
137 3  -7.778   0.010   3.287  4.080749 0.5063 0.00 0.53449   0.02447   0.08219 126 
138 3  -5.444  -9.049   4.421  4.080749 0.5063 0.00 0.53449   0.02447   0.08219 127 
139 3   6.864  -4.049  -6.866  4.080749 0.5063 0.00 0.53449   0.02447   0.08219 128 
140 3  -6.527  -6.873 -11.017  4.080749 0.5063 0.00 0.53449   0.02447   0.08219 129 
141 3   5.015  -8.026  -7.771  4.080749 0.5063 0.00 0.53449   0.02447   0.08219 130 
142 3   2.304  -4.212   1.508  4.080749 0.5063 0.00 0.53449   0.02447   0.08219 131 
143 3   2.150  -6.718 -11.228  4.080749 0.5063 0.00 0.53449   0.02447   0.08219 132 
144 3   6.267 -12.085   6.080  4.080749 0.5063 0.00 0.53449   0.02447   0.08219 133 
145 3   3.336   6.153  -9.089  4.080749 0.5063 0.00 0.53449   0.02447   0.08219 134 
146 3   6.975 -10.944  -3.896  4.080749 0.5063 0.00 0.53449   0.02447   0.08219 135 
147 3   3.372   1.710  -6.550  4.080749 0.5063 0.00 0.53449   0.02447   0.08219 136 
148 3  -3.366   5.938 -10.766  4.080749 0.5063 0.00 0.53449   0.02447   0.08219 137 
149 3  -6.732  -7.675  -0.488  4.080749 0.5063 0.00 0.53449   0.02447   0.08219 138 
150 3  -9.098  -3.449   1.864  4.080749 0.5063 0.00 0.53449   0.02447   0.08219 139 
151 3  -0.761  -3.678  -5.357  4.080749 0.5063 0.00 0.53449   0.02447   0.08219 140 
152 3   2.227 -11.430  -6.037  4.080749 0.5063 0.00 0.53449   0.02447   0.08219 141 
153 3  -4.160  -0.831   3.107  4.080749 0.5063 0.00 0.53449   0.02447   0.08219 142 
154 3   1.023   4.444   5.059  4.080749 0.5063 0.00 0.53449   0.02447   0.08219 143 
155 3  -5.972  -0.476  -6.732  4.080749 0.5063 0.00 0.53449   0.02447   0.08219 144 
156 3   1.882   3.740  -2.159  4.080749 0.5063 0.00 0.53449   0.02447   0.08219 145 
157 3  -5.616  -7.236  -3.179  4.080749 0.5063 0.00 0.53449   0.02447   0.08219 146 
158 3  -1.041   3.661  -4.710  4.080749 0.5063 0.00 0.53449   0.02447   0.08219 147 
159 3  -3.763  -6.715  -6.825  4.080749 0.5063 0.00 0.53449   0.02447   0.08219 148 
160 3  -6.880 -10.727  -2.699  4.080749 0.5063 0.00 0.53449   0.02447   0.08219 149 
161 3   3.684   6.297   4.653  4.080749 0.5063 0.00 0.53449   0.02447   0.08219 150 
162 3   0.387  -7.277  -8.834  4.080749 0.5063 0.00 0.53449   0.02447   0.08219 151 
163 3  -9.569  -7.168   2.539  4.080749 0.5063 0.00 0.53449   0.02447   0.08219 152 
164 3   7.152  -3.059   5.305  4.080749 0.5063 0.00 0.53449   0.02447   0.08219 153 
165 3  -8.228   0.961  -5.322  4.080749 0.5063 0.00 0.53449   0.02447   0.08219 154 
166 3  -8.043  -2.933  -4.670  4.080749 0.5063 0.00 0.53449   0.02447   0.08219 155 
167 3  -6.991  -2.816  -9.354  4.080749 0.5063 0.00 0.53449   0.02447   0.08219 156 
168 3  -6.404 -10.415   0.369  4.080749 0.5063 0.00 0.53449   0.02447   0.08219 157 
169 3  -9.666   4.748  -4.100  4.080749 0.5063 0.00 0.53449   0.02447   0.08219 158 
170 3   4.949  -6.194 -10.138  4.080749 0.5063 0.00 0.53449   0.02447   0.08219 159 
171 3  -2.559  -4.064 -10.755  4.080749 0.5063 0.00 0.53449   0.02447   0.08219 160 
172 3   7.839 -11.098   3.997  4.080749 0.5063 0.00 0.53449   0.02447   0.08219 161 
173 3  -6.130  -7.595  -8.463  4.080749 0.5063 0.00 0.53449   0.02447   0.08219 162 
174 3  -8.786 -10.162 -11.057  4.080749 0.5063 0.00 0.53449   0.02447   0.08219 163 
175 3  -5.732   6.018   4.245  4.080749 0.5063 0.00 0.53449   0.02447   0.08219 164 
176 3   7.272  -6.800   0.563  4.080749 0.5063 0.00 0.53449   0.02447   0.08219 165 
177 3  -7.202  -5.269  -7.667  4.080749 0.5063 0.00 0.53449   0.02447   0.08219 166 
178 3  -7.748  -6.308   5.480  4.080749 0.5063 0.00 0.53449   0.02447   0.08219 167 
179 3   3.431   4.159   3.723  4.080749 0.5063 0.00 0.53449   0.02447   0.08219 168 
180 3  -9.738  -4.997   4.374  4.080749 0.5063 0.00 0.53449   0.02447   0.08219 169 
181 3   1.418  -5.632  -3.567  4.080749 0.5063 0.00 0.53449   0.02447   0.08219 170 
182 3   0.875  -1.319  -5.269  4.080749 0.5063 0.00 0.53449   0.02447   0.08219 171 
183 3   1.865  -4.042 -11.248  4.080749 0.5063 0.00 0.53449   0.02447   0.08219 172 
184 3  -3.568   0.043  -5.588  4.080749 0.5063 0.00 0.53449   0.02447   0.08219 173 
185 3  -8.447 -12.044   4.343  4.080749 0.5063 0.00 0.53449   0.02447   0.08219 174 
186 3   6.904   3.562   7.054  4.080749 0.5063 0.00 0.53449   0.02447   0.08219 175 
187 3  -2.495  -4.208  -7.648  4.080749 0.5063 0.00 0.53449   0.02447   0.08219 176 
188 3  -5.431   5.599  -6.454  4.080749 0.5063 0.00 0.53449   0.02447   0.08219 177 
189 3  -8.331  -8.974   4.293  4.080749 0.5063 0.00 0.53449   0.02447   0.08219 178 
190 3  -8.378  -6.588  -2.393  4.080749 0.5063 0.00 0.53449   0.02447   0.08219 179 
191 3  -1.878   2.150  -7.584  4.080749 0.5063 0.00 0.53449   0.02447   0.08219 180 
192 3  -0.472  -2.234   3.638  4.080749 0.5063 0.00 0.53449   0.02447   0.08219 181 
193 3   6.139  -1.173  -5.383  4.080749 0.5063 0.00 0.53449   0.02447   0.08219 182 
194 3   4.534  -7.816   0.981  4.080749 0.5063 0.00 0.53449   0.02447   0.08219 183 
195 3  -7.232  -9.864  -6.887  4.080749 0.5063 0.00 0.53449   0.02447   0.08219 184 
196 3   6.128  -3.511  -9.561  4.080749 0.5063 0.00 0.53449   0.02447   0.08219 185 
197 3   0.921 -11.498  -0.779  4.080749 0.5063 0.00 0.53449   0.02447   0.08219 186 
198 3  -9.640  -8.436  -0.735  4.080749 0.5063 0.00 0.53449   0.02447   0.08219 187 
199 3   0.019   4.665  -0.485  4.080749 0.5063 0.00 0.53449   0.02447   0.08219 188 
200 3   5.156   5.597  -1.887  4.080749 0.5063 0.00 0.53449   0.02447   0.08219 189 
201 3   7.147   0.582  -9.464  4.080749 0.5063 0.00 0.53449   0.02447   0.08219 190 
202 3  -4.179   2.936 -11.017  4.080749 0.5063 0.00 0.53449   0.02447   0.08219 191 
203 3  -4.399  -6.637   5.564  4.080749 0.5063 0.00 0.53449   0.02447   0.08219 192 
204 3  -2.344   3.290  -1.124  4.080749 0.5063 0.00 0.53449   0.02447   0.08219 193 
205 3  -4.466 -10.876   1.901  4.080749 0.5063 0.00 0.53449   0.02447   0.08219 194 
206 3   7.294  -4.692  -1.523  4.080749 0.5063 0.00 0.53449   0.02447   0.08219 195 
207 3   7.905   4.987   4.692  4.080749 0.5063 0.00 0.53449   0.02447   0.08219 196 
208 3  -1.741  -7.141 -10.334  4.080749 0.5063 0.00 0.53449   0.02447   0.08219 197 
209 3  -1.132  -7.715  -3.942  4.080749 0.5063 0.00 0.53449   0.02447   0.08219 198 
210 3  -6.449  -4.812   3.675  4.080749 0.5063 0.00 0.53449   0.02447   0.08219 199 
211 3  -5.510   2.897   2.860  4.080749 0.5063 0.00 0.53449   0.02447   0.08219 200 
212 3   6.588 -12.178  -9.758  4.080749 0.5063 0.00 0.53449   0.02447   0.08219 201 
213 3  -4.571  -4.683  -3.322  4.080749 0.5063 0.00 0.53449   0.02447   0.08219 202 
214 3  -8.446   2.064   5.219  4.080749 0.5063 0.00 0.53449   0.02447   0.08219 203 
215 3   1.389  -4.313   4.558  4.080749 0.5063 0.00 0.53449   0.02447   0.08219 204 
216 3  -7.964  -8.783  -4.266  4.080749 0.5063 0.00 0.53449   0.02447   0.08219 205 
217 3  -6.701  -1.301   5.560  4.080749 0.5063 0.00 0.53449   0.02447   0.08219 206 
218 3  -2.054 -12.433  -3.931  4.080749 0.5063 0.00 0.53449   0.02447   0.08219 207 
219 3   2.511  -6.022  -0.803  4.080749 0.5063 0.00 0.53449   0.02447   0.08219 208 
220 3   5.378  -4.727   1.540  4.080749 0.5063 0.00 0.53449   0.02447   0.08219 209 
221 3  -1.556  -4.552  -0.093  4.080749 0.5063 0.00 0.53449   0.02447   0.08219 210 
222 3  -7.906   2.515  -7.616  4.080749 0.5063 0.00 0.53449   0.02447   0.08219 211 
223 3   8.424   2.737  11.174  4.080749 0.5063 0.00 0.53449   0.02447   0.08219 212 
224 3   2.505  -8.728  12.899  4.080749 0.5063 0.00 0.53449   0.02447   0.08219 213 
225 3   2.872   3.382  10.228  4.080749 0.5063 0.00 0.53449   0.02447   0.08219 214 
226 3  -0.259  -3.662   9.855  4.080749 0.5063 0.00 0.53449   0.02447   0.08219 215 
227 3   0.867  -5.205  12.568  4.080749 0.5063 0.00 0.53449   0.02447   0.08219 216 
228 3   7.918  -6.103   8.926  4.080749 0.5063 0.00 0.53449   0.02447   0.08219 217 
229 3  -9.523   1.404   8.363  4.080749 0.5063 0.00 0.53449   0.02447   0.08219 218 
230 3   5.259 -11.183  11.950  4.080749 0.5063 0.00 0.53449   0.02447   0.08219 219 
231 3   0.662 -12.148  11.674  4.080749 0.5063 0.00 0.53449   0.02447   0.08219 220 
232 3  -5.220 -10.591  11.013  4.080749 0.5063 0.00 0.53449   0.02447   0.08219 221 
233 3  -0.615  -9.925  10.709  4.080749 0.5063 0.00 0.53449   0.02447   0.08219 222 
234 3   2.572  -2.751  12.914  4.080749 0.5063 0.00 0.53449   0.02447   0.08219 223 
235 3   5.576  -6.394  14.323  4.080749 0.5063 0.00 0.53449   0.02447   0.08219 224 
236 3  -3.049 -11.488  12.994  4.080749 0.5063 0.00 0.53449   0.02447   0.08219 225 
237 3   2.908  -0.518   9.539  4.080749 0.5063 0.00 0.53449   0.02447   0.08219 226 
238 3  -9.736 -11.084  14.254  4.080749 0.5063 0.00 0.53449   0.02447   0.08219 227 
239 3   8.564 -10.937  11.576  4.080749 0.5063 0.00 0.53449   0.02447   0.08219 228 
240 3   2.304 -11.323   8.316  4.080749 0.5063 0.00 0.53449   0.02447   0.08219 229 
241 3   5.338   1.516  14.992  4.080749 0.5063 0.00 0.53449   0.02447   0.08219 230 
242 3   0.472   5.720   9.433  4.080749 0.5063 0.00 0.53449   0.02447   0.08219 231 
243 3  -5.716  -3.310  14.009  4.080749 0.5063 0.00 0.53449   0.02447   0.08219 232 
244 3  -9.725  -3.617   8.988  4.080749 0.5063 0.00 0.53449   0.02447   0.08219 233 
245 3  -9.715   5.367  10.248  4.080749 0.5063 0.00 0.53449   0.02447   0.08219 234 
246 3  -3.157  -9.217  14.271  4.080749 0.5063 0.00 0.53449   0.02447   0.08219 235 
247 3  -5.277   0.133   8.334  4.080749 0.5063 0.00 0.53449   0.02447   0.08219 236 
248 3   8.877  -1.109  13.635  4.080749 0.5063 0.00 0.53449   0.02447   0.08219 237 
249 3  -7.421   0.432  10.591  4.080749 0.5063 0.00 0.53449   0.02447   0.08219 238 
250 3   0.803   1.401  13.814  4.080749 0.5063 0.00 0.53449   0.02447   0.08219 239 
251 3  -2.347  -0.609   8.928  4.080749 0.5063 0.00 0.53449   0.02447   0.08219 240 
252 3  -1.748   1.704   9.231  4.080749 0.5063 0.00 0.53449   0.02447   0.08219 241 
253 3  -9.646  -1.170  10.965  4.080749 0.5063 0.00 0.53449   0.02447   0.08219 242 
254 3  -5.144  -4.321   8.838  4.080749 0.5063 0.00 0.53449   0.02447   0.08219 243 
255 3  -1.484 -10.817   8.419  4.080749 0.5063 0.00 0.53449   0.02447   0.08219 244 
256 3   5.176  -3.609  15.002  4.080749 0.5063 0.00 0.53449   0.02447   0.08219 245 
257 3   4.107  -2.620   8.388  4.080749 0.5063 0.00 0.53449   0.02447   0.08219 246 
258 3  -3.666   4.017  11.476  4.080749 0.5063 0.00 0.53449   0.02447   0.08219 247 
259 3  -8.146 -12.449  12.422  4.080749 0.5063 0.00 0.53449   0.02447   0.08219 248 
260 3   5.601   6.026  14.147  4.080749 0.5063 0.00 0.53449   0.02447   0.08219 249 
261 3  -3.061  -8.733  11.119  4.080749 0.5063 0.00 0.53449   0.02447   0.08219 250 
262 3   8.789  -8.452  10.492  4.080749 0.5063 0.00 0.53449   0.02447   0.08219 251 
263 3   3.133  -5.601  13.930  4.080749 0.5063 0.00 0.53449   0.02447   0.08219 252 
264 3  -2.439  -0.901  11.782  4.080749 0.5063 0.00 0.53449   0.02447   0.08219 253 
265 3   6.994   3.602  14.056  4.080749 0.5063 0.00 0.53449   0.02447   0.08219 254 
266 3  -9.849  -5.551  11.636  4.080749 0.5063 0.00 0.53449   0.02447   0.08219 255 
267 3   0.184   3.103   8.163  4.080749 0.5063 0.00 0.53449   0.02447   0.08219 256 
268 3   6.399  -9.714   9.155  4.080749 0.5063 0.00 0.53449   0.02447   0.08219 257 
269 3  -5.837  -9.729   8.118  4.080749 0.5063 0.00 0.53449   0.02447   0.08219 258 
270 3   4.753  -0.056  11.319  4.080749 0.5063 0.00 0.53449   0.02447   0.08219 259 
271 3   0.603  -1.394  11.329  4.080749 0.5063 0.00 0.53449   0.02447   0.08219 260 
272 3   6.864  -4.049  12.785  4.080749 0.5063 0.00 0.53449   0.02447   0.08219 261 
273 3  -6.527  -6.873   8.634  4.080749 0.5063 0.00 0.53449   0.02447   0.08219 262 
274 3   5.015  -8.026  11.880  4.080749 0.5063 0.00 0.53449   0.02447   0.08219 263 
275 3   2.150  -6.718   8.423  4.080749 0.5063 0.00 0.53449   0.02447   0.08219 264 
276 3   3.336   6.153  10.562  4.080749 0.5063 0.00 0.53449   0.02447   0.08219 265 
277 3   3.372   1.710  13.101  4.080749 0.5063 0.00 0.53449   0.02447   0.08219 266 
278 3  -3.366   5.938   8.885  4.080749 0.5063 0.00 0.53449   0.02447   0.08219 267 
279 3  -0.761  -3.678  14.293  4.080749 0.5063 0.00 0.53449   0.02447   0.08219 268 
280 3   2.227 -11.430  13.614  4.080749 0.5063 0.00 0.53449   0.02447   0.08219 269 
281 3  -5.972  -0.476  12.919  4.080749 0.5063 0.00 0.53449   0.02447   0.08219 270 
282 3  -1.041   3.661  14.941  4.080749 0.5063 0.00 0.53449   0.02447   0.08219 271 
283 3  -3.763  -6.715  12.826  4.080749 0.5063 0.00 0.53449   0.02447   0.08219 272 
284 3   0.387  -7.277  10.817  4.080749 0.5063 0.00 0.53449   0.02447   0.08219 273 
285 3  -8.228   0.961  14.329  4.080749 0.5063 0.00 0.53449   0.02447   0.08219 274 
286 3  -8.043  -2.933  14.981  4.080749 0.5063 0.00 0.53449   0.02447   0.08219 275 
287 3  -6.991  -2.816  10.297  4.080749 0.5063 0.00 0.53449   0.02447   0.08219 276 
288 3  -9.666   4.748  15.551  4.080749 0.5063 0.00 0.53449   0.02447   0.08219 277 
289 3   4.949  -6.194   9.513  4.080749 0.5063 0.00 0.53449   0.02447   0.08219 278 
290 3  -2.559  -4.064   8.896  4.080749 0.5063 0.00 0.53449   0.02447   0.08219 279 
291 3  -6.130  -7.595  11.188  4.080749 0.5063 0.00 0.53449   0.02447   0.08219 280 
292 3  -8.786 -10.162   8.594  4.080749 0.5063 0.00 0.53449   0.02447   0.08219 281 
293 3  -7.202  -5.269  11.984  4.080749 0.5063 0.00 0.53449   0.02447   0.08219 282 
294 3   0.875  -1.319  14.383  4.080749 0.5063 0.00 0.53449   0.02447   0.08219 283 
295 3   1.865  -4.042   8.402  4.080749 0.5063 0.00 0.53449   0.02447   0.08219 284 
296 3  -3.568   0.043  14.063  4.080749 0.5063 0.00 0.53449   0.02447   0.08219 285 
297 3  -2.495  -4.208  12.003  4.080749 0.5063 0.00 0.53449   0.02447   0.08219 286 
298 3  -5.431   5.599  13.197  4.080749 0.5063 0.00 0.53449   0.02447   0.08219 287 
299 3  -1.878   2.150  12.067  4.080749 0.5063 0.00 0.53449   0.02447   0.08219 288 
300 3   6.139  -1.173  14.268  4.080749 0.5063 0.00 0.53449   0.02447   0.08219 289 
301 3  -7.232  -9.864  12.764  4.080749 0.5063 0.00 0.53449   0.02447   0.08219 290 
302 3   6.128  -3.511  10.091  4.080749 0.5063 0.00 0.53449   0.02447   0.08219 291 
303 3   7.147   0.582  10.187  4.080749 0.5063 0.00 0.53449   0.02447   0.08219 292 
304 3  -4.179   2.936   8.634  4.080749 0.5063 0.00 0.53449   0.02447   0.08219 293 
305 3  -1.741  -7.141   9.317  4.080749 0.5063 0.00 0.53449   0.02447   0.08219 294 
306 3   6.588 -12.178   9.893  4.080749 0.5063 0.00 0.53449   0.02447   0.08219 295 
307 3  -7.964  -8.783  15.385  4.080749 0.5063 0.00 0.53449   0.02447   0.08219 296 
308 3  -7.906   2.515  12.036  4.080749 0.5063 0.00 0.53449   0.02447   0.08219 297 
309 3   1.093  11.609   0.988  4.080749 0.5063 0.00 0.53449   0.02447   0.08219 298 
310 3  -3.268  11.769   1.137  4.080749 0.5063 0.00 0.53449   0.02447   0.08219 299 
311 3   2.505  11.144  -6.752  4.080749 0.5063 0.00 0.53449   0.02447   0.08219 300 
312 3   7.844   9.221  -1.233  4.080749 0.5063 0.00 0.53449   0.02447   0.08219 301 
313 3   0.867  14.668  -7.083  4.080749 0.5063 0.00 0.53449   0.02447   0.08219 302 
314 3   7.918  13.768 -10.725  4.080749 0.5063 0.00 0.53449   0.02447   0.08219 303 
315 3   5.040  10.254  -0.865  4.080749 0.5063 0.00 0.53449   0.02447   0.08219 304 
316 3  -2.753  10.092  -1.003  4.080749 0.5063 0.00 0.53449   0.02447   0.08219 305 
317 3   7.179  13.123   4.580  4.080749 0.5063 0.00 0.53449   0.02447   0.08219 306 
318 3   3.013  10.136   4.514  4.080749 0.5063 0.00 0.53449   0.02447   0.08219 307 
319 3   5.259   8.689  -7.701  4.080749 0.5063 0.00 0.53449   0.02447   0.08219 308 
320 3  -1.368   8.526   3.297  4.080749 0.5063 0.00 0.53449   0.02447   0.08219 309 
321 3  -1.634  12.053   6.053  4.080749 0.5063 0.00 0.53449   0.02447   0.08219 310 
322 3   0.662   7.724  -7.978  4.080749 0.5063 0.00 0.53449   0.02447   0.08219 311 
323 3  -5.220   9.281  -8.638  4.080749 0.5063 0.00 0.53449   0.02447   0.08219 312 
324 3  -0.615   9.947  -8.942  4.080749 0.5063 0.00 0.53449   0.02447   0.08219 313 
325 3   5.576  13.478  -5.328  4.080749 0.5063 0.00 0.53449   0.02447   0.08219 314 
326 3  -3.049   8.384  -6.657  4.080749 0.5063 0.00 0.53449   0.02447   0.08219 315 
327 3  -9.736   8.788  -5.397  4.080749 0.5063 0.00 0.53449   0.02447   0.08219 316 
328 3   8.564   8.935  -8.075  4.080749 0.5063 0.00 0.53449   0.02447   0.08219 317 
329 3   2.304   8.549 -11.335  4.080749 0.5063 0.00 0.53449   0.02447   0.08219 318 
330 3  -5.269  14.570   1.317  4.080749 0.5063 0.00 0.53449   0.02447   0.08219 319 
331 3   0.226   8.380   5.456  4.080749 0.5063 0.00 0.53449   0.02447   0.08219 320 
332 3   7.758   8.019   1.401  4.080749 0.5063 0.00 0.53449   0.02447   0.08219 321 
333 3   3.029   9.142  -2.561  4.080749 0.5063 0.00 0.53449   0.02447   0.08219 322 
334 3  -3.157  10.655  -5.380  4.080749 0.5063 0.00 0.53449   0.02447   0.08219 323 
335 3  -0.943  12.612  -0.778  4.080749 0.5063 0.00 0.53449   0.02447   0.08219 324 
336 3   1.667  12.655   5.223  4.080749 0.5063 0.00 0.53449   0.02447   0.08219 325 
337 3   7.910  11.391   6.540  4.080749 0.5063 0.00 0.53449   0.02447   0.08219 326 
338 3  -0.585   9.466  -2.663  4.080749 0.5063 0.00 0.53449   0.02447   0.08219 327 
339 3  -3.291   7.426  -0.502  4.080749 0.5063 0.00 0.53449   0.02447   0.08219 328 
340 3   4.745   7.717   0.748  4.080749 0.5063 0.00 0.53449   0.02447   0.08219 329 
341 3   3.852  11.010   6.901  4.080749 0.5063 0.00 0.53449   0.02447   0.08219 330 
342 3  -1.484   9.055 -11.232  4.080749 0.5063 0.00 0.53449   0.02447   0.08219 331 
343 3   5.835  11.277  -3.117  4.080749 0.5063 0.00 0.53449   0.02447   0.08219 332 
344 3  -8.146   7.423  -7.229  4.080749 0.5063 0.00 0.53449   0.02447   0.08219 333 
345 3  -1.172  11.477   3.004  4.080749 0.5063 0.00 0.53449   0.02447   0.08219 334 
346 3  -3.061  11.139  -8.532  4.080749 0.5063 0.00 0.53449   0.02447   0.08219 335 
347 3   8.789  11.420  -9.160  4.080749 0.5063 0.00 0.53449   0.02447   0.08219 336 
348 3   5.593  10.886   3.288  4.080749 0.5063 0.00 0.53449   0.02447   0.08219 337 
349 3   3.133  14.270  -5.721  4.080749 0.5063 0.00 0.53449   0.02447   0.08219 338 