LAMMPS data file. CGCMM style. atom_style full generated by VMD/TopoTools v1.7 on Tue Oct 26 13:05:08 AEST 2021
 
 3776 atoms
 640 bonds
 320 angles
 6 atom types
 2 bond types
 1 angle types
 
0 32.2 xlo xhi
0 34.4 ylo yhi
-68 68 zlo zhi

 Masses

 1 67.070000 # Roy-Maroncelli BMI1
 2 15.040000 # Roy-Maroncelli BMI2
 3 57.119999 # Roy-Maroncelli BMI3
 4 144.960007 # Roy-Maroncelli PF64
 5 12.001000 # carbon 5
 6 12.001000 # carbon 5

Pair Coeffs # lj/cut/coul/long

1 0.61185 4.38
2 0.08604 3.41
3 0.43738 5.04
4 1.12572 5.06
5 0.05497 3.37
6 0.05497 3.37

Bond Coeffs # harmonic

1 200 2.7076
2 200 3.8213

Angle Coeffs # harmonic

1 200 116.035

 Atoms # full

1 1 1 0.437400 8.377842 31.090574 -9.637913 # 1 
2 1 2 0.157800 10.887448 30.521875 -10.101788 # 2 
3 1 3 0.184800 7.272466 32.073307 -6.141911 # 3 
4 2 4 -0.780000 11.760302 6.359865 -37.432594 # 4 
5 3 1 0.437400 3.942210 0.867467 -45.959846 # 1 
6 3 2 0.157800 6.352199 0.209895 -46.791821 # 2 
7 3 3 0.184800 2.954508 -0.392299 -42.479385 # 3 
8 4 4 -0.780000 16.747454 2.762512 -32.722454 # 4 
9 5 1 0.437400 19.594852 21.385227 -27.056160 # 1 
10 5 2 0.157800 20.186417 23.876759 -26.150558 # 2 
11 5 3 0.184800 19.609961 21.227692 -30.830250 # 3 
12 6 4 -0.780000 5.658314 25.254398 -36.917946 # 4 
13 7 1 0.437400 21.993908 31.412422 -41.110790 # 1 
14 7 2 0.157800 22.411909 29.000330 -40.127850 # 2 
15 7 3 0.184800 20.282719 31.462616 -44.560482 # 3 
16 8 4 -0.780000 0.948395 6.456004 -50.344910 # 4 
17 9 1 0.437400 21.447792 21.981026 -40.000439 # 1 
18 9 2 0.157800 19.999342 24.093969 -39.141792 # 2 
19 9 3 0.184800 21.106684 20.782623 -43.564484 # 3 
20 10 4 -0.780000 26.555077 22.179291 -38.507450 # 4 
21 11 1 0.437400 18.462698 7.556019 -33.020561 # 1 
22 11 2 0.157800 15.809868 6.893346 -32.950809 # 2 
23 11 3 0.184800 20.654657 6.130154 -35.759186 # 3 
24 12 4 -0.780000 8.370227 5.161283 -30.969379 # 4 
25 13 1 0.437400 6.405509 7.848012 -10.937832 # 1 
26 13 2 0.157800 4.879797 5.803501 -11.777061 # 2 
27 13 3 0.184800 9.117421 6.904697 -8.418682 # 3 
28 14 4 -0.780000 30.487459 19.327774 -28.062172 # 4 
29 15 1 0.437400 9.155499 1.897949 -27.102772 # 1 
30 15 2 0.157800 10.636008 2.293577 -24.898048 # 2 
31 15 3 0.184800 11.110759 0.424876 -30.033436 # 3 
32 16 4 -0.780000 24.704716 12.807979 -50.970406 # 4 
33 17 1 0.437400 13.822549 22.253498 2.853340 # 1 
34 17 2 0.157800 11.862744 20.840822 1.750702 # 2 
35 17 3 0.184800 13.634246 26.029482 2.443916 # 3 
36 18 4 -0.780000 30.294611 27.713549 -4.222897 # 4 
37 19 1 0.437400 16.182053 30.727917 -50.769142 # 1 
38 19 2 0.157800 16.597721 32.146152 -48.461311 # 2 
39 19 3 0.184800 13.319056 28.205923 -50.839211 # 3 
40 20 4 -0.780000 18.673235 7.867237 -50.732002 # 4 
41 21 1 0.437400 34.661335 1.591209 23.132263 # 1 
42 21 2 0.157800 36.280521 3.755250 23.305626 # 2 
43 21 3 0.184800 32.183174 1.324821 25.977936 # 3 
44 22 4 -0.780000 16.538393 5.528272 -19.064106 # 4 
45 23 1 0.437400 29.295609 15.240917 -19.714855 # 1 
46 23 2 0.157800 30.421743 17.718899 -19.920494 # 2 
47 23 3 0.184800 28.479504 13.604928 -23.079777 # 3 
48 24 4 -0.780000 5.971047 11.864598 -35.846073 # 4 
49 25 1 0.437400 25.322813 18.769016 -13.835705 # 1 
50 25 2 0.157800 23.728437 16.688927 -13.082436 # 2 
51 25 3 0.184800 26.586643 18.851721 -17.351250 # 3 
52 26 4 -0.780000 16.396397 4.828085 -45.233139 # 4 
53 27 1 0.437400 9.493782 10.920381 16.552879 # 1 
54 27 2 0.157800 10.339980 8.415776 16.951210 # 2 
55 27 3 0.184800 5.733734 11.501054 17.141747 # 3 
56 28 4 -0.780000 14.733603 8.990183 2.565598 # 4 
57 29 1 0.437400 11.198462 14.636230 -51.035080 # 1 
58 29 2 0.157800 10.992471 17.252277 -51.155159 # 2 
59 29 3 0.184800 14.583501 13.259755 -49.840126 # 3 
60 30 4 -0.780000 18.176743 26.908743 -49.438862 # 4 
61 31 1 0.437400 21.993908 3.914853 -19.796959 # 1 
62 31 2 0.157800 20.454561 5.027728 -17.929413 # 2 
63 31 3 0.184800 20.368824 1.950209 -22.641861 # 3 
64 32 4 -0.780000 14.765908 18.402273 -50.610695 # 4 
65 33 1 0.437400 30.223614 18.715033 41.896034 # 1 
66 33 2 0.157800 30.940468 16.118259 42.160507 # 2 
67 33 3 0.184800 29.889015 20.010214 38.340759 # 3 
68 34 4 -0.780000 23.753248 12.941927 -8.982204 # 4 
69 35 1 0.437400 9.339381 31.113096 -22.124542 # 1 
70 35 2 0.157800 11.177335 29.724566 -20.963387 # 2 
71 35 3 0.184800 5.538306 30.442369 -21.452351 # 3 
72 36 4 -0.780000 28.379519 12.564457 -42.058945 # 4 
73 37 1 0.437400 28.076857 9.673163 -16.075905 # 1 
74 37 2 0.157800 26.452387 9.169716 -13.968082 # 2 
75 37 3 0.184800 31.058634 11.844553 -15.267551 # 3 
76 38 4 -0.780000 27.392061 29.406277 1.270920 # 4 
77 39 1 0.437400 16.549816 24.659765 -5.539001 # 1 
78 39 2 0.157800 18.953663 25.653849 -6.422253 # 2 
79 39 3 0.184800 16.310905 20.892721 -5.969288 # 3 
80 40 4 -0.780000 20.962601 6.664948 -23.479675 # 4 
81 41 1 0.437400 9.209300 0.946875 2.146263 # 1 
82 41 2 0.157800 8.375140 3.466094 2.327797 # 2 
83 41 3 0.184800 9.002818 -0.931817 -1.158485 # 3 
84 42 4 -0.780000 15.946827 21.997772 -45.301933 # 4 
85 43 1 0.437400 23.305645 19.793379 -0.138489 # 1 
86 43 2 0.157800 24.574635 20.658304 -2.436264 # 2 
87 43 3 0.184800 25.554844 19.491577 2.935379 # 3 
88 44 4 -0.780000 29.721718 9.357779 -20.516209 # 4 
89 45 1 0.437400 9.748784 27.436024 -45.727943 # 1 
90 45 2 0.157800 7.465805 25.998217 -45.493759 # 2 
91 45 3 0.184800 12.851552 25.344156 -46.557522 # 3 
92 46 4 -0.780000 22.722187 27.333241 10.116852 # 4 
93 47 1 0.437400 11.195392 20.477951 -32.725212 # 1 
94 47 2 0.157800 9.381881 21.850882 -34.272060 # 2 
95 47 3 0.184800 14.603891 22.106279 -32.484459 # 3 
96 48 4 -0.780000 21.062096 24.414406 -2.735138 # 4 
97 49 1 0.437400 29.010757 -0.785188 -41.613739 # 1 
98 49 2 0.157800 26.463810 -0.830199 -40.690811 # 2 
99 49 3 0.184800 30.813335 2.545235 -41.835503 # 3 
100 50 4 -0.780000 19.281504 8.394091 -9.215958 # 4 
101 51 1 0.437400 5.382308 25.624979 -11.039261 # 1 
102 51 2 0.157800 5.892680 27.263020 -8.921646 # 2 
103 51 3 0.184800 7.098902 22.274971 -10.692276 # 3 
104 52 4 -0.780000 19.278803 23.558733 -35.368961 # 4 
105 53 1 0.437400 19.873560 28.532675 27.264030 # 1 
106 53 2 0.157800 21.794428 30.353333 26.974251 # 2 
107 53 3 0.184800 16.850143 29.735521 29.197845 # 3 
108 54 4 -0.780000 9.862528 28.136080 -41.055946 # 4 
109 55 1 0.437400 24.216946 -0.844765 -34.854332 # 1 
110 55 2 0.157800 23.374308 -2.067476 -32.476822 # 2 
111 55 3 0.184800 21.551586 1.406066 -36.361595 # 3 
112 56 4 -0.780000 13.718632 30.675377 -46.072113 # 4 
113 57 1 0.437400 21.826487 2.277059 -10.104065 # 1 
114 57 2 0.157800 19.819023 1.397848 -11.794552 # 2 
115 57 3 0.184800 21.223621 1.956508 -6.362743 # 3 
116 58 4 -0.780000 8.163130 10.252901 -49.756851 # 4 
117 59 1 0.437400 23.526867 25.810516 -35.403496 # 1 
118 59 2 0.157800 22.872044 23.887175 -33.548050 # 2 
119 59 3 0.184800 20.899710 28.395332 -36.366184 # 3 
120 60 4 -0.780000 6.912441 12.617866 -42.118233 # 4 
121 61 1 0.437400 12.105586 13.305356 -16.202583 # 1 
122 61 2 0.157800 11.666088 12.605743 -13.638741 # 2 
123 61 3 0.184800 15.402799 15.035483 -16.846241 # 3 
124 62 4 -0.780000 21.549376 31.899530 -9.260292 # 4 
125 63 1 0.437400 3.709810 12.134890 -50.097931 # 1 
126 63 2 0.157800 4.120687 9.581092 -50.948128 # 2 
127 63 3 0.184800 0.258810 13.586458 -50.709084 # 3 
128 64 4 -0.780000 9.536406 4.424911 -45.966164 # 4 
129 65 1 0.437400 25.859226 0.416412 -46.724678 # 1 
130 65 2 0.157800 23.549591 -0.466113 -45.739281 # 2 
131 65 3 0.184800 27.751717 -2.232869 -48.720375 # 3 
132 66 4 -0.780000 6.856675 17.238581 -50.783257 # 4 
133 67 1 0.437400 31.508572 1.821591 -51.017365 # 1 
134 67 2 0.157800 30.437712 2.785115 -48.781475 # 2 
135 67 3 0.184800 32.442596 -1.896554 -50.852524 # 3 
136 68 4 -0.780000 0.723119 23.877546 -45.216938 # 4 
137 69 1 0.437400 27.925035 0.058559 -24.831203 # 1 
138 69 2 0.157800 27.482836 -2.613555 -24.536087 # 2 
139 69 3 0.184800 24.770432 2.022727 -25.909344 # 3 
140 70 4 -0.780000 2.095044 11.287894 -46.011158 # 4 
141 71 1 0.437400 9.592049 2.649231 -50.626038 # 1 
142 71 2 0.157800 10.369338 1.041472 -48.574890 # 2 
143 71 3 0.184800 11.206078 6.038723 -50.966324 # 3 
144 72 4 -0.780000 0.755179 27.181692 -50.096138 # 4 
145 73 1 0.437400 19.249199 4.170694 -40.935505 # 1 
146 73 2 0.157800 19.051805 3.066496 -43.420807 # 2 
147 73 3 0.184800 16.890678 7.207090 -40.576611 # 3 
148 74 4 -0.780000 7.390509 14.127173 12.391327 # 4 
149 75 1 0.437400 16.698444 18.896355 30.086540 # 1 
150 75 2 0.157800 17.116446 16.770287 28.518723 # 2 
151 75 3 0.184800 18.710943 18.940199 33.309898 # 3 
152 76 4 -0.780000 4.310956 2.086634 -14.594330 # 4 
153 77 1 0.437400 7.382893 18.442215 -14.275051 # 1 
154 77 2 0.157800 9.149481 16.725046 -12.993748 # 2 
155 77 3 0.184800 7.215103 18.075850 -18.047993 # 3 
156 78 4 -0.780000 26.431629 15.135708 12.028740 # 4 
157 79 1 0.437400 32.212528 32.268833 -13.484932 # 1 
158 79 2 0.157800 34.682339 33.042194 -14.196465 # 2 
159 79 3 0.184800 31.213036 33.254154 -9.918587 # 3 
160 80 4 -0.780000 0.826668 0.410457 18.002785 # 4 
161 81 1 0.437400 9.252415 10.254377 -21.776653 # 1 
162 81 2 0.157800 11.203744 9.835588 -23.493660 # 2 
163 81 3 0.184800 8.562706 13.825075 -20.798321 # 3 
164 82 4 -0.780000 19.541542 13.213860 -22.037025 # 4 
165 83 1 0.437400 19.670395 32.520916 9.443474 # 1 
166 83 2 0.157800 19.068758 34.038296 7.356674 # 2 
167 83 3 0.184800 20.894674 34.292149 12.628815 # 3 
168 84 4 -0.780000 26.052319 29.528612 -36.865486 # 4 
169 85 1 0.437400 33.045586 19.407034 -45.924213 # 1 
170 85 2 0.157800 35.223049 19.995836 -44.405434 # 2 
171 85 3 0.184800 31.063915 16.157618 -45.106064 # 3 
172 86 4 -0.780000 10.659347 1.155737 14.683075 # 4 
173 87 1 0.437400 21.741117 32.340794 -15.745243 # 1 
174 87 2 0.157800 19.786226 32.049473 -13.804565 # 2 
175 87 3 0.184800 20.432943 32.383556 -19.233315 # 3 
176 88 4 -0.780000 11.460957 34.166550 -19.549126 # 4 
177 89 1 0.437400 16.660242 23.038834 -50.980873 # 1 
178 89 2 0.157800 14.415219 23.147833 -49.600563 # 2 
179 89 3 0.184800 19.402126 21.360376 -48.963448 # 3 
180 90 4 -0.780000 30.226070 7.358065 -36.296997 # 4 
181 91 1 0.437400 18.826038 8.822854 -45.650654 # 1 
182 91 2 0.157800 19.584166 11.372601 -45.117172 # 2 
183 91 3 0.184800 21.491520 6.004735 -45.804184 # 3 
184 92 4 -0.780000 3.525928 5.121390 -8.035164 # 4 
185 93 1 0.437400 7.272220 29.476761 15.210251 # 1 
186 93 2 0.157800 9.717093 30.774549 15.171242 # 2 
187 93 3 0.184800 7.258585 25.699564 14.700638 # 3 
188 94 4 -0.780000 8.306476 26.287586 -50.553772 # 4 
189 95 1 0.437400 28.435898 1.293737 -31.591297 # 1 
190 95 2 0.157800 29.706854 0.075340 -29.588505 # 2 
191 95 3 0.184800 28.927845 5.076708 -31.781528 # 3 
192 96 4 -0.780000 24.206259 22.905312 -50.580414 # 4 
193 97 1 0.437400 24.201468 15.355199 -2.940254 # 1 
194 97 2 0.157800 22.002260 13.957006 -3.608635 # 2 
195 97 3 0.184800 26.122948 16.869591 -5.954262 # 3 
196 98 4 -0.780000 26.178469 14.437407 -15.287651 # 4 
197 99 1 0.437400 35.336918 21.783218 -35.074196 # 1 
198 99 2 0.157800 36.874912 23.048004 -33.237373 # 2 
199 99 3 0.184800 31.672432 21.336527 -34.095177 # 3 
200 100 4 -0.780000 25.766241 0.628407 15.007874 # 4 
201 101 1 0.437400 31.583992 5.921834 -45.810894 # 1 
202 101 2 0.157800 29.734615 5.831862 -47.795555 # 2 
203 101 3 0.184800 30.851906 8.346949 -42.973763 # 3 
204 102 4 -0.780000 20.055353 19.879299 26.737999 # 4 
205 103 1 0.437400 24.629910 11.938806 20.687958 # 1 
206 103 2 0.157800 23.962679 9.699737 19.341156 # 2 
207 103 3 0.184800 21.881516 13.834622 22.610626 # 3 
208 104 4 -0.780000 28.007334 18.807579 -1.714722 # 4 
209 105 1 0.437400 16.812187 27.453903 -44.537979 # 1 
210 105 2 0.157800 18.265797 25.460800 -45.737694 # 2 
211 105 3 0.184800 15.973482 26.973764 -40.795567 # 3 
212 106 4 -0.780000 29.604534 27.651726 18.043510 # 4 
213 107 1 0.437400 11.064574 22.983835 -15.815651 # 1 
214 107 2 0.157800 9.264453 24.718620 -16.769325 # 2 
215 107 3 0.184800 13.636826 24.485514 -13.312107 # 3 
216 108 4 -0.780000 29.879803 22.254974 11.737076 # 4 
217 109 1 0.437400 32.800411 5.306828 -12.159904 # 1 
218 109 2 0.157800 32.302444 2.844069 -11.280487 # 2 
219 109 3 0.184800 31.790106 6.369969 -15.780830 # 3 
220 110 4 -0.780000 21.935808 6.117606 1.776047 # 4 
221 111 1 0.437400 4.829067 10.216519 -18.284904 # 1 
222 111 2 0.157800 3.685858 12.334763 -16.951160 # 2 
223 111 3 0.184800 6.386592 7.458354 -16.166088 # 3 
224 112 4 -0.780000 29.564245 8.900211 -11.534840 # 4 
225 113 1 0.437400 1.680482 21.887428 -26.515274 # 1 
226 113 2 0.157800 1.584549 22.175879 -23.808537 # 2 
227 113 3 0.184800 5.099177 21.255873 -28.105927 # 3 
228 114 4 -0.780000 29.132732 15.382100 5.074280 # 4 
229 115 1 0.437400 14.274330 0.874930 -45.450699 # 1 
230 115 2 0.157800 16.891047 0.120104 -45.285706 # 2 
231 115 3 0.184800 12.806595 2.362503 -42.320877 # 3 
232 116 4 -0.780000 11.776024 30.092161 19.484314 # 4 
233 117 1 0.437400 30.858047 22.400831 -41.205162 # 1 
234 117 2 0.157800 31.724268 20.088800 -42.392231 # 2 
235 117 3 0.184800 33.493065 24.347580 -39.196152 # 3 
236 118 4 -0.780000 3.574079 5.279861 -19.858189 # 4 
237 119 1 0.437400 13.804738 9.033931 -10.101360 # 1 
238 119 2 0.157800 13.888756 6.587918 -9.184715 # 2 
239 119 3 0.184800 10.690178 11.416479 -9.633278 # 3 
240 120 4 -0.780000 8.192364 31.264908 -26.854656 # 4 
241 121 1 0.437400 2.760186 11.158277 -40.491745 # 1 
242 121 2 0.157800 2.495849 9.143028 -42.327320 # 2 
243 121 3 0.184800 0.687252 14.347583 -40.868580 # 3 
244 122 4 -0.780000 13.673553 10.390229 -32.950779 # 4 
245 123 1 0.437400 13.189343 18.751284 -1.876366 # 1 
246 123 2 0.157800 12.140594 19.749567 -4.211258 # 2 
247 123 3 0.184800 16.343824 16.645786 -2.354858 # 3 
248 124 4 -0.780000 24.481405 25.194263 -9.664398 # 4 
249 125 1 0.437400 5.551449 22.086924 -4.416924 # 1 
250 125 2 0.157800 3.854262 24.195686 -4.308189 # 2 
251 125 3 0.184800 9.091872 22.826544 -5.427227 # 3 
252 126 4 -0.780000 28.139748 19.813751 -44.114975 # 4 
253 127 1 0.437400 17.437654 19.999552 22.770699 # 1 
254 127 2 0.157800 16.190037 21.142099 20.675827 # 2 
255 127 3 0.184800 20.860649 18.560696 22.007652 # 3 
256 128 4 -0.780000 17.728891 21.004526 -22.335407 # 4 
257 129 1 0.437400 5.433529 23.482754 -48.342155 # 1 
258 129 2 0.157800 4.576030 25.983685 -48.002628 # 2 
259 129 3 0.184800 3.341679 21.057245 -50.364735 # 3 
260 130 4 -0.780000 16.501787 27.063211 -16.851437 # 4 
261 131 1 0.437400 31.589642 18.958588 1.891266 # 1 
262 131 2 0.157800 31.483147 19.060188 4.610565 # 2 
263 131 3 0.184800 32.756191 15.530451 0.618896 # 3 
264 132 4 -0.780000 17.505335 8.275725 -28.186417 # 4 
265 133 1 0.437400 11.753791 13.272878 -41.090706 # 1 
266 133 2 0.157800 10.240117 15.351130 -41.921494 # 2 
267 133 3 0.184800 11.727505 12.678033 -37.258804 # 3 
268 134 4 -0.780000 11.267617 19.127951 -37.870827 # 4 
269 135 1 0.437400 4.674051 14.101567 -10.773319 # 1 
270 135 2 0.157800 5.978049 11.804973 -11.192184 # 2 
271 135 3 0.184800 3.154235 15.612614 -13.957851 # 3 
272 136 4 -0.780000 13.387842 24.919952 -36.798965 # 4 
273 137 1 0.437400 30.462893 30.641750 -36.162056 # 1 
274 137 2 0.157800 29.166880 31.563660 -33.980480 # 2 
275 137 3 0.184800 33.160801 27.941422 -35.313431 # 3 
276 138 4 -0.780000 23.167212 24.583162 -23.523533 # 4 
277 139 1 0.437400 8.121981 7.877439 3.540337 # 1 
278 139 2 0.157800 7.095340 5.532143 4.565445 # 2 
279 139 3 0.184800 9.662801 7.896008 0.065216 # 3 
280 140 4 -0.780000 21.791847 11.237012 -34.582882 # 4 
281 141 1 0.437400 10.718676 2.628481 -34.863255 # 1 
282 141 2 0.157800 12.772816 2.020201 -33.151752 # 2 
283 141 3 0.184800 7.359186 1.175273 -33.865051 # 3 
284 142 4 -0.780000 1.941502 18.629868 -39.086163 # 4 
285 143 1 0.437400 24.617996 27.817202 -26.647705 # 1 
286 143 2 0.157800 24.553877 28.879915 -24.181366 # 2 
287 143 3 0.184800 21.787916 28.576834 -29.064800 # 3 
288 144 4 -0.780000 29.521500 30.470648 37.570892 # 4 
289 145 1 0.437400 8.995939 2.223667 35.953957 # 1 
290 145 2 0.157800 7.325775 0.129979 36.002350 # 2 
291 145 3 0.184800 12.757831 1.710657 35.395111 # 3 
292 146 4 -0.780000 4.631919 1.036715 -50.629311 # 4 
293 147 1 0.437400 24.015253 29.436737 -12.315418 # 1 
294 147 2 0.157800 25.578674 27.491467 -13.367321 # 2 
295 147 3 0.184800 25.730251 32.841221 -11.996544 # 3 
296 148 4 -0.780000 7.114256 21.694674 -44.469032 # 4 
297 149 1 0.437400 26.483709 6.171523 50.900185 # 1 
298 149 2 0.157800 24.987110 5.668388 48.700249 # 2 
299 149 3 0.184800 28.698761 9.306026 50.631279 # 3 
300 150 4 -0.780000 7.240283 13.357092 5.579582 # 4 
301 151 1 0.437400 20.962477 24.346350 -13.184406 # 1 
302 151 2 0.157800 21.575539 22.658361 -11.133602 # 2 
303 151 3 0.184800 19.314547 27.688059 -12.318058 # 3 
304 152 4 -0.780000 24.497496 28.717901 -17.232189 # 4 
305 153 1 0.437400 9.021979 17.468620 15.381905 # 1 
306 153 2 0.157800 8.315566 19.421995 13.571198 # 2 
307 153 3 0.184800 12.333442 15.539637 14.722595 # 3 
308 154 4 -0.780000 7.956770 2.897362 -4.826775 # 4 
309 155 1 0.437400 4.258383 15.703455 -5.132622 # 1 
310 155 2 0.157800 3.652078 17.962782 -6.508709 # 2 
311 155 3 0.184800 1.442554 13.359126 -4.228310 # 3 
312 156 4 -0.780000 2.100326 18.664888 -2.595657 # 4 
313 157 1 0.437400 30.905092 19.781454 -5.789627 # 1 
314 157 2 0.157800 30.458717 17.453808 -4.752068 # 2 
315 157 3 0.184800 31.364489 22.574295 -3.210152 # 3 
316 158 4 -0.780000 2.006850 30.980968 25.497223 # 4 
317 159 1 0.437400 32.793777 26.442825 9.491325 # 1 
318 159 2 0.157800 30.595676 26.622686 8.003845 # 2 
319 159 3 0.184800 34.817577 23.285604 8.888733 # 3 
320 160 4 -0.780000 13.933590 0.408456 -50.710526 # 4 
321 161 1 0.437400 11.863605 8.988724 -28.896362 # 1 
322 161 2 0.157800 12.777975 10.072893 -26.564892 # 2 
323 161 3 0.184800 13.283802 5.564474 -29.745358 # 3 
324 162 4 -0.780000 26.771507 2.904268 -50.527889 # 4 
325 163 1 0.437400 1.724825 28.344038 -24.689953 # 1 
326 163 2 0.157800 0.304135 28.599321 -22.360954 # 2 
327 163 3 0.184800 0.017442 29.797314 -27.786057 # 3 
328 164 4 -0.780000 25.706789 30.634565 -43.926750 # 4 
329 165 1 0.437400 13.264027 22.911348 -25.396812 # 1 
330 165 2 0.157800 15.324677 23.646589 -23.867558 # 2 
331 165 3 0.184800 13.480458 19.558748 -27.026546 # 3 
332 166 4 -0.780000 16.521196 17.282541 18.417618 # 4 
333 167 1 0.437400 24.375769 8.078313 29.679024 # 1 
334 167 2 0.157800 23.932095 7.804412 26.971039 # 2 
335 167 3 0.184800 23.864782 11.556185 31.114868 # 3 
336 168 4 -0.780000 9.958583 23.462677 5.533562 # 4 
337 169 1 0.437400 16.340017 29.711540 13.072876 # 1 
338 169 2 0.157800 17.851725 27.541464 13.913460 # 2 
339 169 3 0.184800 14.117226 31.434532 15.626480 # 3 
340 170 4 -0.780000 11.772585 15.169285 -45.878475 # 4 
341 171 1 0.437400 30.511658 33.108185 2.824242 # 1 
342 171 2 0.157800 31.392250 30.862520 1.842941 # 2 
343 171 3 0.184800 27.702953 32.674976 5.316208 # 3 
344 172 4 -0.780000 31.581903 21.398464 -17.048038 # 4 
345 173 1 0.437400 3.805866 5.573971 51.244934 # 1 
346 173 2 0.157800 2.634036 3.280509 50.358810 # 2 
347 173 3 0.184800 1.545857 8.634463 50.895027 # 3 
348 174 4 -0.780000 3.371896 9.761937 -13.454350 # 4 
349 175 1 0.437400 28.611795 32.010220 -16.693153 # 1 
350 175 2 0.157800 26.314445 33.564407 -16.492203 # 2 
351 175 3 0.184800 28.685373 30.354071 -20.114269 # 3 
352 176 4 -0.780000 11.537973 30.931118 -33.775734 # 4 
353 177 1 0.437400 7.634578 -1.735639 18.501907 # 1 
354 177 2 0.157800 7.647476 0.514298 17.105293 # 2 
355 177 3 0.184800 4.399027 -2.243072 20.537399 # 3 
356 178 4 -0.780000 1.316036 0.277444 40.767570 # 4 
357 179 1 0.437400 33.176403 0.842189 -18.016090 # 1 
358 179 2 0.157800 35.503357 -0.429436 -18.799072 # 2 
359 179 3 0.184800 31.519258 2.674492 -20.858448 # 3 
360 180 4 -0.780000 10.053657 0.199135 -38.412285 # 4 
361 181 1 0.437400 0.983403 1.497694 -27.245548 # 1 
362 181 2 0.157800 1.360255 3.157468 -25.053574 # 2 
363 181 3 0.184800 4.186035 0.494138 -28.910973 # 3 
364 182 4 -0.780000 28.655401 20.196930 -10.325176 # 4 
365 183 1 0.437400 29.157421 22.940300 -49.630318 # 1 
366 183 2 0.157800 27.808958 22.028151 -47.538509 # 2 
367 183 3 0.184800 27.951077 26.483423 -50.600796 # 3 
368 184 4 -0.780000 17.332878 24.348154 19.660278 # 4 
369 185 1 0.437400 15.260926 30.243299 -26.681522 # 1 
370 185 2 0.157800 16.842281 30.201242 -24.530216 # 2 
371 185 3 0.184800 15.898308 33.197254 -29.004173 # 3 
372 186 4 -0.780000 11.314540 14.271144 -25.570007 # 4 
373 187 1 0.437400 9.756154 6.144032 51.220833 # 1 
374 187 2 0.157800 7.511622 7.159997 50.181496 # 2 
375 187 3 0.184800 12.818510 8.352066 50.866089 # 3 
376 188 4 -0.780000 15.656326 11.039828 22.844666 # 4 
377 189 1 0.437400 6.242632 16.480688 -37.146580 # 1 
378 189 2 0.157800 3.564867 15.903360 -36.773003 # 2 
379 189 3 0.184800 7.032450 18.161573 -40.510971 # 3 
380 190 4 -0.780000 6.251844 11.859858 -1.325066 # 4 
381 191 1 0.437400 20.698877 11.136329 -12.502747 # 1 
382 191 2 0.157800 19.435905 8.932034 -13.484085 # 2 
383 191 3 0.184800 21.213057 14.009415 -15.001701 # 3 
384 192 4 -0.780000 11.145644 34.081123 -12.927677 # 4 
385 193 1 0.437400 20.916170 13.193126 -40.926834 # 1 
386 193 2 0.157800 23.469995 13.729362 -39.968880 # 2 
387 193 3 0.184800 18.686501 11.311105 -38.497131 # 3 
388 194 4 -0.780000 10.087067 22.662954 -28.854046 # 4 
389 195 1 0.437400 9.925173 12.940336 -5.070240 # 1 
390 195 2 0.157800 7.834796 14.715244 -4.783302 # 2 
391 195 3 0.184800 12.230753 12.875051 -2.029549 # 3 
392 196 4 -0.780000 21.655748 8.325607 -41.456696 # 4 
393 197 1 0.437400 33.403275 9.943209 -8.184399 # 1 
394 197 2 0.157800 32.926559 11.195249 -10.516758 # 2 
395 197 3 0.184800 30.519520 7.835890 -6.810810 # 3 
396 198 4 -0.780000 30.808546 18.325769 -50.346832 # 4 
397 199 1 0.437400 8.950368 22.020868 -23.909996 # 1 
398 199 2 0.157800 8.879248 19.281042 -24.065758 # 2 
399 199 3 0.184800 7.870787 23.333485 -20.397671 # 3 
400 200 4 -0.780000 20.738062 26.139629 -42.381157 # 4 
401 201 1 0.437400 22.706219 28.022749 1.114693 # 1 
402 201 2 0.157800 20.601471 28.359097 -0.530731 # 2 
403 201 3 0.184800 23.062189 30.625101 3.891533 # 3 
404 202 4 -0.780000 1.121713 24.580456 -30.641087 # 4 
405 203 1 0.437400 27.654678 13.922215 0.863655 # 1 
406 203 2 0.157800 28.907948 13.455167 -1.461441 # 2 
407 203 3 0.184800 25.577692 11.261535 2.512337 # 3 
408 204 4 -0.780000 12.762989 8.494413 -5.302475 # 4 
409 205 1 0.437400 20.055109 12.373294 -50.019638 # 1 
410 205 2 0.157800 21.322502 10.667624 -51.801376 # 2 
411 205 3 0.184800 20.160990 16.037489 -50.882351 # 3 
412 206 4 -0.780000 8.671290 27.996225 -18.735317 # 4 
413 207 1 0.437400 30.529469 12.384202 14.219505 # 1 
414 207 2 0.157800 29.230507 12.517478 11.864388 # 2 
415 207 3 0.184800 33.919666 10.591398 14.069336 # 3 
416 208 4 -0.780000 3.260486 18.374569 4.459312 # 4 
417 209 1 0.437400 25.051966 28.564137 35.470024 # 1 
418 209 2 0.157800 24.339165 26.694304 33.596596 # 2 
419 209 3 0.184800 22.558081 31.216124 36.425499 # 3 
420 210 4 -0.780000 16.965607 24.691195 11.427185 # 4 
421 211 1 0.437400 15.316324 18.672073 -10.890369 # 1 
422 211 2 0.157800 14.532648 16.463957 -12.092884 # 2 
423 211 3 0.184800 12.496564 20.706366 -9.610756 # 3 
424 212 4 -0.780000 15.000766 17.299141 2.561813 # 4 
425 213 1 0.437400 29.142435 26.091339 -28.539650 # 1 
426 213 2 0.157800 29.798119 23.490988 -28.321983 # 2 
427 213 3 0.184800 28.208656 27.171997 -32.088348 # 3 
428 214 4 -0.780000 18.650879 11.736882 -2.618332 # 4 
429 215 1 0.437400 28.318716 27.199030 50.812233 # 1 
430 215 2 0.157800 31.023380 27.341311 50.554649 # 2 
431 215 3 0.184800 26.893112 23.708479 50.599342 # 3 
432 216 4 -0.780000 3.737570 4.908756 27.774269 # 4 
433 217 1 0.437400 16.703112 8.486720 -23.485058 # 1 
434 217 2 0.157800 17.742035 8.827299 -21.171814 # 2 
435 217 3 0.184800 15.919927 4.855494 -24.525616 # 3 
436 218 4 -0.780000 5.351108 5.243233 0.570435 # 4 
437 219 1 0.437400 15.020542 19.391665 6.906914 # 1 
438 219 2 0.157800 15.129250 20.755919 9.250320 # 2 
439 219 3 0.184800 11.544974 18.338284 5.768860 # 3 
440 220 4 -0.780000 16.456217 33.238819 -15.075500 # 4 
441 221 1 0.437400 15.065376 28.290941 7.971199 # 1 
442 221 2 0.157800 13.617172 26.061026 7.961266 # 2 
443 221 3 0.184800 18.759340 28.032066 7.300766 # 3 
444 222 4 -0.780000 20.599014 4.654260 14.737602 # 4 
445 223 1 0.437400 12.683517 3.600190 -21.605633 # 1 
446 223 2 0.157800 14.765049 2.063145 -20.638481 # 2 
447 223 3 0.184800 10.975397 5.791166 -18.913769 # 3 
448 224 4 -0.780000 23.883575 2.840132 -31.544460 # 4 
449 225 1 0.437400 21.759789 20.540594 -20.152813 # 1 
450 225 2 0.157800 24.313984 21.203266 -20.887955 # 2 
451 225 3 0.184800 21.199545 16.962778 -19.041782 # 3 
452 226 4 -0.780000 2.735005 11.722875 -28.024643 # 4 
453 227 1 0.437400 17.117920 17.138981 -44.210777 # 1 
454 227 2 0.157800 16.058237 16.315722 -46.604706 # 2 
455 227 3 0.184800 14.647620 17.143574 -41.341492 # 3 
456 228 4 -0.780000 21.213917 31.398085 -24.731701 # 4 
457 229 1 0.437400 9.383109 10.832394 31.823944 # 1 
458 229 2 0.157800 7.434114 10.614493 33.721619 # 2 
459 229 3 0.184800 10.486766 14.293174 30.757263 # 3 
460 230 4 -0.780000 2.146143 7.666954 36.253822 # 4 
461 231 1 0.437400 16.271721 26.719418 -33.314709 # 1 
462 231 2 0.157800 18.612677 26.860518 -31.795303 # 2 
463 231 3 0.184800 15.898554 29.078508 -36.219780 # 3 
464 232 4 -0.780000 29.354076 29.069651 -12.490330 # 4 
465 233 1 0.437400 8.955527 8.043998 -34.392570 # 1 
466 233 2 0.157800 9.561586 10.249440 -33.039169 # 2 
467 233 3 0.184800 5.300500 7.165803 -34.121284 # 3 
468 234 4 -0.780000 19.184221 31.335737 -32.691807 # 4 
469 235 1 0.437400 22.539534 27.476343 -50.961243 # 1 
470 235 2 0.157800 21.086908 25.336233 -51.791451 # 2 
471 235 3 0.184800 23.992037 27.098150 -47.454826 # 3 
472 236 4 -0.780000 4.454548 19.069441 -23.360397 # 4 
473 237 1 0.437400 11.263318 30.892817 35.007004 # 1 
474 237 2 0.157800 12.401859 30.121227 37.306404 # 2 
475 237 3 0.184800 13.721581 31.716339 32.162857 # 3 
476 238 4 -0.780000 24.920288 19.863306 41.724739 # 4 
477 239 1 0.437400 12.829811 14.011826 -30.103741 # 1 
478 239 2 0.157800 14.050036 16.039164 -28.659210 # 2 
479 239 3 0.184800 10.857722 14.984815 -33.271492 # 3 
480 240 4 -0.780000 20.521629 32.818684 -50.612644 # 4 
481 241 1 0.437400 10.271194 19.888863 -47.397682 # 1 
482 241 2 0.157800 12.972912 19.617865 -46.940178 # 2 
483 241 3 0.184800 9.638357 21.339119 -50.802990 # 3 
484 242 4 -0.780000 24.933554 23.790396 -29.536301 # 4 
485 243 1 0.437400 4.821205 29.254646 -40.823181 # 1 
486 243 2 0.157800 3.855613 29.677193 -38.310966 # 2 
487 243 3 0.184800 4.454057 25.949631 -42.678989 # 3 
488 244 4 -0.780000 25.504114 11.901259 -27.020641 # 4 
489 245 1 0.437400 12.704889 31.834558 -41.050766 # 1 
490 245 2 0.157800 12.253845 30.890833 -38.539948 # 2 
491 245 3 0.184800 9.707267 32.382278 -43.424507 # 3 
492 246 4 -0.780000 10.387763 21.940886 16.127945 # 4 
493 247 1 0.437400 26.386671 20.734053 15.056686 # 1 
494 247 2 0.157800 26.662924 23.225487 14.181725 # 2 
495 247 3 0.184800 28.516232 19.522726 17.887787 # 3 
496 248 4 -0.780000 0.577562 33.056431 -23.189194 # 4 
497 249 1 0.437400 25.138563 12.083449 -45.644688 # 1 
498 249 2 0.157800 23.381924 9.980264 -45.358963 # 2 
499 249 3 0.184800 28.363058 11.146909 -47.378471 # 3 
500 250 4 -0.780000 32.068077 5.829730 23.753174 # 4 
501 251 1 0.437400 8.922976 23.014624 -39.611496 # 1 
502 251 2 0.157800 6.357481 22.900785 -40.667755 # 2 
503 251 3 0.184800 11.775533 23.114141 -42.198105 # 3 
504 252 4 -0.780000 0.593776 13.676888 -34.675938 # 4 
505 253 1 0.437400 12.750584 2.951805 -4.034687 # 1 
506 253 2 0.157800 12.631189 1.205012 -2.085014 # 2 
507 253 3 0.184800 11.998966 1.720450 -7.599545 # 3 
508 254 4 -0.780000 12.939992 3.693869 1.039101 # 4 
509 255 1 0.437400 15.157009 32.687672 -10.745144 # 1 
510 255 2 0.157800 17.727787 33.423618 -10.383747 # 2 
511 255 3 0.184800 14.733234 29.334858 -12.470856 # 3 
512 256 4 -0.780000 17.599672 30.004288 2.593781 # 4 
513 257 1 0.437400 26.788582 22.488459 -25.094284 # 1 
514 257 2 0.157800 24.547367 20.932320 -25.073849 # 2 
515 257 3 0.184800 29.828337 21.205038 -23.075207 # 3 
516 258 4 -0.780000 0.421195 15.350884 -8.783581 # 4 
517 259 1 0.437400 29.204466 24.353436 -12.905762 # 1 
518 259 2 0.157800 28.213448 22.048048 -13.944786 # 2 
519 259 3 0.184800 32.941177 25.120531 -13.446049 # 3 
520 260 4 -0.780000 6.921040 27.308668 -4.260941 # 4 
521 261 1 0.437400 20.707722 25.816339 -19.426521 # 1 
522 261 2 0.157800 20.576166 27.056305 -16.970329 # 2 
523 261 3 0.184800 19.074900 27.548960 -22.393742 # 3 
524 262 4 -0.780000 28.710554 34.333733 46.072029 # 4 
525 263 1 0.437400 18.367624 3.347073 41.506813 # 1 
526 263 2 0.157800 18.320948 1.310485 39.786209 # 2 
527 263 3 0.184800 16.240644 3.246275 44.706757 # 3 
528 264 4 -0.780000 17.965715 16.950853 -27.150822 # 4 
529 265 1 0.437400 18.834146 29.571325 43.135544 # 1 
530 265 2 0.157800 19.507763 28.058016 45.344398 # 2 
531 265 3 0.184800 17.483717 27.495026 40.319633 # 3 
532 266 4 -0.780000 8.180326 18.884773 -1.951317 # 4 
533 267 1 0.437400 20.442034 0.052638 -29.040234 # 1 
534 267 2 0.157800 23.041185 -0.661311 -28.643692 # 2 
535 267 3 0.184800 19.593746 3.419591 -27.543926 # 3 
536 268 4 -0.780000 29.686710 4.718233 -25.865005 # 4 
537 269 1 0.437400 26.263224 4.648863 -12.886269 # 1 
538 269 2 0.157800 28.821350 4.946483 -12.253166 # 2 
539 269 3 0.184800 23.566542 7.024539 -11.311459 # 3 
540 270 4 -0.780000 31.970795 34.324547 32.093689 # 4 
541 271 1 0.437400 27.845316 27.037426 40.528351 # 1 
542 271 2 0.157800 30.538435 27.365915 40.456337 # 2 
543 271 3 0.184800 26.702845 23.832569 38.948425 # 3 
544 272 4 -0.780000 25.707281 16.662140 20.592674 # 4 
545 273 1 0.437400 23.701782 6.706645 -28.120251 # 1 
546 273 2 0.157800 21.648500 8.074720 -27.025909 # 2 