LAMMPS data file for 2000 particles on a sphere with params 8 

2000 atoms
1 atom types

-10 10 xlo xhi
-10 10 ylo yhi
-10 10 zlo zhi


Masses

1 1.0

Atoms

1  1 5.98128 -1.85699 4.97753
2  1 4.03567 5.56653 -4.08988
3  1 -3.42097 5.56876 -4.61366
4  1 3.05061 -1.27761 7.28433
5  1 -2.29081 0.227037 7.66163
6  1 6.81272 2.22147 3.55695
7  1 -4.68924 1.39957 -6.32868
8  1 -3.81805 -5.387 4.51693
9  1 -5.33806 -1.54015 -5.75613
10  1 -4.51082 5.75309 -3.24877
11  1 0.289344 7.58717 2.52016
12  1 -6.60061 4.45132 0.785956
13  1 -0.0994231 7.32502 -3.21468
14  1 5.65813 0.557664 5.62802
15  1 -1.74091 6.83181 -3.78095
16  1 -2.18413 4.5554 6.20306
17  1 -5.528 5.77318 0.334001
18  1 -6.12071 -4.55102 2.41353
19  1 5.16691 -2.00075 -5.77062
20  1 -5.90355 -0.520254 -5.37377
21  1 -3.11509 5.60166 4.78723
22  1 6.63231 -4.40997 0.751462
23  1 -3.45574 7.20676 0.347127
24  1 2.731 0.51464 -7.50178
25  1 -0.81365 5.6342 5.62083
26  1 4.53015 -4.4226 4.89063
27  1 4.05704 -4.23015 5.44484
28  1 -5.24448 -0.940409 5.9675
29  1 5.73858 -2.95754 -4.72458
30  1 6.83513 -2.6001 3.24353
31  1 7.43916 1.44459 2.56362
32  1 5.13664 -0.865569 6.07171
33  1 -2.14614 6.65137 3.89274
34  1 6.57608 -0.280172 -4.54716
35  1 5.0769 4.73723 -3.97287
36  1 7.3993 2.73944 -1.3213
37  1 2.521 -4.6151 6.02871
38  1 -4.54427 -1.25008 -6.46428
39  1 -6.43517 -4.60839 1.16244
40  1 -1.25874 -4.98068 6.13257
41  1 -5.82218 -5.48614 -0.0668436
42  1 2.97062 5.52841 4.96106
43  1 4.44796 -2.81696 6.02332
44  1 -2.8996 -4.54445 -5.91103
45  1 1.53736 -4.65069 -6.32515
46  1 3.50796 -5.65939 4.43458
47  1 -4.51699 3.2956 -5.72152
48  1 5.67015 -5.63698 0.271643
49  1 -5.0694 -4.06971 4.66247
50  1 3.41463 2.29786 6.86004
51  1 2.22172 4.13785 -6.47628
52  1 -5.23245 0.289644 -6.04463
53  1 -6.57684 -4.51631 -0.589945
54  1 6.15058 1.41065 4.91736
55  1 -4.75676 -3.63283 5.30809
56  1 -3.83835 5.06233 -4.86209
57  1 5.21134 -4.66847 3.87909
58  1 -4.38873 -5.08826 4.34151
59  1 1.58545 -5.39718 -5.6883
60  1 -1.62441 6.1945 4.79473
61  1 -6.62875 2.46912 3.73672
62  1 -0.853375 3.37195 -7.20429
63  1 0.758981 6.33865 -4.82135
64  1 6.29907 0.985003 4.83234
65  1 3.6571 1.90242 -6.85612
66  1 3.33475 4.48448 5.72441
67  1 4.31568 3.82738 5.54311
68  1 2.88838 4.7786 5.72907
69  1 3.55823 -0.058454 -7.16489
70  1 3.98407 4.69558 -5.10673
71  1 3.73795 -6.29095 3.23291
72  1 -5.64879 4.18389 -3.8192
73  1 -2.57586 -4.04037 -6.40628
74  1 3.11345 -6.46553 3.536
75  1 0.164285 7.24829 -3.38162
76  1 0.825287 3.92479 -6.92206
77  1 -0.501669 1.62798 7.81652
78  1 -1.01359 -3.37948 7.17996
79  1 -0.998826 -7.57689 -2.36498
80  1 1.80006 6.09109 -4.86399
81  1 7.92103 -0.769629 -0.815422
82  1 -3.63963 3.95766 -5.92368
83  1 2.01882 -7.60871 -1.42545
84  1 5.29709 4.70119 3.72017
85  1 -3.33199 -6.8734 2.37787
86  1 3.23535 5.87059 -4.36677
87  1 3.38105 -4.18749 5.91891
88  1 4.33032 3.58906 -5.6892
89  1 0.542983 -6.90185 -4.0087
90  1 5.16169 2.54573 -5.55664
91  1 -7.40969 -2.6381 1.46184
92  1 2.61938 4.68048 -5.93565
93  1 5.69902 -4.37336 -3.52063
94  1 -3.26664 5.0999 -5.22686
95  1 5.42829 -2.79415 -5.16976
96  1 -0.813611 5.87614 5.36741
97  1 4.21008 3.16426 -6.02185
98  1 4.23381 -2.64731 6.25033
99  1 5.00974 4.70695 4.09233
100  1 -5.64628 5.59305 0.915019
101  1 -2.65577 5.30511 5.36682
102  1 7.83884 -0.0389045 1.59719
103  1 -4.94419 -3.3146 5.34495
104  1 -0.17329 -0.828422 7.9551
105  1 -0.0842772 -4.37763 -6.69547
106  1 3.17046 3.91707 -6.21328
107  1 2.33287 -0.171461 7.65038
108  1 3.73153 -5.35459 -4.62646
109  1 -0.0225223 -5.78502 -5.52567
110  1 -2.29478 -2.88075 7.10178
111  1 6.01441 1.7977 4.95935
112  1 7.10094 -0.0876231 -3.6836
113  1 -3.84863 5.78468 3.96554
114  1 -3.20355 -4.6343 -5.67983
115  1 -7.1216 2.67333 -2.4771
116  1 -3.45452 -2.75105 -6.67068
117  1 -1.2966 7.75214 1.49104
118  1 -4.86514 3.29295 5.43018
119  1 -0.195638 -5.33286 5.96006
120  1 3.15614 0.444913 -7.33763
121  1 1.34269 -1.72151 7.69634
122  1 -2.58541 -6.25895 -4.25924
123  1 3.31212 2.00226 7.00149
124  1 -2.29962 5.65191 -5.17374
125  1 -1.2371 -6.85846 3.92825
126  1 4.2534 -3.1983 -5.97323
127  1 4.70854 2.84683 -5.80734
128  1 -0.766091 7.32251 3.12954
129  1 -4.958 -0.447686 6.26241
130  1 -5.57986 -5.50236 -1.6091
131  1 -3.97064 3.14708 6.19111
132  1 -4.02363 -4.89974 -4.87883
133  1 -0.986563 6.55311 4.48145
134  1 -1.1619 -7.70469 1.81319
135  1 4.95614 1.88447 5.99045
136  1 -2.41937 -3.42913 6.81085
137  1 -0.537168 -7.57461 2.51728
138  1 1.32792 6.13363 4.96137
139  1 -3.52909 4.37001 -5.69636
140  1 -4.78623 5.05545 -3.94138
141  1 -0.342103 -5.14108 6.11983
142  1 -3.67583 -2.50959 6.64758
143  1 -3.2306 6.53194 3.30106
144  1 -6.25891 -3.27382 3.75607
145  1 2.47605 6.60671 -3.77102
146  1 -5.23645 -5.66794 2.11046
147  1 -6.09417 2.72652 4.40763
148  1 4.56809 -6.23716 -2.05678
149  1 -4.43241 -1.58673 -6.46807
150  1 -2.50299 0.71958 -7.56421
151  1 0.881005 -7.71977 -1.90498
152  1 -2.86693 -4.73452 5.77625
153  1 -6.67132 4.16782 1.45695
154  1 6.06205 2.68704 4.47563
155  1 5.11401 -4.86073 3.77096
156  1 -6.5558 0.437409 4.56401
157  1 5.08438 6.12514 0.79476
158  1 -2.86697 -3.98022 6.31968
159  1 4.89687 2.88418 -5.63047
160  1 -5.6134 -5.24485 2.23189
161  1 -6.41303 2.44214 4.11205
162  1 0.769115 -5.65658 -5.6046
163  1 -4.5182 -5.53125 3.60433
164  1 5.66816 -5.05441 -2.51494
165  1 3.03042 6.8636 2.77625
166  1 -2.81593 5.80483 -4.73017
167  1 -5.77254 0.0582705 5.53845
168  1 2.61116 6.00814 -4.59174
169  1 -1.93744 3.78504 6.77641
170  1 0.763887 3.85125 6.97025
171  1 -4.22109 6.74688 0.81364
172  1 7.94115 -0.102477 0.963162
173  1 5.68913 3.88206 4.06982
174  1 1.43132 2.38106 7.50212
175  1 5.80443 -2.33666 4.98484
176  1 2.32417 3.59147 6.76015
177  1 4.70724 5.04032 -4.05426
178  1 2.38404 -0.672323 -7.60686
179  1 3.94126 4.86952 4.97537
180  1 6.05224 -3.22159 4.12211
181  1 4.32833 6.5038 1.72226
182  1 -4.76872 1.07158 -6.33333
183  1 4.1318 0.373276 6.84024
184  1 0.310468 -7.99121 -0.210223
185  1 0.150463 -6.56428 4.5703
186  1 -4.96457 5.92505 -2.06076
187  1 -6.39594 -1.56157 -4.54461
188  1 -1.3877 -7.18226 3.23875
189  1 1.77655 7.54147 1.9925
190  1 -0.854624 -0.363282 7.94592
191  1 -5.61133 -5.41376 1.79
192  1 1.91629 -5.46438 -5.51982
193  1 2.07174 6.73669 3.78482
194  1 -0.830437 -1.37345 7.83735
195  1 4.81475 4.77485 4.24488
196  1 6.74333 -4.20315 0.927918
197  1 -4.23323 -0.338352 6.77977
198  1 -0.446646 5.0738 6.16904
199  1 -5.95817 -0.790587 5.27969
200  1 3.93386 5.97623 -3.57903
201  1 3.74957 6.64321 -2.41008
202  1 -6.13791 3.82181 3.42342
203  1 2.93513 -7.42325 -0.529503
204  1 -2.40393 2.64424 7.15745
205  1 -4.84084 1.78271 6.11459
206  1 -6.13577 -1.98818 -4.73281
207  1 4.73697 2.99671 5.70796
208  1 1.69159 -7.74572 1.06881
209  1 0.926516 -3.74836 -7.00652
210  1 -1.87292 -5.88804 5.08165
211  1 1.67926 4.48158 6.41058
212  1 6.35683 -4.79669 -0.763198
213  1 -0.300824 7.2327 3.40551
214  1 6.05507 -4.48152 -2.69298
215  1 5.37525 -1.88416 5.61753
216  1 5.88186 -0.574662 -5.39198
217  1 5.17982 -4.38 4.24089
218  1 1.99837 3.54705 6.88658
219  1 -4.97602 -3.42907 -5.24221
220  1 -5.19825 2.20734 -5.6662
221  1 -4.64544 -3.39014 5.56119
222  1 -5.52337 -3.85365 -4.31761
223  1 -0.689541 2.68472 7.50445
224  1 -5.34584 1.52987 -5.75165
225  1 -6.86669 -0.23065 -4.09822
226  1 -3.13616 -3.88082 6.2533
227  1 0.940826 -4.39796 -6.6161
228  1 -1.33273 6.13804 4.95462
229  1 -1.65113 5.72504 -5.33833
230  1 0.552733 -7.01945 3.79761
231  1 3.39818 -2.93207 6.62234
232  1 2.35209 -2.54136 -7.21174
233  1 4.73988 5.39087 3.53158
234  1 3.02512 6.72109 -3.11056
235  1 4.51324 -3.61209 5.53023
236  1 -4.50858 1.3211 -6.47513
237  1 -5.45391 -4.69003 -3.50121
238  1 -5.02408 1.23063 -6.1028
239  1 4.21239 4.81738 -4.8009
240  1 6.93178 -0.504536 -3.9618
241  1 1.97363 -7.51158 1.9186
242  1 -0.356426 4.75654 6.42248
243  1 0.865561 2.68422 7.48637
244  1 -5.69538 -4.8883 2.76898
245  1 0.470523 -5.95744 5.3186
246  1 -3.67135 -7.0869 0.544937
247  1 -2.81195 -5.47628 5.10914
248  1 4.16733 -1.62695 -6.63222
249  1 4.18715 -3.44367 -5.88293
250  1 5.19394 -4.84689 3.6784
251  1 -5.60197 3.99602 4.08041
252  1 3.0417 -5.38901 5.07017
253  1 0.500088 6.48638 -4.65583
254  1 -3.96627 -6.94363 0.234004
255  1 7.66957 2.19201 0.61057
256  1 4.22644 6.03662 3.11391
257  1 -2.48683 -2.23211 -7.26866
258  1 -5.54542 -5.76423 -0.148447
259  1 -3.81366 3.8348 5.89494
260  1 0.140114 -0.615121 -7.97509
261  1 -4.71409 -0.249447 6.45873
262  1 -5.46786 -4.97669 -3.05533
263  1 3.58208 1.88533 -6.90031
264  1 5.44688 4.33646 -3.94039
265  1 -0.50746 5.4281 5.85476
266  1 -7.13984 1.13846 3.42441
267  1 3.07962 5.33943 -5.09965
268  1 3.46571 5.37895 -4.80164
269  1 -3.88769 -4.50211 5.34947
270  1 -6.18341 3.7674 -3.40179
271  1 -4.31793 5.78519 3.44777
272  1 -4.50333 5.37191 3.85521
273  1 -5.00928 6.08419 -1.37468
274  1 -2.16044 5.07256 -5.79669
275  1 1.41597 -5.21378 -5.90013
276  1 -2.35172 -6.998 3.08179
277  1 -5.62782 5.55691 1.20353
278  1 -6.88812 4.01003 0.688125
279  1 -2.72462 6.43523 3.89413
280  1 -5.06536 -6.18886 0.200194
281  1 -2.60581 -7.46381 -1.22528
282  1 -6.86912 -3.87589 -1.33893
283  1 -6.20375 1.8789 -4.68862
284  1 -0.605325 -6.61491 4.45831
285  1 4.29122 2.77159 6.1566
286  1 4.03077 -4.80059 -4.97064
287  1 0.403578 -4.81264 6.37774
288  1 -7.48297 -2.14641 1.84339
289  1 4.48888 6.49739 1.27825
290  1 -2.16829 7.48636 1.8036
291  1 5.79383 -3.82463 3.97539
292  1 -2.29803 -2.15761 -7.35281
293  1 5.9986 -2.19479 4.8166
294  1 5.35728 4.3096 4.08985
295  1 6.75347 4.25821 0.50828
296  1 6.76103 0.130236 4.27452
297  1 2.44387 -6.69164 3.63998
298  1 1.54357 -5.58867 -5.51218
299  1 -4.53357 4.13565 5.13256
300  1 4.40052 -5.90899 3.11756
301  1 -2.56041 -5.40016 5.31814
302  1 -6.92128 -0.351885 -3.9965
303  1 -6.00415 -4.2443 3.15214
304  1 6.79222 -4.22549 0.105069
305  1 3.53996 5.54709 -4.54957
306  1 -6.35786 1.88841 4.47343
307  1 6.08411 -4.35277 2.83496
308  1 2.18029 5.60504 5.2754
309  1 3.95751 -6.8282 1.30913
310  1 2.36118 5.29667 5.51091
311  1 -2.83672 -5.56594 4.99733
312  1 -5.46151 -5.35697 -2.33985
313  1 -2.28637 -4.86877 5.92179
314  1 -5.59225 -2.44085 5.17387
315  1 1.68248 -6.18928 4.78143
316  1 6.64629 -2.6941 -3.54523
317  1 -3.13126 -6.74476 2.95016
318  1 -5.81978 5.41249 -0.91389
319  1 7.23987 3.32052 -0.747254
320  1 -0.655423 -4.79687 -6.36871
321  1 -6.12779 1.85142 -4.79817
322  1 -6.64859 4.43529 -0.35285
323  1 -0.239153 -5.20317 6.07205
324  1 -5.57587 -3.14569 -4.79732
325  1 -5.91322 4.76666 -2.51253
326  1 6.31075 3.07731 3.83465
327  1 -3.58731 -5.03162 5.08075
328  1 3.68816 -5.18964 4.84409
329  1 -4.06921 6.86946 0.502003
330  1 3.62512 -0.737622 7.09327
331  1 6.88519 3.7189 -1.66253
332  1 -4.28536 4.72547 -4.82759
333  1 4.77807 -4.84686 -4.20452
334  1 1.73068 -2.27607 7.47156
335  1 7.73481 -1.42277 1.46577
336  1 -6.30775 -2.95267 -3.93624
337  1 4.66377 -1.34828 -6.35857
338  1 3.46378 -6.35448 -3.40923
339  1 0.661695 -3.39285 -7.21462
340  1 -5.28888 -4.77293 3.63964
341  1 4.91274 6.30785 0.275581
342  1 -4.20219 -6.23088 -2.74185
343  1 -1.2111 7.02298 3.63469
344  1 4.83541 -1.9211 -6.07685
345  1 -1.41356 -7.63332 1.93244
346  1 5.25126 -4.38752 4.14414
347  1 -5.53414 4.91568 -3.0347
348  1 -7.08062 -3.00759 2.19526
349  1 2.79604 5.36412 5.2353
350  1 -4.25333 -4.95645 -4.61983
351  1 4.37315 4.39115 -5.05899
352  1 -1.50389 -5.88116 -5.2106
353  1 4.25188 1.8754 -6.51186
354  1 -2.88892 -6.82803 -3.00537
355  1 2.28622 7.53337 1.42181
356  1 -5.19345 5.28866 3.00967
357  1 -5.43371 5.86307 -0.314811
358  1 -1.97399 -2.42307 7.36424
359  1 4.75481 -4.5256 4.57282
360  1 4.67193 -3.83387 5.24161
361  1 5.08333 -4.86593 3.80559
362  1 5.49648 0.103252 -5.81189
363  1 -6.25977 -4.27309 2.56047
364  1 -3.2992 3.44557 -6.4221
365  1 3.87283 -2.61005 6.49529
366  1 -6.08999 1.49486 4.96764
367  1 7.41468 2.00971 2.2324
368  1 -0.765549 -5.60454 5.65712
369  1 -1.81665 5.67128 -5.34194
370  1 -4.32362 5.52951 -3.83807
371  1 -6.17289 4.51609 -2.34528
372  1 -5.98694 2.40544 4.72974
373  1 -5.56808 4.4053 -3.68644
374  1 1.95618 -4.94347 5.97791
375  1 3.01012 6.34001 -3.83972
376  1 0.797538 -5.76222 5.49188
377  1 -4.63297 -6.47374 -0.791369
378  1 7.89168 1.00147 -0.84761
379  1 5.14474 5.90437 -1.63401
380  1 5.68641 -4.0626 -3.89358
381  1 -3.98445 -2.20371 6.57783
382  1 4.70151 -4.88539 4.24603
383  1 1.13613 -7.91801 0.119902
384  1 2.87091 -7.12957 2.21971
385  1 4.18346 6.7825 0.70448
386  1 6.27679 -4.1054 2.78345
387  1 4.88554 -0.776693 6.28715
388  1 -6.41368 -3.4677 -3.29238
389  1 2.55866 -5.9 -4.75849
390  1 -6.30607 -4.80009 -1.09212
391  1 -5.53199 -2.2056 5.34158
392  1 -4.18894 -5.50671 -4.01608
393  1 7.90217 0.984803 0.765394
394  1 -5.37936 -5.85447 0.887516
395  1 5.39964 4.67966 -3.59787
396  1 -2.60418 7.52917 -0.727869
397  1 -5.41769 -0.486029 5.86621
398  1 6.50642 2.39422 -3.99177
399  1 -6.25015 -4.86401 -1.13008
400  1 -1.52058 -7.19343 3.15315
401  1 4.98373 0.196851 6.25489
402  1 2.32575 2.18587 7.33573
403  1 7.49552 -2.76863 0.389745
404  1 -4.32446 3.32847 5.84982
405  1 7.76249 0.718535 1.79653
406  1 -5.0985 5.74178 -2.24439
407  1 1.12299 -6.70485 4.21709
408  1 0.329214 7.8783 -1.35059
409  1 4.5164 -5.74051 3.26322
410  1 -3.76371 1.36672 -6.92579
411  1 7.95161 -0.671672 0.566375
412  1 4.02324 -5.16105 -4.60185
413  1 4.32519 6.6706 0.892124
414  1 -3.72238 -4.49818 -5.46903
415  1 -5.77189 -4.77929 2.80066
416  1 2.58905 -6.43862 3.98007
417  1 6.16513 4.04229 3.10662
418  1 5.46399 -4.67313 3.50809
419  1 -4.55767 -5.40121 3.74895
420  1 6.88066 -3.39409 -2.26644
421  1 4.71146 -4.59451 4.54891
422  1 -1.33961 5.27217 5.86598
423  1 0.994442 3.62106 7.06392
424  1 -4.28886 -5.55787 -3.83611
425  1 -2.75968 -6.7234 -3.34366
426  1 -7.61813 2.41749 -0.346218
427  1 5.20727 2.12973 -5.68759
428  1 -2.48369 -7.0772 2.78289
429  1 -7.43709 -0.563882 2.8934
430  1 4.62116 -2.18314 6.15457
431  1 -3.72848 -4.48629 -5.47464
432  1 -5.32187 1.13406 -5.86443
433  1 -5.4561 -4.67561 3.51705
434  1 6.42648 -3.19671 3.5329
435  1 -6.05029 1.09341 5.11845
436  1 -4.95991 5.56789 -2.89791
437  1 4.91804 -2.36202 -5.85096
438  1 -6.11024 4.41132 -2.68425
439  1 3.60871 5.12522 4.97085
440  1 -2.03394 3.69096 -6.79999
441  1 -1.99253 7.28112 -2.64861
442  1 0.0972693 -5.873 5.43124
443  1 0.942375 -5.22346 -5.9856
444  1 -2.85762 -6.80488 -3.08669
445  1 -5.21331 -3.22186 5.14208
446  1 7.39056 3.05438 -0.224437
447  1 -3.42037 1.38688 7.09772
448  1 -3.53742 7.00922 1.53542
449  1 6.96529 -1.53888 -3.62169
450  1 0.840799 4.92371 -6.24901
451  1 2.70275 -3.70847 -6.55304
452  1 -5.34634 2.676 -5.31561
453  1 6.16214 -2.67425 -4.3447
454  1 -7.00066 2.01809 -3.30425
455  1 -3.97657 6.85588 1.08803
456  1 -4.855 2.84325 -5.68726
457  1 3.09857 -6.51091 3.46511
458  1 2.58279 -7.45627 -1.31656
459  1 -4.74884 -4.18716 4.89042
460  1 -0.977174 4.61098 6.46405
461  1 0.428144 -1.6707 7.81188
462  1 1.16402 -2.12807 7.62341
463  1 1.27421 -1.46299 -7.76119
464  1 6.76055 -1.48727 4.01036
465  1 -6.57088 4.28309 -1.57437
466  1 0.844893 -5.49333 -5.75409
467  1 3.58478 3.81518 -6.04928
468  1 1.67728 -7.23129 -2.98249
469  1 -7.80808 -1.40538 1.02895
470  1 5.67143 4.71574 -3.09785
471  1 6.15627 -2.83247 4.25176
472  1 2.6214 5.48577 -5.19948
473  1 -7.88105 1.3558 -0.225581
474  1 -0.964285 -3.75944 6.99548
475  1 -6.29297 -3.16309 3.79386
476  1 -0.438911 6.10182 5.15511
477  1 0.40185 6.49374 4.65509
478  1 0.667404 -4.83497 6.33858
479  1 6.4774 -4.15622 -2.18382
480  1 0.657009 -6.20644 -5.00484
481  1 4.88839 6.0445 1.88884
482  1 -4.54594 5.4631 3.67273
483  1 0.389035 5.95932 -5.32308
484  1 -7.40972 -1.06507 -2.82165
485  1 7.77426 0.312974 1.86088
486  1 3.28494 7.28422 -0.386421
487  1 0.551587 0.0302109 -7.9809
488  1 -4.79329 -5.78252 -2.75443
489  1 -5.4724 -5.83013 -0.249991
490  1 -5.00406 2.66934 5.64217
491  1 4.5486 -6.5499 -0.639548
492  1 -3.75209 3.88886 -5.89903
493  1 3.81272 -2.52417 -6.56443
494  1 7.29226 -3.25907 -0.448777
495  1 -4.48416 -2.14333 6.26885
496  1 2.87218 -5.02703 5.52083
497  1 -7.67855 2.23809 -0.175421
498  1 -4.91581 6.1909 1.22786
499  1 3.41867 7.03079 1.69728
500  1 -4.84983 -4.35234 -4.64072
501  1 5.38596 5.87398 -0.698441
502  1 -3.88287 6.23494 -3.16999
503  1 -5.54794 5.34868 2.14755
504  1 -3.06591 0.782972 7.34759
505  1 5.65485 3.66722 -4.30977
506  1 6.81361 -1.24078 -4.0044
507  1 4.33054 2.68059 6.16934
508  1 -3.25127 -7.13058 1.6075
509  1 6.82251 2.96265 -2.94552
510  1 -3.55322 7.16585 0.158657
511  1 0.000594727 -1.04649 -7.93126
512  1 6.50843 2.47341 -3.93988
513  1 -3.11548 5.23293 5.18751
514  1 6.42265 -4.76421 -0.227625
515  1 3.54782 -5.8282 -4.17673
516  1 -6.20503 4.74488 1.72734
517  1 -3.69548 3.90463 -5.9243
518  1 -3.48449 6.58023 -2.92556
519  1 4.87312 2.84328 5.67173
520  1 -3.91328 -6.22548 3.15114
521  1 4.74702 1.99835 -6.12147
522  1 -6.48254 1.0628 4.56586
523  1 -4.30834 4.97236 4.55124
524  1 -4.58867 1.94934 -6.25653
525  1 2.8448 -1.56923 -7.31058
526  1 4.80901 -0.535085 6.3708
527  1 -0.900556 7.76562 1.69829
528  1 4.56865 -6.56107 -0.282554
529  1 -4.77284 -5.52415 -3.27167
530  1 -6.76865 -3.37648 -2.60475
531  1 2.76412 -5.5364 5.0703
532  1 5.25464 -6.03046 0.149517
533  1 5.15181 -4.90645 -3.65863
534  1 0.551627 -1.09465 7.90553
535  1 1.46936 -7.55411 -2.1855
536  1 2.47529 5.91738 4.78096
537  1 3.9426 -3.64501 5.93041
538  1 -4.37194 -5.04227 4.41154
539  1 3.15948 -4.72287 5.63135
540  1 5.12566 -3.02616 -5.34509
541  1 -3.31754 -5.77853 -4.42747
542  1 -4.45687 5.08068 -4.28055
543  1 5.53787 5.18378 -2.54173
544  1 5.65929 -3.739 4.24174
545  1 5.23052 3.0035 5.25554
546  1 -3.16585 -1.18234 7.25117
547  1 -4.34409 -5.93971 -3.13826
548  1 6.52394 -4.38506 -1.4864
549  1 2.74486 7.11603 2.41408
550  1 -0.156718 4.96501 6.27089
551  1 1.02443 -5.83707 5.37393
552  1 3.2568 -5.05645 5.27499
553  1 5.73761 5.55477 -0.473643
554  1 -4.03213 6.29443 2.84992
555  1 -6.0888 4.94715 -1.56594
556  1 -4.86429 -4.69469 4.27768
557  1 5.82766 -2.4463 4.90449
558  1 -3.67477 -5.06986 -4.97921
559  1 2.50551 4.81956 -5.87318
560  1 -2.89483 -2.91932 6.86276
561  1 -3.15364 4.71003 5.64537
562  1 -5.64421 1.56507 -5.44917
563  1 5.59002 -0.522406 -5.69902
564  1 -0.993025 4.5564 6.50024
565  1 -5.57762 5.4427 1.80754
566  1 0.108747 7.15462 3.57766
567  1 -1.70394 5.68379 -5.36574
568  1 -4.08575 -4.58876 -5.12347
569  1 -0.919452 5.18826 -6.01968
570  1 0.748671 -6.97668 -3.84257
571  1 -1.19518 -1.30479 -7.80186
572  1 -1.40634 2.44686 7.48566
573  1 3.33137 2.86972 -6.68331
574  1 1.39324 -5.58791 -5.55285
575  1 -0.534883 -5.18094 6.07221
576  1 -5.36951 1.84617 5.6356
577  1 3.74838 5.44738 4.50286
578  1 5.34702 -3.33487 -4.92828
579  1 -5.14479 2.35113 -5.65715
580  1 -5.77906 -4.30207 -3.47775
581  1 -0.890789 4.88505 6.27238
582  1 3.61265 -6.59165 -2.73841
583  1 0.851612 3.58968 7.09852
584  1 4.60657 -2.23035 6.14858
585  1 4.87436 3.72979 -5.1312
586  1 4.57123 5.60875 3.4126
587  1 4.79535 4.49673 4.55894
588  1 2.32149 1.73147 7.45739
589  1 5.91652 4.05514 3.54268
590  1 4.48311 4.19938 5.12513
591  1 -6.92741 -3.77677 1.32175
592  1 4.36147 -6.27629 2.36342
593  1 -7.54797 1.29363 -2.31402
594  1 -6.67354 -1.71513 4.06474
595  1 -7.12282 -3.60728 0.503019
596  1 -5.02108 -6.09709 -1.27051
597  1 5.07966 4.29234 -4.44667
598  1 3.74938 -0.115797 7.06603
599  1 4.13145 -6.73681 -1.24361
600  1 -3.36479 -6.24272 -3.70224
601  1 -6.07993 -4.9627 1.55114
602  1 4.45611 -6.51714 1.29229
603  1 -0.744381 -4.01209 -6.88106
604  1 7.67846 -2.13012 0.70984
605  1 2.37881 -0.604728 7.61417
606  1 -5.12835 2.01429 5.80023
607  1 1.36436 1.52321 7.73423
608  1 3.48327 -5.68544 -4.42071
609  1 -1.25895 7.80129 1.24695
610  1 5.56978 -5.1418 2.55724
611  1 -4.28915 -2.52949 6.26138
612  1 3.26254 -4.86087 -5.45232
613  1 -5.11863 1.86868 -5.85727
614  1 -0.494055 -2.68815 7.51863
615  1 -5.18363 -5.19479 -3.18499
616  1 4.4932 -4.70191 4.65867
617  1 6.10474 4.60506 -2.35064
618  1 0.996871 -6.27027 4.86724
619  1 4.99203 6.01596 -1.69938
620  1 -4.61371 6.49658 0.712879
621  1 -5.23147 4.74912 3.75201
622  1 5.47085 2.53253 5.25891
623  1 -6.01336 -5.27603 -0.0556113
624  1 -2.96487 0.879276 7.3781
625  1 -5.65963 0.879093 5.58532
626  1 -3.78625 -1.54615 -6.87559
627  1 -5.29211 -4.68257 3.75062
628  1 0.38221 3.69532 -7.08509
629  1 -4.99088 -0.558998 6.22725
630  1 0.317188 6.18071 5.06934
631  1 -6.39697 4.16227 2.3988
632  1 6.47383 4.28876 -1.92252
633  1 6.22943 4.92581 -0.964658
634  1 -2.09796 -4.87062 5.98963
635  1 -4.80156 -6.28284 1.21284
636  1 -4.5549 -1.02208 6.49678
637  1 -4.50616 0.770894 -6.56507
638  1 -5.33214 -4.85744 3.46029
639  1 -5.03014 -5.08965 -3.57675
640  1 -4.56741 2.50271 -6.07249
641  1 5.50226 3.15279 4.87699
642  1 3.12338 5.38142 5.0284
643  1 7.62845 -0.928419 -2.2237
644  1 -2.74746 7.44554 -1.00766
645  1 -1.57833 -7.61201 1.88844
646  1 5.13507 -3.54818 -5.00415
647  1 7.72788 -1.29769 1.61116
648  1 -7.49216 -0.938695 2.64318
649  1 5.92627 1.87293 5.03701
650  1 -6.23547 5.00999 0.137818
651  1 -5.47757 3.23388 -4.85162
652  1 -5.76978 -3.27763 4.46842
653  1 3.1392 -6.09561 -4.12177
654  1 -5.83152 1.17313 -5.3495
655  1 -0.138201 6.05671 -5.22467
656  1 -4.79517 5.6377 -3.03687
657  1 -4.96108 5.70576 2.61382
658  1 3.09198 5.73001 -4.6483
659  1 -1.82867 6.31487 4.55833
660  1 -3.92452 6.95926 0.408412
661  1 3.8108 -5.11388 -4.82971
662  1 6.94423 -3.9019 -0.743539
663  1 4.79035 6.01276 2.21342
664  1 -4.9674 5.33898 -3.28941
665  1 -6.07013 -1.68722 -4.9302
666  1 -5.0738 0.394536 -6.17259
667  1 0.0125481 3.15508 -7.35155
668  1 -4.56754 -1.05312 -6.48294
669  1 -2.84324 4.82525 5.71253
670  1 -4.85376 -4.86579 4.09452
671  1 1.2445 4.32406 -6.61466
672  1 5.3732 4.66283 -3.65879
673  1 -5.18882 1.27634 -5.95374
674  1 5.4073 2.44436 -5.36528
675  1 -5.87075 5.41577 0.451396
676  1 -1.81041 -5.21008 -5.7946
677  1 1.64965 3.02533 7.21983
678  1 2.3728 4.74904 -5.98468
679  1 2.23103 -5.03956 5.79873
680  1 0.974277 -4.87996 -6.26393
681  1 -1.0372 4.49374 6.53686
682  1 1.85629 0.585508 7.7596
683  1 4.68649 3.55826 -5.41993
684  1 -6.60578 1.73175 4.16709
685  1 -6.22327 4.31158 2.58479
686  1 2.73428 -6.37579 3.98409
687  1 5.50681 4.10201 -4.1047
688  1 -1.05278 -3.6715 -7.02935
689  1 1.31254 6.688 -4.18903
690  1 3.13584 2.34595 -6.97589
691  1 1.26942 -5.83812 -5.32023
692  1 -6.3357 1.80544 4.53864
693  1 7.08215 -2.2935 -2.92968
694  1 -5.1936 -1.90121 5.78031
695  1 7.39684 -0.0126422 3.04739
696  1 1.31229 -6.01094 5.11336
697  1 -3.42202 7.15607 -1.03943
698  1 3.69316 -4.14306 5.76156
699  1 3.9434 6.12633 3.30419
700  1 7.2553 -0.0729838 -3.36977
701  1 -3.24605 -6.45742 -3.43
702  1 -3.46353 0.602591 7.18616
703  1 6.06894 0.226521 -5.20736
704  1 -7.28407 3.29249 0.319182
705  1 -4.8427 0.739233 -6.3247
706  1 4.18473 -5.15267 -4.4652
707  1 1.49841 -0.950802 -7.80069
708  1 -6.01634 -5.07294 -1.4384
709  1 4.34635 5.96698 -3.08292
710  1 -0.0324456 5.97856 5.31562
711  1 3.68375 -4.71065 5.31411
712  1 -7.89842 -0.167287 -1.25977
713  1 5.11091 -1.39624 5.99409
714  1 -7.7167 1.63268 1.33674
715  1 0.860988 4.20229 -6.75274
716  1 1.94065 0.864964 -7.7127
717  1 3.76941 -6.18397 3.39854
718  1 4.23389 -5.10473 4.47392
719  1 -4.55549 5.97013 2.75773
720  1 -0.47104 -7.59135 2.47984
721  1 -3.97685 -6.08415 3.34183
722  1 -4.66034 -3.76766 -5.29962
723  1 2.75568 -7.41642 1.18445
724  1 1.33485 -5.43464 -5.71689
725  1 -4.88007 3.1596 5.49562
726  1 -5.12952 -5.66887 -2.35627
727  1 1.08898 -7.92016 0.291883
728  1 -4.22906 6.0819 3.02085
729  1 -5.00213 -6.18785 0.830218
730  1 4.13597 -0.0514399 6.84771
731  1 -3.03985 4.87243 -5.56945
732  1 5.5763 5.66997 -0.869685
733  1 -7.39794 2.72913 1.34995
734  1 3.86002 -5.42528 4.43471
735  1 7.48949 -2.66597 -0.894545
736  1 5.15948 3.58628 4.9516
737  1 -5.53377 -4.191 3.97655
738  1 7.4355 0.758811 2.85264
739  1 -6.34751 4.20111 2.46167
740  1 5.28317 -1.31809 -5.86096
741  1 5.28408 3.13813 5.12159
742  1 -6.019 2.66045 4.54903
743  1 -0.958548 7.93259 -0.393924
744  1 -7.3721 0.953495 2.95684
745  1 4.02703 -1.17337 -6.81221
746  1 -4.6067 -5.34911 3.76369
747  1 5.33579 -2.12243 5.56998
748  1 3.01133 7.40887 -0.201431
749  1 -3.78298 -2.93449 -6.4092
750  1 6.03293 -5.25357 0.0616484
751  1 4.94035 -5.25103 -3.46693
752  1 3.20808 -4.91577 5.43539
753  1 2.72324 1.78608 7.30711
754  1 -7.33903 1.61319 -2.74523
755  1 5.36518 -2.89272 5.18141
756  1 4.88998 0.910592 6.26569
757  1 2.42186 0.429637 -7.61249
758  1 0.950099 -6.01003 -5.19393
759  1 -7.90434 -0.373491 1.17553
760  1 -5.875 -3.0461 4.49507
761  1 2.26092 -4.85841 5.94005
762  1 3.83142 4.89455 5.03622
763  1 7.72942 1.73618 1.11434
764  1 1.41778 3.01976 -7.27124
765  1 7.89132 -1.26358 -0.361185
766  1 2.78572 -3.30704 -6.73077
767  1 2.70241 7.42881 1.22875
768  1 6.41469 -1.6855 4.47335
769  1 -6.47463 -1.26768 -4.52461
770  1 7.399 2.22043 2.07954
771  1 -0.175597 -5.99229 5.29732
772  1 -2.31032 -6.82879 3.46843
773  1 -3.19492 6.26261 -3.81736
774  1 5.04361 -1.12396 6.10726
775  1 7.38824 -2.43324 -1.86903
776  1 -0.363593 -7.61743 2.41714
777  1 1.14372 7.91615 0.162782
778  1 -5.76901 0.580848 5.51191
779  1 6.52391 3.40216 -3.14068
780  1 -5.59405 -1.48269 5.52342
781  1 2.20238 5.29598 -5.57693
782  1 -1.35145 -4.77328 -6.2761
783  1 -4.57568 0.773932 -6.51646
784  1 -3.9148 -4.78717 -5.07518
785  1 -3.29426 -2.17147 6.95935
786  1 3.69485 5.79706 4.09172
787  1 -5.41723 -4.53999 -3.74728
788  1 5.20147 0.000830201 6.07821
789  1 6.53507 -3.14156 3.37987
790  1 -5.01541 -0.653981 -6.19823
791  1 -4.99183 -4.13214 4.69117
792  1 -6.01863 0.622008 -5.23347
793  1 -4.72143 4.0331 5.04402
794  1 -3.17833 -5.42597 -4.94541
795  1 7.44015 0.163832 2.93554
796  1 -1.43965 -7.8322 -0.764192
797  1 -4.20015 2.57669 6.30234
798  1 6.44486 2.62709 -3.94489
799  1 3.72818 -3.13783 6.34466
800  1 -4.36282 0.362664 -6.69584
801  1 -4.73677 1.64086 -6.23463
802  1 -3.65202 3.17506 6.37038
803  1 -0.465089 7.95532 0.704711
804  1 -5.47126 -4.93964 3.1089
805  1 -1.89325 6.20081 -4.68674
806  1 7.67998 -1.86495 -1.24092
807  1 -1.42974 2.34296 -7.51441
808  1 -4.61821 -5.1353 4.03743
809  1 2.53299 5.24501 -5.48396
810  1 -1.16887 -7.74611 1.62221
811  1 2.938 1.93225 -7.18572
812  1 5.5749 4.73371 3.2423
813  1 6.25159 -2.30831 4.42597
814  1 -2.10134 1.39747 7.59154
815  1 -4.85176 4.73723 4.24488
816  1 -4.39531 5.96307 -3.02045
817  1 2.22846 -2.97948 7.08214
818  1 4.68945 2.90826 -5.79233
819  1 -2.44631 -3.075 -6.96849
820  1 -1.91664 7.49967 -2.02026
821  1 5.62076 -0.263518 -5.68662
822  1 -5.63399 -0.597579 5.6481
823  1 6.16565 -3.78583 -3.41355
824  1 1.57354 2.87258 7.29878
825  1 1.09314 3.82132 6.9428
826  1 -0.676107 6.78521 4.18375
827  1 4.08002 0.474205 -6.86503
828  1 3.99682 -5.33578 4.42209
829  1 5.28206 1.77418 -5.74039
830  1 -4.73849 -4.93944 4.14109
831  1 -0.167234 -7.62027 -2.4297
832  1 0.190521 -6.34903 4.86349
833  1 -0.790899 5.89894 -5.34574
834  1 5.64054 0.880534 5.60437
835  1 2.51596 -7.4941 -1.22816
836  1 -0.796646 2.36473 -7.60088
837  1 -4.4738 -3.07964 5.87375
838  1 -2.51892 5.98767 -4.66936
839  1 5.77433 4.70601 2.91728
840  1 -4.95276 5.28825 3.39184
841  1 6.26368 -0.475322 4.95382
842  1 -2.63185 5.58024 5.09258
843  1 -5.80587 -1.11607 5.38945
844  1 -5.56657 -5.62422 -1.17531
845  1 6.44822 4.72205 0.350329
846  1 -2.49378 -3.46498 -6.76572
847  1 6.68918 0.343059 -4.37461
848  1 0.793211 7.41658 -2.89226
849  1 2.96352 6.02424 -4.35041
850  1 -1.93036 6.4301 -4.35058
851  1 -5.11782 4.6714 3.99825
852  1 -5.42146 -5.33004 2.48968
853  1 5.35985 -4.24186 -4.15676
854  1 6.25215 -3.56397 -3.49409
855  1 -2.9972 -4.40724 -5.96599
856  1 7.40851 1.03497 -2.83599
857  1 5.08492 -3.64422 4.98631
858  1 -4.59289 5.24123 3.92872
859  1 6.71137 -4.29512 -0.713736
860  1 6.41183 4.1304 -2.41417
861  1 -3.27629 5.67745 -4.58612
862  1 4.85385 -5.08526 -3.81841
863  1 2.26211 -6.96264 -3.2256
864  1 4.88816 6.24743 1.03707
865  1 -5.59602 -4.47312 3.56031
866  1 -4.14371 6.36705 -2.50805
867  1 1.2336 7.88769 0.512353
868  1 -1.04631 -6.58166 -4.42571
869  1 -5.63115 5.05258 2.60032
870  1 3.04228 7.32305 -1.05714
871  1 5.34253 5.9273 -0.569642
872  1 -5.70631 5.60277 -0.21693
873  1 -7.56544 2.58569 -0.279984
874  1 -1.50337 -4.72836 -6.27555
875  1 -7.97694 -0.297485 0.529048
876  1 6.95688 3.92142 0.473617
877  1 -6.46354 -4.44613 -1.5667
878  1 4.47848 6.16875 2.42688
879  1 6.22315 4.75749 -1.62438
880  1 1.58841 -1.85995 -7.61693
881  1 -6.39744 -1.7975 -4.45441
882  1 -0.411027 -1.70935 -7.80443
883  1 7.06926 1.70083 3.33657
884  1 -0.679513 -5.88123 -5.38047
885  1 4.89277 -6.14694 1.50864
886  1 -2.54311 6.50474 -3.9014
887  1 4.72034 6.45614 -0.191184
888  1 -4.30809 2.25477 -6.35267
889  1 4.69288 0.287653 6.47256
890  1 -4.26299 -6.5063 -1.86948
891  1 -1.61237 -6.57884 4.25666
892  1 1.71577 2.13016 -7.51788
893  1 4.4893 1.35488 6.48155
894  1 -1.18662 -6.41942 4.62417
895  1 0.331026 4.57719 6.55284
896  1 -4.90086 -4.30563 4.63067
897  1 -1.58503 -6.24354 4.74404
898  1 6.98561 -3.87855 -0.397651
899  1 -4.87782 -3.76707 5.10059
900  1 5.94482 -1.70923 -5.07322
901  1 -2.56841 5.06567 -5.63403
902  1 -6.03054 -2.44262 4.65469
903  1 -3.31736 -6.95442 -2.15201
904  1 -7.60125 -0.960279 -2.30194
905  1 4.69293 5.37915 -3.61125
906  1 5.13978 -5.77395 -2.06014
907  1 7.04845 -1.01449 -3.64557
908  1 2.60748 -5.15136 5.53755
909  1 -6.29461 -2.08585 4.47517
910  1 -6.13039 -2.26788 -4.61249
911  1 -4.68498 2.72689 5.88346
912  1 -2.83547 6.15899 -4.24581
913  1 -4.92214 -5.74335 -2.60509
914  1 0.154244 -6.43596 4.74917
915  1 4.79155 -5.70801 2.90857
916  1 -5.13082 4.93458 3.65028
917  1 -2.50277 4.29885 -6.26546
918  1 5.71909 -5.1407 2.20572
919  1 -0.406168 -3.15167 7.3418
920  1 -5.38543 -3.44869 -4.80663
921  1 -0.720964 0.210048 -7.96468