Created by Be-solid.pl

20160 atoms
2 atom types

0.000000 64.288000 xlo xhi
0.000000 63.628618 ylo yhi
0.000000 63.225000 zlo zhi

Masses

1 9.012182
2 1.000000

Atoms

1 1 4.000000 0 0.000000 1.148000 1.988394 1.756250
2 1 4.000000 0 0.000000 3.444000 5.965183 1.756250
3 1 4.000000 0 0.000000 1.148000 7.290779 5.268750
4 1 4.000000 0 0.000000 3.444000 3.313991 5.268750
5 1 4.000000 0 0.000000 1.148000 1.988394 8.781250
6 1 4.000000 0 0.000000 3.444000 5.965183 8.781250
7 1 4.000000 0 0.000000 1.148000 7.290779 12.293750
8 1 4.000000 0 0.000000 3.444000 3.313991 12.293750
9 1 4.000000 0 0.000000 1.148000 1.988394 15.806250
10 1 4.000000 0 0.000000 3.444000 5.965183 15.806250
11 1 4.000000 0 0.000000 1.148000 7.290779 19.318750
12 1 4.000000 0 0.000000 3.444000 3.313991 19.318750
13 1 4.000000 0 0.000000 1.148000 1.988394 22.831250
14 1 4.000000 0 0.000000 3.444000 5.965183 22.831250
15 1 4.000000 0 0.000000 1.148000 7.290779 26.343750
16 1 4.000000 0 0.000000 3.444000 3.313991 26.343750
17 1 4.000000 0 0.000000 1.148000 1.988394 29.856250
18 1 4.000000 0 0.000000 3.444000 5.965183 29.856250
19 1 4.000000 0 0.000000 1.148000 7.290779 33.368750
20 1 4.000000 0 0.000000 3.444000 3.313991 33.368750
21 1 4.000000 0 0.000000 1.148000 1.988394 36.881250
22 1 4.000000 0 0.000000 3.444000 5.965183 36.881250
23 1 4.000000 0 0.000000 1.148000 7.290779 40.393750
24 1 4.000000 0 0.000000 3.444000 3.313991 40.393750
25 1 4.000000 0 0.000000 1.148000 1.988394 43.906250
26 1 4.000000 0 0.000000 3.444000 5.965183 43.906250
27 1 4.000000 0 0.000000 1.148000 7.290779 47.418750
28 1 4.000000 0 0.000000 3.444000 3.313991 47.418750
29 1 4.000000 0 0.000000 1.148000 1.988394 50.931250
30 1 4.000000 0 0.000000 3.444000 5.965183 50.931250
31 1 4.000000 0 0.000000 1.148000 7.290779 54.443750
32 1 4.000000 0 0.000000 3.444000 3.313991 54.443750
33 1 4.000000 0 0.000000 1.148000 1.988394 57.956250
34 1 4.000000 0 0.000000 3.444000 5.965183 57.956250
35 1 4.000000 0 0.000000 1.148000 7.290779 61.468750
36 1 4.000000 0 0.000000 3.444000 3.313991 61.468750
37 1 4.000000 0 0.000000 1.148000 9.941972 1.756250
38 1 4.000000 0 0.000000 3.444000 13.918760 1.756250
39 1 4.000000 0 0.000000 1.148000 15.244357 5.268750
40 1 4.000000 0 0.000000 3.444000 11.267568 5.268750
41 1 4.000000 0 0.000000 1.148000 9.941972 8.781250
42 1 4.000000 0 0.000000 3.444000 13.918760 8.781250
43 1 4.000000 0 0.000000 1.148000 15.244357 12.293750
44 1 4.000000 0 0.000000 3.444000 11.267568 12.293750
45 1 4.000000 0 0.000000 1.148000 9.941972 15.806250
46 1 4.000000 0 0.000000 3.444000 13.918760 15.806250
47 1 4.000000 0 0.000000 1.148000 15.244357 19.318750
48 1 4.000000 0 0.000000 3.444000 11.267568 19.318750
49 1 4.000000 0 0.000000 1.148000 9.941972 22.831250
50 1 4.000000 0 0.000000 3.444000 13.918760 22.831250
51 1 4.000000 0 0.000000 1.148000 15.244357 26.343750
52 1 4.000000 0 0.000000 3.444000 11.267568 26.343750
53 1 4.000000 0 0.000000 1.148000 9.941972 29.856250
54 1 4.000000 0 0.000000 3.444000 13.918760 29.856250
55 1 4.000000 0 0.000000 1.148000 15.244357 33.368750
56 1 4.000000 0 0.000000 3.444000 11.267568 33.368750
57 1 4.000000 0 0.000000 1.148000 9.941972 36.881250
58 1 4.000000 0 0.000000 3.444000 13.918760 36.881250
59 1 4.000000 0 0.000000 1.148000 15.244357 40.393750
60 1 4.000000 0 0.000000 3.444000 11.267568 40.393750
61 1 4.000000 0 0.000000 1.148000 9.941972 43.906250
62 1 4.000000 0 0.000000 3.444000 13.918760 43.906250
63 1 4.000000 0 0.000000 1.148000 15.244357 47.418750
64 1 4.000000 0 0.000000 3.444000 11.267568 47.418750
65 1 4.000000 0 0.000000 1.148000 9.941972 50.931250
66 1 4.000000 0 0.000000 3.444000 13.918760 50.931250
67 1 4.000000 0 0.000000 1.148000 15.244357 54.443750
68 1 4.000000 0 0.000000 3.444000 11.267568 54.443750
69 1 4.000000 0 0.000000 1.148000 9.941972 57.956250
70 1 4.000000 0 0.000000 3.444000 13.918760 57.956250
71 1 4.000000 0 0.000000 1.148000 15.244357 61.468750
72 1 4.000000 0 0.000000 3.444000 11.267568 61.468750
73 1 4.000000 0 0.000000 1.148000 17.895549 1.756250
74 1 4.000000 0 0.000000 3.444000 21.872338 1.756250
75 1 4.000000 0 0.000000 1.148000 23.197934 5.268750
76 1 4.000000 0 0.000000 3.444000 19.221145 5.268750
77 1 4.000000 0 0.000000 1.148000 17.895549 8.781250
78 1 4.000000 0 0.000000 3.444000 21.872338 8.781250
79 1 4.000000 0 0.000000 1.148000 23.197934 12.293750
80 1 4.000000 0 0.000000 3.444000 19.221145 12.293750
81 1 4.000000 0 0.000000 1.148000 17.895549 15.806250
82 1 4.000000 0 0.000000 3.444000 21.872338 15.806250
83 1 4.000000 0 0.000000 1.148000 23.197934 19.318750
84 1 4.000000 0 0.000000 3.444000 19.221145 19.318750
85 1 4.000000 0 0.000000 1.148000 17.895549 22.831250
86 1 4.000000 0 0.000000 3.444000 21.872338 22.831250
87 1 4.000000 0 0.000000 1.148000 23.197934 26.343750
88 1 4.000000 0 0.000000 3.444000 19.221145 26.343750
89 1 4.000000 0 0.000000 1.148000 17.895549 29.856250
90 1 4.000000 0 0.000000 3.444000 21.872338 29.856250
91 1 4.000000 0 0.000000 1.148000 23.197934 33.368750
92 1 4.000000 0 0.000000 3.444000 19.221145 33.368750
93 1 4.000000 0 0.000000 1.148000 17.895549 36.881250
94 1 4.000000 0 0.000000 3.444000 21.872338 36.881250
95 1 4.000000 0 0.000000 1.148000 23.197934 40.393750
96 1 4.000000 0 0.000000 3.444000 19.221145 40.393750
97 1 4.000000 0 0.000000 1.148000 17.895549 43.906250
98 1 4.000000 0 0.000000 3.444000 21.872338 43.906250
99 1 4.000000 0 0.000000 1.148000 23.197934 47.418750
100 1 4.000000 0 0.000000 3.444000 19.221145 47.418750
101 1 4.000000 0 0.000000 1.148000 17.895549 50.931250
102 1 4.000000 0 0.000000 3.444000 21.872338 50.931250
103 1 4.000000 0 0.000000 1.148000 23.197934 54.443750
104 1 4.000000 0 0.000000 3.444000 19.221145 54.443750
105 1 4.000000 0 0.000000 1.148000 17.895549 57.956250
106 1 4.000000 0 0.000000 3.444000 21.872338 57.956250
107 1 4.000000 0 0.000000 1.148000 23.197934 61.468750
108 1 4.000000 0 0.000000 3.444000 19.221145 61.468750
109 1 4.000000 0 0.000000 1.148000 25.849126 1.756250
110 1 4.000000 0 0.000000 3.444000 29.825915 1.756250
111 1 4.000000 0 0.000000 1.148000 31.151511 5.268750
112 1 4.000000 0 0.000000 3.444000 27.174722 5.268750
113 1 4.000000 0 0.000000 1.148000 25.849126 8.781250
114 1 4.000000 0 0.000000 3.444000 29.825915 8.781250
115 1 4.000000 0 0.000000 1.148000 31.151511 12.293750
116 1 4.000000 0 0.000000 3.444000 27.174722 12.293750
117 1 4.000000 0 0.000000 1.148000 25.849126 15.806250
118 1 4.000000 0 0.000000 3.444000 29.825915 15.806250
119 1 4.000000 0 0.000000 1.148000 31.151511 19.318750
120 1 4.000000 0 0.000000 3.444000 27.174722 19.318750
121 1 4.000000 0 0.000000 1.148000 25.849126 22.831250
122 1 4.000000 0 0.000000 3.444000 29.825915 22.831250
123 1 4.000000 0 0.000000 1.148000 31.151511 26.343750
124 1 4.000000 0 0.000000 3.444000 27.174722 26.343750
125 1 4.000000 0 0.000000 1.148000 25.849126 29.856250
126 1 4.000000 0 0.000000 3.444000 29.825915 29.856250
127 1 4.000000 0 0.000000 1.148000 31.151511 33.368750
128 1 4.000000 0 0.000000 3.444000 27.174722 33.368750
129 1 4.000000 0 0.000000 1.148000 25.849126 36.881250
130 1 4.000000 0 0.000000 3.444000 29.825915 36.881250
131 1 4.000000 0 0.000000 1.148000 31.151511 40.393750
132 1 4.000000 0 0.000000 3.444000 27.174722 40.393750
133 1 4.000000 0 0.000000 1.148000 25.849126 43.906250
134 1 4.000000 0 0.000000 3.444000 29.825915 43.906250
135 1 4.000000 0 0.000000 1.148000 31.151511 47.418750
136 1 4.000000 0 0.000000 3.444000 27.174722 47.418750
137 1 4.000000 0 0.000000 1.148000 25.849126 50.931250
138 1 4.000000 0 0.000000 3.444000 29.825915 50.931250
139 1 4.000000 0 0.000000 1.148000 31.151511 54.443750
140 1 4.000000 0 0.000000 3.444000 27.174722 54.443750
141 1 4.000000 0 0.000000 1.148000 25.849126 57.956250
142 1 4.000000 0 0.000000 3.444000 29.825915 57.956250
143 1 4.000000 0 0.000000 1.148000 31.151511 61.468750
144 1 4.000000 0 0.000000 3.444000 27.174722 61.468750
145 1 4.000000 0 0.000000 1.148000 33.802704 1.756250
146 1 4.000000 0 0.000000 3.444000 37.779492 1.756250
147 1 4.000000 0 0.000000 1.148000 39.105088 5.268750
148 1 4.000000 0 0.000000 3.444000 35.128300 5.268750
149 1 4.000000 0 0.000000 1.148000 33.802704 8.781250
150 1 4.000000 0 0.000000 3.444000 37.779492 8.781250
151 1 4.000000 0 0.000000 1.148000 39.105088 12.293750
152 1 4.000000 0 0.000000 3.444000 35.128300 12.293750
153 1 4.000000 0 0.000000 1.148000 33.802704 15.806250
154 1 4.000000 0 0.000000 3.444000 37.779492 15.806250
155 1 4.000000 0 0.000000 1.148000 39.105088 19.318750
156 1 4.000000 0 0.000000 3.444000 35.128300 19.318750
157 1 4.000000 0 0.000000 1.148000 33.802704 22.831250
158 1 4.000000 0 0.000000 3.444000 37.779492 22.831250
159 1 4.000000 0 0.000000 1.148000 39.105088 26.343750
160 1 4.000000 0 0.000000 3.444000 35.128300 26.343750
161 1 4.000000 0 0.000000 1.148000 33.802704 29.856250
162 1 4.000000 0 0.000000 3.444000 37.779492 29.856250
163 1 4.000000 0 0.000000 1.148000 39.105088 33.368750
164 1 4.000000 0 0.000000 3.444000 35.128300 33.368750
165 1 4.000000 0 0.000000 1.148000 33.802704 36.881250
166 1 4.000000 0 0.000000 3.444000 37.779492 36.881250
167 1 4.000000 0 0.000000 1.148000 39.105088 40.393750
168 1 4.000000 0 0.000000 3.444000 35.128300 40.393750
169 1 4.000000 0 0.000000 1.148000 33.802704 43.906250
170 1 4.000000 0 0.000000 3.444000 37.779492 43.906250
171 1 4.000000 0 0.000000 1.148000 39.105088 47.418750
172 1 4.000000 0 0.000000 3.444000 35.128300 47.418750
173 1 4.000000 0 0.000000 1.148000 33.802704 50.931250
174 1 4.000000 0 0.000000 3.444000 37.779492 50.931250
175 1 4.000000 0 0.000000 1.148000 39.105088 54.443750
176 1 4.000000 0 0.000000 3.444000 35.128300 54.443750
177 1 4.000000 0 0.000000 1.148000 33.802704 57.956250
178 1 4.000000 0 0.000000 3.444000 37.779492 57.956250
179 1 4.000000 0 0.000000 1.148000 39.105088 61.468750
180 1 4.000000 0 0.000000 3.444000 35.128300 61.468750
181 1 4.000000 0 0.000000 1.148000 41.756281 1.756250
182 1 4.000000 0 0.000000 3.444000 45.733070 1.756250
183 1 4.000000 0 0.000000 1.148000 47.058666 5.268750
184 1 4.000000 0 0.000000 3.444000 43.081877 5.268750
185 1 4.000000 0 0.000000 1.148000 41.756281 8.781250
186 1 4.000000 0 0.000000 3.444000 45.733070 8.781250
187 1 4.000000 0 0.000000 1.148000 47.058666 12.293750
188 1 4.000000 0 0.000000 3.444000 43.081877 12.293750
189 1 4.000000 0 0.000000 1.148000 41.756281 15.806250
190 1 4.000000 0 0.000000 3.444000 45.733070 15.806250
191 1 4.000000 0 0.000000 1.148000 47.058666 19.318750
192 1 4.000000 0 0.000000 3.444000 43.081877 19.318750
193 1 4.000000 0 0.000000 1.148000 41.756281 22.831250
194 1 4.000000 0 0.000000 3.444000 45.733070 22.831250
195 1 4.000000 0 0.000000 1.148000 47.058666 26.343750
196 1 4.000000 0 0.000000 3.444000 43.081877 26.343750
197 1 4.000000 0 0.000000 1.148000 41.756281 29.856250
198 1 4.000000 0 0.000000 3.444000 45.733070 29.856250
199 1 4.000000 0 0.000000 1.148000 47.058666 33.368750
200 1 4.000000 0 0.000000 3.444000 43.081877 33.368750
201 1 4.000000 0 0.000000 1.148000 41.756281 36.881250
202 1 4.000000 0 0.000000 3.444000 45.733070 36.881250
203 1 4.000000 0 0.000000 1.148000 47.058666 40.393750
204 1 4.000000 0 0.000000 3.444000 43.081877 40.393750
205 1 4.000000 0 0.000000 1.148000 41.756281 43.906250
206 1 4.000000 0 0.000000 3.444000 45.733070 43.906250
207 1 4.000000 0 0.000000 1.148000 47.058666 47.418750
208 1 4.000000 0 0.000000 3.444000 43.081877 47.418750
209 1 4.000000 0 0.000000 1.148000 41.756281 50.931250
210 1 4.000000 0 0.000000 3.444000 45.733070 50.931250
211 1 4.000000 0 0.000000 1.148000 47.058666 54.443750
212 1 4.000000 0 0.000000 3.444000 43.081877 54.443750
213 1 4.000000 0 0.000000 1.148000 41.756281 57.956250
214 1 4.000000 0 0.000000 3.444000 45.733070 57.956250
215 1 4.000000 0 0.000000 1.148000 47.058666 61.468750
216 1 4.000000 0 0.000000 3.444000 43.081877 61.468750
217 1 4.000000 0 0.000000 1.148000 49.709858 1.756250
218 1 4.000000 0 0.000000 3.444000 53.686647 1.756250
219 1 4.000000 0 0.000000 1.148000 55.012243 5.268750
220 1 4.000000 0 0.000000 3.444000 51.035454 5.268750
221 1 4.000000 0 0.000000 1.148000 49.709858 8.781250
222 1 4.000000 0 0.000000 3.444000 53.686647 8.781250
223 1 4.000000 0 0.000000 1.148000 55.012243 12.293750
224 1 4.000000 0 0.000000 3.444000 51.035454 12.293750
225 1 4.000000 0 0.000000 1.148000 49.709858 15.806250
226 1 4.000000 0 0.000000 3.444000 53.686647 15.806250
227 1 4.000000 0 0.000000 1.148000 55.012243 19.318750
228 1 4.000000 0 0.000000 3.444000 51.035454 19.318750
229 1 4.000000 0 0.000000 1.148000 49.709858 22.831250
230 1 4.000000 0 0.000000 3.444000 53.686647 22.831250
231 1 4.000000 0 0.000000 1.148000 55.012243 26.343750
232 1 4.000000 0 0.000000 3.444000 51.035454 26.343750
233 1 4.000000 0 0.000000 1.148000 49.709858 29.856250
234 1 4.000000 0 0.000000 3.444000 53.686647 29.856250
235 1 4.000000 0 0.000000 1.148000 55.012243 33.368750
236 1 4.000000 0 0.000000 3.444000 51.035454 33.368750
237 1 4.000000 0 0.000000 1.148000 49.709858 36.881250
238 1 4.000000 0 0.000000 3.444000 53.686647 36.881250
239 1 4.000000 0 0.000000 1.148000 55.012243 40.393750
240 1 4.000000 0 0.000000 3.444000 51.035454 40.393750
241 1 4.000000 0 0.000000 1.148000 49.709858 43.906250
242 1 4.000000 0 0.000000 3.444000 53.686647 43.906250
243 1 4.000000 0 0.000000 1.148000 55.012243 47.418750
244 1 4.000000 0 0.000000 3.444000 51.035454 47.418750
245 1 4.000000 0 0.000000 1.148000 49.709858 50.931250
246 1 4.000000 0 0.000000 3.444000 53.686647 50.931250
247 1 4.000000 0 0.000000 1.148000 55.012243 54.443750
248 1 4.000000 0 0.000000 3.444000 51.035454 54.443750
249 1 4.000000 0 0.000000 1.148000 49.709858 57.956250
250 1 4.000000 0 0.000000 3.444000 53.686647 57.956250
251 1 4.000000 0 0.000000 1.148000 55.012243 61.468750
252 1 4.000000 0 0.000000 3.444000 51.035454 61.468750
253 1 4.000000 0 0.000000 1.148000 57.663435 1.756250
254 1 4.000000 0 0.000000 3.444000 61.640224 1.756250
255 1 4.000000 0 0.000000 1.148000 62.965820 5.268750
256 1 4.000000 0 0.000000 3.444000 58.989032 5.268750
257 1 4.000000 0 0.000000 1.148000 57.663435 8.781250
258 1 4.000000 0 0.000000 3.444000 61.640224 8.781250
259 1 4.000000 0 0.000000 1.148000 62.965820 12.293750
260 1 4.000000 0 0.000000 3.444000 58.989032 12.293750
261 1 4.000000 0 0.000000 1.148000 57.663435 15.806250
262 1 4.000000 0 0.000000 3.444000 61.640224 15.806250
263 1 4.000000 0 0.000000 1.148000 62.965820 19.318750
264 1 4.000000 0 0.000000 3.444000 58.989032 19.318750
265 1 4.000000 0 0.000000 1.148000 57.663435 22.831250
266 1 4.000000 0 0.000000 3.444000 61.640224 22.831250
267 1 4.000000 0 0.000000 1.148000 62.965820 26.343750
268 1 4.000000 0 0.000000 3.444000 58.989032 26.343750
269 1 4.000000 0 0.000000 1.148000 57.663435 29.856250
270 1 4.000000 0 0.000000 3.444000 61.640224 29.856250
271 1 4.000000 0 0.000000 1.148000 62.965820 33.368750
272 1 4.000000 0 0.000000 3.444000 58.989032 33.368750
273 1 4.000000 0 0.000000 1.148000 57.663435 36.881250
274 1 4.000000 0 0.000000 3.444000 61.640224 36.881250
275 1 4.000000 0 0.000000 1.148000 62.965820 40.393750
276 1 4.000000 0 0.000000 3.444000 58.989032 40.393750
277 1 4.000000 0 0.000000 1.148000 57.663435 43.906250
278 1 4.000000 0 0.000000 3.444000 61.640224 43.906250
279 1 4.000000 0 0.000000 1.148000 62.965820 47.418750
280 1 4.000000 0 0.000000 3.444000 58.989032 47.418750
281 1 4.000000 0 0.000000 1.148000 57.663435 50.931250
282 1 4.000000 0 0.000000 3.444000 61.640224 50.931250
283 1 4.000000 0 0.000000 1.148000 62.965820 54.443750
284 1 4.000000 0 0.000000 3.444000 58.989032 54.443750
285 1 4.000000 0 0.000000 1.148000 57.663435 57.956250
286 1 4.000000 0 0.000000 3.444000 61.640224 57.956250
287 1 4.000000 0 0.000000 1.148000 62.965820 61.468750
288 1 4.000000 0 0.000000 3.444000 58.989032 61.468750
289 1 4.000000 0 0.000000 5.740000 1.988394 1.756250
290 1 4.000000 0 0.000000 8.036000 5.965183 1.756250
291 1 4.000000 0 0.000000 5.740000 7.290779 5.268750
292 1 4.000000 0 0.000000 8.036000 3.313991 5.268750
293 1 4.000000 0 0.000000 5.740000 1.988394 8.781250
294 1 4.000000 0 0.000000 8.036000 5.965183 8.781250
295 1 4.000000 0 0.000000 5.740000 7.290779 12.293750
296 1 4.000000 0 0.000000 8.036000 3.313991 12.293750
297 1 4.000000 0 0.000000 5.740000 1.988394 15.806250
298 1 4.000000 0 0.000000 8.036000 5.965183 15.806250
299 1 4.000000 0 0.000000 5.740000 7.290779 19.318750
300 1 4.000000 0 0.000000 8.036000 3.313991 19.318750
301 1 4.000000 0 0.000000 5.740000 1.988394 22.831250
302 1 4.000000 0 0.000000 8.036000 5.965183 22.831250
303 1 4.000000 0 0.000000 5.740000 7.290779 26.343750
304 1 4.000000 0 0.000000 8.036000 3.313991 26.343750
305 1 4.000000 0 0.000000 5.740000 1.988394 29.856250
306 1 4.000000 0 0.000000 8.036000 5.965183 29.856250
307 1 4.000000 0 0.000000 5.740000 7.290779 33.368750
308 1 4.000000 0 0.000000 8.036000 3.313991 33.368750
309 1 4.000000 0 0.000000 5.740000 1.988394 36.881250
310 1 4.000000 0 0.000000 8.036000 5.965183 36.881250
311 1 4.000000 0 0.000000 5.740000 7.290779 40.393750
312 1 4.000000 0 0.000000 8.036000 3.313991 40.393750
313 1 4.000000 0 0.000000 5.740000 1.988394 43.906250
314 1 4.000000 0 0.000000 8.036000 5.965183 43.906250
315 1 4.000000 0 0.000000 5.740000 7.290779 47.418750
316 1 4.000000 0 0.000000 8.036000 3.313991 47.418750
317 1 4.000000 0 0.000000 5.740000 1.988394 50.931250
318 1 4.000000 0 0.000000 8.036000 5.965183 50.931250
319 1 4.000000 0 0.000000 5.740000 7.290779 54.443750
320 1 4.000000 0 0.000000 8.036000 3.313991 54.443750
321 1 4.000000 0 0.000000 5.740000 1.988394 57.956250
322 1 4.000000 0 0.000000 8.036000 5.965183 57.956250
323 1 4.000000 0 0.000000 5.740000 7.290779 61.468750
324 1 4.000000 0 0.000000 8.036000 3.313991 61.468750
325 1 4.000000 0 0.000000 5.740000 9.941972 1.756250
326 1 4.000000 0 0.000000 8.036000 13.918760 1.756250
327 1 4.000000 0 0.000000 5.740000 15.244357 5.268750
328 1 4.000000 0 0.000000 8.036000 11.267568 5.268750
329 1 4.000000 0 0.000000 5.740000 9.941972 8.781250
330 1 4.000000 0 0.000000 8.036000 13.918760 8.781250
331 1 4.000000 0 0.000000 5.740000 15.244357 12.293750
332 1 4.000000 0 0.000000 8.036000 11.267568 12.293750
333 1 4.000000 0 0.000000 5.740000 9.941972 15.806250
334 1 4.000000 0 0.000000 8.036000 13.918760 15.806250
335 1 4.000000 0 0.000000 5.740000 15.244357 19.318750
336 1 4.000000 0 0.000000 8.036000 11.267568 19.318750
337 1 4.000000 0 0.000000 5.740000 9.941972 22.831250
338 1 4.000000 0 0.000000 8.036000 13.918760 22.831250
339 1 4.000000 0 0.000000 5.740000 15.244357 26.343750
340 1 4.000000 0 0.000000 8.036000 11.267568 26.343750
341 1 4.000000 0 0.000000 5.740000 9.941972 29.856250
342 1 4.000000 0 0.000000 8.036000 13.918760 29.856250
343 1 4.000000 0 0.000000 5.740000 15.244357 33.368750
344 1 4.000000 0 0.000000 8.036000 11.267568 33.368750
345 1 4.000000 0 0.000000 5.740000 9.941972 36.881250
346 1 4.000000 0 0.000000 8.036000 13.918760 36.881250
347 1 4.000000 0 0.000000 5.740000 15.244357 40.393750
348 1 4.000000 0 0.000000 8.036000 11.267568 40.393750
349 1 4.000000 0 0.000000 5.740000 9.941972 43.906250
350 1 4.000000 0 0.000000 8.036000 13.918760 43.906250
351 1 4.000000 0 0.000000 5.740000 15.244357 47.418750
352 1 4.000000 0 0.000000 8.036000 11.267568 47.418750
353 1 4.000000 0 0.000000 5.740000 9.941972 50.931250
354 1 4.000000 0 0.000000 8.036000 13.918760 50.931250
355 1 4.000000 0 0.000000 5.740000 15.244357 54.443750
356 1 4.000000 0 0.000000 8.036000 11.267568 54.443750
357 1 4.000000 0 0.000000 5.740000 9.941972 57.956250
358 1 4.000000 0 0.000000 8.036000 13.918760 57.956250
359 1 4.000000 0 0.000000 5.740000 15.244357 61.468750
360 1 4.000000 0 0.000000 8.036000 11.267568 61.468750
361 1 4.000000 0 0.000000 5.740000 17.895549 1.756250
362 1 4.000000 0 0.000000 8.036000 21.872338 1.756250
363 1 4.000000 0 0.000000 5.740000 23.197934 5.268750
364 1 4.000000 0 0.000000 8.036000 19.221145 5.268750
365 1 4.000000 0 0.000000 5.740000 17.895549 8.781250
366 1 4.000000 0 0.000000 8.036000 21.872338 8.781250
367 1 4.000000 0 0.000000 5.740000 23.197934 12.293750
368 1 4.000000 0 0.000000 8.036000 19.221145 12.293750
369 1 4.000000 0 0.000000 5.740000 17.895549 15.806250
370 1 4.000000 0 0.000000 8.036000 21.872338 15.806250
371 1 4.000000 0 0.000000 5.740000 23.197934 19.318750
372 1 4.000000 0 0.000000 8.036000 19.221145 19.318750
373 1 4.000000 0 0.000000 5.740000 17.895549 22.831250
374 1 4.000000 0 0.000000 8.036000 21.872338 22.831250
375 1 4.000000 0 0.000000 5.740000 23.197934 26.343750
376 1 4.000000 0 0.000000 8.036000 19.221145 26.343750
377 1 4.000000 0 0.000000 5.740000 17.895549 29.856250
378 1 4.000000 0 0.000000 8.036000 21.872338 29.856250
379 1 4.000000 0 0.000000 5.740000 23.197934 33.368750
380 1 4.000000 0 0.000000 8.036000 19.221145 33.368750
381 1 4.000000 0 0.000000 5.740000 17.895549 36.881250
382 1 4.000000 0 0.000000 8.036000 21.872338 36.881250
383 1 4.000000 0 0.000000 5.740000 23.197934 40.393750
384 1 4.000000 0 0.000000 8.036000 19.221145 40.393750
385 1 4.000000 0 0.000000 5.740000 17.895549 43.906250
386 1 4.000000 0 0.000000 8.036000 21.872338 43.906250
387 1 4.000000 0 0.000000 5.740000 23.197934 47.418750
388 1 4.000000 0 0.000000 8.036000 19.221145 47.418750
389 1 4.000000 0 0.000000 5.740000 17.895549 50.931250
390 1 4.000000 0 0.000000 8.036000 21.872338 50.931250
391 1 4.000000 0 0.000000 5.740000 23.197934 54.443750
392 1 4.000000 0 0.000000 8.036000 19.221145 54.443750
393 1 4.000000 0 0.000000 5.740000 17.895549 57.956250
394 1 4.000000 0 0.000000 8.036000 21.872338 57.956250
395 1 4.000000 0 0.000000 5.740000 23.197934 61.468750
396 1 4.000000 0 0.000000 8.036000 19.221145 61.468750
397 1 4.000000 0 0.000000 5.740000 25.849126 1.756250
398 1 4.000000 0 0.000000 8.036000 29.825915 1.756250
399 1 4.000000 0 0.000000 5.740000 31.151511 5.268750
400 1 4.000000 0 0.000000 8.036000 27.174722 5.268750
401 1 4.000000 0 0.000000 5.740000 25.849126 8.781250
402 1 4.000000 0 0.000000 8.036000 29.825915 8.781250
403 1 4.000000 0 0.000000 5.740000 31.151511 12.293750
404 1 4.000000 0 0.000000 8.036000 27.174722 12.293750
405 1 4.000000 0 0.000000 5.740000 25.849126 15.806250
406 1 4.000000 0 0.000000 8.036000 29.825915 15.806250
407 1 4.000000 0 0.000000 5.740000 31.151511 19.318750
408 1 4.000000 0 0.000000 8.036000 27.174722 19.318750
409 1 4.000000 0 0.000000 5.740000 25.849126 22.831250
410 1 4.000000 0 0.000000 8.036000 29.825915 22.831250
411 1 4.000000 0 0.000000 5.740000 31.151511 26.343750
412 1 4.000000 0 0.000000 8.036000 27.174722 26.343750
413 1 4.000000 0 0.000000 5.740000 25.849126 29.856250
414 1 4.000000 0 0.000000 8.036000 29.825915 29.856250
415 1 4.000000 0 0.000000 5.740000 31.151511 33.368750
416 1 4.000000 0 0.000000 8.036000 27.174722 33.368750
417 1 4.000000 0 0.000000 5.740000 25.849126 36.881250
418 1 4.000000 0 0.000000 8.036000 29.825915 36.881250
419 1 4.000000 0 0.000000 5.740000 31.151511 40.393750
420 1 4.000000 0 0.000000 8.036000 27.174722 40.393750
421 1 4.000000 0 0.000000 5.740000 25.849126 43.906250
422 1 4.000000 0 0.000000 8.036000 29.825915 43.906250
423 1 4.000000 0 0.000000 5.740000 31.151511 47.418750
424 1 4.000000 0 0.000000 8.036000 27.174722 47.418750
425 1 4.000000 0 0.000000 5.740000 25.849126 50.931250
426 1 4.000000 0 0.000000 8.036000 29.825915 50.931250
427 1 4.000000 0 0.000000 5.740000 31.151511 54.443750
428 1 4.000000 0 0.000000 8.036000 27.174722 54.443750
429 1 4.000000 0 0.000000 5.740000 25.849126 57.956250
430 1 4.000000 0 0.000000 8.036000 29.825915 57.956250
431 1 4.000000 0 0.000000 5.740000 31.151511 61.468750
432 1 4.000000 0 0.000000 8.036000 27.174722 61.468750
433 1 4.000000 0 0.000000 5.740000 33.802704 1.756250
434 1 4.000000 0 0.000000 8.036000 37.779492 1.756250
435 1 4.000000 0 0.000000 5.740000 39.105088 5.268750
436 1 4.000000 0 0.000000 8.036000 35.128300 5.268750
437 1 4.000000 0 0.000000 5.740000 33.802704 8.781250
438 1 4.000000 0 0.000000 8.036000 37.779492 8.781250
439 1 4.000000 0 0.000000 5.740000 39.105088 12.293750
440 1 4.000000 0 0.000000 8.036000 35.128300 12.293750
441 1 4.000000 0 0.000000 5.740000 33.802704 15.806250
442 1 4.000000 0 0.000000 8.036000 37.779492 15.806250
443 1 4.000000 0 0.000000 5.740000 39.105088 19.318750
444 1 4.000000 0 0.000000 8.036000 35.128300 19.318750
445 1 4.000000 0 0.000000 5.740000 33.802704 22.831250
446 1 4.000000 0 0.000000 8.036000 37.779492 22.831250
447 1 4.000000 0 0.000000 5.740000 39.105088 26.343750
448 1 4.000000 0 0.000000 8.036000 35.128300 26.343750
449 1 4.000000 0 0.000000 5.740000 33.802704 29.856250
450 1 4.000000 0 0.000000 8.036000 37.779492 29.856250
451 1 4.000000 0 0.000000 5.740000 39.105088 33.368750
452 1 4.000000 0 0.000000 8.036000 35.128300 33.368750
453 1 4.000000 0 0.000000 5.740000 33.802704 36.881250
454 1 4.000000 0 0.000000 8.036000 37.779492 36.881250
455 1 4.000000 0 0.000000 5.740000 39.105088 40.393750
456 1 4.000000 0 0.000000 8.036000 35.128300 40.393750
457 1 4.000000 0 0.000000 5.740000 33.802704 43.906250
458 1 4.000000 0 0.000000 8.036000 37.779492 43.906250
459 1 4.000000 0 0.000000 5.740000 39.105088 47.418750
460 1 4.000000 0 0.000000 8.036000 35.128300 47.418750
461 1 4.000000 0 0.000000 5.740000 33.802704 50.931250
462 1 4.000000 0 0.000000 8.036000 37.779492 50.931250
463 1 4.000000 0 0.000000 5.740000 39.105088 54.443750
464 1 4.000000 0 0.000000 8.036000 35.128300 54.443750
465 1 4.000000 0 0.000000 5.740000 33.802704 57.956250
466 1 4.000000 0 0.000000 8.036000 37.779492 57.956250
467 1 4.000000 0 0.000000 5.740000 39.105088 61.468750
468 1 4.000000 0 0.000000 8.036000 35.128300 61.468750
469 1 4.000000 0 0.000000 5.740000 41.756281 1.756250
470 1 4.000000 0 0.000000 8.036000 45.733070 1.756250
471 1 4.000000 0 0.000000 5.740000 47.058666 5.268750
472 1 4.000000 0 0.000000 8.036000 43.081877 5.268750
473 1 4.000000 0 0.000000 5.740000 41.756281 8.781250
474 1 4.000000 0 0.000000 8.036000 45.733070 8.781250
475 1 4.000000 0 0.000000 5.740000 47.058666 12.293750
476 1 4.000000 0 0.000000 8.036000 43.081877 12.293750
477 1 4.000000 0 0.000000 5.740000 41.756281 15.806250
478 1 4.000000 0 0.000000 8.036000 45.733070 15.806250
479 1 4.000000 0 0.000000 5.740000 47.058666 19.318750
480 1 4.000000 0 0.000000 8.036000 43.081877 19.318750
481 1 4.000000 0 0.000000 5.740000 41.756281 22.831250
482 1 4.000000 0 0.000000 8.036000 45.733070 22.831250
483 1 4.000000 0 0.000000 5.740000 47.058666 26.343750
484 1 4.000000 0 0.000000 8.036000 43.081877 26.343750
485 1 4.000000 0 0.000000 5.740000 41.756281 29.856250
486 1 4.000000 0 0.000000 8.036000 45.733070 29.856250
487 1 4.000000 0 0.000000 5.740000 47.058666 33.368750
488 1 4.000000 0 0.000000 8.036000 43.081877 33.368750
489 1 4.000000 0 0.000000 5.740000 41.756281 36.881250
490 1 4.000000 0 0.000000 8.036000 45.733070 36.881250
491 1 4.000000 0 0.000000 5.740000 47.058666 40.393750
492 1 4.000000 0 0.000000 8.036000 43.081877 40.393750
493 1 4.000000 0 0.000000 5.740000 41.756281 43.906250
494 1 4.000000 0 0.000000 8.036000 45.733070 43.906250
495 1 4.000000 0 0.000000 5.740000 47.058666 47.418750
496 1 4.000000 0 0.000000 8.036000 43.081877 47.418750
497 1 4.000000 0 0.000000 5.740000 41.756281 50.931250
498 1 4.000000 0 0.000000 8.036000 45.733070 50.931250
499 1 4.000000 0 0.000000 5.740000 47.058666 54.443750
500 1 4.000000 0 0.000000 8.036000 43.081877 54.443750
501 1 4.000000 0 0.000000 5.740000 41.756281 57.956250
502 1 4.000000 0 0.000000 8.036000 45.733070 57.956250
503 1 4.000000 0 0.000000 5.740000 47.058666 61.468750
504 1 4.000000 0 0.000000 8.036000 43.081877 61.468750
505 1 4.000000 0 0.000000 5.740000 49.709858 1.756250
506 1 4.000000 0 0.000000 8.036000 53.686647 1.756250
507 1 4.000000 0 0.000000 5.740000 55.012243 5.268750
508 1 4.000000 0 0.000000 8.036000 51.035454 5.268750
509 1 4.000000 0 0.000000 5.740000 49.709858 8.781250
510 1 4.000000 0 0.000000 8.036000 53.686647 8.781250
511 1 4.000000 0 0.000000 5.740000 55.012243 12.293750
512 1 4.000000 0 0.000000 8.036000 51.035454 12.293750
513 1 4.000000 0 0.000000 5.740000 49.709858 15.806250
514 1 4.000000 0 0.000000 8.036000 53.686647 15.806250
515 1 4.000000 0 0.000000 5.740000 55.012243 19.318750
516 1 4.000000 0 0.000000 8.036000 51.035454 19.318750
517 1 4.000000 0 0.000000 5.740000 49.709858 22.831250
518 1 4.000000 0 0.000000 8.036000 53.686647 22.831250
519 1 4.000000 0 0.000000 5.740000 55.012243 26.343750
520 1 4.000000 0 0.000000 8.036000 51.035454 26.343750
521 1 4.000000 0 0.000000 5.740000 49.709858 29.856250
522 1 4.000000 0 0.000000 8.036000 53.686647 29.856250
523 1 4.000000 0 0.000000 5.740000 55.012243 33.368750
524 1 4.000000 0 0.000000 8.036000 51.035454 33.368750
525 1 4.000000 0 0.000000 5.740000 49.709858 36.881250
526 1 4.000000 0 0.000000 8.036000 53.686647 36.881250
527 1 4.000000 0 0.000000 5.740000 55.012243 40.393750
528 1 4.000000 0 0.000000 8.036000 51.035454 40.393750
529 1 4.000000 0 0.000000 5.740000 49.709858 43.906250
530 1 4.000000 0 0.000000 8.036000 53.686647 43.906250
531 1 4.000000 0 0.000000 5.740000 55.012243 47.418750
532 1 4.000000 0 0.000000 8.036000 51.035454 47.418750
533 1 4.000000 0 0.000000 5.740000 49.709858 50.931250
534 1 4.000000 0 0.000000 8.036000 53.686647 50.931250
535 1 4.000000 0 0.000000 5.740000 55.012243 54.443750
536 1 4.000000 0 0.000000 8.036000 51.035454 54.443750
537 1 4.000000 0 0.000000 5.740000 49.709858 57.956250
538 1 4.000000 0 0.000000 8.036000 53.686647 57.956250
539 1 4.000000 0 0.000000 5.740000 55.012243 61.468750
540 1 4.000000 0 0.000000 8.036000 51.035454 61.468750
541 1 4.000000 0 0.000000 5.740000 57.663435 1.756250
542 1 4.000000 0 0.000000 8.036000 61.640224 1.756250
543 1 4.000000 0 0.000000 5.740000 62.965820 5.268750
544 1 4.000000 0 0.000000 8.036000 58.989032 5.268750
545 1 4.000000 0 0.000000 5.740000 57.663435 8.781250
546 1 4.000000 0 0.000000 8.036000 61.640224 8.781250
547 1 4.000000 0 0.000000 5.740000 62.965820 12.293750