Created by Be-solid.pl

20160 atoms
2 atom types

0.000000 64.288000 xlo xhi
0.000000 63.628618 ylo yhi
0.000000 63.225000 zlo zhi

Masses

1 9.012182
2 1.000000

Atoms

1 1 1.148000 1.988394 1.756250 4.000000 0 0.000000
2 1 3.444000 5.965183 1.756250 4.000000 0 0.000000
3 1 1.148000 7.290779 5.268750 4.000000 0 0.000000
4 1 3.444000 3.313991 5.268750 4.000000 0 0.000000
5 1 1.148000 1.988394 8.781250 4.000000 0 0.000000
6 1 3.444000 5.965183 8.781250 4.000000 0 0.000000
7 1 1.148000 7.290779 12.293750 4.000000 0 0.000000
8 1 3.444000 3.313991 12.293750 4.000000 0 0.000000
9 1 1.148000 1.988394 15.806250 4.000000 0 0.000000
10 1 3.444000 5.965183 15.806250 4.000000 0 0.000000
11 1 1.148000 7.290779 19.318750 4.000000 0 0.000000
12 1 3.444000 3.313991 19.318750 4.000000 0 0.000000
13 1 1.148000 1.988394 22.831250 4.000000 0 0.000000
14 1 3.444000 5.965183 22.831250 4.000000 0 0.000000
15 1 1.148000 7.290779 26.343750 4.000000 0 0.000000
16 1 3.444000 3.313991 26.343750 4.000000 0 0.000000
17 1 1.148000 1.988394 29.856250 4.000000 0 0.000000
18 1 3.444000 5.965183 29.856250 4.000000 0 0.000000
19 1 1.148000 7.290779 33.368750 4.000000 0 0.000000
20 1 3.444000 3.313991 33.368750 4.000000 0 0.000000
21 1 1.148000 1.988394 36.881250 4.000000 0 0.000000
22 1 3.444000 5.965183 36.881250 4.000000 0 0.000000
23 1 1.148000 7.290779 40.393750 4.000000 0 0.000000
24 1 3.444000 3.313991 40.393750 4.000000 0 0.000000
25 1 1.148000 1.988394 43.906250 4.000000 0 0.000000
26 1 3.444000 5.965183 43.906250 4.000000 0 0.000000
27 1 1.148000 7.290779 47.418750 4.000000 0 0.000000
28 1 3.444000 3.313991 47.418750 4.000000 0 0.000000
29 1 1.148000 1.988394 50.931250 4.000000 0 0.000000
30 1 3.444000 5.965183 50.931250 4.000000 0 0.000000
31 1 1.148000 7.290779 54.443750 4.000000 0 0.000000
32 1 3.444000 3.313991 54.443750 4.000000 0 0.000000
33 1 1.148000 1.988394 57.956250 4.000000 0 0.000000
34 1 3.444000 5.965183 57.956250 4.000000 0 0.000000
35 1 1.148000 7.290779 61.468750 4.000000 0 0.000000
36 1 3.444000 3.313991 61.468750 4.000000 0 0.000000
37 1 1.148000 9.941972 1.756250 4.000000 0 0.000000
38 1 3.444000 13.918760 1.756250 4.000000 0 0.000000
39 1 1.148000 15.244357 5.268750 4.000000 0 0.000000
40 1 3.444000 11.267568 5.268750 4.000000 0 0.000000
41 1 1.148000 9.941972 8.781250 4.000000 0 0.000000
42 1 3.444000 13.918760 8.781250 4.000000 0 0.000000
43 1 1.148000 15.244357 12.293750 4.000000 0 0.000000
44 1 3.444000 11.267568 12.293750 4.000000 0 0.000000
45 1 1.148000 9.941972 15.806250 4.000000 0 0.000000
46 1 3.444000 13.918760 15.806250 4.000000 0 0.000000
47 1 1.148000 15.244357 19.318750 4.000000 0 0.000000
48 1 3.444000 11.267568 19.318750 4.000000 0 0.000000
49 1 1.148000 9.941972 22.831250 4.000000 0 0.000000
50 1 3.444000 13.918760 22.831250 4.000000 0 0.000000
51 1 1.148000 15.244357 26.343750 4.000000 0 0.000000
52 1 3.444000 11.267568 26.343750 4.000000 0 0.000000
53 1 1.148000 9.941972 29.856250 4.000000 0 0.000000
54 1 3.444000 13.918760 29.856250 4.000000 0 0.000000
55 1 1.148000 15.244357 33.368750 4.000000 0 0.000000
56 1 3.444000 11.267568 33.368750 4.000000 0 0.000000
57 1 1.148000 9.941972 36.881250 4.000000 0 0.000000
58 1 3.444000 13.918760 36.881250 4.000000 0 0.000000
59 1 1.148000 15.244357 40.393750 4.000000 0 0.000000
60 1 3.444000 11.267568 40.393750 4.000000 0 0.000000
61 1 1.148000 9.941972 43.906250 4.000000 0 0.000000
62 1 3.444000 13.918760 43.906250 4.000000 0 0.000000
63 1 1.148000 15.244357 47.418750 4.000000 0 0.000000
64 1 3.444000 11.267568 47.418750 4.000000 0 0.000000
65 1 1.148000 9.941972 50.931250 4.000000 0 0.000000
66 1 3.444000 13.918760 50.931250 4.000000 0 0.000000
67 1 1.148000 15.244357 54.443750 4.000000 0 0.000000
68 1 3.444000 11.267568 54.443750 4.000000 0 0.000000
69 1 1.148000 9.941972 57.956250 4.000000 0 0.000000
70 1 3.444000 13.918760 57.956250 4.000000 0 0.000000
71 1 1.148000 15.244357 61.468750 4.000000 0 0.000000
72 1 3.444000 11.267568 61.468750 4.000000 0 0.000000
73 1 1.148000 17.895549 1.756250 4.000000 0 0.000000
74 1 3.444000 21.872338 1.756250 4.000000 0 0.000000
75 1 1.148000 23.197934 5.268750 4.000000 0 0.000000
76 1 3.444000 19.221145 5.268750 4.000000 0 0.000000
77 1 1.148000 17.895549 8.781250 4.000000 0 0.000000
78 1 3.444000 21.872338 8.781250 4.000000 0 0.000000
79 1 1.148000 23.197934 12.293750 4.000000 0 0.000000
80 1 3.444000 19.221145 12.293750 4.000000 0 0.000000
81 1 1.148000 17.895549 15.806250 4.000000 0 0.000000
82 1 3.444000 21.872338 15.806250 4.000000 0 0.000000
83 1 1.148000 23.197934 19.318750 4.000000 0 0.000000
84 1 3.444000 19.221145 19.318750 4.000000 0 0.000000
85 1 1.148000 17.895549 22.831250 4.000000 0 0.000000
86 1 3.444000 21.872338 22.831250 4.000000 0 0.000000
87 1 1.148000 23.197934 26.343750 4.000000 0 0.000000
88 1 3.444000 19.221145 26.343750 4.000000 0 0.000000
89 1 1.148000 17.895549 29.856250 4.000000 0 0.000000
90 1 3.444000 21.872338 29.856250 4.000000 0 0.000000
91 1 1.148000 23.197934 33.368750 4.000000 0 0.000000
92 1 3.444000 19.221145 33.368750 4.000000 0 0.000000
93 1 1.148000 17.895549 36.881250 4.000000 0 0.000000
94 1 3.444000 21.872338 36.881250 4.000000 0 0.000000
95 1 1.148000 23.197934 40.393750 4.000000 0 0.000000
96 1 3.444000 19.221145 40.393750 4.000000 0 0.000000
97 1 1.148000 17.895549 43.906250 4.000000 0 0.000000
98 1 3.444000 21.872338 43.906250 4.000000 0 0.000000
99 1 1.148000 23.197934 47.418750 4.000000 0 0.000000
100 1 3.444000 19.221145 47.418750 4.000000 0 0.000000
101 1 1.148000 17.895549 50.931250 4.000000 0 0.000000
102 1 3.444000 21.872338 50.931250 4.000000 0 0.000000
103 1 1.148000 23.197934 54.443750 4.000000 0 0.000000
104 1 3.444000 19.221145 54.443750 4.000000 0 0.000000
105 1 1.148000 17.895549 57.956250 4.000000 0 0.000000
106 1 3.444000 21.872338 57.956250 4.000000 0 0.000000
107 1 1.148000 23.197934 61.468750 4.000000 0 0.000000
108 1 3.444000 19.221145 61.468750 4.000000 0 0.000000
109 1 1.148000 25.849126 1.756250 4.000000 0 0.000000
110 1 3.444000 29.825915 1.756250 4.000000 0 0.000000
111 1 1.148000 31.151511 5.268750 4.000000 0 0.000000
112 1 3.444000 27.174722 5.268750 4.000000 0 0.000000
113 1 1.148000 25.849126 8.781250 4.000000 0 0.000000
114 1 3.444000 29.825915 8.781250 4.000000 0 0.000000
115 1 1.148000 31.151511 12.293750 4.000000 0 0.000000
116 1 3.444000 27.174722 12.293750 4.000000 0 0.000000
117 1 1.148000 25.849126 15.806250 4.000000 0 0.000000
118 1 3.444000 29.825915 15.806250 4.000000 0 0.000000
119 1 1.148000 31.151511 19.318750 4.000000 0 0.000000
120 1 3.444000 27.174722 19.318750 4.000000 0 0.000000
121 1 1.148000 25.849126 22.831250 4.000000 0 0.000000
122 1 3.444000 29.825915 22.831250 4.000000 0 0.000000
123 1 1.148000 31.151511 26.343750 4.000000 0 0.000000
124 1 3.444000 27.174722 26.343750 4.000000 0 0.000000
125 1 1.148000 25.849126 29.856250 4.000000 0 0.000000
126 1 3.444000 29.825915 29.856250 4.000000 0 0.000000
127 1 1.148000 31.151511 33.368750 4.000000 0 0.000000
128 1 3.444000 27.174722 33.368750 4.000000 0 0.000000
129 1 1.148000 25.849126 36.881250 4.000000 0 0.000000
130 1 3.444000 29.825915 36.881250 4.000000 0 0.000000
131 1 1.148000 31.151511 40.393750 4.000000 0 0.000000
132 1 3.444000 27.174722 40.393750 4.000000 0 0.000000
133 1 1.148000 25.849126 43.906250 4.000000 0 0.000000
134 1 3.444000 29.825915 43.906250 4.000000 0 0.000000
135 1 1.148000 31.151511 47.418750 4.000000 0 0.000000
136 1 3.444000 27.174722 47.418750 4.000000 0 0.000000
137 1 1.148000 25.849126 50.931250 4.000000 0 0.000000
138 1 3.444000 29.825915 50.931250 4.000000 0 0.000000
139 1 1.148000 31.151511 54.443750 4.000000 0 0.000000
140 1 3.444000 27.174722 54.443750 4.000000 0 0.000000
141 1 1.148000 25.849126 57.956250 4.000000 0 0.000000
142 1 3.444000 29.825915 57.956250 4.000000 0 0.000000
143 1 1.148000 31.151511 61.468750 4.000000 0 0.000000
144 1 3.444000 27.174722 61.468750 4.000000 0 0.000000
145 1 1.148000 33.802704 1.756250 4.000000 0 0.000000
146 1 3.444000 37.779492 1.756250 4.000000 0 0.000000
147 1 1.148000 39.105088 5.268750 4.000000 0 0.000000
148 1 3.444000 35.128300 5.268750 4.000000 0 0.000000
149 1 1.148000 33.802704 8.781250 4.000000 0 0.000000
150 1 3.444000 37.779492 8.781250 4.000000 0 0.000000
151 1 1.148000 39.105088 12.293750 4.000000 0 0.000000
152 1 3.444000 35.128300 12.293750 4.000000 0 0.000000
153 1 1.148000 33.802704 15.806250 4.000000 0 0.000000
154 1 3.444000 37.779492 15.806250 4.000000 0 0.000000
155 1 1.148000 39.105088 19.318750 4.000000 0 0.000000
156 1 3.444000 35.128300 19.318750 4.000000 0 0.000000
157 1 1.148000 33.802704 22.831250 4.000000 0 0.000000
158 1 3.444000 37.779492 22.831250 4.000000 0 0.000000
159 1 1.148000 39.105088 26.343750 4.000000 0 0.000000
160 1 3.444000 35.128300 26.343750 4.000000 0 0.000000
161 1 1.148000 33.802704 29.856250 4.000000 0 0.000000
162 1 3.444000 37.779492 29.856250 4.000000 0 0.000000
163 1 1.148000 39.105088 33.368750 4.000000 0 0.000000
164 1 3.444000 35.128300 33.368750 4.000000 0 0.000000
165 1 1.148000 33.802704 36.881250 4.000000 0 0.000000
166 1 3.444000 37.779492 36.881250 4.000000 0 0.000000
167 1 1.148000 39.105088 40.393750 4.000000 0 0.000000
168 1 3.444000 35.128300 40.393750 4.000000 0 0.000000
169 1 1.148000 33.802704 43.906250 4.000000 0 0.000000
170 1 3.444000 37.779492 43.906250 4.000000 0 0.000000
171 1 1.148000 39.105088 47.418750 4.000000 0 0.000000
172 1 3.444000 35.128300 47.418750 4.000000 0 0.000000
173 1 1.148000 33.802704 50.931250 4.000000 0 0.000000
174 1 3.444000 37.779492 50.931250 4.000000 0 0.000000
175 1 1.148000 39.105088 54.443750 4.000000 0 0.000000
176 1 3.444000 35.128300 54.443750 4.000000 0 0.000000
177 1 1.148000 33.802704 57.956250 4.000000 0 0.000000
178 1 3.444000 37.779492 57.956250 4.000000 0 0.000000
179 1 1.148000 39.105088 61.468750 4.000000 0 0.000000
180 1 3.444000 35.128300 61.468750 4.000000 0 0.000000
181 1 1.148000 41.756281 1.756250 4.000000 0 0.000000
182 1 3.444000 45.733070 1.756250 4.000000 0 0.000000
183 1 1.148000 47.058666 5.268750 4.000000 0 0.000000
184 1 3.444000 43.081877 5.268750 4.000000 0 0.000000
185 1 1.148000 41.756281 8.781250 4.000000 0 0.000000
186 1 3.444000 45.733070 8.781250 4.000000 0 0.000000
187 1 1.148000 47.058666 12.293750 4.000000 0 0.000000
188 1 3.444000 43.081877 12.293750 4.000000 0 0.000000
189 1 1.148000 41.756281 15.806250 4.000000 0 0.000000
190 1 3.444000 45.733070 15.806250 4.000000 0 0.000000
191 1 1.148000 47.058666 19.318750 4.000000 0 0.000000
192 1 3.444000 43.081877 19.318750 4.000000 0 0.000000
193 1 1.148000 41.756281 22.831250 4.000000 0 0.000000
194 1 3.444000 45.733070 22.831250 4.000000 0 0.000000
195 1 1.148000 47.058666 26.343750 4.000000 0 0.000000
196 1 3.444000 43.081877 26.343750 4.000000 0 0.000000
197 1 1.148000 41.756281 29.856250 4.000000 0 0.000000
198 1 3.444000 45.733070 29.856250 4.000000 0 0.000000
199 1 1.148000 47.058666 33.368750 4.000000 0 0.000000
200 1 3.444000 43.081877 33.368750 4.000000 0 0.000000
201 1 1.148000 41.756281 36.881250 4.000000 0 0.000000
202 1 3.444000 45.733070 36.881250 4.000000 0 0.000000
203 1 1.148000 47.058666 40.393750 4.000000 0 0.000000
204 1 3.444000 43.081877 40.393750 4.000000 0 0.000000
205 1 1.148000 41.756281 43.906250 4.000000 0 0.000000
206 1 3.444000 45.733070 43.906250 4.000000 0 0.000000
207 1 1.148000 47.058666 47.418750 4.000000 0 0.000000
208 1 3.444000 43.081877 47.418750 4.000000 0 0.000000
209 1 1.148000 41.756281 50.931250 4.000000 0 0.000000
210 1 3.444000 45.733070 50.931250 4.000000 0 0.000000
211 1 1.148000 47.058666 54.443750 4.000000 0 0.000000
212 1 3.444000 43.081877 54.443750 4.000000 0 0.000000
213 1 1.148000 41.756281 57.956250 4.000000 0 0.000000
214 1 3.444000 45.733070 57.956250 4.000000 0 0.000000
215 1 1.148000 47.058666 61.468750 4.000000 0 0.000000
216 1 3.444000 43.081877 61.468750 4.000000 0 0.000000
217 1 1.148000 49.709858 1.756250 4.000000 0 0.000000
218 1 3.444000 53.686647 1.756250 4.000000 0 0.000000
219 1 1.148000 55.012243 5.268750 4.000000 0 0.000000
220 1 3.444000 51.035454 5.268750 4.000000 0 0.000000
221 1 1.148000 49.709858 8.781250 4.000000 0 0.000000
222 1 3.444000 53.686647 8.781250 4.000000 0 0.000000
223 1 1.148000 55.012243 12.293750 4.000000 0 0.000000
224 1 3.444000 51.035454 12.293750 4.000000 0 0.000000
225 1 1.148000 49.709858 15.806250 4.000000 0 0.000000
226 1 3.444000 53.686647 15.806250 4.000000 0 0.000000
227 1 1.148000 55.012243 19.318750 4.000000 0 0.000000
228 1 3.444000 51.035454 19.318750 4.000000 0 0.000000
229 1 1.148000 49.709858 22.831250 4.000000 0 0.000000
230 1 3.444000 53.686647 22.831250 4.000000 0 0.000000
231 1 1.148000 55.012243 26.343750 4.000000 0 0.000000
232 1 3.444000 51.035454 26.343750 4.000000 0 0.000000
233 1 1.148000 49.709858 29.856250 4.000000 0 0.000000
234 1 3.444000 53.686647 29.856250 4.000000 0 0.000000
235 1 1.148000 55.012243 33.368750 4.000000 0 0.000000
236 1 3.444000 51.035454 33.368750 4.000000 0 0.000000
237 1 1.148000 49.709858 36.881250 4.000000 0 0.000000
238 1 3.444000 53.686647 36.881250 4.000000 0 0.000000
239 1 1.148000 55.012243 40.393750 4.000000 0 0.000000
240 1 3.444000 51.035454 40.393750 4.000000 0 0.000000
241 1 1.148000 49.709858 43.906250 4.000000 0 0.000000
242 1 3.444000 53.686647 43.906250 4.000000 0 0.000000
243 1 1.148000 55.012243 47.418750 4.000000 0 0.000000
244 1 3.444000 51.035454 47.418750 4.000000 0 0.000000
245 1 1.148000 49.709858 50.931250 4.000000 0 0.000000
246 1 3.444000 53.686647 50.931250 4.000000 0 0.000000
247 1 1.148000 55.012243 54.443750 4.000000 0 0.000000
248 1 3.444000 51.035454 54.443750 4.000000 0 0.000000
249 1 1.148000 49.709858 57.956250 4.000000 0 0.000000
250 1 3.444000 53.686647 57.956250 4.000000 0 0.000000
251 1 1.148000 55.012243 61.468750 4.000000 0 0.000000
252 1 3.444000 51.035454 61.468750 4.000000 0 0.000000
253 1 1.148000 57.663435 1.756250 4.000000 0 0.000000
254 1 3.444000 61.640224 1.756250 4.000000 0 0.000000
255 1 1.148000 62.965820 5.268750 4.000000 0 0.000000
256 1 3.444000 58.989032 5.268750 4.000000 0 0.000000
257 1 1.148000 57.663435 8.781250 4.000000 0 0.000000
258 1 3.444000 61.640224 8.781250 4.000000 0 0.000000
259 1 1.148000 62.965820 12.293750 4.000000 0 0.000000
260 1 3.444000 58.989032 12.293750 4.000000 0 0.000000
261 1 1.148000 57.663435 15.806250 4.000000 0 0.000000
262 1 3.444000 61.640224 15.806250 4.000000 0 0.000000
263 1 1.148000 62.965820 19.318750 4.000000 0 0.000000
264 1 3.444000 58.989032 19.318750 4.000000 0 0.000000
265 1 1.148000 57.663435 22.831250 4.000000 0 0.000000
266 1 3.444000 61.640224 22.831250 4.000000 0 0.000000
267 1 1.148000 62.965820 26.343750 4.000000 0 0.000000
268 1 3.444000 58.989032 26.343750 4.000000 0 0.000000
269 1 1.148000 57.663435 29.856250 4.000000 0 0.000000
270 1 3.444000 61.640224 29.856250 4.000000 0 0.000000
271 1 1.148000 62.965820 33.368750 4.000000 0 0.000000
272 1 3.444000 58.989032 33.368750 4.000000 0 0.000000
273 1 1.148000 57.663435 36.881250 4.000000 0 0.000000
274 1 3.444000 61.640224 36.881250 4.000000 0 0.000000
275 1 1.148000 62.965820 40.393750 4.000000 0 0.000000
276 1 3.444000 58.989032 40.393750 4.000000 0 0.000000
277 1 1.148000 57.663435 43.906250 4.000000 0 0.000000
278 1 3.444000 61.640224 43.906250 4.000000 0 0.000000
279 1 1.148000 62.965820 47.418750 4.000000 0 0.000000
280 1 3.444000 58.989032 47.418750 4.000000 0 0.000000
281 1 1.148000 57.663435 50.931250 4.000000 0 0.000000
282 1 3.444000 61.640224 50.931250 4.000000 0 0.000000
283 1 1.148000 62.965820 54.443750 4.000000 0 0.000000
284 1 3.444000 58.989032 54.443750 4.000000 0 0.000000
285 1 1.148000 57.663435 57.956250 4.000000 0 0.000000
286 1 3.444000 61.640224 57.956250 4.000000 0 0.000000
287 1 1.148000 62.965820 61.468750 4.000000 0 0.000000
288 1 3.444000 58.989032 61.468750 4.000000 0 0.000000
289 1 5.740000 1.988394 1.756250 4.000000 0 0.000000
290 1 8.036000 5.965183 1.756250 4.000000 0 0.000000
291 1 5.740000 7.290779 5.268750 4.000000 0 0.000000
292 1 8.036000 3.313991 5.268750 4.000000 0 0.000000
293 1 5.740000 1.988394 8.781250 4.000000 0 0.000000
294 1 8.036000 5.965183 8.781250 4.000000 0 0.000000
295 1 5.740000 7.290779 12.293750 4.000000 0 0.000000
296 1 8.036000 3.313991 12.293750 4.000000 0 0.000000
297 1 5.740000 1.988394 15.806250 4.000000 0 0.000000
298 1 8.036000 5.965183 15.806250 4.000000 0 0.000000
299 1 5.740000 7.290779 19.318750 4.000000 0 0.000000
300 1 8.036000 3.313991 19.318750 4.000000 0 0.000000
301 1 5.740000 1.988394 22.831250 4.000000 0 0.000000
302 1 8.036000 5.965183 22.831250 4.000000 0 0.000000
303 1 5.740000 7.290779 26.343750 4.000000 0 0.000000
304 1 8.036000 3.313991 26.343750 4.000000 0 0.000000
305 1 5.740000 1.988394 29.856250 4.000000 0 0.000000
306 1 8.036000 5.965183 29.856250 4.000000 0 0.000000
307 1 5.740000 7.290779 33.368750 4.000000 0 0.000000
308 1 8.036000 3.313991 33.368750 4.000000 0 0.000000
309 1 5.740000 1.988394 36.881250 4.000000 0 0.000000
310 1 8.036000 5.965183 36.881250 4.000000 0 0.000000
311 1 5.740000 7.290779 40.393750 4.000000 0 0.000000
312 1 8.036000 3.313991 40.393750 4.000000 0 0.000000
313 1 5.740000 1.988394 43.906250 4.000000 0 0.000000
314 1 8.036000 5.965183 43.906250 4.000000 0 0.000000
315 1 5.740000 7.290779 47.418750 4.000000 0 0.000000
316 1 8.036000 3.313991 47.418750 4.000000 0 0.000000
317 1 5.740000 1.988394 50.931250 4.000000 0 0.000000
318 1 8.036000 5.965183 50.931250 4.000000 0 0.000000
319 1 5.740000 7.290779 54.443750 4.000000 0 0.000000
320 1 8.036000 3.313991 54.443750 4.000000 0 0.000000
321 1 5.740000 1.988394 57.956250 4.000000 0 0.000000
322 1 8.036000 5.965183 57.956250 4.000000 0 0.000000
323 1 5.740000 7.290779 61.468750 4.000000 0 0.000000
324 1 8.036000 3.313991 61.468750 4.000000 0 0.000000
325 1 5.740000 9.941972 1.756250 4.000000 0 0.000000
326 1 8.036000 13.918760 1.756250 4.000000 0 0.000000
327 1 5.740000 15.244357 5.268750 4.000000 0 0.000000
328 1 8.036000 11.267568 5.268750 4.000000 0 0.000000
329 1 5.740000 9.941972 8.781250 4.000000 0 0.000000
330 1 8.036000 13.918760 8.781250 4.000000 0 0.000000
331 1 5.740000 15.244357 12.293750 4.000000 0 0.000000
332 1 8.036000 11.267568 12.293750 4.000000 0 0.000000
333 1 5.740000 9.941972 15.806250 4.000000 0 0.000000
334 1 8.036000 13.918760 15.806250 4.000000 0 0.000000
335 1 5.740000 15.244357 19.318750 4.000000 0 0.000000
336 1 8.036000 11.267568 19.318750 4.000000 0 0.000000
337 1 5.740000 9.941972 22.831250 4.000000 0 0.000000
338 1 8.036000 13.918760 22.831250 4.000000 0 0.000000
339 1 5.740000 15.244357 26.343750 4.000000 0 0.000000
340 1 8.036000 11.267568 26.343750 4.000000 0 0.000000
341 1 5.740000 9.941972 29.856250 4.000000 0 0.000000
342 1 8.036000 13.918760 29.856250 4.000000 0 0.000000
343 1 5.740000 15.244357 33.368750 4.000000 0 0.000000
344 1 8.036000 11.267568 33.368750 4.000000 0 0.000000
345 1 5.740000 9.941972 36.881250 4.000000 0 0.000000
346 1 8.036000 13.918760 36.881250 4.000000 0 0.000000
347 1 5.740000 15.244357 40.393750 4.000000 0 0.000000
348 1 8.036000 11.267568 40.393750 4.000000 0 0.000000
349 1 5.740000 9.941972 43.906250 4.000000 0 0.000000
350 1 8.036000 13.918760 43.906250 4.000000 0 0.000000
351 1 5.740000 15.244357 47.418750 4.000000 0 0.000000
352 1 8.036000 11.267568 47.418750 4.000000 0 0.000000
353 1 5.740000 9.941972 50.931250 4.000000 0 0.000000
354 1 8.036000 13.918760 50.931250 4.000000 0 0.000000
355 1 5.740000 15.244357 54.443750 4.000000 0 0.000000
356 1 8.036000 11.267568 54.443750 4.000000 0 0.000000
357 1 5.740000 9.941972 57.956250 4.000000 0 0.000000
358 1 8.036000 13.918760 57.956250 4.000000 0 0.000000
359 1 5.740000 15.244357 61.468750 4.000000 0 0.000000
360 1 8.036000 11.267568 61.468750 4.000000 0 0.000000
361 1 5.740000 17.895549 1.756250 4.000000 0 0.000000
362 1 8.036000 21.872338 1.756250 4.000000 0 0.000000
363 1 5.740000 23.197934 5.268750 4.000000 0 0.000000
364 1 8.036000 19.221145 5.268750 4.000000 0 0.000000
365 1 5.740000 17.895549 8.781250 4.000000 0 0.000000
366 1 8.036000 21.872338 8.781250 4.000000 0 0.000000
367 1 5.740000 23.197934 12.293750 4.000000 0 0.000000
368 1 8.036000 19.221145 12.293750 4.000000 0 0.000000
369 1 5.740000 17.895549 15.806250 4.000000 0 0.000000
370 1 8.036000 21.872338 15.806250 4.000000 0 0.000000
371 1 5.740000 23.197934 19.318750 4.000000 0 0.000000
372 1 8.036000 19.221145 19.318750 4.000000 0 0.000000
373 1 5.740000 17.895549 22.831250 4.000000 0 0.000000
374 1 8.036000 21.872338 22.831250 4.000000 0 0.000000
375 1 5.740000 23.197934 26.343750 4.000000 0 0.000000
376 1 8.036000 19.221145 26.343750 4.000000 0 0.000000
377 1 5.740000 17.895549 29.856250 4.000000 0 0.000000
378 1 8.036000 21.872338 29.856250 4.000000 0 0.000000
379 1 5.740000 23.197934 33.368750 4.000000 0 0.000000
380 1 8.036000 19.221145 33.368750 4.000000 0 0.000000
381 1 5.740000 17.895549 36.881250 4.000000 0 0.000000
382 1 8.036000 21.872338 36.881250 4.000000 0 0.000000
383 1 5.740000 23.197934 40.393750 4.000000 0 0.000000
384 1 8.036000 19.221145 40.393750 4.000000 0 0.000000
385 1 5.740000 17.895549 43.906250 4.000000 0 0.000000
386 1 8.036000 21.872338 43.906250 4.000000 0 0.000000
387 1 5.740000 23.197934 47.418750 4.000000 0 0.000000
388 1 8.036000 19.221145 47.418750 4.000000 0 0.000000
389 1 5.740000 17.895549 50.931250 4.000000 0 0.000000
390 1 8.036000 21.872338 50.931250 4.000000 0 0.000000
391 1 5.740000 23.197934 54.443750 4.000000 0 0.000000
392 1 8.036000 19.221145 54.443750 4.000000 0 0.000000
393 1 5.740000 17.895549 57.956250 4.000000 0 0.000000
394 1 8.036000 21.872338 57.956250 4.000000 0 0.000000
395 1 5.740000 23.197934 61.468750 4.000000 0 0.000000
396 1 8.036000 19.221145 61.468750 4.000000 0 0.000000
397 1 5.740000 25.849126 1.756250 4.000000 0 0.000000
398 1 8.036000 29.825915 1.756250 4.000000 0 0.000000
399 1 5.740000 31.151511 5.268750 4.000000 0 0.000000
400 1 8.036000 27.174722 5.268750 4.000000 0 0.000000
401 1 5.740000 25.849126 8.781250 4.000000 0 0.000000
402 1 8.036000 29.825915 8.781250 4.000000 0 0.000000
403 1 5.740000 31.151511 12.293750 4.000000 0 0.000000
404 1 8.036000 27.174722 12.293750 4.000000 0 0.000000
405 1 5.740000 25.849126 15.806250 4.000000 0 0.000000
406 1 8.036000 29.825915 15.806250 4.000000 0 0.000000
407 1 5.740000 31.151511 19.318750 4.000000 0 0.000000
408 1 8.036000 27.174722 19.318750 4.000000 0 0.000000
409 1 5.740000 25.849126 22.831250 4.000000 0 0.000000
410 1 8.036000 29.825915 22.831250 4.000000 0 0.000000
411 1 5.740000 31.151511 26.343750 4.000000 0 0.000000
412 1 8.036000 27.174722 26.343750 4.000000 0 0.000000
413 1 5.740000 25.849126 29.856250 4.000000 0 0.000000
414 1 8.036000 29.825915 29.856250 4.000000 0 0.000000
415 1 5.740000 31.151511 33.368750 4.000000 0 0.000000
416 1 8.036000 27.174722 33.368750 4.000000 0 0.000000
417 1 5.740000 25.849126 36.881250 4.000000 0 0.000000
418 1 8.036000 29.825915 36.881250 4.000000 0 0.000000
419 1 5.740000 31.151511 40.393750 4.000000 0 0.000000
420 1 8.036000 27.174722 40.393750 4.000000 0 0.000000
421 1 5.740000 25.849126 43.906250 4.000000 0 0.000000
422 1 8.036000 29.825915 43.906250 4.000000 0 0.000000
423 1 5.740000 31.151511 47.418750 4.000000 0 0.000000
424 1 8.036000 27.174722 47.418750 4.000000 0 0.000000
425 1 5.740000 25.849126 50.931250 4.000000 0 0.000000
426 1 8.036000 29.825915 50.931250 4.000000 0 0.000000
427 1 5.740000 31.151511 54.443750 4.000000 0 0.000000
428 1 8.036000 27.174722 54.443750 4.000000 0 0.000000
429 1 5.740000 25.849126 57.956250 4.000000 0 0.000000
430 1 8.036000 29.825915 57.956250 4.000000 0 0.000000
431 1 5.740000 31.151511 61.468750 4.000000 0 0.000000
432 1 8.036000 27.174722 61.468750 4.000000 0 0.000000
433 1 5.740000 33.802704 1.756250 4.000000 0 0.000000
434 1 8.036000 37.779492 1.756250 4.000000 0 0.000000
435 1 5.740000 39.105088 5.268750 4.000000 0 0.000000
436 1 8.036000 35.128300 5.268750 4.000000 0 0.000000
437 1 5.740000 33.802704 8.781250 4.000000 0 0.000000
438 1 8.036000 37.779492 8.781250 4.000000 0 0.000000
439 1 5.740000 39.105088 12.293750 4.000000 0 0.000000
440 1 8.036000 35.128300 12.293750 4.000000 0 0.000000
441 1 5.740000 33.802704 15.806250 4.000000 0 0.000000
442 1 8.036000 37.779492 15.806250 4.000000 0 0.000000
443 1 5.740000 39.105088 19.318750 4.000000 0 0.000000
444 1 8.036000 35.128300 19.318750 4.000000 0 0.000000
445 1 5.740000 33.802704 22.831250 4.000000 0 0.000000
446 1 8.036000 37.779492 22.831250 4.000000 0 0.000000
447 1 5.740000 39.105088 26.343750 4.000000 0 0.000000
448 1 8.036000 35.128300 26.343750 4.000000 0 0.000000
449 1 5.740000 33.802704 29.856250 4.000000 0 0.000000
450 1 8.036000 37.779492 29.856250 4.000000 0 0.000000
451 1 5.740000 39.105088 33.368750 4.000000 0 0.000000
452 1 8.036000 35.128300 33.368750 4.000000 0 0.000000
453 1 5.740000 33.802704 36.881250 4.000000 0 0.000000
454 1 8.036000 37.779492 36.881250 4.000000 0 0.000000
455 1 5.740000 39.105088 40.393750 4.000000 0 0.000000
456 1 8.036000 35.128300 40.393750 4.000000 0 0.000000
457 1 5.740000 33.802704 43.906250 4.000000 0 0.000000
458 1 8.036000 37.779492 43.906250 4.000000 0 0.000000
459 1 5.740000 39.105088 47.418750 4.000000 0 0.000000
460 1 8.036000 35.128300 47.418750 4.000000 0 0.000000
461 1 5.740000 33.802704 50.931250 4.000000 0 0.000000
462 1 8.036000 37.779492 50.931250 4.000000 0 0.000000
463 1 5.740000 39.105088 54.443750 4.000000 0 0.000000
464 1 8.036000 35.128300 54.443750 4.000000 0 0.000000
465 1 5.740000 33.802704 57.956250 4.000000 0 0.000000
466 1 8.036000 37.779492 57.956250 4.000000 0 0.000000
467 1 5.740000 39.105088 61.468750 4.000000 0 0.000000
468 1 8.036000 35.128300 61.468750 4.000000 0 0.000000
469 1 5.740000 41.756281 1.756250 4.000000 0 0.000000
470 1 8.036000 45.733070 1.756250 4.000000 0 0.000000
471 1 5.740000 47.058666 5.268750 4.000000 0 0.000000
472 1 8.036000 43.081877 5.268750 4.000000 0 0.000000
473 1 5.740000 41.756281 8.781250 4.000000 0 0.000000
474 1 8.036000 45.733070 8.781250 4.000000 0 0.000000
475 1 5.740000 47.058666 12.293750 4.000000 0 0.000000
476 1 8.036000 43.081877 12.293750 4.000000 0 0.000000
477 1 5.740000 41.756281 15.806250 4.000000 0 0.000000
478 1 8.036000 45.733070 15.806250 4.000000 0 0.000000
479 1 5.740000 47.058666 19.318750 4.000000 0 0.000000
480 1 8.036000 43.081877 19.318750 4.000000 0 0.000000
481 1 5.740000 41.756281 22.831250 4.000000 0 0.000000
482 1 8.036000 45.733070 22.831250 4.000000 0 0.000000
483 1 5.740000 47.058666 26.343750 4.000000 0 0.000000
484 1 8.036000 43.081877 26.343750 4.000000 0 0.000000
485 1 5.740000 41.756281 29.856250 4.000000 0 0.000000
486 1 8.036000 45.733070 29.856250 4.000000 0 0.000000
487 1 5.740000 47.058666 33.368750 4.000000 0 0.000000
488 1 8.036000 43.081877 33.368750 4.000000 0 0.000000
489 1 5.740000 41.756281 36.881250 4.000000 0 0.000000
490 1 8.036000 45.733070 36.881250 4.000000 0 0.000000
491 1 5.740000 47.058666 40.393750 4.000000 0 0.000000
492 1 8.036000 43.081877 40.393750 4.000000 0 0.000000
493 1 5.740000 41.756281 43.906250 4.000000 0 0.000000
494 1 8.036000 45.733070 43.906250 4.000000 0 0.000000
495 1 5.740000 47.058666 47.418750 4.000000 0 0.000000
496 1 8.036000 43.081877 47.418750 4.000000 0 0.000000
497 1 5.740000 41.756281 50.931250 4.000000 0 0.000000
498 1 8.036000 45.733070 50.931250 4.000000 0 0.000000
499 1 5.740000 47.058666 54.443750 4.000000 0 0.000000
500 1 8.036000 43.081877 54.443750 4.000000 0 0.000000
501 1 5.740000 41.756281 57.956250 4.000000 0 0.000000
502 1 8.036000 45.733070 57.956250 4.000000 0 0.000000
503 1 5.740000 47.058666 61.468750 4.000000 0 0.000000
504 1 8.036000 43.081877 61.468750 4.000000 0 0.000000
505 1 5.740000 49.709858 1.756250 4.000000 0 0.000000
506 1 8.036000 53.686647 1.756250 4.000000 0 0.000000
507 1 5.740000 55.012243 5.268750 4.000000 0 0.000000
508 1 8.036000 51.035454 5.268750 4.000000 0 0.000000
509 1 5.740000 49.709858 8.781250 4.000000 0 0.000000
510 1 8.036000 53.686647 8.781250 4.000000 0 0.000000
511 1 5.740000 55.012243 12.293750 4.000000 0 0.000000
512 1 8.036000 51.035454 12.293750 4.000000 0 0.000000
513 1 5.740000 49.709858 15.806250 4.000000 0 0.000000
514 1 8.036000 53.686647 15.806250 4.000000 0 0.000000
515 1 5.740000 55.012243 19.318750 4.000000 0 0.000000
516 1 8.036000 51.035454 19.318750 4.000000 0 0.000000
517 1 5.740000 49.709858 22.831250 4.000000 0 0.000000
518 1 8.036000 53.686647 22.831250 4.000000 0 0.000000
519 1 5.740000 55.012243 26.343750 4.000000 0 0.000000
520 1 8.036000 51.035454 26.343750 4.000000 0 0.000000
521 1 5.740000 49.709858 29.856250 4.000000 0 0.000000
522 1 8.036000 53.686647 29.856250 4.000000 0 0.000000
523 1 5.740000 55.012243 33.368750 4.000000 0 0.000000
524 1 8.036000 51.035454 33.368750 4.000000 0 0.000000
525 1 5.740000 49.709858 36.881250 4.000000 0 0.000000
526 1 8.036000 53.686647 36.881250 4.000000 0 0.000000
527 1 5.740000 55.012243 40.393750 4.000000 0 0.000000
528 1 8.036000 51.035454 40.393750 4.000000 0 0.000000
529 1 5.740000 49.709858 43.906250 4.000000 0 0.000000
530 1 8.036000 53.686647 43.906250 4.000000 0 0.000000
531 1 5.740000 55.012243 47.418750 4.000000 0 0.000000
532 1 8.036000 51.035454 47.418750 4.000000 0 0.000000
533 1 5.740000 49.709858 50.931250 4.000000 0 0.000000
534 1 8.036000 53.686647 50.931250 4.000000 0 0.000000
535 1 5.740000 55.012243 54.443750 4.000000 0 0.000000
536 1 8.036000 51.035454 54.443750 4.000000 0 0.000000
537 1 5.740000 49.709858 57.956250 4.000000 0 0.000000
538 1 8.036000 53.686647 57.956250 4.000000 0 0.000000
539 1 5.740000 55.012243 61.468750 4.000000 0 0.000000
540 1 8.036000 51.035454 61.468750 4.000000 0 0.000000
541 1 5.740000 57.663435 1.756250 4.000000 0 0.000000
542 1 8.036000 61.640224 1.756250 4.000000 0 0.000000
543 1 5.740000 62.965820 5.268750 4.000000 0 0.000000
544 1 8.036000 58.989032 5.268750 4.000000 0 0.000000
545 1 5.740000 57.663435 8.781250 4.000000 0 0.000000
546 1 8.036000 61.640224 8.781250 4.000000 0 0.000000
547 1 5.740000 62.965820 12.293750 4.000000 0 0.000000