LAMMPS (18 Jun 2019)
OMP_NUM_THREADS environment is not set. Defaulting to 1 thread. (src/comm.cpp:88)
  using 1 OpenMP thread(s) per MPI task
Reading data file ...
  orthogonal box = (0 0 0) to (66.6884 66.6884 66.6884)
  1 by 1 by 1 MPI processor grid
  reading atoms ...
  3600 atoms
  scanning bonds ...
  1 = max bonds/atom
  scanning angles ...
  1 = max angles/atom
  reading bonds ...
  2400 bonds
  reading angles ...
  1200 angles
Finding 1-2 1-3 1-4 neighbors ...
  special bond factors lj:   0          0          0         
  special bond factors coul: 0          0          0         
  2 = max # of 1-2 neighbors
  1 = max # of 1-3 neighbors
  1 = max # of 1-4 neighbors
  2 = max # of special neighbors
  special bonds CPU = 0.001708 secs
  read_data CPU = 0.025025 secs
WARNING: 1 of 300 force values in table are inconsistent with -dE/dr.
  Should only be flagged at inflection points (src/pair_table.cpp:482)
WARNING: 1 of 300 force values in table are inconsistent with -dE/dr.
  Should only be flagged at inflection points (src/pair_table.cpp:482)
BAD VOLUME INTERVAL: spline analysis requires uniform volume distribution, found inconsistent volume differential, line 4 of file delta_Fv_badbad.dat
	line: 250400.000000, -1406.284339
 (src/USER-BOCS/fix_bocs.cpp:681)
BAD INPUT FORMAT: did not find 2 comma separated numeric values in line 6 of file delta_Fv_badbad.dat
	line: 250600.000000,
 (src/USER-BOCS/fix_bocs.cpp:694)
BAD INPUT FORMAT: did not find 2 comma separated numeric values in line 7 of file delta_Fv_badbad.dat
	line: , -1403.793767
 (src/USER-BOCS/fix_bocs.cpp:694)
BAD INPUT FORMAT: did not find 2 comma separated numeric values in line 8 of file delta_Fv_badbad.dat
	line: 
 (src/USER-BOCS/fix_bocs.cpp:694)
BAD VOLUME INTERVAL: spline analysis requires uniform volume distribution, found inconsistent volume differential, line 9 of file delta_Fv_badbad.dat
	line: 250800.000000 ,-1405.454148
 (src/USER-BOCS/fix_bocs.cpp:681)
BAD INPUT FORMAT: did not find 2 comma separated numeric values in line 10 of file delta_Fv_badbad.dat
	line: 250900.000000 -1405.454148
 (src/USER-BOCS/fix_bocs.cpp:694)
BAD INPUT FORMAT: did not find 2 comma separated numeric values in line 11 of file delta_Fv_badbad.dat
	line: 25oooo.ooooo,
 (src/USER-BOCS/fix_bocs.cpp:694)
BAD INPUT FORMAT: did not find 2 comma separated numeric values in line 12 of file delta_Fv_badbad.dat
	line: 251000.000000, -llll.lllll
 (src/USER-BOCS/fix_bocs.cpp:694)
ERROR: Bad volume / pressure-correction data: delta_Fv_badbad.dat
See details above (src/USER-BOCS/fix_bocs.cpp:710)
Last command: fix             1 all bocs temp 303.0 303.0 100.0 cgiso 0.986 0.986 1000.0 cubic_spline delta_Fv_badbad.dat
