Topology of CG heptane translated from gromacs input

 3600 atoms
 2400 bonds
 1200 angles
 0 dihedrals
 0 impropers

 2 atom types
 1 bond types
 1 angle types
 0 dihedral types
 0 improper types

 0.000000 66.688400 xlo xhi
 0.000000 66.688400 ylo yhi
 0.000000 66.688400 zlo zhi



Bond Coeffs

 1  lammps_bond_CT-CM.table LJLJ # CT-CM
 


Angle Coeffs

 1 lammps_ang_CT-CM-CT.table LJLJ # CT-CM-CT



Masses

 1 29.06200 # CT
 2 42.08100 # CM



Atoms

 1 1 1 0.0 10.280000 58.420000 64.010000 # CT
 2 1 2 0.0 11.800000 59.740000 66.610000 # CM
 3 1 1 0.0 14.280000 60.390000 68.220000 # CT
 4 1 1 0.0 35.740000 36.320000 33.840000 # CT
 5 1 2 0.0 37.500000 39.130000 33.940000 # CM
 6 1 1 0.0 39.100000 42.020000 34.010000 # CT
 7 1 1 0.0 22.520000 2.580000 44.240000 # CT
 8 1 2 0.0 24.720000 4.380000 43.440000 # CM
 9 1 1 0.0 26.160000 6.500000 41.460000 # CT
 10 1 1 0.0 4.190000 20.120000 28.370000 # CT
 11 1 2 0.0 2.870000 17.160000 28.800000 # CM
 12 1 1 0.0 2.690000 14.190000 28.400000 # CT
 13 1 1 0.0 46.240000 42.130000 41.390000 # CT
 14 1 2 0.0 49.200000 41.730000 40.590000 # CM
 15 1 1 0.0 52.210000 41.200000 39.600000 # CT
 16 1 1 0.0 13.070000 23.930000 20.760000 # CT
 17 1 2 0.0 13.430000 26.630000 19.620000 # CM
 18 1 1 0.0 15.100000 29.410000 20.010000 # CT
 19 1 1 0.0 53.460000 34.670000 61.200000 # CT
 20 1 2 0.0 54.990000 32.230000 62.580000 # CM
 21 1 1 0.0 55.980000 29.790000 64.540000 # CT
 22 1 1 0.0 54.890000 45.690000 27.700000 # CT
 23 1 2 0.0 55.840000 43.910000 25.460000 # CM
 24 1 1 0.0 57.750000 43.050000 23.270000 # CT
 25 1 1 0.0 46.560000 7.540000 60.490000 # CT
 26 1 2 0.0 48.550000 6.670000 62.970000 # CM
 27 1 1 0.0 51.170000 6.090000 64.800000 # CT
 28 1 1 0.0 33.250000 54.130000 11.100000 # CT
 29 1 2 0.0 31.560000 54.700000 8.710000 # CM
 30 1 1 0.0 30.730000 53.350000 5.740000 # CT
 31 1 1 0.0 63.660000 40.440000 62.100000 # CT
 32 1 2 0.0 61.120000 40.270000 60.490000 # CM
 33 1 1 0.0 59.510000 41.500000 58.140000 # CT
 34 1 1 0.0 27.870000 39.500000 1.050000 # CT
 35 1 2 0.0 25.990000 41.930000 0.310000 # CM
 36 1 1 0.0 25.970000 44.660000 -1.070000 # CT
 37 1 1 0.0 29.220000 42.750000 48.180000 # CT
 38 1 2 0.0 26.830000 41.620000 46.260000 # CM
 39 1 1 0.0 23.850000 41.110000 45.600000 # CT
 40 1 1 0.0 10.710000 56.540000 45.320000 # CT
 41 1 2 0.0 7.550000 55.860000 45.860000 # CM
 42 1 1 0.0 4.560000 54.510000 45.870000 # CT
 43 1 1 0.0 19.470000 16.960000 49.320000 # CT
 44 1 2 0.0 16.640000 16.520000 47.600000 # CM
 45 1 1 0.0 13.960000 15.550000 46.100000 # CT
 46 1 1 0.0 31.410000 16.530000 11.490000 # CT
 47 1 2 0.0 31.060000 17.890000 8.890000 # CM
 48 1 1 0.0 30.110000 20.030000 7.660000 # CT
 49 1 1 0.0 25.990000 54.530000 4.740000 # CT
 50 1 2 0.0 23.840000 56.880000 5.490000 # CM
 51 1 1 0.0 21.540000 59.100000 5.790000 # CT
 52 1 1 0.0 49.010000 52.630000 65.730000 # CT
 53 1 2 0.0 47.770000 54.560000 67.590000 # CM
 54 1 1 0.0 48.570000 56.760000 69.820000 # CT
 55 1 1 0.0 8.180000 10.430000 -0.120000 # CT
 56 1 2 0.0 9.650000 12.850000 -1.080000 # CM
 57 1 1 0.0 12.570000 14.150000 -1.820000 # CT
 58 1 1 0.0 10.950000 15.540000 5.600000 # CT
 59 1 2 0.0 12.810000 17.840000 4.100000 # CM
 60 1 1 0.0 14.520000 20.050000 2.400000 # CT
 61 1 1 0.0 30.090000 32.050000 66.590000 # CT
 62 1 2 0.0 29.190000 33.070000 69.530000 # CM
 63 1 1 0.0 28.460000 34.910000 71.850000 # CT
 64 1 1 0.0 20.830000 20.340000 27.330000 # CT
 65 1 2 0.0 23.650000 19.700000 28.640000 # CM
 66 1 1 0.0 26.230000 19.590000 27.400000 # CT
 67 1 1 0.0 33.910000 27.940000 34.950000 # CT
 68 1 2 0.0 31.060000 28.190000 35.930000 # CM
 69 1 1 0.0 28.690000 27.920000 37.720000 # CT
 70 1 1 0.0 13.150000 4.360000 26.080000 # CT
 71 1 2 0.0 12.560000 1.370000 24.810000 # CM
 72 1 1 0.0 11.620000 -1.480000 23.670000 # CT
 73 1 1 0.0 31.040000 13.470000 2.850000 # CT
 74 1 2 0.0 28.020000 14.050000 3.810000 # CM
 75 1 1 0.0 24.980000 14.640000 4.760000 # CT
 76 1 1 0.0 43.960000 27.710000 55.950000 # CT
 77 1 2 0.0 41.470000 26.040000 55.810000 # CM
 78 1 1 0.0 38.630000 25.330000 57.400000 # CT
 79 1 1 0.0 30.260000 2.360000 5.050000 # CT
 80 1 2 0.0 30.530000 5.600000 4.930000 # CM
 81 1 1 0.0 29.730000 8.030000 6.440000 # CT
 82 1 1 0.0 65.370000 50.170000 -0.000000 # CT
 83 1 2 0.0 67.480000 51.500000 -2.030000 # CM
 84 1 1 0.0 69.360000 52.830000 -4.190000 # CT
 85 1 1 0.0 35.940000 64.630000 15.140000 # CT
 86 1 2 0.0 32.850000 64.280000 14.230000 # CM
 87 1 1 0.0 29.800000 63.580000 13.070000 # CT
 88 1 1 0.0 8.850000 39.550000 40.980000 # CT
 89 1 2 0.0 6.280000 38.880000 42.830000 # CM
 90 1 1 0.0 4.880000 37.430000 45.080000 # CT
 91 1 1 0.0 33.950000 21.620000 36.130000 # CT
 92 1 2 0.0 36.480000 23.190000 36.130000 # CM
 93 1 1 0.0 38.180000 25.710000 36.990000 # CT
 94 1 1 0.0 26.800000 34.420000 45.420000 # CT
 95 1 2 0.0 25.480000 31.570000 44.960000 # CM
 96 1 1 0.0 23.930000 29.160000 45.590000 # CT
 97 1 1 0.0 54.380000 10.710000 5.930000 # CT
 98 1 2 0.0 54.280000 7.650000 7.090000 # CM
 99 1 1 0.0 54.960000 5.130000 8.980000 # CT
 100 1 1 0.0 59.650000 60.720000 64.190000 # CT
 101 1 2 0.0 57.680000 63.050000 64.010000 # CM
 102 1 1 0.0 56.950000 66.130000 63.730000 # CT
 103 1 1 0.0 13.280000 5.260000 46.020000 # CT
 104 1 2 0.0 14.300000 4.400000 48.560000 # CM
 105 1 1 0.0 15.310000 2.610000 50.700000 # CT
 106 1 1 0.0 7.800000 65.950000 15.900000 # CT
 107 1 2 0.0 7.190000 64.060000 13.220000 # CM
 108 1 1 0.0 5.690000 64.220000 10.590000 # CT
 109 1 1 0.0 11.630000 39.620000 31.290000 # CT
 110 1 2 0.0 10.700000 36.880000 30.570000 # CM
 111 1 1 0.0 8.600000 34.480000 30.900000 # CT
 112 1 1 0.0 61.420000 44.360000 34.550000 # CT
 113 1 2 0.0 61.970000 43.770000 31.350000 # CM
 114 1 1 0.0 62.440000 43.770000 28.090000 # CT
 115 1 1 0.0 23.390000 28.010000 40.950000 # CT
 116 1 2 0.0 20.510000 27.840000 41.740000 # CM
 117 1 1 0.0 17.670000 26.300000 42.130000 # CT
 118 1 1 0.0 7.070000 30.340000 31.340000 # CT
 119 1 2 0.0 4.670000 32.110000 29.890000 # CM
 120 1 1 0.0 4.180000 34.090000 27.730000 # CT
 121 1 1 0.0 63.280000 21.950000 12.930000 # CT
 122 1 2 0.0 64.980000 21.840000 10.100000 # CM
 123 1 1 0.0 65.390000 23.350000 7.870000 # CT
 124 1 1 0.0 5.760000 43.980000 13.850000 # CT
 125 1 2 0.0 8.270000 41.850000 14.510000 # CM
 126 1 1 0.0 10.320000 41.160000 16.690000 # CT
 127 1 1 0.0 58.450000 64.850000 10.790000 # CT
 128 1 2 0.0 59.170000 66.200000 7.910000 # CM
 129 1 1 0.0 58.790000 67.380000 4.960000 # CT
 130 1 1 0.0 55.650000 64.720000 40.610000 # CT
 131 1 2 0.0 56.050000 65.800000 43.160000 # CM
 132 1 1 0.0 55.800000 68.620000 44.700000 # CT
 133 1 1 0.0 20.530000 22.600000 42.980000 # CT
 134 1 2 0.0 17.880000 21.350000 43.970000 # CM
 135 1 1 0.0 15.120000 21.100000 45.630000 # CT
 136 1 1 0.0 61.280000 12.780000 39.160000 # CT
 137 1 2 0.0 63.000000 12.610000 36.360000 # CM
 138 1 1 0.0 64.430000 12.170000 33.590000 # CT
 139 1 1 0.0 19.800000 9.330000 46.500000 # CT
 140 1 2 0.0 21.360000 10.810000 48.510000 # CM
 141 1 1 0.0 21.450000 13.180000 50.360000 # CT
 142 1 1 0.0 7.820000 65.960000 59.650000 # CT
 143 1 2 0.0 7.350000 66.380000 62.950000 # CM
 144 1 1 0.0 7.650000 68.010000 65.530000 # CT
 145 1 1 0.0 28.530000 19.890000 41.680000 # CT
 146 1 2 0.0 30.820000 21.260000 40.310000 # CM
 147 1 1 0.0 33.240000 23.340000 40.290000 # CT
 148 1 1 0.0 21.440000 1.200000 16.900000 # CT
 149 1 2 0.0 19.150000 1.130000 18.820000 # CM
 150 1 1 0.0 17.710000 1.010000 21.660000 # CT
 151 1 1 0.0 38.650000 38.480000 2.930000 # CT
 152 1 2 0.0 35.980000 39.720000 2.670000 # CM
 153 1 1 0.0 33.720000 41.880000 2.250000 # CT
 154 1 1 0.0 62.970000 11.950000 25.140000 # CT
 155 1 2 0.0 63.260000 8.910000 26.390000 # CM
 156 1 1 0.0 63.890000 6.060000 27.670000 # CT
 157 1 1 0.0 37.210000 57.840000 7.270000 # CT
 158 1 2 0.0 37.820000 59.430000 9.950000 # CM
 159 1 1 0.0 38.570000 61.900000 11.350000 # CT
 160 1 1 0.0 54.550000 50.930000 56.420000 # CT
 161 1 2 0.0 51.390000 50.560000 55.380000 # CM
 162 1 1 0.0 48.450000 50.500000 54.140000 # CT
 163 1 1 0.0 7.400000 30.980000 13.090000 # CT
 164 1 2 0.0 6.930000 34.020000 13.890000 # CM
 165 1 1 0.0 7.110000 37.010000 15.320000 # CT
 166 1 1 0.0 46.940000 12.190000 30.300000 # CT
 167 1 2 0.0 47.130000 9.150000 31.320000 # CM
 168 1 1 0.0 48.260000 6.560000 32.380000 # CT
 169 1 1 0.0 46.590000 11.500000 9.900000 # CT
 170 1 2 0.0 47.360000 10.190000 12.880000 # CM
 171 1 1 0.0 46.020000 9.050000 15.290000 # CT
 172 1 1 0.0 35.120000 1.480000 41.160000 # CT
 173 1 2 0.0 34.520000 2.420000 43.950000 # CM
 174 1 1 0.0 32.650000 2.120000 46.580000 # CT
 175 1 1 0.0 60.270000 34.740000 7.310000 # CT
 176 1 2 0.0 61.860000 37.410000 8.100000 # CM
 177 1 1 0.0 63.880000 39.530000 9.610000 # CT
 178 1 1 0.0 61.610000 22.840000 27.450000 # CT
 179 1 2 0.0 64.410000 21.490000 26.380000 # CM
 180 1 1 0.0 66.090000 19.050000 26.800000 # CT
 181 1 1 0.0 62.310000 63.690000 2.170000 # CT
 182 1 2 0.0 60.110000 61.380000 1.710000 # CM
 183 1 1 0.0 59.130000 58.630000 2.250000 # CT
 184 1 1 0.0 52.010000 54.510000 17.020000 # CT
 185 1 2 0.0 51.420000 57.630000 17.930000 # CM
 186 1 1 0.0 50.280000 60.490000 19.030000 # CT
 187 1 1 0.0 19.500000 27.620000 61.460000 # CT
 188 1 2 0.0 18.170000 26.360000 63.840000 # CM
 189 1 1 0.0 18.630000 26.070000 66.730000 # CT
 190 1 1 0.0 24.010000 35.490000 17.420000 # CT
 191 1 2 0.0 21.490000 35.700000 15.590000 # CM
 192 1 1 0.0 18.760000 37.210000 14.970000 # CT
 193 1 1 0.0 36.020000 33.280000 57.430000 # CT
 194 1 2 0.0 34.310000 32.130000 59.700000 # CM
 195 1 1 0.0 33.530000 31.130000 62.810000 # CT
 196 1 1 0.0 29.850000 35.540000 17.200000 # CT
 197 1 2 0.0 29.050000 38.250000 19.040000 # CM
 198 1 1 0.0 28.870000 40.770000 21.150000 # CT
 199 1 1 0.0 3.500000 53.680000 21.940000 # CT
 200 1 2 0.0 6.280000 52.330000 22.650000 # CM
 201 1 1 0.0 9.390000 51.580000 23.180000 # CT
 202 1 1 0.0 52.450000 18.650000 35.420000 # CT
 203 1 2 0.0 49.740000 17.130000 36.470000 # CM
 204 1 1 0.0 48.350000 15.600000 38.760000 # CT
 205 1 1 0.0 26.510000 36.340000 12.900000 # CT
 206 1 2 0.0 27.400000 33.250000 13.130000 # CM
 207 1 1 0.0 27.990000 30.130000 12.930000 # CT
 208 1 1 0.0 51.700000 57.460000 10.030000 # CT
 209 1 2 0.0 50.360000 57.160000 12.720000 # CM
 210 1 1 0.0 48.740000 58.880000 15.080000 # CT
 211 1 1 0.0 9.280000 44.890000 60.320000 # CT
 212 1 2 0.0 7.010000 43.150000 58.670000 # CM
 213 1 1 0.0 5.340000 40.790000 59.340000 # CT
 214 1 1 0.0 49.450000 1.650000 23.580000 # CT
 215 1 2 0.0 47.270000 2.900000 24.610000 # CM
 216 1 1 0.0 44.130000 1.840000 24.510000 # CT
 217 1 1 0.0 51.990000 39.980000 62.020000 # CT
 218 1 2 0.0 51.370000 43.070000 61.080000 # CM
 219 1 1 0.0 51.570000 46.000000 61.220000 # CT
 220 1 1 0.0 13.880000 3.710000 31.820000 # CT
 221 1 2 0.0 15.400000 1.160000 32.120000 # CM
 222 1 1 0.0 17.820000 -1.030000 31.740000 # CT
 223 1 1 0.0 41.640000 27.480000 16.250000 # CT
 224 1 2 0.0 43.030000 24.850000 16.150000 # CM
 225 1 1 0.0 45.200000 23.160000 17.840000 # CT
 226 1 1 0.0 3.020000 49.870000 24.930000 # CT
 227 1 2 0.0 3.910000 47.080000 26.310000 # CM
 228 1 1 0.0 5.190000 44.270000 27.300000 # CT
 229 1 1 0.0 46.520000 18.630000 52.000000 # CT
 230 1 2 0.0 47.220000 20.790000 49.690000 # CM
 231 1 1 0.0 47.960000 22.690000 47.130000 # CT
 232 1 1 0.0 14.390000 48.650000 30.370000 # CT
 233 1 2 0.0 14.490000 46.310000 32.260000 # CM
 234 1 1 0.0 14.190000 44.610000 35.030000 # CT
 235 1 1 0.0 5.600000 9.820000 29.410000 # CT
 236 1 2 0.0 5.700000 10.810000 26.260000 # CM
 237 1 1 0.0 6.000000 10.760000 23.030000 # CT
 238 1 1 0.0 -0.150000 57.840000 44.380000 # CT
 239 1 2 0.0 -0.180000 54.840000 45.660000 # CM
 240 1 1 0.0 0.550000 53.310000 48.090000 # CT
 241 1 1 0.0 0.180000 44.940000 30.450000 # CT
 242 1 2 0.0 -0.340000 43.570000 27.490000 # CM
 243 1 1 0.0 -0.240000 44.590000 24.760000 # CT
 244 1 1 0.0 1.560000 43.080000 57.330000 # CT
 245 1 2 0.0 0.770000 45.800000 57.770000 # CM
 246 1 1 0.0 0.340000 48.670000 56.570000 # CT
 247 1 1 0.0 55.140000 1.890000 1.640000 # CT
 248 1 2 0.0 52.780000 0.210000 0.080000 # CM
 249 1 1 0.0 50.670000 -1.440000 -1.840000 # CT
 250 1 1 0.0 15.610000 8.310000 13.980000 # CT
 251 1 2 0.0 15.320000 7.600000 10.700000 # CM
 252 1 1 0.0 14.990000 6.010000 8.120000 # CT
 253 1 1 0.0 54.440000 32.720000 47.540000 # CT
 254 1 2 0.0 54.210000 35.040000 49.860000 # CM
 255 1 1 0.0 53.970000 37.010000 52.430000 # CT
 256 1 1 0.0 3.040000 53.820000 50.940000 # CT
 257 1 2 0.0 1.350000 55.770000 52.760000 # CM
 258 1 1 0.0 0.700000 58.280000 54.610000 # CT
 259 1 1 0.0 4.830000 29.820000 42.100000 # CT
 260 1 2 0.0 4.020000 26.780000 41.020000 # CM
 261 1 1 0.0 2.400000 23.940000 40.530000 # CT
 262 1 1 0.0 46.650000 17.330000 2.050000 # CT
 263 1 2 0.0 45.150000 14.790000 2.760000 # CM
 264 1 1 0.0 45.180000 12.390000 4.920000 # CT
 265 1 1 0.0 50.230000 52.390000 9.990000 # CT
 266 1 2 0.0 47.170000 52.890000 10.740000 # CM
 267 1 1 0.0 43.970000 52.940000 11.540000 # CT
 268 1 1 0.0 46.870000 60.700000 3.670000 # CT
 269 1 2 0.0 49.650000 61.200000 5.320000 # CM
 270 1 1 0.0 52.360000 61.890000 6.900000 # CT
 271 1 1 0.0 5.560000 24.780000 3.400000 # CT
 272 1 2 0.0 3.940000 22.380000 1.860000 # CM
 273 1 1 0.0 1.540000 20.530000 1.410000 # CT
 274 1 1 0.0 39.480000 64.660000 65.920000 # CT
 275 1 2 0.0 42.190000 65.890000 66.100000 # CM
 276 1 1 0.0 43.400000 68.320000 67.180000 # CT
 277 1 1 0.0 61.050000 48.760000 32.850000 # CT
 278 1 2 0.0 59.840000 47.800000 35.320000 # CM
 279 1 1 0.0 58.600000 48.510000 37.440000 # CT
 280 1 1 0.0 40.500000 24.180000 19.240000 # CT
 281 1 2 0.0 40.130000 23.650000 22.170000 # CM
 282 1 1 0.0 38.450000 23.150000 24.900000 # CT
 283 1 1 0.0 6.390000 9.650000 50.140000 # CT
 284 1 2 0.0 4.080000 11.440000 51.680000 # CM
 285 1 1 0.0 1.340000 12.160000 53.090000 # CT
 286 1 1 0.0 33.400000 46.860000 63.670000 # CT
 287 1 2 0.0 31.440000 45.100000 65.700000 # CM
 288 1 1 0.0 29.560000 43.660000 68.060000 # CT
 289 1 1 0.0 22.940000 45.800000 36.550000 # CT
 290 1 2 0.0 21.980000 44.910000 39.210000 # CM
 291 1 1 0.0 20.380000 46.100000 41.590000 # CT
 292 1 1 0.0 18.410000 64.140000 38.580000 # CT
 293 1 2 0.0 20.790000 62.810000 40.300000 # CM
 294 1 1 0.0 22.790000 62.130000 42.740000 # CT
 295 1 1 0.0 47.520000 33.100000 36.230000 # CT
 296 1 2 0.0 47.310000 31.440000 33.520000 # CM
 297 1 1 0.0 46.700000 29.230000 31.160000 # CT
 298 1 1 0.0 57.850000 9.750000 36.840000 # CT
 299 1 2 0.0 57.800000 12.070000 34.550000 # CM
 300 1 1 0.0 58.030000 13.430000 31.820000 # CT
 301 1 1 0.0 4.840000 2.270000 14.690000 # CT
 302 1 2 0.0 1.760000 1.700000 14.990000 # CM
 303 1 1 0.0 -1.230000 2.260000 16.010000 # CT
 304 1 1 0.0 59.660000 26.850000 20.270000 # CT
 305 1 2 0.0 59.960000 28.340000 22.820000 # CM
 306 1 1 0.0 62.180000 28.260000 24.830000 # CT
 307 1 1 0.0 24.330000 45.970000 31.850000 # CT
 308 1 2 0.0 23.340000 43.170000 32.960000 # CM
 309 1 1 0.0 21.910000 40.350000 33.670000 # CT
 310 1 1 0.0 19.010000 27.040000 36.010000 # CT
 311 1 2 0.0 19.060000 25.790000 32.990000 # CM
 312 1 1 0.0 19.650000 23.680000 30.960000 # CT
 313 1 1 0.0 15.190000 19.030000 13.040000 # CT
 314 1 2 0.0 17.770000 17.290000 12.220000 # CM
 315 1 1 0.0 20.050000 17.390000 10.160000 # CT
 316 1 1 0.0 3.180000 60.900000 63.330000 # CT
 317 1 2 0.0 3.510000 63.450000 64.850000 # CM
 318 1 1 0.0 2.830000 65.330000 67.400000 # CT
 319 1 1 0.0 32.210000 4.720000 49.600000 # CT
 320 1 2 0.0 34.500000 6.100000 48.480000 # CM
 321 1 1 0.0 37.070000 6.400000 47.030000 # CT
 322 1 1 0.0 55.790000 16.740000 23.690000 # CT
 323 1 2 0.0 57.750000 17.730000 21.230000 # CM
 324 1 1 0.0 60.000000 17.520000 19.360000 # CT
 325 1 1 0.0 64.790000 2.430000 3.760000 # CT
 326 1 2 0.0 62.090000 2.050000 2.060000 # CM
 327 1 1 0.0 59.320000 2.230000 0.320000 # CT
 328 1 1 0.0 51.380000 16.830000 56.930000 # CT
 329 1 2 0.0 49.140000 19.050000 57.190000 # CM
 330 1 1 0.0 46.280000 20.610000 57.030000 # CT
 331 1 1 0.0 53.390000 33.230000 29.740000 # CT
 332 1 2 0.0 56.250000 32.860000 31.090000 # CM
 333 1 1 0.0 58.980000 32.470000 32.760000 # CT
 334 1 1 0.0 30.040000 16.950000 30.270000 # CT
 335 1 2 0.0 28.730000 14.620000 32.230000 # CM
 336 1 1 0.0 26.870000 15.330000 34.480000 # CT
 337 1 1 0.0 2.240000 7.900000 23.090000 # CT
 338 1 2 0.0 -0.040000 6.380000 21.700000 # CM
 339 1 1 0.0 -1.400000 5.570000 18.810000 # CT
 340 1 1 0.0 3.820000 62.670000 36.360000 # CT
 341 1 2 0.0 5.600000 61.810000 33.820000 # CM
 342 1 1 0.0 7.580000 61.150000 31.380000 # CT
 343 1 1 0.0 45.290000 60.680000 34.560000 # CT
 344 1 2 0.0 42.240000 60.240000 35.750000 # CM
 345 1 1 0.0 39.730000 61.690000 36.460000 # CT
 346 1 1 0.0 9.140000 43.800000 22.380000 # CT
 347 1 2 0.0 7.090000 41.860000 23.890000 # CM
 348 1 1 0.0 5.000000 39.720000 25.020000 # CT
 349 1 1 0.0 62.960000 57.270000 7.930000 # CT
 350 1 2 0.0 61.140000 59.140000 6.620000 # CM
 351 1 1 0.0 60.400000 62.100000 5.700000 # CT
 352 1 1 0.0 38.460000 43.910000 46.430000 # CT
 353 1 2 0.0 37.860000 45.240000 43.540000 # CM
 354 1 1 0.0 37.610000 46.750000 40.670000 # CT
 355 1 1 0.0 47.110000 0.620000 32.230000 # CT
 356 1 2 0.0 49.350000 0.750000 30.230000 # CM
 357 1 1 0.0 50.730000 0.010000 27.410000 # CT
 358 1 1 0.0 3.880000 32.600000 6.390000 # CT
 359 1 2 0.0 4.140000 35.520000 5.570000 # CM
 360 1 1 0.0 5.690000 38.070000 4.600000 # CT
 361 1 1 0.0 31.160000 32.260000 39.170000 # CT
 362 1 2 0.0 33.300000 29.890000 39.850000 # CM
 363 1 1 0.0 35.060000 27.270000 39.760000 # CT
 364 1 1 0.0 11.640000 11.700000 9.410000 # CT
 365 1 2 0.0 13.640000 10.100000 7.280000 # CM
 366 1 1 0.0 15.530000 10.610000 5.000000 # CT
 367 1 1 0.0 37.910000 10.070000 33.850000 # CT
 368 1 2 0.0 35.800000 12.180000 34.160000 # CM
 369 1 1 0.0 33.820000 13.990000 32.450000 # CT
 370 1 1 0.0 14.700000 53.350000 38.320000 # CT
 371 1 2 0.0 12.890000 51.150000 37.280000 # CM
 372 1 1 0.0 11.830000 49.590000 34.670000 # CT
 373 1 1 0.0 58.930000 46.470000 41.200000 # CT
 374 1 2 0.0 56.020000 45.600000 41.580000 # CM
 375 1 1 0.0 52.910000 45.210000 40.590000 # CT
 376 1 1 0.0 8.920000 34.900000 25.850000 # CT
 377 1 2 0.0 10.220000 37.570000 25.720000 # CM
 378 1 1 0.0 10.500000 40.860000 25.870000 # CT
 379 1 1 0.0 33.520000 54.370000 54.310000 # CT
 380 1 2 0.0 33.970000 51.130000 54.480000 # CM
 381 1 1 0.0 32.640000 49.280000 53.030000 # CT
 382 1 1 0.0 62.470000 35.950000 52.930000 # CT
 383 1 2 0.0 61.900000 34.980000 50.090000 # CM
 384 1 1 0.0 59.340000 35.200000 49.130000 # CT
 385 1 1 0.0 63.510000 37.370000 20.030000 # CT
 386 1 2 0.0 66.580000 37.020000 18.780000 # CM
 387 1 1 0.0 69.550000 37.080000 17.400000 # CT
 388 1 1 0.0 22.940000 8.180000 39.260000 # CT
 389 1 2 0.0 22.670000 5.400000 37.660000 # CM
 390 1 1 0.0 22.040000 3.240000 35.420000 # CT
 391 1 1 0.0 3.910000 34.350000 60.300000 # CT
 392 1 2 0.0 4.350000 36.820000 62.380000 # CM
 393 1 1 0.0 5.100000 39.110000 64.520000 # CT
 394 1 1 0.0 10.830000 21.970000 57.730000 # CT
 395 1 2 0.0 7.960000 20.820000 58.530000 # CM
 396 1 1 0.0 5.430000 19.350000 59.790000 # CT
 397 1 1 0.0 35.450000 4.000000 54.500000 # CT
 398 1 2 0.0 36.030000 2.060000 51.880000 # CM
 399 1 1 0.0 36.140000 0.330000 49.100000 # CT
 400 1 1 0.0 19.710000 10.430000 54.180000 # CT
 401 1 2 0.0 21.260000 12.570000 56.220000 # CM
 402 1 1 0.0 22.540000 14.220000 58.780000 # CT
 403 1 1 0.0 38.020000 28.080000 3.840000 # CT
 404 1 2 0.0 38.830000 30.390000 1.790000 # CM
 405 1 1 0.0 39.760000 32.260000 -0.760000 # CT
 406 1 1 0.0 55.760000 6.150000 41.090000 # CT
 407 1 2 0.0 53.100000 5.590000 39.780000 # CM
 408 1 1 0.0 49.980000 4.980000 39.920000 # CT
 409 1 1 0.0 57.060000 34.770000 66.180000 # CT
 410 1 2 0.0 59.510000 34.120000 64.580000 # CM
 411 1 1 0.0 62.330000 35.120000 63.180000 # CT
 412 1 1 0.0 39.490000 11.050000 43.510000 # CT
 413 1 2 0.0 41.240000 8.810000 45.150000 # CM
 414 1 1 0.0 42.770000 6.240000 46.570000 # CT
 415 1 1 0.0 65.010000 12.100000 6.770000 # CT
 416 1 2 0.0 65.480000 15.030000 7.280000 # CM
 417 1 1 0.0 64.820000 17.720000 8.220000 # CT
 418 1 1 0.0 42.830000 9.870000 66.590000 # CT
 419 1 2 0.0 43.900000 7.110000 67.390000 # CM
 420 1 1 0.0 44.430000 5.020000 65.830000 # CT
 421 1 1 0.0 8.520000 26.450000 29.510000 # CT
 422 1 2 0.0 9.720000 25.710000 26.880000 # CM
 423 1 1 0.0 9.270000 25.630000 23.680000 # CT
 424 1 1 0.0 36.630000 14.050000 28.520000 # CT
 425 1 2 0.0 39.160000 13.210000 30.540000 # CM
 426 1 1 0.0 41.910000 12.030000 31.940000 # CT
 427 1 1 0.0 58.580000 22.160000 54.590000 # CT
 428 1 2 0.0 60.990000 23.820000 53.650000 # CM
 429 1 1 0.0 63.660000 24.630000 54.750000 # CT
 430 1 1 0.0 43.360000 61.790000 66.060000 # CT
 431 1 2 0.0 40.880000 60.570000 64.910000 # CM
 432 1 1 0.0 38.600000 58.860000 65.990000 # CT
 433 1 1 0.0 16.360000 42.340000 15.870000 # CT
 434 1 2 0.0 15.000000 39.760000 16.630000 # CM
 435 1 1 0.0 15.800000 36.900000 18.190000 # CT
 436 1 1 0.0 63.430000 45.390000 43.770000 # CT
 437 1 2 0.0 61.040000 45.880000 45.830000 # CM
 438 1 1 0.0 58.450000 47.210000 46.000000 # CT
 439 1 1 0.0 1.750000 9.990000 61.300000 # CT
 440 1 2 0.0 -0.260000 7.570000 62.390000 # CM
 441 1 1 0.0 -1.800000 4.970000 63.680000 # CT
 442 1 1 0.0 27.120000 62.030000 23.000000 # CT
 443 1 2 0.0 26.410000 59.170000 23.700000 # CM
 444 1 1 0.0 27.680000 56.260000 23.100000 # CT
 445 1 1 0.0 30.320000 8.900000 50.130000 # CT
 446 1 2 0.0 27.690000 10.180000 51.710000 # CM
 447 1 1 0.0 25.100000 11.940000 52.790000 # CT
 448 1 1 0.0 55.810000 59.290000 43.300000 # CT
 449 1 2 0.0 57.900000 59.980000 40.930000 # CM
 450 1 1 0.0 59.330000 62.030000 39.320000 # CT
 451 1 1 0.0 40.290000 15.200000 15.630000 # CT
 452 1 2 0.0 40.470000 12.310000 14.140000 # CM
 453 1 1 0.0 41.270000 9.330000 13.290000 # CT
 454 1 1 0.0 12.790000 28.830000 44.450000 # CT
 455 1 2 0.0 12.440000 25.690000 44.400000 # CM
 456 1 1 0.0 11.910000 22.710000 43.570000 # CT
 457 1 1 0.0 51.600000 19.660000 5.790000 # CT
 458 1 2 0.0 48.790000 18.600000 6.660000 # CM
 459 1 1 0.0 46.950000 16.240000 7.170000 # CT
 460 1 1 0.0 27.850000 48.030000 2.190000 # CT
 461 1 2 0.0 30.660000 49.200000 2.030000 # CM
 462 1 1 0.0 32.610000 50.630000 -0.220000 # CT
 463 1 1 0.0 54.930000 56.980000 65.100000 # CT
 464 1 2 0.0 54.020000 59.830000 63.700000 # CM
 465 1 1 0.0 53.430000 62.800000 62.570000 # CT
 466 1 1 0.0 54.790000 56.830000 60.920000 # CT
 467 1 2 0.0 57.210000 58.710000 59.980000 # CM
 468 1 1 0.0 59.360000 61.070000 59.270000 # CT
 469 1 1 0.0 65.680000 55.270000 1.690000 # CT
 470 1 2 0.0 68.360000 56.520000 1.390000 # CM
 471 1 1 0.0 69.520000 59.530000 1.900000 # CT
 472 1 1 0.0 59.110000 50.080000 23.660000 # CT
 473 1 2 0.0 58.400000 47.560000 21.670000 # CM
 474 1 1 0.0 56.600000 47.030000 19.350000 # CT
 475 1 1 0.0 9.540000 47.810000 64.390000 # CT
 476 1 2 0.0 8.130000 46.910000 66.930000 # CM
 477 1 1 0.0 5.410000 47.800000 68.780000 # CT
 478 1 1 0.0 21.390000 26.200000 45.550000 # CT
 479 1 2 0.0 19.640000 24.160000 47.400000 # CM
 480 1 1 0.0 18.140000 22.220000 49.420000 # CT
 481 1 1 0.0 36.740000 46.370000 21.010000 # CT
 482 1 2 0.0 36.490000 43.890000 18.780000 # CM
 483 1 1 0.0 36.170000 41.130000 17.090000 # CT
 484 1 1 0.0 28.590000 21.350000 32.650000 # CT
 485 1 2 0.0 25.660000 22.620000 33.090000 # CM
 486 1 1 0.0 22.680000 23.650000 33.990000 # CT
 487 1 1 0.0 23.760000 5.390000 15.740000 # CT
 488 1 2 0.0 24.650000 8.530000 15.620000 # CM
 489 1 1 0.0 26.330000 10.670000 15.020000 # CT
 490 1 1 0.0 65.600000 61.110000 21.600000 # CT
 491 1 2 0.0 66.270000 61.310000 24.430000 # CM
 492 1 1 0.0 68.800000 60.630000 26.060000 # CT
 493 1 1 0.0 57.340000 27.210000 6.800000 # CT
 494 1 2 0.0 54.550000 25.850000 7.680000 # CM
 495 1 1 0.0 52.040000 24.330000 7.510000 # CT
 496 1 1 0.0 18.830000 35.950000 27.940000 # CT
 497 1 2 0.0 21.060000 35.590000 29.910000 # CM
 498 1 1 0.0 22.400000 36.220000 32.780000 # CT
 499 1 1 0.0 66.370000 5.880000 58.080000 # CT
 500 1 2 0.0 69.160000 4.570000 58.940000 # CM
 501 1 1 0.0 71.830000 3.110000 59.970000 # CT
 502 1 1 0.0 0.730000 5.850000 31.860000 # CT
 503 1 2 0.0 2.060000 5.850000 28.780000 # CM
 504 1 1 0.0 3.700000 4.810000 26.180000 # CT
 505 1 1 0.0 44.050000 50.500000 52.240000 # CT
 506 1 2 0.0 42.740000 51.400000 55.120000 # CM
 507 1 1 0.0 42.030000 52.860000 57.980000 # CT
 508 1 1 0.0 57.820000 0.910000 37.540000 # CT
 509 1 2 0.0 60.610000 -0.400000 37.120000 # CM
 510 1 1 0.0 63.800000 -0.790000 37.550000 # CT
 511 1 1 0.0 42.050000 19.120000 26.130000 # CT
 512 1 2 0.0 43.520000 20.780000 28.430000 # CM
 513 1 1 0.0 45.060000 22.140000 30.990000 # CT
 514 1 1 0.0 50.280000 5.820000 53.860000 # CT
 515 1 2 0.0 49.460000 5.620000 50.730000 # CM
 516 1 1 0.0 48.280000 5.230000 47.690000 # CT
 517 1 1 0.0 39.270000 29.880000 56.380000 # CT
 518 1 2 0.0 40.900000 30.050000 58.900000 # CM
 519 1 1 0.0 42.880000 32.560000 58.870000 # CT
 520 1 1 0.0 17.460000 12.970000 58.050000 # CT
 521 1 2 0.0 17.300000 13.050000 61.240000 # CM
 522 1 1 0.0 16.830000 13.680000 64.400000 # CT
 523 1 1 0.0 19.310000 42.070000 11.470000 # CT
 524 1 2 0.0 16.110000 41.410000 11.700000 # CM
 525 1 1 0.0 12.860000 40.300000 12.010000 # CT
 526 1 1 0.0 0.730000 10.020000 49.110000 # CT
 527 1 2 0.0 -1.480000 7.750000 49.420000 # CM
 528 1 1 0.0 -3.530000 5.310000 49.900000 # CT
 529 1 1 0.0 49.840000 5.270000 20.310000 # CT
 530 1 2 0.0 50.870000 7.230000 18.240000 # CM
 531 1 1 0.0 52.000000 8.480000 15.700000 # CT
 532 1 1 0.0 8.160000 3.890000 48.570000 # CT
 533 1 2 0.0 8.230000 5.610000 51.330000 # CM
 534 1 1 0.0 8.290000 7.430000 54.090000 # CT
 535 1 1 0.0 37.660000 59.290000 49.100000 # CT
 536 1 2 0.0 39.940000 60.120000 50.650000 # CM
 537 1 1 0.0 42.570000 59.580000 52.400000 # CT
 538 1 1 0.0 21.560000 17.050000 18.120000 # CT
 539 1 2 0.0 23.550000 14.900000 18.360000 # CM
 540 1 1 0.0 22.990000 12.240000 19.550000 # CT
 541 1 1 0.0 48.460000 48.150000 64.140000 # CT
 542 1 2 0.0 50.000000 45.580000 65.310000 # CM
 543 1 1 0.0 51.920000 43.280000 66.510000 # CT
 544 1 1 0.0 55.620000 1.020000 8.330000 # CT
 545 1 2 0.0 54.020000 -1.370000 9.790000 # CM
 546 1 1 0.0 52.830000 -3.860000 11.460000 # CT
 547 1 1 0.0 29.100000 21.950000 14.100000 # CT
 548 1 2 0.0 31.480000 20.850000 16.090000 # CM
 549 1 1 0.0 33.980000 19.560000 17.620000 # CT
 550 1 1 0.0 4.820000 57.460000 19.710000 # CT
 551 1 2 0.0 4.210000 59.430000 21.760000 # CM
 552 1 1 0.0 4.290000 62.650000 22.330000 # CT
 553 1 1 0.0 27.830000 21.330000 51.820000 # CT
 554 1 2 0.0 28.260000 20.570000 49.070000 # CM
 555 1 1 0.0 29.880000 20.650000 46.260000 # CT
 556 1 1 0.0 7.470000 36.390000 37.720000 # CT
 557 1 2 0.0 6.830000 37.960000 35.040000 # CM
 558 1 1 0.0 5.850000 39.650000 32.470000 # CT
 559 1 1 0.0 34.370000 0.430000 24.890000 # CT
 560 1 2 0.0 33.520000 -0.290000 22.550000 # CM
 561 1 1 0.0 34.670000 0.250000 19.460000 # CT
 562 1 1 0.0 24.150000 61.870000 30.890000 # CT
 563 1 2 0.0 23.030000 58.860000 31.190000 # CM
 564 1 1 0.0 22.440000 55.800000 31.460000 # CT
 565 1 1 0.0 29.820000 20.720000 28.590000 # CT
 566 1 2 0.0 31.580000 22.640000 27.090000 # CM
 567 1 1 0.0 34.380000 24.010000 26.430000 # CT
 568 1 1 0.0 33.110000 4.600000 59.670000 # CT
 569 1 2 0.0 31.490000 1.940000 60.660000 # CM
 570 1 1 0.0 30.070000 -0.500000 62.130000 # CT
 571 1 1 0.0 43.370000 30.430000 29.000000 # CT
 572 1 2 0.0 43.670000 29.630000 26.210000 # CM
 573 1 1 0.0 42.400000 27.670000 23.890000 # CT
 574 1 1 0.0 11.380000 3.080000 40.310000 # CT
 575 1 2 0.0 13.480000 5.190000 41.740000 # CM
 576 1 1 0.0 15.470000 7.370000 43.130000 # CT
 577 1 1 0.0 63.000000 24.740000 22.500000 # CT
 578 1 2 0.0 64.960000 24.390000 20.370000 # CM
 579 1 1 0.0 64.810000 24.650000 17.170000 # CT
 580 1 1 0.0 64.700000 39.950000 27.820000 # CT
 581 1 2 0.0 65.910000 37.400000 26.190000 # CM
 582 1 1 0.0 67.350000 34.950000 24.730000 # CT
 583 1 1 0.0 60.200000 4.210000 37.420000 # CT
 584 1 2 0.0 60.790000 6.820000 35.580000 # CM
 585 1 1 0.0 61.620000 8.380000 33.070000 # CT
 586 1 1 0.0 47.270000 17.650000 26.860000 # CT
 587 1 2 0.0 46.980000 18.850000 23.920000 # CM
 588 1 1 0.0 46.270000 19.650000 20.880000 # CT
 589 1 1 0.0 65.190000 60.570000 66.150000 # CT
 590 1 2 0.0 65.090000 63.830000 65.940000 # CM
 591 1 1 0.0 65.790000 66.900000 66.610000 # CT
 592 1 1 0.0 58.050000 32.510000 37.510000 # CT
 593 1 2 0.0 61.000000 33.680000 36.660000 # CM
 594 1 1 0.0 64.000000 34.660000 35.820000 # CT
 595 1 1 0.0 54.450000 10.130000 51.870000 # CT
 596 1 2 0.0 55.730000 7.510000 52.700000 # CM
 597 1 1 0.0 54.550000 5.070000 54.410000 # CT
 598 1 1 0.0 40.830000 44.200000 50.240000 # CT
 599 1 2 0.0 43.520000 43.150000 51.380000 # CM
 600 1 1 0.0 45.680000 41.780000 53.500000 # CT
 601 1 1 0.0 27.110000 37.180000 36.940000 # CT
 602 1 2 0.0 27.700000 39.700000 37.000000 # CM
 603 1 1 0.0 26.620000 42.300000 35.400000 # CT
 604 1 1 0.0 61.960000 52.220000 31.890000 # CT
 605 1 2 0.0 64.390000 52.530000 33.520000 # CM
 606 1 1 0.0 65.190000 51.920000 36.370000 # CT
 607 1 1 0.0 17.230000 19.830000 60.390000 # CT
 608 1 2 0.0 16.620000 19.610000 63.650000 # CM
 609 1 1 0.0 15.520000 17.490000 65.580000 # CT
 610 1 1 0.0 36.260000 13.440000 55.690000 # CT
 611 1 2 0.0 35.830000 10.550000 57.090000 # CM
 612 1 1 0.0 34.680000 7.820000 57.400000 # CT
 613 1 1 0.0 65.830000 64.870000 33.650000 # CT
 614 1 2 0.0 68.170000 66.350000 32.140000 # CM
 615 1 1 0.0 69.530000 68.960000 30.690000 # CT
 616 1 1 0.0 63.810000 38.010000 48.480000 # CT
 617 1 2 0.0 62.150000 40.730000 48.690000 # CM
 618 1 1 0.0 60.490000 42.750000 50.070000 # CT
 619 1 1 0.0 49.890000 42.880000 18.580000 # CT
 620 1 2 0.0 50.250000 41.410000 15.710000 # CM
 621 1 1 0.0 51.960000 39.680000 13.990000 # CT
 622 1 1 0.0 24.570000 32.680000 59.550000 # CT
 623 1 2 0.0 23.970000 30.830000 62.190000 # CM