LAMMPS data file via write_data, version 7 Feb 2024, timestep = 0, units = lj

2 atoms
1 atom types

0 1.074569931823542 xlo xhi
0 1.8612097182041991 ylo yhi
-0.537284965911771 0.537284965911771 zlo zhi

Masses

1 1

Atoms # atomic

1 1 0 0 0 0 0 0
2 1 0.537284965911771 0.9306048591020996 0 0 0 0

Velocities

1 0 0 0
2 0 0 0
