LAMMPS data file via write_data, version 7 Feb 2024, timestep = 0, units = lj

4 atoms
1 atom types

0 1.5377619196572583 xlo xhi
0 1.5377619196572583 ylo yhi
0 1.5377619196572583 zlo zhi

Masses

1 1

Atoms # atomic

1 1 0 0 0 0 0 0
2 1 0 0.7688809598286291 0.7688809598286291 0 0 0
3 1 0.7688809598286291 0.7688809598286291 0 0 0 0
4 1 0.7688809598286291 0 0.7688809598286291 0 0 0

Velocities

1 0 0 0
2 0 0 0
3 0 0 0
4 0 0 0
