LAMMPS data file via write_data, version 7 Feb 2024, timestep = 0, units = lj

2 atoms
1 atom types

0 1.348399724926484 xlo xhi
0 1.348399724926484 ylo yhi
-0.674199862463242 0.674199862463242 zlo zhi

Masses

1 1

Atoms # atomic

1 1 0 0 0 0 0 0
2 1 0.674199862463242 0.674199862463242 0 0 0 0

Velocities

1 0 0 0
2 0 0 0
