LAMMPS data file via write_data, version 7 Feb 2024, timestep = 0, units = lj

2 atoms
1 atom types

0 1.2599210498948732 xlo xhi
0 1.2599210498948732 ylo yhi
0 1.2599210498948732 zlo zhi

Masses

1 1

Atoms # atomic

1 1 0 0 0 0 0 0
2 1 0.6299605249474366 0.6299605249474366 0.6299605249474366 0 0 0

Velocities

1 0 0 0
2 0 0 0
