ITEM: TIMESTEP
0
ITEM: NUMBER OF ATOMS
1
ITEM: BOX BOUNDS abc origin pp pp pp
1.0745699318262956e+00 0.0000000000000000e+00 0.0000000000000000e+00 0.0000000000000000e+00
5.3728496591314778e-01 9.3060485909971469e-01 0.0000000000000000e+00 0.0000000000000000e+00
0.0000000000000000e+00 0.0000000000000000e+00 1.0745699318262956e+00 -5.3728496591314778e-01
ITEM: ATOMS id type x y z
1 1 0 0 0
