ITEM: TIMESTEP
0
ITEM: NUMBER OF ATOMS
4
ITEM: BOX BOUNDS pp pp pp
0.0000000000000000e+00 1.5377619196572583e+00
0.0000000000000000e+00 1.5377619196572583e+00
0.0000000000000000e+00 1.5377619196572583e+00
ITEM: ATOMS id type x y z
1 1 0 0 0
2 1 0.768881 0.768881 0
3 1 0.768881 0 0.768881
4 1 0 0.768881 0.768881
