ITEM: TIMESTEP
0
ITEM: NUMBER OF ATOMS
2
ITEM: BOX BOUNDS pp pp pp
0.0000000000000000e+00 1.3483997249264841e+00
0.0000000000000000e+00 1.3483997249264841e+00
-6.7419986246324204e-01 6.7419986246324204e-01
ITEM: ATOMS id type x y z
1 1 0 0 0
2 1 0.6742 0.6742 0
