ITEM: TIMESTEP
0
ITEM: NUMBER OF ATOMS
2
ITEM: BOX BOUNDS pp pp pp
0.0000000000000000e+00 1.2599210498948732e+00
0.0000000000000000e+00 1.2599210498948732e+00
0.0000000000000000e+00 1.2599210498948732e+00
ITEM: ATOMS id type x y z
1 1 0 0 0
2 1 0.629961 0.629961 0.629961
