ITEM: TIMESTEP
0
ITEM: NUMBER OF ATOMS
2
ITEM: BOX BOUNDS abc origin pp pp pp
9.9999999999999978e-01 -1.0000000000000000e+00 0.0000000000000000e+00 0.0000000000000000e+00
9.9999999999999989e-01 9.9999999999999989e-01 0.0000000000000000e+00 0.0000000000000000e+00
9.9999999999999989e-01 9.9999999999999989e-01 1.0000000000000000e+00 0.0000000000000000e+00
ITEM: ATOMS id type x y z
1 1 0.141421 0.141421 0.1
2 1 0.565685 0.565685 0.3
