ITEM: TIMESTEP
0
ITEM: NUMBER OF ATOMS
1
ITEM: BOX BOUNDS abc origin pp pp pp
7.6888095982862914e-01 7.6888095982862925e-01 -6.0360709832623663e-17 0.0000000000000000e+00
-5.5511151231257827e-17 7.6888095982862925e-01 7.6888095982862925e-01 0.0000000000000000e+00
7.6888095982862903e-01 0.0000000000000000e+00 7.6888095982862903e-01 0.0000000000000000e+00
ITEM: ATOMS id type x y z
1 1 0 0 0
