ITEM: TIMESTEP
0
ITEM: NUMBER OF ATOMS
2
ITEM: BOX BOUNDS pp pp pp
0.0000000000000000e+00 1.0745699318235420e+00
0.0000000000000000e+00 1.8612097182041991e+00
-5.3728496591177100e-01 5.3728496591177100e-01
ITEM: ATOMS id type x y z
1 1 0 0 0
2 1 0.537285 0.930605 0
