ITEM: TIMESTEP
0
ITEM: NUMBER OF ATOMS
1
ITEM: BOX BOUNDS abc origin pp pp pp
-6.2996052494743648e-01 6.2996052494743648e-01 6.2996052494743637e-01 0.0000000000000000e+00
6.2996052494743671e-01 -6.2996052494743648e-01 6.2996052494743648e-01 0.0000000000000000e+00
6.2996052494743626e-01 6.2996052494743648e-01 -6.2996052494743626e-01 0.0000000000000000e+00
ITEM: ATOMS id type x y z
1 1 0 0 0
