ITEM: TIMESTEP
0
ITEM: NUMBER OF ATOMS
1
ITEM: BOX BOUNDS abc origin pp pp pp
6.7419986246324193e-01 -6.7419986246324204e-01 0.0000000000000000e+00 0.0000000000000000e+00
6.7419986246324193e-01 6.7419986246324204e-01 0.0000000000000000e+00 0.0000000000000000e+00
0.0000000000000000e+00 0.0000000000000000e+00 1.3483997249264841e+00 -6.7419986246324204e-01
ITEM: ATOMS id type x y z
1 1 0 0 0
