LAMMPS (16 Aug 2013)
Reading data file ...
  orthogonal box = (-160 -160 -40) to (160 160 280)
  2 by 2 by 2 MPI processor grid
  320 atoms
320 atoms in group sphere1
Using a lattice-Boltzmann grid of 80 by 80 by 81 total grid points. (../fix_lb_fluid.cpp:354)
1 rigid bodies with 320 atoms
Setting up run ...
Memory usage per processor = 6.04489 Mbytes
vx vy vz omegax omegay omegaz 
           0            0            0            0            0            0 
4.2764235e-51 1.7105694e-51 1.4257459e-18 1.1272054e-35 2.9034121e-40 7.0912634e-40 
-3.2500819e-51 1.8816264e-51 -1.9992479e-18 -4.5088447e-35 -9.0188167e-36 -8.9412563e-40 
-1.453984e-51 1.0263416e-51 -1.5343541e-18 -2.930734e-35 -7.5492074e-40 -3.9349497e-40 
1.1118701e-51 3.9000983e-50 -1.157397e-18 -2.7052697e-35 9.0169584e-36 -3.5073945e-40 
-3.4211388e-52 1.8816264e-50 -1.1557968e-18 -2.930734e-35 -7.5491763e-40 -5.2765272e-40 
-8.894961e-51 2.3434801e-50 -1.15579e-18 -1.3526464e-35 -3.484214e-40 -3.3500001e-40 
3.6917769e-24 -3.9814617e-20 -4.9468439e-18 6.0589009e-21 3.5511201e-21 4.7382192e-25 
4.580282e-21 2.7518274e-19 5.9355719e-18 -1.4198463e-20 5.5190568e-20 9.8636629e-22 
 6.20583e-20 2.7454933e-19 2.9048822e-17 1.0511228e-20 6.0156514e-20 4.2274046e-21 
1.7904722e-19 2.2007112e-18 1.0855306e-15 -5.6711678e-20 5.6990609e-20 -2.6154892e-20 
-1.4106253e-18 1.1863531e-18 3.0035963e-15 4.6863058e-20 -2.4466265e-20 7.1488087e-20 
-1.0606463e-18 -1.533033e-18 3.6272492e-15 5.7783193e-20 5.9967544e-20 -1.1032896e-19 
-6.5854864e-19 -1.0811555e-17 3.1722136e-15 1.7271701e-20 -9.5285698e-20 -1.2932528e-19 
2.7128877e-18 -4.9114569e-18 2.3118418e-15 -1.5539634e-19 -9.484692e-20 5.9064966e-21 
2.562809e-18 7.8645656e-19 1.7408247e-15 -2.7328988e-19 -1.4867411e-19 -3.5300465e-21 
4.4899118e-18 2.3618913e-17 1.8042999e-15 -2.0528407e-18 -1.7713894e-19 -1.4259377e-19 
-1.6593193e-18 1.0457988e-16 1.3119934e-15 -8.5309464e-18 -5.7639901e-20 -2.2544334e-19 
-1.6212144e-17 3.2840354e-16 1.1560444e-15 -2.7753777e-17 -8.6734135e-20 -2.139917e-19 
-1.7446949e-17 1.1633684e-15 1.3454751e-15 -8.1761961e-17 8.6274519e-21 -2.8813382e-19 
-6.1945547e-19 3.3084189e-15 1.0867678e-15 -2.2167199e-16 -2.9999697e-19 1.5846641e-20 
1.7811164e-17 8.4505235e-15 4.4011439e-16 -5.4848673e-16 -3.3748547e-19 3.5408636e-20 
9.9580856e-18 1.9981537e-14 2.1425638e-16 -1.2545121e-15 -2.9135645e-19 2.5904446e-19 
3.2752755e-18 4.4091672e-14  8.18034e-18 -2.6886739e-15 -3.8580422e-19 3.9973682e-19 
1.7547738e-17 9.1734941e-14 -5.62415e-16 -5.4413442e-15 -1.4291007e-19 5.8453123e-19 
1.0801896e-17 1.8124196e-13 -1.1638841e-15 -1.0470345e-14 5.1657392e-19 1.1485626e-18 
6.632985e-18 3.4171727e-13 -1.425415e-15 -1.9257153e-14 1.3026995e-18 2.432017e-18 
-4.0770339e-18 6.1801888e-13 -1.3363486e-15 -3.4008823e-14 2.613107e-18 4.7235279e-18 
-1.1098023e-17 1.0770421e-12 -1.1614732e-15 -5.7898899e-14 4.4613212e-18 7.828166e-18 
-9.7712751e-18 1.8148853e-12 -1.1386567e-15 -9.5348886e-14 7.8803702e-18 1.274387e-17 
-1.7979369e-18 2.9658401e-12 -1.2907143e-15 -1.523454e-13 1.2964683e-17 2.0149608e-17 
2.1088248e-17 4.7128921e-12 -1.5922473e-15 -2.3678998e-13 2.0834459e-17 3.1527204e-17 
1.9996763e-17 7.2993848e-12 -1.9642747e-15 -3.5886673e-13 3.2160407e-17 4.8385385e-17 
2.4059755e-17 1.1042203e-11 -2.3378941e-15 -5.3142673e-13 4.928841e-17 7.2286996e-17 
1.4436483e-17 1.6345887e-11 -2.7310457e-15 -7.7036974e-13 7.2721634e-17 1.0562231e-16 
-1.1058251e-18 2.3717578e-11 -3.0564463e-15 -1.0950215e-12 1.0547215e-16 1.515461e-16 
-1.4825664e-17 3.3782758e-11 -3.3196107e-15 -1.5284898e-12 1.4993025e-16 2.1306341e-16 
-1.3940017e-17 4.7301287e-11 -3.6182193e-15 -2.0979872e-12 2.0936457e-16 2.942851e-16 
-7.895898e-18 6.5183106e-11 -4.109169e-15 -2.8351227e-12 2.8768775e-16 4.0027312e-16 
-7.1909055e-18 8.8504037e-11 -4.9961157e-15 -3.7761388e-12 3.8935808e-16 5.3698734e-16 
-2.6867674e-18 1.1852085e-10 -6.4993001e-15 -4.9621021e-12 5.1997357e-16 7.1000787e-16 
-4.5529719e-18 1.5668549e-10 -8.7727899e-15 -6.439036e-12 6.8396528e-16 9.2733549e-16 
-9.3097686e-18 2.0465809e-10 -1.1840271e-14 -8.2579924e-12 8.8946322e-16 1.1963999e-15 
1.5307933e-17 2.6431869e-10 -1.566458e-14 -1.0475065e-11 1.1433203e-15 1.5267365e-15 
2.3851476e-17 3.377774e-10 -2.0245855e-14 -1.3151347e-11 1.4541413e-15 1.927779e-15 
2.9071105e-17 4.2738274e-10 -2.5661736e-14 -1.6352822e-11 1.8302081e-15 2.4096023e-15 
4.8713891e-17 5.3572828e-10 -3.2104516e-14 -2.0150212e-11 2.2816814e-15 2.9846044e-15 
5.7160901e-17 6.656574e-10 -3.9701138e-14 -2.4618768e-11 2.8189811e-15 3.6651196e-15 
6.0681268e-17 8.2026591e-10 -4.8570855e-14 -2.9838019e-11 3.4532593e-15 4.4640893e-15 
7.3722927e-17 1.0029028e-09 -5.8775567e-14 -3.5891477e-11 4.1962615e-15 5.3952293e-15 
8.6037369e-17 1.2171691e-09 -7.0484588e-14 -4.2866317e-11 5.0613141e-15 6.4727136e-15 
1.0491122e-16 1.4669147e-09 -8.3854506e-14 -5.085302e-11 6.0606092e-15 7.712668e-15 
1.193634e-16 1.7562334e-09 -9.9062157e-14 -5.9944995e-11 7.2085408e-15 9.1312187e-15 
1.6043312e-16 2.0894565e-09 -1.1624555e-13 -7.0238193e-11 8.5192989e-15 1.0742766e-14 
2.1067681e-16 2.471144e-09 -1.3554816e-13 -8.1830697e-11 1.0007678e-14 1.2565399e-14 
2.509199e-16 2.9060754e-09 -1.570957e-13 -9.482232e-11 1.168915e-14 1.4615978e-14 
3.0995866e-16 3.3992381e-09 -1.8109813e-13 -1.0931419e-10 1.3578638e-14 1.6911975e-14 
3.5225673e-16 3.9558153e-09 -2.0773347e-13 -1.2540834e-10 1.5692298e-14 1.947062e-14 
4.0274558e-16 4.5811725e-09 -2.3719964e-13 -1.4320733e-10 1.8046558e-14 2.231025e-14 
4.6424601e-16 5.2808433e-09 -2.6968409e-13 -1.6281382e-10 2.0657036e-14 2.5448754e-14 
5.1863793e-16 6.0605144e-09 -3.0531756e-13 -1.8433023e-10 2.3540149e-14 2.8903779e-14 
5.9553452e-16 6.9260095e-09 -3.4420091e-13 -2.0785837e-10 2.6712525e-14 3.2693099e-14 
6.8646697e-16 7.8832736e-09 -3.8644072e-13 -2.3349909e-10 3.0190182e-14 3.6834851e-14 
7.6125167e-16 8.9383564e-09 -4.3218211e-13 -2.6135197e-10 3.3988797e-14 4.1346648e-14 
8.5628562e-16 1.0097395e-08 -4.8152496e-13 -2.9151502e-10 3.8125286e-14 4.6245413e-14 
9.6507709e-16 1.1366599e-08 -5.3464253e-13 -3.2408438e-10 4.2614984e-14 5.1548828e-14 
1.074354e-15 1.2752231e-08 -5.9177514e-13 -3.5915408e-10 4.7473644e-14 5.7273098e-14 
1.1988369e-15 1.4260591e-08 -6.5312519e-13 -3.9681582e-10 5.2717282e-14 6.343543e-14 
1.3344748e-15 1.5898002e-08 -7.1890853e-13 -4.3715873e-10 5.8360429e-14 7.005115e-14 
1.4893009e-15 1.7670791e-08 -7.8921751e-13 -4.8026919e-10 6.4418086e-14 7.7136133e-14 
1.6361605e-15 1.9585276e-08 -8.6418225e-13 -5.2623066e-10 7.0903518e-14 8.4705468e-14 
1.8005799e-15 2.1647748e-08 -9.438669e-13 -5.7512355e-10 7.7831618e-14 9.2773537e-14 
1.9792245e-15 2.3864458e-08 -1.0283481e-12 -6.2702505e-10 8.5215506e-14 1.0135441e-13 
2.1686369e-15 2.6241604e-08 -1.1176973e-12 -6.8200909e-10 9.306827e-14 1.1046127e-13 
2.3588783e-15 2.8785313e-08 -1.2119702e-12 -7.4014616e-10 1.0140242e-13 1.2010719e-13 
2.5688185e-15 3.1501634e-08 -1.3112136e-12 -8.0150333e-10 1.1022944e-13 1.3030463e-13 
2.8007496e-15 3.4396523e-08 -1.4155345e-12 -8.6614415e-10 1.195617e-13 1.4106502e-13 
3.0374764e-15 3.747583e-08 -1.5249682e-12 -9.3412859e-10 1.2940916e-13 1.5239909e-13 
3.2968112e-15 4.074529e-08 -1.6395718e-12 -1.0055131e-09 1.3978257e-13 1.6431759e-13 
3.5698319e-15 4.4210513e-08 -1.7593942e-12 -1.0803504e-09 1.5069173e-13 1.7683009e-13 
3.8677425e-15 4.7876976e-08 -1.8844614e-12 -1.1586898e-09 1.6214514e-13 1.8994579e-13 
4.1861807e-15 5.175001e-08 -2.0148188e-12 -1.240577e-09 1.7415258e-13 2.0367293e-13 
4.5258841e-15 5.5834796e-08 -2.1504856e-12 -1.3260541e-09 1.867211e-13 2.1801932e-13 
4.8842474e-15 6.0136357e-08 -2.2915001e-12 -1.4151595e-09 1.9985852e-13 2.3299219e-13 
5.2712888e-15 6.4659551e-08 -2.4379044e-12 -1.5079286e-09 2.1357198e-13 2.4859847e-13 
5.6790497e-15 6.9409066e-08 -2.5897017e-12 -1.6043928e-09 2.2786815e-13 2.6484352e-13 
6.112135e-15 7.4389414e-08 -2.7468932e-12 -1.7045806e-09 2.4275247e-13 2.8173315e-13 
6.5737448e-15 7.9604925e-08 -2.9094946e-12 -1.8085169e-09 2.5822973e-13 2.9927207e-13 
7.0560472e-15 8.5059749e-08 -3.0774932e-12 -1.9162236e-09 2.7430543e-13 3.1746391e-13 
7.5750376e-15 9.0757844e-08 -3.250863e-12 -2.0277191e-09 2.9098352e-13 3.3631279e-13 
8.1197203e-15 9.6702982e-08 -3.429545e-12 -2.143019e-09 3.0826753e-13 3.5582135e-13 
8.6997839e-15 1.0289874e-07 -3.6135251e-12 -2.2621358e-09 3.2616073e-13  3.75992e-13 
9.3153217e-15 1.0934851e-07 -3.8027748e-12 -2.385079e-09 3.446654e-13 3.968266e-13 
9.9639635e-15 1.1605547e-07 -3.9973101e-12 -2.5118554e-09 3.6378446e-13 4.1832705e-13 
1.0670266e-14 1.2302262e-07 -4.197169e-12 -2.6424688e-09 3.8351944e-13 4.4049376e-13 
1.1398359e-14 1.3025277e-07 -4.4023128e-12 -2.7769206e-09 4.0387139e-13 4.6332769e-13 
1.2186166e-14 1.3774851e-07 -4.6127413e-12 -2.9152095e-09 4.2484077e-13 4.8682834e-13 
1.3016373e-14 1.4551225e-07 -4.8284396e-12 -3.0573316e-09 4.4642863e-13 5.1099501e-13 
1.3880661e-14 1.5354622e-07 -5.0493454e-12 -3.2032808e-09 4.6863485e-13 5.3582728e-13 
1.4787994e-14 1.6185244e-07 -5.275412e-12 -3.3530485e-09 4.9145877e-13 5.6132354e-13 
1.5746367e-14 1.7043275e-07 -5.506606e-12 -3.5066241e-09 5.1489941e-13 5.8748176e-13 
1.675597e-14 1.7928878e-07 -5.7428147e-12 -3.6639945e-09 5.3895582e-13 6.1430029e-13 
1.7839686e-14  1.88422e-07 -5.9839865e-12 -3.825145e-09 5.6362636e-13 6.4177587e-13 
1.8963796e-14 1.978337e-07 -6.2300561e-12 -3.9900586e-09 5.8890912e-13 6.6990635e-13 
 2.01365e-14 2.0752496e-07 -6.4809146e-12 -4.1587165e-09 6.1480156e-13 6.9868842e-13 
2.1359156e-14 2.1749671e-07 -6.7365235e-12 -4.3310982e-09 6.4130146e-13 7.2811816e-13 
2.2668726e-14 2.277497e-07 -6.9967921e-12 -4.5071815e-09 6.6840606e-13 7.5819161e-13 
2.4027332e-14 2.3828449e-07 -7.2616451e-12 -4.6869425e-09 6.9611193e-13 7.8890523e-13 
2.5453166e-14 2.4910151e-07 -7.530998e-12 -4.8703556e-09 7.2441524e-13 8.2025417e-13 
2.6950901e-14 2.6020098e-07 -7.8048091e-12 -5.0573942e-09 7.5331294e-13 8.5223381e-13 
2.850871e-14 2.7158301e-07 -8.0829775e-12 -5.2480297e-09 7.8280018e-13 8.8483863e-13 
3.0147254e-14 2.8324751e-07 -8.3654559e-12 -5.4422327e-09 8.1287388e-13 9.1806424e-13 
3.1851505e-14 2.9519426e-07 -8.6521757e-12 -5.6399722e-09 8.4352878e-13 9.5190504e-13 
3.3607736e-14 3.074229e-07 -8.9430369e-12 -5.8412163e-09 8.7476116e-13 9.8635513e-13 
3.5460248e-14 3.1993291e-07 -9.2379771e-12 -6.0459317e-09 9.0656538e-13 1.0214089e-12 
3.7389819e-14 3.3272363e-07 -9.5369223e-12 -6.2540844e-09 9.3893635e-13 1.0570603e-12 
3.9378822e-14 3.4579429e-07 -9.8397842e-12 -6.4656392e-09 9.718685e-13 1.093303e-12 
4.1465301e-14 3.5914395e-07 -1.0146464e-11 -6.6805599e-09 1.0053575e-12 1.1301305e-12 
4.3627857e-14 3.7277157e-07 -1.0456884e-11 -6.8988097e-09 1.0393965e-12 1.1675364e-12 
4.5884394e-14 3.8667598e-07 -1.0770959e-11 -7.1203509e-09 1.073981e-12 1.2055148e-12 
4.8221057e-14 4.008559e-07 -1.1088632e-11 -7.3451449e-09 1.1091039e-12 1.244058e-12 
5.0648689e-14 4.1530992e-07 -1.1409832e-11 -7.5731528e-09 1.1447602e-12 1.2831596e-12 
5.3148788e-14 4.3003653e-07 -1.173451e-11 -7.8043346e-09 1.1809434e-12 1.322812e-12 
5.5740302e-14 4.4503411e-07 -1.2062619e-11 -8.0386501e-09 1.2176471e-12 1.3630085e-12 
5.8427986e-14 4.6030095e-07 -1.2394099e-11 -8.2760584e-09 1.2548655e-12 1.4037419e-12 
6.121887e-14 4.7583523e-07 -1.2728874e-11 -8.5165181e-09 1.2925916e-12 1.4450048e-12 
6.4084164e-14 4.9163505e-07 -1.3066863e-11 -8.7599875e-09 1.3308187e-12 1.4867902e-12 
6.7047512e-14 5.0769839e-07 -1.3408017e-11 -9.0064243e-09 1.3695409e-12 1.5290904e-12 
7.0101183e-14 5.2402318e-07 -1.3752225e-11 -9.2557861e-09 1.408751e-12 1.5718977e-12 
7.3254465e-14 5.4060726e-07 -1.4099428e-11 -9.5080299e-09 1.4484425e-12 1.6152051e-12 
7.650118e-14 5.5744837e-07 -1.4449527e-11 -9.7631127e-09 1.4886085e-12 1.6590041e-12 
7.9849867e-14 5.7454421e-07 -1.4802419e-11 -1.0020991e-08 1.5292421e-12 1.7032879e-12 
8.3301004e-14 5.9189239e-07 -1.5158012e-11 -1.0281622e-08 1.5703364e-12 1.7480488e-12 
8.6857116e-14 6.0949044e-07 -1.5516238e-11 -1.054496e-08 1.6118844e-12 1.7932786e-12 
9.0517032e-14 6.2733587e-07 -1.5877006e-11 -1.0810964e-08 1.6538791e-12 1.8389703e-12 
9.4274721e-14 6.4542608e-07 -1.6240239e-11 -1.1079588e-08 1.6963137e-12 1.8851154e-12 
9.8130971e-14 6.6375845e-07 -1.6605858e-11 -1.1350788e-08 1.7391806e-12 1.9317067e-12 
1.0208739e-13 6.823303e-07 -1.697378e-11 -1.1624521e-08 1.7824729e-12 1.9787359e-12 
1.0616848e-13 7.0113889e-07 -1.7343933e-11 -1.1900742e-08 1.8261847e-12 2.026196e-12 
1.1033254e-13 7.2018144e-07 -1.7716257e-11 -1.2179408e-08 1.8703075e-12 2.0740788e-12 
1.1462119e-13 7.3945512e-07 -1.8090683e-11 -1.2460474e-08 1.9148346e-12 2.1223769e-12 
1.1901387e-13 7.5895708e-07 -1.8467117e-11 -1.2743896e-08 1.959759e-12 2.1710822e-12 
1.2349847e-13 7.7868441e-07 -1.8845499e-11 -1.3029631e-08 2.0050734e-12 2.2201871e-12 
1.2808993e-13 7.9863417e-07 -1.9225758e-11 -1.3317635e-08 2.0507711e-12 2.2696842e-12 
1.3279279e-13 8.1880341e-07 -1.9607823e-11 -1.3607863e-08 2.0968449e-12 2.3195662e-12 
1.3760774e-13 8.3918912e-07 -1.9991622e-11 -1.3900273e-08 2.1432875e-12 2.3698244e-12 
1.4253714e-13 8.5978828e-07 -2.0377089e-11 -1.4194822e-08 2.1900922e-12 2.4204516e-12 
1.475784e-13 8.8059784e-07 -2.0764153e-11 -1.4491465e-08 2.2372519e-12 2.471441e-12 
1.527168e-13 9.0161475e-07 -2.1152752e-11 -1.4790161e-08 2.2847595e-12 2.522784e-12 
1.5797699e-13 9.228359e-07 -2.1542829e-11 -1.5090865e-08 2.3326077e-12 2.5744736e-12 
1.6334279e-13 9.442582e-07 -2.1934373e-11 -1.5393537e-08 2.3807903e-12 2.6265024e-12 
1.6880598e-13 9.6587854e-07 -2.2327326e-11 -1.5698133e-08 2.4292999e-12 2.6788633e-12 
1.7439722e-13 9.8769377e-07 -2.272164e-11 -1.6004611e-08 2.4781301e-12 2.7315483e-12 
1.801013e-13 1.0097008e-06 -2.3117275e-11 -1.6312931e-08 2.5272733e-12 2.7845507e-12 
1.8591151e-13 1.0318964e-06 -2.3514136e-11 -1.6623049e-08 2.5767235e-12 2.837863e-12 
1.9182086e-13 1.0542774e-06 -2.3912186e-11 -1.6934925e-08 2.6264737e-12 2.8914782e-12 
1.9783861e-13 1.0768408e-06 -2.4311369e-11 -1.7248519e-08 2.676517e-12 2.9453892e-12 
2.0398311e-13 1.0995833e-06 -2.4711626e-11 -1.7563788e-08 2.7268471e-12 2.9995888e-12 
2.1022472e-13 1.1225018e-06 -2.5112908e-11 -1.7880695e-08 2.777457e-12 3.0540697e-12 
2.1658246e-13 1.145593e-06 -2.5515108e-11 -1.8199197e-08 2.8283403e-12 3.1088247e-12 
2.2304718e-13 1.168854e-06 -2.5918195e-11 -1.8519256e-08 2.8794905e-12 3.1638473e-12 
2.2962415e-13 1.1922814e-06 -2.6322103e-11 -1.8840832e-08 2.9309008e-12 3.2191312e-12 
2.3631005e-13 1.2158722e-06 -2.672676e-11 -1.9163887e-08 2.9825653e-12 3.2746695e-12 
2.4311559e-13 1.2396231e-06 -2.7132122e-11 -1.9488381e-08 3.0344778e-12 3.3304548e-12 
2.5001572e-13 1.2635311e-06 -2.7538087e-11 -1.9814278e-08 3.0866316e-12 3.3864808e-12 
2.5703565e-13 1.2875931e-06 -2.7944624e-11 -2.0141538e-08 3.1390206e-12 3.4427409e-12 
2.6415718e-13 1.3118058e-06 -2.8351703e-11 -2.0470124e-08 3.1916385e-12 3.4992291e-12 
2.7137554e-13 1.3361663e-06 -2.875927e-11 -2.0799999e-08 3.2444793e-12 3.5559375e-12 
2.7870835e-13 1.3606714e-06 -2.916726e-11 -2.1131127e-08 3.2975369e-12 3.6128611e-12 
2.8616918e-13 1.3853181e-06 -2.9575639e-11 -2.1463471e-08 3.3508049e-12 3.6699937e-12 
2.9372519e-13 1.4101032e-06 -2.9984337e-11 -2.1796995e-08 3.4042781e-12 3.7273279e-12 
3.0137046e-13 1.4350237e-06 -3.0393311e-11 -2.2131664e-08 3.4579501e-12 3.7848585e-12 
3.0914727e-13 1.4600766e-06 -3.0802536e-11 -2.2467442e-08 3.511815e-12 3.842579e-12 
3.1701331e-13 1.4852589e-06 -3.1211942e-11 -2.2804295e-08 3.5658676e-12 3.9004832e-12 
3.2497813e-13 1.5105676e-06 -3.1621489e-11 -2.3142187e-08 3.6201016e-12 3.9585655e-12 
3.330621e-13 1.5359997e-06 -3.2031166e-11 -2.3481086e-08 3.6745119e-12 4.0168197e-12 
3.4124024e-13 1.5615523e-06 -3.2440925e-11 -2.3820958e-08 3.7290926e-12 4.0752404e-12 
3.4953048e-13 1.5872223e-06 -3.2850717e-11 -2.4161768e-08 3.7838381e-12 4.1338218e-12 
3.5793554e-13 1.613007e-06 -3.326052e-11 -2.4503486e-08 3.8387431e-12 4.1925578e-12 
3.6640888e-13 1.6389034e-06 -3.3670293e-11 -2.4846077e-08 3.8938023e-12 4.2514433e-12 
3.7500731e-13 1.6649086e-06 -3.4080038e-11 -2.518951e-08 3.9490103e-12 4.3104725e-12 
3.8369968e-13 1.6910198e-06 -3.4489727e-11 -2.5533754e-08 4.0043619e-12 4.3696397e-12 
3.9249666e-13 1.7172342e-06 -3.4899305e-11 -2.5878778e-08 4.0598519e-12 4.4289398e-12 
4.0138893e-13 1.743549e-06 -3.5308744e-11 -2.6224549e-08 4.1154751e-12 4.4883672e-12 
4.1037423e-13 1.7699613e-06 -3.5718011e-11 -2.6571039e-08 4.1712266e-12 4.5479173e-12 
4.1945063e-13 1.7964685e-06 -3.612709e-11 -2.6918216e-08 4.227101e-12 4.6075844e-12 
 4.28635e-13 1.8230678e-06 -3.6535913e-11 -2.7266052e-08 4.2830937e-12 4.6673632e-12 
4.3791859e-13 1.8497566e-06 -3.6944433e-11 -2.7614517e-08 4.3391997e-12 4.7272492e-12 
4.4729586e-13 1.876532e-06 -3.7352613e-11 -2.7963582e-08 4.3954143e-12 4.7872368e-12 
4.5676598e-13 1.9033916e-06 -3.7760412e-11 -2.8313219e-08 4.4517325e-12 4.847321e-12 
4.6633746e-13 1.9303327e-06 -3.8167803e-11 -2.86634e-08 4.5081504e-12 4.9074979e-12 
4.7598615e-13 1.9573526e-06 -3.8574732e-11 -2.9014096e-08 4.5646625e-12 4.9677618e-12 
4.8574734e-13 1.9844489e-06 -3.8981179e-11 -2.9365282e-08 4.6212649e-12 5.0281085e-12 
4.9559114e-13 2.0116189e-06 -3.93871e-11 -2.9716929e-08 4.6779524e-12 5.0885334e-12 
5.0552411e-13 2.0388603e-06 -3.9792451e-11 -3.0069012e-08 4.7347211e-12 5.1490314e-12 
5.1555454e-13 2.0661704e-06 -4.0197203e-11 -3.0421503e-08 4.7915664e-12 5.2095987e-12 
5.2566139e-13 2.0935468e-06 -4.0601329e-11 -3.0774378e-08 4.848484e-12 5.2702304e-12 
5.3585362e-13 2.1209871e-06 -4.1004823e-11 -3.1127612e-08 4.9054701e-12 5.3309221e-12 
5.4614508e-13 2.148489e-06 -4.1407634e-11 -3.1481178e-08 4.9625198e-12  5.39167e-12 
5.5651895e-13 2.1760499e-06 -4.1809741e-11 -3.1835052e-08 5.0196294e-12 5.4524692e-12 
5.6697416e-13 2.2036677e-06 -4.2211097e-11 -3.2189211e-08 5.0767949e-12 5.5133163e-12 
5.7751655e-13 2.2313399e-06 -4.2611697e-11 -3.2543629e-08 5.1340123e-12 5.5742061e-12 
5.8814607e-13 2.2590643e-06 -4.30115e-11 -3.2898285e-08 5.1912774e-12 5.6351352e-12 
5.9885355e-13 2.2868385e-06 -4.3410505e-11 -3.3253153e-08 5.2485862e-12 5.6960996e-12 
6.0964883e-13 2.3146605e-06 -4.3808694e-11 -3.3608213e-08 5.3059357e-12 5.7570952e-12 
6.2053247e-13 2.342528e-06 -4.420606e-11 -3.396344e-08 5.3633214e-12 5.8181181e-12 
6.3148386e-13 2.3704387e-06 -4.4602559e-11 -3.4318813e-08 5.4207393e-12 5.879165e-12 
6.4251971e-13 2.3983907e-06 -4.4998186e-11 -3.4674311e-08 5.4781866e-12 5.9402314e-12 
6.5363015e-13 2.4263816e-06 -4.5392934e-11 -3.5029911e-08 5.5356592e-12 6.0013144e-12 
6.648171e-13 2.4544095e-06 -4.5786786e-11 -3.5385593e-08 5.5931534e-12 6.0624103e-12 
6.7609169e-13 2.4824723e-06 -4.6179729e-11 -3.5741335e-08 5.6506662e-12 6.1235146e-12 
6.8742875e-13 2.5105679e-06 -4.6571767e-11 -3.6097118e-08 5.708194e-12 6.1846246e-12 
6.9884871e-13 2.5386943e-06 -4.6962858e-11 -3.6452921e-08 5.7657334e-12 6.2457363e-12 
7.1033886e-13 2.5668496e-06 -4.7352956e-11 -3.6808725e-08 5.823281e-12 6.3068472e-12 
7.2190886e-13 2.5950318e-06 -4.7742086e-11 -3.716451e-08 5.8808334e-12 6.3679531e-12 
7.3353672e-13 2.6232389e-06 -4.813019e-11 -3.7520257e-08 5.9383879e-12 6.4290516e-12 
7.4523379e-13 2.6514692e-06 -4.8517232e-11 -3.7875947e-08 5.9959407e-12 6.4901383e-12 
7.5700559e-13 2.6797206e-06 -4.8903235e-11 -3.8231562e-08 6.0534894e-12 6.5512109e-12 
7.6885775e-13 2.7079914e-06 -4.9288128e-11 -3.8587083e-08 6.1110303e-12 6.6122661e-12 
7.8077607e-13 2.7362797e-06 -4.9671895e-11 -3.8942493e-08 6.1685606e-12 6.6733004e-12 
7.9276435e-13 2.7645838e-06 -5.005452e-11 -3.9297773e-08 6.2260775e-12 6.734311e-12 
8.0481468e-13 2.7929018e-06 -5.0435991e-11 -3.9652908e-08 6.2835781e-12 6.7952952e-12 
8.1692868e-13 2.8212321e-06 -5.0816274e-11 -4.0007879e-08 6.3410592e-12 6.8562505e-12 
8.291075e-13 2.8495729e-06 -5.1195378e-11 -4.0362671e-08 6.3985186e-12 6.9171731e-12 
8.4135885e-13 2.8779225e-06 -5.1573262e-11 -4.0717266e-08 6.4559529e-12 6.9780603e-12 
8.5365962e-13 2.9062793e-06 -5.1949904e-11 -4.107165e-08 6.5133598e-12  7.03891e-12 
 8.66028e-13 2.9346416e-06 -5.232529e-11 -4.1425804e-08 6.5707362e-12 7.0997189e-12 
8.7845875e-13 2.9630079e-06 -5.2699411e-11 -4.1779716e-08 6.6280802e-12 7.1604843e-12 
8.9094487e-13 2.9913765e-06 -5.3072251e-11 -4.2133368e-08 6.6853881e-12 7.2212043e-12 
9.0349085e-13 3.0197459e-06 -5.3443804e-11 -4.2486747e-08 6.7426582e-12 7.2818757e-12 
9.1609997e-13 3.0481145e-06 -5.3814052e-11 -4.2839836e-08 6.7998884e-12 7.3424964e-12 
9.2876555e-13 3.0764809e-06 -5.4183006e-11 -4.3192623e-08 6.8570755e-12 7.4030635e-12 
9.4149106e-13 3.1048435e-06 -5.4550632e-11 -4.3545093e-08 6.9142176e-12 7.463575e-12 
9.5427253e-13 3.1332009e-06 -5.491694e-11 -4.3897232e-08 6.9713118e-12 7.5240279e-12 
9.6710853e-13 3.1615516e-06 -5.5281926e-11 -4.4249026e-08 7.0283565e-12 7.5844206e-12 
9.8000199e-13 3.1898942e-06 -5.5645573e-11 -4.4600462e-08 7.0853488e-12 7.6447503e-12 
9.9293179e-13 3.2182274e-06 -5.6007889e-11 -4.4951526e-08 7.1422865e-12 7.7050148e-12 
1.0059214e-12 3.2465497e-06 -5.6368864e-11 -4.5302206e-08 7.1991679e-12 7.7652123e-12 
1.0189601e-12 3.2748599e-06 -5.6728497e-11 -4.565249e-08 7.2559905e-12  7.82534e-12 
1.0320517e-12 3.3031565e-06 -5.7086783e-11 -4.6002364e-08 7.312752e-12 7.885396e-12 
1.0452013e-12 3.3314383e-06 -5.7443717e-11 -4.6351818e-08 7.3694508e-12 7.9453785e-12 
1.0583949e-12 3.359704e-06 -5.7799255e-11 -4.6700837e-08 7.426085e-12 8.0052854e-12 
1.0716319e-12 3.3879524e-06 -5.8153405e-11 -4.7049412e-08 7.4826517e-12 8.0651144e-12 
1.0849251e-12 3.4161821e-06 -5.8506164e-11 -4.739753e-08 7.5391501e-12 8.1248638e-12 
1.0982602e-12 3.4443921e-06 -5.8857515e-11 -4.7745181e-08 7.5955779e-12 8.1845317e-12 
1.1116461e-12 3.4725811e-06 -5.9207436e-11 -4.8092353e-08 7.6519331e-12 8.2441161e-12 
1.1250717e-12 3.5007479e-06 -5.9555914e-11 -4.8439035e-08 7.7082133e-12 8.303615e-12 
1.1385275e-12 3.5288914e-06 -5.9902941e-11 -4.8785218e-08 7.7644175e-12 8.3630268e-12 
1.152035e-12 3.5570104e-06 -6.0248482e-11 -4.913089e-08 7.8205436e-12 8.4223499e-12 
1.1655872e-12 3.5851039e-06 -6.0592549e-11 -4.9476041e-08 7.8765902e-12 8.4815822e-12 
1.1791804e-12 3.6131707e-06 -6.0935125e-11 -4.9820662e-08 7.932555e-12 8.5407224e-12 
1.192818e-12 3.6412098e-06 -6.127621e-11 -5.0164743e-08 7.9884371e-12 8.5997684e-12 
1.2065041e-12 3.6692201e-06 -6.1615782e-11 -5.0508274e-08 8.0442343e-12 8.6587187e-12 
1.220218e-12 3.6972006e-06 -6.1953814e-11 -5.0851245e-08 8.0999452e-12 8.7175719e-12 
1.2339718e-12 3.7251503e-06 -6.2290324e-11 -5.1193649e-08 8.1555685e-12 8.7763264e-12 
1.2477609e-12 3.7530682e-06 -6.2625289e-11 -5.1535475e-08 8.2111021e-12  8.83498e-12 
1.2615843e-12 3.7809533e-06 -6.2958723e-11 -5.1876715e-08 8.2665449e-12 8.8935324e-12 
1.2754382e-12 3.8088046e-06 -6.3290619e-11 -5.2217361e-08 8.3218955e-12 8.9519818e-12 
1.2893311e-12 3.8366213e-06 -6.3620965e-11 -5.2557404e-08 8.3771524e-12 9.010326e-12 
1.3032643e-12 3.8644024e-06 -6.3949755e-11 -5.2896836e-08 8.4323143e-12 9.0685643e-12 
1.3172372e-12 3.8921469e-06 -6.4276999e-11 -5.3235649e-08 8.4873793e-12 9.1266948e-12 
1.3312336e-12 3.9198541e-06 -6.4602692e-11 -5.3573836e-08 8.5423466e-12 9.1847167e-12 
1.3452622e-12 3.947523e-06 -6.4926836e-11 -5.3911387e-08 8.5972146e-12 9.2426285e-12 
1.3593229e-12 3.9751528e-06 -6.524945e-11 -5.4248297e-08 8.6519822e-12 9.300429e-12 
1.373421e-12 4.0027427e-06 -6.5570535e-11 -5.4584557e-08 8.7066482e-12 9.3581171e-12 
1.3875399e-12 4.0302919e-06 -6.5890066e-11 -5.4920161e-08 8.761212e-12 9.415691e-12 
1.401687e-12 4.0577994e-06 -6.6208049e-11 -5.5255102e-08 8.8156712e-12 9.4731502e-12 
1.4158707e-12 4.0852647e-06 -6.652451e-11 -5.5589372e-08 8.8700253e-12 9.5304932e-12 
1.4300857e-12 4.1126868e-06 -6.6839428e-11 -5.5922966e-08 8.9242726e-12 9.5877186e-12 
1.4443142e-12 4.1400651e-06 -6.715278e-11 -5.6255876e-08 8.9784121e-12 9.6448254e-12 
1.4585791e-12 4.1673987e-06 -6.7464577e-11 -5.6588096e-08 9.0324434e-12 9.7018131e-12 
1.4728698e-12 4.1946871e-06 -6.7774828e-11 -5.6919621e-08 9.0863652e-12 9.7586801e-12 
1.4871853e-12 4.2219295e-06 -6.80835e-11 -5.7250444e-08 9.1401765e-12 9.8154253e-12 
1.5015122e-12 4.2491251e-06 -6.8390599e-11 -5.7580559e-08 9.1938759e-12 9.8720482e-12 
1.5158781e-12 4.2762733e-06 -6.8696107e-11 -5.790996e-08 9.2474622e-12 9.9285475e-12 
1.530272e-12 4.3033735e-06 -6.9000015e-11 -5.8238643e-08 9.3009353e-12 9.984922e-12 
1.5446809e-12 4.330425e-06 -6.9302345e-11 -5.8566601e-08 9.3542936e-12 1.0041171e-11 
1.5590935e-12 4.3574272e-06 -6.9603072e-11 -5.8893829e-08 9.4075365e-12 1.0097294e-11 
1.5735317e-12 4.3843794e-06 -6.9902167e-11 -5.9220323e-08 9.4606628e-12 1.015329e-11 
1.5880164e-12 4.4112811e-06 -7.0199651e-11 -5.9546076e-08 9.5136721e-12 1.0209158e-11 
1.6025111e-12 4.4381316e-06 -7.049551e-11 -5.9871084e-08 9.5665626e-12 1.0264897e-11 
1.6170223e-12 4.4649304e-06 -7.078974e-11 -6.0195343e-08 9.6193344e-12 1.0320506e-11 
1.6315427e-12 4.491677e-06 -7.1082357e-11 -6.0518848e-08 9.6719866e-12 1.0375984e-11 
1.6460857e-12 4.5183707e-06 -7.1373342e-11 -6.0841594e-08 9.7245184e-12 1.0431331e-11 
1.6606391e-12 4.545011e-06 -7.1662682e-11 -6.1163576e-08 9.7769285e-12 1.0486547e-11 
1.6752208e-12 4.5715974e-06 -7.1950393e-11 -6.1484791e-08 9.8292171e-12 1.0541629e-11 
1.6898213e-12 4.5981294e-06 -7.2236483e-11 -6.1805235e-08 9.8813827e-12 1.0596578e-11 
1.7044268e-12 4.6246064e-06 -7.2520965e-11 -6.2124903e-08 9.9334247e-12 1.0651393e-11 
1.7190634e-12 4.6510281e-06 -7.2803816e-11 -6.2443792e-08 9.9853428e-12 1.0706073e-11 
1.7337035e-12 4.6773939e-06 -7.308506e-11 -6.2761897e-08 1.0037136e-11 1.0760618e-11 
1.7483572e-12 4.7037033e-06 -7.3364684e-11 -6.3079216e-08 1.0088804e-11 1.0815026e-11 
1.7630166e-12 4.7299559e-06 -7.3642702e-11 -6.3395744e-08 1.0140346e-11 1.0869298e-11 
1.777703e-12 4.7561513e-06 -7.3919122e-11 -6.3711478e-08 1.0191761e-11 1.0923433e-11 
1.7923885e-12 4.7822889e-06 -7.4193962e-11 -6.4026416e-08 1.0243049e-11 1.0977429e-11 
1.8070916e-12 4.8083685e-06 -7.4467208e-11 -6.4340552e-08 1.0294209e-11 1.1031288e-11 
1.8218077e-12 4.8343896e-06 -7.4738868e-11 -6.4653885e-08 1.034524e-11 1.1085008e-11 
1.8365342e-12 4.8603517e-06 -7.5008938e-11 -6.4966412e-08 1.0396143e-11 1.1138588e-11 
1.8512747e-12 4.8862546e-06 -7.5277403e-11 -6.5278129e-08 1.0446916e-11 1.1192028e-11 
1.8660165e-12 4.9120978e-06 -7.5544282e-11 -6.5589034e-08 1.049756e-11 1.1245328e-11 
1.8807689e-12 4.9378809e-06 -7.5809587e-11 -6.5899124e-08 1.0548073e-11 1.1298487e-11 
1.8955444e-12 4.9636036e-06 -7.6073288e-11 -6.6208396e-08 1.0598455e-11 1.1351505e-11 
1.9103232e-12 4.9892656e-06 -7.6335395e-11 -6.6516848e-08 1.0648706e-11 1.1404381e-11 
1.9250944e-12 5.0148665e-06 -7.6595881e-11 -6.6824477e-08 1.0698825e-11 1.1457115e-11 
1.9398717e-12 5.040406e-06 -7.6854762e-11 -6.7131282e-08 1.0748812e-11 1.1509706e-11 
1.9546688e-12 5.0658837e-06 -7.7112051e-11 -6.7437259e-08 1.0798666e-11 1.1562155e-11 
1.9694634e-12 5.0912994e-06 -7.7367717e-11 -6.7742407e-08 1.0848388e-11 1.161446e-11 
1.9842613e-12 5.1166527e-06 -7.7621781e-11 -6.8046724e-08 1.0897976e-11 1.1666622e-11 
1.9990816e-12 5.1419434e-06 -7.7874218e-11 -6.8350208e-08 1.094743e-11 1.171864e-11 
2.0138969e-12 5.1671712e-06 -7.8125026e-11 -6.8652856e-08 1.0996751e-11 1.1770513e-11 
2.0287128e-12 5.1923358e-06 -7.8374223e-11 -6.8954667e-08 1.1045937e-11 1.1822242e-11 
2.0435386e-12 5.2174369e-06 -7.8621792e-11 -6.9255639e-08 1.1094989e-11 1.1873827e-11 
2.0583639e-12 5.2424743e-06 -7.886776e-11 -6.9555771e-08 1.1143905e-11 1.1925265e-11 
2.073195e-12 5.2674477e-06 -7.9112089e-11 -6.985506e-08 1.1192686e-11 1.1976559e-11 
2.0880175e-12 5.292357e-06 -7.9354811e-11 -7.0153507e-08 1.1241332e-11 1.2027707e-11 
2.1028493e-12 5.3172017e-06 -7.959593e-11 -7.0451108e-08 1.1289841e-11 1.2078708e-11 
2.1176829e-12 5.3419819e-06 -7.9835453e-11 -7.0747863e-08 1.1338215e-11 1.2129564e-11 
2.1325173e-12 5.3666971e-06 -8.0073372e-11 -7.104377e-08 1.1386453e-11 1.2180274e-11 
2.1473524e-12 5.3913473e-06 -8.0309714e-11 -7.1338829e-08 1.1434554e-11 1.2230837e-11 
2.1621858e-12 5.4159321e-06 -8.0544481e-11 -7.1633038e-08 1.1482518e-11 1.2281253e-11 
2.1770147e-12 5.4404515e-06 -8.077767e-11 -7.1926396e-08 1.1530346e-11 1.2331522e-11 
2.1918537e-12 5.4649052e-06 -8.1009273e-11 -7.2218902e-08 1.1578036e-11 1.2381645e-11 
2.2067046e-12 5.4892931e-06 -8.1239323e-11 -7.2510555e-08 1.1625589e-11 1.243162e-11 
2.221533e-12 5.513615e-06 -8.1467815e-11 -7.2801354e-08 1.1673005e-11 1.2481447e-11 
2.2363527e-12 5.5378706e-06 -8.1694755e-11 -7.3091299e-08 1.1720282e-11 1.2531128e-11 
2.2511934e-12 5.5620599e-06 -8.192015e-11 -7.3380389e-08 1.1767422e-11 1.258066e-11 
2.2660253e-12 5.5861827e-06 -8.2144003e-11 -7.3668623e-08 1.1814424e-11 1.2630045e-11 
2.2808237e-12 5.6102389e-06 -8.236629e-11  -7.3956e-08 1.1861289e-11 1.2679282e-11 
2.2956472e-12 5.6342283e-06 -8.258703e-11 -7.424252e-08 1.1908015e-11 1.2728371e-11 
2.3104639e-12 5.6581508e-06 -8.2806253e-11 -7.4528183e-08 1.1954602e-11 1.2777312e-11 
2.325287e-12 5.6820062e-06 -8.302391e-11 -7.4812988e-08 1.2001052e-11 1.2826105e-11 
2.3400923e-12 5.7057945e-06 -8.3240021e-11 -7.5096935e-08 1.2047362e-11 1.287475e-11 
2.3548941e-12 5.7295155e-06 -8.3454573e-11 -7.5380023e-08 1.2093535e-11 1.2923247e-11 
2.3696916e-12 5.7531692e-06 -8.3667577e-11 -7.5662252e-08 1.2139569e-11 1.2971595e-11 
2.3844863e-12 5.7767553e-06 -8.3879036e-11 -7.5943622e-08 1.2185464e-11 1.3019796e-11 
2.3992625e-12 5.8002739e-06 -8.4088936e-11 -7.6224134e-08 1.223122e-11 1.3067848e-11 
2.4140491e-12 5.8237248e-06 -8.4297274e-11 -7.6503785e-08 1.2276838e-11 1.3115751e-11 
2.4288263e-12 5.8471079e-06 -8.4504065e-11 -7.6782578e-08 1.2322317e-11 1.3163507e-11 
2.4436021e-12 5.8704232e-06 -8.470931e-11 -7.7060511e-08 1.2367657e-11 1.3211114e-11 
2.4583643e-12 5.8936707e-06 -8.4912999e-11 -7.7337585e-08 1.2412859e-11 1.3258573e-11 
2.4731143e-12 5.9168501e-06 -8.5115126e-11 -7.76138e-08 1.2457921e-11 1.3305883e-11 
2.4878531e-12 5.9399615e-06 -8.5315725e-11 -7.7889156e-08 1.2502845e-11 1.3353046e-11 
2.5025911e-12 5.9630048e-06 -8.5514789e-11 -7.8163653e-08 1.254763e-11 1.340006e-11 
2.517324e-12 5.9859799e-06 -8.5712318e-11 -7.8437292e-08 1.2592276e-11 1.3446926e-11 
2.5320514e-12 6.0088869e-06 -8.5908316e-11 -7.8710072e-08 1.2636784e-11 1.3493645e-11 
2.5467582e-12 6.0317256e-06 -8.6102793e-11 -7.8981995e-08 1.2681153e-11 1.3540215e-11 
2.5614653e-12 6.054496e-06 -8.6295784e-11 -7.925306e-08 1.2725383e-11 1.3586637e-11 
2.5761556e-12 6.0771981e-06 -8.6487248e-11 -7.9523268e-08 1.2769474e-11 1.3632912e-11 
2.5908396e-12 6.0998319e-06 -8.6677224e-11 -7.979262e-08 1.2813427e-11 1.3679038e-11 
2.6054999e-12 6.1223973e-06 -8.6865706e-11 -8.0061115e-08 1.2857241e-11 1.3725017e-11 
2.620165e-12 6.1448943e-06 -8.7052697e-11 -8.0328755e-08 1.2900917e-11 1.3770849e-11 
2.6348135e-12 6.1673228e-06 -8.7238232e-11 -8.059554e-08 1.2944454e-11 1.3816533e-11 
2.6494639e-12 6.189683e-06 -8.7422303e-11 -8.086147e-08 1.2987854e-11 1.3862069e-11 
2.6641018e-12 6.2119748e-06 -8.7604901e-11 -8.1126547e-08 1.3031115e-11 1.3907458e-11 
2.6787164e-12 6.2341981e-06 -8.7786035e-11 -8.1390771e-08 1.3074238e-11  1.39527e-11 
2.6933288e-12 6.2563529e-06 -8.7965714e-11 -8.1654143e-08 1.3117223e-11 1.3997795e-11 
2.7079148e-12 6.2784394e-06 -8.8143916e-11 -8.1916663e-08 1.316007e-11 1.4042743e-11 
2.7224976e-12 6.3004574e-06 -8.8320674e-11 -8.2178333e-08 1.3202779e-11 1.4087545e-11 
2.7370643e-12 6.322407e-06 -8.8495974e-11 -8.2439153e-08 1.3245351e-11  1.41322e-11 
2.7516147e-12 6.3442883e-06 -8.8669811e-11 -8.2699124e-08 1.3287785e-11 1.4176708e-11 
2.766161e-12 6.3661011e-06 -8.8842209e-11 -8.2958247e-08 1.3330081e-11 1.422107e-11 
2.7806912e-12 6.3878456e-06 -8.9013139e-11 -8.3216522e-08 1.337224e-11 1.4265286e-11 
2.7952121e-12 6.4095218e-06 -8.9182614e-11 -8.3473952e-08 1.3414261e-11 1.4309356e-11 
2.8097283e-12 6.4311296e-06 -8.9350606e-11 -8.3730537e-08 1.3456146e-11 1.4353281e-11 
2.8242348e-12 6.4526693e-06 -8.951715e-11 -8.3986277e-08 1.3497893e-11 1.439706e-11 
2.8386949e-12 6.4741407e-06 -8.9682255e-11 -8.4241175e-08 1.3539504e-11 1.4440693e-11 
2.853154e-12 6.4955439e-06 -8.9845909e-11 -8.4495231e-08 1.3580978e-11 1.4484182e-11 
2.8676105e-12 6.5168789e-06 -9.0008122e-11 -8.4748445e-08 1.3622316e-11 1.4527525e-11 
2.882047e-12 6.5381459e-06 -9.016892e-11 -8.5000821e-08 1.3663518e-11 1.4570723e-11 
2.8964534e-12 6.5593448e-06 -9.0328288e-11 -8.5252357e-08 1.3704583e-11 1.4613777e-11 
2.9108642e-12 6.5804757e-06 -9.0486234e-11 -8.5503057e-08 1.3745513e-11 1.4656686e-11 
2.9252534e-12 6.6015387e-06 -9.0642772e-11 -8.575292e-08 1.3786308e-11 1.4699451e-11 
2.9396424e-12 6.6225338e-06 -9.0797902e-11 -8.6001949e-08 1.3826967e-11 1.4742073e-11 
2.9540004e-12 6.6434611e-06 -9.0951637e-11 -8.6250144e-08 1.3867492e-11 1.478455e-11 
2.9683475e-12 6.6643206e-06 -9.1103984e-11 -8.6497507e-08 1.390788e-11 1.4826884e-11 
2.9826685e-12 6.6851124e-06 -9.1254938e-11 -8.6744039e-08 1.3948135e-11 1.4869075e-11 
2.9969919e-12 6.7058366e-06 -9.1404517e-11 -8.6989742e-08 1.3988255e-11 1.4911122e-11 
3.0112965e-12 6.7264932e-06 -9.1552744e-11 -8.7234616e-08 1.402824e-11 1.4953027e-11 
3.0255695e-12 6.7470824e-06 -9.1699632e-11 -8.7478664e-08 1.4068091e-11 1.4994789e-11 
3.0398241e-12 6.7676042e-06 -9.1845165e-11 -8.7721886e-08 1.4107808e-11 1.5036409e-11 
3.0540775e-12 6.7880586e-06 -9.1989348e-11 -8.7964285e-08 1.4147392e-11 1.5077887e-11 
3.0683146e-12 6.8084458e-06 -9.2132162e-11 -8.8205861e-08 1.4186843e-11 1.5119222e-11 
3.0825365e-12 6.8287659e-06 -9.2273663e-11 -8.8446616e-08 1.4226159e-11 1.5160417e-11 
3.0967426e-12 6.8490189e-06 -9.2413833e-11 -8.8686551e-08 1.4265344e-11 1.520147e-11 
3.1109325e-12 6.8692049e-06 -9.2552688e-11 -8.8925669e-08 1.4304395e-11 1.5242381e-11 
3.1251018e-12 6.889324e-06 -9.26902e-11 -8.916397e-08 1.4343314e-11 1.5283152e-11 
3.1392538e-12 6.9093763e-06 -9.2826392e-11 -8.9401456e-08  1.43821e-11 1.5323783e-11 
3.1533631e-12 6.9293619e-06 -9.2961256e-11 -8.9638129e-08 1.4420755e-11 1.5364273e-11 
3.1674695e-12 6.949281e-06 -9.3094791e-11 -8.9873991e-08 1.4459278e-11 1.5404624e-11 
3.1815696e-12 6.9691335e-06 -9.3227015e-11 -9.0109042e-08 1.4497669e-11 1.5444834e-11 
3.1956603e-12 6.9889196e-06 -9.3357911e-11 -9.0343285e-08 1.4535928e-11 1.5484905e-11 
3.2097333e-12 7.0086394e-06 -9.3487498e-11 -9.0576721e-08 1.4574057e-11 1.5524837e-11 
3.2237822e-12 7.028293e-06 -9.3615754e-11 -9.0809352e-08 1.4612055e-11 1.556463e-11 
3.2378116e-12 7.0478805e-06 -9.3742697e-11 -9.104118e-08 1.4649922e-11 1.5604285e-11 
3.2518158e-12 7.0674021e-06 -9.3868323e-11 -9.1272205e-08 1.4687659e-11 1.5643801e-11 
3.2657916e-12 7.0868577e-06 -9.3992646e-11 -9.1502431e-08 1.4725267e-11 1.5683179e-11 
3.2797597e-12 7.1062477e-06 -9.4115648e-11 -9.1731858e-08 1.4762744e-11 1.5722419e-11 
3.293718e-12 7.1255719e-06 -9.4237371e-11 -9.1960489e-08 1.4800093e-11 1.5761522e-11 
3.3076437e-12 7.1448307e-06 -9.4357803e-11 -9.2188325e-08 1.4837312e-11 1.5800489e-11 
3.3215604e-12 7.164024e-06 -9.4476918e-11 -9.2415367e-08 1.4874402e-11 1.5839318e-11 
3.3354585e-12 7.1831521e-06 -9.4594766e-11 -9.2641619e-08 1.4911363e-11 1.5878011e-11 
3.3493337e-12 7.202215e-06 -9.4711345e-11 -9.286708e-08 1.4948197e-11 1.5916568e-11 
3.3631821e-12 7.2212128e-06 -9.4826646e-11 -9.3091754e-08 1.4984902e-11 1.5954988e-11 
3.3770144e-12 7.2401457e-06 -9.4940694e-11 -9.3315643e-08 1.5021479e-11 1.5993273e-11 
3.3908402e-12 7.2590138e-06 -9.5053527e-11 -9.3538746e-08 1.5057929e-11 1.6031423e-11 
3.4046386e-12 7.2778173e-06 -9.5165112e-11 -9.3761068e-08 1.5094252e-11 1.6069439e-11 
3.4184313e-12 7.2965562e-06 -9.5275448e-11 -9.3982609e-08 1.5130448e-11 1.6107319e-11 
3.4321864e-12 7.3152306e-06 -9.5384543e-11 -9.4203372e-08 1.5166517e-11 1.6145066e-11 
3.4459204e-12 7.3338408e-06 -9.549242e-11 -9.4423358e-08 1.520246e-11 1.6182678e-11 
3.4596374e-12 7.3523869e-06 -9.5599086e-11 -9.4642569e-08 1.5238277e-11 1.6220156e-11 
3.4733351e-12 7.3708689e-06 -9.5704551e-11 -9.4861007e-08 1.5273969e-11 1.6257502e-11 
3.4870137e-12 7.389287e-06 -9.5808795e-11 -9.5078673e-08 1.5309535e-11 1.6294714e-11 
3.5006672e-12 7.4076414e-06 -9.5911837e-11 -9.5295571e-08 1.5344975e-11 1.6331793e-11 
3.5142917e-12 7.4259321e-06 -9.6013687e-11 -9.5511702e-08 1.5380292e-11 1.636874e-11 
3.5278914e-12 7.4441594e-06 -9.6114338e-11 -9.5727067e-08 1.5415483e-11 1.6405555e-11 
3.5414941e-12 7.4623234e-06 -9.6213823e-11 -9.5941669e-08 1.5450549e-11 1.6442239e-11 
3.5550819e-12 7.4804241e-06 -9.6312121e-11 -9.6155509e-08 1.5485492e-11 1.6478791e-11 
3.5686239e-12 7.4984618e-06 -9.6409248e-11 -9.6368589e-08 1.552031e-11 1.6515213e-11 
3.5821608e-12 7.5164366e-06 -9.6505225e-11 -9.6580913e-08 1.5555004e-11 1.6551504e-11 
3.5956584e-12 7.5343486e-06 -9.6600024e-11 -9.679248e-08 1.5589575e-11 1.6587663e-11 
3.6091426e-12 7.552198e-06 -9.6693661e-11 -9.7003294e-08 1.5624023e-11 1.6623694e-11 
3.6226252e-12 7.5699849e-06 -9.6786138e-11 -9.7213356e-08 1.5658347e-11 1.6659594e-11 
3.6360683e-12 7.5877094e-06 -9.6877464e-11 -9.7422668e-08 1.569255e-11 1.6695366e-11 
3.6494825e-12 7.6053718e-06 -9.6967618e-11 -9.7631233e-08 1.5726629e-11 1.6731008e-11 
3.662885e-12 7.6229721e-06 -9.7056644e-11 -9.7839052e-08 1.5760587e-11 1.6766522e-11 
3.6762647e-12 7.6405105e-06 -9.7144514e-11 -9.8046127e-08 1.5794424e-11 1.6801908e-11 
3.6896067e-12 7.6579872e-06 -9.7231231e-11 -9.8252461e-08 1.5828139e-11 1.6837165e-11 
3.7029227e-12 7.6754022e-06 -9.7316812e-11 -9.8458055e-08 1.5861734e-11 1.6872296e-11 
3.7162282e-12 7.6927559e-06 -9.7401274e-11 -9.8662911e-08 1.5895209e-11 1.6907298e-11 
3.7295313e-12 7.7100482e-06 -9.7484612e-11 -9.8867032e-08 1.5928564e-11 1.6942174e-11 
3.7427912e-12 7.7272794e-06 -9.7566847e-11 -9.9070418e-08 1.5961799e-11 1.6976924e-11 
3.7560298e-12 7.7444496e-06 -9.7647962e-11 -9.9273074e-08 1.5994915e-11 1.7011547e-11 
3.7692405e-12 7.7615589e-06 -9.7727956e-11 -9.9474999e-08 1.6027912e-11 1.7046044e-11 
3.7824411e-12 7.7786076e-06 -9.780687e-11 -9.9676197e-08 1.6060791e-11 1.7080416e-11 
3.7956188e-12 7.7955957e-06 -9.7884693e-11 -9.987667e-08 1.609355e-11 1.7114663e-11 
3.8087691e-12 7.8125235e-06 -9.7961438e-11 -1.0007642e-07 1.6126192e-11 1.7148785e-11 
3.8218932e-12 7.829391e-06 -9.8037107e-11 -1.0027545e-07 1.6158716e-11 1.7182782e-11 
3.8350042e-12 7.8461985e-06 -9.81117e-11 -1.0047375e-07 1.6191123e-11 1.7216655e-11 
3.8480761e-12 7.8629461e-06 -9.8185236e-11 -1.0067135e-07 1.6223413e-11 1.7250405e-11 
3.8611302e-12 7.8796339e-06 -9.8257721e-11 -1.0086822e-07 1.6255586e-11 1.7284031e-11 
3.8741735e-12 7.8962622e-06 -9.8329147e-11 -1.0106438e-07 1.6287642e-11 1.7317534e-11 
3.8872012e-12 7.912831e-06 -9.8399504e-11 -1.0125984e-07 1.6319583e-11 1.7350914e-11 
3.9002047e-12 7.9293405e-06 -9.8468809e-11 -1.0145458e-07 1.6351408e-11 1.7384172e-11 
3.9131718e-12 7.945791e-06 -9.8537062e-11 -1.0164861e-07 1.6383118e-11 1.7417308e-11 
3.9261158e-12 7.9621824e-06 -9.8604248e-11 -1.0184194e-07 1.6414712e-11 1.7450322e-11 
3.939033e-12 7.9785151e-06 -9.8670396e-11 -1.0203457e-07 1.6446191e-11 1.7483216e-11 
3.9519399e-12 7.9947892e-06 -9.873548e-11 -1.022265e-07 1.6477556e-11 1.7515988e-11 
3.9648234e-12 8.0110048e-06 -9.8799523e-11 -1.0241772e-07 1.6508807e-11 1.7548639e-11 
3.9776755e-12 8.027162e-06 -9.8862527e-11 -1.0260826e-07 1.6539943e-11 1.7581171e-11 
3.9905194e-12 8.0432612e-06 -9.8924469e-11 -1.0279809e-07 1.6570967e-11 1.7613582e-11 
4.0033462e-12 8.0593023e-06 -9.8985371e-11 -1.0298724e-07 1.6601877e-11 1.7645874e-11 
4.0161191e-12 8.0752856e-06 -9.9045245e-11 -1.0317569e-07 1.6632674e-11 1.7678047e-11 
4.0288961e-12 8.0912113e-06 -9.910409e-11 -1.0336346e-07 1.6663359e-11 1.7710101e-11 
4.0416349e-12 8.1070794e-06 -9.9161874e-11 -1.0355054e-07 1.6693931e-11 1.7742037e-11 
4.0543483e-12 8.1228903e-06 -9.9218652e-11 -1.0373693e-07 1.6724392e-11 1.7773854e-11 
4.0670478e-12 8.1386439e-06 -9.9274423e-11 -1.0392264e-07 1.6754741e-11 1.7805554e-11 
4.0797164e-12 8.1543406e-06 -9.9329171e-11 -1.0410768e-07 1.6784979e-11 1.7837137e-11 
4.0923494e-12 8.1699804e-06 -9.9382946e-11 -1.0429203e-07 1.6815105e-11 1.7868602e-11 
4.1049657e-12 8.1855635e-06 -9.9435713e-11 -1.0447571e-07 1.6845121e-11 1.7899951e-11 
4.1175538e-12 8.2010901e-06 -9.9487498e-11 -1.0465872e-07 1.6875027e-11 1.7931183e-11 
4.1301123e-12 8.2165603e-06 -9.9538298e-11 -1.0484105e-07 1.6904823e-11  1.79623e-11 
4.1426488e-12 8.2319744e-06 -9.9588128e-11 -1.0502272e-07 1.6934509e-11 1.7993301e-11 
4.155158e-12 8.2473325e-06 -9.9636988e-11 -1.0520371e-07 1.6964085e-11 1.8024187e-11 
4.1676333e-12 8.2626347e-06 -9.9684881e-11 -1.0538404e-07 1.6993553e-11 1.8054958e-11 
4.1800977e-12 8.2778812e-06 -9.9731811e-11 -1.0556371e-07 1.7022912e-11 1.8085615e-11 
4.1925076e-12 8.2930722e-06 -9.9777793e-11 -1.0574272e-07 1.7052162e-11 1.8116157e-11 
4.2049028e-12 8.3082078e-06 -9.9822849e-11 -1.0592107e-07 1.7081305e-11 1.8146585e-11 
4.2172664e-12 8.3232882e-06 -9.9866972e-11 -1.0609876e-07 1.711034e-11 1.8176901e-11 
4.2296025e-12 8.3383136e-06 -9.9910156e-11 -1.0627579e-07 1.7139268e-11 1.8207103e-11 
4.2419156e-12 8.3532842e-06 -9.9952388e-11 -1.0645218e-07 1.7168088e-11 1.8237193e-11 
4.2541991e-12   8.3682e-06 -9.9993686e-11 -1.0662791e-07 1.7196802e-11 1.826717e-11 
4.2664511e-12 8.3830613e-06 -1.0003406e-10 -1.0680299e-07 1.722541e-11 1.8297035e-11 
4.2786964e-12 8.3978683e-06 -1.0007349e-10 -1.0697743e-07 1.7253911e-11 1.8326789e-11 
4.2908767e-12 8.412621e-06 -1.00112e-10 -1.0715122e-07 1.7282307e-11 1.8356431e-11 
4.3030451e-12 8.4273197e-06 -1.0014959e-10 -1.0732437e-07 1.7310597e-11 1.8385962e-11 
4.3151884e-12 8.4419646e-06 -1.0018626e-10 -1.0749688e-07 1.7338782e-11 1.8415383e-11 
4.3272959e-12 8.4565557e-06 -1.00222e-10 -1.0766875e-07 1.7366863e-11 1.8444693e-11 
4.3393847e-12 8.4710933e-06 -1.0025682e-10 -1.0783998e-07 1.739484e-11 1.8473894e-11 
4.3514362e-12 8.4855776e-06 -1.0029072e-10 -1.0801058e-07 1.7422712e-11 1.8502985e-11 
4.3634792e-12 8.5000086e-06 -1.003237e-10 -1.0818055e-07 1.745048e-11 1.8531967e-11 
4.375459e-12 8.5143866e-06 -1.0035575e-10 -1.0834989e-07 1.7478145e-11 1.8560841e-11 
 4.38744e-12 8.5287118e-06 -1.003869e-10 -1.085186e-07 1.7505707e-11 1.8589606e-11 
4.399375e-12 8.5429842e-06 -1.0041718e-10 -1.0868668e-07 1.7533165e-11 1.8618263e-11 
4.4112644e-12 8.5572041e-06 -1.0044656e-10 -1.0885414e-07 1.7560522e-11 1.8646811e-11 
4.4231395e-12 8.5713716e-06 -1.0047503e-10 -1.0902097e-07 1.7587776e-11 1.8675253e-11 
4.4349886e-12 8.5854869e-06 -1.0050262e-10 -1.0918719e-07 1.7614928e-11 1.8703587e-11 
4.4468085e-12 8.5995501e-06 -1.0052936e-10 -1.0935279e-07 1.7641978e-11 1.8731815e-11 
4.458569e-12 8.6135615e-06 -1.0055522e-10 -1.0951777e-07 1.7668928e-11 1.8759937e-11 
4.4703258e-12 8.6275211e-06 -1.0058021e-10 -1.0968214e-07 1.7695776e-11 1.8787953e-11 
4.4820374e-12 8.6414293e-06 -1.0060433e-10 -1.098459e-07 1.7722524e-11 1.8815863e-11 
4.4937185e-12 8.655286e-06 -1.0062763e-10 -1.1000905e-07 1.7749172e-11 1.8843668e-11 
4.5053891e-12 8.6690915e-06 -1.0065007e-10 -1.1017159e-07 1.777572e-11 1.8871367e-11 
4.5170091e-12 8.6828459e-06 -1.0067167e-10 -1.1033353e-07 1.7802168e-11 1.8898963e-11 
4.5285929e-12 8.6965495e-06 -1.0069243e-10 -1.1049486e-07 1.7828516e-11 1.8926454e-11 
4.5401601e-12 8.7102024e-06 -1.0071235e-10 -1.1065559e-07 1.7854766e-11 1.8953841e-11 
4.5516807e-12 8.7238046e-06 -1.0073145e-10 -1.1081572e-07 1.7880918e-11 1.8981124e-11 
4.5631762e-12 8.7373565e-06 -1.0074972e-10 -1.1097525e-07 1.7906971e-11 1.9008305e-11 
4.5746394e-12 8.7508582e-06 -1.0076717e-10 -1.1113419e-07 1.7932925e-11 1.9035382e-11 
4.5860684e-12 8.7643098e-06 -1.0078382e-10 -1.1129253e-07 1.7958782e-11 1.9062357e-11 
4.5974698e-12 8.7777114e-06 -1.0079964e-10 -1.1145028e-07 1.7984542e-11 1.908923e-11 
4.6088485e-12 8.7910634e-06 -1.0081466e-10 -1.1160744e-07 1.8010204e-11 1.9116001e-11 
4.6201766e-12 8.8043657e-06 -1.0082883e-10 -1.1176402e-07 1.803577e-11 1.9142671e-11 
4.631469e-12 8.8176187e-06 -1.0084219e-10 -1.1192001e-07 1.8061239e-11 1.9169239e-11 
4.6427456e-12 8.8308224e-06 -1.0085476e-10 -1.1207541e-07 1.8086612e-11 1.9195707e-11 
4.6539838e-12 8.843977e-06 -1.0086651e-10 -1.1223024e-07 1.811189e-11 1.9222074e-11 
4.6652016e-12 8.8570827e-06 -1.0087744e-10 -1.1238448e-07 1.8137072e-11 1.9248341e-11 
4.676381e-12 8.8701396e-06 -1.0088758e-10 -1.1253815e-07 1.8162158e-11 1.9274508e-11 
4.6875161e-12 8.8831479e-06 -1.0089691e-10 -1.1269124e-07 1.818715e-11 1.9300576e-11 
4.6986179e-12 8.8961078e-06 -1.0090545e-10 -1.1284376e-07 1.8212048e-11 1.9326545e-11 
4.7096952e-12 8.9090194e-06 -1.0091316e-10 -1.129957e-07 1.8236851e-11 1.9352415e-11 
4.720745e-12 8.9218828e-06 -1.009201e-10 -1.1314708e-07 1.826156e-11 1.9378187e-11 
4.7317474e-12 8.9346983e-06 -1.0092627e-10 -1.1329789e-07 1.8286175e-11 1.940386e-11 
4.7427367e-12 8.9474661e-06 -1.0093167e-10 -1.1344813e-07 1.8310697e-11 1.9429435e-11 
4.753677e-12 8.9601861e-06 -1.0093628e-10 -1.1359781e-07 1.8335127e-11 1.9454913e-11 
4.764578e-12 8.9728588e-06 -1.0094011e-10 -1.1374692e-07 1.8359463e-11 1.9480294e-11 
4.7754574e-12 8.985484e-06 -1.009432e-10 -1.1389548e-07 1.8383708e-11 1.9505579e-11 
4.7863047e-12 8.9980622e-06 -1.0094552e-10 -1.1404348e-07 1.840786e-11 1.9530766e-11 
4.7971178e-12 9.0105933e-06 -1.0094709e-10 -1.1419092e-07 1.8431919e-11 1.9555858e-11 
4.8078988e-12 9.0230776e-06 -1.0094792e-10 -1.1433781e-07 1.8455888e-11 1.9580854e-11 
4.8186458e-12 9.0355152e-06 -1.0094802e-10 -1.1448414e-07 1.8479766e-11 1.9605754e-11 
4.8293609e-12 9.0479063e-06 -1.0094736e-10 -1.1462993e-07 1.8503553e-11 1.963056e-11 
4.8400394e-12 9.0602511e-06 -1.0094597e-10 -1.1477517e-07 1.852725e-11 1.9655271e-11 
4.8506816e-12 9.0725496e-06 -1.0094385e-10 -1.1491986e-07 1.8550856e-11 1.9679887e-11 
4.8613007e-12 9.0848021e-06 -1.0094102e-10 -1.15064e-07 1.8574372e-11 1.9704409e-11 
4.8718816e-12 9.0970087e-06 -1.0093747e-10 -1.1520761e-07 1.8597799e-11 1.9728837e-11 
4.8824296e-12 9.1091696e-06 -1.0093319e-10 -1.1535067e-07 1.8621136e-11 1.9753172e-11 
4.8929396e-12 9.1212849e-06 -1.009282e-10 -1.1549319e-07 1.8644384e-11 1.9777413e-11 
4.9034157e-12 9.1333548e-06 -1.0092251e-10 -1.1563518e-07 1.8667544e-11 1.9801562e-11 
4.913864e-12 9.1453794e-06 -1.009161e-10 -1.1577663e-07 1.8690616e-11 1.9825618e-11 
4.924268e-12 9.1573589e-06 -1.0090905e-10 -1.1591755e-07 1.8713601e-11 1.9849582e-11 
4.9346442e-12 9.1692935e-06 -1.0090134e-10 -1.1605794e-07 1.8736498e-11 1.9873454e-11 
4.9449792e-12 9.1811833e-06 -1.0089292e-10 -1.1619779e-07 1.8759309e-11 1.9897235e-11 
4.9552892e-12 9.1930284e-06 -1.0088385e-10 -1.1633712e-07 1.8782033e-11 1.9920925e-11 
4.9655643e-12 9.204829e-06 -1.0087412e-10 -1.1647593e-07 1.8804671e-11 1.9944524e-11 
4.9758028e-12 9.2165853e-06 -1.0086371e-10 -1.1661421e-07 1.8827224e-11 1.9968032e-11 
4.9860007e-12 9.2282975e-06 -1.0085267e-10 -1.1675197e-07 1.8849691e-11 1.999145e-11 
4.996172e-12 9.2399656e-06 -1.0084097e-10 -1.1688921e-07 1.8872073e-11 2.0014778e-11 
5.0063083e-12 9.2515898e-06 -1.0082863e-10 -1.1702593e-07 1.889437e-11 2.0038017e-11 
5.0164026e-12 9.2631704e-06 -1.0081565e-10 -1.1716213e-07 1.8916582e-11 2.0061166e-11 
5.0264545e-12 9.2747073e-06 -1.0080203e-10 -1.1729782e-07 1.893871e-11 2.0084226e-11 
5.036477e-12 9.2862009e-06 -1.0078777e-10 -1.1743299e-07 1.8960755e-11 2.0107198e-11 
5.0464733e-12 9.2976512e-06 -1.0077289e-10 -1.1756766e-07 1.8982716e-11 2.0130081e-11 
5.0564496e-12 9.3090583e-06 -1.0075738e-10 -1.1770182e-07 1.9004594e-11 2.0152875e-11 
5.0664074e-12 9.3204226e-06 -1.0074122e-10 -1.1783546e-07 1.9026389e-11 2.0175582e-11 
5.0763337e-12 9.331744e-06 -1.0072443e-10 -1.1796861e-07 1.9048102e-11 2.0198201e-11 
5.0862148e-12 9.3430227e-06 -1.0070703e-10 -1.1810125e-07 1.9069732e-11 2.0220732e-11 
5.0960846e-12 9.354259e-06 -1.0068901e-10 -1.1823338e-07 1.909128e-11 2.0243176e-11 
5.1059314e-12 9.3654529e-06 -1.0067039e-10 -1.1836502e-07 1.9112747e-11 2.0265534e-11 
5.1157597e-12 9.3766046e-06 -1.0065118e-10 -1.1849616e-07 1.9134133e-11 2.0287804e-11 
5.1255554e-12 9.3877142e-06 -1.0063135e-10 -1.186268e-07 1.9155438e-11 2.0309989e-11 
5.1353245e-12 9.3987819e-06 -1.0061092e-10 -1.1875695e-07 1.9176662e-11 2.0332087e-11 
5.145067e-12 9.4098078e-06 -1.0058988e-10 -1.1888661e-07 1.9197806e-11  2.03541e-11 
5.1547966e-12 9.4207922e-06 -1.0056822e-10 -1.1901577e-07 1.9218871e-11 2.0376028e-11 
5.1644929e-12 9.4317351e-06 -1.0054597e-10 -1.1914444e-07 1.9239855e-11 2.039787e-11 
5.1741514e-12 9.4426366e-06 -1.0052312e-10 -1.1927263e-07 1.9260761e-11 2.0419628e-11 
5.1837932e-12 9.453497e-06 -1.004997e-10 -1.1940033e-07 1.9281587e-11 2.0441302e-11 
5.1934178e-12 9.4643164e-06 -1.0047567e-10 -1.1952755e-07 1.9302334e-11 2.0462891e-11 
5.2030136e-12 9.4750948e-06 -1.0045105e-10 -1.1965428e-07 1.9323003e-11 2.0484396e-11 
5.2125882e-12 9.4858326e-06 -1.0042583e-10 -1.1978054e-07 1.9343595e-11 2.0505819e-11 
5.2221596e-12 9.4965297e-06 -1.0040003e-10 -1.1990631e-07 1.9364108e-11 2.0527157e-11 
5.2316936e-12 9.5071864e-06 -1.0037363e-10 -1.2003161e-07 1.9384543e-11 2.0548413e-11 
5.2412025e-12 9.5178028e-06 -1.0034665e-10 -1.2015643e-07 1.9404901e-11 2.0569586e-11 
5.2506861e-12 9.5283791e-06 -1.0031908e-10 -1.2028078e-07 1.9425183e-11 2.0590677e-11 
5.2601366e-12 9.5389153e-06 -1.0029094e-10 -1.2040465e-07 1.9445387e-11 2.0611686e-11 
5.2695775e-12 9.5494117e-06 -1.0026222e-10 -1.2052806e-07 1.9465516e-11 2.0632613e-11 
5.2789982e-12 9.5598683e-06 -1.0023292e-10 -1.20651e-07 1.9485568e-11 2.0653458e-11 
5.2883905e-12 9.5702854e-06 -1.0020305e-10 -1.2077347e-07 1.9505545e-11 2.0674222e-11 
5.2977752e-12 9.580663e-06 -1.0017268e-10 -1.2089547e-07 1.9525445e-11 2.0694906e-11 
5.3071482e-12 9.5910013e-06 -1.0014179e-10 -1.2101701e-07 1.9545269e-11 2.0715509e-11 
5.3164954e-12 9.6013005e-06 -1.001104e-10 -1.2113809e-07 1.9565017e-11 2.0736031e-11 
5.325837e-12 9.6115606e-06 -1.0007851e-10 -1.2125871e-07 1.958469e-11 2.0756473e-11 
5.3351636e-12 9.6217819e-06 -1.0004613e-10 -1.2137887e-07 1.9604288e-11 2.0776835e-11 
5.3444792e-12 9.6319644e-06 -1.0001326e-10 -1.2149858e-07 1.9623811e-11 2.0797118e-11 
5.3537719e-12 9.6421084e-06 -9.9979891e-11 -1.2161783e-07 1.9643259e-11 2.0817321e-11 
5.3630566e-12 9.6522139e-06 -9.994604e-11 -1.2173662e-07 1.9662633e-11 2.0837445e-11 
5.3723258e-12 9.662281e-06 -9.9911719e-11 -1.2185497e-07 1.9681932e-11 2.0857491e-11 
5.3815682e-12  9.67231e-06 -9.9876915e-11 -1.2197286e-07 1.9701158e-11 2.0877458e-11 
5.3908038e-12 9.6823009e-06 -9.9841624e-11 -1.2209031e-07 1.972031e-11 2.0897347e-11 
5.4000269e-12 9.692254e-06 -9.9805874e-11 -1.2220731e-07 1.9739388e-11 2.0917159e-11 
5.4092354e-12 9.7021692e-06 -9.9769646e-11 -1.2232386e-07 1.9758394e-11 2.0936892e-11 
 5.41843e-12 9.7120469e-06 -9.9732955e-11 -1.2243997e-07 1.9777326e-11 2.0956548e-11 
5.4276063e-12 9.721887e-06 -9.969582e-11 -1.2255564e-07 1.9796186e-11 2.0976127e-11 
5.4367686e-12 9.7316898e-06 -9.9658193e-11 -1.2267087e-07 1.9814974e-11 2.099563e-11 
5.4459075e-12 9.7414554e-06 -9.9620121e-11 -1.2278566e-07 1.9833689e-11 2.1015056e-11 
5.4550556e-12 9.7511839e-06 -9.9581584e-11 -1.2290001e-07 1.9852333e-11 2.1034405e-11 
5.464184e-12 9.7608754e-06 -9.9542581e-11 -1.2301393e-07 1.9870905e-11 2.1053679e-11 
5.4732882e-12 9.7705301e-06 -9.950314e-11 -1.2312741e-07 1.9889406e-11 2.1072877e-11 
5.4823883e-12 9.7801482e-06 -9.9463244e-11 -1.2324046e-07 1.9907836e-11 2.1091999e-11 
5.4914755e-12 9.7897296e-06 -9.9422894e-11 -1.2335308e-07 1.9926195e-11 2.1111047e-11 
5.5005456e-12 9.7992747e-06 -9.9382099e-11 -1.2346527e-07 1.9944484e-11 2.1130019e-11 
5.5095963e-12 9.8087835e-06 -9.934084e-11 -1.2357703e-07 1.9962702e-11 2.1148917e-11 
5.5186264e-12 9.8182562e-06 -9.9299134e-11 -1.2368837e-07 1.9980851e-11 2.1167741e-11 
5.5276559e-12 9.8276928e-06 -9.9257008e-11 -1.2379928e-07 1.999893e-11 2.1186491e-11 
5.5366694e-12 9.8370935e-06 -9.9214429e-11 -1.2390977e-07 2.0016939e-11 2.1205167e-11 
5.5456755e-12 9.8464585e-06 -9.9171408e-11 -1.2401984e-07 2.0034879e-11 2.1223769e-11 
5.5546677e-12 9.8557879e-06 -9.9127961e-11 -1.2412949e-07 2.005275e-11 2.1242298e-11 
5.5636349e-12 9.8650818e-06 -9.9084088e-11 -1.2423872e-07 2.0070552e-11 2.1260754e-11 
5.5726005e-12 9.8743403e-06 -9.9039798e-11 -1.2434754e-07 2.0088286e-11 2.1279137e-11 
5.5815599e-12 9.8835636e-06 -9.8995086e-11 -1.2445594e-07 2.0105952e-11 2.1297448e-11 
5.5905074e-12 9.8927518e-06 -9.8949959e-11 -1.2456392e-07 2.012355e-11 2.1315686e-11 
5.5994336e-12 9.901905e-06 -9.8904423e-11 -1.246715e-07 2.014108e-11 2.1333853e-11 
5.6083448e-12 9.9110233e-06 -9.8858476e-11 -1.2477866e-07 2.0158543e-11 2.1351948e-11 
5.6172451e-12 9.920107e-06 -9.8812124e-11 -1.2488541e-07 2.0175938e-11 2.1369972e-11 
5.6261389e-12 9.929156e-06 -9.8765387e-11 -1.2499176e-07 2.0193267e-11 2.1387924e-11 
5.6350125e-12 9.9381706e-06 -9.8718278e-11 -1.250977e-07 2.0210528e-11 2.1405806e-11 
5.6438667e-12 9.9471509e-06 -9.8670767e-11 -1.2520324e-07 2.0227724e-11 2.1423616e-11 
5.652729e-12 9.956097e-06 -9.8622871e-11 -1.2530838e-07 2.0244853e-11 2.1441357e-11 
5.6615665e-12 9.9650089e-06 -9.8574571e-11 -1.2541311e-07 2.0261916e-11 2.1459027e-11 
5.6703864e-12 9.973887e-06 -9.8525886e-11 -1.2551744e-07 2.0278913e-11 2.1476628e-11 
5.6792068e-12 9.9827311e-06 -9.8476815e-11 -1.2562138e-07 2.0295845e-11 2.1494159e-11 
5.6879951e-12 9.9915416e-06 -9.8427352e-11 -1.2572491e-07 2.0312712e-11 2.1511621e-11 
5.6967651e-12 1.0000319e-05 -9.8377482e-11 -1.2582806e-07 2.0329513e-11 2.1529014e-11 
5.7055169e-12 1.0009062e-05 -9.8327224e-11 -1.259308e-07 2.0346249e-11 2.1546339e-11 
5.7142294e-12 1.0017772e-05 -9.8276573e-11 -1.2603316e-07 2.0362921e-11 2.1563596e-11 
5.7229374e-12 1.0026449e-05 -9.8225528e-11 -1.2613513e-07 2.0379528e-11 2.1580785e-11 
5.7316238e-12 1.0035093e-05 -9.8174092e-11 -1.262367e-07 2.0396071e-11 2.1597907e-11 
5.740312e-12 1.0043704e-05 -9.8122265e-11 -1.2633789e-07 2.041255e-11 2.1614961e-11 
5.7489639e-12 1.0052282e-05 -9.8070057e-11 -1.2643869e-07 2.0428965e-11 2.1631948e-11 
5.7575854e-12 1.0060827e-05 -9.8017479e-11 -1.265391e-07 2.0445316e-11 2.1648868e-11 
5.7661886e-12 1.006934e-05 -9.7964516e-11 -1.2663913e-07 2.0461605e-11 2.1665721e-11 
5.7747858e-12 1.007782e-05 -9.7911212e-11 -1.2673878e-07 2.047783e-11 2.1682508e-11 
5.7833549e-12 1.0086268e-05 -9.7857579e-11 -1.2683805e-07 2.0493992e-11 2.1699228e-11 
5.7919035e-12 1.0094683e-05 -9.7803615e-11 -1.2693694e-07 2.0510092e-11 2.1715883e-11 
5.800442e-12 1.0103067e-05 -9.7749326e-11 -1.2703545e-07 2.0526129e-11 2.1732472e-11 
5.8089516e-12 1.0111418e-05 -9.7694708e-11 -1.2713359e-07 2.0542105e-11 2.1748996e-11 
5.8174605e-12 1.0119738e-05 -9.7639772e-11 -1.2723134e-07 2.055802e-11 2.1765454e-11 
5.8259445e-12 1.0128026e-05 -9.7584525e-11 -1.2732873e-07 2.0573874e-11 2.1781847e-11 
5.8343943e-12 1.0136282e-05 -9.7528983e-11 -1.2742574e-07 2.0589667e-11 2.1798176e-11 
5.8428358e-12 1.0144507e-05 -9.7473132e-11 -1.2752238e-07 2.0605399e-11 2.1814439e-11 
5.8512617e-12  1.01527e-05 -9.7416968e-11 -1.2761866e-07 2.0621072e-11 2.1830639e-11 
5.8596473e-12 1.0160862e-05 -9.7360512e-11 -1.2771456e-07 2.0636684e-11 2.1846775e-11 
5.8680191e-12 1.0168993e-05 -9.7303761e-11 -1.278101e-07 2.0652236e-11 2.1862847e-11 
5.8763722e-12 1.0177093e-05 -9.724673e-11 -1.2790527e-07 2.0667729e-11 2.1878855e-11 
5.8847064e-12 1.0185161e-05 -9.71894e-11 -1.2800007e-07 2.0683163e-11  2.18948e-11 
5.8930219e-12 1.0193199e-05 -9.7131773e-11 -1.2809452e-07 2.0698537e-11 2.1910682e-11 
5.9013138e-12 1.0201207e-05 -9.7073884e-11 -1.281886e-07 2.0713854e-11 2.1926501e-11 
5.9096037e-12 1.0209183e-05 -9.7015725e-11 -1.2828232e-07 2.0729111e-11 2.1942258e-11 
5.9178707e-12 1.021713e-05 -9.695729e-11 -1.2837569e-07 2.074431e-11 2.1957952e-11 
5.9261136e-12 1.0225045e-05 -9.6898571e-11 -1.2846869e-07 2.075945e-11 2.1973584e-11 
5.9343327e-12 1.0232931e-05 -9.6839584e-11 -1.2856134e-07 2.0774533e-11 2.1989154e-11 
5.9425257e-12 1.0240786e-05 -9.678034e-11 -1.2865364e-07 2.0789558e-11 2.2004663e-11 
5.9507108e-12 1.0248612e-05 -9.6720814e-11 -1.2874558e-07 2.0804526e-11 2.202011e-11 
5.9588648e-12 1.0256407e-05 -9.6661011e-11 -1.2883717e-07 2.0819436e-11 2.2035496e-11 
5.9670066e-12 1.0264173e-05 -9.6600945e-11 -1.2892841e-07 2.083429e-11 2.2050821e-11 
5.9751252e-12 1.0271909e-05 -9.6540618e-11 -1.290193e-07 2.0849086e-11 2.2066085e-11 
5.9832269e-12 1.0279615e-05 -9.6480039e-11 -1.2910985e-07 2.0863825e-11 2.2081288e-11 
5.9913145e-12 1.0287292e-05 -9.6419194e-11 -1.2920004e-07 2.0878509e-11 2.2096432e-11 
5.9993798e-12 1.029494e-05 -9.6358083e-11 -1.2928989e-07 2.0893136e-11 2.2111515e-11 
6.0074236e-12 1.0302558e-05 -9.6296731e-11 -1.293794e-07 2.0907707e-11 2.2126538e-11 
6.0154598e-12 1.0310147e-05 -9.6235113e-11 -1.2946856e-07 2.0922223e-11 2.2141502e-11 
6.0234676e-12 1.0317708e-05 -9.6173245e-11 -1.2955738e-07 2.0936683e-11 2.2156406e-11 
6.0314547e-12 1.0325239e-05 -9.6111135e-11 -1.2964587e-07 2.0951087e-11 2.2171251e-11 
6.0394366e-12 1.0332741e-05 -9.6048784e-11 -1.2973401e-07 2.0965437e-11 2.2186037e-11 
6.0473859e-12 1.0340215e-05 -9.5986185e-11 -1.2982181e-07 2.0979731e-11 2.2200764e-11 
6.0553083e-12 1.034766e-05 -9.592336e-11 -1.2990928e-07 2.0993971e-11 2.2215433e-11 
6.0632246e-12 1.0355077e-05 -9.5860298e-11 -1.2999641e-07 2.1008156e-11 2.2230043e-11 
6.0711215e-12 1.0362465e-05 -9.5797027e-11 -1.3008321e-07 2.1022288e-11 2.2244596e-11 
6.0790057e-12 1.0369825e-05 -9.5733523e-11 -1.3016968e-07 2.1036365e-11 2.225909e-11 
6.086864e-12 1.0377157e-05 -9.5669781e-11 -1.3025582e-07 2.1050388e-11 2.2273527e-11 
6.094696e-12 1.0384461e-05 -9.5605843e-11 -1.3034162e-07 2.1064357e-11 2.2287906e-11 
6.1025276e-12 1.0391736e-05 -9.5541677e-11 -1.304271e-07 2.1078273e-11 2.2302228e-11 
6.110328e-12 1.0398984e-05 -9.5477298e-11 -1.3051225e-07 2.1092136e-11 2.2316493e-11 
6.1181176e-12 1.0406204e-05 -9.5412723e-11 -1.3059707e-07 2.1105946e-11 2.2330702e-11 
6.1258978e-12 1.0413397e-05 -9.5347944e-11 -1.3068157e-07 2.1119702e-11 2.2344853e-11 
6.1336378e-12 1.0420562e-05 -9.5282959e-11 -1.3076574e-07 2.1133406e-11 2.2358948e-11 
6.1413722e-12  1.04277e-05 -9.5217755e-11 -1.3084959e-07 2.1147058e-11 2.2372987e-11 
6.149082e-12 1.043481e-05 -9.5152365e-11 -1.3093312e-07 2.1160657e-11 2.2386971e-11 
6.1567792e-12 1.0441893e-05 -9.5086792e-11 -1.3101633e-07 2.1174204e-11 2.2400898e-11 
6.1644595e-12 1.0448949e-05 -9.5021015e-11 -1.3109922e-07  2.11877e-11 2.241477e-11 
6.1721278e-12 1.0455978e-05 -9.4955045e-11 -1.3118179e-07 2.1201144e-11 2.2428586e-11 
6.1797744e-12 1.0462979e-05 -9.4888881e-11 -1.3126405e-07 2.1214536e-11 2.2442348e-11 
6.1874066e-12 1.0469955e-05 -9.4822511e-11 -1.3134599e-07 2.1227876e-11 2.2456054e-11 
6.1950123e-12 1.0476903e-05 -9.4755931e-11 -1.3142761e-07 2.1241165e-11 2.2469706e-11 
6.2026107e-12 1.0483825e-05 -9.4689157e-11 -1.3150892e-07 2.1254402e-11 2.2483303e-11 
6.2101978e-12 1.049072e-05 -9.4622201e-11 -1.3158992e-07 2.1267587e-11 2.2496846e-11 
6.2177593e-12 1.0497589e-05 -9.455504e-11 -1.3167061e-07 2.1280722e-11 2.2510335e-11 
6.2253178e-12 1.0504431e-05 -9.4487689e-11 -1.3175099e-07 2.1293805e-11 2.252377e-11 
6.2328622e-12 1.0511248e-05 -9.4420164e-11 -1.3183107e-07 2.1306838e-11 2.2537152e-11 
6.2404046e-12 1.0518038e-05 -9.4352448e-11 -1.3191083e-07 2.1319819e-11 2.255048e-11 
6.2479188e-12 1.0524802e-05 -9.428453e-11 -1.3199029e-07 2.1332751e-11 2.2563754e-11 
6.2554223e-12 1.053154e-05 -9.421643e-11 -1.3206944e-07 2.1345632e-11 2.2576975e-11 
6.2629113e-12 1.0538253e-05 -9.4148162e-11 -1.321483e-07 2.1358463e-11 2.2590144e-11 
6.2703639e-12 1.0544939e-05 -9.4079734e-11 -1.3222684e-07 2.1371244e-11 2.260326e-11 
6.2778307e-12  1.05516e-05 -9.4011113e-11 -1.3230509e-07 2.1383976e-11 2.2616324e-11 
6.2852923e-12 1.0558236e-05 -9.3942326e-11 -1.3238304e-07 2.1396658e-11 2.2629336e-11 
6.2927303e-12 1.0564846e-05 -9.3873385e-11 -1.3246068e-07 2.1409291e-11 2.2642295e-11 
6.3001614e-12 1.0571431e-05 -9.3804286e-11 -1.3253803e-07 2.1421875e-11 2.2655202e-11 
6.3075704e-12 1.057799e-05 -9.3735025e-11 -1.3261508e-07 2.1434409e-11 2.2668058e-11 
6.3149493e-12 1.0584524e-05 -9.3665613e-11 -1.3269184e-07 2.1446895e-11 2.2680863e-11 
6.3223212e-12 1.0591034e-05 -9.3596052e-11 -1.327683e-07 2.1459333e-11 2.2693616e-11 
6.3296911e-12 1.0597518e-05 -9.3526336e-11 -1.3284447e-07 2.1471721e-11 2.2706318e-11 
6.3370542e-12 1.0603977e-05 -9.3456449e-11 -1.3292035e-07 2.1484062e-11 2.2718968e-11 
6.3443945e-12 1.0610412e-05 -9.3386426e-11 -1.3299593e-07 2.1496355e-11 2.2731568e-11 
6.3517279e-12 1.0616822e-05 -9.3316264e-11 -1.3307123e-07 2.1508599e-11 2.2744118e-11 
6.3590512e-12 1.0623208e-05 -9.3245969e-11 -1.3314623e-07 2.1520796e-11 2.2756618e-11 
6.3663616e-12 1.0629569e-05 -9.3175529e-11 -1.3322095e-07 2.1532945e-11 2.2769067e-11 
6.3736458e-12 1.0635905e-05 -9.3104938e-11 -1.3329538e-07 2.1545047e-11 2.2781467e-11 
6.3809205e-12 1.0642217e-05 -9.3034215e-11 -1.3336953e-07 2.1557102e-11 2.2793816e-11 
6.3881888e-12 1.0648505e-05 -9.2963362e-11 -1.3344339e-07 2.156911e-11 2.2806116e-11 
6.3954519e-12 1.0654769e-05 -9.2892364e-11 -1.3351697e-07 2.1581071e-11 2.2818367e-11 
6.4027025e-12 1.0661009e-05 -9.2821226e-11 -1.3359026e-07 2.1592986e-11 2.2830569e-11 
6.4099223e-12 1.0667225e-05 -9.2749937e-11 -1.3366327e-07 2.1604854e-11 2.2842721e-11 
6.4171472e-12 1.0673417e-05 -9.2678542e-11 -1.3373601e-07 2.1616676e-11 2.2854824e-11 
6.4243384e-12 1.0679586e-05 -9.2607002e-11 -1.3380846e-07 2.1628451e-11 2.2866879e-11 
6.4315313e-12 1.068573e-05 -9.2535337e-11 -1.3388063e-07 2.1640181e-11 2.2878886e-11 
6.4387152e-12 1.0691851e-05 -9.2463538e-11 -1.3395253e-07 2.1651865e-11 2.2890844e-11 
6.4458838e-12 1.0697949e-05 -9.2391623e-11 -1.3402415e-07 2.1663503e-11 2.2902754e-11 
6.4530436e-12 1.0704023e-05 -9.2319578e-11 -1.340955e-07 2.1675096e-11 2.2914616e-11 
6.4601899e-12 1.0710074e-05 -9.2247413e-11 -1.3416657e-07 2.1686644e-11 2.2926431e-11 
6.4673168e-12 1.0716102e-05 -9.217513e-11 -1.3423737e-07 2.1698146e-11 2.2938198e-11 
6.474444e-12 1.0722106e-05 -9.2102739e-11 -1.343079e-07 2.1709604e-11 2.2949917e-11 
6.4815515e-12 1.0728088e-05 -9.2030217e-11 -1.3437816e-07 2.1721017e-11 2.2961589e-11 
6.4886465e-12 1.0734047e-05 -9.1957592e-11 -1.3444815e-07 2.1732386e-11 2.2973215e-11 
6.4957369e-12 1.0739982e-05 -9.1884882e-11 -1.3451787e-07 2.1743709e-11 2.2984794e-11 
6.5028109e-12 1.0745895e-05 -9.1812069e-11 -1.3458732e-07 2.1754989e-11 2.2996325e-11 
6.5098743e-12 1.0751785e-05 -9.1739146e-11 -1.346565e-07 2.1766224e-11 2.3007811e-11 
6.5169283e-12 1.0757653e-05 -9.1666131e-11 -1.3472542e-07 2.1777416e-11 2.301925e-11 
6.5239711e-12 1.0763498e-05 -9.1593018e-11 -1.3479407e-07 2.1788564e-11 2.3030643e-11 
6.5309905e-12 1.0769321e-05 -9.1519821e-11 -1.3486246e-07 2.1799668e-11 2.304199e-11 
6.538018e-12 1.0775121e-05 -9.1446528e-11 -1.3493059e-07 2.1810729e-11 2.3053291e-11 
6.5450332e-12 1.0780899e-05 -9.1373126e-11 -1.3499845e-07 2.1821746e-11 2.3064547e-11 
6.5520247e-12 1.0786655e-05 -9.1299651e-11 -1.3506606e-07 2.183272e-11 2.3075757e-11 
6.5590009e-12 1.0792389e-05 -9.122608e-11 -1.351334e-07 2.1843652e-11 2.3086923e-11 
6.5659654e-12 1.0798101e-05 -9.1152449e-11 -1.3520049e-07 2.1854541e-11 2.3098042e-11 
6.5729397e-12 1.080379e-05 -9.1078725e-11 -1.3526732e-07 2.1865387e-11 2.3109117e-11 
6.5798801e-12 1.0809458e-05 -9.1004924e-11 -1.3533389e-07 2.187619e-11 2.3120148e-11 
6.5868127e-12 1.0815105e-05 -9.0931031e-11 -1.354002e-07 2.1886952e-11 2.3131133e-11 
6.5937421e-12 1.0820729e-05 -9.0857061e-11 -1.3546626e-07 2.189767e-11 2.3142075e-11 
6.6006606e-12 1.0826332e-05 -9.0783013e-11 -1.3553207e-07 2.1908348e-11 2.3152972e-11 
6.6075663e-12 1.0831913e-05 -9.0708871e-11 -1.3559762e-07 2.1918983e-11 2.3163825e-11 
6.614456e-12 1.0837473e-05 -9.0634661e-11 -1.3566293e-07 2.1929577e-11 2.3174634e-11 
6.6213361e-12 1.0843012e-05 -9.0560374e-11 -1.3572798e-07 2.1940129e-11  2.31854e-11 
6.6282066e-12 1.0848529e-05 -9.0486022e-11 -1.3579278e-07 2.195064e-11 2.3196121e-11 
6.6350836e-12 1.0854026e-05 -9.0411587e-11 -1.3585733e-07 2.196111e-11  2.32068e-11 
6.6419466e-12 1.0859501e-05 -9.0337078e-11 -1.3592163e-07 2.1971538e-11 2.3217435e-11 
6.6487839e-12 1.0864955e-05 -9.0262514e-11 -1.3598569e-07 2.1981926e-11 2.3228027e-11 
6.6556027e-12 1.0870388e-05 -9.0187878e-11 -1.360495e-07 2.1992273e-11 2.3238576e-11 
6.6624235e-12  1.08758e-05 -9.0113181e-11 -1.3611307e-07 2.2002579e-11 2.3249083e-11 
6.6692396e-12 1.0881192e-05 -9.0038425e-11 -1.3617639e-07 2.2012845e-11 2.3259547e-11 
6.6760361e-12 1.0886562e-05 -8.9963603e-11 -1.3623947e-07 2.202307e-11 2.3269968e-11 
6.6828392e-12 1.0891912e-05 -8.988873e-11 -1.363023e-07 2.2033256e-11 2.3280347e-11 
6.6896137e-12 1.0897242e-05 -8.9813796e-11 -1.3636489e-07 2.2043401e-11 2.3290684e-11 
6.6963694e-12 1.0902551e-05 -8.9738828e-11 -1.3642725e-07 2.2053507e-11 2.3300979e-11 
6.7031214e-12 1.090784e-05 -8.9663811e-11 -1.3648936e-07 2.2063573e-11 2.3311233e-11 
6.7098826e-12 1.0913108e-05 -8.958875e-11 -1.3655124e-07 2.2073599e-11 2.3321445e-11 
6.716623e-12 1.0918356e-05 -8.9513639e-11 -1.3661287e-07 2.2083586e-11 2.3331615e-11 
6.723362e-12 1.0923584e-05 -8.9438496e-11 -1.3667427e-07 2.2093533e-11 2.3341744e-11 
6.7300825e-12 1.0928792e-05 -8.9363297e-11 -1.3673544e-07 2.2103442e-11 2.3351832e-11 
6.736792e-12 1.093398e-05 -8.9288063e-11 -1.3679636e-07 2.2113312e-11 2.3361879e-11 
6.7434849e-12 1.0939148e-05 -8.9212795e-11 -1.3685706e-07 2.2123142e-11 2.3371885e-11 
6.7501706e-12 1.0944296e-05 -8.9137493e-11 -1.3691752e-07 2.2132935e-11 2.338185e-11 
6.7568614e-12 1.0949424e-05 -8.9062152e-11 -1.3697775e-07 2.2142689e-11 2.3391775e-11 
6.7635248e-12 1.0954533e-05 -8.8986793e-11 -1.3703774e-07 2.2152404e-11 2.3401659e-11 
6.7701754e-12 1.0959622e-05 -8.8911393e-11 -1.3709751e-07 2.2162081e-11 2.3411504e-11 
6.7768293e-12 1.0964692e-05 -8.8835957e-11 -1.3715705e-07 2.217172e-11 2.3421308e-11 
6.7834661e-12 1.0969741e-05 -8.8760498e-11 -1.3721635e-07 2.2181321e-11 2.3431072e-11 
6.7900952e-12 1.0974772e-05 -8.8685002e-11 -1.3727543e-07 2.2190885e-11 2.3440797e-11 
6.7967267e-12 1.0979783e-05 -8.8609489e-11 -1.3733429e-07 2.220041e-11 2.3450482e-11 
6.8033399e-12 1.0984775e-05 -8.8533937e-11 -1.3739291e-07 2.2209898e-11 2.3460127e-11 
6.8099509e-12 1.0989748e-05 -8.8458359e-11 -1.3745131e-07 2.2219349e-11 2.3469733e-11 
6.8165471e-12 1.0994702e-05 -8.8382758e-11 -1.3750949e-07 2.2228762e-11  2.34793e-11 
6.8231241e-12 1.0999636e-05 -8.830714e-11 -1.3756744e-07 2.2238139e-11 2.3488828e-11 
6.8297006e-12 1.1004552e-05 -8.8231487e-11 -1.3762517e-07 2.2247478e-11 2.3498318e-11 
6.8362679e-12 1.1009449e-05 -8.8155822e-11 -1.3768268e-07 2.2256781e-11 2.3507768e-11 
6.8428219e-12 1.1014327e-05 -8.8080127e-11 -1.3773996e-07 2.2266047e-11 2.351718e-11 
6.8493837e-12 1.1019186e-05 -8.8004427e-11 -1.3779703e-07 2.2275276e-11 2.3526554e-11 
6.8559225e-12 1.1024027e-05 -8.7928711e-11 -1.3785388e-07 2.2284469e-11 2.3535889e-11 
6.8624343e-12 1.1028849e-05 -8.7852999e-11 -1.379105e-07 2.2293626e-11 2.3545186e-11 
6.8689662e-12 1.1033652e-05 -8.7777266e-11 -1.3796691e-07 2.2302747e-11 2.3554445e-11 
6.8754845e-12 1.1038437e-05 -8.7701523e-11 -1.3802311e-07 2.2311832e-11 2.3563666e-11 
6.8819747e-12 1.1043203e-05 -8.7625771e-11 -1.3807908e-07 2.232088e-11 2.357285e-11 
6.8884712e-12 1.1047952e-05 -8.7550026e-11 -1.3813485e-07 2.2329893e-11 2.3581996e-11 
6.8949643e-12 1.1052682e-05 -8.7474303e-11 -1.3819039e-07 2.233887e-11 2.3591105e-11 
6.9014489e-12 1.1057393e-05 -8.739858e-11 -1.3824573e-07 2.2347812e-11 2.3600176e-11 
6.9079139e-12 1.1062087e-05 -8.7322838e-11 -1.3830085e-07 2.2356719e-11 2.3609211e-11 
6.9143784e-12 1.1066763e-05 -8.7247114e-11 -1.3835576e-07 2.236559e-11 2.3618208e-11 
6.9208383e-12 1.107142e-05 -8.7171393e-11 -1.3841045e-07 2.2374427e-11 2.3627168e-11 
6.9272724e-12 1.107606e-05 -8.7095682e-11 -1.3846494e-07 2.2383228e-11 2.3636092e-11 
6.9337019e-12 1.1080682e-05 -8.701998e-11 -1.3851922e-07 2.2391994e-11 2.364498e-11 
6.9401358e-12 1.1085286e-05 -8.694428e-11 -1.3857329e-07 2.2400727e-11 2.365383e-11 
6.9465548e-12 1.1089873e-05 -8.6868608e-11 -1.3862715e-07 2.2409424e-11 2.3662645e-11 
6.9529725e-12 1.1094442e-05 -8.6792942e-11 -1.386808e-07 2.2418087e-11 2.3671424e-11 
6.9593726e-12 1.1098993e-05 -8.6717291e-11 -1.3873425e-07 2.2426715e-11 2.3680166e-11 
6.9657647e-12 1.1103527e-05 -8.6641656e-11 -1.3878749e-07 2.243531e-11 2.3688873e-11 
6.9721424e-12 1.1108043e-05 -8.6566023e-11 -1.3884053e-07 2.2443871e-11 2.3697544e-11 
6.9785178e-12 1.1112542e-05 -8.6490406e-11 -1.3889336e-07 2.2452397e-11 2.3706179e-11 
6.9848944e-12 1.1117024e-05 -8.6414799e-11 -1.3894599e-07 2.246089e-11 2.3714779e-11 
6.9912595e-12 1.1121488e-05 -8.6339222e-11 -1.3899842e-07 2.2469349e-11 2.3723343e-11 
6.9976109e-12 1.1125936e-05 -8.6263659e-11 -1.3905064e-07 2.2477775e-11 2.3731873e-11 
7.003961e-12 1.1130366e-05 -8.618812e-11 -1.3910267e-07 2.2486167e-11 2.3740367e-11 
7.0103093e-12 1.1134779e-05 -8.6112608e-11 -1.3915449e-07 2.2494526e-11 2.3748827e-11 
7.0166292e-12 1.1139175e-05 -8.6037114e-11 -1.3920611e-07 2.2502852e-11 2.3757252e-11 
7.0229502e-12 1.1143554e-05 -8.5961643e-11 -1.3925754e-07 2.2511145e-11 2.3765642e-11 
7.0292727e-12 1.1147917e-05 -8.5886206e-11 -1.3930877e-07 2.2519405e-11 2.3773998e-11 
7.0355835e-12 1.1152263e-05 -8.5810785e-11 -1.393598e-07 2.2527632e-11 2.3782318e-11 
7.0418855e-12 1.1156592e-05 -8.5735384e-11 -1.3941063e-07 2.2535827e-11 2.3790605e-11 
7.0481824e-12 1.1160904e-05 -8.5660028e-11 -1.3946127e-07 2.2543989e-11 2.3798858e-11 
7.054462e-12  1.11652e-05 -8.5584714e-11 -1.3951172e-07 2.2552118e-11 2.3807077e-11 
7.0607384e-12 1.1169479e-05 -8.5509447e-11 -1.3956197e-07 2.2560215e-11 2.3815262e-11 
7.067006e-12 1.1173742e-05 -8.5434233e-11 -1.3961203e-07 2.256828e-11 2.3823413e-11 
7.0732591e-12 1.1177988e-05 -8.5359041e-11 -1.3966189e-07 2.2576313e-11 2.3831531e-11 
7.0795177e-12 1.1182218e-05 -8.5283884e-11 -1.3971156e-07 2.2584315e-11 2.3839615e-11 
7.0857732e-12 1.1186432e-05 -8.5208762e-11 -1.3976104e-07 2.2592284e-11 2.3847666e-11 
7.092017e-12 1.1190629e-05 -8.5133708e-11 -1.3981034e-07 2.2600222e-11 2.3855684e-11 
7.0982513e-12 1.1194811e-05 -8.505871e-11 -1.3985944e-07 2.2608128e-11 2.3863669e-11 
7.1044704e-12 1.1198976e-05 -8.4983753e-11 -1.3990835e-07 2.2616002e-11 2.387162e-11 
7.1106948e-12 1.1203126e-05 -8.4908822e-11 -1.3995707e-07 2.2623846e-11 2.3879539e-11 
7.1169005e-12 1.1207259e-05 -8.4833945e-11 -1.4000561e-07 2.2631658e-11 2.3887425e-11 
7.1231103e-12 1.1211376e-05 -8.4759133e-11 -1.4005396e-07 2.2639439e-11 2.3895278e-11 
7.1293025e-12 1.1215478e-05 -8.468437e-11 -1.4010212e-07 2.2647189e-11  2.39031e-11 
7.1354937e-12 1.1219564e-05 -8.4609667e-11 -1.401501e-07 2.2654908e-11 2.3910888e-11 
7.1416792e-12 1.1223634e-05 -8.4535015e-11 -1.401979e-07 2.2662596e-11 2.3918645e-11 
7.1478557e-12 1.1227689e-05 -8.4460412e-11 -1.4024551e-07 2.2670254e-11 2.392637e-11 
7.1540115e-12 1.1231728e-05 -8.4385858e-11 -1.4029293e-07 2.2677881e-11 2.3934062e-11 
7.1601904e-12 1.1235751e-05 -8.431136e-11 -1.4034018e-07 2.2685478e-11 2.3941723e-11 
7.1663569e-12 1.1239759e-05 -8.423692e-11 -1.4038724e-07 2.2693044e-11 2.3949352e-11 
7.172521e-12 1.1243751e-05 -8.416253e-11 -1.4043412e-07 2.270058e-11 2.395695e-11 
7.1786618e-12 1.1247729e-05 -8.4088222e-11 -1.4048082e-07 2.2708087e-11 2.3964516e-11 
7.1847855e-12 1.125169e-05 -8.4013954e-11 -1.4052734e-07 2.2715563e-11 2.397205e-11 
7.1909144e-12 1.1255637e-05 -8.3939744e-11 -1.4057368e-07 2.2723009e-11 2.3979554e-11 
7.1970453e-12 1.1259568e-05 -8.3865598e-11 -1.4061985e-07 2.2730427e-11 2.3987026e-11 
7.2031607e-12 1.1263485e-05 -8.3791512e-11 -1.4066583e-07 2.2737814e-11 2.3994467e-11 
7.2092585e-12 1.1267386e-05 -8.3717484e-11 -1.4071164e-07 2.2745171e-11 2.4001877e-11 
7.2153538e-12 1.1271272e-05 -8.3643507e-11 -1.4075728e-07 2.2752499e-11 2.4009257e-11 
7.221447e-12 1.1275144e-05 -8.3569586e-11 -1.4080273e-07 2.2759798e-11 2.4016605e-11 
7.2275155e-12   1.1279e-05 -8.3495715e-11 -1.4084801e-07 2.2767068e-11 2.4023923e-11 
7.2335919e-12 1.1282842e-05 -8.3421901e-11 -1.4089312e-07 2.2774309e-11 2.403121e-11 
7.2396609e-12 1.1286668e-05 -8.3348136e-11 -1.4093806e-07 2.2781521e-11 2.4038467e-11 
7.2457038e-12 1.129048e-05 -8.3274437e-11 -1.4098282e-07 2.2788704e-11 2.4045693e-11 
7.2517339e-12 1.1294278e-05 -8.3200805e-11 -1.4102741e-07 2.2795858e-11 2.405289e-11 
7.2577577e-12 1.1298061e-05 -8.3127203e-11 -1.4107182e-07 2.2802984e-11 2.4060056e-11 
7.2637821e-12 1.1301829e-05 -8.3053674e-11 -1.4111607e-07 2.2810081e-11 2.4067192e-11 
7.2697903e-12 1.1305583e-05 -8.2980226e-11 -1.4116015e-07 2.281715e-11 2.4074298e-11 
7.2757754e-12 1.1309322e-05 -8.290683e-11 -1.4120405e-07 2.2824191e-11 2.4081374e-11 
7.2817539e-12 1.1313047e-05 -8.2833477e-11 -1.4124779e-07 2.2831204e-11 2.4088421e-11 
7.2877377e-12 1.1316758e-05 -8.2760179e-11 -1.4129136e-07 2.2838188e-11 2.4095438e-11 
7.2937035e-12 1.1320454e-05 -8.2686969e-11 -1.4133476e-07 2.2845145e-11 2.4102425e-11 
7.2996517e-12 1.1324136e-05 -8.2613817e-11 -1.41378e-07 2.2852074e-11 2.4109383e-11 
7.3055901e-12 1.1327804e-05 -8.2540736e-11 -1.4142106e-07 2.2858975e-11 2.4116312e-11 
7.3115334e-12 1.1331458e-05 -8.2467713e-11 -1.4146397e-07 2.2865848e-11 2.4123212e-11 
7.3174639e-12 1.1335098e-05 -8.2394768e-11 -1.415067e-07 2.2872694e-11 2.4130083e-11 
7.3233693e-12 1.1338723e-05 -8.2321889e-11 -1.4154927e-07 2.2879513e-11 2.4136925e-11 
7.3292838e-12 1.1342335e-05 -8.2249068e-11 -1.4159168e-07 2.2886303e-11 2.4143739e-11 
7.335172e-12 1.1345933e-05 -8.2176302e-11 -1.4163393e-07 2.2893067e-11 2.4150523e-11 
7.3410537e-12 1.1349517e-05 -8.2103611e-11 -1.4167601e-07 2.2899803e-11 2.4157279e-11 
7.3469155e-12 1.1353088e-05 -8.2030998e-11 -1.4171793e-07 2.2906513e-11 2.4164007e-11 
7.3527907e-12 1.1356644e-05 -8.1958455e-11 -1.4175969e-07 2.2913196e-11 2.4170706e-11 
7.358644e-12 1.1360187e-05 -8.1885969e-11 -1.4180129e-07 2.2919852e-11 2.4177376e-11 
7.3644762e-12 1.1363716e-05 -8.1813555e-11 -1.4184273e-07 2.2926481e-11 2.4184019e-11 
7.3703128e-12 1.1367232e-05 -8.1741214e-11 -1.4188401e-07 2.2933084e-11 2.4190634e-11 
7.3761427e-12 1.1370734e-05 -8.1668971e-11 -1.4192513e-07 2.293966e-11 2.4197221e-11 
7.3819603e-12 1.1374223e-05 -8.1596817e-11 -1.4196609e-07 2.2946209e-11 2.420378e-11 
7.3877605e-12 1.1377698e-05 -8.152472e-11 -1.4200689e-07 2.2952732e-11 2.4210312e-11 
7.3935425e-12 1.138116e-05 -8.1452697e-11 -1.4204754e-07 2.295923e-11 2.4216816e-11 
7.3993391e-12 1.1384608e-05 -8.1380758e-11 -1.4208803e-07  2.29657e-11 2.4223292e-11 
7.4051157e-12 1.1388044e-05 -8.1308907e-11 -1.4212836e-07 2.2972144e-11 2.4229741e-11 
7.4108896e-12 1.1391466e-05 -8.1237147e-11 -1.4216854e-07 2.2978563e-11 2.4236162e-11 
7.4166394e-12 1.1394875e-05 -8.1165477e-11 -1.4220857e-07 2.2984956e-11 2.4242556e-11 
7.4223872e-12 1.1398271e-05 -8.1093873e-11 -1.4224844e-07 2.2991324e-11 2.4248924e-11 
7.428127e-12 1.1401653e-05 -8.1022338e-11 -1.4228815e-07 2.2997665e-11 2.4255264e-11 
7.4338602e-12 1.1405023e-05 -8.0950873e-11 -1.4232772e-07 2.3003981e-11 2.4261578e-11 
7.4395789e-12 1.140838e-05 -8.0879496e-11 -1.4236713e-07 2.3010272e-11 2.4267866e-11 
7.4453061e-12 1.1411724e-05 -8.0808176e-11 -1.4240639e-07 2.3016537e-11 2.4274126e-11 
7.451006e-12 1.1415055e-05 -8.0736932e-11 -1.424455e-07 2.3022776e-11 2.4280361e-11 
7.4567238e-12 1.1418373e-05 -8.0665762e-11 -1.4248446e-07 2.302899e-11 2.4286569e-11 
7.4624259e-12 1.1421678e-05 -8.0594656e-11 -1.4252327e-07 2.303518e-11 2.4292752e-11 
7.4681183e-12 1.1424971e-05 -8.0523617e-11 -1.4256192e-07 2.3041344e-11 2.4298907e-11 
7.4738202e-12 1.1428251e-05 -8.0452651e-11 -1.4260043e-07 2.3047483e-11 2.4305038e-11 
7.4795185e-12 1.1431518e-05 -8.0381772e-11 -1.426388e-07 2.3053597e-11 2.4311142e-11 
7.485208e-12 1.1434773e-05 -8.0310966e-11 -1.4267701e-07 2.3059687e-11 2.431722e-11 
7.4908835e-12 1.1438015e-05 -8.0240215e-11 -1.4271508e-07 2.3065752e-11 2.4323273e-11 
7.4965664e-12 1.1441245e-05 -8.0169536e-11 -1.42753e-07 2.3071792e-11  2.43293e-11 
7.5022237e-12 1.1444463e-05 -8.0098937e-11 -1.4279077e-07 2.3077808e-11 2.4335302e-11 
7.5078908e-12 1.1447668e-05 -8.0028414e-11 -1.428284e-07 2.3083799e-11 2.4341279e-11 
7.5135694e-12 1.145086e-05 -7.995797e-11 -1.4286588e-07 2.3089766e-11 2.434723e-11 
7.5192211e-12 1.1454041e-05 -7.9887586e-11 -1.4290322e-07 2.3095709e-11 2.4353156e-11 
7.5248747e-12 1.1457209e-05 -7.9817288e-11 -1.4294042e-07 2.3101627e-11 2.4359057e-11 
7.5305119e-12 1.1460365e-05 -7.974707e-11 -1.4297747e-07 2.3107522e-11 2.4364933e-11 
7.5361461e-12 1.1463509e-05 -7.9676928e-11 -1.4301438e-07 2.3113394e-11 2.4370784e-11 
7.5417883e-12 1.146664e-05 -7.9606858e-11 -1.4305115e-07 2.3119242e-11 2.437661e-11 
7.547419e-12 1.146976e-05 -7.9536863e-11 -1.4308778e-07 2.3125068e-11 2.4382412e-11 
7.5530458e-12 1.1472868e-05 -7.9466941e-11 -1.4312426e-07 2.313087e-11 2.4388189e-11 
7.5586416e-12 1.1475964e-05 -7.9397098e-11 -1.4316061e-07 2.313665e-11 2.4393941e-11 
7.5642458e-12 1.1479047e-05 -7.9327321e-11 -1.4319681e-07 2.3142407e-11 2.4399669e-11 
7.569844e-12 1.1482119e-05 -7.9257627e-11 -1.4323288e-07 2.3148142e-11 2.4405373e-11 
7.575431e-12 1.1485179e-05 -7.9188016e-11 -1.432688e-07 2.3153855e-11 2.4411052e-11 
7.5810051e-12 1.1488228e-05 -7.911848e-11 -1.4330459e-07 2.3159545e-11 2.4416708e-11 
7.586579e-12 1.1491264e-05 -7.9049015e-11 -1.4334024e-07 2.3165213e-11 2.4422339e-11 
7.5921391e-12 1.1494289e-05 -7.897964e-11 -1.4337575e-07 2.3170858e-11 2.4427946e-11 
7.597684e-12 1.1497303e-05 -7.8910338e-11 -1.4341113e-07 2.3176482e-11 2.443353e-11 
7.603216e-12 1.1500304e-05 -7.8841125e-11 -1.4344637e-07 2.3182084e-11 2.4439089e-11 
7.6087462e-12 1.1503294e-05  -7.8772e-11 -1.4348148e-07 2.3187664e-11 2.4444625e-11 
7.6142615e-12 1.1506273e-05 -7.8702944e-11 -1.4351644e-07 2.3193222e-11 2.4450137e-11 
7.6197715e-12 1.150924e-05 -7.8633973e-11 -1.4355128e-07 2.3198759e-11 2.4455626e-11 
7.6252725e-12 1.1512196e-05 -7.856508e-11 -1.4358598e-07 2.3204274e-11 2.4461091e-11 
7.6307759e-12 1.151514e-05 -7.8496274e-11 -1.4362055e-07 2.3209767e-11 2.4466533e-11 
7.6362664e-12 1.1518073e-05 -7.8427558e-11 -1.4365498e-07 2.3215239e-11 2.4471951e-11 
7.6417316e-12 1.1520995e-05 -7.8358914e-11 -1.4368928e-07 2.322069e-11 2.4477347e-11 
7.6471875e-12 1.1523906e-05 -7.8290357e-11 -1.4372345e-07 2.3226119e-11 2.4482719e-11 
7.6526714e-12 1.1526805e-05 -7.822188e-11 -1.4375749e-07 2.3231528e-11 2.4488068e-11 
7.6581299e-12 1.1529693e-05 -7.8153504e-11 -1.4379139e-07 2.3236915e-11 2.4493395e-11 
7.663581e-12 1.153257e-05 -7.8085197e-11 -1.4382517e-07 2.3242281e-11 2.4498699e-11 
7.6690264e-12 1.1535436e-05 -7.801697e-11 -1.4385881e-07 2.3247626e-11 2.450398e-11 
7.674444e-12 1.1538291e-05 -7.7948851e-11 -1.4389233e-07 2.3252951e-11 2.4509238e-11 
7.6798662e-12 1.1541135e-05 -7.7880819e-11 -1.4392572e-07 2.3258254e-11 2.4514474e-11 
7.685275e-12 1.1543968e-05 -7.7812855e-11 -1.4395898e-07 2.3263537e-11 2.4519687e-11 
7.6906802e-12 1.154679e-05 -7.7744983e-11 -1.4399211e-07 2.3268799e-11 2.4524878e-11 
7.6960749e-12 1.1549601e-05 -7.7677222e-11 -1.4402511e-07 2.3274042e-11 2.4530047e-11 
7.7014672e-12 1.1552402e-05 -7.760954e-11 -1.4405798e-07 2.3279263e-11 2.4535193e-11 
7.7068505e-12 1.1555191e-05 -7.7541945e-11 -1.4409073e-07 2.3284464e-11 2.4540318e-11 
7.7122295e-12 1.155797e-05 -7.7474438e-11 -1.4412336e-07 2.3289645e-11 2.454542e-11 
7.7175935e-12 1.1560739e-05 -7.7407054e-11 -1.4415585e-07 2.3294806e-11 2.4550501e-11 
7.7229421e-12 1.1563496e-05 -7.733975e-11 -1.4418823e-07 2.3299946e-11 2.4555559e-11 
7.7282853e-12 1.1566243e-05 -7.7272549e-11 -1.4422047e-07 2.3305067e-11 2.4560596e-11 
7.7336329e-12 1.156898e-05 -7.7205452e-11 -1.442526e-07 2.3310167e-11 2.4565611e-11 
7.7389577e-12 1.1571705e-05 -7.7138445e-11 -1.442846e-07 2.3315248e-11 2.4570604e-11 
7.7442827e-12 1.1574421e-05 -7.7071552e-11 -1.4431647e-07 2.3320309e-11 2.4575576e-11 
7.7496068e-12 1.1577126e-05 -7.7004748e-11 -1.4434822e-07 2.332535e-11 2.4580527e-11 
7.7549213e-12 1.157982e-05 -7.6938036e-11 -1.4437986e-07 2.3330372e-11 2.4585455e-11 
7.7602205e-12 1.1582504e-05 -7.6871436e-11 -1.4441137e-07 2.3335374e-11 2.4590363e-11 
7.7655244e-12 1.1585178e-05 -7.6804941e-11 -1.4444275e-07 2.3340356e-11 2.459525e-11 
7.7707969e-12 1.1587842e-05 -7.6738537e-11 -1.4447402e-07 2.3345319e-11 2.4600115e-11 
[...]
7.6973308e-12 1.2277213e-05 -1.421844e-10 -1.5245922e-07 2.8504665e-11 1.9480697e-11 
7.6941023e-12 1.2277213e-05 -1.4214152e-10 -1.524592e-07 2.8504541e-11 1.9480742e-11 
7.6908841e-12 1.2277213e-05 -1.4209844e-10 -1.5245917e-07 2.8504418e-11 1.9480787e-11 
7.6876875e-12 1.2277213e-05 -1.4205514e-10 -1.5245914e-07 2.8504295e-11 1.948083e-11 
7.6844801e-12 1.2277213e-05 -1.4201163e-10 -1.5245911e-07 2.8504174e-11 1.9480872e-11 
7.6812814e-12 1.2277213e-05 -1.4196793e-10 -1.5245908e-07 2.8504052e-11 1.9480914e-11 
7.6780882e-12 1.2277213e-05 -1.4192401e-10 -1.5245905e-07 2.8503932e-11 1.9480955e-11 
7.6749121e-12 1.2277213e-05 -1.4187989e-10 -1.5245903e-07 2.8503813e-11 1.9480995e-11 
7.6717496e-12 1.2277213e-05 -1.4183556e-10 -1.52459e-07 2.8503695e-11 1.9481034e-11 
7.6686021e-12 1.2277213e-05 -1.4179104e-10 -1.5245897e-07 2.8503577e-11 1.9481072e-11 
7.665455e-12 1.2277213e-05 -1.417463e-10 -1.5245894e-07 2.8503461e-11 1.9481109e-11 
7.6623249e-12 1.2277213e-05 -1.4170137e-10 -1.5245891e-07 2.8503345e-11 1.9481145e-11 
7.6592013e-12 1.2277213e-05 -1.4165625e-10 -1.5245889e-07 2.850323e-11 1.948118e-11 
7.6560987e-12 1.2277213e-05 -1.4161092e-10 -1.5245886e-07 2.8503115e-11 1.9481214e-11 
7.6529957e-12 1.2277213e-05 -1.4156538e-10 -1.5245883e-07 2.8503002e-11 1.9481248e-11 
7.6499093e-12 1.2277213e-05 -1.4151963e-10 -1.524588e-07 2.850289e-11 1.948128e-11 
7.6468172e-12 1.2277213e-05 -1.414737e-10 -1.5245877e-07 2.8502779e-11 1.9481311e-11 
7.6437502e-12 1.2277213e-05 -1.4142756e-10 -1.5245875e-07 2.8502668e-11 1.9481341e-11 
7.6406942e-12 1.2277213e-05 -1.4138122e-10 -1.5245872e-07 2.8502558e-11 1.948137e-11 
7.6376488e-12 1.2277213e-05 -1.4133466e-10 -1.5245869e-07 2.8502449e-11 1.9481399e-11 
7.6346072e-12 1.2277213e-05 -1.4128789e-10 -1.5245866e-07 2.8502341e-11 1.9481426e-11 
7.6315924e-12 1.2277213e-05 -1.4124093e-10 -1.5245863e-07 2.8502234e-11 1.9481453e-11 
7.6285862e-12 1.2277213e-05 -1.4119378e-10 -1.5245861e-07 2.8502128e-11 1.9481478e-11 
7.6255801e-12 1.2277213e-05 -1.4114642e-10 -1.5245858e-07 2.8502022e-11 1.9481503e-11 
7.6225852e-12 1.2277213e-05 -1.4109886e-10 -1.5245855e-07 2.8501918e-11 1.9481526e-11 
7.6196092e-12 1.2277213e-05 -1.4105112e-10 -1.5245852e-07 2.8501815e-11 1.9481549e-11 
7.6166617e-12 1.2277213e-05 -1.4100315e-10 -1.5245849e-07 2.8501712e-11 1.9481571e-11 
7.6136979e-12 1.2277213e-05 -1.4095499e-10 -1.5245847e-07 2.850161e-11 1.9481592e-11 
7.6107581e-12 1.2277213e-05 -1.4090662e-10 -1.5245844e-07 2.850151e-11 1.9481612e-11 
7.6078293e-12 1.2277213e-05 -1.4085806e-10 -1.5245841e-07 2.850141e-11 1.948163e-11 
7.6049128e-12 1.2277213e-05 -1.4080931e-10 -1.5245838e-07 2.8501311e-11 1.9481648e-11 
7.602001e-12 1.2277213e-05 -1.4076034e-10 -1.5245836e-07 2.8501213e-11 1.9481665e-11 
7.5991064e-12 1.2277213e-05 -1.4071117e-10 -1.5245833e-07 2.8501116e-11 1.9481681e-11 
7.5962361e-12 1.2277213e-05 -1.406618e-10 -1.524583e-07 2.850102e-11 1.9481696e-11 
7.5933522e-12 1.2277213e-05 -1.4061223e-10 -1.5245827e-07 2.8500925e-11 1.948171e-11 
7.590494e-12 1.2277213e-05 -1.4056246e-10 -1.5245824e-07 2.8500831e-11 1.9481723e-11 
7.5876346e-12 1.2277213e-05 -1.4051248e-10 -1.5245822e-07 2.8500738e-11 1.9481735e-11 
7.584804e-12 1.2277213e-05 -1.4046231e-10 -1.5245819e-07 2.8500646e-11 1.9481747e-11 
7.5819937e-12 1.2277213e-05 -1.4041193e-10 -1.5245816e-07 2.8500555e-11 1.9481757e-11 
7.5791828e-12 1.2277213e-05 -1.4036135e-10 -1.5245813e-07 2.8500465e-11 1.9481766e-11 
7.5763845e-12 1.2277213e-05 -1.4031059e-10 -1.524581e-07 2.8500376e-11 1.9481774e-11 
7.5735914e-12 1.2277213e-05 -1.402596e-10 -1.5245808e-07 2.8500287e-11 1.9481781e-11 
7.5708206e-12 1.2277213e-05 -1.4020842e-10 -1.5245805e-07  2.85002e-11 1.9481787e-11 
7.5680579e-12 1.2277213e-05 -1.4015705e-10 -1.5245802e-07 2.8500114e-11 1.9481793e-11 
7.5653061e-12 1.2277213e-05 -1.4010549e-10 -1.5245799e-07 2.8500029e-11 1.9481797e-11 
7.562572e-12 1.2277213e-05 -1.4005371e-10 -1.5245797e-07 2.8499945e-11 1.9481801e-11 
7.5598393e-12 1.2277213e-05 -1.4000172e-10 -1.5245794e-07 2.8499862e-11 1.9481803e-11 
7.557121e-12 1.2277213e-05 -1.3994955e-10 -1.5245791e-07 2.849978e-11 1.9481804e-11 
7.5544177e-12 1.2277213e-05 -1.3989716e-10 -1.5245788e-07 2.8499699e-11 1.9481805e-11 
7.5517357e-12 1.2277213e-05 -1.3984458e-10 -1.5245786e-07 2.8499619e-11 1.9481804e-11 
7.549052e-12 1.2277213e-05 -1.3979181e-10 -1.5245783e-07 2.849954e-11 1.9481803e-11 
7.5463895e-12 1.2277213e-05 -1.3973883e-10 -1.524578e-07 2.8499462e-11  1.94818e-11 
7.5437376e-12 1.2277212e-05 -1.3968565e-10 -1.5245777e-07 2.8499384e-11 1.9481796e-11 
7.541089e-12 1.2277212e-05 -1.3963227e-10 -1.5245774e-07 2.8499309e-11 1.9481792e-11 
7.5384473e-12 1.2277212e-05 -1.395787e-10 -1.5245772e-07 2.8499234e-11 1.9481786e-11 
7.5358309e-12 1.2277212e-05 -1.3952492e-10 -1.5245769e-07 2.849916e-11 1.948178e-11 
7.5332286e-12 1.2277212e-05 -1.3947095e-10 -1.5245766e-07 2.8499087e-11 1.9481773e-11 
7.5306421e-12 1.2277212e-05 -1.3941678e-10 -1.5245763e-07 2.8499015e-11 1.9481765e-11 
7.528066e-12 1.2277212e-05 -1.393624e-10 -1.5245761e-07 2.8498945e-11 1.9481755e-11 
7.5255003e-12 1.2277212e-05 -1.3930783e-10 -1.5245758e-07 2.8498875e-11 1.9481744e-11 
7.5229552e-12 1.2277212e-05 -1.3925307e-10 -1.5245755e-07 2.8498807e-11 1.9481733e-11 
7.5204134e-12 1.2277212e-05 -1.3919809e-10 -1.5245752e-07 2.849874e-11 1.9481721e-11 
7.5178796e-12 1.2277212e-05 -1.3914291e-10 -1.524575e-07 2.8498673e-11 1.9481707e-11 
7.5153644e-12 1.2277212e-05 -1.3908754e-10 -1.5245747e-07 2.8498609e-11 1.9481693e-11 
7.5128615e-12 1.2277212e-05 -1.3903197e-10 -1.5245744e-07 2.8498545e-11 1.9481678e-11 
7.5103736e-12 1.2277212e-05 -1.3897621e-10 -1.5245741e-07 2.8498481e-11 1.9481662e-11 
7.507892e-12 1.2277212e-05 -1.3892024e-10 -1.5245739e-07 2.849842e-11 1.9481644e-11 
7.5054234e-12 1.2277212e-05 -1.3886407e-10 -1.5245736e-07 2.8498359e-11 1.9481626e-11 
7.5029682e-12 1.2277212e-05 -1.3880772e-10 -1.5245733e-07  2.84983e-11 1.9481607e-11 
7.5005309e-12 1.2277212e-05 -1.3875117e-10 -1.524573e-07 2.8498241e-11 1.9481586e-11 
7.498113e-12 1.2277212e-05 -1.386944e-10 -1.5245728e-07 2.8498183e-11 1.9481565e-11 
7.4957064e-12 1.2277212e-05 -1.3863743e-10 -1.5245725e-07 2.8498127e-11 1.9481542e-11 
7.4932933e-12 1.2277212e-05 -1.3858027e-10 -1.5245722e-07 2.8498073e-11 1.9481519e-11 
7.4909068e-12 1.2277212e-05 -1.3852291e-10 -1.5245719e-07 2.8498019e-11 1.9481494e-11 
7.4885264e-12 1.2277212e-05 -1.3846537e-10 -1.5245717e-07 2.8497966e-11 1.9481469e-11 
7.4861541e-12 1.2277212e-05 -1.3840763e-10 -1.5245714e-07 2.8497914e-11 1.9481443e-11 
7.4838114e-12 1.2277212e-05 -1.3834967e-10 -1.5245711e-07 2.8497864e-11 1.9481416e-11 
7.481489e-12 1.2277212e-05 -1.3829152e-10 -1.5245708e-07 2.8497815e-11 1.9481387e-11 
7.479165e-12 1.2277212e-05 -1.3823316e-10 -1.5245706e-07 2.8497767e-11 1.9481358e-11 
7.4768495e-12 1.2277212e-05 -1.3817463e-10 -1.5245703e-07 2.849772e-11 1.9481328e-11 
7.4745504e-12 1.2277212e-05 -1.3811589e-10 -1.52457e-07 2.8497675e-11 1.9481296e-11 
7.4722706e-12 1.2277212e-05 -1.3805693e-10 -1.5245697e-07 2.849763e-11 1.9481264e-11 
7.4699956e-12 1.2277212e-05 -1.3799779e-10 -1.5245695e-07 2.8497587e-11 1.9481231e-11 
7.4677134e-12 1.2277212e-05 -1.3793843e-10 -1.5245692e-07 2.8497545e-11 1.9481197e-11 
7.4654394e-12 1.2277212e-05 -1.3787887e-10 -1.5245689e-07 2.8497504e-11 1.9481162e-11 
7.4631814e-12 1.2277212e-05 -1.3781909e-10 -1.5245687e-07 2.8497463e-11 1.9481128e-11 
7.4609134e-12 1.2277212e-05 -1.3775909e-10 -1.5245684e-07 2.8497423e-11 1.9481092e-11 
7.4586492e-12 1.2277212e-05 -1.3769887e-10 -1.5245681e-07 2.8497384e-11 1.9481056e-11 
7.4564015e-12 1.2277212e-05 -1.3763843e-10 -1.5245678e-07 2.8497344e-11 1.9481019e-11 
7.4541424e-12 1.2277212e-05 -1.3757775e-10 -1.5245676e-07 2.8497304e-11 1.9480983e-11 
7.4518875e-12 1.2277212e-05 -1.3751683e-10 -1.5245673e-07 2.8497263e-11 1.9480945e-11 
7.4496504e-12 1.2277212e-05 -1.3745567e-10 -1.524567e-07 2.8497222e-11 1.9480907e-11 
7.4474062e-12 1.2277212e-05 -1.3739428e-10 -1.5245667e-07 2.8497182e-11 1.9480869e-11 
7.4451649e-12 1.2277212e-05 -1.3733267e-10 -1.5245665e-07 2.849714e-11 1.948083e-11 
7.4429418e-12 1.2277212e-05 -1.3727083e-10 -1.5245662e-07 2.8497098e-11 1.948079e-11 
7.4407199e-12 1.2277212e-05 -1.3720874e-10 -1.5245659e-07 2.8497056e-11 1.948075e-11 
7.4384858e-12 1.2277212e-05 -1.3714643e-10 -1.5245656e-07 2.8497013e-11 1.948071e-11 
7.4362788e-12 1.2277212e-05 -1.3708389e-10 -1.5245654e-07 2.849697e-11 1.948067e-11 
 7.43407e-12 1.2277212e-05 -1.3702109e-10 -1.5245651e-07 2.8496927e-11 1.9480628e-11 
7.4318796e-12 1.2277212e-05 -1.3695807e-10 -1.5245648e-07 2.8496883e-11 1.9480586e-11 
7.429678e-12 1.2277212e-05 -1.3689482e-10 -1.5245646e-07 2.8496838e-11 1.9480544e-11 
7.4274805e-12 1.2277212e-05 -1.3683133e-10 -1.5245643e-07 2.8496794e-11 1.9480502e-11 
7.4252879e-12 1.2277212e-05 -1.3676766e-10 -1.524564e-07 2.8496751e-11 1.9480459e-11 
7.4230936e-12 1.2277212e-05 -1.3670381e-10 -1.5245637e-07 2.8496712e-11 1.9480415e-11 
7.420901e-12 1.2277212e-05 -1.3663979e-10 -1.5245635e-07 2.8496676e-11 1.9480372e-11 
7.4187136e-12 1.2277212e-05 -1.3657562e-10 -1.5245632e-07 2.8496643e-11 1.9480328e-11 
7.4165362e-12 1.2277212e-05 -1.3651128e-10 -1.5245629e-07 2.8496614e-11 1.9480284e-11 
7.4143559e-12 1.2277212e-05 -1.3644677e-10 -1.5245627e-07 2.8496588e-11 1.9480239e-11 
7.4121818e-12 1.2277212e-05 -1.3638212e-10 -1.5245624e-07 2.8496565e-11 1.9480195e-11 
7.4100103e-12 1.2277212e-05 -1.3631729e-10 -1.5245621e-07 2.8496547e-11 1.948015e-11 
7.4078503e-12 1.2277212e-05 -1.3625232e-10 -1.5245618e-07 2.8496531e-11 1.9480105e-11 
7.405703e-12 1.2277212e-05 -1.361872e-10 -1.5245616e-07 2.8496519e-11 1.9480059e-11 
7.4035369e-12 1.2277212e-05 -1.3612191e-10 -1.5245613e-07 2.8496511e-11 1.9480014e-11 
7.4013863e-12 1.2277212e-05 -1.3605648e-10 -1.524561e-07 2.8496507e-11 1.9479968e-11 
7.3992379e-12 1.2277212e-05 -1.359909e-10 -1.5245608e-07 2.8496505e-11 1.9479922e-11 
7.3970979e-12 1.2277212e-05 -1.3592516e-10 -1.5245605e-07 2.8496508e-11 1.9479875e-11 
7.3949517e-12 1.2277212e-05 -1.3585927e-10 -1.5245602e-07 2.8496514e-11 1.9479829e-11 
7.3928037e-12 1.2277212e-05 -1.3579321e-10 -1.5245599e-07 2.8496523e-11 1.9479782e-11 
7.3906804e-12 1.2277212e-05 -1.3572701e-10 -1.5245597e-07 2.8496537e-11 1.9479735e-11 
7.3885481e-12 1.2277212e-05 -1.3566066e-10 -1.5245594e-07 2.8496553e-11 1.9479687e-11 
7.3864137e-12 1.2277212e-05 -1.3559417e-10 -1.5245591e-07 2.8496574e-11 1.947964e-11 
7.3843024e-12 1.2277212e-05 -1.3552752e-10 -1.5245589e-07 2.8496597e-11 1.9479592e-11 
7.3821918e-12 1.2277212e-05 -1.3546071e-10 -1.5245586e-07 2.8496625e-11 1.9479544e-11 
7.3800892e-12 1.2277212e-05 -1.3539375e-10 -1.5245583e-07 2.8496656e-11 1.9479496e-11 
7.3779985e-12 1.2277212e-05 -1.3532664e-10 -1.5245581e-07 2.849669e-11 1.9479447e-11 
7.3759046e-12 1.2277212e-05 -1.3525939e-10 -1.5245578e-07 2.8496728e-11 1.9479398e-11 
7.3738105e-12 1.2277212e-05 -1.3519199e-10 -1.5245575e-07 2.849677e-11 1.9479349e-11 
7.3717153e-12 1.2277212e-05 -1.3512445e-10 -1.5245573e-07 2.8496815e-11 1.9479301e-11 
7.369629e-12 1.2277212e-05 -1.3505675e-10 -1.524557e-07 2.8496864e-11 1.9479251e-11 
7.367548e-12 1.2277212e-05 -1.349889e-10 -1.5245567e-07 2.8496917e-11 1.9479201e-11 
7.3654798e-12 1.2277212e-05 -1.349209e-10 -1.5245564e-07 2.8496973e-11 1.9479152e-11 
 7.36342e-12 1.2277212e-05 -1.3485275e-10 -1.5245562e-07 2.8497032e-11 1.9479102e-11 
7.3613647e-12 1.2277212e-05 -1.3478444e-10 -1.5245559e-07 2.8497096e-11 1.9479052e-11 
  7.3593e-12 1.2277212e-05 -1.3471601e-10 -1.5245556e-07 2.8497163e-11 1.9479001e-11 
7.3572425e-12 1.2277212e-05 -1.3464741e-10 -1.5245554e-07 2.8497233e-11 1.9478951e-11 
7.3552026e-12 1.2277212e-05 -1.3457868e-10 -1.5245551e-07 2.8497307e-11  1.94789e-11 
7.353175e-12 1.2277212e-05 -1.3450979e-10 -1.5245548e-07 2.8497385e-11 1.9478849e-11 
7.3511496e-12 1.2277212e-05 -1.3444076e-10 -1.5245546e-07 2.8497465e-11 1.9478798e-11 
7.3491334e-12 1.2277212e-05 -1.3437155e-10 -1.5245543e-07 2.8497551e-11 1.9478747e-11 
7.3471225e-12 1.2277212e-05 -1.3430224e-10 -1.524554e-07 2.8497639e-11 1.9478696e-11 
7.3451007e-12 1.2277212e-05 -1.3423277e-10 -1.5245538e-07 2.8497731e-11 1.9478644e-11 
7.3430836e-12 1.2277212e-05 -1.3416316e-10 -1.5245535e-07 2.8497826e-11 1.9478593e-11 
7.3410841e-12 1.2277212e-05 -1.340934e-10 -1.5245532e-07 2.8497925e-11 1.9478541e-11 
7.339093e-12 1.2277212e-05 -1.3402347e-10 -1.524553e-07 2.8498028e-11 1.9478488e-11 
7.3370948e-12 1.2277212e-05 -1.339534e-10 -1.5245527e-07 2.8498134e-11 1.9478436e-11 
7.3351138e-12 1.2277212e-05 -1.338832e-10 -1.5245524e-07 2.8498244e-11 1.9478384e-11 
7.3331286e-12 1.2277212e-05 -1.3381285e-10 -1.5245522e-07 2.8498357e-11 1.9478331e-11 
7.3311521e-12 1.2277212e-05 -1.3374236e-10 -1.5245519e-07 2.8498474e-11 1.9478278e-11 
7.3291861e-12 1.2277212e-05 -1.3367173e-10 -1.5245516e-07 2.8498595e-11 1.9478225e-11 
7.3272345e-12 1.2277212e-05 -1.3360094e-10 -1.5245514e-07 2.8498719e-11 1.9478172e-11 
7.3252928e-12 1.2277212e-05  -1.3353e-10 -1.5245511e-07 2.8498847e-11 1.9478119e-11 
7.3233459e-12 1.2277212e-05 -1.3345892e-10 -1.5245508e-07 2.8498978e-11 1.9478066e-11 
7.3214121e-12 1.2277212e-05 -1.3338771e-10 -1.5245506e-07 2.8499113e-11 1.9478013e-11 
7.3194776e-12 1.2277212e-05 -1.3331635e-10 -1.5245503e-07 2.8499251e-11 1.9477959e-11 
7.3175425e-12 1.2277212e-05 -1.3324484e-10 -1.52455e-07 2.8499393e-11 1.9477905e-11 
7.3156247e-12 1.2277212e-05 -1.3317317e-10 -1.5245498e-07 2.8499539e-11 1.9477851e-11 
7.3137072e-12 1.2277212e-05 -1.3310138e-10 -1.5245495e-07 2.8499689e-11 1.9477797e-11 
7.3117969e-12 1.2277212e-05 -1.3302944e-10 -1.5245493e-07 2.8499841e-11 1.9477743e-11 
7.3098967e-12 1.2277212e-05 -1.3295736e-10 -1.524549e-07 2.8499998e-11 1.9477688e-11 
7.3080019e-12 1.2277212e-05 -1.3288515e-10 -1.5245487e-07 2.8500158e-11 1.9477634e-11 
7.3061021e-12 1.2277212e-05 -1.3281279e-10 -1.5245485e-07 2.8500321e-11 1.947758e-11 
7.3042238e-12 1.2277212e-05 -1.3274028e-10 -1.5245482e-07 2.8500488e-11 1.9477525e-11 
7.3023367e-12 1.2277212e-05 -1.3266763e-10 -1.5245479e-07 2.8500659e-11 1.947747e-11 
7.3004592e-12 1.2277212e-05 -1.3259483e-10 -1.5245477e-07 2.8500834e-11 1.9477415e-11 
7.2986057e-12 1.2277212e-05 -1.3252191e-10 -1.5245474e-07 2.8501012e-11 1.947736e-11 
7.296753e-12 1.2277212e-05 -1.3244883e-10 -1.5245471e-07 2.8501193e-11 1.9477305e-11 
7.2949088e-12 1.2277212e-05 -1.3237559e-10 -1.5245469e-07 2.8501378e-11 1.9477249e-11 
7.2930761e-12 1.2277212e-05 -1.3230222e-10 -1.5245466e-07 2.8501567e-11 1.9477194e-11 
7.291235e-12 1.2277212e-05 -1.3222873e-10 -1.5245463e-07 2.8501759e-11 1.9477139e-11 
7.2894085e-12 1.2277212e-05 -1.3215509e-10 -1.5245461e-07 2.8501955e-11 1.9477083e-11 
7.2875945e-12 1.2277212e-05 -1.320813e-10 -1.5245458e-07 2.8502155e-11 1.9477027e-11 
7.2857701e-12 1.2277212e-05 -1.3200739e-10 -1.5245456e-07 2.8502358e-11 1.9476971e-11 
7.2839595e-12 1.2277212e-05 -1.3193331e-10 -1.5245453e-07 2.8502565e-11 1.9476916e-11 
7.2821485e-12 1.2277212e-05 -1.3185912e-10 -1.524545e-07 2.8502775e-11 1.947686e-11 
7.2803572e-12 1.2277212e-05 -1.3178478e-10 -1.5245448e-07 2.8502989e-11 1.9476804e-11 
7.2785674e-12 1.2277212e-05 -1.3171028e-10 -1.5245445e-07 2.8503207e-11 1.9476747e-11 
7.2767803e-12 1.2277212e-05 -1.3163564e-10 -1.5245442e-07 2.8503427e-11 1.9476691e-11 
7.2750271e-12 1.2277212e-05 -1.3156087e-10 -1.524544e-07 2.8503652e-11 1.9476635e-11 
7.2732663e-12 1.2277212e-05 -1.3148598e-10 -1.5245437e-07 2.850388e-11 1.9476579e-11 
7.271506e-12 1.2277212e-05 -1.3141094e-10 -1.5245435e-07 2.8504112e-11 1.9476523e-11 
7.2697356e-12 1.2277212e-05 -1.3133577e-10 -1.5245432e-07 2.8504348e-11 1.9476466e-11 
7.267994e-12 1.2277212e-05 -1.3126045e-10 -1.5245429e-07 2.8504587e-11 1.947641e-11 
7.2662678e-12 1.2277212e-05 -1.3118499e-10 -1.5245427e-07 2.8504829e-11 1.9476353e-11 
7.2645272e-12 1.2277212e-05 -1.3110938e-10 -1.5245424e-07 2.8505076e-11 1.9476296e-11 
7.2627969e-12 1.2277212e-05 -1.3103364e-10 -1.5245421e-07 2.8505325e-11 1.947624e-11 
7.2610695e-12 1.2277212e-05 -1.3095776e-10 -1.5245419e-07 2.8505578e-11 1.9476183e-11 
7.2593456e-12 1.2277212e-05 -1.3088174e-10 -1.5245416e-07 2.8505835e-11 1.9476126e-11 
7.2576414e-12 1.2277212e-05 -1.3080561e-10 -1.5245414e-07 2.8506096e-11 1.9476069e-11 
7.2559341e-12 1.2277212e-05 -1.3072933e-10 -1.5245411e-07 2.850636e-11 1.9476012e-11 
7.2542521e-12 1.2277212e-05 -1.306529e-10 -1.5245408e-07 2.8506628e-11 1.9475955e-11 
7.2525716e-12 1.2277212e-05 -1.3057635e-10 -1.5245406e-07 2.8506899e-11 1.9475898e-11 
7.2509024e-12 1.2277212e-05 -1.3049965e-10 -1.5245403e-07 2.8507174e-11 1.9475841e-11 
7.2492293e-12 1.2277212e-05 -1.3042281e-10 -1.5245401e-07 2.8507453e-11 1.9475784e-11 
7.2475764e-12 1.2277212e-05 -1.3034583e-10 -1.5245398e-07 2.8507735e-11 1.9475727e-11 
7.2459194e-12 1.2277212e-05 -1.3026872e-10 -1.5245395e-07 2.8508021e-11 1.947567e-11 
7.2442633e-12 1.2277212e-05 -1.3019149e-10 -1.5245393e-07 2.850831e-11 1.9475612e-11 
7.2426263e-12 1.2277212e-05 -1.3011411e-10 -1.524539e-07 2.8508604e-11 1.9475556e-11 
7.240992e-12 1.2277212e-05 -1.3003659e-10 -1.5245388e-07  2.85089e-11 1.9475498e-11 
7.2393644e-12 1.2277212e-05 -1.2995896e-10 -1.5245385e-07 2.8509199e-11 1.9475441e-11 
7.2377314e-12 1.2277212e-05 -1.2988125e-10 -1.5245382e-07 2.8509498e-11 1.9475384e-11 
7.2361416e-12 1.2277212e-05 -1.2980345e-10 -1.524538e-07 2.8509798e-11 1.9475326e-11 
7.2345385e-12 1.2277212e-05 -1.297256e-10 -1.5245377e-07 2.8510097e-11 1.9475268e-11 
7.2329309e-12 1.2277212e-05 -1.2964767e-10 -1.5245375e-07 2.8510397e-11 1.947521e-11 
7.2313577e-12 1.2277212e-05 -1.295697e-10 -1.5245372e-07 2.8510696e-11 1.9475152e-11 
7.229798e-12 1.2277212e-05 -1.2949166e-10 -1.5245369e-07 2.8510994e-11 1.9475093e-11 
7.2282225e-12 1.2277212e-05 -1.2941358e-10 -1.5245367e-07 2.8511294e-11 1.9475035e-11 
7.2266518e-12 1.2277212e-05 -1.2933547e-10 -1.5245364e-07 2.8511595e-11 1.9474977e-11 
7.2250837e-12 1.2277212e-05 -1.2925734e-10 -1.5245362e-07 2.8511898e-11 1.9474919e-11 
7.2235297e-12 1.2277212e-05 -1.291792e-10 -1.5245359e-07 2.8512201e-11 1.9474862e-11 
7.2219623e-12 1.2277212e-05 -1.2910105e-10 -1.5245357e-07 2.8512507e-11 1.9474805e-11 
7.2203928e-12 1.2277212e-05 -1.2902286e-10 -1.5245354e-07 2.8512814e-11 1.9474748e-11 
7.2188141e-12 1.2277212e-05 -1.2894467e-10 -1.5245351e-07 2.8513123e-11 1.9474693e-11 
7.2172592e-12 1.2277212e-05 -1.2886645e-10 -1.5245349e-07 2.8513433e-11 1.9474637e-11 
7.2156717e-12 1.2277212e-05 -1.2878825e-10 -1.5245346e-07 2.8513745e-11 1.9474581e-11 
7.2140885e-12 1.2277212e-05 -1.2871002e-10 -1.5245344e-07 2.8514058e-11 1.9474526e-11 
7.212504e-12 1.2277212e-05 -1.2863179e-10 -1.5245341e-07 2.8514374e-11 1.9474472e-11 
7.2109147e-12 1.2277212e-05 -1.2855355e-10 -1.5245339e-07 2.851469e-11 1.9474417e-11 
7.2093167e-12 1.2277212e-05 -1.284753e-10 -1.5245336e-07 2.8515009e-11 1.9474363e-11 
7.2077294e-12 1.2277212e-05 -1.2839705e-10 -1.5245334e-07 2.8515329e-11 1.947431e-11 
7.2061368e-12 1.2277212e-05 -1.2831878e-10 -1.5245331e-07 2.851565e-11 1.9474257e-11 
7.2045314e-12 1.2277212e-05 -1.2824052e-10 -1.5245328e-07 2.8515973e-11 1.9474205e-11 
7.2029287e-12 1.2277212e-05 -1.2816225e-10 -1.5245326e-07 2.8516297e-11 1.9474153e-11 
7.2013304e-12 1.2277212e-05 -1.2808399e-10 -1.5245323e-07 2.8516624e-11 1.9474101e-11 
7.1997358e-12 1.2277212e-05 -1.280057e-10 -1.5245321e-07 2.8516951e-11 1.9474049e-11 
7.1981232e-12 1.2277212e-05 -1.2792741e-10 -1.5245318e-07 2.8517281e-11 1.9473998e-11 
Loop time of 40873.4 on 8 procs for 200000 steps with 320 atoms

Pair  time (%) = 0.212109 (0.000518942)
Neigh time (%) = 0.0361506 (8.84454e-05)
Comm  time (%) = 1.61704 (0.00395621)
Outpt time (%) = 4.74365 (0.0116057)
Other time (%) = 40866.8 (99.9838)

Nlocal:    40 ave 127 max 0 min
Histogram: 4 0 2 0 0 0 0 0 0 2
Nghost:    19.75 ave 50 max 0 min
Histogram: 4 0 0 0 0 1 1 0 0 2
Neighs:    0 ave 0 max 0 min
Histogram: 8 0 0 0 0 0 0 0 0 0

Total # of neighbors = 0
Ave neighs/atom = 0
Neighbor list builds = 24
Dangerous builds = 0
