LAMMPS (16 Aug 2013)
Reading data file ...
  orthogonal box = (-160 -160 -40) to (160 160 280)
  2 by 2 by 2 MPI processor grid
  320 atoms
320 atoms in group sphere1
Using a lattice-Boltzmann grid of 80 by 80 by 81 total grid points. (../fix_lb_fluid.cpp:354)
1 rigid bodies with 320 atoms
Setting up run ...
Memory usage per processor = 6.04489 Mbytes
vx vy vz omegax omegay omegaz 
           0            0            0            0            0            0 
-3.6948299e-50 1.3000328e-50 1.2511404e-18 2.2537139e-36 -2.7052908e-35 6.8395577e-40 
2.835099e-22 2.0191906e-19 7.8202616e-18 3.228433e-20 3.1489421e-21 -4.8867727e-24 
7.1225221e-22 4.2539784e-21 5.794556e-18 3.9752422e-22 4.6078407e-23 4.3272674e-23 
1.615407e-26 9.6481361e-26 5.7824119e-18 9.0159552e-27 1.0450705e-27 9.8143574e-28 
3.6637859e-31 2.1882229e-30 5.7824116e-18 2.0454837e-31 2.3739222e-32 2.2259224e-32 
8.3095639e-36 4.9629478e-35 5.7824116e-18  5.41068e-35 3.6072003e-35 5.052769e-37 
1.8846312e-40 1.1256098e-39 5.7824116e-18 5.4106787e-35 3.6072015e-35 5.4844528e-40 
4.2743951e-45 2.5529129e-44 5.7824116e-18 5.4106787e-35 3.6072015e-35 5.3699791e-40 
 9.73314e-50 5.7892351e-49 5.7824116e-18 5.4106787e-35 3.6072015e-35 5.3699765e-40 
-2.6941468e-51 2.0580288e-52 5.7824116e-18 5.4106787e-35 3.6072015e-35 5.3699765e-40 
1.9671548e-51 2.2451224e-52 5.7824116e-18 5.4106787e-35 3.6072015e-35 5.3699765e-40 
-2.6513826e-51 -1.6170226e-52 5.7824116e-18 5.4106787e-35 3.6072015e-35 5.3699765e-40 
-1.9671548e-51 -2.7796753e-52 5.7824116e-18 5.4106787e-35 3.6072015e-35 5.3699765e-40 
-2.5658541e-52 2.2451224e-52 5.7824116e-18 5.4106787e-35 3.6072015e-35 5.3699765e-40 
-7.9836858e-23 -2.8930551e-20 1.0320482e-17 3.0859239e-21 -4.0381404e-23 3.2916268e-24 
-4.3129471e-19 1.6458611e-18 8.5264579e-17 -9.2918641e-21 -2.9547198e-20 1.8407757e-21 
1.908802e-18 -4.5981731e-18 1.8931271e-16 5.7254198e-21 5.8765465e-21 -7.3019016e-20 
-1.657228e-18 -4.6582499e-19 2.5028326e-16 -2.3868346e-20 -7.1393808e-20 3.0563911e-22 
1.8253667e-17 5.8859947e-18 2.6037467e-16 -6.7986451e-21 -1.5424783e-19 5.0531835e-20 
9.704115e-18 -7.7473857e-19 2.7168907e-16 -1.3874226e-19 -2.8199759e-19 5.1592866e-20 
-2.7140038e-19 -1.7519049e-18 2.6165161e-16 -1.2294585e-19 -2.8730599e-19 7.9411934e-20 
2.3930291e-17 -1.9546894e-17 2.9695726e-16 -3.0723262e-19 -1.1093007e-19 5.225672e-20 
2.8685564e-17 4.2017456e-18 5.3681205e-16 -7.155379e-19 2.431954e-20 3.4881549e-20 
5.6592327e-18 5.8125936e-17 8.427707e-16 -2.7644702e-18 8.6992141e-20 7.2204766e-20 
-1.8855541e-17 1.3490583e-16 1.0651777e-15 -8.0754556e-18 1.4787037e-19 9.9091325e-20 
-1.9084242e-17 3.6949749e-16 1.0894298e-15 -2.048173e-17 1.4063402e-19 1.3272244e-19 
-1.2040489e-17 8.633765e-16 1.0731678e-15 -4.7848299e-17 3.0133702e-19 -5.988393e-20 
-2.1320895e-17 1.8518521e-15 1.0330065e-15 -1.0530288e-16 1.6377803e-19 -1.3493697e-19 
-2.256309e-17 3.8829202e-15 9.5071562e-16 -2.199024e-16 -9.8967536e-20 4.3707039e-20 
-1.6620722e-17 7.8809678e-15 8.9956396e-16 -4.3936531e-16 -2.02517e-19 6.7323744e-21 
-1.0578739e-17 1.5360307e-14 8.3444136e-16 -8.4241724e-16 -5.7750971e-20 -6.7440679e-20 
-6.8091431e-18 2.8732497e-14 7.4485859e-16 -1.5551541e-15 -3.5370232e-20 -7.5222733e-20 
-4.1447439e-18 5.1942086e-14 6.3571619e-16 -2.7691631e-15 -8.1826115e-20 6.9142947e-20 
-7.6215464e-18 9.0868331e-14 5.4862453e-16 -4.7708486e-15 -5.0905356e-20 3.3814316e-19 
-1.5112383e-17 1.5415024e-13 4.8050084e-16 -7.9740083e-15 -1.814104e-19 7.3855794e-19 
-1.8741358e-17 2.5440182e-13 4.1244282e-16 -1.2962061e-14 -2.6653039e-19 1.2852102e-18 
-1.7575551e-17 4.0919064e-13 3.5787275e-16 -2.0534649e-14 -2.797409e-19 1.9726148e-18 
-1.5970234e-17 6.4255176e-13 3.127818e-16 -3.1767595e-14 -5.8438124e-19 3.0352669e-18 
-1.7848294e-17 9.8693852e-13 2.4274105e-16 -4.807717e-14 -9.3299941e-19 4.5427694e-18 
-3.2496288e-17 1.4850909e-12 1.5404036e-16 -7.1292766e-14 -1.4277354e-18 6.352289e-18 
-3.6005243e-17 2.1924144e-12 1.023962e-16 -1.0373729e-13 -1.8093932e-18 9.2372712e-18 
-3.679217e-17 3.1796719e-12 1.6138309e-16 -1.4831288e-13 -2.7823743e-18 1.2703402e-17 
-3.6432298e-17 4.5357799e-12 2.7985507e-16 -2.0859194e-13 -3.953278e-18 1.7441351e-17 
-5.9758205e-17 6.3710366e-12 2.7069844e-16 -2.8891201e-13 -5.2480321e-18 2.3754922e-17 
-8.110839e-17 8.8204037e-12 1.3719202e-16 -3.9447163e-13 -7.09318e-18 3.1855152e-17 
-1.2526367e-16 1.2047145e-11 7.499594e-18 -5.3142795e-13 -9.5338763e-18 4.2000594e-17 
-1.5759441e-16 1.6246574e-11 -7.3402376e-17 -7.0699216e-13 -1.2533306e-17 5.4724094e-17 
-2.0987799e-16 2.1649941e-11 -1.5900834e-16 -9.2952318e-13 -1.6454466e-17 7.0529062e-17 
-2.699645e-16 2.8528364e-11 -3.2855744e-16 -1.2086163e-12 -2.1434142e-17 8.9994712e-17 
-3.3717072e-16 3.7196819e-11 -5.8197788e-16 -1.5551866e-12 -2.745356e-17 1.1375218e-16 
-4.1469452e-16 4.8018195e-11 -8.7009657e-16 -1.9815443e-12 -3.4966025e-17 1.4246439e-16 
-5.2539716e-16 6.1407183e-11 -1.2956924e-15 -2.501463e-12 -4.3773827e-17 1.7694022e-16 
-6.5423624e-16 7.7834079e-11 -1.8895078e-15 -3.1302382e-12 -5.4754381e-17 2.1803221e-16 
-7.9687966e-16 9.782858e-11 -2.6535924e-15 -3.8847355e-12 -6.74803e-17 2.6632158e-16 
-9.3845374e-16 1.2198333e-10 -3.5563705e-15 -4.7834284e-12 -8.2707496e-17 3.2288027e-16 
-1.1253125e-15 1.5095722e-10 -4.6425688e-15 -5.8464246e-12 -1.0072032e-16 3.8867409e-16 
-1.3506531e-15 1.8547848e-10 -6.0292946e-15 -7.0954811e-12 -1.2168827e-16 4.6461546e-16 
-1.584017e-15 2.2634747e-10 -7.7385744e-15 -8.5540079e-12 -1.4610746e-16 5.5205264e-16 
-1.8638601e-15 2.7443917e-10 -9.7666595e-15 -1.024706e-11 -1.7454538e-16 6.5211642e-16 
-2.1874784e-15 3.3070532e-10 -1.2183986e-14 -1.2201321e-11 -2.0703297e-16 7.6579027e-16 
-2.5339136e-15 3.9617625e-10 -1.5073712e-14 -1.444507e-11 -2.4455704e-16 8.9447171e-16 
-2.9603583e-15 4.7196232e-10 -1.8548032e-14 -1.7008145e-11 -2.8683403e-16 1.0393858e-15 
-3.3958221e-15 5.592551e-10 -2.2710329e-14 -1.9921891e-11 -3.350381e-16 1.2018937e-15 
-3.8846571e-15 6.5932814e-10 -2.7662222e-14 -2.3219107e-11 -3.8947895e-16 1.3831839e-15 
-4.4258415e-15 7.7353715e-10 -3.345247e-14 -2.6933976e-11 -4.5049643e-16 1.5847183e-15 
-5.010371e-15 9.033201e-10 -4.0161174e-14 -3.1101991e-11 -5.1893688e-16 1.8077987e-15 
-5.6754508e-15 1.0501968e-09 -4.7776843e-14 -3.5759879e-11 -5.9522693e-16 2.0540661e-15 
-6.3836271e-15 1.2157683e-09 -5.6451887e-14 -4.0945515e-11 -6.7977902e-16 2.324437e-15 
-7.1481518e-15 1.4017154e-09 -6.6218928e-14 -4.6697829e-11  -7.7345e-16 2.6209285e-15 
-7.9825753e-15 1.6097979e-09 -7.728802e-14 -5.3056717e-11 -8.7688897e-16 2.9445629e-15 
-8.8803662e-15 1.8418523e-09 -8.9703275e-14 -6.0062939e-11 -9.9039479e-16 3.2967715e-15 
-9.839677e-15 2.0997901e-09 -1.0366161e-13 -6.7758024e-11 -1.1149416e-15 3.6789998e-15 
-1.0877631e-14 2.385595e-09 -1.1928529e-13 -7.6184169e-11 -1.251006e-15 4.0927482e-15 
-1.19918e-14 2.7013213e-09 -1.3670042e-13 -8.5384135e-11 -1.3993203e-15    4.539e-15 
-1.3188615e-14 3.0490898e-09 -1.5599183e-13 -9.5401146e-11 -1.5607051e-15 5.0194844e-15 
-1.4447995e-14 3.4310859e-09 -1.7726455e-13 -1.0627879e-10 -1.7353649e-15 5.5355369e-15 
-1.5798466e-14 3.8495557e-09 -2.0065504e-13 -1.1806093e-10 -1.924372e-15 6.0881144e-15 
-1.7209553e-14 4.3068029e-09 -2.2632165e-13 -1.3079156e-10 -2.1282418e-15 6.6789373e-15 
-1.870849e-14 4.8051849e-09 -2.5448133e-13 -1.4451479e-10 -2.3477402e-15 7.3087651e-15 
-2.0291156e-14 5.3471094e-09 -2.8517353e-13 -1.5927466e-10 -2.5835719e-15 7.9789555e-15 
-2.1964395e-14 5.9350306e-09 -3.1855907e-13 -1.7511513e-10 -2.8363252e-15 8.6906149e-15 
-2.3700004e-14 6.5714451e-09 -3.5479704e-13 -1.9207993e-10 -3.1064705e-15 9.4448815e-15 
-2.5521803e-14 7.2588879e-09 -3.9399623e-13 -2.1021252e-10 -3.3948987e-15 1.0242687e-14 
-2.7421906e-14 7.9999286e-09 -4.3635624e-13 -2.2955597e-10 -3.7024535e-15 1.1085376e-14 
-2.9397748e-14 8.7971671e-09 -4.8200089e-13 -2.5015293e-10 -4.0294174e-15 1.1973446e-14 
-3.146536e-14 9.6532293e-09 -5.3106826e-13 -2.7204551e-10 -4.3764675e-15 1.2908033e-14 
-3.3616443e-14 1.0570764e-08 -5.8369172e-13 -2.9527525e-10 -4.7443768e-15 1.3890098e-14 
-3.5853325e-14 1.1552437e-08 -6.3999856e-13 -3.1988303e-10 -5.1336944e-15  1.49201e-14 
-3.8176867e-14 1.2600928e-08 -7.0019133e-13 -3.45909e-10 -5.5451489e-15 1.5999031e-14 
-4.0564551e-14 1.3718929e-08 -7.6442191e-13 -3.7339258e-10 -5.9792218e-15 1.7127685e-14 
-4.3038553e-14 1.4909134e-08 -8.328636e-13 -4.0237233e-10 -6.436629e-15 1.8306507e-14 
-4.5586343e-14 1.6174243e-08 -9.0562955e-13 -4.3288597e-10 -6.9177165e-15 1.9535986e-14 
-4.8197772e-14 1.7516953e-08 -9.8284238e-13 -4.6497028e-10 -7.4233305e-15 2.0816695e-14 
-5.0885074e-14 1.8939953e-08 -1.0646248e-12 -4.9866111e-10 -7.9540319e-15 2.2149171e-14 
-5.364569e-14 2.0445926e-08 -1.1511055e-12 -5.3399332e-10 -8.5100419e-15 2.3534153e-14 
-5.647084e-14 2.203754e-08 -1.2424418e-12 -5.7100074e-10 -9.092218e-15 2.4971512e-14 
-5.935651e-14 2.3717449e-08 -1.3387447e-12 -6.0971614e-10 -9.7008874e-15 2.6461789e-14 
-6.2317949e-14 2.5488286e-08 -1.4401388e-12 -6.5017124e-10 -1.03364e-14 2.8005181e-14 
-6.5338773e-14 2.7352661e-08 -1.5467642e-12 -6.9239665e-10 -1.0999744e-14 2.9601903e-14 
-6.8411798e-14 2.9313158e-08 -1.6587215e-12 -7.3642187e-10 -1.1690821e-14 3.1252509e-14 
-7.1545685e-14 3.1372334e-08 -1.7761578e-12 -7.8227527e-10 -1.2410241e-14 3.2956263e-14 
-7.4727571e-14 3.3532711e-08 -1.8991718e-12 -8.2998407e-10 -1.315848e-14 3.4714137e-14 
-7.7965515e-14 3.579678e-08 -2.0278815e-12 -8.7957436e-10 -1.3935934e-14 3.6525512e-14 
-8.1273119e-14 3.8166993e-08 -2.1624084e-12 -9.3107106e-10 -1.4742902e-14 3.8390497e-14 
-8.4606493e-14 4.0645762e-08 -2.3028475e-12 -9.8449792e-10 -1.5580161e-14 4.0309302e-14 
-8.7972419e-14 4.3235459e-08 -2.4493029e-12 -1.0398775e-09 -1.6447535e-14 4.2281582e-14 
-9.1365714e-14 4.593841e-08 -2.6018722e-12 -1.0972314e-09 -1.7345543e-14 4.4307387e-14 
-9.480175e-14 4.8756896e-08 -2.7606427e-12 -1.1565797e-09 -1.827465e-14 4.6386303e-14 
-9.8273634e-14 5.169315e-08 -2.9257326e-12 -1.2179416e-09 -1.9235099e-14 4.851813e-14 
-1.0178586e-13 5.4749355e-08 -3.0971985e-12 -1.2813351e-09 -2.0227196e-14 5.0702655e-14 
-1.0530589e-13 5.7927643e-08 -3.275111e-12 -1.346777e-09 -2.125109e-14 5.2939371e-14 
-1.0884434e-13 6.1230092e-08 -3.4595802e-12 -1.414283e-09 -2.230701e-14 5.5228424e-14 
-1.12394e-13 6.4658726e-08 -3.6506708e-12 -1.4838677e-09 -2.3395574e-14 5.7569102e-14 
-1.1597611e-13 6.8215514e-08 -3.848452e-12 -1.5555447e-09 -2.4516361e-14 5.9961274e-14 
-1.1956749e-13 7.1902367e-08 -4.0530033e-12 -1.6293263e-09 -2.567015e-14 6.2404149e-14 
-1.2314824e-13 7.5721139e-08 -4.2643971e-12 -1.7052238e-09 -2.685702e-14 6.4897468e-14 
-1.2674088e-13 7.9673624e-08 -4.482701e-12 -1.7832474e-09 -2.8076918e-14 6.7440906e-14 
-1.3033699e-13 8.3761558e-08 -4.7080035e-12 -1.8634066e-09 -2.9330023e-14 7.0033713e-14 
-1.3391834e-13 8.7986615e-08 -4.940347e-12 -1.9457093e-09 -3.0616906e-14 7.2675494e-14 
-1.374897e-13 9.2350409e-08 -5.1797791e-12 -2.0301628e-09 -3.193727e-14 7.5365543e-14 
-1.4104423e-13 9.6854492e-08 -5.4263611e-12 -2.1167733e-09 -3.3291278e-14 7.8103464e-14 
-1.4458149e-13 1.0150035e-07 -5.6801109e-12 -2.2055461e-09 -3.4679305e-14 8.088856e-14 
-1.4809825e-13 1.0628942e-07 -5.9410748e-12 -2.2964855e-09 -3.6101278e-14 8.3720533e-14 
-1.5160974e-13 1.1122307e-07 -6.2092702e-12 -2.3895947e-09 -3.7557216e-14 8.6598401e-14 
-1.550865e-13 1.1630258e-07 -6.4847478e-12 -2.4848763e-09 -3.9047351e-14 8.9521549e-14 
-1.5852783e-13 1.2152922e-07 -6.7675399e-12 -2.5823319e-09 -4.057133e-14 9.2489494e-14 
-1.6192808e-13 1.2690415e-07 -7.0576728e-12 -2.6819622e-09 -4.2129412e-14 9.550151e-14 
-1.6529777e-13 1.3242848e-07 -7.3551759e-12 -2.783767e-09 -4.372176e-14 9.8556894e-14 
-1.6862712e-13 1.3810328e-07 -7.6600594e-12 -2.8877455e-09 -4.5348356e-14 1.0165506e-13 
-1.7190087e-13 1.4392953e-07 -7.9723513e-12 -2.9938958e-09 -4.7008824e-14 1.0479534e-13 
-1.7513347e-13 1.4990816e-07 -8.2920787e-12 -3.1022156e-09 -4.8703503e-14 1.0797681e-13 
-1.7832045e-13 1.5604004e-07 -8.6192474e-12 -3.2127015e-09 -5.0432263e-14 1.1119868e-13 
-1.8145808e-13 1.6232597e-07 -8.9538956e-12 -3.3253495e-09 -5.2195308e-14 1.1446088e-13 
-1.8451964e-13 1.687667e-07 -9.2959784e-12 -3.4401549e-09 -5.3992108e-14 1.177622e-13 
-1.8752318e-13 1.7536291e-07 -9.6455601e-12 -3.5571124e-09 -5.5822916e-14 1.2110176e-13 
-1.9046469e-13 1.8211524e-07 -1.0002636e-11 -3.6762159e-09 -5.7687913e-14 1.2447893e-13 
-1.9334485e-13 1.8902424e-07 -1.036719e-11 -3.7974587e-09 -5.9586694e-14 1.2789322e-13 
-1.9615632e-13 1.9609044e-07 -1.0739213e-11 -3.9208335e-09 -6.1519379e-14 1.3134372e-13 
-1.9888756e-13 2.0331427e-07 -1.1118708e-11 -4.0463323e-09 -6.3485382e-14 1.3482969e-13 
-2.0153878e-13 2.1069614e-07 -1.1505686e-11 -4.1739468e-09 -6.5484786e-14 1.3835047e-13 
-2.0412434e-13 2.1823638e-07 -1.1900139e-11 -4.3036677e-09 -6.7517613e-14 1.4190506e-13 
-2.0662222e-13 2.2593527e-07 -1.2302038e-11 -4.4354855e-09 -6.9583783e-14 1.4549324e-13 
-2.0902313e-13 2.3379306e-07 -1.2711387e-11 -4.5693901e-09 -7.1683148e-14 1.4911385e-13 
-2.1135133e-13 2.4180991e-07 -1.3128155e-11 -4.7053708e-09 -7.3815621e-14 1.5276629e-13 
-2.1358546e-13 2.4998594e-07 -1.3552354e-11 -4.8434166e-09 -7.5980617e-14 1.5644985e-13 
-2.1573794e-13 2.5832124e-07 -1.3983986e-11 -4.9835158e-09 -7.8178463e-14 1.6016378e-13 
-2.1780024e-13 2.6681581e-07 -1.4423056e-11 -5.1256564e-09 -8.0408931e-14 1.6390737e-13 
-2.1975338e-13 2.7546964e-07 -1.4869541e-11 -5.269826e-09 -8.2671581e-14 1.6767959e-13 
-2.2160941e-13 2.8428265e-07 -1.5323415e-11 -5.4160117e-09 -8.4966521e-14 1.7148018e-13 
-2.2336732e-13 2.9325471e-07 -1.578465e-11 -5.5642002e-09 -8.729323e-14 1.7530825e-13 
-2.2502999e-13 3.0238565e-07 -1.6253191e-11 -5.714378e-09 -8.9651848e-14 1.7916289e-13 
-2.2656537e-13 3.1167525e-07 -1.6729043e-11 -5.8665311e-09 -9.2041863e-14 1.8304387e-13 
-2.2800416e-13 3.2112325e-07 -1.7212191e-11 -6.020645e-09 -9.4463584e-14 1.8695003e-13 
-2.2934041e-13 3.3072935e-07 -1.7702587e-11 -6.1767051e-09 -9.6916364e-14 1.9088089e-13 
-2.3055434e-13 3.404932e-07 -1.8200201e-11 -6.3346966e-09 -9.9400012e-14 1.9483552e-13 
-2.316723e-13 3.504144e-07 -1.8705006e-11 -6.494604e-09 -1.0191437e-13 1.9881343e-13 
-2.3267848e-13 3.6049253e-07 -1.9216988e-11 -6.6564119e-09 -1.0445953e-13 2.0281412e-13 
-2.3355293e-13 3.7072711e-07 -1.9736147e-11 -6.8201045e-09 -1.0703497e-13 2.0683664e-13 
-2.343265e-13 3.8111764e-07 -2.0262429e-11 -6.9856656e-09 -1.0964032e-13 2.1088057e-13 
-2.3496954e-13 3.9166358e-07 -2.0795806e-11 -7.1530789e-09 -1.1227542e-13 2.1494509e-13 
-2.3550673e-13 4.0236432e-07 -2.1336224e-11 -7.322328e-09 -1.1493987e-13 2.1902959e-13 
-2.3591617e-13 4.1321927e-07 -2.1883662e-11 -7.4933961e-09 -1.1763391e-13 2.2313344e-13 
-2.3620201e-13 4.2422776e-07 -2.2438125e-11 -7.6662662e-09 -1.2035692e-13 2.2725591e-13 
-2.3634847e-13 4.3538911e-07 -2.299955e-11 -7.8409212e-09 -1.231091e-13 2.3139665e-13 
-2.3637574e-13 4.4670259e-07 -2.3567926e-11 -8.0173438e-09 -1.2588955e-13 2.3555488e-13 
-2.3628441e-13 4.5816747e-07 -2.4143225e-11 -8.1955165e-09 -1.2869841e-13 2.397298e-13 
-2.3606799e-13 4.6978295e-07 -2.4725405e-11 -8.3754217e-09 -1.3153551e-13 2.4392086e-13 
-2.3573218e-13 4.8154822e-07 -2.5314407e-11 -8.5570416e-09 -1.3439998e-13 2.4812794e-13 
-2.3526121e-13 4.9346245e-07 -2.591023e-11 -8.7403583e-09 -1.3729192e-13 2.5234994e-13 
-2.3465768e-13 5.0552476e-07 -2.6512815e-11 -8.9253538e-09 -1.4021152e-13 2.5658667e-13 
-2.3392918e-13 5.1773427e-07 -2.7122137e-11 -9.11201e-09 -1.4315792e-13 2.6083738e-13 
-2.3306703e-13 5.3009005e-07 -2.7738153e-11 -9.3003086e-09 -1.4613107e-13 2.6510135e-13 
-2.3207893e-13 5.4259116e-07 -2.8360885e-11 -9.4902313e-09 -1.4913056e-13 2.6937828e-13 
-2.3095568e-13 5.5523663e-07 -2.8990291e-11 -9.6817597e-09 -1.5215622e-13 2.7366775e-13 
-2.2968683e-13 5.6802546e-07 -2.9626335e-11 -9.8748753e-09 -1.5520794e-13 2.7796895e-13 
-2.2829312e-13 5.8095665e-07 -3.0268981e-11 -1.006956e-08 -1.5828521e-13 2.822812e-13 
-2.2676942e-13 5.9402916e-07 -3.0918196e-11 -1.0265794e-08 -1.6138775e-13 2.8660424e-13 
-2.2510241e-13 6.0724193e-07 -3.1573951e-11 -1.046356e-08 -1.6451521e-13 2.9093756e-13 
-2.2331927e-13 6.2059389e-07 -3.22362e-11 -1.0662838e-08 -1.6766755e-13 2.9528104e-13 
-2.2138836e-13 6.3408394e-07 -3.2904917e-11 -1.0863611e-08 -1.708442e-13 2.9963341e-13 
-2.1933618e-13 6.4771097e-07 -3.3580074e-11 -1.1065859e-08 -1.7404524e-13 3.0399476e-13 
-2.1712716e-13 6.6147385e-07 -3.426161e-11 -1.1269563e-08 -1.7727003e-13 3.0836439e-13 
-2.147962e-13 6.7537144e-07 -3.4949514e-11 -1.1474705e-08 -1.8051842e-13 3.127421e-13 
-2.1233516e-13 6.8940258e-07 -3.5643764e-11 -1.1681267e-08 -1.8379027e-13 3.1712735e-13 
-2.0973005e-13 7.0356608e-07 -3.634433e-11 -1.1889228e-08 -1.8708498e-13 3.2151925e-13 
-2.0699426e-13 7.1786077e-07 -3.7051168e-11 -1.209857e-08 -1.9040256e-13 3.2591793e-13 
-2.041187e-13 7.3228543e-07 -3.7764257e-11 -1.2309276e-08 -1.9374258e-13 3.3032256e-13 
-2.01118e-13 7.4683885e-07 -3.8483563e-11 -1.2521325e-08 -1.9710495e-13 3.3473315e-13 
-1.9796662e-13 7.6151981e-07 -3.9209047e-11 -1.2734699e-08 -2.0048894e-13 3.3914898e-13 
-1.9467363e-13 7.7632706e-07 -3.9940713e-11 -1.294938e-08 -2.0389464e-13 3.4356978e-13 
-1.9126495e-13 7.9125936e-07 -4.0678516e-11 -1.3165349e-08 -2.0732153e-13 3.4799489e-13 
-1.8773037e-13 8.0631544e-07 -4.1422427e-11 -1.3382587e-08 -2.1076962e-13 3.524243e-13 
-1.8404661e-13 8.2149404e-07 -4.2172421e-11 -1.3601076e-08 -2.142385e-13 3.5685737e-13 
-1.8022351e-13 8.3679387e-07 -4.2928465e-11 -1.3820796e-08 -2.1772771e-13 3.6129367e-13 
-1.7627604e-13 8.5221367e-07 -4.3690548e-11 -1.4041731e-08 -2.2123705e-13 3.6573327e-13 
-1.7218835e-13 8.6775212e-07 -4.4458627e-11 -1.426386e-08 -2.2476635e-13 3.7017517e-13 
-1.6796941e-13 8.8340794e-07 -4.5232684e-11 -1.4487167e-08 -2.2831537e-13 3.7461963e-13 
-1.636198e-13 8.9917981e-07 -4.6012709e-11 -1.4711632e-08 -2.3188365e-13 3.7906602e-13 
-1.5913421e-13 9.1506643e-07 -4.6798673e-11 -1.4937238e-08 -2.3547083e-13 3.8351412e-13 
-1.5453311e-13 9.3106648e-07 -4.7590535e-11 -1.5163966e-08 -2.3907689e-13 3.8796322e-13 
-1.4979953e-13 9.4717863e-07 -4.838829e-11 -1.5391799e-08 -2.4270133e-13 3.9241317e-13 
-1.4492484e-13 9.6340157e-07 -4.9191929e-11 -1.5620717e-08 -2.4634367e-13 3.9686405e-13 
-1.3992478e-13 9.7973396e-07 -5.0001436e-11 -1.5850704e-08 -2.5000411e-13 4.0131489e-13 
-1.3479256e-13 9.9617448e-07 -5.0816787e-11 -1.6081741e-08 -2.536823e-13 4.0576606e-13 
-1.2953155e-13 1.0127218e-06 -5.1637947e-11 -1.6313812e-08 -2.5737783e-13 4.102171e-13 
-1.2413511e-13 1.0293745e-06 -5.2464914e-11 -1.6546897e-08 -2.6109043e-13 4.1466756e-13 
-1.1861985e-13 1.0461314e-06 -5.3297667e-11 -1.678098e-08  -2.6482e-13 4.1911715e-13 
-1.1296511e-13 1.062991e-06 -5.4136173e-11 -1.7016043e-08 -2.6856584e-13 4.2356558e-13 
-1.0719021e-13 1.0799521e-06 -5.4980417e-11 -1.7252069e-08 -2.7232791e-13 4.2801251e-13 
-1.0129284e-13 1.0970133e-06 -5.5830386e-11 -1.7489041e-08 -2.7610594e-13 4.3245792e-13 
-9.5268186e-14 1.1141732e-06 -5.668606e-11 -1.7726941e-08 -2.7989989e-13 4.3690138e-13 
-8.9122529e-14 1.1314305e-06 -5.7547417e-11 -1.7965753e-08 -2.83709e-13 4.4134285e-13 
-8.286212e-14 1.1487839e-06 -5.8414452e-11 -1.8205459e-08 -2.875336e-13 4.4578179e-13 
-7.6472513e-14 1.166232e-06 -5.9287145e-11 -1.8446042e-08 -2.91373e-13 4.5021784e-13 
-6.9957998e-14 1.1837735e-06 -6.0165478e-11 -1.8687487e-08 -2.952271e-13 4.5465129e-13 
-6.3325778e-14 1.2014071e-06 -6.1049453e-11 -1.8929776e-08 -2.9909561e-13 4.590818e-13 
-5.6570433e-14 1.2191314e-06 -6.1939046e-11 -1.9172892e-08 -3.0297818e-13 4.6350891e-13 
-4.969932e-14 1.2369451e-06 -6.2834227e-11 -1.9416821e-08 -3.068747e-13 4.6793226e-13 
-4.2709297e-14 1.2548469e-06 -6.3735023e-11 -1.9661544e-08 -3.1078484e-13 4.7235198e-13 
-3.5598161e-14 1.2728354e-06 -6.4641398e-11 -1.9907046e-08 -3.1470834e-13 4.7676782e-13 
-2.8366657e-14 1.2909093e-06 -6.555335e-11 -2.0153312e-08 -3.1864482e-13 4.811793e-13 
-2.1039502e-14 1.3090673e-06 -6.6470873e-11 -2.0400324e-08 -3.225944e-13 4.8558633e-13 
-1.3565727e-14 1.3273081e-06 -6.7393973e-11 -2.0648068e-08 -3.2655627e-13 4.8998892e-13 
-5.9811925e-15 1.3456304e-06 -6.8322607e-11 -2.0896527e-08 -3.3053071e-13 4.943868e-13 
1.6901391e-15 1.3640329e-06 -6.9256792e-11 -2.1145687e-08 -3.3451726e-13 4.9877968e-13 
9.4871537e-15 1.3825142e-06 -7.0196502e-11 -2.1395531e-08 -3.3851558e-13 5.0316715e-13 
1.7386005e-14 1.4010731e-06 -7.1141736e-11 -2.1646045e-08 -3.4252537e-13 5.0754965e-13 
2.5404294e-14 1.4197083e-06 -7.2092496e-11 -2.1897213e-08 -3.4654671e-13 5.1192655e-13 
3.3526792e-14 1.4384184e-06 -7.3048792e-11 -2.214902e-08 -3.5057904e-13 5.1629789e-13 
4.176458e-14 1.4572023e-06 -7.401062e-11 -2.2401451e-08 -3.546225e-13 5.2066331e-13 
5.0102602e-14 1.4760587e-06 -7.4977958e-11 -2.2654492e-08 -3.5867655e-13 5.2502286e-13 
5.8549914e-14 1.4949862e-06 -7.5950826e-11 -2.2908128e-08 -3.6274112e-13 5.2937626e-13 
6.7103772e-14 1.5139837e-06 -7.6929208e-11 -2.3162343e-08 -3.6681568e-13 5.3372323e-13 
7.5772401e-14 1.5330497e-06 -7.7913101e-11 -2.3417125e-08 -3.7090031e-13 5.3806358e-13 
8.4526413e-14 1.5521833e-06 -7.8902511e-11 -2.3672458e-08 -3.7499477e-13 5.4239794e-13 
9.3381225e-14 1.5713829e-06 -7.9897406e-11 -2.3928329e-08 -3.7909872e-13 5.4672532e-13 
1.0235374e-13 1.5906475e-06 -8.0897828e-11 -2.4184722e-08 -3.8321198e-13 5.5104584e-13 
1.114211e-13 1.6099758e-06 -8.1903747e-11 -2.4441626e-08 -3.8733423e-13 5.5535921e-13 
1.2058064e-13 1.6293666e-06 -8.2915163e-11 -2.4699025e-08 -3.9146554e-13 5.5966567e-13 
1.2983573e-13 1.6488187e-06 -8.3932088e-11 -2.4956905e-08 -3.9560535e-13 5.639648e-13 
1.3919671e-13 1.6683308e-06 -8.4954518e-11 -2.5215255e-08 -3.9975346e-13 5.682566e-13 
1.4866093e-13 1.6879017e-06 -8.5982457e-11 -2.5474059e-08 -4.0390984e-13 5.7254084e-13 
1.5821997e-13 1.7075304e-06 -8.7015897e-11 -2.5733306e-08 -4.0807417e-13 5.7681763e-13 
1.6787708e-13 1.7272155e-06 -8.8054852e-11 -2.599298e-08 -4.1224632e-13 5.8108643e-13 
1.7761278e-13 1.7469559e-06 -8.9099325e-11 -2.6253071e-08 -4.1642607e-13 5.8534751e-13 
1.8744202e-13 1.7667505e-06 -9.0149297e-11 -2.6513564e-08 -4.2061326e-13 5.8960073e-13 
1.9737421e-13 1.786598e-06 -9.1204808e-11 -2.6774448e-08 -4.2480761e-13  5.93846e-13 
2.0738444e-13 1.8064974e-06 -9.2265835e-11 -2.7035708e-08 -4.2900895e-13 5.9808281e-13 
2.1749121e-13 1.8264475e-06 -9.3332379e-11 -2.7297334e-08 -4.3321692e-13 6.0231172e-13 
2.2767705e-13 1.8464471e-06 -9.4404471e-11 -2.7559312e-08 -4.374315e-13 6.0653239e-13 
2.3795733e-13 1.8664951e-06 -9.5482124e-11 -2.782163e-08 -4.4165257e-13 6.1074461e-13 
2.4832022e-13 1.8865904e-06 -9.6565307e-11 -2.8084277e-08 -4.4587954e-13 6.1494803e-13 
2.5875905e-13 1.9067319e-06 -9.7654055e-11 -2.8347239e-08 -4.501127e-13 6.1914314e-13 
2.6930384e-13 1.9269185e-06 -9.8748376e-11 -2.8610506e-08 -4.5435157e-13 6.2332936e-13 
2.7992078e-13 1.9471491e-06 -9.9848256e-11 -2.8874065e-08 -4.5859599e-13 6.2750679e-13 
2.9061712e-13 1.9674226e-06 -1.0095373e-10 -2.9137905e-08 -4.6284591e-13 6.3167539e-13 
3.0140474e-13 1.9877379e-06 -1.0206478e-10 -2.9402014e-08 -4.6710112e-13 6.3583501e-13 
3.1226358e-13 2.008094e-06 -1.0318143e-10 -2.9666382e-08 -4.7136126e-13 6.3998569e-13 
3.2320964e-13 2.0284898e-06 -1.0430369e-10 -2.9930996e-08 -4.7562619e-13 6.4412745e-13 
3.342284e-13 2.0489242e-06 -1.0543159e-10 -3.0195845e-08 -4.7989584e-13 6.4825992e-13 
 3.45331e-13 2.0693963e-06 -1.0656514e-10 -3.0460919e-08 -4.841701e-13 6.5238307e-13 
3.5650543e-13 2.0899049e-06 -1.0770433e-10 -3.0726207e-08 -4.884486e-13 6.5649708e-13 
3.6775771e-13 2.1104492e-06 -1.0884917e-10 -3.0991697e-08 -4.9273139e-13 6.6060177e-13 
3.7907981e-13 2.1310279e-06 -1.0999966e-10 -3.125738e-08 -4.9701783e-13 6.6469699e-13 
3.9047801e-13 2.1516402e-06 -1.1115585e-10 -3.1523244e-08 -5.013083e-13 6.6878281e-13 
4.0193809e-13 2.172285e-06 -1.1231771e-10 -3.178928e-08 -5.0560236e-13 6.7285896e-13 
4.1346429e-13 2.1929614e-06 -1.1348526e-10 -3.2055476e-08 -5.0989962e-13 6.7692558e-13 
4.2507272e-13 2.2136684e-06 -1.1465851e-10 -3.2321823e-08 -5.1420057e-13 6.8098262e-13 
4.3675473e-13 2.234405e-06 -1.1583748e-10 -3.2588311e-08 -5.1850463e-13 6.8502974e-13 
4.4851284e-13 2.2551702e-06 -1.1702221e-10 -3.2854929e-08 -5.2281164e-13 6.890673e-13 
4.6032722e-13 2.2759631e-06 -1.1821265e-10 -3.3121669e-08 -5.2712149e-13 6.9309525e-13 
4.7220759e-13 2.2967828e-06 -1.1940885e-10 -3.3388519e-08 -5.3143398e-13 6.9711306e-13 
4.8415029e-13 2.3176283e-06 -1.2061082e-10 -3.3655471e-08 -5.3574905e-13  7.01121e-13 
4.9617095e-13 2.3384987e-06 -1.2181857e-10 -3.3922515e-08 -5.4006659e-13 7.0511918e-13 
5.0824738e-13 2.3593931e-06 -1.2303213e-10 -3.4189641e-08 -5.4438594e-13 7.0910702e-13 
5.2038122e-13 2.3803105e-06 -1.2425151e-10 -3.4456841e-08 -5.4870774e-13 7.1308531e-13 
5.3258635e-13 2.4012501e-06 -1.2547669e-10 -3.4724105e-08 -5.5303112e-13 7.1705339e-13 
5.4483642e-13 2.422211e-06 -1.267077e-10 -3.4991424e-08 -5.5735644e-13 7.2101122e-13 
5.5716038e-13 2.4431923e-06 -1.2794458e-10 -3.5258789e-08 -5.6168334e-13 7.2495925e-13 
5.6954894e-13 2.4641931e-06 -1.2918732e-10 -3.5526192e-08 -5.6601197e-13 7.2889688e-13 
5.8199235e-13 2.4852126e-06 -1.3043595e-10 -3.5793623e-08 -5.7034166e-13 7.3282421e-13 
5.9448921e-13  2.50625e-06 -1.3169048e-10 -3.6061074e-08 -5.7467252e-13 7.3674143e-13 
6.0703686e-13 2.5273043e-06 -1.3295093e-10 -3.6328536e-08 -5.7900458e-13 7.4064838e-13 
6.1963362e-13 2.5483747e-06 -1.3421731e-10 -3.6596002e-08 -5.8333736e-13 7.4454488e-13 
6.3230359e-13 2.5694604e-06 -1.3548965e-10 -3.6863462e-08 -5.8767125e-13 7.4843129e-13 
6.4502394e-13 2.5905607e-06 -1.3676796e-10 -3.7130908e-08 -5.920055e-13 7.5230718e-13 
6.5779068e-13 2.6116746e-06 -1.3805224e-10 -3.7398333e-08 -5.9634041e-13 7.5617257e-13 
6.7062359e-13 2.6328014e-06 -1.3934252e-10 -3.7665728e-08 -6.0067581e-13 7.6002782e-13 
6.8349912e-13 2.6539403e-06 -1.4063881e-10 -3.7933086e-08 -6.0501145e-13 7.6387255e-13 
6.9642179e-13 2.6750904e-06 -1.4194117e-10 -3.8200398e-08 -6.0934716e-13 7.6770679e-13 
7.0938429e-13 2.6962511e-06 -1.4324959e-10 -3.8467657e-08 -6.1368282e-13 7.7153061e-13 
7.2241476e-13 2.7174216e-06 -1.4456407e-10 -3.8734856e-08 -6.180182e-13 7.7534392e-13 
7.3549089e-13 2.7386011e-06 -1.4588462e-10 -3.9001986e-08 -6.2235368e-13 7.7914657e-13 
7.4860929e-13 2.7597888e-06 -1.4721127e-10 -3.9269041e-08 -6.2668866e-13 7.8293874e-13 
7.6176758e-13 2.780984e-06 -1.4854407e-10 -3.9536013e-08 -6.3102325e-13 7.8672059e-13 
7.7497715e-13 2.802186e-06 -1.4988297e-10 -3.9802895e-08 -6.3535714e-13 7.9049173e-13 
7.8823812e-13 2.8233941e-06 -1.5122802e-10 -4.0069679e-08 -6.396906e-13 7.9425234e-13 
8.0152921e-13 2.8446075e-06 -1.5257924e-10 -4.0336359e-08 -6.4402306e-13 7.9800195e-13 
8.1487699e-13 2.8658255e-06 -1.5393662e-10 -4.0602928e-08 -6.4835464e-13 8.0174125e-13 
8.282568e-13 2.8870474e-06 -1.5530023e-10 -4.0869379e-08 -6.5268523e-13 8.0547001e-13 
8.4169081e-13 2.9082726e-06 -1.5667005e-10 -4.1135705e-08 -6.5701462e-13 8.0918823e-13 
8.5515638e-13 2.9295003e-06 -1.5804611e-10 -4.1401899e-08 -6.6134264e-13 8.1289539e-13 
8.6866406e-13 2.9507299e-06 -1.5942842e-10 -4.1667956e-08 -6.6566908e-13 8.1659219e-13 
8.8220901e-13 2.9719607e-06 -1.6081701e-10 -4.1933867e-08 -6.699944e-13 8.2027823e-13 
8.9579424e-13 2.993192e-06 -1.6221189e-10 -4.2199628e-08 -6.7431798e-13 8.239538e-13 
9.0941938e-13 3.0144232e-06 -1.6361307e-10 -4.2465232e-08 -6.786399e-13 8.2761861e-13 
9.2308139e-13 3.0356537e-06 -1.6502056e-10 -4.2730672e-08 -6.829601e-13 8.3127255e-13 
9.3677596e-13 3.0568828e-06 -1.6643438e-10 -4.2995942e-08 -6.8727831e-13 8.3491596e-13 
9.5050246e-13 3.0781098e-06 -1.6785459e-10 -4.3261037e-08 -6.9159471e-13 8.3854852e-13 
9.6428238e-13 3.0993342e-06 -1.6928117e-10 -4.352595e-08 -6.9590896e-13 8.4217043e-13 
9.7808041e-13 3.1205553e-06 -1.7071416e-10 -4.3790675e-08 -7.0022105e-13 8.457815e-13 
9.9191997e-13 3.1417726e-06 -1.7215356e-10 -4.4055207e-08 -7.0453096e-13 8.4938192e-13 
1.0057907e-12 3.1629854e-06 -1.7359941e-10 -4.431954e-08 -7.0883834e-13 8.5297181e-13 
1.0196989e-12 3.1841932e-06 -1.750517e-10 -4.4583669e-08 -7.1314343e-13 8.5655071e-13 
1.0336134e-12 3.2053953e-06 -1.7651047e-10 -4.4847586e-08 -7.1744583e-13 8.6011889e-13 
1.0475826e-12 3.2265912e-06 -1.7797575e-10 -4.5111289e-08 -7.2174584e-13 8.6367641e-13 
1.0615896e-12 3.2477804e-06 -1.7944752e-10 -4.537477e-08 -7.2604312e-13 8.6722331e-13 
1.0756005e-12 3.2689621e-06 -1.8092581e-10 -4.5638024e-08 -7.3033729e-13 8.7075935e-13 
1.0896452e-12 3.290136e-06 -1.8241064e-10 -4.5901047e-08 -7.3462884e-13 8.7428473e-13 
1.1037318e-12 3.3113014e-06 -1.8390207e-10 -4.6163832e-08 -7.3891745e-13 8.7779928e-13 
1.119311e-12 3.3324578e-06 -1.8541198e-10 -4.6426375e-08 -7.4305535e-13 8.8136445e-13 
1.1384412e-12 3.3536047e-06 -1.8694313e-10 -4.6688669e-08 -7.4690608e-13 8.8517022e-13 
1.1590874e-12 3.3747415e-06 -1.8848977e-10 -4.695071e-08 -7.5064568e-13 8.8909957e-13 
1.1806299e-12 3.3958678e-06 -1.9004801e-10 -4.7212494e-08 -7.5431241e-13 8.9310265e-13 
1.2028531e-12 3.416983e-06 -1.9161657e-10 -4.7474016e-08 -7.5792578e-13 8.971545e-13 
1.2256396e-12 3.4380866e-06 -1.9319432e-10 -4.7735271e-08 -7.6149755e-13 9.0124003e-13 
1.248908e-12 3.459178e-06 -1.94781e-10 -4.7996255e-08 -7.6503487e-13 9.0534974e-13 
1.2725984e-12 3.4802569e-06 -1.9637646e-10 -4.8256964e-08 -7.6854273e-13 9.0947717e-13 
1.2966599e-12 3.5013228e-06 -1.9798051e-10 -4.8517391e-08 -7.7202451e-13 9.1361783e-13 
1.3210452e-12 3.522375e-06 -1.99593e-10 -4.8777535e-08 -7.7548275e-13 9.1776894e-13 
1.3449388e-12 3.5434133e-06 -2.0121209e-10 -4.9037389e-08 -7.788694e-13 9.2189762e-13 
1.3685055e-12 3.564437e-06 -2.0283837e-10 -4.929695e-08 -7.8219379e-13 9.2598998e-13 
1.3920842e-12 3.5854458e-06 -2.0447261e-10 -4.9556213e-08 -7.8548153e-13 9.3006373e-13 
1.4157012e-12 3.6064391e-06 -2.0611473e-10 -4.9815175e-08 -7.887388e-13 9.3412582e-13 
1.4394191e-12 3.6274167e-06 -2.0776486e-10 -5.0073831e-08 -7.919692e-13 9.3818012e-13 
1.4632747e-12 3.6483779e-06 -2.0942294e-10 -5.0332176e-08 -7.9517511e-13 9.4222874e-13 
1.4872748e-12 3.6693223e-06 -2.1108897e-10 -5.0590208e-08 -7.9835754e-13 9.4627335e-13 
1.5114278e-12 3.6902496e-06 -2.1276291e-10 -5.0847922e-08 -8.0151751e-13 9.5031489e-13 
1.5357295e-12 3.7111593e-06 -2.1444477e-10 -5.1105314e-08 -8.0465563e-13 9.5435405e-13 
1.5601828e-12 3.7320511e-06 -2.1613456e-10 -5.1362381e-08 -8.0777206e-13 9.5839092e-13 
1.5847824e-12 3.7529243e-06 -2.1783229e-10 -5.1619118e-08 -8.1086731e-13  9.62426e-13 
1.6095378e-12 3.7737788e-06 -2.1953795e-10 -5.1875522e-08 -8.1394122e-13 9.6645944e-13 
1.634451e-12 3.794614e-06 -2.2125157e-10 -5.213159e-08 -8.1699406e-13 9.7049159e-13 
1.6595186e-12 3.8154296e-06 -2.2297318e-10 -5.2387318e-08 -8.2002566e-13 9.7452223e-13 
1.6847334e-12 3.8362252e-06 -2.2470278e-10 -5.2642702e-08 -8.2303614e-13 9.7855155e-13 
1.7100956e-12 3.8570005e-06 -2.2644036e-10 -5.2897739e-08 -8.2602534e-13 9.8257975e-13 
1.7355928e-12 3.8777549e-06 -2.2818593e-10 -5.3152426e-08 -8.2899364e-13 9.8660663e-13 
1.7612468e-12 3.8984882e-06 -2.2993953e-10 -5.3406759e-08 -8.3194064e-13 9.9063292e-13 
1.7870498e-12   3.9192e-06 -2.3170116e-10 -5.3660734e-08 -8.3486617e-13  9.94658e-13 
1.8129753e-12 3.9398899e-06 -2.3347082e-10 -5.391435e-08 -8.3777009e-13 9.9868224e-13 
1.8390503e-12 3.9605576e-06 -2.3524854e-10 -5.4167602e-08 -8.4065263e-13 1.0027055e-12 
1.8652923e-12 3.9812028e-06 -2.3703434e-10 -5.4420488e-08 -8.4351363e-13 1.0067282e-12 
1.8916742e-12 4.001825e-06 -2.3882825e-10 -5.4673004e-08 -8.46353e-13 1.0107497e-12 
1.9181985e-12 4.022424e-06 -2.4063029e-10 -5.4925148e-08 -8.4917011e-13 1.0147704e-12 
1.9448846e-12 4.0429993e-06 -2.424405e-10 -5.5176916e-08 -8.5196554e-13 1.0187908e-12 
1.9717284e-12 4.0635508e-06 -2.4425891e-10 -5.5428305e-08 -8.5473916e-13 1.0228102e-12 
1.9987096e-12 4.084078e-06 -2.4608547e-10 -5.5679314e-08 -8.5749102e-13 1.0268288e-12 
2.0258534e-12 4.1045806e-06 -2.479202e-10 -5.5929939e-08 -8.6022034e-13 1.0308467e-12 
2.053126e-12 4.1250584e-06 -2.4976309e-10 -5.6180176e-08 -8.6292771e-13 1.0348645e-12 
2.0805498e-12 4.145511e-06 -2.5161417e-10 -5.6430025e-08 -8.6561264e-13 1.0388814e-12 
2.1081126e-12 4.1659381e-06 -2.5347345e-10 -5.6679481e-08 -8.6827523e-13 1.042898e-12 
2.1358112e-12 4.1863394e-06 -2.5534094e-10 -5.6928543e-08 -8.7091528e-13 1.046914e-12 
2.1636647e-12 4.2067146e-06 -2.5721671e-10 -5.7177207e-08 -8.7353258e-13 1.0509297e-12 
2.1916526e-12 4.2270635e-06 -2.5910075e-10 -5.7425472e-08 -8.7612734e-13 1.0549448e-12 
2.2197824e-12 4.2473856e-06 -2.6099313e-10 -5.7673335e-08 -8.7869958e-13 1.0589595e-12 
2.2480686e-12 4.2676809e-06 -2.6289381e-10 -5.7920793e-08 -8.8124879e-13 1.0629739e-12 
2.2764887e-12 4.2879489e-06 -2.648028e-10 -5.8167845e-08 -8.8377509e-13 1.0669881e-12 
2.3050771e-12 4.3081895e-06 -2.6672013e-10 -5.8414487e-08 -8.8627865e-13 1.0710018e-12 
2.3337988e-12 4.3284023e-06 -2.6864579e-10 -5.8660717e-08 -8.8875906e-13 1.0750155e-12 
2.3626504e-12 4.348587e-06 -2.7057981e-10 -5.8906534e-08 -8.9121628e-13 1.0790288e-12 
2.3916785e-12 4.3687436e-06 -2.7252224e-10 -5.9151936e-08 -8.9365046e-13 1.0830423e-12 
2.4208368e-12 4.3888715e-06 -2.7447305e-10 -5.9396919e-08 -8.9606147e-13 1.0870553e-12 
2.4501485e-12 4.4089707e-06 -2.7643226e-10 -5.9641482e-08 -8.9844887e-13 1.0910681e-12 
2.4795881e-12 4.4290409e-06 -2.7839992e-10 -5.9885623e-08 -9.0081282e-13 1.0950811e-12 
2.5091764e-12 4.4490818e-06 -2.80376e-10 -6.012934e-08 -9.0315347e-13 1.0990939e-12 
2.5389042e-12 4.4690932e-06 -2.8236051e-10 -6.0372631e-08 -9.0547024e-13 1.1031067e-12 
2.5687711e-12 4.4890749e-06 -2.8435348e-10 -6.0615494e-08 -9.0776349e-13 1.1071195e-12 
2.5987883e-12 4.5090267e-06 -2.8635492e-10 -6.0857927e-08 -9.1003305e-13 1.1111324e-12 
2.6289432e-12 4.5289482e-06 -2.8836486e-10 -6.1099928e-08 -9.1227903e-13 1.1151455e-12 
2.6592474e-12 4.5488393e-06 -2.903833e-10 -6.1341496e-08 -9.1450109e-13 1.1191587e-12 
2.6896827e-12 4.5686998e-06 -2.9241028e-10 -6.1582628e-08 -9.166993e-13 1.1231719e-12 
2.7202733e-12 4.5885295e-06 -2.9444579e-10 -6.1823324e-08 -9.1887367e-13 1.1271855e-12 
2.7510186e-12 4.6083282e-06 -2.9648984e-10 -6.2063581e-08 -9.2102388e-13 1.1311993e-12 
2.7818957e-12 4.6280955e-06 -2.9854243e-10 -6.2303397e-08 -9.2315024e-13 1.1352132e-12 
2.8129182e-12 4.6478315e-06 -3.0060358e-10 -6.2542772e-08 -9.2525231e-13 1.1392271e-12 
2.8440872e-12 4.6675358e-06 -3.026733e-10 -6.2781702e-08 -9.2733039e-13 1.1432416e-12 
2.875383e-12 4.6872082e-06 -3.047516e-10 -6.3020188e-08 -9.2938408e-13 1.1472566e-12 
2.9068278e-12 4.7068486e-06 -3.068385e-10 -6.3258228e-08 -9.314135e-13 1.1512716e-12 
2.9384228e-12 4.7264568e-06 -3.0893399e-10 -6.3495819e-08 -9.3341878e-13 1.1552871e-12 
2.9701437e-12 4.7460326e-06 -3.1103809e-10 -6.3732961e-08 -9.3539943e-13 1.1593032e-12 
3.0020129e-12 4.7655758e-06 -3.1315082e-10 -6.3969651e-08 -9.3735588e-13 1.1633195e-12 
3.0340332e-12 4.7850863e-06 -3.1527218e-10 -6.420589e-08 -9.3928765e-13 1.1673361e-12 
3.0661848e-12 4.8045638e-06 -3.1740217e-10 -6.4441675e-08 -9.4119507e-13 1.1713535e-12 
3.0984763e-12 4.8240083e-06 -3.1954081e-10 -6.4677005e-08 -9.4307757e-13 1.1753714e-12 
3.1309193e-12 4.8434195e-06 -3.2168812e-10 -6.4911879e-08 -9.4493568e-13 1.1793896e-12 
3.1634867e-12 4.8627972e-06 -3.2384414e-10 -6.5146296e-08 -9.4676901e-13 1.1834087e-12 
3.196217e-12 4.8821414e-06 -3.2600884e-10 -6.5380254e-08 -9.4857756e-13 1.1874283e-12 
3.2290764e-12 4.9014518e-06 -3.2818225e-10 -6.5613752e-08 -9.5036164e-13 1.1914484e-12 
3.2620866e-12 4.9207283e-06 -3.3036434e-10 -6.584679e-08 -9.5212075e-13 1.1954692e-12 
3.2952143e-12 4.9399708e-06 -3.3255515e-10 -6.6079365e-08 -9.5385512e-13 1.1994909e-12 
3.3285071e-12 4.9591791e-06 -3.347547e-10 -6.6311478e-08 -9.5556431e-13 1.2035133e-12 
3.3619265e-12 4.9783531e-06 -3.3696296e-10 -6.6543126e-08 -9.5724871e-13 1.2075362e-12 
3.3954943e-12 4.9974926e-06 -3.3917996e-10 -6.6774309e-08 -9.5890828e-13 1.2115601e-12 
3.4292164e-12 5.0165974e-06 -3.414057e-10 -6.7005026e-08 -9.605427e-13 1.2155846e-12 
3.4630649e-12 5.0356676e-06 -3.4364019e-10 -6.7235276e-08 -9.6215214e-13 1.2196101e-12 
3.4970489e-12 5.0547028e-06 -3.4588345e-10 -6.7465058e-08 -9.6373688e-13 1.2236364e-12 
3.5311642e-12 5.0737031e-06 -3.4813548e-10 -6.7694372e-08 -9.6529612e-13 1.2276633e-12 
3.5654307e-12 5.0926682e-06 -3.5039629e-10 -6.7923215e-08 -9.6683019e-13 1.2316914e-12 
3.5998302e-12 5.1115981e-06 -3.526659e-10 -6.8151588e-08 -9.6833916e-13 1.2357203e-12 
3.6343654e-12 5.1304926e-06 -3.549443e-10 -6.8379489e-08 -9.6982299e-13  1.23975e-12 
3.6690577e-12 5.1493516e-06 -3.5723149e-10 -6.8606918e-08 -9.7128156e-13 1.2437808e-12 
3.7038973e-12 5.1681751e-06 -3.5952748e-10 -6.8833874e-08 -9.7271476e-13 1.2478127e-12 
3.7388537e-12 5.1869628e-06 -3.6183227e-10 -6.9060356e-08 -9.7412289e-13 1.2518457e-12 
3.7739682e-12 5.2057146e-06 -3.6414588e-10 -6.9286364e-08 -9.7550566e-13 1.2558794e-12 
3.8092158e-12 5.2244306e-06 -3.6646831e-10 -6.9511897e-08 -9.7686306e-13 1.2599142e-12 
3.8446016e-12 5.2431105e-06 -3.6879955e-10 -6.9736954e-08 -9.7819492e-13 1.2639504e-12 
3.8801132e-12 5.2617543e-06 -3.7113964e-10 -6.9961535e-08 -9.7950162e-13 1.2679875e-12 
3.9157702e-12 5.2803619e-06 -3.7348854e-10 -7.0185638e-08 -9.807827e-13 1.2720258e-12 
3.9515751e-12 5.2989331e-06 -3.7584627e-10 -7.0409264e-08 -9.8203852e-13 1.2760652e-12 
3.9875129e-12 5.3174679e-06 -3.7821285e-10 -7.0632412e-08 -9.8326877e-13 1.2801057e-12 
4.0235815e-12 5.3359662e-06 -3.8058826e-10 -7.085508e-08 -9.8447346e-13 1.2841473e-12 
4.0598038e-12 5.354428e-06 -3.8297254e-10 -7.107727e-08 -9.8565276e-13 1.2881902e-12 
4.0961456e-12 5.372853e-06 -3.8536568e-10 -7.129898e-08 -9.8680666e-13 1.2922342e-12 
4.1326441e-12 5.3912412e-06 -3.8776767e-10 -7.152021e-08 -9.87935e-13 1.2962796e-12 
4.1692694e-12 5.4095926e-06 -3.9017853e-10 -7.1740959e-08 -9.8903788e-13 1.3003264e-12 
4.2060403e-12 5.4279071e-06 -3.9259826e-10 -7.1961226e-08 -9.901152e-13 1.3043745e-12 
4.2429414e-12 5.4461846e-06 -3.9502687e-10 -7.2181013e-08 -9.9116662e-13 1.3084237e-12 
4.2799712e-12 5.464425e-06 -3.9746435e-10 -7.2400317e-08 -9.9219263e-13 1.3124744e-12 
4.3171507e-12 5.4826282e-06 -3.999107e-10 -7.2619139e-08 -9.9319324e-13 1.3165265e-12 
4.3544767e-12 5.5007942e-06 -4.0236595e-10 -7.2837479e-08 -9.9416788e-13 1.3205798e-12 
4.3919351e-12 5.518923e-06 -4.0483009e-10 -7.3055336e-08 -9.9511687e-13 1.3246345e-12 
4.4295127e-12 5.5370143e-06 -4.073031e-10 -7.3272709e-08 -9.960404e-13 1.3286908e-12 
4.4672422e-12 5.5550683e-06 -4.09785e-10 -7.3489599e-08 -9.9693817e-13 1.3327484e-12 
4.5051077e-12 5.5730848e-06 -4.1227578e-10 -7.3706005e-08 -9.9781032e-13 1.3368074e-12 
4.5430947e-12 5.5910637e-06 -4.1477546e-10 -7.3921927e-08 -9.9865679e-13 1.3408679e-12 
4.5812349e-12 5.6090051e-06 -4.1728403e-10 -7.4137365e-08 -9.9947769e-13 1.3449299e-12 
4.6195079e-12 5.6269088e-06 -4.1980148e-10 -7.4352318e-08 -1.0002729e-12 1.3489934e-12 
4.6579249e-12 5.6447747e-06 -4.2232787e-10 -7.4566787e-08 -1.001042e-12 1.3530585e-12 
4.6964666e-12 5.662603e-06 -4.2486314e-10 -7.4780771e-08 -1.0017856e-12 1.3571251e-12 
4.7351435e-12 5.6803934e-06 -4.274073e-10 -7.499427e-08 -1.0025035e-12 1.3611934e-12 
4.7739473e-12 5.698146e-06 -4.2996038e-10 -7.5207284e-08 -1.0031957e-12 1.365263e-12 
4.8129018e-12 5.7158607e-06 -4.3252235e-10 -7.5419813e-08 -1.0038624e-12 1.3693342e-12 
4.851994e-12 5.7335374e-06 -4.3509322e-10 -7.5631856e-08 -1.0045032e-12 1.373407e-12 
4.8912167e-12 5.7511761e-06 -4.3767296e-10 -7.5843414e-08 -1.0051183e-12 1.3774819e-12 
4.9305813e-12 5.7687769e-06 -4.402616e-10 -7.6054487e-08 -1.0057077e-12 1.381558e-12 
4.9700797e-12 5.7863395e-06 -4.4285916e-10 -7.6265074e-08 -1.0062712e-12 1.3856358e-12 
5.0096985e-12 5.8038641e-06 -4.454656e-10 -7.6475176e-08 -1.0068092e-12 1.3897152e-12 
5.049459e-12 5.8213506e-06 -4.4808092e-10 -7.6684792e-08 -1.0073212e-12 1.3937967e-12 
5.0893557e-12 5.8387988e-06 -4.5070514e-10 -7.6893923e-08 -1.0078076e-12 1.3978794e-12 
5.1293882e-12 5.8562089e-06 -4.5333827e-10 -7.7102568e-08 -1.0082683e-12 1.4019643e-12 
5.1695485e-12 5.8735808e-06 -4.5598026e-10 -7.7310727e-08 -1.0087031e-12 1.4060508e-12 
5.2098446e-12 5.8909144e-06 -4.5863115e-10 -7.7518402e-08 -1.0091123e-12 1.410139e-12 
5.2502772e-12 5.9082097e-06 -4.6129096e-10 -7.7725591e-08 -1.0094957e-12 1.4142288e-12 
5.2908502e-12 5.9254667e-06 -4.6395965e-10 -7.7932295e-08 -1.0098534e-12 1.4183207e-12 
5.3315439e-12 5.9426854e-06 -4.6663723e-10 -7.8138513e-08 -1.0101854e-12 1.4224142e-12 
5.3723824e-12 5.9598657e-06 -4.693237e-10 -7.8344247e-08 -1.0104916e-12 1.4265095e-12 
5.4133492e-12 5.9770077e-06 -4.7201906e-10 -7.8549495e-08 -1.0107722e-12 1.4306068e-12 
5.4544484e-12 5.9941113e-06 -4.7472331e-10 -7.8754259e-08 -1.011027e-12 1.4347057e-12 
5.4957621e-12 6.0111764e-06 -4.7743633e-10 -7.8958539e-08 -1.0112621e-12 1.4388092e-12 
5.5399299e-12 6.0282032e-06 -4.8015209e-10 -7.9162334e-08 -1.0116378e-12 1.4430262e-12 
5.5855533e-12 6.0451915e-06 -4.8287497e-10 -7.9365645e-08 -1.0120783e-12 1.4473514e-12 
5.6320021e-12 6.0621414e-06 -4.8560597e-10 -7.9568473e-08 -1.0125335e-12 1.4517396e-12 
5.6790995e-12 6.0790528e-06 -4.8834527e-10 -7.9770817e-08 -1.0129894e-12 1.4561696e-12 
5.7266943e-12 6.0959257e-06 -4.9109326e-10 -7.9972677e-08 -1.0134377e-12 1.4606294e-12 
5.7746996e-12 6.1127602e-06 -4.938499e-10 -8.0174054e-08 -1.0138733e-12 1.4651118e-12 
5.8230573e-12 6.1295562e-06 -4.9661514e-10 -8.0374948e-08 -1.0142929e-12 1.4696116e-12 
5.8717591e-12 6.1463137e-06 -4.9938895e-10 -8.0575359e-08 -1.0146945e-12 1.4741262e-12 
5.9207728e-12 6.1630327e-06 -5.0217133e-10 -8.0775287e-08 -1.0150768e-12 1.4786528e-12 
5.9700658e-12 6.1797132e-06 -5.0496228e-10 -8.0974733e-08 -1.0154389e-12 1.4831901e-12 
6.0196389e-12 6.1963552e-06 -5.0776186e-10 -8.1173697e-08 -1.0157801e-12 1.487737e-12 
6.0694996e-12 6.2129587e-06 -5.1057005e-10 -8.1372179e-08 -1.0161004e-12 1.4922922e-12 
6.1196051e-12 6.2295238e-06 -5.1338687e-10 -8.157018e-08 -1.016399e-12 1.4968557e-12 
6.1699392e-12 6.2460503e-06 -5.1621232e-10 -8.17677e-08 -1.0166761e-12 1.5014268e-12 
6.2205303e-12 6.2625383e-06 -5.190464e-10 -8.1964739e-08 -1.0169312e-12 1.5060051e-12 
6.2711797e-12 6.2789879e-06 -5.2188898e-10 -8.2161298e-08 -1.0171752e-12 1.5105079e-12 
6.3217886e-12 6.295399e-06 -5.2473998e-10 -8.2357377e-08 -1.0174126e-12 1.5148665e-12 
6.3727721e-12 6.3117716e-06 -5.2759959e-10 -8.2552976e-08 -1.0176336e-12 1.5191749e-12 
6.4240412e-12 6.3281057e-06 -5.3046779e-10 -8.2748095e-08 -1.017836e-12 1.5234542e-12 
6.4755708e-12 6.3444014e-06 -5.3334461e-10 -8.2942736e-08 -1.0180186e-12 1.5277158e-12 
6.5273454e-12 6.3606586e-06 -5.3623006e-10 -8.3136899e-08 -1.0181807e-12 1.5319663e-12 
6.5793836e-12 6.3768775e-06 -5.3912416e-10 -8.3330583e-08 -1.0183222e-12 1.5362102e-12 
6.6316511e-12 6.3930578e-06 -5.420269e-10 -8.3523789e-08 -1.0184425e-12  1.54045e-12 
6.6841615e-12 6.4091998e-06 -5.4493825e-10 -8.3716519e-08 -1.0185417e-12 1.5446876e-12 
6.7368976e-12 6.4253034e-06 -5.4785825e-10 -8.3908772e-08 -1.0186196e-12 1.5489243e-12 
6.7898715e-12 6.4413686e-06 -5.5078687e-10 -8.4100548e-08 -1.0186759e-12 1.5531615e-12 
6.8431771e-12 6.4573955e-06 -5.5370589e-10 -8.4291847e-08 -1.0189696e-12 1.5574001e-12 
6.8984156e-12 6.473384e-06 -5.565633e-10 -8.4482662e-08 -1.0203341e-12 1.5615363e-12 
 6.95378e-12 6.4893342e-06 -5.5939479e-10  -8.4673e-08 -1.0219944e-12 1.5656365e-12 
7.0092214e-12 6.5052461e-06 -5.6221568e-10 -8.4862861e-08 -1.0238092e-12 1.5697195e-12 
7.0645322e-12 6.5211198e-06 -5.6503208e-10 -8.5052248e-08 -1.0257224e-12 1.5737918e-12 
7.1198411e-12 6.5369551e-06 -5.6784808e-10 -8.524116e-08 -1.0277019e-12 1.5778571e-12 
7.1752765e-12 6.5527522e-06 -5.706659e-10 -8.5429599e-08 -1.0297273e-12 1.5819176e-12 
7.230861e-12 6.5685111e-06 -5.7348642e-10 -8.5617565e-08 -1.031785e-12 1.5859749e-12 
7.2865724e-12 6.5842318e-06 -5.7631051e-10 -8.5805059e-08 -1.0338653e-12 1.5900304e-12 
7.3424035e-12 6.5999144e-06 -5.7913898e-10 -8.5992081e-08 -1.0359614e-12 1.5940846e-12 
7.3983842e-12 6.6155588e-06 -5.8197238e-10 -8.6178633e-08 -1.0380684e-12 1.5981384e-12 
7.4544918e-12 6.6311651e-06 -5.848112e-10 -8.6364713e-08 -1.0401825e-12 1.6021917e-12 
7.5107396e-12 6.6467334e-06 -5.8765573e-10 -8.6550324e-08 -1.0423009e-12 1.6062455e-12 
7.5671158e-12 6.6622635e-06 -5.9050622e-10 -8.6735466e-08 -1.0444216e-12 1.6102995e-12 
7.6236406e-12 6.6777557e-06 -5.9336287e-10 -8.6920139e-08 -1.0465429e-12 1.6143541e-12 
7.6803458e-12 6.6932099e-06 -5.9622586e-10 -8.7104344e-08 -1.0486636e-12 1.6184093e-12 
7.7372047e-12 6.7086261e-06 -5.9909532e-10 -8.7288081e-08 -1.0507825e-12 1.6224654e-12 
7.7942015e-12 6.7240044e-06 -6.0197136e-10 -8.7471351e-08 -1.0528991e-12 1.6265224e-12 
7.8513342e-12 6.7393448e-06 -6.0485403e-10 -8.7654156e-08 -1.0550127e-12 1.6305804e-12 
7.9086054e-12 6.7546473e-06 -6.077434e-10 -8.7836494e-08 -1.0571226e-12 1.6346392e-12 
7.9660444e-12 6.769912e-06 -6.1063955e-10 -8.8018368e-08 -1.0592286e-12 1.6386991e-12 
8.0236337e-12 6.7851389e-06 -6.1354252e-10 -8.8199777e-08 -1.0613304e-12 1.6427603e-12 
 8.08139e-12 6.8003281e-06 -6.1645234e-10 -8.8380722e-08 -1.0634275e-12 1.6468228e-12 
8.1392787e-12 6.8154795e-06 -6.1936901e-10 -8.8561205e-08 -1.0655202e-12 1.6508864e-12 
8.1973262e-12 6.8305933e-06 -6.2229254e-10 -8.8741225e-08 -1.067608e-12 1.654951e-12 
8.2555168e-12 6.8456694e-06 -6.2522301e-10 -8.8920783e-08 -1.0696904e-12 1.6590168e-12 
8.3138376e-12 6.860708e-06 -6.2816047e-10 -8.9099879e-08 -1.071768e-12 1.6630839e-12 
8.372329e-12 6.8757089e-06 -6.3110491e-10 -8.9278516e-08 -1.0738404e-12 1.6671525e-12 
8.4309717e-12 6.8906724e-06 -6.3405634e-10 -8.9456692e-08 -1.0759074e-12 1.6712222e-12 
8.4897787e-12 6.9055983e-06 -6.3701482e-10 -8.963441e-08 -1.077969e-12 1.6752931e-12 
8.5487429e-12 6.9204869e-06 -6.3998039e-10 -8.9811669e-08 -1.0800254e-12 1.6793654e-12 
8.6078721e-12 6.935338e-06 -6.42953e-10 -8.998847e-08 -1.0820764e-12 1.6834391e-12 
8.6671549e-12 6.9501518e-06 -6.4593258e-10 -9.0164814e-08 -1.0841221e-12 1.6875141e-12 
8.7265882e-12 6.9649283e-06 -6.489191e-10 -9.0340701e-08 -1.0861621e-12 1.6915903e-12 
8.7861895e-12 6.9796675e-06 -6.519125e-10 -9.0516133e-08 -1.0881968e-12 1.695668e-12 
8.8459288e-12 6.9943695e-06 -6.5491276e-10 -9.069111e-08 -1.0902258e-12 1.699747e-12 
8.905819e-12 7.0090343e-06 -6.5791991e-10 -9.0865633e-08 -1.0922493e-12 1.703827e-12 
8.9658606e-12 7.023662e-06 -6.6093397e-10 -9.1039702e-08 -1.0942673e-12 1.7079085e-12 
9.0260615e-12 7.0382526e-06 -6.6395503e-10 -9.1213318e-08 -1.09628e-12 1.7119916e-12 
9.0864073e-12 7.0528061e-06 -6.6698312e-10 -9.1386482e-08 -1.098287e-12 1.7160758e-12 
9.1469335e-12 7.0673227e-06 -6.7001825e-10 -9.1559195e-08 -1.1002885e-12 1.7201616e-12 
9.2076216e-12 7.0818023e-06 -6.730604e-10 -9.1731457e-08 -1.1022842e-12 1.7242485e-12 
9.2684805e-12 7.0962451e-06 -6.7610948e-10 -9.190327e-08 -1.1042746e-12 1.7283367e-12 
9.3294821e-12 7.110651e-06 -6.7916544e-10 -9.2074633e-08 -1.1062596e-12 1.7324262e-12 
9.3906573e-12 7.1250201e-06 -6.8222825e-10 -9.2245547e-08 -1.1082391e-12 1.7365175e-12 
9.4519786e-12 7.1393525e-06 -6.8529796e-10 -9.2416014e-08 -1.1102129e-12  1.74061e-12 
9.5134455e-12 7.1536482e-06 -6.8837454e-10 -9.2586034e-08 -1.1121815e-12 1.744704e-12 
9.575084e-12 7.1679072e-06 -6.9145801e-10 -9.2755608e-08 -1.1141445e-12 1.7487993e-12 
9.6368536e-12 7.1821296e-06 -6.9454836e-10 -9.2924736e-08 -1.1161018e-12 1.752896e-12 
9.6987969e-12 7.1963156e-06 -6.9764561e-10 -9.309342e-08 -1.1180537e-12 1.7569942e-12 
9.7609133e-12 7.210465e-06 -7.0074973e-10 -9.326166e-08 -1.1200002e-12 1.7610937e-12 
9.8231853e-12 7.224578e-06 -7.0386068e-10 -9.3429457e-08 -1.1219415e-12 1.7651947e-12 
9.8856241e-12 7.2386546e-06 -7.0697845e-10 -9.3596812e-08 -1.1238771e-12 1.769297e-12 
9.948221e-12 7.2526949e-06 -7.1010305e-10 -9.3763725e-08 -1.1258073e-12 1.7734007e-12 
1.0010968e-11 7.266699e-06 -7.132345e-10 -9.3930198e-08 -1.1277323e-12 1.7775058e-12 
1.0073873e-11 7.2806668e-06 -7.1637286e-10 -9.409623e-08 -1.1296517e-12 1.7816125e-12 
1.0136948e-11 7.2945985e-06 -7.1951807e-10 -9.4261823e-08 -1.1315655e-12 1.7857204e-12 
1.0200184e-11 7.308494e-06 -7.2267014e-10 -9.4426978e-08 -1.133474e-12 1.7898301e-12 
1.026357e-11 7.3223536e-06 -7.2582901e-10 -9.4591696e-08 -1.1353771e-12 1.7939409e-12 
1.0327113e-11 7.3361771e-06 -7.2899461e-10 -9.4755977e-08 -1.1372749e-12 1.798053e-12 
1.0390821e-11 7.3499647e-06 -7.3216693e-10 -9.4919821e-08 -1.1391672e-12 1.8021666e-12 
1.0454688e-11 7.3637164e-06 -7.3534598e-10 -9.5083231e-08 -1.1410543e-12 1.8062816e-12 
1.0518704e-11 7.3774323e-06 -7.3853177e-10 -9.5246206e-08 -1.1429361e-12 1.8103983e-12 
1.0582886e-11 7.3911125e-06 -7.4172431e-10 -9.5408748e-08 -1.1448127e-12 1.8145161e-12 
1.0647234e-11 7.4047569e-06 -7.4492357e-10 -9.5570857e-08 -1.1466841e-12 1.8186356e-12 
1.0711738e-11 7.4183657e-06 -7.4812796e-10 -9.5732534e-08 -1.1485272e-12 1.8227553e-12 
1.0774482e-11 7.4319389e-06 -7.512406e-10 -9.589377e-08 -1.1488198e-12 1.8269753e-12 
1.0836835e-11 7.4454766e-06 -7.5431146e-10 -9.605457e-08 -1.1485211e-12 1.8312869e-12 
1.0899448e-11 7.4589789e-06 -7.5735801e-10 -9.6214939e-08 -1.1479533e-12 1.835631e-12 
1.0962649e-11 7.4724457e-06 -7.6039322e-10 -9.6374877e-08 -1.1472075e-12 1.8399964e-12 
1.1026356e-11 7.4858771e-06 -7.6342224e-10 -9.6534387e-08 -1.1463336e-12 1.8443775e-12 
1.1090359e-11 7.4992733e-06 -7.6644898e-10 -9.6693469e-08 -1.1453624e-12 1.8487705e-12 
1.115462e-11 7.5126343e-06 -7.6947477e-10 -9.6852124e-08 -1.1443145e-12 1.8531729e-12 
1.1219152e-11 7.5259601e-06 -7.7250074e-10 -9.7010354e-08 -1.1432041e-12 1.8575832e-12 
1.1283927e-11 7.5392508e-06 -7.755279e-10 -9.7168159e-08 -1.1420412e-12    1.862e-12 
1.1348963e-11 7.5525064e-06 -7.7855715e-10 -9.7325539e-08 -1.140833e-12 1.8664226e-12 
1.1414238e-11 7.5657271e-06 -7.8158909e-10 -9.7482497e-08 -1.1395854e-12 1.8708508e-12 
1.1479762e-11 7.5789129e-06 -7.8462421e-10 -9.7639033e-08 -1.1383022e-12 1.875284e-12 
1.1542843e-11 7.5920638e-06 -7.876629e-10 -9.7795148e-08 -1.1367687e-12 1.8796561e-12 
1.1593545e-11 7.6051799e-06 -7.9069947e-10 -9.7950841e-08 -1.1343958e-12 1.8833141e-12 
1.1639573e-11 7.6182613e-06 -7.9374259e-10 -9.8106116e-08 -1.1316626e-12 1.8865469e-12 
1.1682786e-11 7.631308e-06 -7.9679139e-10 -9.8260971e-08 -1.1287118e-12 1.8895369e-12 
1.1724054e-11 7.6443202e-06 -7.9984576e-10 -9.8415409e-08 -1.1256081e-12 1.8923672e-12 
1.1763859e-11 7.6572978e-06 -8.0290586e-10 -9.856943e-08 -1.1223896e-12 1.8950862e-12 
1.1802614e-11 7.6702409e-06 -8.059716e-10 -9.8723035e-08 -1.1190813e-12 1.8977245e-12 
1.1840539e-11 7.6831496e-06 -8.0904281e-10 -9.8876224e-08 -1.1156999e-12 1.9003028e-12 
1.1877769e-11 7.696024e-06 -8.1211933e-10  -9.9029e-08 -1.1122563e-12 1.9028347e-12 
1.1914417e-11 7.7088641e-06 -8.1520111e-10 -9.9181362e-08 -1.1087587e-12 1.9053299e-12 
1.1950604e-11  7.72167e-06 -8.1828808e-10 -9.9333311e-08 -1.1052127e-12 1.9077956e-12 
1.1986394e-11 7.7344417e-06 -8.2138021e-10 -9.9484849e-08 -1.1016221e-12 1.9102371e-12 
1.2021876e-11 7.7471794e-06 -8.2447752e-10 -9.9635976e-08 -1.0979902e-12 1.9126577e-12 
1.2057098e-11 7.759883e-06 -8.2758004e-10 -9.9786693e-08 -1.0943196e-12 1.9150603e-12 
1.2079506e-11 7.7725527e-06 -8.3069356e-10  -9.9937e-08 -1.0918385e-12 1.9168615e-12 
1.2088781e-11 7.7851885e-06 -8.338155e-10 -1.000869e-07 -1.0903349e-12 1.9176084e-12 
1.2092014e-11 7.7977905e-06 -8.3694617e-10 -1.0023639e-07 -1.0892129e-12 1.917832e-12 
1.2091741e-11 7.8103587e-06 -8.4008362e-10 -1.0038548e-07 -1.0883246e-12 1.9177205e-12 
1.2088821e-11 7.8228933e-06 -8.4322762e-10 -1.0053415e-07 -1.0875873e-12 1.9173774e-12 
1.2083724e-11 7.8353942e-06 -8.4637757e-10 -1.0068243e-07 -1.0869505e-12 1.9168663e-12 
1.207695e-11 7.8478616e-06 -8.4953308e-10 -1.008303e-07 -1.0863808e-12 1.9162285e-12 
1.2068791e-11 7.8602954e-06 -8.5269397e-10 -1.0097777e-07 -1.0858558e-12 1.9154925e-12 
1.2059448e-11 7.8726959e-06 -8.5586019e-10 -1.0112483e-07 -1.0853602e-12 1.9146776e-12 
1.204907e-11 7.885063e-06 -8.5903164e-10 -1.012715e-07 -1.0848825e-12 1.9137982e-12 
1.2037797e-11 7.8973968e-06 -8.6220831e-10 -1.0141776e-07 -1.0844148e-12 1.9128645e-12 
1.2025773e-11 7.9096975e-06 -8.6539025e-10 -1.0156363e-07 -1.083951e-12 1.9118839e-12 
1.2013072e-11 7.9219649e-06 -8.6857746e-10 -1.0170909e-07 -1.0834874e-12 1.9108621e-12 
1.1999765e-11 7.9341993e-06 -8.7176996e-10 -1.0185416e-07 -1.0830204e-12 1.9098032e-12 
1.198586e-11 7.9464007e-06 -8.7496768e-10 -1.0199883e-07 -1.0825479e-12 1.9087108e-12 
1.1971368e-11 7.9585691e-06 -8.7817051e-10 -1.0214311e-07 -1.0820675e-12 1.9075874e-12 
1.1956314e-11 7.9707046e-06 -8.8137838e-10 -1.0228699e-07 -1.0815784e-12 1.9064348e-12 
1.1940749e-11 7.9828074e-06 -8.8459119e-10 -1.0243047e-07 -1.0810793e-12 1.9052547e-12 
1.192473e-11 7.9948774e-06 -8.8780898e-10 -1.0257357e-07 -1.0805698e-12 1.9040483e-12 
1.1908293e-11 8.0069147e-06 -8.9103173e-10 -1.0271627e-07 -1.0800492e-12 1.9028168e-12 
1.1891417e-11 8.0189194e-06 -8.9425949e-10 -1.0285858e-07 -1.0795171e-12 1.901561e-12 
1.1874118e-11 8.0308916e-06 -8.9749231e-10 -1.0300049e-07 -1.0789731e-12 1.9002815e-12 
1.1856403e-11 8.0428313e-06 -9.0073015e-10 -1.0314202e-07 -1.0784164e-12 1.898979e-12 
1.1838318e-11 8.0547386e-06 -9.0397299e-10 -1.0328316e-07 -1.0778479e-12 1.8976539e-12 
1.1819861e-11 8.0666136e-06 -9.0722078e-10 -1.0342391e-07 -1.0772668e-12 1.8963068e-12 
1.1801104e-11 8.0784563e-06 -9.1047349e-10 -1.0356428e-07 -1.0766733e-12 1.8949376e-12 
1.178207e-11 8.0902668e-06 -9.1373108e-10 -1.0370426e-07 -1.0760674e-12 1.8935468e-12 
1.1762742e-11 8.1020453e-06 -9.1699356e-10 -1.0384385e-07 -1.0754488e-12 1.8921344e-12 
1.1743144e-11 8.1137916e-06 -9.2026096e-10 -1.0398306e-07 -1.0748175e-12 1.8907012e-12 
1.1723257e-11 8.125506e-06 -9.2353332e-10 -1.0412188e-07 -1.0741736e-12 1.889247e-12 
1.170306e-11 8.1371885e-06 -9.2681063e-10 -1.0426033e-07 -1.0735168e-12 1.8877718e-12 
1.168255e-11 8.1488391e-06 -9.3009285e-10 -1.0439839e-07 -1.0728472e-12 1.8862764e-12 
1.1661706e-11 8.1604579e-06 -9.3337994e-10 -1.0453607e-07 -1.0721648e-12 1.8847606e-12 
1.1640544e-11 8.1720451e-06 -9.3667188e-10 -1.0467337e-07 -1.0714697e-12 1.8832241e-12 
1.1619069e-11 8.1836006e-06 -9.3996864e-10 -1.0481029e-07 -1.0707618e-12 1.8816677e-12 
1.1597322e-11 8.1951245e-06 -9.4327022e-10 -1.0494683e-07 -1.0700414e-12 1.880091e-12 
1.1575306e-11 8.206617e-06 -9.4657663e-10 -1.05083e-07 -1.0693082e-12 1.8784941e-12 
1.1553061e-11 8.218078e-06 -9.4988786e-10 -1.0521879e-07 -1.0685627e-12 1.8768776e-12 
1.1530569e-11 8.2295077e-06 -9.5320382e-10 -1.053542e-07 -1.0678047e-12 1.8752411e-12 
1.150784e-11 8.2409061e-06 -9.5652449e-10 -1.0548924e-07 -1.0670344e-12 1.8735847e-12 
1.1484877e-11 8.2522732e-06 -9.598499e-10 -1.056239e-07 -1.0662515e-12 1.8719086e-12 
1.1461673e-11 8.2636092e-06 -9.6318007e-10 -1.0575819e-07 -1.065456e-12 1.8702128e-12 
1.1438211e-11 8.2749142e-06 -9.6651504e-10 -1.0589211e-07 -1.0646481e-12 1.8684975e-12 
1.1414487e-11 8.2861881e-06 -9.6985478e-10 -1.0602566e-07 -1.0638285e-12 1.8667736e-12 
1.1390538e-11 8.2974311e-06 -9.7320009e-10 -1.0615884e-07 -1.0629212e-12 1.8657732e-12 
1.1366378e-11 8.3086433e-06 -9.7655045e-10 -1.0629165e-07 -1.0619627e-12 1.8655069e-12 
1.1342079e-11 8.3198247e-06 -9.7990574e-10 -1.064241e-07 -1.0609747e-12 1.8657166e-12 
1.1317589e-11 8.3309753e-06 -9.8326577e-10 -1.0655617e-07 -1.0599631e-12 1.8662281e-12 
1.1292933e-11 8.3420953e-06 -9.8663057e-10 -1.0668789e-07 -1.0589315e-12 1.8669394e-12 
1.126807e-11 8.3531847e-06 -9.900001e-10 -1.0681923e-07 -1.0578821e-12 1.8677864e-12 
1.124303e-11 8.3642436e-06 -9.9337431e-10 -1.0695021e-07 -1.0568162e-12 1.8687283e-12 
1.1217763e-11 8.3752721e-06 -9.9675318e-10 -1.0708083e-07 -1.0557348e-12 1.8697372e-12 
1.1192286e-11 8.3862701e-06 -1.0001367e-09 -1.0721108e-07 -1.054639e-12 1.8707941e-12 
1.1166598e-11 8.3972379e-06 -1.0035248e-09 -1.0734097e-07 -1.053529e-12 1.8718848e-12 
1.1140697e-11 8.4081754e-06 -1.0069176e-09 -1.074705e-07 -1.0524052e-12 1.8729997e-12 
1.1114592e-11 8.4190828e-06 -1.010315e-09 -1.0759967e-07 -1.0512683e-12 1.8741316e-12 
1.1088276e-11 8.4299601e-06 -1.0137171e-09 -1.0772848e-07 -1.0501179e-12 1.8752753e-12 
1.1061759e-11 8.4408074e-06 -1.0171237e-09 -1.0785693e-07 -1.0489548e-12 1.8764263e-12 
1.1035022e-11 8.4516247e-06 -1.020535e-09 -1.0798502e-07 -1.0477787e-12 1.8775817e-12 
1.1008069e-11 8.4624121e-06 -1.0239508e-09 -1.0811276e-07 -1.0465897e-12 1.8787391e-12 
1.0980919e-11 8.4731697e-06 -1.0273712e-09 -1.0824014e-07 -1.0453883e-12 1.8798968e-12 
1.0953551e-11 8.4838975e-06 -1.0307961e-09 -1.0836716e-07 -1.0441743e-12 1.8810533e-12 
1.0925973e-11 8.4945957e-06 -1.0342255e-09 -1.0849383e-07 -1.042948e-12 1.8822074e-12 
1.089818e-11 8.5052643e-06 -1.0376594e-09 -1.0862015e-07 -1.0417092e-12 1.8833583e-12 
1.087017e-11 8.5159034e-06 -1.0410977e-09 -1.0874611e-07 -1.040458e-12 1.8845052e-12 
1.0841956e-11 8.5265129e-06 -1.0445406e-09 -1.0887172e-07 -1.0391947e-12 1.8856475e-12 
1.0813529e-11 8.5370931e-06 -1.0479879e-09 -1.0899698e-07 -1.037919e-12 1.8867849e-12 
1.0784901e-11 8.547644e-06 -1.0514397e-09 -1.0912189e-07 -1.0366312e-12 1.887917e-12 
1.0756077e-11 8.5581656e-06 -1.0548959e-09 -1.0924646e-07 -1.0353313e-12 1.8890434e-12 
1.0727051e-11 8.5686581e-06 -1.0583565e-09 -1.0937067e-07 -1.0340194e-12 1.8901639e-12 
1.0697813e-11 8.5791214e-06 -1.0618216e-09 -1.0949453e-07 -1.0326954e-12 1.8912782e-12 
1.0668366e-11 8.5895556e-06 -1.065291e-09 -1.0961805e-07 -1.0313592e-12 1.8923865e-12 
1.0638734e-11 8.5999609e-06 -1.0687648e-09 -1.0974123e-07 -1.0300114e-12 1.8934882e-12 
1.0608898e-11 8.6103373e-06 -1.0722431e-09 -1.0986406e-07 -1.0286516e-12 1.8945837e-12 
1.0578862e-11 8.6206849e-06 -1.0757257e-09 -1.0998654e-07 -1.0272798e-12 1.8956725e-12 
1.0548611e-11 8.6310037e-06 -1.0792127e-09 -1.1010868e-07 -1.0258961e-12 1.8967548e-12 
1.0518176e-11 8.6412938e-06 -1.0827041e-09 -1.1023048e-07 -1.0245006e-12 1.8978303e-12 
1.0487533e-11 8.6515553e-06 -1.0861998e-09 -1.1035194e-07 -1.0230934e-12 1.8988992e-12 
1.0456681e-11 8.6617882e-06 -1.0896998e-09 -1.1047306e-07 -1.0216741e-12 1.8999615e-12 
1.0425626e-11 8.6719926e-06 -1.0932042e-09 -1.1059384e-07 -1.0202432e-12 1.901017e-12 
1.0405845e-11 8.6821686e-06 -1.096696e-09 -1.1071428e-07 -1.0181948e-12 1.9027059e-12 
 1.03933e-11 8.6923163e-06 -1.1001835e-09 -1.1083438e-07 -1.015697e-12 1.9050782e-12 
1.0383353e-11 8.7024358e-06 -1.1036745e-09 -1.1095415e-07 -1.0130047e-12 1.9078253e-12 
1.0374638e-11 8.712527e-06 -1.1071695e-09 -1.1107358e-07 -1.0101854e-12 1.9108096e-12 
1.0366744e-11  8.72259e-06 -1.1106681e-09 -1.1119268e-07 -1.0072762e-12 1.9139528e-12 
1.0359596e-11 8.732625e-06 -1.1141704e-09 -1.1131144e-07 -1.0043002e-12 1.9172062e-12 
1.0352981e-11 8.742632e-06 -1.1176766e-09 -1.1142987e-07 -1.0012725e-12 1.9205386e-12 
1.0346724e-11 8.7526111e-06 -1.1211868e-09 -1.1154797e-07 -9.9820334e-13 1.9239288e-12 
1.0340742e-11 8.7625623e-06 -1.1247011e-09 -1.1166574e-07 -9.9509984e-13 1.9273621e-12 
1.0334986e-11 8.7724858e-06 -1.1282195e-09 -1.1178317e-07 -9.9196693e-13 1.930828e-12 
1.0329351e-11 8.7823814e-06 -1.131742e-09 -1.1190027e-07 -9.888082e-13 1.934319e-12 
1.0323835e-11 8.7922495e-06 -1.1352685e-09 -1.1201705e-07 -9.8562616e-13 1.9378295e-12 
1.031835e-11 8.8020899e-06 -1.1387992e-09 -1.1213349e-07 -9.8242294e-13 1.9413551e-12 
1.0312879e-11 8.8119029e-06 -1.142334e-09 -1.1224961e-07 -9.7919988e-13 1.9448933e-12 
1.0307442e-11 8.8216883e-06 -1.1458728e-09 -1.123654e-07 -9.7595802e-13 1.9484412e-12 
1.0302042e-11 8.8314464e-06 -1.1494157e-09 -1.1248087e-07 -9.726981e-13 1.951997e-12 
1.029668e-11 8.8411772e-06 -1.1529628e-09 -1.1259601e-07 -9.6942044e-13 1.9555597e-12 
1.0291293e-11 8.8508808e-06 -1.1565139e-09 -1.1271083e-07 -9.6612652e-13 1.9591279e-12 
1.0285859e-11 8.8605571e-06 -1.1600691e-09 -1.1282532e-07 -9.6281578e-13 1.9627006e-12 
1.0280375e-11 8.8702064e-06 -1.1636282e-09 -1.1293949e-07 -9.5948875e-13 1.9662772e-12 
1.0274848e-11 8.8798286e-06 -1.1671914e-09 -1.1305334e-07 -9.5614574e-13 1.9698569e-12 
1.0269264e-11 8.8894238e-06 -1.1707586e-09 -1.1316686e-07 -9.5278661e-13 1.9734398e-12 
1.0263623e-11 8.8989921e-06 -1.1743299e-09 -1.1328007e-07 -9.494119e-13 1.9770255e-12 
1.025795e-11 8.9085336e-06 -1.1779051e-09 -1.1339296e-07 -9.460216e-13 1.9806132e-12 
1.0252188e-11 8.9180484e-06 -1.1814843e-09 -1.1350553e-07 -9.4261569e-13 1.984203e-12 
1.0246332e-11 8.9275364e-06 -1.1850674e-09 -1.1361778e-07 -9.3919427e-13 1.9877948e-12 
1.0240361e-11 8.9369978e-06 -1.1886545e-09 -1.1372971e-07 -9.3575767e-13 1.991388e-12 
1.0234289e-11 8.9464326e-06 -1.1922456e-09 -1.1384133e-07 -9.3230554e-13 1.9949826e-12 
1.0228131e-11 8.9558409e-06 -1.1958406e-09 -1.1395263e-07 -9.2883822e-13 1.9985789e-12 
1.0221855e-11 8.9652228e-06 -1.1994395e-09 -1.1406362e-07 -9.2535572e-13 2.0021762e-12 
1.0215507e-11 8.9745784e-06 -1.2030424e-09 -1.1417429e-07 -9.2185823e-13 2.0057748e-12 
1.0209083e-11 8.9839076e-06 -1.2066491e-09 -1.1428466e-07 -9.1834564e-13 2.0093747e-12 
1.0202594e-11 8.9932106e-06 -1.2102598e-09 -1.1439471e-07 -9.1481819e-13 2.0129756e-12 
1.0196014e-11 9.0024874e-06 -1.2138744e-09 -1.1450445e-07 -9.1127556e-13 2.0165778e-12 
1.0189372e-11 9.0117382e-06 -1.2174928e-09 -1.1461388e-07 -9.0771819e-13 2.0201809e-12 
1.0182631e-11 9.0209629e-06 -1.2211151e-09 -1.1472299e-07 -9.0414599e-13 2.0237847e-12 
1.0175768e-11 9.0301616e-06 -1.2247411e-09 -1.1483181e-07 -9.0055864e-13 2.0273898e-12 
1.0168781e-11 9.0393345e-06 -1.2283708e-09 -1.1494031e-07 -8.9695651e-13 2.0309957e-12 
1.0161684e-11 9.0484815e-06 -1.2320044e-09 -1.150485e-07 -8.9333976e-13 2.0346027e-12 
1.0154488e-11 9.0576028e-06 -1.2356418e-09 -1.1515639e-07 -8.8970826e-13 2.0382105e-12 
1.0147178e-11 9.0666984e-06 -1.2392829e-09 -1.1526398e-07 -8.8606198e-13 2.0418191e-12 
1.0140617e-11 9.0757683e-06 -1.2428395e-09 -1.1537125e-07 -8.8373766e-13 2.045295e-12 
1.013789e-11 9.0848127e-06 -1.2462972e-09 -1.154782e-07 -8.8320961e-13 2.0486802e-12 
1.0154775e-11 9.0938316e-06 -1.2496923e-09 -1.1558485e-07 -8.8431438e-13 2.0530119e-12 
1.0178963e-11 9.102825e-06 -1.2530624e-09 -1.1569119e-07 -8.8618597e-13 2.0579496e-12 
1.0207281e-11 9.1117931e-06 -1.2564167e-09 -1.1579723e-07 -8.885143e-13 2.0632227e-12 
1.0238688e-11 9.1207359e-06 -1.2597627e-09 -1.1590297e-07 -8.9115186e-13 2.0687144e-12 
1.0272527e-11 9.1296535e-06 -1.2631026e-09 -1.160084e-07 -8.9400788e-13 2.074357e-12 
 1.03081e-11 9.1385459e-06 -1.2664376e-09 -1.1611354e-07 -8.9702365e-13 2.080108e-12 
1.0345024e-11 9.1474132e-06 -1.2697688e-09 -1.1621838e-07 -9.0015873e-13 2.0859396e-12 
1.0383018e-11 9.1562554e-06 -1.2730974e-09 -1.1632292e-07 -9.0338557e-13 2.0918325e-12 
1.0421933e-11 9.1650727e-06 -1.2764244e-09 -1.1642716e-07 -9.0668354e-13 2.0977735e-12 
1.0461617e-11 9.1738651e-06 -1.2797505e-09 -1.1653111e-07 -9.1003834e-13 2.1037532e-12 
1.0501922e-11 9.1826326e-06 -1.2830763e-09 -1.1663476e-07 -9.1343926e-13 2.1097643e-12 
1.0542778e-11 9.1913753e-06 -1.2864022e-09 -1.1673811e-07 -9.1687823e-13 2.1158016e-12 
1.0584083e-11 9.2000934e-06 -1.2897286e-09 -1.1684118e-07 -9.2034895e-13 2.1218616e-12 
1.0625776e-11 9.2087868e-06 -1.2930559e-09 -1.1694395e-07 -9.2384653e-13 2.1279412e-12 
1.0667875e-11 9.2174556e-06 -1.2963842e-09 -1.1704643e-07 -9.2736697e-13 2.1340378e-12 
1.0710295e-11 9.2260998e-06 -1.2997136e-09 -1.1714861e-07 -9.3090807e-13 2.1401502e-12 
1.0753045e-11 9.2347197e-06 -1.3030445e-09 -1.1725051e-07 -9.3446693e-13 2.1462767e-12 
1.0796081e-11 9.2433151e-06 -1.3063768e-09 -1.1735212e-07 -9.3804198e-13 2.1524164e-12 
1.0839358e-11 9.2518862e-06 -1.3097108e-09 -1.1745343e-07 -9.4163163e-13 2.1585685e-12 
1.088286e-11 9.260433e-06 -1.3130466e-09 -1.1755446e-07 -9.4523462e-13 2.1647318e-12 
1.092658e-11 9.2689557e-06 -1.3163841e-09 -1.176552e-07 -9.4884972e-13 2.1709062e-12 
1.0970489e-11 9.2774542e-06 -1.3197234e-09 -1.1775566e-07 -9.5247619e-13 2.177091e-12 
1.101457e-11 9.2859286e-06 -1.3230646e-09 -1.1785583e-07 -9.5611336e-13 2.1832855e-12 
 1.10588e-11 9.2943791e-06 -1.3264078e-09 -1.1795571e-07 -9.5976082e-13 2.1894902e-12 
1.1103163e-11 9.3028056e-06 -1.3297531e-09 -1.1805531e-07 -9.6341779e-13 2.1957041e-12 
1.114764e-11 9.3112082e-06 -1.3331004e-09 -1.1815463e-07 -9.6708406e-13 2.2019273e-12 
1.1192215e-11 9.319587e-06 -1.33645e-09 -1.1825367e-07 -9.7075912e-13 2.2081593e-12 
1.1236871e-11 9.327942e-06 -1.3398016e-09 -1.1835242e-07 -9.7444277e-13 2.2144001e-12 
1.1281633e-11 9.3362734e-06 -1.3431555e-09 -1.1845089e-07 -9.7813489e-13 2.2206497e-12 
1.1326495e-11 9.3445811e-06 -1.3465115e-09 -1.1854908e-07 -9.8183493e-13 2.2269076e-12 
1.137144e-11 9.3528652e-06 -1.3498694e-09 -1.1864699e-07 -9.8554314e-13 2.2331739e-12 
1.1416503e-11 9.3611259e-06 -1.3532293e-09 -1.1874462e-07 -9.892591e-13 2.2394483e-12 
1.1461676e-11 9.3693631e-06 -1.3565911e-09 -1.1884198e-07 -9.9298279e-13 2.245731e-12 
1.1506939e-11 9.3775769e-06 -1.3599548e-09 -1.1893905e-07 -9.9671435e-13 2.2520215e-12 
 1.15523e-11 9.3857675e-06 -1.3633206e-09 -1.1903585e-07 -1.000453e-12 2.2583201e-12 
1.1593012e-11 9.3939347e-06 -1.3666462e-09 -1.1913237e-07 -1.0058972e-12 2.2649828e-12 
1.1619317e-11 9.4020788e-06 -1.3699025e-09 -1.1922861e-07 -1.0136893e-12 2.2731042e-12 
1.1633026e-11 9.4101997e-06 -1.3731159e-09 -1.1932457e-07 -1.0222133e-12 2.2819621e-12 
1.1640088e-11 9.4182976e-06 -1.3763095e-09 -1.1942025e-07 -1.0311873e-12 2.2912678e-12 
1.1642282e-11 9.4263725e-06 -1.3794879e-09 -1.1951566e-07 -1.0404688e-12 2.3008749e-12 
1.1640481e-11 9.4344244e-06 -1.3826576e-09 -1.196108e-07 -1.0499889e-12 2.310684e-12 
1.1621177e-11 9.4424535e-06 -1.3858001e-09 -1.1970566e-07 -1.0604493e-12 2.3197924e-12 
1.159188e-11 9.4504598e-06 -1.3889296e-09 -1.1980026e-07 -1.0715081e-12 2.3282432e-12 
1.1557556e-11 9.4584433e-06 -1.3920546e-09 -1.1989458e-07 -1.0828739e-12 2.3363484e-12 
1.1520083e-11 9.4664041e-06 -1.3951765e-09 -1.1998864e-07 -1.0944504e-12 2.3442462e-12 
1.1480115e-11 9.4743422e-06 -1.3982957e-09 -1.2008243e-07 -1.106181e-12 2.352013e-12 
1.1437963e-11 9.4822578e-06 -1.4014131e-09 -1.2017595e-07 -1.1180283e-12 2.3596949e-12 
1.1394031e-11 9.4901509e-06 -1.4045292e-09 -1.2026921e-07 -1.129967e-12 2.3673207e-12 
1.1348666e-11 9.4980216e-06 -1.4076446e-09 -1.203622e-07 -1.1419796e-12 2.3749095e-12 
1.1301702e-11 9.5058698e-06 -1.4107268e-09 -1.2045492e-07 -1.1535658e-12 2.3825161e-12 
1.1252365e-11 9.5136957e-06 -1.4136607e-09 -1.2054735e-07 -1.1627722e-12 2.3903595e-12 
1.1200009e-11 9.5214993e-06 -1.4165234e-09 -1.2063952e-07 -1.1713255e-12 2.3982567e-12 
1.1146059e-11 9.5292807e-06 -1.4193439e-09 -1.2073142e-07 -1.1795461e-12 2.4061957e-12 
1.1091542e-11  9.53704e-06 -1.4221371e-09 -1.2082306e-07 -1.1875557e-12 2.4141643e-12 
1.1036285e-11 9.5447772e-06 -1.4249138e-09 -1.2091443e-07 -1.195423e-12 2.4221557e-12 
1.0980158e-11 9.5524923e-06 -1.4276784e-09 -1.2100554e-07 -1.2031913e-12 2.4301654e-12 
1.0923274e-11 9.5601855e-06 -1.4304324e-09 -1.2109639e-07 -1.2108896e-12 2.4381911e-12 
1.086573e-11 9.5678567e-06 -1.4331774e-09 -1.2118698e-07 -1.2185382e-12 2.4462308e-12 
1.0807626e-11 9.5755061e-06 -1.4359152e-09 -1.2127731e-07 -1.2261515e-12 2.4542835e-12 
1.0749028e-11 9.5831337e-06 -1.4386472e-09 -1.2136738e-07 -1.2337399e-12 2.4623483e-12 
   1.069e-11 9.5907395e-06 -1.4413746e-09 -1.2145719e-07 -1.241311e-12 2.4704246e-12 
1.0630593e-11 9.5983237e-06 -1.4440983e-09 -1.2154675e-07 -1.2488713e-12 2.4785121e-12 
1.0570813e-11 9.6058863e-06 -1.4468188e-09 -1.2163605e-07 -1.2564252e-12 2.4866106e-12 
1.0510693e-11 9.6134273e-06 -1.4495369e-09 -1.2172509e-07 -1.2639761e-12  2.49472e-12 
1.0450241e-11 9.6209468e-06 -1.4522529e-09 -1.2181388e-07 -1.2715267e-12 2.5028398e-12 
1.0389485e-11 9.6284448e-06 -1.4549672e-09 -1.2190241e-07 -1.2790794e-12 2.5109701e-12 
1.0328495e-11 9.6359215e-06 -1.4576801e-09 -1.2199069e-07 -1.286636e-12 2.5191105e-12 
1.0267272e-11 9.6433768e-06 -1.4603919e-09 -1.2207872e-07 -1.2941978e-12 2.5272608e-12 
1.0205767e-11 9.6508109e-06 -1.4631026e-09 -1.2216649e-07 -1.3017658e-12 2.5354214e-12 
1.0143961e-11 9.6582237e-06 -1.4658125e-09 -1.2225401e-07 -1.309341e-12 2.5435921e-12 
1.0081873e-11 9.6656154e-06 -1.4685216e-09 -1.2234129e-07 -1.3169241e-12 2.551773e-12 
1.0019514e-11 9.672986e-06 -1.47123e-09 -1.2242831e-07 -1.324516e-12 2.5599638e-12 
9.9568455e-12 9.6803356e-06 -1.4739382e-09 -1.2251508e-07 -1.3321563e-12 2.5676883e-12 
9.893782e-12 9.6876642e-06 -1.4766464e-09 -1.2260161e-07 -1.3398983e-12 2.5742282e-12 
9.8304015e-12 9.6949719e-06 -1.479355e-09 -1.2268789e-07 -1.347679e-12 2.5799827e-12 
9.7667466e-12 9.7022588e-06 -1.4820636e-09 -1.2277392e-07 -1.355488e-12 2.585239e-12 
9.7028468e-12 9.7095248e-06 -1.4847724e-09 -1.2285971e-07 -1.3633201e-12 2.5901683e-12 
9.6387138e-12 9.7167701e-06 -1.4874811e-09 -1.2294525e-07 -1.3711712e-12 2.5948743e-12 
9.5743679e-12 9.7239947e-06 -1.4901899e-09 -1.2303055e-07 -1.3790394e-12 2.5994228e-12 
9.5097986e-12 9.7311986e-06 -1.4928988e-09 -1.231156e-07 -1.3869228e-12 2.603858e-12 
9.4449752e-12 9.738382e-06 -1.4956077e-09 -1.2320041e-07 -1.3948207e-12 2.6082095e-12 
9.3799216e-12 9.7455449e-06 -1.4983166e-09 -1.2328497e-07 -1.4027318e-12 2.6124986e-12 
9.3146514e-12 9.7526873e-06 -1.5010255e-09 -1.233693e-07 -1.410656e-12 2.6167409e-12 
9.2491723e-12 9.7598092e-06 -1.5037344e-09 -1.2345338e-07 -1.4185927e-12 2.6209471e-12 
9.1835325e-12 9.7669109e-06 -1.5064431e-09 -1.2353722e-07 -1.4265422e-12 2.6251255e-12 
9.1177321e-12 9.7739922e-06 -1.5091517e-09 -1.2362082e-07 -1.4345039e-12 2.6292822e-12 
 9.05179e-12 9.7810533e-06 -1.5118604e-09 -1.2370418e-07 -1.4424777e-12 2.6334221e-12 
8.9856833e-12 9.7880941e-06 -1.5145694e-09 -1.237873e-07 -1.4504634e-12 2.6375487e-12 
8.9194028e-12 9.7951149e-06 -1.5172787e-09 -1.2387018e-07 -1.4584609e-12 2.6416648e-12 
8.8529127e-12 9.8021156e-06 -1.5199884e-09 -1.2395282e-07 -1.4664703e-12 2.6457727e-12 
8.7862476e-12 9.8090962e-06 -1.5226983e-09 -1.2403523e-07 -1.4744914e-12 2.649874e-12 
8.7194173e-12 9.8160569e-06 -1.5254085e-09 -1.241174e-07 -1.4825238e-12 2.6539699e-12 
8.6524179e-12 9.8229977e-06 -1.5281188e-09 -1.2419933e-07 -1.490568e-12 2.6580614e-12 
8.5852592e-12 9.8299186e-06 -1.5308292e-09 -1.2428103e-07 -1.4986234e-12 2.6621497e-12 
8.5179685e-12 9.8368197e-06 -1.5335397e-09 -1.243625e-07 -1.5066906e-12 2.6662355e-12 
8.4505059e-12 9.8437011e-06 -1.5362504e-09 -1.2444373e-07 -1.5147693e-12 2.6703192e-12 
8.3829044e-12 9.8505628e-06 -1.5389615e-09 -1.2452473e-07 -1.5228596e-12 2.674401e-12 
8.3151573e-12 9.8574048e-06 -1.5416728e-09 -1.2460549e-07 -1.5309612e-12 2.6784818e-12 
8.2472441e-12 9.8642273e-06 -1.5443845e-09 -1.2468603e-07 -1.5390741e-12 2.6825615e-12 
8.1791719e-12 9.8710302e-06 -1.5470965e-09 -1.2476633e-07 -1.5471982e-12 2.6866405e-12 
8.1109425e-12 9.8778136e-06 -1.5498086e-09 -1.248464e-07 -1.5553337e-12 2.6907191e-12 
8.042511e-12 9.8845777e-06 -1.5525209e-09 -1.2492624e-07 -1.5634806e-12 2.6947973e-12 
7.9739377e-12 9.8913223e-06 -1.5552333e-09 -1.2500585e-07 -1.5716388e-12 2.6988754e-12 
7.9052104e-12 9.8980477e-06 -1.5579461e-09 -1.2508524e-07 -1.5798082e-12 2.7029532e-12 
7.8363331e-12 9.9047537e-06 -1.5606592e-09 -1.2516439e-07 -1.587989e-12 2.7070313e-12 
7.7673328e-12 9.9114406e-06 -1.5633726e-09 -1.2524332e-07 -1.5961805e-12 2.7111094e-12 
7.6981926e-12 9.9181083e-06 -1.5660864e-09 -1.2532202e-07 -1.6043832e-12 2.7151877e-12 
7.6288911e-12 9.9247569e-06 -1.5688005e-09 -1.2540049e-07 -1.6125974e-12 2.7192662e-12 
7.5594439e-12 9.9313865e-06 -1.5715147e-09 -1.2547874e-07 -1.6208226e-12 2.7233449e-12 
7.4898584e-12 9.9379971e-06 -1.574229e-09 -1.2555677e-07 -1.6290588e-12 2.7274241e-12 
7.4201232e-12 9.9445887e-06 -1.5769434e-09 -1.2563457e-07 -1.6373061e-12 2.7315034e-12 
7.3502308e-12 9.9511614e-06 -1.579658e-09 -1.2571214e-07 -1.6455645e-12 2.7355833e-12 
7.2801778e-12 9.9577153e-06 -1.5823728e-09 -1.257895e-07 -1.6538337e-12 2.7396633e-12 
7.2099918e-12 9.9642505e-06 -1.5850878e-09 -1.2586663e-07 -1.662114e-12 2.7437439e-12 
7.1396488e-12 9.9707668e-06 -1.587803e-09 -1.2594354e-07 -1.6704049e-12 2.747825e-12 
7.0691651e-12 9.9772646e-06 -1.5905183e-09 -1.2602023e-07 -1.678707e-12 2.7519064e-12 
6.9985017e-12 9.9837436e-06 -1.5930876e-09 -1.2609668e-07 -1.6869872e-12 2.7559945e-12 
6.9276157e-12 9.9902041e-06 -1.5955712e-09 -1.261729e-07 -1.6952559e-12 2.7600925e-12 
6.8565193e-12 9.9966461e-06 -1.5980008e-09 -1.262489e-07 -1.7035264e-12 2.7641953e-12 
6.7852554e-12 1.000307e-05 -1.6003989e-09 -1.2632468e-07 -1.7118025e-12 2.7683011e-12 
6.7138209e-12 1.0009475e-05 -1.6027776e-09 -1.2640024e-07 -1.7200856e-12 2.7724091e-12 
6.6422367e-12 1.0015861e-05 -1.6051437e-09 -1.2647558e-07 -1.7283766e-12 2.7765191e-12 
6.5704867e-12 1.002223e-05 -1.6074982e-09 -1.2655071e-07 -1.7366765e-12 2.7806303e-12 
6.4999027e-12 1.002858e-05 -1.6098418e-09 -1.2662561e-07 -1.7449276e-12 2.785146e-12 
6.4293708e-12 1.0034912e-05 -1.6121764e-09 -1.267003e-07 -1.7531696e-12 2.7899005e-12 
6.3583959e-12 1.0041226e-05 -1.6145039e-09 -1.2677478e-07 -1.7614122e-12 2.794768e-12 
6.2871636e-12 1.0047521e-05 -1.6168254e-09 -1.2684904e-07 -1.7696589e-12 2.799707e-12 
6.2156697e-12 1.0053799e-05 -1.6191414e-09 -1.2692309e-07 -1.7778998e-12 2.8046974e-12 
6.1548858e-12 1.0060058e-05 -1.6213743e-09 -1.2699691e-07 -1.7827123e-12 2.8087418e-12 
6.1107074e-12  1.00663e-05 -1.6235756e-09 -1.2707052e-07 -1.78589e-12 2.8113887e-12 
6.0784977e-12 1.0072523e-05 -1.6257596e-09 -1.2714392e-07 -1.7883738e-12 2.8133652e-12 
6.0528008e-12 1.0078729e-05 -1.6279342e-09 -1.272171e-07 -1.7904158e-12 2.8149223e-12 
6.0321969e-12 1.0084917e-05 -1.6300998e-09 -1.2729008e-07 -1.7921576e-12 2.8161963e-12 
6.0153432e-12 1.0091087e-05 -1.6322588e-09 -1.2736284e-07 -1.7936879e-12 2.8172718e-12 
6.0013319e-12 1.009724e-05 -1.6344129e-09 -1.2743539e-07 -1.7950657e-12 2.8182042e-12 
5.9896156e-12 1.0103374e-05 -1.6365629e-09 -1.2750773e-07 -1.7963313e-12 2.8190308e-12 
5.9797647e-12 1.0109492e-05 -1.6387096e-09 -1.2757987e-07 -1.7975132e-12 2.8197775e-12 
5.9714952e-12 1.0115591e-05 -1.6408534e-09 -1.2765179e-07 -1.7986318e-12 2.8204625e-12 
5.9645455e-12 1.0121673e-05 -1.6429947e-09 -1.2772351e-07 -1.799702e-12 2.8210996e-12 
5.9587167e-12 1.0127738e-05 -1.6451337e-09 -1.2779502e-07 -1.800735e-12 2.8216989e-12 
5.9538284e-12 1.0133785e-05 -1.6472708e-09 -1.2786633e-07 -1.8017393e-12 2.8222672e-12 
5.9496721e-12 1.0139815e-05 -1.6494061e-09 -1.2793743e-07 -1.8027205e-12 2.8228105e-12 
5.9461742e-12 1.0145827e-05 -1.65154e-09 -1.2800832e-07 -1.8036835e-12 2.8233326e-12 
5.9433484e-12 1.0151823e-05 -1.6536725e-09 -1.2807901e-07 -1.8046314e-12 2.8238373e-12 
5.9411839e-12 1.0157801e-05 -1.6558039e-09 -1.281495e-07 -1.8055678e-12 2.8243268e-12 
5.9395974e-12 1.0163761e-05 -1.6579341e-09 -1.2821978e-07 -1.8064943e-12 2.824803e-12 
5.9384946e-12 1.0169705e-05 -1.6600632e-09 -1.2828986e-07 -1.8074128e-12 2.8252676e-12 
5.9378122e-12 1.0175632e-05 -1.6621911e-09 -1.2835974e-07 -1.8083241e-12 2.8257217e-12 
5.9374946e-12 1.0181541e-05 -1.6643177e-09 -1.2842942e-07 -1.8092293e-12 2.8261664e-12 
5.9375398e-12 1.0187434e-05 -1.6664432e-09 -1.284989e-07 -1.8101295e-12 2.8266026e-12 
5.9379307e-12 1.019331e-05 -1.6685674e-09 -1.2856817e-07 -1.811025e-12 2.8270309e-12 
5.9386449e-12 1.0199168e-05 -1.6706906e-09 -1.2863725e-07 -1.8119161e-12 2.827452e-12 
5.9396708e-12 1.020501e-05 -1.6728129e-09 -1.2870612e-07 -1.8128037e-12 2.827866e-12 
5.9409239e-12 1.0210835e-05 -1.6749344e-09 -1.287748e-07 -1.8136874e-12 2.8282733e-12 
5.9423912e-12 1.0216644e-05 -1.6770553e-09 -1.2884328e-07 -1.8145677e-12 2.8286744e-12 
5.9440406e-12 1.0222435e-05 -1.6791755e-09 -1.2891156e-07 -1.8154449e-12 2.8290697e-12 
5.9458197e-12 1.0228211e-05 -1.681295e-09 -1.2897965e-07 -1.8163191e-12 2.829459e-12 
 5.94776e-12 1.0233969e-05 -1.6834138e-09 -1.2904754e-07 -1.8171903e-12 2.8298427e-12 
5.9498576e-12 1.0239711e-05 -1.6855317e-09 -1.2911523e-07 -1.8180587e-12 2.830221e-12 
5.9520945e-12 1.0245436e-05 -1.6876488e-09 -1.2918273e-07 -1.8189246e-12 2.830594e-12 
5.9545075e-12 1.0251145e-05 -1.689765e-09 -1.2925003e-07 -1.819788e-12 2.8309614e-12 
5.9571103e-12 1.0256838e-05 -1.6918803e-09 -1.2931714e-07 -1.8206488e-12 2.8313239e-12 
5.9599057e-12 1.0262514e-05 -1.6939948e-09 -1.2938405e-07 -1.8215073e-12 2.8316812e-12 
5.9628589e-12 1.0268173e-05 -1.6961084e-09 -1.2945078e-07 -1.8223634e-12 2.8320335e-12 
5.9659594e-12 1.0273817e-05 -1.698221e-09 -1.295173e-07 -1.8232167e-12 2.8323809e-12 
5.9691619e-12 1.0279444e-05 -1.7003329e-09 -1.2958364e-07 -1.824068e-12 2.8327233e-12 
5.9724351e-12 1.0285055e-05 -1.7024438e-09 -1.2964979e-07 -1.8249164e-12 2.8330608e-12 
5.9757761e-12 1.029065e-05 -1.7045539e-09 -1.2971574e-07 -1.8257626e-12 2.8333937e-12 
5.9791739e-12 1.0296229e-05 -1.7066632e-09 -1.2978151e-07 -1.8266061e-12 2.8337219e-12 
5.9826248e-12 1.0301792e-05 -1.7087717e-09 -1.2984708e-07 -1.8274473e-12 2.8340455e-12 
5.9861468e-12 1.0307339e-05 -1.7108794e-09 -1.2991247e-07 -1.8282861e-12 2.8343644e-12 
5.9897464e-12 1.0312869e-05 -1.7129863e-09 -1.2997766e-07 -1.8291224e-12 2.8346785e-12 
5.9934566e-12 1.0318384e-05 -1.7150924e-09 -1.3004267e-07 -1.8299565e-12 2.834988e-12 
5.9972471e-12 1.0323883e-05 -1.7171976e-09 -1.3010749e-07 -1.8307886e-12 2.8352929e-12 
6.0011402e-12 1.0329367e-05 -1.7193018e-09 -1.3017212e-07 -1.8316183e-12 2.8355932e-12 
6.005111e-12 1.0334834e-05 -1.7214051e-09 -1.3023657e-07 -1.8324458e-12 2.835889e-12 
6.0088756e-12 1.0340286e-05 -1.7235069e-09 -1.3030083e-07 -1.8333166e-12 2.8358964e-12 
6.0119682e-12 1.0345722e-05 -1.725607e-09 -1.3036491e-07 -1.8342555e-12 2.8348242e-12 
6.0152176e-12 1.0351142e-05 -1.7277058e-09 -1.304288e-07 -1.8352087e-12 2.833155e-12 
6.018468e-12 1.0356547e-05 -1.7298036e-09 -1.3049251e-07 -1.8361694e-12 2.8311184e-12 
6.0217241e-12 1.0361936e-05 -1.7319005e-09 -1.3055603e-07 -1.8371349e-12 2.8288398e-12 
6.0250313e-12 1.036731e-05 -1.7339965e-09 -1.3061937e-07 -1.8381035e-12 2.8263935e-12 
6.0283922e-12 1.0372668e-05 -1.7360916e-09 -1.3068252e-07 -1.8390743e-12 2.8238265e-12 
6.0317717e-12 1.037801e-05 -1.738186e-09 -1.307455e-07 -1.8400461e-12 2.8211699e-12 
6.0351758e-12 1.0383338e-05 -1.7402795e-09 -1.3080829e-07 -1.8410189e-12 2.8184448e-12 
6.0386045e-12 1.038865e-05 -1.7423724e-09 -1.308709e-07 -1.8419919e-12 2.8156663e-12 
6.0420451e-12 1.0393947e-05 -1.7444643e-09 -1.3093333e-07 -1.8429648e-12 2.8128448e-12 
6.0455341e-12 1.0399228e-05 -1.7465555e-09 -1.3099558e-07 -1.8439379e-12 2.8099885e-12 
6.0490166e-12 1.0404494e-05 -1.7486458e-09 -1.3105765e-07 -1.8449104e-12 2.8071025e-12 
6.0525352e-12 1.0409745e-05 -1.7507352e-09 -1.3111954e-07 -1.8458824e-12 2.8041919e-12 
6.0560964e-12 1.0414981e-05 -1.7528237e-09 -1.3118125e-07 -1.8468535e-12 2.8012592e-12 
6.059673e-12 1.0420202e-05 -1.7549114e-09 -1.3124278e-07 -1.847824e-12 2.7983076e-12 
6.0632719e-12 1.0425408e-05 -1.7569982e-09 -1.3130414e-07 -1.8487939e-12 2.7953386e-12 
6.0668888e-12 1.0430599e-05 -1.7590841e-09 -1.3136532e-07 -1.8497629e-12 2.7923538e-12 
6.0705312e-12 1.0435775e-05 -1.761169e-09 -1.3142632e-07 -1.850731e-12 2.7893544e-12 
6.0741917e-12 1.0440936e-05 -1.763253e-09 -1.3148714e-07 -1.8516981e-12 2.7863414e-12 
6.0778575e-12 1.0446082e-05 -1.7653362e-09 -1.3154779e-07 -1.8526643e-12 2.7833156e-12 
6.0815383e-12 1.0451213e-05 -1.7674185e-09 -1.3160827e-07 -1.8536297e-12 2.7802779e-12 
6.0852187e-12 1.045633e-05 -1.7695001e-09 -1.3166857e-07 -1.8545941e-12 2.7772284e-12 
6.0889129e-12 1.0461432e-05 -1.7715807e-09 -1.3172869e-07 -1.8555572e-12 2.7741677e-12 
6.0926183e-12 1.0466519e-05 -1.7736605e-09 -1.3178864e-07 -1.8565193e-12 2.771096e-12 
6.0963284e-12 1.0471591e-05 -1.7757394e-09 -1.3184842e-07 -1.8574805e-12 2.7680142e-12 
6.1000561e-12 1.0476649e-05 -1.7778174e-09 -1.3190803e-07 -1.8584404e-12 2.764922e-12 
6.1037891e-12 1.0481692e-05 -1.7798945e-09 -1.3196746e-07 -1.8593996e-12 2.7618197e-12 
6.1075402e-12 1.0486721e-05 -1.7819706e-09 -1.3202672e-07 -1.8603577e-12 2.7587078e-12 
6.1112963e-12 1.0491735e-05 -1.7840459e-09 -1.3208581e-07 -1.8613148e-12 2.755586e-12 
6.115089e-12 1.0496735e-05 -1.7861202e-09 -1.3214473e-07 -1.8622707e-12 2.7524545e-12 
6.1188726e-12 1.050172e-05 -1.7881937e-09 -1.3220348e-07 -1.8632258e-12 2.7493137e-12 
[...]
-3.3440696e-11 1.222119e-05 5.7953305e-09 -1.5252966e-07 -1.9399854e-11 -4.9139377e-12 
-3.3440381e-11 1.222119e-05 5.7963114e-09 -1.5252965e-07 -1.9399028e-11 -4.9149612e-12 
-3.3440027e-11 1.222119e-05 5.7972917e-09 -1.5252963e-07 -1.9398203e-11 -4.915984e-12 
-3.3439652e-11 1.222119e-05 5.7982714e-09 -1.5252962e-07 -1.9397377e-11 -4.9170061e-12 
-3.3439249e-11 1.222119e-05 5.7992505e-09 -1.5252961e-07 -1.9396552e-11 -4.9180276e-12 
-3.3438794e-11 1.222119e-05 5.800229e-09 -1.525296e-07 -1.9395727e-11 -4.9190484e-12 
-3.3438295e-11 1.222119e-05 5.8012069e-09 -1.5252959e-07 -1.9394903e-11 -4.9200688e-12 
-3.3437751e-11 1.2221191e-05 5.8021842e-09 -1.5252958e-07 -1.9394079e-11 -4.9210887e-12 
-3.3437151e-11 1.2221191e-05 5.803161e-09 -1.5252957e-07 -1.9393255e-11 -4.9221079e-12 
-3.3436526e-11 1.2221191e-05 5.8041371e-09 -1.5252956e-07 -1.9392431e-11 -4.9231268e-12 
-3.3435857e-11 1.2221191e-05 5.8051127e-09 -1.5252955e-07 -1.9391608e-11 -4.9241454e-12 
-3.3435166e-11 1.2221191e-05 5.8060876e-09 -1.5252954e-07 -1.9390785e-11 -4.9251636e-12 
-3.343445e-11 1.2221191e-05 5.8070619e-09 -1.5252954e-07 -1.9389962e-11 -4.9261816e-12 
-3.3433724e-11 1.2221191e-05 5.8080357e-09 -1.5252953e-07 -1.938914e-11 -4.9271991e-12 
-3.3432981e-11 1.2221191e-05 5.8090088e-09 -1.5252952e-07 -1.9388317e-11 -4.928216e-12 
-3.3432194e-11 1.2221191e-05 5.8099813e-09 -1.5252951e-07 -1.9387495e-11 -4.929233e-12 
-3.3431401e-11 1.2221191e-05 5.8109532e-09 -1.5252951e-07 -1.9386673e-11 -4.9302495e-12 
-3.3430585e-11 1.2221191e-05 5.8119245e-09 -1.525295e-07 -1.9385851e-11 -4.931266e-12 
-3.3429738e-11 1.2221192e-05 5.8128952e-09 -1.5252949e-07 -1.938503e-11 -4.9322821e-12 
-3.3428873e-11 1.2221192e-05 5.8138653e-09 -1.5252949e-07 -1.9384209e-11 -4.9332981e-12 
-3.3427985e-11 1.2221192e-05 5.8148348e-09 -1.5252948e-07 -1.9383388e-11 -4.9343141e-12 
-3.3427081e-11 1.2221192e-05 5.8158037e-09 -1.5252948e-07 -1.9382567e-11 -4.9353298e-12 
-3.3426166e-11 1.2221192e-05 5.8167719e-09 -1.5252947e-07 -1.9381747e-11 -4.9363454e-12 
-3.3425224e-11 1.2221192e-05 5.8177395e-09 -1.5252947e-07 -1.9380927e-11 -4.9373608e-12 
-3.3396908e-11 1.2221192e-05 5.8187071e-09 -1.5252947e-07 -1.9378128e-11 -4.9373209e-12 
-3.3337825e-11 1.2221192e-05 5.8196767e-09 -1.5252946e-07 -1.9373314e-11 -4.9350563e-12 
-3.32686e-11 1.2221192e-05 5.8206391e-09 -1.5252946e-07 -1.9367701e-11 -4.9316966e-12 
-3.3193647e-11 1.2221192e-05 5.8215979e-09 -1.5252946e-07 -1.9361588e-11 -4.9276616e-12 
-3.3114612e-11 1.2221193e-05 5.8225538e-09 -1.5252946e-07 -1.9355141e-11 -4.9231791e-12 
-3.3032239e-11 1.2221193e-05 5.8235079e-09 -1.5252945e-07 -1.9348463e-11 -4.9183884e-12 
-3.2947359e-11 1.2221193e-05 5.8244608e-09 -1.5252945e-07 -1.9341619e-11 -4.9133792e-12 
-3.2860531e-11 1.2221193e-05 5.8254125e-09 -1.5252945e-07 -1.9334657e-11 -4.9082119e-12 
-3.2772134e-11 1.2221193e-05 5.826363e-09 -1.5252945e-07 -1.9327607e-11 -4.9029279e-12 
-3.2682417e-11 1.2221193e-05 5.8273124e-09 -1.5252945e-07 -1.9320492e-11 -4.8975571e-12 
-3.2591589e-11 1.2221193e-05 5.8282609e-09 -1.5252945e-07 -1.9313329e-11 -4.8921208e-12 
-3.2499873e-11 1.2221193e-05 5.8292085e-09 -1.5252945e-07 -1.9306129e-11 -4.8866341e-12 
-3.240747e-11 1.2221193e-05 5.8301554e-09 -1.5252945e-07 -1.92989e-11 -4.8811087e-12 
-3.2314471e-11 1.2221194e-05 5.8311016e-09 -1.5252945e-07 -1.929165e-11 -4.8755534e-12 
-3.2220839e-11 1.2221194e-05 5.8320471e-09 -1.5252945e-07 -1.9284384e-11 -4.8699744e-12 
-3.2126568e-11 1.2221194e-05 5.8329919e-09 -1.5252946e-07 -1.9277105e-11 -4.8643769e-12 
-3.2031745e-11 1.2221194e-05 5.833936e-09 -1.5252946e-07 -1.9269815e-11 -4.8587649e-12 
-3.1936484e-11 1.2221194e-05 5.8348795e-09 -1.5252946e-07 -1.9262518e-11 -4.8531413e-12 
-3.1840883e-11 1.2221194e-05 5.8358225e-09 -1.5252946e-07 -1.9255214e-11 -4.8475083e-12 
-3.1745025e-11 1.2221194e-05 5.8367649e-09 -1.5252947e-07 -1.9247906e-11 -4.8418679e-12 
-3.1648874e-11 1.2221194e-05 5.8377066e-09 -1.5252947e-07 -1.9240593e-11 -4.8362217e-12 
-3.1552416e-11 1.2221195e-05 5.8386478e-09 -1.5252948e-07 -1.9233276e-11 -4.8305707e-12 
-3.145567e-11 1.2221195e-05 5.8395884e-09 -1.5252948e-07 -1.9225957e-11 -4.8249158e-12 
-3.135869e-11 1.2221195e-05 5.8405285e-09 -1.5252949e-07 -1.9218636e-11 -4.8192576e-12 
-3.126153e-11 1.2221195e-05 5.8414679e-09 -1.5252949e-07 -1.9211312e-11 -4.8135974e-12 
-3.116422e-11 1.2221195e-05 5.8424069e-09 -1.525295e-07 -1.9203987e-11 -4.8079351e-12 
-3.1066816e-11 1.2221195e-05 5.8433452e-09 -1.525295e-07 -1.9196661e-11 -4.8022712e-12 
-3.0969311e-11 1.2221195e-05 5.844283e-09 -1.5252951e-07 -1.9189333e-11 -4.7966061e-12 
-3.0871715e-11 1.2221195e-05 5.8452202e-09 -1.5252952e-07 -1.9182004e-11 -4.7909401e-12 
-3.0774016e-11 1.2221196e-05 5.8461568e-09 -1.5252952e-07 -1.9174675e-11 -4.7852733e-12 
-3.0676193e-11 1.2221196e-05 5.8470927e-09 -1.5252953e-07 -1.9167344e-11 -4.7796061e-12 
-3.0578228e-11 1.2221196e-05 5.848028e-09 -1.5252954e-07 -1.9160014e-11 -4.7739384e-12 
-3.0480097e-11 1.2221196e-05 5.8489626e-09 -1.5252955e-07 -1.9152682e-11 -4.7682703e-12 
-3.0381812e-11 1.2221196e-05 5.8498966e-09 -1.5252955e-07 -1.914535e-11 -4.7626021e-12 
-3.0283412e-11 1.2221196e-05 5.8508299e-09 -1.5252956e-07 -1.9138017e-11 -4.7569338e-12 
-3.0185259e-11 1.2221196e-05 5.8517621e-09 -1.5252957e-07 -1.9130621e-11 -4.7512945e-12 
-3.0100293e-11 1.2221196e-05 5.8526812e-09 -1.5252958e-07 -1.9121545e-11 -4.7470396e-12 
-3.0022188e-11 1.2221197e-05 5.8535934e-09 -1.5252959e-07 -1.911171e-11 -4.7438756e-12 
-2.9947049e-11 1.2221197e-05 5.8545006e-09 -1.525296e-07 -1.9101442e-11 -4.7413451e-12 
-2.9873375e-11 1.2221197e-05 5.8554045e-09 -1.5252962e-07 -1.9090896e-11 -4.7392202e-12 
-2.9800893e-11 1.2221197e-05 5.856306e-09 -1.5252963e-07 -1.908016e-11 -4.7373683e-12 
-2.9729369e-11 1.2221197e-05 5.8572053e-09 -1.5252964e-07 -1.9069289e-11 -4.7357067e-12 
-2.9658496e-11 1.2221197e-05 5.8581027e-09 -1.5252965e-07 -1.9058319e-11 -4.7341814e-12 
-2.9588116e-11 1.2221197e-05 5.8589984e-09 -1.5252966e-07 -1.9047274e-11 -4.7327562e-12 
-2.9518112e-11 1.2221197e-05 5.8598925e-09 -1.5252968e-07 -1.9036172e-11 -4.7314061e-12 
-2.9448404e-11 1.2221197e-05 5.8607852e-09 -1.5252969e-07 -1.9025025e-11 -4.7301121e-12 
-2.9378939e-11 1.2221198e-05 5.8616768e-09 -1.525297e-07 -1.9013843e-11 -4.7288618e-12 
-2.9309654e-11 1.2221198e-05 5.8625672e-09 -1.5252972e-07 -1.9002632e-11 -4.7276454e-12 
-2.9240524e-11 1.2221198e-05 5.8634565e-09 -1.5252973e-07 -1.8991398e-11 -4.7264558e-12 
-2.9171552e-11 1.2221198e-05 5.8643448e-09 -1.5252975e-07 -1.8980145e-11 -4.7252878e-12 
-2.9102771e-11 1.2221198e-05 5.8652321e-09 -1.5252976e-07 -1.8968876e-11 -4.7241367e-12 
-2.9034136e-11 1.2221198e-05 5.8661185e-09 -1.5252978e-07 -1.8957594e-11 -4.7229997e-12 
-2.8965593e-11 1.2221198e-05 5.867004e-09 -1.525298e-07 -1.89463e-11 -4.7218742e-12 
-2.8897111e-11 1.2221198e-05 5.8678885e-09 -1.5252981e-07 -1.8934996e-11 -4.7207586e-12 
-2.8828667e-11 1.2221198e-05 5.8687722e-09 -1.5252983e-07 -1.8923684e-11 -4.7196508e-12 
-2.8760252e-11 1.2221198e-05 5.8696551e-09 -1.5252985e-07 -1.8912365e-11 -4.7185496e-12 
-2.86919e-11 1.2221199e-05 5.8705371e-09 -1.5252986e-07 -1.8901038e-11 -4.7174541e-12 
-2.8623613e-11 1.2221199e-05 5.8714183e-09 -1.5252988e-07 -1.8889707e-11 -4.7163639e-12 
-2.8555352e-11 1.2221199e-05 5.8722988e-09 -1.525299e-07 -1.887837e-11 -4.7152779e-12 
-2.8487123e-11 1.2221199e-05 5.8731784e-09 -1.5252992e-07 -1.8867028e-11 -4.7141955e-12 
-2.8418886e-11 1.2221199e-05 5.8740573e-09 -1.5252994e-07 -1.8855682e-11 -4.7131165e-12 
-2.8350626e-11 1.2221199e-05 5.8749354e-09 -1.5252996e-07 -1.8844332e-11 -4.7120401e-12 
-2.8282358e-11 1.2221199e-05 5.8758128e-09 -1.5252998e-07 -1.8832978e-11 -4.7109664e-12 
-2.8214091e-11 1.2221199e-05 5.8766894e-09  -1.5253e-07 -1.8821622e-11 -4.709895e-12 
-2.8145792e-11 1.2221199e-05 5.8775654e-09 -1.5253002e-07 -1.8810261e-11 -4.7088255e-12 
-2.807748e-11  1.22212e-05 5.8784407e-09 -1.5253004e-07 -1.8798898e-11 -4.7077579e-12 
-2.8009183e-11  1.22212e-05 5.8793153e-09 -1.5253006e-07 -1.8787532e-11 -4.7066922e-12 
-2.7940899e-11  1.22212e-05 5.8801893e-09 -1.5253008e-07 -1.8776162e-11 -4.7056277e-12 
-2.7872634e-11  1.22212e-05 5.8810626e-09 -1.525301e-07 -1.876479e-11 -4.7045649e-12 
-2.7804394e-11  1.22212e-05 5.8819353e-09 -1.5253013e-07 -1.8753416e-11 -4.7035033e-12 
-2.773617e-11  1.22212e-05 5.8828074e-09 -1.5253015e-07 -1.8742039e-11 -4.7024428e-12 
-2.7667937e-11  1.22212e-05 5.8836788e-09 -1.5253017e-07 -1.8730659e-11 -4.7013835e-12 
-2.7599656e-11  1.22212e-05 5.8845495e-09 -1.525302e-07 -1.8719277e-11 -4.7003252e-12 
-2.753135e-11  1.22212e-05 5.8854196e-09 -1.5253022e-07 -1.8707893e-11 -4.6992677e-12 
-2.746302e-11 1.2221201e-05 5.886289e-09 -1.5253024e-07 -1.8696507e-11 -4.698211e-12 
-2.7394656e-11 1.2221201e-05 5.8871578e-09 -1.5253027e-07 -1.8685119e-11 -4.6971556e-12 
-2.7326263e-11 1.2221201e-05 5.888026e-09 -1.5253029e-07 -1.8673728e-11 -4.6961007e-12 
-2.7257867e-11 1.2221201e-05 5.8888936e-09 -1.5253032e-07 -1.8662335e-11 -4.6950466e-12 
-2.7189469e-11 1.2221201e-05 5.8897605e-09 -1.5253034e-07 -1.865094e-11 -4.6939935e-12 
-2.7121067e-11 1.2221201e-05 5.8906268e-09 -1.5253037e-07 -1.8639543e-11 -4.6929407e-12 
-2.7052645e-11 1.2221201e-05 5.8914924e-09 -1.525304e-07 -1.8628143e-11 -4.6918887e-12 
-2.6984226e-11 1.2221201e-05 5.8923574e-09 -1.5253042e-07 -1.8616742e-11 -4.6908372e-12 
-2.69158e-11 1.2221202e-05 5.8932217e-09 -1.5253045e-07 -1.8605339e-11 -4.6897865e-12 
-2.6847358e-11 1.2221202e-05 5.8940854e-09 -1.5253048e-07 -1.8593933e-11 -4.6887363e-12 
-2.6778898e-11 1.2221202e-05 5.8949484e-09 -1.5253051e-07 -1.8582526e-11 -4.6876865e-12 
-2.6710416e-11 1.2221202e-05 5.8958108e-09 -1.5253053e-07 -1.8571116e-11 -4.6866375e-12 
-2.6641911e-11 1.2221202e-05 5.8966724e-09 -1.5253056e-07 -1.8559705e-11 -4.6855887e-12 
-2.6573403e-11 1.2221202e-05 5.8975335e-09 -1.5253059e-07 -1.8548292e-11 -4.6845405e-12 
-2.6504895e-11 1.2221202e-05 5.8983938e-09 -1.5253062e-07 -1.8536876e-11 -4.6834926e-12 
-2.6436362e-11 1.2221202e-05 5.8992535e-09 -1.5253065e-07 -1.8525459e-11 -4.6824452e-12 
-2.6367813e-11 1.2221203e-05 5.9001126e-09 -1.5253068e-07 -1.8514039e-11 -4.6813983e-12 
-2.6299246e-11 1.2221203e-05 5.900971e-09 -1.5253071e-07 -1.8502618e-11 -4.6803523e-12 
-2.6230657e-11 1.2221203e-05 5.9018288e-09 -1.5253074e-07 -1.8491194e-11 -4.6793062e-12 
-2.6162058e-11 1.2221203e-05 5.902686e-09 -1.5253077e-07 -1.8479769e-11 -4.6782606e-12 
-2.609343e-11 1.2221203e-05 5.9035426e-09 -1.5253081e-07 -1.8468342e-11 -4.6772155e-12 
-2.6024778e-11 1.2221203e-05 5.9043985e-09 -1.5253084e-07 -1.8456913e-11 -4.6761706e-12 
-2.5956125e-11 1.2221203e-05 5.9052538e-09 -1.5253087e-07 -1.8445482e-11 -4.6751263e-12 
-2.5887466e-11 1.2221203e-05 5.9061086e-09 -1.525309e-07 -1.843405e-11 -4.6740823e-12 
-2.5818802e-11 1.2221204e-05 5.9069627e-09 -1.5253094e-07 -1.8422615e-11 -4.6730389e-12 
-2.5750133e-11 1.2221204e-05 5.9078163e-09 -1.5253097e-07 -1.8411178e-11 -4.6719956e-12 
-2.568146e-11 1.2221204e-05 5.9086692e-09 -1.52531e-07 -1.8399739e-11 -4.6709527e-12 
-2.5612777e-11 1.2221204e-05 5.9095216e-09 -1.5253104e-07 -1.8388299e-11 -4.6699101e-12 
-2.5544066e-11 1.2221204e-05 5.9103733e-09 -1.5253107e-07 -1.8376856e-11 -4.6688679e-12 
-2.5475343e-11 1.2221204e-05 5.9112244e-09 -1.5253111e-07 -1.8365412e-11 -4.667826e-12 
-2.54066e-11 1.2221204e-05 5.9120749e-09 -1.5253114e-07 -1.8353966e-11 -4.6667843e-12 
-2.533784e-11 1.2221204e-05 5.9129247e-09 -1.5253118e-07 -1.8342518e-11 -4.6657431e-12 
-2.5269043e-11 1.2221205e-05 5.913774e-09 -1.5253121e-07 -1.8331068e-11 -4.6647023e-12 
-2.5200261e-11 1.2221205e-05 5.9146226e-09 -1.5253125e-07 -1.8319616e-11 -4.6636617e-12 
-2.5131451e-11 1.2221205e-05 5.9154706e-09 -1.5253129e-07 -1.8308162e-11 -4.6626214e-12 
-2.5062635e-11 1.2221205e-05 5.916318e-09 -1.5253132e-07 -1.8296707e-11 -4.6615813e-12 
-2.4993808e-11 1.2221205e-05 5.9171647e-09 -1.5253136e-07 -1.8285249e-11 -4.6605417e-12 
-2.4924976e-11 1.2221205e-05 5.9180108e-09 -1.525314e-07 -1.8273789e-11 -4.6595023e-12 
-2.4856145e-11 1.2221205e-05 5.9188563e-09 -1.5253144e-07 -1.8262328e-11 -4.6584632e-12 
-2.4787289e-11 1.2221206e-05 5.9197011e-09 -1.5253148e-07 -1.8250865e-11 -4.6574243e-12 
-2.4718426e-11 1.2221206e-05 5.9205453e-09 -1.5253152e-07 -1.82394e-11 -4.6563857e-12 
-2.4649574e-11 1.2221206e-05 5.9213888e-09 -1.5253156e-07 -1.8227933e-11 -4.6553475e-12 
-2.4580704e-11 1.2221206e-05 5.9222316e-09 -1.525316e-07 -1.8216464e-11 -4.6543094e-12 
-2.4511806e-11 1.2221206e-05 5.9230739e-09 -1.5253164e-07 -1.8204993e-11 -4.6532716e-12 
-2.4442886e-11 1.2221206e-05 5.9239154e-09 -1.5253168e-07 -1.819352e-11 -4.6522343e-12 
-2.4373981e-11 1.2221206e-05 5.9247564e-09 -1.5253172e-07 -1.8182046e-11 -4.6511971e-12 
-2.430505e-11 1.2221207e-05 5.9255968e-09 -1.5253176e-07 -1.8170569e-11 -4.6501601e-12 
-2.4236097e-11 1.2221207e-05 5.9264365e-09 -1.525318e-07 -1.8159091e-11 -4.6491233e-12 
-2.4167123e-11 1.2221207e-05 5.9272756e-09 -1.5253184e-07 -1.8147611e-11 -4.6480868e-12 
-2.4098149e-11 1.2221207e-05 5.9281142e-09 -1.5253188e-07 -1.8136129e-11 -4.6470508e-12 
-2.4029158e-11 1.2221207e-05 5.9289521e-09 -1.5253193e-07 -1.8124645e-11 -4.6460148e-12 
-2.3960177e-11 1.2221207e-05 5.9297894e-09 -1.5253197e-07 -1.8113159e-11 -4.6449792e-12 
-2.3891181e-11 1.2221207e-05 5.9306261e-09 -1.5253201e-07 -1.8101671e-11 -4.6439436e-12 
-2.3822178e-11 1.2221208e-05 5.9314623e-09 -1.5253206e-07 -1.8090181e-11 -4.6429084e-12 
-2.3753168e-11 1.2221208e-05 5.9322978e-09 -1.525321e-07 -1.807869e-11 -4.6418734e-12 
-2.3684153e-11 1.2221208e-05 5.9331328e-09 -1.5253215e-07 -1.8067197e-11 -4.6408387e-12 
-2.3619455e-11 1.2221208e-05 5.9339652e-09 -1.5253219e-07 -1.8056094e-11 -4.6398893e-12 
-2.3597522e-11 1.2221208e-05 5.9348033e-09 -1.5253224e-07 -1.8047863e-11 -4.6411114e-12 
-2.3592054e-11 1.2221208e-05 5.9356352e-09 -1.5253228e-07 -1.8040829e-11 -4.6439501e-12 
-2.3594721e-11 1.2221208e-05 5.9364623e-09 -1.5253233e-07 -1.8034444e-11 -4.6476709e-12 
-2.3602143e-11 1.2221209e-05 5.9372859e-09 -1.5253237e-07 -1.802848e-11 -4.6519582e-12 
-2.3613368e-11 1.2221209e-05 5.9381072e-09 -1.5253242e-07 -1.8022801e-11 -4.6566283e-12 
-2.3627593e-11 1.2221209e-05 5.938927e-09 -1.5253247e-07 -1.8017322e-11 -4.6615658e-12 
-2.3644053e-11 1.2221209e-05 5.9397456e-09 -1.5253251e-07 -1.8011986e-11 -4.6666948e-12 
-2.3662314e-11 1.2221209e-05 5.940563e-09 -1.5253256e-07 -1.8006753e-11 -4.6719636e-12 
-2.3682045e-11 1.2221209e-05 5.9413792e-09 -1.5253261e-07 -1.8001597e-11 -4.6773361e-12 
-2.3703004e-11 1.222121e-05 5.9421943e-09 -1.5253266e-07 -1.7996496e-11 -4.6827868e-12 
-2.3724959e-11 1.222121e-05 5.9430084e-09 -1.5253271e-07 -1.7991438e-11 -4.6882969e-12 
-2.3746059e-11 1.222121e-05 5.9437899e-09 -1.5253276e-07 -1.7983633e-11 -4.6937173e-12 
-2.3761035e-11 1.222121e-05 5.9444907e-09 -1.525328e-07 -1.7968218e-11 -4.6983577e-12 
-2.3768492e-11 1.222121e-05 5.9451514e-09 -1.5253284e-07 -1.7950256e-11 -4.702578e-12 
-2.3771439e-11 1.222121e-05 5.9457924e-09 -1.5253288e-07 -1.7930856e-11 -4.7065627e-12 
-2.3769971e-11 1.2221211e-05 5.9464195e-09 -1.5253293e-07 -1.7910521e-11 -4.710397e-12 
-2.3765622e-11 1.2221211e-05 5.9470373e-09 -1.5253297e-07 -1.788954e-11 -4.7141302e-12 
-2.3759531e-11 1.2221211e-05 5.9476486e-09 -1.5253301e-07 -1.7868096e-11 -4.7177931e-12 
-2.3751956e-11 1.2221211e-05 5.9482542e-09 -1.5253305e-07 -1.7846315e-11 -4.7214061e-12 
-2.3743094e-11 1.2221211e-05 5.9488553e-09 -1.5253309e-07 -1.7824281e-11 -4.7249831e-12 
-2.3733173e-11 1.2221211e-05 5.9494528e-09 -1.5253313e-07 -1.7802055e-11 -4.7285335e-12 
-2.3722384e-11 1.2221212e-05 5.9500473e-09 -1.5253317e-07 -1.7779682e-11 -4.7320641e-12 
-2.371082e-11 1.2221212e-05 5.9506392e-09 -1.5253322e-07 -1.7757193e-11 -4.7355798e-12 
-2.3698587e-11 1.2221212e-05 5.9512291e-09 -1.5253326e-07 -1.7734613e-11 -4.7390841e-12 
-2.3685733e-11 1.2221212e-05 5.9518172e-09 -1.525333e-07 -1.7711961e-11 -4.7425793e-12 
-2.3672358e-11 1.2221212e-05 5.9524037e-09 -1.5253335e-07 -1.7689251e-11 -4.7460677e-12 
-2.365845e-11 1.2221213e-05 5.9529888e-09 -1.5253339e-07 -1.7666494e-11 -4.7495506e-12 
-2.3643933e-11 1.2221213e-05 5.9535728e-09 -1.5253343e-07 -1.7643699e-11 -4.7530292e-12 
-2.3628772e-11 1.2221213e-05 5.9541556e-09 -1.5253348e-07 -1.7620873e-11 -4.756504e-12 
-2.3613031e-11 1.2221213e-05 5.9547373e-09 -1.5253352e-07 -1.7598021e-11 -4.7599762e-12 
-2.3596825e-11 1.2221213e-05 5.955318e-09 -1.5253357e-07 -1.7575147e-11 -4.7634459e-12 
-2.3580301e-11 1.2221213e-05 5.9558977e-09 -1.5253361e-07 -1.7552254e-11 -4.7669136e-12 
-2.3563472e-11 1.2221214e-05 5.9564765e-09 -1.5253366e-07 -1.7529346e-11 -4.7703798e-12 
-2.3546337e-11 1.2221214e-05 5.9570544e-09 -1.525337e-07 -1.7506424e-11 -4.7738448e-12 
-2.3528815e-11 1.2221214e-05 5.9576314e-09 -1.5253375e-07 -1.748349e-11 -4.7773085e-12 
-2.351089e-11 1.2221214e-05 5.9582077e-09 -1.525338e-07 -1.7460546e-11 -4.7807714e-12 
-2.3492546e-11 1.2221214e-05 5.9587833e-09 -1.5253384e-07 -1.7437593e-11 -4.7842335e-12 
-2.3473784e-11 1.2221215e-05 5.9593582e-09 -1.5253389e-07 -1.7414632e-11 -4.7876949e-12 
-2.3454687e-11 1.2221215e-05 5.9599326e-09 -1.5253394e-07 -1.7391664e-11 -4.7911556e-12 
-2.3435296e-11 1.2221215e-05 5.9605063e-09 -1.5253399e-07 -1.736869e-11 -4.794616e-12 
-2.3415639e-11 1.2221215e-05 5.9610795e-09 -1.5253404e-07 -1.7345709e-11 -4.7980758e-12 
-2.3395726e-11 1.2221215e-05 5.961652e-09 -1.5253408e-07 -1.7322724e-11 -4.8015352e-12 
-2.33756e-11 1.2221215e-05 5.9622239e-09 -1.5253413e-07 -1.7299733e-11 -4.8049943e-12 
-2.3355278e-11 1.2221216e-05 5.962795e-09 -1.5253418e-07 -1.7276737e-11 -4.808453e-12 
-2.3334713e-11 1.2221216e-05 5.9633655e-09 -1.5253423e-07 -1.7253736e-11 -4.8119117e-12 
-2.3313843e-11 1.2221216e-05 5.9639353e-09 -1.5253428e-07 -1.7230731e-11 -4.81537e-12 
-2.3292631e-11 1.2221216e-05 5.9645043e-09 -1.5253433e-07 -1.7207723e-11 -4.8188279e-12 
-2.3271074e-11 1.2221216e-05 5.9650726e-09 -1.5253439e-07 -1.7184711e-11 -4.8222859e-12 
-2.3249209e-11 1.2221217e-05 5.9656404e-09 -1.5253444e-07 -1.7161695e-11 -4.8257437e-12 
-2.3227101e-11 1.2221217e-05 5.9662076e-09 -1.5253449e-07 -1.7138676e-11 -4.8292012e-12 
-2.3204833e-11 1.2221217e-05 5.9667743e-09 -1.5253454e-07 -1.7115653e-11 -4.8326584e-12 
-2.3182446e-11 1.2221217e-05 5.9673405e-09 -1.5253459e-07 -1.7092626e-11 -4.836116e-12 
-2.3159923e-11 1.2221217e-05 5.9679061e-09 -1.5253465e-07 -1.7069596e-11 -4.8395732e-12 
-2.3137252e-11 1.2221217e-05 5.9684712e-09 -1.525347e-07 -1.7046563e-11 -4.8430303e-12 
-2.3114372e-11 1.2221218e-05 5.9690355e-09 -1.5253475e-07 -1.7023527e-11 -4.8464875e-12 
-2.3091283e-11 1.2221218e-05 5.9695992e-09 -1.5253481e-07 -1.7000487e-11 -4.8499447e-12 
-2.3067952e-11 1.2221218e-05 5.9701623e-09 -1.5253486e-07 -1.6977445e-11 -4.8534017e-12 
-2.3044378e-11 1.2221218e-05 5.9707248e-09 -1.5253492e-07 -1.69544e-11 -4.8568589e-12 
-2.3020576e-11 1.2221218e-05 5.9712866e-09 -1.5253497e-07 -1.6931352e-11 -4.8603162e-12 
-2.2996595e-11 1.2221219e-05 5.9718478e-09 -1.5253503e-07 -1.6908301e-11 -4.8637733e-12 
-2.2972446e-11 1.2221219e-05 5.9724084e-09 -1.5253508e-07 -1.6885247e-11 -4.8672304e-12 
-2.294817e-11 1.2221219e-05 5.9729684e-09 -1.5253514e-07 -1.686219e-11 -4.8706877e-12 
-2.2923783e-11 1.2221219e-05 5.9735277e-09 -1.525352e-07 -1.6839131e-11 -4.8741448e-12 
-2.2899283e-11 1.2221219e-05 5.9740863e-09 -1.5253525e-07 -1.6816068e-11 -4.8776019e-12 
-2.2874638e-11 1.222122e-05 5.9746443e-09 -1.5253531e-07 -1.6793003e-11 -4.8810591e-12 
Loop time of 25807.1 on 8 procs for 200000 steps with 320 atoms

Pair  time (%) = 0.275447 (0.00106733)
Neigh time (%) = 0.0290911 (0.000112725)
Comm  time (%) = 1.7375 (0.00673267)
Outpt time (%) = 2.30459 (0.00893006)
Other time (%) = 25802.7 (99.9832)

Nlocal:    40 ave 115 max 0 min
Histogram: 4 0 0 1 1 0 0 0 0 2
Nghost:    19.25 ave 47 max 0 min
Histogram: 4 0 0 0 0 0 1 1 0 2
Neighs:    0 ave 0 max 0 min
Histogram: 8 0 0 0 0 0 0 0 0 0

Total # of neighbors = 0
Ave neighs/atom = 0
Neighbor list builds = 17
Dangerous builds = 0
