LAMMPS data file from restart file: timestep = 1000, procs = 1

500 atoms

1 atom types

0.0000000000000000e+00 2.6880000000000003e+01 xlo xhi
0.0000000000000000e+00 2.6880000000000003e+01 ylo yhi
0.0000000000000000e+00 2.6880000000000003e+01 zlo zhi

Masses

1 39.948


Atoms

1 1 2.6581671648322519e+01 2.6824161162260772e+01 2.6764120329785143e+01 -1 -1 -1
2 1 2.3785725634467654e+00 2.6104554660506882e+00 2.6785614121910644e+01 0 0 -1
3 1 2.4442402289236034e+00 2.6845338478045360e+01 2.4606785159735134e+00 0 -1 0
4 1 2.6778900613941499e+01 2.7074594011482316e+00 2.8355992940472312e+00 -1 0 0
5 1 5.1336373713443351e+00 2.6700163999183591e+01 2.6685396078520924e+01 0 -1 -1
6 1 7.7857504123250658e+00 2.8582734749671199e+00 2.6829286773860762e+01 0 0 -1
7 1 7.8750462897794806e+00 2.6848983128988515e+01 2.4890344449963839e+00 0 -1 0
8 1 5.0006714803251517e+00 2.5966799209899576e+00 2.4291311501325428e+00 0 0 0
9 1 1.0634181154104869e+01 3.4856648984620299e-02 2.6753311873181126e+01 0 0 -1
10 1 1.3177294472813845e+01 2.5609638803450565e+00 8.3887592059454612e-03 0 0 0
11 1 1.3366733659976383e+01 1.8323917501810508e-01 2.5897821528106775e+00 0 0 0
12 1 1.0382794716149053e+01 2.8712210880886495e+00 2.5215434825928571e+00 0 0 0
13 1 1.6096803815133079e+01 2.1188650423753863e-01 3.3850393773849998e-03 0 0 0
14 1 1.8897265833583567e+01 2.6928290579891971e+00 2.6780868481261457e+01 0 0 -1
15 1 1.9178130738649454e+01 2.6858421061692454e+01 2.4323684440154425e+00 0 -1 0
16 1 1.6340500283751496e+01 2.7721869707242681e+00 2.6729853985537400e+00 0 0 0
17 1 2.1825406148913721e+01 2.6805530894280782e+01 2.6596618798977243e+01 0 -1 -1
18 1 2.4195266682969599e+01 2.7605975837344845e+00 1.8745476395091779e-02 0 0 0
19 1 2.4381477838460214e+01 2.6856945785785346e+01 2.6510173069906271e+00 0 -1 0
20 1 2.1709686030171628e+01 2.8000275926271230e+00 2.5125910108411684e+00 0 0 0
21 1 2.6653644566524637e+01 5.5322383674134841e+00 7.3369292654725318e-02 -1 0 0
22 1 2.7424806966381081e+00 7.9948045454082921e+00 8.6866061180110768e-02 0 0 0
23 1 2.5535031367100345e+00 5.5196237690089864e+00 2.6910342536903893e+00 0 0 0
24 1 2.6843154507279671e+01 8.0896668536908187e+00 2.6087113350461841e+00 -1 0 0
25 1 5.1215759892725279e+00 5.5216133272041681e+00 2.6664208253850113e+01 0 0 -1
26 1 7.9612066807096769e+00 8.3251078277682833e+00 2.6859694733145357e+01 0 0 -1
27 1 7.6140548990477370e+00 5.3359788380125952e+00 2.6557780583282549e+00 0 0 0
28 1 5.2467846137801164e+00 8.1535137183757840e+00 2.4353693556273881e+00 0 0 0
29 1 1.0648716282117485e+01 5.3126354162519522e+00 2.6879441530085550e+01 0 0 -1
30 1 1.3552335443000315e+01 7.9675646403890639e+00 1.0072463880114544e-03 0 0 0
31 1 1.3441848727544583e+01 5.3357413307427155e+00 2.6535782643714736e+00 0 0 0
32 1 1.0726210753455652e+01 7.9532210965768746e+00 2.4808130789841605e+00 0 0 0
33 1 1.6045437324479426e+01 5.3197713744514177e+00 1.4768475240808371e-01 0 0 0
34 1 1.9238411782221931e+01 8.3145202418409951e+00 2.6839631809086924e+01 0 0 -1
35 1 1.8907924279937600e+01 5.2580587936081224e+00 2.6276991538041901e+00 0 0 0
36 1 1.6422986569649574e+01 7.8466346514544707e+00 2.8080581884759077e+00 0 0 0
37 1 2.1643085247678034e+01 5.3878452885621888e+00 2.6825937283422849e+01 0 0 -1
38 1 2.3993027228053027e+01 8.1339619168737656e+00 2.6581500880073133e+01 0 0 -1
39 1 2.4207645325291118e+01 5.4784241414201151e+00 2.7086250400322669e+00 0 0 0
40 1 2.1328436319883803e+01 8.0067968280714013e+00 2.7035989814720915e+00 0 0 0
41 1 2.6709805809912325e+01 1.0863637470865777e+01 2.6716751431959398e+01 -1 0 -1
42 1 2.5562438884947407e+00 1.3349451285643717e+01 2.6859539394425465e+01 0 0 -1
43 1 2.4784965629926297e+00 1.0671556619643793e+01 2.5964549859892689e+00 0 0 0
44 1 2.6605158437853920e+01 1.3489439919542466e+01 2.6583233439207916e+00 -1 0 0
45 1 5.3316478040279609e+00 1.0837318203496430e+01 2.6809400200871298e+01 0 0 -1
46 1 8.1412474846451897e+00 1.3556363319111085e+01 3.1943822652101377e-02 0 0 0
47 1 8.2099032303280115e+00 1.0866776176296241e+01 2.6802479585031791e+00 0 0 0
48 1 5.2300739666302221e+00 1.3816555926788007e+01 2.6456745765539211e+00 0 0 0
49 1 1.0865293466350137e+01 1.0783758648709751e+01 2.8003622302045679e-02 0 0 0
50 1 1.3685821411365785e+01 1.3350868450729859e+01 4.9932980573245987e-02 0 0 0
51 1 1.3625115724391794e+01 1.0754115025502376e+01 2.7034479340235005e+00 0 0 0
52 1 1.0979062263740426e+01 1.3258303909601953e+01 2.7759171518513543e+00 0 0 0
53 1 1.6381900203600516e+01 1.0583472781701067e+01 6.0149744579687518e-02 0 0 0
54 1 1.8371685232839290e+01 1.3666459572823632e+01 1.4547966492997663e-02 0 0 0
55 1 1.8758337522888741e+01 1.0724282310970379e+01 2.7310640951798510e+00 0 0 0
56 1 1.6157227266849819e+01 1.3335873668275475e+01 2.8512415241529978e+00 0 0 0
57 1 2.1441129925665876e+01 1.0941486260188727e+01 8.1907319498334213e-02 0 0 0
58 1 2.4138899890135210e+01 1.3523069134059954e+01 9.7516881130435384e-02 0 0 0
59 1 2.4113154890687653e+01 1.0669612834617128e+01 2.5592209568446909e+00 0 0 0
60 1 2.1409298533499221e+01 1.3358859241909688e+01 2.5671104299160845e+00 0 0 0
61 1 5.4667385467797029e-02 1.6317375767922062e+01 1.8063711163418819e-01 0 0 0
62 1 2.6671381655518425e+00 1.8994181591198668e+01 1.3374468222250463e-01 0 0 0
63 1 2.7640305154458220e+00 1.6223422918481944e+01 2.7691002740159272e+00 0 0 0
64 1 5.5081347004257021e-02 1.9045397004431138e+01 2.7644809010608884e+00 0 0 0
65 1 5.3113675694586275e+00 1.6315822718180321e+01 1.1807833474788507e-01 0 0 0
66 1 8.3299637377226521e+00 1.8852085101141764e+01 2.2302732296192906e-01 0 0 0
67 1 8.3393607140960153e+00 1.6147751959704294e+01 2.7431000603093714e+00 0 0 0
68 1 5.4196051820973361e+00 1.8952846772138624e+01 2.6490596265348452e+00 0 0 0
69 1 1.0926404409418085e+01 1.6158158040453714e+01 1.2310902272360502e-01 0 0 0
70 1 1.3506828188320064e+01 1.8945944028602021e+01 3.0680606598675775e-02 0 0 0
71 1 1.3424894233078934e+01 1.6166281126289878e+01 2.6899485966757273e+00 0 0 0
72 1 1.0969976405394920e+01 1.9050304679530406e+01 2.6634079534015815e+00 0 0 0
73 1 1.6096617612019852e+01 1.6265363121839357e+01 1.6192680349506611e-01 0 0 0
74 1 1.8705292160424598e+01 1.8745492329896276e+01 2.6776727169490830e+01 0 0 -1
75 1 1.8623378905482738e+01 1.6220643110880538e+01 2.9060824892967512e+00 0 0 0
76 1 1.6094392506217243e+01 1.8899362297174836e+01 2.7750995010133162e+00 0 0 0
77 1 2.1537840314949495e+01 1.6257665974340306e+01 4.5045285917249970e-03 0 0 0
78 1 2.4159531058785547e+01 1.8913750479649359e+01 2.9677035046325206e-01 0 0 0
79 1 2.4256276748279287e+01 1.6320957834114331e+01 2.7226856550743355e+00 0 0 0
80 1 2.1374342352249677e+01 1.8822300757288453e+01 2.6798143541368060e+00 0 0 0
81 1 2.6834693533424598e+01 2.1512518879786032e+01 2.6831453699065218e+01 -1 0 -1
82 1 2.6283362948304521e+00 2.4024067442663274e+01 7.2416958184625697e-03 0 0 0
83 1 2.6729713340623413e+00 2.1354920982524085e+01 2.8411961452344716e+00 0 0 0
84 1 2.6846134578661136e+01 2.4257240679842106e+01 2.8212670634875567e+00 -1 0 0
85 1 5.3440532635995472e+00 2.1400348543471896e+01 1.4353027389563347e-01 0 0 0
86 1 7.9577036101238425e+00 2.4104168214806553e+01 2.6592449369367738e+01 0 0 -1
87 1 8.0335467379311591e+00 2.1594114149252732e+01 2.7933596983131643e+00 0 0 0
88 1 5.2748555669959831e+00 2.4146356465831353e+01 2.5475978721844657e+00 0 0 0
89 1 1.0787734854296623e+01 2.1541764815533273e+01 2.6798836964301668e+01 0 0 -1
90 1 1.3433543078892079e+01 2.4370434975599629e+01 9.6419385899445265e-02 0 0 0
91 1 1.3519967024786681e+01 2.1667379057183584e+01 2.5243685778033038e+00 0 0 0
92 1 1.0639424305429566e+01 2.4349870439266628e+01 2.5462034057603273e+00 0 0 0
93 1 1.6298143826534861e+01 2.1698432871259492e+01 2.6617646635698080e+01 0 0 -1
94 1 1.8876347966348284e+01 2.4289279799183756e+01 2.6597844190320341e+01 0 0 -1
95 1 1.8890500418842674e+01 2.1525645442991216e+01 2.6975104127853391e+00 0 0 0
96 1 1.6297311120499799e+01 2.4106708810257377e+01 2.4138322244949140e+00 0 0 0
97 1 2.1479194666067201e+01 2.1627178372966803e+01 2.6729928912866331e+01 0 0 -1
98 1 2.4165128452579481e+01 2.4096213238132211e+01 2.6629268459611598e+01 0 0 -1
99 1 2.4312152670201986e+01 2.1440759533932084e+01 2.6655488230655671e+00 0 0 0
100 1 2.1703307331203259e+01 2.4175395607236283e+01 2.4664386090597943e+00 0 0 0
101 1 1.6179957477920384e-01 2.6877859119009006e+01 5.4012938026705353e+00 0 -1 0
102 1 2.4430627938188922e+00 2.7751251050601748e+00 5.4148220448532669e+00 0 0 0
103 1 2.5516608652080564e+00 1.8848693988332188e-01 8.3070348882162683e+00 0 0 0
104 1 2.6602659750523731e+01 2.6569609798960179e+00 8.1397828702402766e+00 -1 0 0
105 1 4.9774520843243275e+00 1.5166051701410938e-01 5.2926868503231690e+00 0 0 0
106 1 7.8269993476362654e+00 2.6387257200629093e+00 5.2143581877977052e+00 0 0 0
107 1 8.0657679591756821e+00 3.2708542384945449e-01 8.1060251550987523e+00 0 0 0
108 1 5.3777307212120506e+00 3.0581808618703339e+00 8.2527344991623846e+00 0 0 0
109 1 1.0699122938147307e+01 2.1884687687421878e-01 5.2503507658859521e+00 0 0 0
110 1 1.3589609702843111e+01 2.7592102025855527e+00 5.2063118883839321e+00 0 0 0
111 1 1.3212729922698752e+01 2.6858380968118933e+01 8.1542308572292015e+00 0 -1 0
112 1 1.0712298378967390e+01 2.7950123751116616e+00 7.7435797201926269e+00 0 0 0
113 1 1.6547179627627845e+01 2.6564126613167041e+01 5.3176011518682600e+00 0 -1 0
114 1 1.9088409152553410e+01 2.6928803903720513e+00 5.2942364500134609e+00 0 0 0
115 1 1.8820844101538903e+01 2.6796160961569797e+01 8.3082826245517403e+00 0 -1 0
116 1 1.6173316367723697e+01 2.4698313985507898e+00 8.2919149996608201e+00 0 0 0
117 1 2.1585349066823877e+01 2.6845699384851418e+01 5.4311881891669156e+00 0 -1 0
118 1 2.4114808984902709e+01 2.7382696143371046e+00 5.4700627378499371e+00 0 0 0
119 1 2.4103884957413481e+01 2.6600093256057903e+01 8.1744603391704818e+00 0 -1 0
120 1 2.1508129836021659e+01 2.7469919973857304e+00 7.9743291866260408e+00 0 0 0
121 1 2.6696330139201670e+01 5.4880033594810751e+00 5.5024640604088919e+00 -1 0 0
122 1 2.7272236375127132e+00 8.0647892682037838e+00 5.4283063002904655e+00 0 0 0
123 1 2.5168523973930657e+00 5.2666486228193801e+00 8.1447713915773203e+00 0 0 0
124 1 6.6652128335382310e-02 8.0478443314019525e+00 8.0963645070142025e+00 0 0 0
125 1 5.1742331375619859e+00 5.3695496744964410e+00 5.4320249032739802e+00 0 0 0
126 1 7.9421476669295688e+00 8.0291771542134391e+00 5.0293637577942869e+00 0 0 0
127 1 8.1647618018926202e+00 5.7560660762456557e+00 7.6873781489689934e+00 0 0 0
128 1 5.3365829103979934e+00 7.8839655042208650e+00 8.3215870385507511e+00 0 0 0
129 1 1.0764423968549950e+01 5.4054752443484233e+00 5.0866033407923643e+00 0 0 0
130 1 1.3649412839198577e+01 7.9304429520245145e+00 5.4280767864728494e+00 0 0 0
131 1 1.3631073193116556e+01 5.1221058546050422e+00 7.9354586295838052e+00 0 0 0
132 1 1.0914069573878578e+01 7.9006723838522337e+00 7.9094538196121720e+00 0 0 0
133 1 1.6358892294238675e+01 5.0372798571723729e+00 5.5809822917313685e+00 0 0 0
134 1 1.8946036177101149e+01 8.0574751321265321e+00 5.7115755303948745e+00 0 0 0
135 1 1.8897545697286322e+01 5.2647113546987150e+00 8.4720323679124743e+00 0 0 0
136 1 1.6195453117516447e+01 7.8158973559610114e+00 8.0687621256114994e+00 0 0 0
137 1 2.1630582156381134e+01 5.6440193867449935e+00 5.4571172638396970e+00 0 0 0
138 1 2.4323888604137704e+01 8.0295387363980844e+00 5.2689735404033087e+00 0 0 0
139 1 2.4054891119950842e+01 5.5447249789137203e+00 8.1142685647446555e+00 0 0 0
140 1 2.1512816798695592e+01 8.3621393357427145e+00 8.0992475521887268e+00 0 0 0
141 1 1.4683752276521361e-01 1.0619494536467000e+01 5.4314871280828321e+00 0 0 0
142 1 2.4392469223519515e+00 1.3313926983593712e+01 5.1885866766891544e+00 0 0 0
143 1 2.9048569722709345e+00 1.0405480827476373e+01 8.0035205124129725e+00 0 0 0
144 1 2.6796357367301876e+01 1.3369506057128747e+01 7.7976204688455999e+00 -1 0 0
145 1 5.3368991257898992e+00 1.0748063911869963e+01 5.0608094767236915e+00 0 0 0
146 1 8.1722102671008283e+00 1.3495941455809696e+01 5.5962360100000170e+00 0 0 0
147 1 8.2760698006659581e+00 1.0333992317943880e+01 7.8693278769795780e+00 0 0 0
148 1 5.3230583377958238e+00 1.3166552638894416e+01 7.7688683046286204e+00 0 0 0
149 1 1.1100924253119720e+01 1.0624433621928514e+01 5.3376192703720022e+00 0 0 0
150 1 1.3506919724015692e+01 1.3410938192972212e+01 5.6145573962646411e+00 0 0 0
151 1 1.3387341180332717e+01 1.0659727990729046e+01 8.1040946909866634e+00 0 0 0
152 1 1.0971278055567144e+01 1.3516106385934414e+01 8.0515630087000893e+00 0 0 0
153 1 1.6208080645494295e+01 1.0706618245674939e+01 5.5354477569060805e+00 0 0 0
154 1 1.8822940085450238e+01 1.3468552825575614e+01 5.3850247275196210e+00 0 0 0
155 1 1.8805224833315361e+01 1.0902127900321414e+01 8.2608290605120693e+00 0 0 0
156 1 1.6047668734267738e+01 1.3366965112615562e+01 8.0618284956891078e+00 0 0 0
157 1 2.1370989383615658e+01 1.0593074562710381e+01 5.2716935137243404e+00 0 0 0
158 1 2.3870711124394866e+01 1.3363058313368752e+01 5.1996928669949734e+00 0 0 0
159 1 2.4071766126650459e+01 1.0734429994239878e+01 7.9380796436515055e+00 0 0 0
160 1 2.1303568071824458e+01 1.3495742178182587e+01 8.0792187511558069e+00 0 0 0
161 1 1.5170470103250894e-01 1.6506984746400441e+01 5.3482296793020625e+00 0 0 0
162 1 2.8270229007618495e+00 1.8919403490605806e+01 5.4761718931074137e+00 0 0 0
163 1 2.6661628804135442e+00 1.6120588365816474e+01 7.9273041698983002e+00 0 0 0
164 1 4.7782714082733962e-02 1.8785345335399985e+01 8.0343502285052786e+00 0 0 0
165 1 5.6923815683881598e+00 1.6270732866270674e+01 5.3998560025788294e+00 0 0 0
166 1 8.2819222270002744e+00 1.8850388041007864e+01 5.3199863260130789e+00 0 0 0
167 1 8.2760644013518849e+00 1.5863007903823044e+01 8.1237824228577864e+00 0 0 0
168 1 5.4553422582964934e+00 1.8862364611074682e+01 7.9687275125847910e+00 0 0 0
169 1 1.0866386245921577e+01 1.6027004320706936e+01 5.4806725017445652e+00 0 0 0
170 1 1.3614732659285664e+01 1.8781423988568587e+01 5.3306802008266905e+00 0 0 0
171 1 1.3552704732340224e+01 1.6178240866414992e+01 8.3247913809742400e+00 0 0 0
172 1 1.0721835949541802e+01 1.8696583235022810e+01 8.1153902240579381e+00 0 0 0
173 1 1.6164499911722423e+01 1.6131793064615437e+01 5.3887816380547644e+00 0 0 0
174 1 1.8819145144348482e+01 1.8815274613248874e+01 5.3057880828384061e+00 0 0 0
175 1 1.8727980312231050e+01 1.6075183887373111e+01 8.1206570404462113e+00 0 0 0
176 1 1.6012822205418644e+01 1.8898228576028188e+01 8.1540656148782240e+00 0 0 0
177 1 2.1409861059342610e+01 1.5941797055175924e+01 5.4087191987770362e+00 0 0 0
178 1 2.4023428990935678e+01 1.8752008278661517e+01 5.3382333321592341e+00 0 0 0
179 1 2.4144679800702633e+01 1.6187345498977155e+01 8.0807409767014544e+00 0 0 0
180 1 2.1441412110199465e+01 1.8916599254458337e+01 7.9773965689425266e+00 0 0 0
181 1 8.7969414090879744e-02 2.1515962911953579e+01 5.3694564176731507e+00 0 0 0
182 1 2.5691544451617458e+00 2.4130501728836443e+01 5.3751809492144806e+00 0 0 0
183 1 2.6231063944001307e+00 2.1671835398832634e+01 8.2228258015582689e+00 0 0 0
184 1 8.1801820593823960e-03 2.4184104459103629e+01 7.9814735946709661e+00 0 0 0
185 1 5.2567743537790861e+00 2.1575857065291032e+01 5.5527966500642858e+00 0 0 0
186 1 8.0136673994700747e+00 2.4405520448704927e+01 5.3062282151234665e+00 0 0 0
187 1 8.1450644693863321e+00 2.1781843628241596e+01 7.8749766318529320e+00 0 0 0
188 1 5.3755693391642945e+00 2.4702584984273514e+01 7.8087894087277823e+00 0 0 0
189 1 1.0745282070241949e+01 2.1734787531493804e+01 5.3537064290574863e+00 0 0 0
190 1 1.3329098483081653e+01 2.4373599715506380e+01 5.2690345204984643e+00 0 0 0
191 1 1.3376983297544713e+01 2.1690523547788022e+01 8.0654983026356994e+00 0 0 0
192 1 1.0718124272246637e+01 2.4427890161602239e+01 7.8782420372845934e+00 0 0 0
193 1 1.6054816295103645e+01 2.1706591986789267e+01 5.4370899204660370e+00 0 0 0
194 1 1.9142684163140618e+01 2.4177946003475274e+01 5.4501448597346149e+00 0 0 0
195 1 1.8622706070221401e+01 2.1371973292519577e+01 7.9391769526863225e+00 0 0 0
196 1 1.6118589727018829e+01 2.4281157378321158e+01 8.0926068720393243e+00 0 0 0
197 1 2.1557907789110182e+01 2.1535509627111065e+01 5.1467983683577794e+00 0 0 0
198 1 2.4212029756667317e+01 2.4209280572284882e+01 5.2550840427043131e+00 0 0 0
199 1 2.4119805660524410e+01 2.1655804761826698e+01 7.7752335496426577e+00 0 0 0
200 1 2.1349460995207163e+01 2.4045848011489504e+01 8.3175973096127631e+00 0 0 0
201 1 1.9020667108476819e-01 2.6658319380350132e+01 1.0929400009202668e+01 0 -1 0
202 1 2.6111102423697052e+00 2.9134516233042795e+00 1.1000092253732715e+01 0 0 0
203 1 3.0182576731355812e+00 8.5186850639271963e-02 1.3458732135984999e+01 0 0 0
204 1 2.6614041645253369e+01 2.7396779311755504e+00 1.3727620960018292e+01 -1 0 0
205 1 5.4917952089889699e+00 2.2247837986791275e-01 1.0741703691366885e+01 0 0 0
206 1 8.1957877765087286e+00 2.9349752069341388e+00 1.0690632881486732e+01 0 0 0
207 1 8.2419698450199501e+00 4.8281733119947490e-02 1.3557964983971617e+01 0 0 0
208 1 5.4188396102560485e+00 2.8386997086891901e+00 1.3848413004833539e+01 0 0 0
209 1 1.0667131356664600e+01 6.6538104974425097e-02 1.1038369920930643e+01 0 0 0
210 1 1.3002820233347339e+01 2.6493632319010940e+00 1.0692332682756790e+01 0 0 0
211 1 1.3332259862618793e+01 2.6796466475367033e+01 1.3543930776438735e+01 0 -1 0
212 1 1.0909251961038111e+01 2.7004785917111245e+00 1.3647474893893243e+01 0 0 0
213 1 1.6283896699801279e+01 2.6697989817605794e+01 1.1144269524453872e+01 0 -1 0
214 1 1.8732327558681934e+01 2.6264495735176139e+00 1.0863920759667742e+01 0 0 0
215 1 1.8812472035275377e+01 4.2364126145164570e-02 1.3667694521922854e+01 0 0 0
216 1 1.5867126962197233e+01 2.7735521790860114e+00 1.3544163371406835e+01 0 0 0
217 1 2.1538248893237853e+01 2.6834795173177483e+01 1.0854970202394073e+01 0 -1 0
218 1 2.4202305638472147e+01 2.5828779234645149e+00 1.1003879065181030e+01 0 0 0
219 1 2.4261729373639806e+01 2.6642472055092444e+01 1.3414605195270420e+01 0 -1 0
220 1 2.1526402572297496e+01 2.4661687534698400e+00 1.3738304911679341e+01 0 0 0
221 1 2.6772745706821990e+01 5.3136225233084220e+00 1.0927279162180897e+01 -1 0 0
222 1 2.6179545538250397e+00 7.9361072075959340e+00 1.0951945042074410e+01 0 0 0
223 1 2.5089353545044046e+00 5.3432402301950424e+00 1.3670176443129529e+01 0 0 0
224 1 2.6839440728760970e+01 8.1263049960677485e+00 1.3235850087176543e+01 -1 0 0
225 1 5.3154309897564973e+00 5.3802861088782405e+00 1.1035930205494976e+01 0 0 0
226 1 8.0964060719627593e+00 8.0614954546023085e+00 1.0664774377166861e+01 0 0 0
227 1 8.0200322450956385e+00 5.5711410660195124e+00 1.3565450999979074e+01 0 0 0
228 1 5.3227519003867769e+00 8.2695391154632816e+00 1.3541984176474681e+01 0 0 0
229 1 1.0811998016723811e+01 5.2918749913459040e+00 1.0936311957945957e+01 0 0 0
230 1 1.3512659650864130e+01 8.0832548193105502e+00 1.0731489616140150e+01 0 0 0
231 1 1.3389920343373817e+01 5.5052492321780937e+00 1.3572362921582590e+01 0 0 0
232 1 1.0811283000612274e+01 7.9188922080570308e+00 1.3354711163919886e+01 0 0 0
233 1 1.6214403743040116e+01 5.2731345062556532e+00 1.0976205359904991e+01 0 0 0
234 1 1.8833718214666796e+01 8.1137775998949024e+00 1.0698291237046249e+01 0 0 0
235 1 1.8735007116428459e+01 5.3410977515326152e+00 1.3438838685882109e+01 0 0 0
236 1 1.6056565431177383e+01 7.9530846536565276e+00 1.3415555474011342e+01 0 0 0
237 1 2.1504325897109613e+01 5.4612151608652537e+00 1.0848610967343390e+01 0 0 0
238 1 2.4190187095927499e+01 8.1427276833134652e+00 1.0955556901050866e+01 0 0 0
239 1 2.4242282779110919e+01 5.5672549542022853e+00 1.3371316205282852e+01 0 0 0
240 1 2.1395163003962036e+01 8.2418400935036065e+00 1.3244493173352334e+01 0 0 0
241 1 2.5043412279281119e-01 1.0910170654111106e+01 1.0465801844237003e+01 0 0 0
242 1 2.6555689884939850e+00 1.3482774178106924e+01 1.0288454425392349e+01 0 0 0
243 1 2.4705291827420712e+00 1.0547244081739233e+01 1.3390052659591944e+01 0 0 0
244 1 2.2568525135445691e-01 1.3268943434974007e+01 1.3325798288600739e+01 0 0 0
245 1 5.3646169832038648e+00 1.0844291204318411e+01 1.0751892296397545e+01 0 0 0
246 1 8.1725650888098400e+00 1.3344117186827585e+01 1.0797378321425732e+01 0 0 0
247 1 8.1837201893831448e+00 1.0600354065259410e+01 1.3343417938455003e+01 0 0 0
248 1 5.4501129043893233e+00 1.2945516675135034e+01 1.3450171576326145e+01 0 0 0
249 1 1.0734983778212014e+01 1.0577196872430960e+01 1.0643877158478185e+01 0 0 0
250 1 1.3345146956260955e+01 1.3315826636335613e+01 1.0821850861912848e+01 0 0 0
251 1 1.3410738661026489e+01 1.0729888173141996e+01 1.3422392258777673e+01 0 0 0
252 1 1.0716953290256633e+01 1.3373260561834799e+01 1.3416090029923019e+01 0 0 0
253 1 1.6049669393406020e+01 1.0753310210799350e+01 1.0775875356330484e+01 0 0 0
254 1 1.8799867533247973e+01 1.3573156850094620e+01 1.0955090084783635e+01 0 0 0
255 1 1.8524690687189985e+01 1.0760882781370565e+01 1.3548852017005578e+01 0 0 0
256 1 1.5977265715589690e+01 1.3467148755403597e+01 1.3512393371330889e+01 0 0 0
257 1 2.1541091125837667e+01 1.1011460229362378e+01 1.0772076372253373e+01 0 0 0
258 1 2.4148452785662688e+01 1.3592549334459122e+01 1.0705982292424224e+01 0 0 0
259 1 2.4148347596232149e+01 1.0946020216192588e+01 1.3403082024861362e+01 0 0 0
260 1 2.1608784121005474e+01 1.3562971510779033e+01 1.3200222023875677e+01 0 0 0
261 1 9.7158430932199252e-02 1.5936751084861767e+01 1.0744944791735051e+01 0 0 0
262 1 2.5922008122491986e+00 1.8842605679202876e+01 1.0746272538106906e+01 0 0 0
263 1 2.9051098515547249e+00 1.5899548895642454e+01 1.3396502033644406e+01 0 0 0
264 1 2.7063828764220010e-01 1.8736835475076592e+01 1.3441858120997951e+01 0 0 0
265 1 5.2481938540904283e+00 1.5895198405115684e+01 1.0650246737844933e+01 0 0 0
266 1 8.1109272131190853e+00 1.9025444952912622e+01 1.0620287396457243e+01 0 0 0
267 1 7.9220039688267567e+00 1.5790265346944432e+01 1.3363025955104840e+01 0 0 0
268 1 5.5551541723776747e+00 1.8719406062652279e+01 1.3125038083375298e+01 0 0 0
269 1 1.0731755538377193e+01 1.6021923608419684e+01 1.0923985626110628e+01 0 0 0
270 1 1.3387044673093293e+01 1.8961326274677905e+01 1.0777994365385684e+01 0 0 0
271 1 1.3289450756199708e+01 1.6236179085180634e+01 1.3410398966459091e+01 0 0 0
272 1 1.0540681568031198e+01 1.8712575821466960e+01 1.3238548596536733e+01 0 0 0
273 1 1.6080231527086990e+01 1.6165633206034027e+01 1.0921312113239951e+01 0 0 0
274 1 1.8674427424917031e+01 1.8770435324705296e+01 1.0743414133604716e+01 0 0 0
275 1 1.8531071689907147e+01 1.6033376856309488e+01 1.3735067311306221e+01 0 0 0
276 1 1.5976216584373908e+01 1.8832349652523654e+01 1.3632663692611047e+01 0 0 0
277 1 2.1579669032094696e+01 1.6285276014151286e+01 1.0700830985292930e+01 0 0 0
278 1 2.4193518201018410e+01 1.8823104790705500e+01 1.0722925199529691e+01 0 0 0
279 1 2.4358867656661552e+01 1.6219785295800584e+01 1.3313512552325840e+01 0 0 0
280 1 2.1507635537296039e+01 1.8708452443689030e+01 1.3568784544287634e+01 0 0 0
281 1 9.9435736970718766e-02 2.1502005508953907e+01 1.0931194144118081e+01 0 0 0
282 1 2.6173988997538182e+00 2.4245463456722824e+01 1.0988009385600044e+01 0 0 0
283 1 2.9602991461320380e+00 2.1329457767498919e+01 1.3514548278731748e+01 0 0 0
284 1 3.6028574060346125e-02 2.3871010313644696e+01 1.3520157626014489e+01 0 0 0
285 1 5.5663361732874188e+00 2.1668839753310387e+01 1.0756530970940780e+01 0 0 0
286 1 7.8830502998417042e+00 2.4355521121799374e+01 1.0616577656658466e+01 0 0 0
287 1 8.3631704964373874e+00 2.1588688634673037e+01 1.3631677810390826e+01 0 0 0
288 1 5.5118230456214361e+00 2.4128827210148856e+01 1.3595490066297643e+01 0 0 0
289 1 1.0609544939610817e+01 2.1653602646099699e+01 1.0650772845827737e+01 0 0 0
290 1 1.3443711091504433e+01 2.4366879573308971e+01 1.0756165979433669e+01 0 0 0
291 1 1.3377613362189415e+01 2.1351777025137505e+01 1.3169031959653649e+01 0 0 0
292 1 1.0980031092855018e+01 2.4068605829038308e+01 1.3358182020927659e+01 0 0 0
293 1 1.6092523924164034e+01 2.1642576755546884e+01 1.0775628577753338e+01 0 0 0
294 1 1.8703037691113003e+01 2.4032760946223824e+01 1.1031194374338618e+01 0 0 0
295 1 1.8662598872021682e+01 2.1246138281573959e+01 1.3557572420362291e+01 0 0 0
296 1 1.6038996350134649e+01 2.3864219274303686e+01 1.3617689551475809e+01 0 0 0
297 1 2.1476610305435180e+01 2.1187948231711296e+01 1.0655326332180149e+01 0 0 0
298 1 2.4350940549686381e+01 2.3987463027613479e+01 1.0838520748074695e+01 0 0 0
299 1 2.4187819909007573e+01 2.1265245666975460e+01 1.3411135959901955e+01 0 0 0
300 1 2.1368391346324298e+01 2.4044033438243083e+01 1.3333488236909036e+01 0 0 0
301 1 1.6187049842432613e-01 2.6672396229755577e+01 1.5955782084734468e+01 0 -1 0
302 1 2.9852671859041338e+00 2.6853366774387220e+00 1.6315633878685347e+01 0 0 0
303 1 2.8022589783418432e+00 2.6816592674204461e+01 1.8773842131217673e+01 0 -1 0
304 1 2.6699238267704366e+01 2.5853989166254614e+00 1.8508947212728589e+01 -1 0 0
305 1 5.5399823802812387e+00 1.0182938632242895e-01 1.6122534467042161e+01 0 0 0
306 1 8.0521616362809905e+00 2.9429602298104931e+00 1.6190817906549889e+01 0 0 0
307 1 8.1614872960543909e+00 1.7253600165065372e-02 1.8824344599179756e+01 0 0 0
308 1 5.4913463051770472e+00 2.5037559548364685e+00 1.8850048666697415e+01 0 0 0
309 1 1.0740781641794531e+01 2.6787194247949937e+01 1.6141462043701125e+01 0 -1 0
310 1 1.3318229899261343e+01 2.6506556577410980e+00 1.6270737984538318e+01 0 0 0
311 1 1.3375215664757159e+01 5.7510362503478810e-02 1.8906046711681842e+01 0 0 0
312 1 1.0608973735360903e+01 2.9500040581006401e+00 1.8800669293520762e+01 0 0 0
313 1 1.5855012389063887e+01 2.6811097492292870e+01 1.6041991521763933e+01 0 -1 0
314 1 1.8495891223641667e+01 2.6199150984595239e+00 1.6141194767433390e+01 0 0 0
315 1 1.8705688979844307e+01 2.6845020944544153e+01 1.8760149550750494e+01 0 -1 0
316 1 1.6209950263352823e+01 2.6683132264509233e+00 1.8983311899763802e+01 0 0 0
317 1 2.1461218762835578e+01 4.6239105538604039e-03 1.6250856782464975e+01 0 0 0
318 1 2.3976759276264843e+01 2.7308025471151800e+00 1.6231217676442053e+01 0 0 0
319 1 2.4164317277300533e+01 2.6597382497788836e+01 1.8734068872926361e+01 0 -1 0
320 1 2.1307686934203321e+01 2.8686691901357046e+00 1.8753834415856304e+01 0 0 0
321 1 2.6574657060114593e+01 5.4765665694238539e+00 1.6044878222781399e+01 -1 0 0
322 1 2.4690544136117003e+00 8.1353382993676355e+00 1.6206136670258672e+01 0 0 0
323 1 2.6292249094834301e+00 5.5147061412281326e+00 1.8670283609401277e+01 0 0 0
324 1 2.6798771199992053e+01 8.1246019572431454e+00 1.8804502420848134e+01 -1 0 0
325 1 5.4343662335121117e+00 5.6636102480694817e+00 1.6183203967664259e+01 0 0 0
326 1 8.2799291177967529e+00 8.2331581524649291e+00 1.6188325816756713e+01 0 0 0
327 1 7.9647326963421605e+00 5.5307756865372157e+00 1.8994474353947158e+01 0 0 0
328 1 5.4672866595286127e+00 8.2633297448317293e+00 1.8819889487809533e+01 0 0 0
329 1 1.0784942792420642e+01 5.5680540609117601e+00 1.6388241443517103e+01 0 0 0
330 1 1.3552506401668822e+01 8.1487064887797107e+00 1.6178122202062646e+01 0 0 0
331 1 1.3460422857371064e+01 5.2328603079013627e+00 1.8831802546095556e+01 0 0 0
332 1 1.0881024167565153e+01 8.0893070383530130e+00 1.8913168726729445e+01 0 0 0
333 1 1.6149539502654250e+01 5.5537030614483180e+00 1.6218306943874527e+01 0 0 0
334 1 1.8734547483313719e+01 8.1554841789195791e+00 1.6136703431626167e+01 0 0 0
335 1 1.8907167893674547e+01 5.7124408404606859e+00 1.8779294682568541e+01 0 0 0
336 1 1.6126878117050005e+01 7.9491213288913602e+00 1.8925524321002307e+01 0 0 0
337 1 2.1219945997109576e+01 5.6265232169351940e+00 1.6037850180182282e+01 0 0 0
338 1 2.4038816582037313e+01 8.1464159210996172e+00 1.5950657868797020e+01 0 0 0
339 1 2.4184306772789149e+01 5.4756907755132360e+00 1.8704221406367520e+01 0 0 0
340 1 2.1748545103014781e+01 8.2235318710558207e+00 1.8714250926146359e+01 0 0 0
341 1 2.6771753221079305e+01 1.0657751254481189e+01 1.6107400529741366e+01 -1 0 0
342 1 2.6998587541733428e+00 1.3410421477441908e+01 1.6021135046797440e+01 0 0 0
343 1 2.5585225479131783e+00 1.0726701790577064e+01 1.8744494665903968e+01 0 0 0
344 1 2.6690382447908135e+01 1.3448158918117693e+01 1.8739307519597308e+01 -1 0 0
345 1 5.3503537995244832e+00 1.0695062638099524e+01 1.6203813967851428e+01 0 0 0
346 1 8.2474976904049662e+00 1.3154232883028392e+01 1.5997366789743001e+01 0 0 0
347 1 8.2381154098816278e+00 1.0670470954827211e+01 1.8847116063173171e+01 0 0 0
348 1 5.6721371488573986e+00 1.3193614563054430e+01 1.8938683963955238e+01 0 0 0
349 1 1.1092099256103165e+01 1.0645923643916557e+01 1.5986579289032822e+01 0 0 0
350 1 1.3287957857118110e+01 1.3364867664270866e+01 1.6294617026624227e+01 0 0 0
351 1 1.3388133028725854e+01 1.0797615328856592e+01 1.9035841113194294e+01 0 0 0
352 1 1.0739663918274307e+01 1.3488226176672446e+01 1.8857911844960242e+01 0 0 0
353 1 1.6006134968447935e+01 1.0749857929667956e+01 1.6177704203763422e+01 0 0 0
354 1 1.8584277668863919e+01 1.3226743418860105e+01 1.6208432601989706e+01 0 0 0
355 1 1.8869159238426096e+01 1.0563930906905206e+01 1.8638554876945339e+01 0 0 0
356 1 1.5930981234590838e+01 1.3451366161987714e+01 1.8774317888080670e+01 0 0 0
357 1 2.1306547511251910e+01 1.0727572382232427e+01 1.6027483442716228e+01 0 0 0
358 1 2.4085313640400980e+01 1.3381659861945415e+01 1.6062318686241753e+01 0 0 0
359 1 2.4288572148495362e+01 1.0767153953038701e+01 1.8645687848294155e+01 0 0 0
360 1 2.1543817049032274e+01 1.3430526706712595e+01 1.8881508083790454e+01 0 0 0
361 1 3.3040682999378686e-02 1.6118104483918660e+01 1.6115651408527022e+01 0 0 0
362 1 2.8388648529212626e+00 1.8481481257174696e+01 1.6039637624260063e+01 0 0 0
363 1 2.6790435940843782e+00 1.5804557445581596e+01 1.8698888643042739e+01 0 0 0
364 1 4.1926512801155869e-01 1.8913916885738168e+01 1.8738646698279261e+01 0 0 0
365 1 5.6106845525937450e+00 1.6011447947948614e+01 1.5950987541075184e+01 0 0 0
366 1 8.2287350653416027e+00 1.8722740000476684e+01 1.6252241670175636e+01 0 0 0
367 1 8.1980306405419423e+00 1.5981417354292450e+01 1.8735313357659624e+01 0 0 0