LAMMPS W data file
 
2 atoms
 
1  atom types

0.0 3.16 xlo xhi
0.0 3.16 ylo yhi
0.0 3.16 zlo zhi
 
Atoms
 
1 1 0.000   0.000   0.000
2 1 1.58    1.58    1.58

