LAMMPS (20 Apr 2018)
# small W unit cell for use with VASP

#message         client aimd file tmp.couple
message         client aimd zmq localhost:5555
#message         client aimd mpi/two tmp.couple
#message         client aimd mpi/one tmp.couple

units		real
atom_style	atomic
atom_modify     sort 0 0.0 map yes

read_data       data.W
  orthogonal box = (0 0 0) to (3.16 3.16 3.16)
  1 by 1 by 1 MPI processor grid
  reading atoms ...
  2 atoms
mass		1 1.0

#velocity	all create 300.0 87287 loop geom

neighbor	0.3 bin
neigh_modify	delay 0 every 10 check no

fix		1 all nve
fix             2 all message/aimd
fix_modify      2 energy yes

thermo          1
run		2
Per MPI rank memory allocation (min/avg/max) = 1.8 | 1.8 | 1.8 Mbytes
Step Temp E_pair E_mol TotEng Press 
       0            0            0            0   -48.069571    -172694.2 
       1  0.063865861            0            0   -48.069381   -172693.93 
       2   0.25546344            0            0    -48.06881    -172693.1 
Loop time of 0.281842 on 1 procs for 2 steps with 2 atoms

Performance: 0.613 ns/day, 39.145 hours/ns, 7.096 timesteps/s
0.0% CPU use with 1 MPI tasks x no OpenMP threads

MPI task timing breakdown:
Section |  min time  |  avg time  |  max time  |%varavg| %total
---------------------------------------------------------------
Pair    | 0          | 0          | 0          |   0.0 |  0.00
Neigh   | 0          | 0          | 0          |   0.0 |  0.00
Comm    | 3.0994e-06 | 3.0994e-06 | 3.0994e-06 |   0.0 |  0.00
Output  | 8.9169e-05 | 8.9169e-05 | 8.9169e-05 |   0.0 |  0.03
Modify  | 0.28174    | 0.28174    | 0.28174    |   0.0 | 99.97
Other   |            | 5.96e-06   |            |       |  0.00

Nlocal:    2 ave 2 max 2 min
Histogram: 1 0 0 0 0 0 0 0 0 0
Nghost:    7 ave 7 max 7 min
Histogram: 1 0 0 0 0 0 0 0 0 0
Neighs:    0 ave 0 max 0 min
Histogram: 1 0 0 0 0 0 0 0 0 0

Total # of neighbors = 0
Ave neighs/atom = 0
Neighbor list builds = 0
Dangerous builds not checked

Total wall time: 0:00:06
