 Generate Bi-layer hBN

   1360  atoms

 4 atom types

    0.000000000000000  43.379999999999995 xlo xhi
    0.000000000000000  42.577272951658138 ylo yhi
    0.000000000000000 100.000000000000000 zlo zhi

 Atoms

          1         1         1   0.42000   0.000000000000000   1.252272733872298   0.000000000000000
          2         1         2  -0.42000   0.723000000000000   0.000000000000000   0.000000000000000
          3         1         1   0.42000   2.169000000000000   0.000000000000000   0.000000000000000
          4         1         2  -0.42000   2.892000000000000   1.252272733872298   0.000000000000000
          5         1         1   0.42000   4.338000000000000   1.252272733872298   0.000000000000000
          6         1         2  -0.42000   5.061000000000000   0.000000000000000   0.000000000000000
          7         1         1   0.42000   6.507000000000000   0.000000000000000   0.000000000000000
          8         1         2  -0.42000   7.230000000000000   1.252272733872298   0.000000000000000
          9         1         1   0.42000   8.676000000000000   1.252272733872298   0.000000000000000
         10         1         2  -0.42000   9.399000000000001   0.000000000000000   0.000000000000000
         11         1         1   0.42000  10.845000000000001   0.000000000000000   0.000000000000000
         12         1         2  -0.42000  11.568000000000000   1.252272733872298   0.000000000000000
         13         1         1   0.42000  13.013999999999999   1.252272733872298   0.000000000000000
         14         1         2  -0.42000  13.737000000000000   0.000000000000000   0.000000000000000
         15         1         1   0.42000  15.183000000000000   0.000000000000000   0.000000000000000
         16         1         2  -0.42000  15.905999999999999   1.252272733872298   0.000000000000000
         17         1         1   0.42000  17.352000000000000   1.252272733872298   0.000000000000000
         18         1         2  -0.42000  18.074999999999999   0.000000000000000   0.000000000000000
         19         1         1   0.42000  19.521000000000001   0.000000000000000   0.000000000000000
         20         1         2  -0.42000  20.244000000000000   1.252272733872298   0.000000000000000
         21         1         1   0.42000  21.690000000000001   1.252272733872298   0.000000000000000
         22         1         2  -0.42000  22.413000000000000   0.000000000000000   0.000000000000000
         23         1         1   0.42000  23.859000000000002   0.000000000000000   0.000000000000000
         24         1         2  -0.42000  24.582000000000001   1.252272733872298   0.000000000000000
         25         1         1   0.42000  26.027999999999999   1.252272733872298   0.000000000000000
         26         1         2  -0.42000  26.750999999999998   0.000000000000000   0.000000000000000
         27         1         1   0.42000  28.196999999999999   0.000000000000000   0.000000000000000
         28         1         2  -0.42000  28.919999999999998   1.252272733872298   0.000000000000000
         29         1         1   0.42000  30.366000000000000   1.252272733872298   0.000000000000000
         30         1         2  -0.42000  31.088999999999999   0.000000000000000   0.000000000000000
         31         1         1   0.42000  32.534999999999997   0.000000000000000   0.000000000000000
         32         1         2  -0.42000  33.258000000000003   1.252272733872298   0.000000000000000
         33         1         1   0.42000  34.704000000000001   1.252272733872298   0.000000000000000
         34         1         2  -0.42000  35.427000000000000   0.000000000000000   0.000000000000000
         35         1         1   0.42000  36.872999999999998   0.000000000000000   0.000000000000000
         36         1         2  -0.42000  37.596000000000004   1.252272733872298   0.000000000000000
         37         1         1   0.42000  39.042000000000002   1.252272733872298   0.000000000000000
         38         1         2  -0.42000  39.765000000000001   0.000000000000000   0.000000000000000
         39         1         1   0.42000  41.210999999999999   0.000000000000000   0.000000000000000
         40         1         2  -0.42000  41.934000000000005   1.252272733872298   0.000000000000000
         41         1         1   0.42000   0.000000000000000   3.756818201616894   0.000000000000000
         42         1         2  -0.42000   0.723000000000000   2.504545467744596   0.000000000000000
         43         1         1   0.42000   2.169000000000000   2.504545467744596   0.000000000000000
         44         1         2  -0.42000   2.892000000000000   3.756818201616894   0.000000000000000
         45         1         1   0.42000   4.338000000000000   3.756818201616894   0.000000000000000
         46         1         2  -0.42000   5.061000000000000   2.504545467744596   0.000000000000000
         47         1         1   0.42000   6.507000000000000   2.504545467744596   0.000000000000000
         48         1         2  -0.42000   7.230000000000000   3.756818201616894   0.000000000000000
         49         1         1   0.42000   8.676000000000000   3.756818201616894   0.000000000000000
         50         1         2  -0.42000   9.399000000000001   2.504545467744596   0.000000000000000
         51         1         1   0.42000  10.845000000000001   2.504545467744596   0.000000000000000
         52         1         2  -0.42000  11.568000000000000   3.756818201616894   0.000000000000000
         53         1         1   0.42000  13.013999999999999   3.756818201616894   0.000000000000000
         54         1         2  -0.42000  13.737000000000000   2.504545467744596   0.000000000000000
         55         1         1   0.42000  15.183000000000000   2.504545467744596   0.000000000000000
         56         1         2  -0.42000  15.905999999999999   3.756818201616894   0.000000000000000
         57         1         1   0.42000  17.352000000000000   3.756818201616894   0.000000000000000
         58         1         2  -0.42000  18.074999999999999   2.504545467744596   0.000000000000000
         59         1         1   0.42000  19.521000000000001   2.504545467744596   0.000000000000000
         60         1         2  -0.42000  20.244000000000000   3.756818201616894   0.000000000000000
         61         1         1   0.42000  21.690000000000001   3.756818201616894   0.000000000000000
         62         1         2  -0.42000  22.413000000000000   2.504545467744596   0.000000000000000
         63         1         1   0.42000  23.859000000000002   2.504545467744596   0.000000000000000
         64         1         2  -0.42000  24.582000000000001   3.756818201616894   0.000000000000000
         65         1         1   0.42000  26.027999999999999   3.756818201616894   0.000000000000000
         66         1         2  -0.42000  26.750999999999998   2.504545467744596   0.000000000000000
         67         1         1   0.42000  28.196999999999999   2.504545467744596   0.000000000000000
         68         1         2  -0.42000  28.919999999999998   3.756818201616894   0.000000000000000
         69         1         1   0.42000  30.366000000000000   3.756818201616894   0.000000000000000
         70         1         2  -0.42000  31.088999999999999   2.504545467744596   0.000000000000000
         71         1         1   0.42000  32.534999999999997   2.504545467744596   0.000000000000000
         72         1         2  -0.42000  33.258000000000003   3.756818201616894   0.000000000000000
         73         1         1   0.42000  34.704000000000001   3.756818201616894   0.000000000000000
         74         1         2  -0.42000  35.427000000000000   2.504545467744596   0.000000000000000
         75         1         1   0.42000  36.872999999999998   2.504545467744596   0.000000000000000
         76         1         2  -0.42000  37.596000000000004   3.756818201616894   0.000000000000000
         77         1         1   0.42000  39.042000000000002   3.756818201616894   0.000000000000000
         78         1         2  -0.42000  39.765000000000001   2.504545467744596   0.000000000000000
         79         1         1   0.42000  41.210999999999999   2.504545467744596   0.000000000000000
         80         1         2  -0.42000  41.934000000000005   3.756818201616894   0.000000000000000
         81         1         1   0.42000   0.000000000000000   6.261363669361490   0.000000000000000
         82         1         2  -0.42000   0.723000000000000   5.009090935489192   0.000000000000000
         83         1         1   0.42000   2.169000000000000   5.009090935489192   0.000000000000000
         84         1         2  -0.42000   2.892000000000000   6.261363669361490   0.000000000000000
         85         1         1   0.42000   4.338000000000000   6.261363669361490   0.000000000000000
         86         1         2  -0.42000   5.061000000000000   5.009090935489192   0.000000000000000
         87         1         1   0.42000   6.507000000000000   5.009090935489192   0.000000000000000
         88         1         2  -0.42000   7.230000000000000   6.261363669361490   0.000000000000000
         89         1         1   0.42000   8.676000000000000   6.261363669361490   0.000000000000000
         90         1         2  -0.42000   9.399000000000001   5.009090935489192   0.000000000000000
         91         1         1   0.42000  10.845000000000001   5.009090935489192   0.000000000000000
         92         1         2  -0.42000  11.568000000000000   6.261363669361490   0.000000000000000
         93         1         1   0.42000  13.013999999999999   6.261363669361490   0.000000000000000
         94         1         2  -0.42000  13.737000000000000   5.009090935489192   0.000000000000000
         95         1         1   0.42000  15.183000000000000   5.009090935489192   0.000000000000000
         96         1         2  -0.42000  15.905999999999999   6.261363669361490   0.000000000000000
         97         1         1   0.42000  17.352000000000000   6.261363669361490   0.000000000000000
         98         1         2  -0.42000  18.074999999999999   5.009090935489192   0.000000000000000
         99         1         1   0.42000  19.521000000000001   5.009090935489192   0.000000000000000
        100         1         2  -0.42000  20.244000000000000   6.261363669361490   0.000000000000000
        101         1         1   0.42000  21.690000000000001   6.261363669361490   0.000000000000000
        102         1         2  -0.42000  22.413000000000000   5.009090935489192   0.000000000000000
        103         1         1   0.42000  23.859000000000002   5.009090935489192   0.000000000000000
        104         1         2  -0.42000  24.582000000000001   6.261363669361490   0.000000000000000
        105         1         1   0.42000  26.027999999999999   6.261363669361490   0.000000000000000
        106         1         2  -0.42000  26.750999999999998   5.009090935489192   0.000000000000000
        107         1         1   0.42000  28.196999999999999   5.009090935489192   0.000000000000000
        108         1         2  -0.42000  28.919999999999998   6.261363669361490   0.000000000000000
        109         1         1   0.42000  30.366000000000000   6.261363669361490   0.000000000000000
        110         1         2  -0.42000  31.088999999999999   5.009090935489192   0.000000000000000
        111         1         1   0.42000  32.534999999999997   5.009090935489192   0.000000000000000
        112         1         2  -0.42000  33.258000000000003   6.261363669361490   0.000000000000000
        113         1         1   0.42000  34.704000000000001   6.261363669361490   0.000000000000000
        114         1         2  -0.42000  35.427000000000000   5.009090935489192   0.000000000000000
        115         1         1   0.42000  36.872999999999998   5.009090935489192   0.000000000000000
        116         1         2  -0.42000  37.596000000000004   6.261363669361490   0.000000000000000
        117         1         1   0.42000  39.042000000000002   6.261363669361490   0.000000000000000
        118         1         2  -0.42000  39.765000000000001   5.009090935489192   0.000000000000000
        119         1         1   0.42000  41.210999999999999   5.009090935489192   0.000000000000000
        120         1         2  -0.42000  41.934000000000005   6.261363669361490   0.000000000000000
        121         1         1   0.42000   0.000000000000000   8.765909137106087   0.000000000000000
        122         1         2  -0.42000   0.723000000000000   7.513636403233789   0.000000000000000
        123         1         1   0.42000   2.169000000000000   7.513636403233789   0.000000000000000
        124         1         2  -0.42000   2.892000000000000   8.765909137106087   0.000000000000000
        125         1         1   0.42000   4.338000000000000   8.765909137106087   0.000000000000000
        126         1         2  -0.42000   5.061000000000000   7.513636403233789   0.000000000000000
        127         1         1   0.42000   6.507000000000000   7.513636403233789   0.000000000000000
        128         1         2  -0.42000   7.230000000000000   8.765909137106087   0.000000000000000
        129         1         1   0.42000   8.676000000000000   8.765909137106087   0.000000000000000
        130         1         2  -0.42000   9.399000000000001   7.513636403233789   0.000000000000000
        131         1         1   0.42000  10.845000000000001   7.513636403233789   0.000000000000000
        132         1         2  -0.42000  11.568000000000000   8.765909137106087   0.000000000000000
        133         1         1   0.42000  13.013999999999999   8.765909137106087   0.000000000000000
        134         1         2  -0.42000  13.737000000000000   7.513636403233789   0.000000000000000
        135         1         1   0.42000  15.183000000000000   7.513636403233789   0.000000000000000
        136         1         2  -0.42000  15.905999999999999   8.765909137106087   0.000000000000000
        137         1         1   0.42000  17.352000000000000   8.765909137106087   0.000000000000000
        138         1         2  -0.42000  18.074999999999999   7.513636403233789   0.000000000000000
        139         1         1   0.42000  19.521000000000001   7.513636403233789   0.000000000000000
        140         1         2  -0.42000  20.244000000000000   8.765909137106087   0.000000000000000
        141         1         1   0.42000  21.690000000000001   8.765909137106087   0.000000000000000
        142         1         2  -0.42000  22.413000000000000   7.513636403233789   0.000000000000000
        143         1         1   0.42000  23.859000000000002   7.513636403233789   0.000000000000000
        144         1         2  -0.42000  24.582000000000001   8.765909137106087   0.000000000000000
        145         1         1   0.42000  26.027999999999999   8.765909137106087   0.000000000000000
        146         1         2  -0.42000  26.750999999999998   7.513636403233789   0.000000000000000
        147         1         1   0.42000  28.196999999999999   7.513636403233789   0.000000000000000
        148         1         2  -0.42000  28.919999999999998   8.765909137106087   0.000000000000000
        149         1         1   0.42000  30.366000000000000   8.765909137106087   0.000000000000000
        150         1         2  -0.42000  31.088999999999999   7.513636403233789   0.000000000000000
        151         1         1   0.42000  32.534999999999997   7.513636403233789   0.000000000000000
        152         1         2  -0.42000  33.258000000000003   8.765909137106087   0.000000000000000
        153         1         1   0.42000  34.704000000000001   8.765909137106087   0.000000000000000
        154         1         2  -0.42000  35.427000000000000   7.513636403233789   0.000000000000000
        155         1         1   0.42000  36.872999999999998   7.513636403233789   0.000000000000000
        156         1         2  -0.42000  37.596000000000004   8.765909137106087   0.000000000000000
        157         1         1   0.42000  39.042000000000002   8.765909137106087   0.000000000000000
        158         1         2  -0.42000  39.765000000000001   7.513636403233789   0.000000000000000
        159         1         1   0.42000  41.210999999999999   7.513636403233789   0.000000000000000
        160         1         2  -0.42000  41.934000000000005   8.765909137106087   0.000000000000000
        161         1         1   0.42000   0.000000000000000  11.270454604850682   0.000000000000000
        162         1         2  -0.42000   0.723000000000000  10.018181870978385   0.000000000000000
        163         1         1   0.42000   2.169000000000000  10.018181870978385   0.000000000000000
        164         1         2  -0.42000   2.892000000000000  11.270454604850682   0.000000000000000
        165         1         1   0.42000   4.338000000000000  11.270454604850682   0.000000000000000
        166         1         2  -0.42000   5.061000000000000  10.018181870978385   0.000000000000000
        167         1         1   0.42000   6.507000000000000  10.018181870978385   0.000000000000000
        168         1         2  -0.42000   7.230000000000000  11.270454604850682   0.000000000000000
        169         1         1   0.42000   8.676000000000000  11.270454604850682   0.000000000000000
        170         1         2  -0.42000   9.399000000000001  10.018181870978385   0.000000000000000
        171         1         1   0.42000  10.845000000000001  10.018181870978385   0.000000000000000
        172         1         2  -0.42000  11.568000000000000  11.270454604850682   0.000000000000000
        173         1         1   0.42000  13.013999999999999  11.270454604850682   0.000000000000000
        174         1         2  -0.42000  13.737000000000000  10.018181870978385   0.000000000000000
        175         1         1   0.42000  15.183000000000000  10.018181870978385   0.000000000000000
        176         1         2  -0.42000  15.905999999999999  11.270454604850682   0.000000000000000
        177         1         1   0.42000  17.352000000000000  11.270454604850682   0.000000000000000
        178         1         2  -0.42000  18.074999999999999  10.018181870978385   0.000000000000000
        179         1         1   0.42000  19.521000000000001  10.018181870978385   0.000000000000000
        180         1         2  -0.42000  20.244000000000000  11.270454604850682   0.000000000000000
        181         1         1   0.42000  21.690000000000001  11.270454604850682   0.000000000000000
        182         1         2  -0.42000  22.413000000000000  10.018181870978385   0.000000000000000
        183         1         1   0.42000  23.859000000000002  10.018181870978385   0.000000000000000
        184         1         2  -0.42000  24.582000000000001  11.270454604850682   0.000000000000000
        185         1         1   0.42000  26.027999999999999  11.270454604850682   0.000000000000000
        186         1         2  -0.42000  26.750999999999998  10.018181870978385   0.000000000000000
        187         1         1   0.42000  28.196999999999999  10.018181870978385   0.000000000000000
        188         1         2  -0.42000  28.919999999999998  11.270454604850682   0.000000000000000
        189         1         1   0.42000  30.366000000000000  11.270454604850682   0.000000000000000
        190         1         2  -0.42000  31.088999999999999  10.018181870978385   0.000000000000000
        191         1         1   0.42000  32.534999999999997  10.018181870978385   0.000000000000000
        192         1         2  -0.42000  33.258000000000003  11.270454604850682   0.000000000000000
        193         1         1   0.42000  34.704000000000001  11.270454604850682   0.000000000000000
        194         1         2  -0.42000  35.427000000000000  10.018181870978385   0.000000000000000
        195         1         1   0.42000  36.872999999999998  10.018181870978385   0.000000000000000
        196         1         2  -0.42000  37.596000000000004  11.270454604850682   0.000000000000000
        197         1         1   0.42000  39.042000000000002  11.270454604850682   0.000000000000000
        198         1         2  -0.42000  39.765000000000001  10.018181870978385   0.000000000000000
        199         1         1   0.42000  41.210999999999999  10.018181870978385   0.000000000000000
        200         1         2  -0.42000  41.934000000000005  11.270454604850682   0.000000000000000
        201         1         1   0.42000   0.000000000000000  13.775000072595278   0.000000000000000
        202         1         2  -0.42000   0.723000000000000  12.522727338722980   0.000000000000000
        203         1         1   0.42000   2.169000000000000  12.522727338722980   0.000000000000000
        204         1         2  -0.42000   2.892000000000000  13.775000072595278   0.000000000000000
        205         1         1   0.42000   4.338000000000000  13.775000072595278   0.000000000000000
        206         1         2  -0.42000   5.061000000000000  12.522727338722980   0.000000000000000
        207         1         1   0.42000   6.507000000000000  12.522727338722980   0.000000000000000
        208         1         2  -0.42000   7.230000000000000  13.775000072595278   0.000000000000000
        209         1         1   0.42000   8.676000000000000  13.775000072595278   0.000000000000000
        210         1         2  -0.42000   9.399000000000001  12.522727338722980   0.000000000000000
        211         1         1   0.42000  10.845000000000001  12.522727338722980   0.000000000000000
        212         1         2  -0.42000  11.568000000000000  13.775000072595278   0.000000000000000
        213         1         1   0.42000  13.013999999999999  13.775000072595278   0.000000000000000
        214         1         2  -0.42000  13.737000000000000  12.522727338722980   0.000000000000000
        215         1         1   0.42000  15.183000000000000  12.522727338722980   0.000000000000000
        216         1         2  -0.42000  15.905999999999999  13.775000072595278   0.000000000000000
        217         1         1   0.42000  17.352000000000000  13.775000072595278   0.000000000000000
        218         1         2  -0.42000  18.074999999999999  12.522727338722980   0.000000000000000
        219         1         1   0.42000  19.521000000000001  12.522727338722980   0.000000000000000
        220         1         2  -0.42000  20.244000000000000  13.775000072595278   0.000000000000000
        221         1         1   0.42000  21.690000000000001  13.775000072595278   0.000000000000000
        222         1         2  -0.42000  22.413000000000000  12.522727338722980   0.000000000000000
        223         1         1   0.42000  23.859000000000002  12.522727338722980   0.000000000000000
        224         1         2  -0.42000  24.582000000000001  13.775000072595278   0.000000000000000
        225         1         1   0.42000  26.027999999999999  13.775000072595278   0.000000000000000
        226         1         2  -0.42000  26.750999999999998  12.522727338722980   0.000000000000000
        227         1         1   0.42000  28.196999999999999  12.522727338722980   0.000000000000000
        228         1         2  -0.42000  28.919999999999998  13.775000072595278   0.000000000000000
        229         1         1   0.42000  30.366000000000000  13.775000072595278   0.000000000000000
        230         1         2  -0.42000  31.088999999999999  12.522727338722980   0.000000000000000
        231         1         1   0.42000  32.534999999999997  12.522727338722980   0.000000000000000
        232         1         2  -0.42000  33.258000000000003  13.775000072595278   0.000000000000000
        233         1         1   0.42000  34.704000000000001  13.775000072595278   0.000000000000000
        234         1         2  -0.42000  35.427000000000000  12.522727338722980   0.000000000000000
        235         1         1   0.42000  36.872999999999998  12.522727338722980   0.000000000000000
        236         1         2  -0.42000  37.596000000000004  13.775000072595278   0.000000000000000
        237         1         1   0.42000  39.042000000000002  13.775000072595278   0.000000000000000
        238         1         2  -0.42000  39.765000000000001  12.522727338722980   0.000000000000000
        239         1         1   0.42000  41.210999999999999  12.522727338722980   0.000000000000000
        240         1         2  -0.42000  41.934000000000005  13.775000072595278   0.000000000000000
        241         1         1   0.42000   0.000000000000000  16.279545540339875   0.000000000000000
        242         1         2  -0.42000   0.723000000000000  15.027272806467577   0.000000000000000
        243         1         1   0.42000   2.169000000000000  15.027272806467577   0.000000000000000
        244         1         2  -0.42000   2.892000000000000  16.279545540339875   0.000000000000000
        245         1         1   0.42000   4.338000000000000  16.279545540339875   0.000000000000000
        246         1         2  -0.42000   5.061000000000000  15.027272806467577   0.000000000000000
        247         1         1   0.42000   6.507000000000000  15.027272806467577   0.000000000000000
        248         1         2  -0.42000   7.230000000000000  16.279545540339875   0.000000000000000
        249         1         1   0.42000   8.676000000000000  16.279545540339875   0.000000000000000
        250         1         2  -0.42000   9.399000000000001  15.027272806467577   0.000000000000000
        251         1         1   0.42000  10.845000000000001  15.027272806467577   0.000000000000000
        252         1         2  -0.42000  11.568000000000000  16.279545540339875   0.000000000000000
        253         1         1   0.42000  13.013999999999999  16.279545540339875   0.000000000000000
        254         1         2  -0.42000  13.737000000000000  15.027272806467577   0.000000000000000
        255         1         1   0.42000  15.183000000000000  15.027272806467577   0.000000000000000
        256         1         2  -0.42000  15.905999999999999  16.279545540339875   0.000000000000000
        257         1         1   0.42000  17.352000000000000  16.279545540339875   0.000000000000000
        258         1         2  -0.42000  18.074999999999999  15.027272806467577   0.000000000000000
        259         1         1   0.42000  19.521000000000001  15.027272806467577   0.000000000000000
        260         1         2  -0.42000  20.244000000000000  16.279545540339875   0.000000000000000
        261         1         1   0.42000  21.690000000000001  16.279545540339875   0.000000000000000
        262         1         2  -0.42000  22.413000000000000  15.027272806467577   0.000000000000000
        263         1         1   0.42000  23.859000000000002  15.027272806467577   0.000000000000000
        264         1         2  -0.42000  24.582000000000001  16.279545540339875   0.000000000000000
        265         1         1   0.42000  26.027999999999999  16.279545540339875   0.000000000000000
        266         1         2  -0.42000  26.750999999999998  15.027272806467577   0.000000000000000
        267         1         1   0.42000  28.196999999999999  15.027272806467577   0.000000000000000
        268         1         2  -0.42000  28.919999999999998  16.279545540339875   0.000000000000000
        269         1         1   0.42000  30.366000000000000  16.279545540339875   0.000000000000000
        270         1         2  -0.42000  31.088999999999999  15.027272806467577   0.000000000000000
        271         1         1   0.42000  32.534999999999997  15.027272806467577   0.000000000000000
        272         1         2  -0.42000  33.258000000000003  16.279545540339875   0.000000000000000
        273         1         1   0.42000  34.704000000000001  16.279545540339875   0.000000000000000
        274         1         2  -0.42000  35.427000000000000  15.027272806467577   0.000000000000000
        275         1         1   0.42000  36.872999999999998  15.027272806467577   0.000000000000000
        276         1         2  -0.42000  37.596000000000004  16.279545540339875   0.000000000000000
        277         1         1   0.42000  39.042000000000002  16.279545540339875   0.000000000000000
        278         1         2  -0.42000  39.765000000000001  15.027272806467577   0.000000000000000
        279         1         1   0.42000  41.210999999999999  15.027272806467577   0.000000000000000
        280         1         2  -0.42000  41.934000000000005  16.279545540339875   0.000000000000000
        281         1         1   0.42000   0.000000000000000  18.784091008084474   0.000000000000000
        282         1         2  -0.42000   0.723000000000000  17.531818274212174   0.000000000000000
        283         1         1   0.42000   2.169000000000000  17.531818274212174   0.000000000000000
        284         1         2  -0.42000   2.892000000000000  18.784091008084474   0.000000000000000
        285         1         1   0.42000   4.338000000000000  18.784091008084474   0.000000000000000
        286         1         2  -0.42000   5.061000000000000  17.531818274212174   0.000000000000000
        287         1         1   0.42000   6.507000000000000  17.531818274212174   0.000000000000000
        288         1         2  -0.42000   7.230000000000000  18.784091008084474   0.000000000000000
        289         1         1   0.42000   8.676000000000000  18.784091008084474   0.000000000000000
        290         1         2  -0.42000   9.399000000000001  17.531818274212174   0.000000000000000
        291         1         1   0.42000  10.845000000000001  17.531818274212174   0.000000000000000
        292         1         2  -0.42000  11.568000000000000  18.784091008084474   0.000000000000000