
    # =========================================================================
    # LAMMPS file for 'read_data' command                                      
    # 
    # Generated by selm python scripts by Paul J. Atzberger.
    # 
    # =========================================================================
    
    # =========================================================================
    # Description:
    # -------------------------------------------------------------------------
    # 
    # SELM_Lagrangian = SELM_Lagrangian_LAMMPS_ATOM_ANGLE_STYLE
    # LagrangianName = Points
    # LagrangianTypeStr = LAMMPS_ATOM_ANGLE_STYLE
    # 
    # SELM_Eulerian   = SELM_Eulerian_LAMMPS_SHEAR_UNIFORM1_FFTW3
    #
    # atom_type = angle_type
    #
    # =========================================================================
    
    # =========================================================================
    # Header information:
    # -------------------------------------------------------------------------
    27 atoms
    0 bonds
    0 angles

    1 atom types
    0 bond types
    0 angle types
    # =========================================================================
    
    # =========================================================================
    # Domain Size Specification:
    # -------------------------------------------------------------------------
    -202 202 xlo xhi
    -202 202 ylo yhi
    -202 202 zlo zhi
    0.0 0.0 0.0 xy xz yz
    # =========================================================================
    
    # =========================================================================
    # Mass Specification:
    #
    # Gives for each atom the following:
    #    type-ID | mass
    # -------------------------------------------------------------------------
    # Atom Location Specification:
    #
    # Gives for atom angle_type the following:
    #    atom-ID | molecule-ID | type-ID | x | y | z
    # -------------------------------------------------------------------------
    # Bond Specification:
    #
    # Gives for atom angle_type the following:
    #    bond-ID | type-ID | atom1-ID | atom2-ID
    # -------------------------------------------------------------------------
    # Angle Specification:
    #
    # Gives for atom angle_type the following:
    #    angle-ID | type-ID | atom1-ID | atom2-ID | atom3-ID
    # -------------------------------------------------------------------------
    # WARNING: atom-ID, type-ID, molecule-ID must be between 1 - N             
    # -------------------------------------------------------------------------
    
    Masses

    1 1.1230000

    Atoms

    1 2 1 -135.0000000 -135.0000000 -135.0000000
2 2 1 -135.0000000 -135.0000000 0.0000000
3 2 1 -135.0000000 -135.0000000 135.0000000
4 2 1 0.0000000 -135.0000000 -135.0000000
5 2 1 0.0000000 -135.0000000 0.0000000
6 2 1 0.0000000 -135.0000000 135.0000000
7 2 1 135.0000000 -135.0000000 -135.0000000
8 2 1 135.0000000 -135.0000000 0.0000000
9 2 1 135.0000000 -135.0000000 135.0000000
10 2 1 -135.0000000 0.0000000 -135.0000000
11 2 1 -135.0000000 0.0000000 0.0000000
12 2 1 -135.0000000 0.0000000 135.0000000
13 2 1 0.0000000 0.0000000 -135.0000000
14 2 1 0.0000000 0.0000000 0.0000000
15 2 1 0.0000000 0.0000000 135.0000000
16 2 1 135.0000000 0.0000000 -135.0000000
17 2 1 135.0000000 0.0000000 0.0000000
18 2 1 135.0000000 0.0000000 135.0000000
19 2 1 -135.0000000 135.0000000 -135.0000000
20 2 1 -135.0000000 135.0000000 0.0000000
21 2 1 -135.0000000 135.0000000 135.0000000
22 2 1 0.0000000 135.0000000 -135.0000000
23 2 1 0.0000000 135.0000000 0.0000000
24 2 1 0.0000000 135.0000000 135.0000000
25 2 1 135.0000000 135.0000000 -135.0000000
26 2 1 135.0000000 135.0000000 0.0000000
27 2 1 135.0000000 135.0000000 135.0000000
