LAMMPS (22 June 2007)
# 2d LJ crack simulation

dimension	2
boundary	s s p

atom_style	atomic
neighbor	0.3 bin
neigh_modify	delay 5

# create geometry

lattice		hex 0.93
Lattice spacing in x,y,z = 1.11428 1.92998 1.11428
region		box block 0 100 0 40 -0.25 0.25
create_box	5 box
Created orthogonal box = (0 0 -0.278569) to (111.428 77.1994 0.278569)
  1 by 1 by 1 processor grid
create_atoms	1 box
Created 8141 atoms

mass		1 1.0
mass		2 1.0
mass		3 1.0
mass		4 1.0
mass		5 1.0

# LJ potentials

pair_style	lj/cut 2.5
pair_coeff	* * 1.0 1.0 2.5

# define groups

region	        1 block INF INF INF 1.25 INF INF
group		lower region 1
302 atoms in group lower
region		2 block INF INF 38.75 INF INF INF
group		upper region 2
302 atoms in group upper
group		boundary union lower upper
604 atoms in group boundary
group		mobile subtract all boundary
7537 atoms in group mobile

region		leftupper block INF 20 20 INF INF INF
region		leftlower block INF 20 INF 20 INF INF
group		leftupper region leftupper
820 atoms in group leftupper
group		leftlower region leftlower
841 atoms in group leftlower

set		group leftupper type 2
  820 settings made for type
set		group leftlower type 3
  841 settings made for type
set		group lower type 4
  302 settings made for type
set		group upper type 5
  302 settings made for type

# initial velocities

compute	  	new mobile temp
velocity	mobile create 0.01 887723 temp new
velocity	upper set 0.0 0.3 0.0
velocity	mobile ramp vy 0.0 0.3 y 1.25 38.75 sum yes

# fixes

fix		1 all nve
fix		2 boundary setforce NULL 0.0 0.0

# run

timestep	0.003
thermo		200
thermo_modify	temp new

neigh_modify	exclude type 2 3
dump		1 all atom 500 dump.crack
run		5000
Memory usage per processor = 2.04243 Mbytes
Step Temp E_pair E_mol TotEng Press Volume 
       0  0.065655433   -3.2595015            0   -3.1987293 -0.043381291    4792.6107 
     200  0.060090071   -3.2531939            0   -3.1975731  -0.27682436    4811.1142 
     400  0.060537254   -3.2509976            0   -3.1949629  -0.51538634    4833.6384 
     600  0.060833381   -3.2466952            0   -3.1903864  -0.72165405    4854.5327 
     800  0.061681012   -3.2413218            0   -3.1842284  -0.89573177    4876.5182 
    1000  0.062387584   -3.2349276            0   -3.1771802    -1.046532    4897.0644 
    1200  0.063713197   -3.2276097            0   -3.1686353   -1.1733596     4916.992 
    1400  0.065408625   -3.2196611            0   -3.1591173   -1.2802996    4937.9378 
    1600  0.067583821   -3.2110381            0   -3.1484809   -1.3713947    4956.9814 
    1800  0.069328584   -3.2018539            0   -3.1376817   -1.4389808    4974.9955 
    2000  0.071019398    -3.192111            0   -3.1263738   -1.4879518    4992.2457 
    2200  0.072997487   -3.1818704            0   -3.1143022   -1.5204135    5014.7654 
    2400  0.075005457   -3.1712316            0   -3.1018048   -1.5359222    5031.8024 
    2600  0.076848328   -3.1601006            0    -3.088968   -1.5313163    5052.4867 
    2800  0.078676694    -3.148775            0     -3.07595   -1.5154187    5070.2113 
    3000  0.080718743    -3.137326            0   -3.0626108   -1.4892046     5087.256 
    3200  0.083100049   -3.1260245            0   -3.0491051   -1.4538734    5106.4445 
    3400  0.085430328   -3.1146626            0   -3.0355863   -1.4172254    5127.5606 
    3600  0.087402049   -3.1029496            0   -3.0220482   -1.3687184    5142.5301 
    3800  0.089013695   -3.0908222            0   -3.0084291   -1.3168466    5156.5957 
    4000  0.089818767    -3.079408            0   -2.9962696   -1.2722766    5169.2872 
    4200  0.085852921   -3.0668561            0   -2.9873886   -1.2424995    5184.3213 
    4400  0.086203112   -3.0559681            0   -2.9761765   -1.2315726    5195.5481 
    4600  0.086772028   -3.0437629            0   -2.9634447   -1.2220387    5213.9452 
    4800  0.088200815   -3.0328504            0   -2.9512097   -1.2296115    5232.6714 
    5000   0.08942145   -3.0228831            0   -2.9401125   -1.2228214    5255.2593 
Loop time of 45.1427 on 1 procs for 5000 steps with 8141 atoms

Pair  time (%) = 36.1309 (80.0372)
Neigh time (%) = 1.29244 (2.86301)
Comm  time (%) = 0.075937 (0.168216)
Outpt time (%) = 0.437291 (0.968687)
Other time (%) = 7.20605 (15.9628)

Nlocal:    8141 ave 8141 max 8141 min
Histogram: 1 0 0 0 0 0 0 0 0 0
Nghost:    0 ave 0 max 0 min
Histogram: 1 0 0 0 0 0 0 0 0 0
Neighs:    71389 ave 71389 max 71389 min
Histogram: 1 0 0 0 0 0 0 0 0 0

Total # of neighbors = 71389
Ave neighs/atom = 8.76907
Neighbor list builds = 100
Dangerous builds = 0
