LAMMPS (17 Apr 2024 - Development - patch_17Apr2024-174-g749e259294-modified)
# LAMMPS input file in real units via oxdna lj2real.py, date 2024-05-19
variable number	equal 2
variable ofreq	equal 1000
variable efreq	equal 1000
variable T      equal 300.0
variable rhos   equal 0.5

units real

dimension 3

newton on

boundary  p p p

atom_style hybrid bond ellipsoid oxdna
WARNING: Atom style hybrid defines both, per-type and per-atom masses; both must be set, but only per-atom masses will be used (../atom_vec_hybrid.cpp:132)
atom_modify sort 0 8.518

# Pair interactions require lists of neighbours to be calculated
neighbor 17.036 bin
neigh_modify every 1 delay 0 check yes

read_data data.duplex2
Reading data file ...
  orthogonal box = (-170 -170 -170) to (170 170 170)
  1 by 1 by 1 MPI processor grid
  reading atoms ...
  16 atoms
  reading velocities ...
  16 velocities
  scanning bonds ...
  1 = max bonds/atom
  16 ellipsoids
  orthogonal box = (-170 -170 -170) to (170 170 170)
  1 by 1 by 1 MPI processor grid
  reading bonds ...
  13 bonds
Finding 1-2 1-3 1-4 neighbors ...
  special bond factors lj:    0        0        0       
  special bond factors coul:  0        0        0       
     2 = max # of 1-2 neighbors
     2 = max # of 1-3 neighbors
     4 = max # of 1-4 neighbors
     6 = max # of special neighbors
  special bonds CPU = 0.000 seconds
  read_data CPU = 0.009 seconds

set atom * mass 315.8376
Setting atom values ...
  16 settings made for mass

group all type 1 4
16 atoms in group all

# oxRNA2 bond interactions - FENE backbone
bond_style oxrna2/fene
bond_coeff * 11.92337812042065 2.1295 6.482800913
special_bonds lj 0 1 1
Finding 1-2 1-3 1-4 neighbors ...
  special bond factors lj:    0        1        1       
  special bond factors coul:  0        0        0       
     2 = max # of 1-2 neighbors
     2 = max # of 1-3 neighbors
     4 = max # of 1-4 neighbors
     6 = max # of special neighbors
  special bonds CPU = 0.000 seconds

# oxRNA2 pair interactions
pair_style hybrid/overlay oxrna2/excv oxrna2/stk oxrna2/hbond oxrna2/xstk oxrna2/coaxstk oxrna2/dh
pair_coeff * * oxrna2/excv 11.92337812042065 5.9626 5.74965 11.92337812042065 4.38677 4.259 11.92337812042065 2.81094 2.72576
pair_coeff * * oxrna2/stk seqdep ${T} 8.35864576375849 0.005504556 0.70439070204273 3.66274 7.92174 2.9813 6.64404 0.9 0.0 0.95 0.9 0.0 0.95 1.3 0.0 0.8 1.3 0.0 0.8 2.0 0.65 2.0 0.65
pair_coeff * * oxrna2/stk seqdep 300 8.35864576375849 0.005504556 0.70439070204273 3.66274 7.92174 2.9813 6.64404 0.9 0.0 0.95 0.9 0.0 0.95 1.3 0.0 0.8 1.3 0.0 0.8 2.0 0.65 2.0 0.65
pair_coeff * * oxrna2/hbond seqdep 0.0 0.93918760272364 3.4072 6.3885 2.89612 5.9626 1.5 0.0 0.7 1.5 0.0 0.7 1.5 0.0 0.7 0.46 3.141592653589793 0.7 4.0 1.5707963267948966 0.45 4.0 1.5707963267948966 0.45
pair_coeff 1 4 oxrna2/hbond seqdep 5.18928666388042 0.93918760272364 3.4072 6.3885 2.89612 5.9626 1.5 0.0 0.7 1.5 0.0 0.7 1.5 0.0 0.7 0.46 3.141592653589793 0.7 4.0 1.5707963267948966 0.45 4.0 1.5707963267948966 0.45
pair_coeff 2 3 oxrna2/hbond seqdep 5.18928666388042 0.93918760272364 3.4072 6.3885 2.89612 5.9626 1.5 0.0 0.7 1.5 0.0 0.7 1.5 0.0 0.7 0.46 3.141592653589793 0.7 4.0 1.5707963267948966 0.45 4.0 1.5707963267948966 0.45
pair_coeff 3 4 oxrna2/hbond seqdep 5.18928666388042 0.93918760272364 3.4072 6.3885 2.89612 5.9626 1.5 0.0 0.7 1.5 0.0 0.7 1.5 0.0 0.7 0.46 3.141592653589793 0.7 4.0 1.5707963267948966 0.45 4.0 1.5707963267948966 0.45
pair_coeff * * oxrna2/xstk 4.92690859644113 4.259 5.1108 3.57756 4.94044 2.25 0.505 0.58 1.7 1.266 0.68 1.7 1.266 0.68 1.7 0.309 0.68 1.7 0.309 0.68
pair_coeff * * oxrna2/coaxstk 6.57330882442206 4.259 5.1108 3.57756 4.94044 2.0 2.592 0.65 1.3 0.151 0.8 0.9 0.685 0.95 0.9 0.685 0.95 2.0 -0.65 2.0 -0.65
pair_coeff * * oxrna2/dh ${T} ${rhos} 1.02455
pair_coeff * * oxrna2/dh 300 ${rhos} 1.02455
pair_coeff * * oxrna2/dh 300 0.5 1.02455

# NVE ensemble
fix 1 all nve/asphere
#fix 2 all langevin ${T} ${T} 4265.0 457145 angmom 10

timestep 0.01706

#comm_style tiled
fix 3 all balance 1000 1.03 shift xyz 10 1.03
comm_modify cutoff 32.4

compute quat all property/atom quatw quati quatj quatk

compute erot all erotate/asphere
compute ekin all ke
compute epot all pe
variable erot equal c_erot
variable ekin equal c_ekin
variable epot equal c_epot
variable etot equal c_erot+c_ekin+c_epot
fix 5 all print ${efreq} "$(step)  ekin = ${ekin} |  erot = ${erot} | epot = ${epot} | etot = ${etot}" screen yes
fix 5 all print 1000 "$(step)  ekin = ${ekin} |  erot = ${erot} | epot = ${epot} | etot = ${etot}" screen yes

dump out all custom ${ofreq} out.${number}.lammpstrj id mol type x y z ix iy iz vx vy vz c_quat[1] c_quat[2] c_quat[3] c_quat[4] angmomx angmomy angmomz
dump out all custom 1000 out.${number}.lammpstrj id mol type x y z ix iy iz vx vy vz c_quat[1] c_quat[2] c_quat[3] c_quat[4] angmomx angmomy angmomz
dump out all custom 1000 out.2.lammpstrj id mol type x y z ix iy iz vx vy vz c_quat[1] c_quat[2] c_quat[3] c_quat[4] angmomx angmomy angmomz
dump_modify out sort id
dump_modify out format line "%d %d %d  %22.15le %22.15le %22.15le  %d %d %d  %22.15le %22.15le %22.15le  %22.15le %22.15le %22.15le %22.15le  %22.15le %22.15le %22.15le"

run 1000000
Generated 0 of 6 mixed pair_coeff terms from geometric mixing rule
Neighbor list info ...
  update: every = 1 steps, delay = 0 steps, check = yes
  max neighbors/atom: 2000, page size: 100000
  master list distance cutoff = 36.640032
  ghost atom cutoff = 36.640032
  binsize = 18.320016, bins = 19 19 19
  5 neighbor lists, perpetual/occasional/extra = 5 0 0
  (1) pair oxrna2/excv, perpetual
      attributes: half, newton on
      pair build: half/bin/newton
      stencil: half/bin/3d
      bin: standard
  (2) pair oxrna2/hbond, perpetual, copy from (1)
      attributes: half, newton on
      pair build: copy
      stencil: none
      bin: none
  (3) pair oxrna2/xstk, perpetual, copy from (1)
      attributes: half, newton on
      pair build: copy
      stencil: none
      bin: none
  (4) pair oxrna2/coaxstk, perpetual, copy from (1)
      attributes: half, newton on
      pair build: copy
      stencil: none
      bin: none
  (5) pair oxrna2/dh, perpetual, copy from (1)
      attributes: half, newton on
      pair build: copy
      stencil: none
      bin: none
WARNING: Communication cutoff adjusted to 36.640032409886274 (../comm.cpp:739)
0  ekin = 16.1203242878408 |  erot = 16.6982509426318 | epot = -66.3830249260541 | etot = -33.5644496955815
Per MPI rank memory allocation (min/avg/max) = 7.592 | 7.592 | 7.592 Mbytes
   Step          Temp          E_pair         E_mol          TotEng         Press          Volume    
         0   360.53565     -69.627742      3.2447172     -50.262701      0.034084814    39304000     
1000  ekin = 16.3558183649387 |  erot = 16.6323090455317 | epot = -66.5525771041996 | etot = -33.5644496937292
2000  ekin = 16.6191649168148 |  erot = 16.5684372137643 | epot = -66.7520518221218 | etot = -33.5644496915427
3000  ekin = 16.9230904408655 |  erot = 16.5204480451833 | epot = -67.0079881759689 | etot = -33.5644496899201
4000  ekin = 17.2772162612592 |  erot = 16.4986792932201 | epot = -67.3403452437718 | etot = -33.5644496892925
5000  ekin = 17.6866959075726 |  erot = 16.5050138456573 | epot = -67.7561594428213 | etot = -33.5644496895913
6000  ekin = 18.1531343302965 |  erot = 16.5325161302816 | epot = -68.2501001506517 | etot = -33.5644496900737
7000  ekin = 18.6806534933141 |  erot = 16.5738535187237 | epot = -68.818956701435 | etot = -33.5644496893973
8000  ekin = 19.2766528199697 |  erot = 16.626151587963 | epot = -69.4672540969566 | etot = -33.5644496890239
9000  ekin = 19.946149039732 |  erot = 16.690847598574 | epot = -70.2014463262322 | etot = -33.5644496879261
10000  ekin = 20.6973181248475 |  erot = 16.777296043853 | epot = -71.039063854855 | etot = -33.5644496861545
11000  ekin = 21.5395226247921 |  erot = 16.901420997199 | epot = -72.0053933083061 | etot = -33.564449686315
12000  ekin = 22.4717498465051 |  erot = 17.0791755563663 | epot = -73.1153750880499 | etot = -33.5644496851785
13000  ekin = 23.493621609947 |  erot = 17.3228520870333 | epot = -74.3809233816827 | etot = -33.5644496847025
14000  ekin = 24.6044210071245 |  erot = 17.6425688028836 | epot = -75.8114394947882 | etot = -33.56444968478
15000  ekin = 25.7999389267744 |  erot = 18.0453525578632 | epot = -77.4097411694883 | etot = -33.5644496848507
16000  ekin = 27.0739775537122 |  erot = 18.536114233291 | epot = -79.1745414730759 | etot = -33.5644496860726
17000  ekin = 28.4119581304117 |  erot = 19.1137262760957 | epot = -81.0901340949627 | etot = -33.5644496884552
18000  ekin = 29.7909545183301 |  erot = 19.7704759932753 | epot = -83.1258802031779 | etot = -33.5644496915724
19000  ekin = 31.1831510307731 |  erot = 20.4915974540493 | epot = -85.2391981805602 | etot = -33.5644496957377
20000  ekin = 32.5560965367941 |  erot = 21.2528351748732 | epot = -87.373381412572 | etot = -33.5644497009046
21000  ekin = 33.8683309875658 |  erot = 22.0156446407475 | epot = -89.4484253379449 | etot = -33.5644497096315
22000  ekin = 35.0747510230856 |  erot = 22.7306302808711 | epot = -91.3698310187507 | etot = -33.5644497147941
23000  ekin = 36.1427935644225 |  erot = 23.3543658008635 | epot = -93.0616090845418 | etot = -33.5644497192558
24000  ekin = 37.0484240543208 |  erot = 23.8536351256839 | epot = -94.4665089004153 | etot = -33.5644497204106
25000  ekin = 37.7873483857424 |  erot = 24.2156130941778 | epot = -95.567411199049 | etot = -33.5644497191288
26000  ekin = 38.3695951222895 |  erot = 24.4472028227108 | epot = -96.381247661283 | etot = -33.5644497162827
27000  ekin = 38.814245199114 |  erot = 24.569649643868 | epot = -96.948344555808 | etot = -33.564449712826
28000  ekin = 39.1436511594776 |  erot = 24.6108705414912 | epot = -97.318971410458 | etot = -33.5644497094892
29000  ekin = 39.3799077053085 |  erot = 24.5987493007987 | epot = -97.5431067127119 | etot = -33.5644497066047
30000  ekin = 39.543718776792 |  erot = 24.5572061990989 | epot = -97.6653746802846 | etot = -33.5644497043937
31000  ekin = 39.6556538792218 |  erot = 24.5025482878259 | epot = -97.7226518696589 | etot = -33.5644497026113
32000  ekin = 39.7376908979138 |  erot = 24.4447365565301 | epot = -97.7468771552206 | etot = -33.5644497007767
33000  ekin = 39.8178410436032 |  erot = 24.3917276701347 | epot = -97.7740184125893 | etot = -33.5644496988513
34000  ekin = 39.9276187144877 |  erot = 24.3494773308424 | epot = -97.8415457422145 | etot = -33.5644496968845
35000  ekin = 40.0972017271435 |  erot = 24.3220925820239 | epot = -97.9837440042528 | etot = -33.5644496950853
36000  ekin = 40.3554758289771 |  erot = 24.3121132861365 | epot = -98.2320388089549 | etot = -33.5644496938413
37000  ekin = 40.725317224184 |  erot = 24.3194531164605 | epot = -98.609220034252 | etot = -33.5644496936075
38000  ekin = 41.218461457732 |  erot = 24.3399425111004 | epot = -99.1228536635587 | etot = -33.5644496947263
39000  ekin = 41.8315835745714 |  erot = 24.3642621379406 | epot = -99.7602954097942 | etot = -33.5644496972823
40000  ekin = 42.5444333388251 |  erot = 24.3777906096196 | epot = -100.486673649663 | etot = -33.5644497012185
41000  ekin = 43.3221534386109 |  erot = 24.3619359806986 | epot = -101.248539124816 | etot = -33.5644497055066
42000  ekin = 44.1232219530967 |  erot = 24.2968159627003 | epot = -101.984487625365 | etot = -33.5644497095679
43000  ekin = 44.9043008441337 |  erot = 24.1647850477424 | epot = -102.633535604781 | etot = -33.5644497129045
44000  ekin = 45.6258073685752 |  erot = 23.953775477634 | epot = -103.144032561026 | etot = -33.5644497148168
45000  ekin = 46.2557013508714 |  erot = 23.6596129163789 | epot = -103.47976398388 | etot = -33.5644497166297
46000  ekin = 46.7711396854557 |  erot = 23.2746461161514 | epot = -103.610235519167 | etot = -33.5644497175602
47000  ekin = 47.1576706465411 |  erot = 22.7983985986745 | epot = -103.520518961436 | etot = -33.5644497162202
48000  ekin = 47.4067411848222 |  erot = 22.24189270691 | epot = -103.213083606728 | etot = -33.5644497149961
49000  ekin = 47.5134307536666 |  erot = 21.6212608371929 | epot = -102.699141303773 | etot = -33.5644497129138
50000  ekin = 47.4750496002024 |  erot = 20.9637753825411 | epot = -102.003274691403 | etot = -33.5644497086593
51000  ekin = 47.2893433305646 |  erot = 20.3140174296332 | epot = -101.16781046916 | etot = -33.5644497089623
52000  ekin = 46.9527474071891 |  erot = 19.68086855223 | epot = -100.198065668178 | etot = -33.5644497087592
53000  ekin = 46.4669221029442 |  erot = 19.0628634962126 | epot = -99.0942353064246 | etot = -33.5644497072679
54000  ekin = 45.8347987943733 |  erot = 18.4752794596827 | epot = -97.8745279599043 | etot = -33.5644497058483
55000  ekin = 45.059031662863 |  erot = 17.9341671577873 | epot = -96.5576485255764 | etot = -33.5644497049261
56000  ekin = 44.1409291390452 |  erot = 17.4520797326571 | epot = -95.1574585762239 | etot = -33.5644497045216
57000  ekin = 43.0792908324212 |  erot = 17.037334269452 | epot = -93.6810748066111 | etot = -33.5644497047379
58000  ekin = 41.8704923540597 |  erot = 16.6939394056073 | epot = -92.1288814650802 | etot = -33.5644497054133
59000  ekin = 40.5509408803223 |  erot = 16.4316140927959 | epot = -90.5470046657477 | etot = -33.5644496926295
60000  ekin = 39.1975830612663 |  erot = 16.2583411314114 | epot = -89.0203738856257 | etot = -33.5644496929479
61000  ekin = 35.7114984384222 |  erot = 15.7928074869524 | epot = -85.0687559055441 | etot = -33.5644499801694
62000  ekin = 34.7372517507007 |  erot = 15.809440909604 | epot = -84.1111427028021 | etot = -33.5644500424973
63000  ekin = 35.8178089566977 |  erot = 16.1653492511931 | epot = -85.5476088513045 | etot = -33.5644506434137
64000  ekin = 34.869236370394 |  erot = 16.1670101597177 | epot = -84.6006971860832 | etot = -33.5644506559716
65000  ekin = 33.846449455543 |  erot = 16.1402632189656 | epot = -83.5511633293454 | etot = -33.5644506548368
66000  ekin = 32.7636419796955 |  erot = 16.0751240440813 | epot = -82.4032166770506 | etot = -33.5644506532738
67000  ekin = 31.6420680628872 |  erot = 15.9705642956741 | epot = -81.1770830093356 | etot = -33.5644506507743
68000  ekin = 30.5061166759946 |  erot = 15.8342590047122 | epot = -79.9048263284351 | etot = -33.5644506477283
69000  ekin = 29.3793899831114 |  erot = 15.678409289176 | epot = -78.6222499180454 | etot = -33.564450645758
70000  ekin = 28.284277797061 |  erot = 15.5192251789805 | epot = -77.367953618708 | etot = -33.5644506426665
71000  ekin = 27.2428007223107 |  erot = 15.3775924468402 | epot = -76.1848438089708 | etot = -33.5644506398198
72000  ekin = 26.2738583640461 |  erot = 15.2738682128153 | epot = -75.1121772142973 | etot = -33.5644506374359
73000  ekin = 25.3929266243307 |  erot = 15.225238925301 | epot = -74.1826161852592 | etot = -33.5644506356275
74000  ekin = 24.6118800235875 |  erot = 15.2440811522995 | epot = -73.4204118109363 | etot = -33.5644506350493
75000  ekin = 23.9285421197333 |  erot = 15.2937064902868 | epot = -72.7866996078847 | etot = -33.5644509978647
76000  ekin = 23.6014258497327 |  erot = 14.5530249139084 | epot = -71.7189013877706 | etot = -33.5644506241296
77000  ekin = 24.0021186681933 |  erot = 14.66725562535 | epot = -72.2338249119969 | etot = -33.5644506184536
78000  ekin = 23.7667117018407 |  erot = 14.8821032755388 | epot = -72.2132655967916 | etot = -33.5644506194121
79000  ekin = 23.6362408803388 |  erot = 15.1573231058555 | epot = -72.3580146069914 | etot = -33.5644506207971
80000  ekin = 23.6008292998118 |  erot = 15.4801164769236 | epot = -72.6453963992449 | etot = -33.5644506225096
81000  ekin = 23.6479278988449 |  erot = 15.8366782045229 | epot = -73.0490567276759 | etot = -33.5644506243081
82000  ekin = 23.7631958527379 |  erot = 16.2135577483199 | epot = -73.5412042271318 | etot = -33.564450626074
83000  ekin = 23.9313380513044 |  erot = 16.5989137528036 | epot = -74.0947024318235 | etot = -33.5644506277155
84000  ekin = 24.1405337461447 |  erot = 16.9832739889227 | epot = -74.6882583637861 | etot = -33.5644506287187
85000  ekin = 24.3851366362422 |  erot = 17.3594190811811 | epot = -75.3090063475336 | etot = -33.5644506301102
86000  ekin = 24.6499622429148 |  erot = 17.7229731863063 | epot = -75.9373860604631 | etot = -33.5644506312419
87000  ekin = 24.9195866966142 |  erot = 18.0734917202568 | epot = -76.5575290489246 | etot = -33.5644506320536
88000  ekin = 25.1793742014108 |  erot = 18.4146339772126 | epot = -77.158458811171 | etot = -33.5644506325475
89000  ekin = 25.4156568494618 |  erot = 18.7539686693896 | epot = -77.7340761514978 | etot = -33.5644506326463
90000  ekin = 25.609684003566 |  erot = 19.1040901404673 | epot = -78.2782247770974 | etot = -33.564450633064
91000  ekin = 25.7348417969789 |  erot = 19.4865010462251 | epot = -78.7857934757922 | etot = -33.5644506325881
92000  ekin = 25.7824117490226 |  erot = 19.9168308436453 | epot = -79.2636932257737 | etot = -33.5644506331059
93000  ekin = 25.7436484203098 |  erot = 20.4015276208925 | epot = -79.7096266744475 | etot = -33.5644506332451
94000  ekin = 25.610748739912 |  erot = 20.9498819611228 | epot = -80.1250813342097 | etot = -33.564450633175
95000  ekin = 25.3788454256151 |  erot = 21.5718811146967 | epot = -80.5151771730825 | etot = -33.5644506327707
96000  ekin = 25.0476635684712 |  erot = 22.2778886106733 | epot = -80.8900028110714 | etot = -33.5644506319269
97000  ekin = 24.6228037012614 |  erot = 23.0785820232949 | epot = -81.2658363557903 | etot = -33.5644506312341
98000  ekin = 24.116365030335 |  erot = 23.980262455698 | epot = -81.6610781157446 | etot = -33.5644506297116
99000  ekin = 23.5467601995519 |  erot = 24.9897227937723 | epot = -82.1009336213321 | etot = -33.5644506280079
100000  ekin = 22.9377076830261 |  erot = 26.1125444287915 | epot = -82.6147027382494 | etot = -33.5644506264317
101000  ekin = 22.3162402354139 |  erot = 27.3495277986758 | epot = -83.2302186594579 | etot = -33.5644506253682
102000  ekin = 21.7099673799574 |  erot = 28.6941289887295 | epot = -83.9685469938778 | etot = -33.5644506251909
103000  ekin = 21.1440927333159 |  erot = 30.130413105192 | epot = -84.8389564646036 | etot = -33.5644506260957
104000  ekin = 20.6390360732686 |  erot = 31.6318076720637 | epot = -85.8352943737421 | etot = -33.5644506284097
105000  ekin = 20.2097356178038 |  erot = 33.1559511277913 | epot = -86.9301373769589 | etot = -33.5644506313638
106000  ekin = 19.8659962936248 |  erot = 34.6591523175119 | epot = -88.0895992442174 | etot = -33.5644506330807
107000  ekin = 19.6196926152683 |  erot = 36.100338989929 | epot = -89.2844822415662 | etot = -33.5644506363689
108000  ekin = 19.4737764770476 |  erot = 37.4404659123052 | epot = -90.4786930287931 | etot = -33.5644506394402
109000  ekin = 19.4257211238038 |  erot = 38.6395727467607 | epot = -91.629744515762 | etot = -33.5644506451975
110000  ekin = 19.4643317381238 |  erot = 39.6495422786812 | epot = -92.6783246653831 | etot = -33.5644506485781
111000  ekin = 19.5812097010519 |  erot = 40.4340503208693 | epot = -93.5797106732657 | etot = -33.5644506513445
112000  ekin = 19.7688752467972 |  erot = 40.9641614008033 | epot = -94.2974873012517 | etot = -33.5644506536512
113000  ekin = 20.0199352606492 |  erot = 41.223561768641 | epot = -94.8079476827741 | etot = -33.5644506534839
114000  ekin = 20.3316783135505 |  erot = 41.2208106095099 | epot = -95.1169395739246 | etot = -33.5644506508641
115000  ekin = 20.7092934859859 |  erot = 40.9902193450394 | epot = -95.2639634786059 | etot = -33.5644506475807
116000  ekin = 21.1584070130099 |  erot = 40.5711692188944 | epot = -95.2940268781066 | etot = -33.5644506462023
117000  ekin = 21.6717401642325 |  erot = 40.0068194492249 | epot = -95.2430102574753 | etot = -33.5644506440179
118000  ekin = 22.2304498749719 |  erot = 39.3449170917023 | epot = -95.1398176087352 | etot = -33.5644506420609
119000  ekin = 22.8040322747547 |  erot = 38.6279078104798 | epot = -94.9963907285559 | etot = -33.5644506433214
120000  ekin = 23.3636455910815 |  erot = 37.8733163419356 | epot = -94.801412577584 | etot = -33.564450644567
121000  ekin = 23.888334247959 |  erot = 37.0853024873726 | epot = -94.5380873807864 | etot = -33.5644506454549
122000  ekin = 24.3628295450746 |  erot = 36.261752125414 | epot = -94.1890323184781 | etot = -33.5644506479895
123000  ekin = 24.7728939422985 |  erot = 35.3896441641771 | epot = -93.7269887541641 | etot = -33.5644506476884
124000  ekin = 25.1206142173508 |  erot = 34.4655545655651 | epot = -93.1506194284814 | etot = -33.5644506455655
125000  ekin = 25.4216604350097 |  erot = 33.5035163209335 | epot = -92.4896273979244 | etot = -33.5644506419812
126000  ekin = 25.6927735129491 |  erot = 32.5281184075519 | epot = -91.785342561111 | etot = -33.56445064061
127000  ekin = 25.9460883081172 |  erot = 31.5650113724827 | epot = -91.0755503181662 | etot = -33.5644506375663
128000  ekin = 26.1993872383141 |  erot = 30.6366650539223 | epot = -90.4005029275325 | etot = -33.5644506352961
129000  ekin = 26.4652741313034 |  erot = 29.7610339508673 | epot = -89.7907587151 | etot = -33.5644506329293
130000  ekin = 26.7486727551205 |  erot = 28.9506137583613 | epot = -89.2637371464484 | etot = -33.5644506329667
131000  ekin = 27.0469092029044 |  erot = 28.2034442942497 | epot = -88.8148041302872 | etot = -33.5644506331331
132000  ekin = 27.3542874865317 |  erot = 27.5160813886976 | epot = -88.4348195084739 | etot = -33.5644506332445
133000  ekin = 27.6627378161423 |  erot = 26.8888107912285 | epot = -88.115999240573 | etot = -33.5644506332022
134000  ekin = 27.9672923181963 |  erot = 26.3214524159622 | epot = -87.8531953671591 | etot = -33.5644506330005
135000  ekin = 28.2641150379083 |  erot = 25.8141340320102 | epot = -87.6426997025991 | etot = -33.5644506326806
136000  ekin = 28.5509978141388 |  erot = 25.3673179322113 | epot = -87.4827663786189 | etot = -33.5644506322688
137000  ekin = 28.825915909221 |  erot = 24.9801644637638 | epot = -87.3705310053152 | etot = -33.5644506323304
138000  ekin = 29.0842610649339 |  erot = 24.6492546073933 | epot = -87.2979663044158 | etot = -33.5644506320886
139000  ekin = 29.3272222877258 |  erot = 24.3700782380065 | epot = -87.2617511574337 | etot = -33.5644506317014
140000  ekin = 29.5579798491516 |  erot = 24.1376580585779 | epot = -87.2600885391681 | etot = -33.5644506314386
141000  ekin = 29.7799846346249 |  erot = 23.9462429930569 | epot = -87.2906782589382 | etot = -33.5644506312564
142000  ekin = 29.9959841884915 |  erot = 23.7899704636026 | epot = -87.3504052833039 | etot = -33.5644506312098
143000  ekin = 30.2070349127784 |  erot = 23.6632996950641 | epot = -87.4347852391688 | etot = -33.5644506313262
144000  ekin = 30.4118840029093 |  erot = 23.5613798569338 | epot = -87.5377144914396 | etot = -33.5644506315964
145000  ekin = 30.6068456872279 |  erot = 23.4803656669067 | epot = -87.6516619861204 | etot = -33.5644506319858
146000  ekin = 30.7861230778205 |  erot = 23.4176420010718 | epot = -87.7682157113363 | etot = -33.564450632444
147000  ekin = 30.9424364770385 |  erot = 23.3719366394227 | epot = -87.8788237493778 | etot = -33.5644506329166
148000  ekin = 31.0677916134912 |  erot = 23.3433216080134 | epot = -87.9755638548586 | etot = -33.564450633354
149000  ekin = 31.1542520331539 |  erot = 23.3331254537123 | epot = -88.0518281205811 | etot = -33.5644506337149
150000  ekin = 31.1946418128177 |  erot = 23.3437996409507 | epot = -88.1028920877325 | etot = -33.5644506339642
151000  ekin = 31.1838063839322 |  erot = 23.3785936220168 | epot = -88.1268506397958 | etot = -33.5644506338469
152000  ekin = 31.1202290278299 |  erot = 23.4412183836703 | epot = -88.125898045246 | etot = -33.5644506337458
153000  ekin = 31.0032553217637 |  erot = 23.5372189789008 | epot = -88.1049249338467 | etot = -33.5644506331823
154000  ekin = 30.8354559406746 |  erot = 23.6729952126947 | epot = -88.072901786295 | etot = -33.5644506329257
155000  ekin = 30.6186135870526 |  erot = 23.8551009557647 | epot = -88.0381651751689 | etot = -33.5644506323515
156000  ekin = 30.3571457582588 |  erot = 24.0914721103742 | epot = -88.0130685002276 | etot = -33.5644506315946
157000  ekin = 30.0574108500346 |  erot = 24.3907046676056 | epot = -88.0125661484805 | etot = -33.5644506308403
158000  ekin = 29.725675692331 |  erot = 24.7625567196346 | epot = -88.0526830421764 | etot = -33.5644506302108
159000  ekin = 29.3667041507893 |  erot = 25.2124449846207 | epot = -88.1435997656297 | etot = -33.5644506302196
160000  ekin = 28.9829375848235 |  erot = 25.7406189361246 | epot = -88.2880071520098 | etot = -33.5644506310616
161000  ekin = 28.5708031098605 |  erot = 26.3449808633556 | epot = -88.4802346049489 | etot = -33.5644506317328
162000  ekin = 28.1278607476035 |  erot = 27.0188065006218 | epot = -88.7111178809852 | etot = -33.5644506327599
163000  ekin = 27.6515523776407 |  erot = 27.7508923428456 | epot = -88.9668953542076 | etot = -33.5644506337213
164000  ekin = 27.1398166575402 |  erot = 28.5265897115496 | epot = -89.2308570046128 | etot = -33.5644506355231
165000  ekin = 26.5901801294065 |  erot = 29.3236809534458 | epot = -89.478311720126 | etot = -33.5644506372737
166000  ekin = 26.0027550423919 |  erot = 30.1148491025849 | epot = -89.6820547838262 | etot = -33.5644506388494
167000  ekin = 25.3815734826352 |  erot = 30.8714146428653 | epot = -89.8174387656332 | etot = -33.5644506401327
168000  ekin = 24.7338280126162 |  erot = 31.5656853660149 | epot = -89.8639640196475 | etot = -33.5644506410165
169000  ekin = 24.0691061638267 |  erot = 32.1733410341194 | epot = -89.8068978394102 | etot = -33.5644506414641
170000  ekin = 23.3986380903836 |  erot = 32.6761770397884 | epot = -89.6392657713668 | etot = -33.5644506411948
171000  ekin = 22.7350947047584 |  erot = 33.0649339609198 | epot = -89.3644793058835 | etot = -33.5644506402053
172000  ekin = 22.0927595064379 |  erot = 33.3397459263013 | epot = -88.9969560711893 | etot = -33.5644506384501
173000  ekin = 21.4881436133187 |  erot = 33.5098602953101 | epot = -88.5624545444277 | etot = -33.5644506357989
174000  ekin = 20.9424106184102 |  erot = 33.5950638981363 | epot = -88.1019251458272 | etot = -33.5644506292807
175000  ekin = 20.4887725385275 |  erot = 33.6332952588425 | epot = -87.6865184248803 | etot = -33.5644506275103
176000  ekin = 20.1459992745671 |  erot = 33.6413286939806 | epot = -87.3517785947221 | etot = -33.5644506261744
177000  ekin = 19.9273952403454 |  erot = 33.6264319072445 | epot = -87.1182777732156 | etot = -33.5644506256257
178000  ekin = 19.84052681153 |  erot = 33.5862782738547 | epot = -86.9912557125122 | etot = -33.5644506271275
179000  ekin = 19.8828425829422 |  erot = 33.5043404166422 | epot = -86.9516336276486 | etot = -33.5644506280643
180000  ekin = 20.0524881206256 |  erot = 33.3671042345402 | epot = -86.9840429849155 | etot = -33.5644506297498
181000  ekin = 20.3414841297343 |  erot = 33.1581782006442 | epot = -87.0641129622508 | etot = -33.5644506318723
182000  ekin = 20.7352057198233 |  erot = 32.8612622822509 | epot = -87.1609186361483 | etot = -33.5644506340741
183000  ekin = 21.2137106223656 |  erot = 32.4647477949401 | epot = -87.2429090532129 | etot = -33.5644506359073
184000  ekin = 21.753758772068 |  erot = 31.9655803613331 | epot = -87.2837897705988 | etot = -33.5644506371977
185000  ekin = 22.3286746031905 |  erot = 31.370802203917 | epot = -87.2639274448021 | etot = -33.5644506376946
186000  ekin = 22.9115100132914 |  erot = 30.6990331536457 | epot = -87.1749938042645 | etot = -33.5644506373275
187000  ekin = 23.4775030152646 |  erot = 29.9792070479746 | epot = -87.0211606994591 | etot = -33.5644506362199
188000  ekin = 24.0059463479979 |  erot = 29.2469949106376 | epot = -86.8173918933481 | etot = -33.5644506347127
189000  ekin = 24.4809955944256 |  erot = 28.5392131436686 | epot = -86.5846593713985 | etot = -33.5644506333043
190000  ekin = 24.8911658073154 |  erot = 27.8871249849478 | epot = -86.3427414248055 | etot = -33.5644506325423
191000  ekin = 25.2275609419593 |  erot = 27.3101259966561 | epot = -86.1021375715933 | etot = -33.5644506329779
192000  ekin = 25.4831011426815 |  erot = 26.8121375634353 | epot = -85.8596893403699 | etot = -33.564450634253
193000  ekin = 25.2930335715005 |  erot = 26.6410891958414 | epot = -85.4985734034485 | etot = -33.5644506361066
194000  ekin = 25.0352601614032 |  erot = 26.6525265483622 | epot = -85.2522373921937 | etot = -33.5644506824282
195000  ekin = 25.0363508840855 |  erot = 26.2378500699517 | epot = -84.8386516236489 | etot = -33.5644506696116
196000  ekin = 24.9648942549692 |  erot = 25.78683024187 | epot = -84.3161751669041 | etot = -33.5644506700649
197000  ekin = 24.820085073243 |  erot = 25.3002719383723 | epot = -83.684807680623 | etot = -33.5644506690076
198000  ekin = 24.617288458851 |  erot = 24.7762496503728 | epot = -82.9579887758224 | etot = -33.5644506665986
199000  ekin = 24.377048383026 |  erot = 24.2259949153754 | epot = -82.1674939619447 | etot = -33.5644506635433
200000  ekin = 24.1224360020296 |  erot = 23.6691820640811 | epot = -81.3560687261525 | etot = -33.5644506600419
201000  ekin = 23.8775516468454 |  erot = 23.1291743985682 | epot = -80.5711767022417 | etot = -33.5644506568281
202000  ekin = 23.6646103059715 |  erot = 22.6276096876224 | epot = -79.8566706478819 | etot = -33.5644506542881
203000  ekin = 23.5017139925529 |  erot = 22.1809863327317 | epot = -79.2471509779019 | etot = -33.5644506526173
204000  ekin = 23.4012931943585 |  erot = 21.7992926193315 | epot = -78.7650364652111 | etot = -33.5644506515211
205000  ekin = 23.3698442687714 |  erot = 21.4883950765849 | epot = -78.4226899967129 | etot = -33.5644506513567
206000  ekin = 23.4080277663789 |  erot = 21.2503388252137 | epot = -78.2228172433636 | etot = -33.5644506517709
207000  ekin = 23.510672424487 |  erot = 21.0828853352428 | epot = -78.1580084122739 | etot = -33.564450652544
208000  ekin = 23.6683534180495 |  erot = 20.982792192542 | epot = -78.2155962640683 | etot = -33.5644506534769
209000  ekin = 23.8319531636201 |  erot = 20.8686960092813 | epot = -78.2650998050279 | etot = -33.5644506321265
210000  ekin = 24.1634900876329 |  erot = 20.8246815259854 | epot = -78.5526222834702 | etot = -33.5644506698519
211000  ekin = 24.4545474928994 |  erot = 20.8320949387436 | epot = -78.851093093408 | etot = -33.564450661765
212000  ekin = 24.7210588846791 |  erot = 20.8889178093565 | epot = -79.1744273565292 | etot = -33.5644506624935
213000  ekin = 24.9762555918523 |  erot = 20.9956570670851 | epot = -79.5363633251146 | etot = -33.5644506661772
214000  ekin = 25.205483004635 |  erot = 21.1345527593194 | epot = -79.904486430984 | etot = -33.5644506670296
215000  ekin = 25.4055444850383 |  erot = 21.2948000239929 | epot = -80.2647951765804 | etot = -33.5644506675491
216000  ekin = 25.5773395549964 |  erot = 21.4659469017795 | epot = -80.6077371248515 | etot = -33.5644506680756
217000  ekin = 25.7224226233962 |  erot = 21.6383314527683 | epot = -80.925204744665 | etot = -33.5644506685004
218000  ekin = 25.8456307141035 |  erot = 21.7996006617643 | epot = -81.2096820449061 | etot = -33.5644506690382
219000  ekin = 25.952452354154 |  erot = 21.9358336225146 | epot = -81.4527366463123 | etot = -33.5644506696437
220000  ekin = 26.0480501371105 |  erot = 22.0331400323315 | epot = -81.6456408394103 | etot = -33.5644506699683
221000  ekin = 26.1377559920962 |  erot = 22.0801399062532 | epot = -81.7823465685503 | etot = -33.5644506702008
222000  ekin = 26.2262421156876 |  erot = 22.0692633440645 | epot = -81.8599561297652 | etot = -33.5644506700131
223000  ekin = 26.3184403630104 |  erot = 21.9982474658179 | epot = -81.8811384982303 | etot = -33.564450669402
224000  ekin = 26.4171271373366 |  erot = 21.8710288815827 | epot = -81.8526066880995 | etot = -33.5644506691801
225000  ekin = 26.5225389104573 |  erot = 21.6965423523224 | epot = -81.7835319309186 | etot = -33.5644506681389
226000  ekin = 26.7157923548661 |  erot = 21.3119214437974 | epot = -81.5921644821821 | etot = -33.5644506835186
227000  ekin = 27.2484396437667 |  erot = 20.6374955150002 | epot = -81.4503858460625 | etot = -33.5644506872956
228000  ekin = 27.5078528971351 |  erot = 20.2748179574298 | epot = -81.3471215226841 | etot = -33.5644506681192
229000  ekin = 27.631283055081 |  erot = 19.9858964954828 | epot = -81.1816302175522 | etot = -33.5644506669884
230000  ekin = 27.7676058404106 |  erot = 19.7189438600699 | epot = -81.0510003675314 | etot = -33.5644506670509
231000  ekin = 27.917189899564 |  erot = 19.4851196432342 | epot = -80.9667602108556 | etot = -33.5644506680573
232000  ekin = 28.075807909483 |  erot = 19.2892055600532 | epot = -80.9294641380291 | etot = -33.5644506684929
233000  ekin = 28.2354888581566 |  erot = 19.1284398309955 | epot = -80.9283793559269 | etot = -33.5644506667748
234000  ekin = 28.3953039485291 |  erot = 19.0132859353528 | epot = -80.973040551359 | etot = -33.564450667477
235000  ekin = 28.5569493494324 |  erot = 18.9585387746561 | epot = -81.0799387921139 | etot = -33.5644506680254
236000  ekin = 28.7166448189416 |  erot = 18.9671002034007 | epot = -81.2481956904871 | etot = -33.5644506681447
237000  ekin = 28.872502381955 |  erot = 19.0433381874402 | epot = -81.4802912373653 | etot = -33.5644506679701
238000  ekin = 29.0257746255756 |  erot = 19.1916941122086 | epot = -81.7819194053224 | etot = -33.5644506675381
239000  ekin = 29.1795842186668 |  erot = 19.4168064167523 | epot = -82.1608413028715 | etot = -33.5644506674523
240000  ekin = 29.3337146101792 |  erot = 19.7090725309346 | epot = -82.6072378097604 | etot = -33.5644506686467
241000  ekin = 29.4868078966917 |  erot = 20.0596352267871 | epot = -83.1108937927889 | etot = -33.5644506693101
242000  ekin = 29.6351003169272 |  erot = 20.4605457842645 | epot = -83.6600967716849 | etot = -33.5644506704932
243000  ekin = 29.8921802425096 |  erot = 20.6958964400126 | epot = -84.1525273495103 | etot = -33.564450666988
244000  ekin = 30.2594419587612 |  erot = 20.9649617308285 | epot = -84.788854393917 | etot = -33.5644507043273
245000  ekin = 30.3074620328552 |  erot = 21.3089995007004 | epot = -85.1809122847552 | etot = -33.5644507511996
246000  ekin = 30.6998172933386 |  erot = 21.0861202554748 | epot = -85.3503880690327 | etot = -33.5644505202193
247000  ekin = 31.265212405902 |  erot = 21.7433599271637 | epot = -86.5730230769931 | etot = -33.5644507439274
248000  ekin = 31.2039013197071 |  erot = 22.3578318777868 | epot = -87.1261839419724 | etot = -33.5644507444785
249000  ekin = 31.0628965882674 |  erot = 22.9361503364564 | epot = -87.563497668308 | etot = -33.5644507435842
250000  ekin = 30.8544219835531 |  erot = 23.4738999845616 | epot = -87.8927727106375 | etot = -33.5644507425228
251000  ekin = 30.5979929542296 |  erot = 23.9732495372637 | epot = -88.1356932312788 | etot = -33.5644507397854
252000  ekin = 30.3186084933056 |  erot = 24.4470234326924 | epot = -88.3300826628224 | etot = -33.5644507368245
253000  ekin = 30.041632868323 |  erot = 24.9117142614227 | epot = -88.5177978639943 | etot = -33.5644507342486
254000  ekin = 29.6651322242815 |  erot = 25.3352238224839 | epot = -88.5648072260565 | etot = -33.5644511792912
255000  ekin = 27.9972596305184 |  erot = 25.343644566417 | epot = -86.9053550134241 | etot = -33.5644508164887
256000  ekin = 27.4480536506913 |  erot = 26.2038023386853 | epot = -87.216306790649 | etot = -33.5644508012725
257000  ekin = 28.5107044680624 |  erot = 27.5793602337782 | epot = -89.6545158780358 | etot = -33.5644511761952
258000  ekin = 28.9485040029259 |  erot = 27.9141399630899 | epot = -90.4270947739431 | etot = -33.5644508079274
259000  ekin = 29.1923898091059 |  erot = 28.2760336628035 | epot = -91.0328742825817 | etot = -33.5644508106723
260000  ekin = 29.442065950707 |  erot = 28.6795119902558 | epot = -91.6860287570451 | etot = -33.5644508160824
261000  ekin = 29.6845039883856 |  erot = 29.1068404636931 | epot = -92.3557952701953 | etot = -33.5644508181166
262000  ekin = 29.8834680797666 |  erot = 29.5461970802723 | epot = -92.9941159814128 | etot = -33.5644508213739
263000  ekin = 30.015935190767 |  erot = 29.964909738063 | epot = -93.545295753821 | etot = -33.5644508249909
264000  ekin = 30.0524877647281 |  erot = 30.3384906869061 | epot = -93.9554292801698 | etot = -33.5644508285355
265000  ekin = 29.9659450397407 |  erot = 30.6431999052832 | epot = -94.1735957766809 | etot = -33.564450831657
266000  ekin = 29.7355380957518 |  erot = 30.8554934502802 | epot = -94.1554823800682 | etot = -33.5644508340362
267000  ekin = 29.350217253177 |  erot = 30.9531552650149 | epot = -93.8678233536528 | etot = -33.564450835461
268000  ekin = 28.8109215600445 |  erot = 30.9159121160384 | epot = -93.2912845119314 | etot = -33.5644508358484
269000  ekin = 28.131229902636 |  erot = 30.7258800106364 | epot = -92.4215607498827 | etot = -33.5644508366102
270000  ekin = 27.3365120331628 |  erot = 30.3685462542785 | epot = -91.26950914197 | etot = -33.5644508545286
271000  ekin = 26.4621552466787 |  erot = 29.8348321072734 | epot = -89.8614382055512 | etot = -33.5644508515991
272000  ekin = 25.5514537841055 |  erot = 29.123871510934 | epot = -88.2397761425329 | etot = -33.5644508474934
273000  ekin = 24.6528090193024 |  erot = 28.2453291639207 | epot = -86.4625890256565 | etot = -33.5644508424334
274000  ekin = 23.8212346502742 |  erot = 27.2200000603037 | epot = -84.6056855414942 | etot = -33.5644508309163
275000  ekin = 22.9729777889705 |  erot = 26.0804823635512 | epot = -82.6179111121121 | etot = -33.5644509595905
276000  ekin = 22.0549791971374 |  erot = 24.8883860441513 | epot = -80.5078160553758 | etot = -33.5644508140871
277000  ekin = 22.291845448694 |  erot = 23.6844629884807 | epot = -79.540759443928 | etot = -33.5644510067533
278000  ekin = 22.2933944834771 |  erot = 22.3796695906392 | epot = -78.2375149019929 | etot = -33.5644508278766
279000  ekin = 22.3659748250016 |  erot = 21.1183819743967 | epot = -77.0488076287097 | etot = -33.5644508293114
280000  ekin = 22.5183002078625 |  erot = 19.9334324614308 | epot = -76.0161834966431 | etot = -33.5644508273498
281000  ekin = 22.7529481191411 |  erot = 18.8478601493348 | epot = -75.1652590940351 | etot = -33.5644508255591
282000  ekin = 23.0795879184867 |  erot = 17.8776966475211 | epot = -74.5217353872447 | etot = -33.564450821237
283000  ekin = 23.5210121271307 |  erot = 17.0345324476566 | epot = -74.1199953957228 | etot = -33.5644508209355
284000  ekin = 24.07992475589 |  erot = 16.3233784658841 | epot = -73.9677540517476 | etot = -33.5644508299736
285000  ekin = 24.7785446246423 |  erot = 15.7478244913642 | epot = -74.0908199422233 | etot = -33.5644508262167
286000  ekin = 25.636838734536 |  erot = 15.3047487827835 | epot = -74.5060383422483 | etot = -33.5644508249288
287000  ekin = 26.6214548224706 |  erot = 14.9922504829288 | epot = -75.1781561308958 | etot = -33.5644508254964
288000  ekin = 27.7267158888572 |  erot = 14.8012865017013 | epot = -76.0924532218297 | etot = -33.5644508312711
289000  ekin = 28.8920167227279 |  erot = 14.7169892845691 | epot = -77.1734568439386 | etot = -33.5644508366416
290000  ekin = 30.0553666648387 |  erot = 14.7251675417572 | epot = -78.3449850482589 | etot = -33.5644508416631
291000  ekin = 31.1595769632387 |  erot = 14.811929120259 | epot = -79.5359569290839 | etot = -33.5644508455862
292000  ekin = 32.1608216689813 |  erot = 14.9640713088845 | epot = -80.6893438261509 | etot = -33.564450848285
293000  ekin = 33.0319319380177 |  erot = 15.168173905447 | epot = -81.7645566935966 | etot = -33.5644508501319
294000  ekin = 33.7599421346976 |  erot = 15.4088106779812 | epot = -82.7332036642767 | etot = -33.5644508515979
295000  ekin = 34.3413485939712 |  erot = 15.667394334235 | epot = -83.5731937811218 | etot = -33.5644508529156
296000  ekin = 34.7782829446776 |  erot = 15.9229210434175 | epot = -84.26565484209 | etot = -33.5644508539949
297000  ekin = 35.0767101392392 |  erot = 16.1546669536439 | epot = -84.7958279474754 | etot = -33.5644508545923
298000  ekin = 35.2457989813493 |  erot = 16.3457320030339 | epot = -85.1559818389166 | etot = -33.5644508545334
299000  ekin = 35.2970066855207 |  erot = 16.4859983979522 | epot = -85.347455937312 | etot = -33.564450853839
300000  ekin = 35.2422237261662 |  erot = 16.5735941681655 | epot = -85.3802687470049 | etot = -33.5644508526733
301000  ekin = 35.0916597610801 |  erot = 16.6147820199824 | epot = -85.2708926322694 | etot = -33.5644508512069
302000  ekin = 34.8528128910573 |  erot = 16.6227287108408 | epot = -85.0399924514116 | etot = -33.5644508495135
303000  ekin = 34.5312597670619 |  erot = 16.6156181966414 | epot = -84.7113288113064 | etot = -33.5644508476031
304000  ekin = 34.1313674341479 |  erot = 16.6227567332271 | epot = -84.3185750111593 | etot = -33.5644508437843
305000  ekin = 33.6571822643538 |  erot = 16.6720234605616 | epot = -83.8936565670797 | etot = -33.5644508421643
306000  ekin = 33.1151986332185 |  erot = 16.7769746117161 | epot = -83.4566240858681 | etot = -33.5644508409335
307000  ekin = 32.5134330702932 |  erot = 16.9437629167783 | epot = -83.02164682739 | etot = -33.5644508403184
308000  ekin = 31.8601474906921 |  erot = 17.1694637372502 | epot = -82.5940620683754 | etot = -33.564450840433
309000  ekin = 31.1628016434689 |  erot = 17.4420089824522 | epot = -82.169261466886 | etot = -33.564450840965
310000  ekin = 30.4284939703374 |  erot = 17.7430091431839 | epot = -81.7359539560138 | etot = -33.5644508424925
311000  ekin = 29.6636970637345 |  erot = 18.0450727084457 | epot = -81.2732206157263 | etot = -33.5644508435461
312000  ekin = 28.8763119838581 |  erot = 18.3211026916569 | epot = -80.7618655199121 | etot = -33.5644508443971
313000  ekin = 28.0757317032389 |  erot = 18.5482322978723 | epot = -80.18841484566 | etot = -33.5644508445488
314000  ekin = 27.2754576015478 |  erot = 18.7102692133214 | epot = -79.5501776586848 | etot = -33.5644508438156
315000  ekin = 26.492751287582 |  erot = 18.8002978243514 | epot = -78.8574999542526 | etot = -33.5644508423192
316000  ekin = 25.7476825207451 |  erot = 18.8201859998617 | epot = -78.1323193609057 | etot = -33.5644508402989
317000  ekin = 25.061490505917 |  erot = 18.7788964667389 | epot = -77.4048378106934 | etot = -33.5644508380374
318000  ekin = 24.4546904069621 |  erot = 18.6903703700711 | epot = -76.70951161281 | etot = -33.5644508357768
319000  ekin = 23.9454326767099 |  erot = 18.5716676910327 | epot = -76.0815512014053 | etot = -33.5644508336627
320000  ekin = 23.5484361619436 |  erot = 18.4417359442066 | epot = -75.5546229378898 | etot = -33.5644508317396
321000  ekin = 23.2745454667293 |  erot = 18.3209670206422 | epot = -75.1599633173638 | etot = -33.5644508299923
322000  ekin = 23.1307065451601 |  erot = 18.2311244117378 | epot = -74.9262817853413 | etot = -33.5644508284434
323000  ekin = 23.1199305196705 |  erot = 18.1948729379475 | epot = -74.8792542848651 | etot = -33.5644508272471
324000  ekin = 23.2402241372721 |  erot = 18.2346442881315 | epot = -75.0393192521543 | etot = -33.5644508267507
325000  ekin = 23.4710021373605 |  erot = 18.3668956955574 | epot = -75.4023486642627 | etot = -33.5644508313448
326000  ekin = 23.7795455091373 |  erot = 18.5932769387736 | epot = -75.9372732824513 | etot = -33.5644508345405
327000  ekin = 24.1343713309104 |  erot = 18.9009306660405 | epot = -76.5997528364855 | etot = -33.5644508395347
328000  ekin = 24.4953646019651 |  erot = 19.2611055951325 | epot = -77.3209210429526 | etot = -33.564450845855
329000  ekin = 24.8184483225885 |  erot = 19.6309716495633 | epot = -78.0138708245784 | etot = -33.5644508524265
330000  ekin = 25.064815357625 |  erot = 19.9600875040515 | epot = -78.5893537191764 | etot = -33.5644508574999
331000  ekin = 25.210138372085 |  erot = 20.2008919381964 | epot = -78.9754811706065 | etot = -33.5644508603252
332000  ekin = 25.2457706637465 |  erot = 20.3248269292201 | epot = -79.1350484525863 | etot = -33.5644508596197
333000  ekin = 25.1861890028038 |  erot = 20.3296166390246 | epot = -79.0802564973891 | etot = -33.5644508555607
334000  ekin = 25.0662190978875 |  erot = 20.2399843242263 | epot = -78.8706542713047 | etot = -33.5644508491909
335000  ekin = 24.9333683334916 |  erot = 20.10098162188 | epot = -78.5988007973609 | etot = -33.5644508419894
336000  ekin = 24.838111457398 |  erot = 19.9670256543986 | epot = -78.3695879471494 | etot = -33.5644508353528
337000  ekin = 24.8247545149941 |  erot = 19.8908557634947 | epot = -78.2800611092981 | etot = -33.5644508308092
338000  ekin = 24.9246805340852 |  erot = 19.9088859975653 | epot = -78.3980173596517 | etot = -33.5644508280012
339000  ekin = 25.1522743468773 |  erot = 20.043365846553 | epot = -78.7600910207995 | etot = -33.5644508273693
340000  ekin = 25.5040328013693 |  erot = 20.306324357249 | epot = -79.3748079873049 | etot = -33.5644508286866
341000  ekin = 25.9593882031618 |  erot = 20.6972938179444 | epot = -80.2211328525995 | etot = -33.5644508314932
342000  ekin = 26.4842114254738 |  erot = 21.2060406180888 | epot = -81.2547028788679 | etot = -33.5644508353053
343000  ekin = 27.0356929912357 |  erot = 21.815327972342 | epot = -82.4154718031651 | etot = -33.5644508395875
344000  ekin = 27.5676973344761 |  erot = 22.5033872894512 | epot = -83.6355354677601 | etot = -33.5644508438328
345000  ekin = 28.0359749646807 |  erot = 23.2463366467675 | epot = -84.8467624590903 | etot = -33.5644508476421
346000  ekin = 28.4026013552871 |  erot = 24.0201112992161 | epot = -85.9871635052192 | etot = -33.564450850716
347000  ekin = 28.6398915194528 |  erot = 24.8020103746231 | epot = -87.0063527467572 | etot = -33.5644508526813
348000  ekin = 28.7326075377482 |  erot = 25.5714490942921 | epot = -87.8685074860267 | etot = -33.5644508539863
349000  ekin = 28.6752584344036 |  erot = 26.3100180841384 | epot = -88.549727373061 | etot = -33.564450854519
350000  ekin = 28.4730637357079 |  erot = 27.0009502159031 | epot = -89.038464806185 | etot = -33.564450854574
351000  ekin = 28.1395378484453 |  erot = 27.6270646736909 | epot = -89.3310533767997 | etot = -33.5644508546635
352000  ekin = 27.692958073856 |  erot = 28.1676652362281 | epot = -89.4250741653402 | etot = -33.5644508552561
353000  ekin = 27.1526950366525 |  erot = 28.5958100264823 | epot = -89.3129559196985 | etot = -33.5644508565636
354000  ekin = 26.5365141387121 |  erot = 28.8781341171817 | epot = -88.9790991141991 | etot = -33.5644508583052
355000  ekin = 25.8598799836129 |  erot = 28.9793031096872 | epot = -88.4036339528938 | etot = -33.5644508595937
356000  ekin = 25.1375717946229 |  erot = 28.8722956885124 | epot = -87.5743183424417 | etot = -33.5644508593064
357000  ekin = 24.3868741548633 |  erot = 28.5495289601074 | epot = -86.5008539716514 | etot = -33.5644508566807
358000  ekin = 23.6300778926751 |  erot = 28.0297879776407 | epot = -85.2243167221727 | etot = -33.5644508518569
359000  ekin = 22.8939201469052 |  erot = 27.355677035979 | epot = -83.8140480288444 | etot = -33.5644508459602
360000  ekin = 22.206578007299 |  erot = 26.5834479666855 | epot = -82.3544768140201 | etot = -33.5644508400356
361000  ekin = 21.5986345635157 |  erot = 25.7744654426823 | epot = -80.9375508370781 | etot = -33.5644508308802
362000  ekin = 21.1083260621075 |  erot = 24.989507840829 | epot = -79.6622847317925 | etot = -33.564450828856
363000  ekin = 20.7375100619836 |  erot = 24.2576398932737 | epot = -78.5596007834521 | etot = -33.5644508281948
364000  ekin = 20.476003367975 |  erot = 23.5946470163905 | epot = -77.635101212758 | etot = -33.5644508283926
365000  ekin = 20.3079089893725 |  erot = 23.009513896542 | epot = -76.8818737148766 | etot = -33.5644508289621
366000  ekin = 20.2147979335995 |  erot = 22.508371935773 | epot = -76.2876206988782 | etot = -33.5644508295058
367000  ekin = 20.1786185360397 |  erot = 22.0973297018217 | epot = -75.8403990676851 | etot = -33.5644508298237
368000  ekin = 20.1837486799222 |  erot = 21.7835270635243 | epot = -75.5317265733032 | etot = -33.5644508298567
369000  ekin = 20.2182310118282 |  erot = 21.574738818764 | epot = -75.3574206602716 | etot = -33.5644508296795
370000  ekin = 20.2742556079065 |  erot = 21.4781104693876 | epot = -75.3168169068296 | etot = -33.5644508295354
371000  ekin = 20.3477066126427 |  erot = 21.4982876398118 | epot = -75.4104450815928 | etot = -33.5644508291383
372000  ekin = 20.4391769085492 |  erot = 21.6370751258624 | epot = -75.6407028633193 | etot = -33.5644508289077
373000  ekin = 20.5523906693865 |  erot = 21.8921389377599 | epot = -76.0089804360328 | etot = -33.5644508288864
374000  ekin = 20.6947607298497 |  erot = 22.2561865203504 | epot = -76.5153980788613 | etot = -33.5644508286612
375000  ekin = 20.8734352289465 |  erot = 22.7176361068345 | epot = -77.1555221652783 | etot = -33.5644508294973
376000  ekin = 21.089493504449 |  erot = 23.2620769848747 | epot = -77.9160213199094 | etot = -33.5644508305857
377000  ekin = 21.3446674636834 |  erot = 23.8720082855239 | epot = -78.7811265807323 | etot = -33.5644508315251
378000  ekin = 21.64248542288 |  erot = 24.5275644040167 | epot = -79.7345006597438 | etot = -33.5644508328471
379000  ekin = 21.9906215820674 |  erot = 25.2058289791334 | epot = -80.760901395464 | etot = -33.5644508342632
380000  ekin = 22.3975872844685 |  erot = 25.8799316875408 | epot = -81.8419698098752 | etot = -33.5644508378659
381000  ekin = 22.8474625363943 |  erot = 26.5196756829191 | epot = -82.9315890607488 | etot = -33.5644508414354
382000  ekin = 23.3214968284424 |  erot = 27.0935868814443 | epot = -83.9795345552253 | etot = -33.5644508453386
383000  ekin = 23.7989486472446 |  erot = 27.5682880226977 | epot = -84.9316875190629 | etot = -33.5644508491206
384000  ekin = 24.2602946690265 |  erot = 27.9101784190738 | epot = -85.7349239404018 | etot = -33.5644508523015
385000  ekin = 24.6909701694311 |  erot = 28.0892515731128 | epot = -86.3446725966466 | etot = -33.5644508541027
386000  ekin = 25.0758089633983 |  erot = 28.0812872789257 | epot = -86.7215471012156 | etot = -33.5644508588916
387000  ekin = 25.3886917944075 |  erot = 27.8683599140167 | epot = -86.8215025662873 | etot = -33.5644508578631
388000  ekin = 25.6321888108903 |  erot = 27.4567876604955 | epot = -86.6534273266304 | etot = -33.5644508552446
389000  ekin = 25.8173007945516 |  erot = 26.8690369422729 | epot = -86.2507885889323 | etot = -33.5644508521078
390000  ekin = 25.9562629244357 |  erot = 26.1386991559259 | epot = -85.6594129285287 | etot = -33.5644508481671
391000  ekin = 26.0625510048269 |  erot = 25.3050096521924 | epot = -84.9320115015289 | etot = -33.5644508445096
392000  ekin = 26.1477279258622 |  erot = 24.4077754077168 | epot = -84.1199541750021 | etot = -33.5644508414231
393000  ekin = 26.2207009126332 |  erot = 23.4862823971765 | epot = -83.2714341487272 | etot = -33.5644508389175
394000  ekin = 26.2880235523287 |  erot = 22.5776047859249 | epot = -82.4300791763575 | etot = -33.5644508381039
395000  ekin = 26.3461327830984 |  erot = 21.6992206106144 | epot = -81.6098042311068 | etot = -33.564450837394
396000  ekin = 26.3925769143903 |  erot = 20.8648963380663 | epot = -80.8219240890407 | etot = -33.5644508365841
397000  ekin = 26.428035758933 |  erot = 20.0875980485209 | epot = -80.0800846430096 | etot = -33.5644508355556
398000  ekin = 26.456826416021 |  erot = 19.3805747697538 | epot = -79.4018520200386 | etot = -33.5644508342638
399000  ekin = 26.486391084066 |  erot = 18.7576183807505 | epot = -78.8084602983018 | etot = -33.5644508334853
400000  ekin = 26.5240355653678 |  erot = 18.2309165845048 | epot = -78.3194029820227 | etot = -33.5644508321501
401000  ekin = 26.5785515874793 |  erot = 17.8133011772033 | epot = -77.9563035960443 | etot = -33.5644508313617
402000  ekin = 26.6553316875252 |  erot = 17.514632436928 | epot = -77.734414956193 | etot = -33.5644508317398
403000  ekin = 26.7508441445099 |  erot = 17.3369800813554 | epot = -77.652275059838 | etot = -33.5644508339727
404000  ekin = 26.847889984788 |  erot = 17.2703664407998 | epot = -77.6827072638883 | etot = -33.5644508383005
405000  ekin = 26.913648151536 |  erot = 17.2906409832311 | epot = -77.7687399796104 | etot = -33.5644508448433
406000  ekin = 26.902674398225 |  erot = 17.3519919760325 | epot = -77.8191172252429 | etot = -33.5644508509854
407000  ekin = 26.7697793194821 |  erot = 17.4151352557073 | epot = -77.7493654299019 | etot = -33.5644508547125
408000  ekin = 26.4852107134516 |  erot = 17.4599310842078 | epot = -77.5095926523416 | etot = -33.5644508546822
409000  ekin = 26.0447937750069 |  erot = 17.489715636437 | epot = -77.0989602629569 | etot = -33.5644508515129
410000  ekin = 25.4686689668068 |  erot = 17.525308599665 | epot = -76.5584284134685 | etot = -33.5644508469967
411000  ekin = 24.7901856107123 |  erot = 17.5925678630378 | epot = -75.9472043167211 | etot = -33.5644508429709
412000  ekin = 24.0429450725907 |  erot = 17.7112262982761 | epot = -75.3186222112118 | etot = -33.5644508403449
413000  ekin = 23.2530709445256 |  erot = 17.8904894596477 | epot = -74.7080112432066 | etot = -33.5644508390334
414000  ekin = 22.4380957573478 |  erot = 18.1309089877695 | epot = -74.1334555836572 | etot = -33.5644508385398
415000  ekin = 21.6095002976116 |  erot = 18.4284521142751 | epot = -73.602403250255 | etot = -33.5644508383683
416000  ekin = 20.7759703157875 |  erot = 18.7780315269414 | epot = -73.1184526809263 | etot = -33.5644508381974
417000  ekin = 19.9459219947443 |  erot = 19.1754390641456 | epot = -72.6858118967654 | etot = -33.5644508378755
418000  ekin = 19.1290603146812 |  erot = 19.6178812354861 | epot = -72.3113923875162 | etot = -33.5644508373488
419000  ekin = 18.337241174772 |  erot = 20.1037315119174 | epot = -72.0054235233031 | etot = -33.5644508366137
420000  ekin = 17.5848708568132 |  erot = 20.6319495840779 | epot = -71.7812712766011 | etot = -33.56445083571
421000  ekin = 16.8888669767983 |  erot = 21.2012508779721 | epot = -71.654568689522 | etot = -33.5644508347516
422000  ekin = 16.2680311854784 |  erot = 21.8088345390476 | epot = -71.6413165584825 | etot = -33.5644508339565
423000  ekin = 15.7416423467535 |  erot = 22.4484657014465 | epot = -71.7545588818543 | etot = -33.5644508336543
424000  ekin = 15.3271568811325 |  erot = 23.1079611162026 | epot = -71.9995688315969 | etot = -33.5644508342617
425000  ekin = 15.0370245443348 |  erot = 23.7664993128454 | epot = -72.3679746933972 | etot = -33.564450836217
426000  ekin = 14.8748792453187 |  erot = 24.3924933231442 | epot = -72.8318234082976 | etot = -33.5644508398346
427000  ekin = 14.832039809902 |  erot = 24.9432466995696 | epot = -73.3397373544821 | etot = -33.5644508450105
428000  ekin = 14.8863924965724 |  erot = 25.3682827941945 | epot = -73.8191261416202 | etot = -33.5644508508533
429000  ekin = 15.0062259695096 |  erot = 25.6182665544711 | epot = -74.1889433796231 | etot = -33.5644508556425
430000  ekin = 15.1595389321706 |  erot = 25.6590201133014 | epot = -74.3830099029893 | etot = -33.5644508575173
431000  ekin = 15.3249133699301 |  erot = 25.4851984008896 | epot = -74.3745626264541 | etot = -33.5644508556344
432000  ekin = 15.4974987577291 |  erot = 25.1253113466907 | epot = -74.1872609551818 | etot = -33.564450850762
433000  ekin = 15.6867402477113 |  erot = 24.6339851579825 | epot = -73.8851762504141 | etot = -33.5644508447203
434000  ekin = 15.9084789524794 |  erot = 24.0759117528502 | epot = -73.5488415445721 | etot = -33.5644508392426
435000  ekin = 16.1769022059295 |  erot = 23.5103596607615 | epot = -73.2517127019844 | etot = -33.5644508352934
436000  ekin = 16.4997173059121 |  erot = 22.982276516596 | epot = -73.0464446556282 | etot = -33.5644508331201
437000  ekin = 16.8769806267692 |  erot = 22.5199344326914 | epot = -72.9613658918858 | etot = -33.5644508324252
438000  ekin = 17.3021259571189 |  erot = 22.1372453982692 | epot = -73.0038221882045 | etot = -33.5644508328165
439000  ekin = 17.7637229038904 |  erot = 21.8373393625555 | epot = -73.1655131003915 | etot = -33.5644508339456
440000  ekin = 18.2471223979642 |  erot = 21.6157595595105 | epot = -73.4273327930288 | etot = -33.5644508355542
441000  ekin = 18.7357201395202 |  erot = 21.4628710845264 | epot = -73.7630420615274 | etot = -33.5644508374808
442000  ekin = 19.2118878212758 |  erot = 21.3654515420967 | epot = -74.1417902029639 | etot = -33.5644508395913
443000  ekin = 19.6577318124847 |  erot = 21.3079015376766 | epot = -74.53008419193 | etot = -33.5644508417687
444000  ekin = 20.0558238633514 |  erot = 21.2733344148632 | epot = -74.8936091221088 | etot = -33.5644508438943
445000  ekin = 20.3899893912765 |  erot = 21.2445884062657 | epot = -75.1990286433742 | etot = -33.564450845832
446000  ekin = 20.6461236044623 |  erot = 21.2052857367731 | epot = -75.4158601887455 | etot = -33.5644508475101
447000  ekin = 20.8131102288242 |  erot = 21.1405154512163 | epot = -75.5180765281394 | etot = -33.5644508480989
448000  ekin = 20.8836321566285 |  erot = 21.0415726580739 | epot = -75.4896556637134 | etot = -33.564450849011
449000  ekin = 20.8549766397521 |  erot = 20.9006105485552 | epot = -75.3200380377527 | etot = -33.5644508494454
450000  ekin = 20.7289995990038 |  erot = 20.7094982244637 | epot = -75.0029486728388 | etot = -33.5644508493713
451000  ekin = 20.5121237021944 |  erot = 20.4634057687326 | epot = -74.5399803196977 | etot = -33.5644508487708
452000  ekin = 20.2152499009175 |  erot = 20.1611428754593 | epot = -73.9408436240171 | etot = -33.5644508476403
453000  ekin = 19.8534700766569 |  erot = 19.8054562088314 | epot = -73.2233771314871 | etot = -33.5644508459988
454000  ekin = 19.4456214293028 |  erot = 19.4031472753521 | epot = -72.4132195485558 | etot = -33.5644508439009
455000  ekin = 19.013720522958 |  erot = 18.9648723131976 | epot = -71.5430436775731 | etot = -33.5644508414174
456000  ekin = 18.5823093301098 |  erot = 18.5046119868785 | epot = -70.6513721556565 | etot = -33.5644508386682
457000  ekin = 18.1775784950835 |  erot = 18.0385547552667 | epot = -69.78058408621 | etot = -33.5644508358598
458000  ekin = 17.8262193053526 |  erot = 17.5834820270548 | epot = -68.9741521653779 | etot = -33.5644508329705
459000  ekin = 17.5544328315452 |  erot = 17.1574115033618 | epot = -68.2762951652654 | etot = -33.5644508303584
460000  ekin = 17.3857834994296 |  erot = 16.7769882364438 | epot = -67.7272225641225 | etot = -33.5644508282491
461000  ekin = 17.3389537757626 |  erot = 16.455973724737 | epot = -67.3593783273661 | etot = -33.5644508268665
462000  ekin = 17.4254421541841 |  erot = 16.2041333991817 | epot = -67.1940263797602 | etot = -33.5644508263943
463000  ekin = 17.6475549838229 |  erot = 16.0264214063364 | epot = -67.2384272171003 | etot = -33.564450826941
464000  ekin = 17.9971528391881 |  erot = 15.9226257283447 | epot = -67.4842293960243 | etot = -33.5644508284914
465000  ekin = 18.4555654856042 |  erot = 15.8876205732821 | epot = -67.9076368897882 | etot = -33.5644508309019
466000  ekin = 18.994833816268 |  erot = 15.9122553308001 | epot = -68.4715399809881 | etot = -33.56445083392
467000  ekin = 19.5800987880665 |  erot = 15.9847161184822 | epot = -69.1292657437925 | etot = -33.5644508372437
468000  ekin = 20.1726645576357 |  erot = 16.092033474867 | epot = -69.8291488730892 | etot = -33.5644508405865
469000  ekin = 20.7331520539173 |  erot = 16.2213910260308 | epot = -70.5189939236682 | etot = -33.5644508437201
470000  ekin = 21.2242791251891 |  erot = 16.3610502015494 | epot = -71.1497801732201 | etot = -33.5644508464816
471000  ekin = 21.6130740295016 |  erot = 16.5009517692281 | epot = -71.6784766474807 | etot = -33.5644508487511
472000  ekin = 21.8725913830426 |  erot = 16.6332178546314 | epot = -72.0702600880887 | etot = -33.5644508504148
473000  ekin = 21.9833185471591 |  erot = 16.7527436323979 | epot = -72.3005130309141 | etot = -33.5644508513571
474000  ekin = 21.9344099206197 |  erot = 16.8578720765084 | epot = -72.3567328486035 | etot = -33.5644508514753
475000  ekin = 21.7247480854268 |  erot = 16.9509439426178 | epot = -72.2401428787492 | etot = -33.5644508507046
476000  ekin = 21.3637036554458 |  erot = 17.0384540155613 | epot = -71.9666085200589 | etot = -33.5644508490518
477000  ekin = 20.8713853163245 |  erot = 17.1305938642667 | epot = -71.5664300271903 | etot = -33.5644508465991
478000  ekin = 20.278105615873 |  erot = 17.2401904856046 | epot = -71.0827469450555 | etot = -33.5644508435779
479000  ekin = 19.6228148922665 |  erot = 17.3807417056378 | epot = -70.568007438203 | etot = -33.5644508402987
480000  ekin = 18.9501924820064 |  erot = 17.5641098022629 | epot = -70.0787531214702 | etot = -33.5644508372009
481000  ekin = 18.3063999207717 |  erot = 17.7978626898958 | epot = -69.6687134454551 | etot = -33.5644508347876
482000  ekin = 17.7338800308325 |  erot = 18.0826185785594 | epot = -69.3809494429303 | etot = -33.5644508335384
483000  ekin = 17.2661333869276 |  erot = 18.4098565339483 | epot = -69.240440754661 | etot = -33.5644508337851
484000  ekin = 16.9123469725788 |  erot = 18.5839236849874 | epot = -69.0607216152016 | etot = -33.5644509576354
485000  ekin = 17.2473052114824 |  erot = 17.4463141951386 | epot = -68.2580700313457 | etot = -33.5644506247246
486000  ekin = 18.3155143091698 |  erot = 17.1832730976792 | epot = -69.0632384225994 | etot = -33.5644510157505
487000  ekin = 18.1324826614411 |  erot = 17.2801627137661 | epot = -68.97709615336 | etot = -33.5644507781527
488000  ekin = 18.065066671032 |  erot = 17.4264266856946 | epot = -69.0559441347504 | etot = -33.5644507780238
489000  ekin = 18.1230207571896 |  erot = 17.62013699274 | epot = -69.3076085290087 | etot = -33.5644507790791
490000  ekin = 18.2959502060246 |  erot = 17.8551924365762 | epot = -69.7155934233775 | etot = -33.5644507807768
491000  ekin = 18.5602651979885 |  erot = 18.1239992625185 | epot = -70.2487152439638 | etot = -33.5644507834568
492000  ekin = 18.8855238698909 |  erot = 18.4159985147992 | epot = -70.8659731703599 | etot = -33.5644507856698
493000  ekin = 19.2395352565568 |  erot = 18.728264479198 | epot = -71.5322505227183 | etot = -33.5644507869634
494000  ekin = 19.5921246700955 |  erot = 19.0689157919617 | epot = -72.2254912499723 | etot = -33.564450787915
495000  ekin = 19.0728202093635 |  erot = 18.9158482409358 | epot = -71.553118977483 | etot = -33.5644505271837
496000  ekin = 19.8797920565295 |  erot = 18.7380967908333 | epot = -72.1823393794609 | etot = -33.5644505320982
497000  ekin = 21.3129327566087 |  erot = 19.2208596910155 | epot = -74.0982428018017 | etot = -33.5644503541775
498000  ekin = 21.3264694811286 |  erot = 19.7980335585692 | epot = -74.6889533936585 | etot = -33.5644503539607
499000  ekin = 21.2778907742156 |  erot = 20.4793064458065 | epot = -75.3216475743002 | etot = -33.5644503542781
500000  ekin = 21.1661916282903 |  erot = 21.2581781223902 | epot = -75.988820105787 | etot = -33.5644503551065
501000  ekin = 20.9926825375652 |  erot = 22.1178388255783 | epot = -76.6749717195959 | etot = -33.5644503564525
502000  ekin = 20.7610606941479 |  erot = 23.0317414653473 | epot = -77.3572525175607 | etot = -33.5644503580655
503000  ekin = 20.4798770188399 |  erot = 23.9650377707536 | epot = -78.0093651497042 | etot = -33.5644503601106
504000  ekin = 20.1546807719764 |  erot = 24.8789199645846 | epot = -78.5980510989298 | etot = -33.5644503623688
505000  ekin = 19.7897861052766 |  erot = 25.7326258924132 | epot = -79.0868623624994 | etot = -33.5644503648096
506000  ekin = 19.3875459003549 |  erot = 26.4882337371013 | epot = -79.4402300038003 | etot = -33.564450366344
507000  ekin = 18.9527707503713 |  erot = 27.1161379584882 | epot = -79.6333590756734 | etot = -33.5644503668138
508000  ekin = 18.4930541127617 |  erot = 27.6003825990922 | epot = -79.6578870777478 | etot = -33.5644503658939
509000  ekin = 18.0182547166152 |  erot = 27.9414911095304 | epot = -79.5241961902308 | etot = -33.5644503640852
510000  ekin = 17.5239659446583 |  erot = 28.1499521523349 | epot = -79.2383684583427 | etot = -33.5644503613495
511000  ekin = 17.0202767588224 |  erot = 28.2490270330593 | epot = -78.8337541499512 | etot = -33.5644503580695
512000  ekin = 16.5245718006517 |  erot = 28.2698315419544 | epot = -78.3588536974674 | etot = -33.5644503548613
513000  ekin = 16.0539184296555 |  erot = 28.2435719405511 | epot = -77.8619407224233 | etot = -33.5644503522167
514000  ekin = 15.6229539751463 |  erot = 28.1963871950865 | epot = -77.3837915206358 | etot = -33.564450350403
515000  ekin = 15.2424792420144 |  erot = 28.1464443105655 | epot = -76.9533739021307 | etot = -33.5644503495508
516000  ekin = 14.9188926056263 |  erot = 28.102754035252 | epot = -76.5860969902898 | etot = -33.5644503494115
517000  ekin = 14.6543809151572 |  erot = 28.0678237290645 | epot = -76.286654994032 | etot = -33.5644503498102
518000  ekin = 14.4476572455448 |  erot = 28.0395642675265 | epot = -76.0516718635495 | etot = -33.5644503504781
519000  ekin = 14.2950490439313 |  erot = 28.0138489409074 | epot = -75.8733483359815 | etot = -33.5644503511427
520000  ekin = 14.1917488336712 |  erot = 27.9870813583917 | epot = -75.7432805436438 | etot = -33.564450351581
521000  ekin = 14.1329830510129 |  erot = 27.9581295478616 | epot = -75.6555629505529 | etot = -33.5644503516784
522000  ekin = 14.1002586402904 |  erot = 27.7732671764717 | epot = -75.4379761963452 | etot = -33.5644503795831
523000  ekin = 14.1969588160089 |  erot = 27.1027118580652 | epot = -74.8641209749246 | etot = -33.5644503008506
524000  ekin = 14.7378402614501 |  erot = 26.616408914504 | epot = -74.9186994724366 | etot = -33.5644502964825
525000  ekin = 15.506867285083 |  erot = 26.5883544533635 | epot = -75.6596721107952 | etot = -33.5644503723486
526000  ekin = 15.8574449977295 |  erot = 26.6724957238465 | epot = -76.0943910941999 | etot = -33.5644503726239
527000  ekin = 16.0112069682755 |  erot = 26.735509894999 | epot = -76.3111672365705 | etot = -33.5644503732961
528000  ekin = 16.1641744091399 |  erot = 26.794797881151 | epot = -76.5234226642097 | etot = -33.5644503739187
529000  ekin = 16.3159009762014 |  erot = 26.8380825380496 | epot = -76.7184338885631 | etot = -33.564450374312
530000  ekin = 16.4667477211871 |  erot = 26.8553312025443 | epot = -76.8865292981414 | etot = -33.5644503744099
531000  ekin = 16.6177352356877 |  erot = 26.8400251085783 | epot = -77.0222107185202 | etot = -33.5644503742542
532000  ekin = 16.770215067808 |  erot = 26.7891084873303 | epot = -77.1237739290464 | etot = -33.5644503739081
533000  ekin = 16.9253640369286 |  erot = 26.7024973873184 | epot = -77.1923117977069 | etot = -33.5644503734599
534000  ekin = 17.083644786901 |  erot = 26.5822176528864 | epot = -77.2303128128235 | etot = -33.5644503730361
535000  ekin = 17.2444487917795 |  erot = 26.4310079588738 | epot = -77.2399071233944 | etot = -33.5644503727411
536000  ekin = 17.4060591056372 |  erot = 26.2510049056998 | epot = -77.2215143839431 | etot = -33.5644503726061
537000  ekin = 17.565899198427 |  erot = 26.0431264908893 | epot = -77.1734760618753 | etot = -33.5644503725589
538000  ekin = 17.7209415439151 |  erot = 25.807444121848 | epot = -77.0928360383798 | etot = -33.5644503726168
539000  ekin = 17.8681497081321 |  erot = 25.5433035299374 | epot = -76.9759036107203 | etot = -33.5644503726507
540000  ekin = 18.0048631565718 |  erot = 25.2502517038857 | epot = -76.8195652330541 | etot = -33.5644503725966
541000  ekin = 18.129064827171 |  erot = 24.9288645877469 | epot = -76.6223797873357 | etot = -33.5644503724178
542000  ekin = 18.2395164939016 |  erot = 24.5811691615965 | epot = -76.3851360275838 | etot = -33.5644503720856
543000  ekin = 18.3357700080052 |  erot = 24.210846834268 | epot = -76.1110672139389 | etot = -33.5644503716657
544000  ekin = 18.4180615073977 |  erot = 23.8229131244208 | epot = -75.8054250029922 | etot = -33.5644503711738
545000  ekin = 18.48709013 |  erot = 23.4236993423704 | epot = -75.475239842524 | etot = -33.5644503701536
546000  ekin = 18.5436104708162 |  erot = 23.023272620427 | epot = -75.1313334610026 | etot = -33.5644503697594
547000  ekin = 18.5881260728255 |  erot = 22.6282216102247 | epot = -74.780798052539 | etot = -33.5644503694888
548000  ekin = 18.6206521539779 |  erot = 22.2431161969749 | epot = -74.4282187199115 | etot = -33.5644503689587
549000  ekin = 18.6395328552822 |  erot = 21.8731131587291 | epot = -74.0770963833356 | etot = -33.5644503693243
550000  ekin = 18.6420012526372 |  erot = 21.5194517195331 | epot = -73.7259033420982 | etot = -33.5644503699279
551000  ekin = 18.6249210292856 |  erot = 21.1784779028361 | epot = -73.3678493028498 | etot = -33.5644503707282
552000  ekin = 18.5841928768992 |  erot = 20.8452278495212 | epot = -72.9938710980166 | etot = -33.5644503715962
553000  ekin = 18.515212705724 |  erot = 20.5148731368217 | epot = -72.5945362148738 | etot = -33.5644503723281
554000  ekin = 18.4136816909966 |  erot = 20.1848933331084 | epot = -72.1630253967881 | etot = -33.5644503726831
555000  ekin = 18.2766906401233 |  erot = 19.857476932628 | epot = -71.6986179451961 | etot = -33.5644503724447
556000  ekin = 18.1040115049041 |  erot = 19.5406874735951 | epot = -71.20914935019 | etot = -33.5644503716908
557000  ekin = 17.8992309647499 |  erot = 19.2497226287959 | epot = -70.7134039634794 | etot = -33.5644503699335
558000  ekin = 17.6705778374572 |  erot = 19.0080857253366 | epot = -70.2431139302706 | etot = -33.5644503674768
559000  ekin = 17.4315653927809 |  erot = 18.8444628123191 | epot = -69.8404785695829 | etot = -33.5644503644829
560000  ekin = 17.2006230348878 |  erot = 18.7901643782654 | epot = -69.5552377744807 | etot = -33.5644503613275
561000  ekin = 16.9995569160732 |  erot = 18.8749610237664 | epot = -69.438968298262 | etot = -33.5644503584223
562000  ekin = 16.8505251060201 |  erot = 19.1232120100743 | epot = -69.538187472407 | etot = -33.5644503563126
563000  ekin = 16.7718160200182 |  erot = 19.5498137335684 | epot = -69.8860801091477 | etot = -33.5644503555612
564000  ekin = 16.7730284254869 |  erot = 20.1561760612857 | epot = -70.4936548437135 | etot = -33.564450356941
565000  ekin = 16.8503463818591 |  erot = 20.9261148982968 | epot = -71.3409116403028 | etot = -33.5644503601468
566000  ekin = 16.9881817954648 |  erot = 21.8252877510101 | epot = -72.3779199117371 | etot = -33.5644503652621
567000  ekin = 17.1597730194767 |  erot = 22.8021750341433 | epot = -73.5263984254872 | etot = -33.5644503718672
568000  ekin = 17.3309908966704 |  erot = 23.7909429898642 | epot = -74.6863842658269 | etot = -33.5644503792923
569000  ekin = 17.4658946017947 |  erot = 24.7167318453097 | epot = -75.7470768337898 | etot = -33.5644503866854
570000  ekin = 17.5327796656957 |  erot = 25.5030724456584 | epot = -76.6003025044407 | etot = -33.5644503930867
571000  ekin = 17.5098280200956 |  erot = 26.0808668137263 | epot = -77.1551452313793 | etot = -33.5644503975575
572000  ekin = 17.3896134298641 |  erot = 26.3976580231972 | epot = -77.3517218524132 | etot = -33.5644503993519
573000  ekin = 17.1817696520727 |  erot = 26.4252545062395 | epot = -77.1714745564325 | etot = -33.5644503981203
574000  ekin = 16.9132012155478 |  erot = 26.1636856780794 | epot = -76.6413372876784 | etot = -33.5644503940512
575000  ekin = 16.6253831480204 |  erot = 25.6401831359933 | epot = -75.8300166719201 | etot = -33.5644503879064
576000  ekin = 16.380585448721 |  erot = 24.9437607561783 | epot = -74.8887965737009 | etot = -33.5644503688016
577000  ekin = 16.2309295888517 |  erot = 24.1552332190076 | epot = -73.9506131738505 | etot = -33.5644503659912
578000  ekin = 16.2003426792014 |  erot = 23.2996785341935 | epot = -73.0644715774378 | etot = -33.5644503640429
579000  ekin = 16.2983938260692 |  erot = 22.403268564264 | epot = -72.2661127535552 | etot = -33.564450363222
580000  ekin = 16.5164282817949 |  erot = 21.4889399504527 | epot = -71.5698185979652 | etot = -33.5644503657176
581000  ekin = 16.8294131729517 |  erot = 20.5770732253488 | epot = -70.9709367638666 | etot = -33.5644503655661
582000  ekin = 17.2014342865815 |  erot = 19.7085617423075 | epot = -70.4744463947337 | etot = -33.5644503658447
583000  ekin = 17.5894541379175 |  erot = 18.9251667746001 | epot = -70.0790712786264 | etot = -33.5644503661089
584000  ekin = 17.9521233670864 |  erot = 18.2657373645481 | epot = -69.7823110977226 | etot = -33.5644503660881
585000  ekin = 18.2577014583726 |  erot = 17.7627566558239 | epot = -69.5849084798981 | etot = -33.5644503657016
586000  ekin = 18.4890373219802 |  erot = 17.4391816025382 | epot = -69.4926692894764 | etot = -33.564450364958
587000  ekin = 18.6451700996557 |  erot = 17.3070654479175 | epot = -69.5166859114532 | etot = -33.56445036388
588000  ekin = 18.7400423388426 |  erot = 17.3682960794591 | epot = -69.6727887808625 | etot = -33.5644503625608
589000  ekin = 18.7988289995881 |  erot = 17.6163757903826 | epot = -69.9796551512482 | etot = -33.5644503612775
590000  ekin = 18.8521852512136 |  erot = 18.0377077417099 | epot = -70.4543433534176 | etot = -33.5644503604942
591000  ekin = 18.9335216734591 |  erot = 18.6145318738827 | epot = -71.1125039068147 | etot = -33.5644503594728
592000  ekin = 19.0736372367424 |  erot = 19.3273958987853 | epot = -71.9654834959436 | etot = -33.5644503604159
593000  ekin = 19.2836835998251 |  erot = 20.1464047126482 | epot = -72.9945386752994 | etot = -33.5644503628261
594000  ekin = 19.5596584182911 |  erot = 21.034123237702 | epot = -74.1582320224138 | etot = -33.5644503664207
595000  ekin = 19.8847224289421 |  erot = 21.9477887878841 | epot = -75.3969615874945 | etot = -33.5644503706683
596000  ekin = 20.2229995980596 |  erot = 22.8321032481879 | epot = -76.6195532314308 | etot = -33.5644503851833
597000  ekin = 20.5134057747578 |  erot = 23.6125551263639 | epot = -77.690411290674 | etot = -33.5644503895523
598000  ekin = 20.7238255187825 |  erot = 24.2466753991533 | epot = -78.5349513101318 | etot = -33.564450392196
599000  ekin = 20.8326105241634 |  erot = 24.7094660562249 | epot = -79.1065269733091 | etot = -33.5644503929208
600000  ekin = 20.8281928837872 |  erot = 24.9942677730575 | epot = -79.3869110487785 | etot = -33.5644503919338
601000  ekin = 20.7081769101586 |  erot = 25.1108515584272 | epot = -79.3834788582876 | etot = -33.5644503897018
602000  ekin = 20.4770754644872 |  erot = 25.0812117067637 | epot = -79.1227375580319 | etot = -33.564450386781
603000  ekin = 20.1436196145649 |  erot = 24.9343592774281 | epot = -78.642429275663 | etot = -33.5644503836701
604000  ekin = 19.718418586643 |  erot = 24.7015463496202 | epot = -77.9844153169741 | etot = -33.5644503807109
605000  ekin = 19.2123955084805 |  erot = 24.4128183909086 | epot = -77.1896642774627 | etot = -33.5644503780737
606000  ekin = 18.6360571568103 |  erot = 24.0951290270779 | epot = -76.2956365596783 | etot = -33.5644503757901
607000  ekin = 17.9994317315232 |  erot = 23.7717793966555 | epot = -75.3356615019793 | etot = -33.5644503738006
608000  ekin = 17.3124228754835 |  erot = 23.4627525856982 | epot = -74.3396258331827 | etot = -33.5644503720009
609000  ekin = 16.5853412867126 |  erot = 23.1855122482213 | epot = -73.3353039052169 | etot = -33.5644503702829
610000  ekin = 15.8294285552829 |  erot = 22.9559130662675 | epot = -72.349791990107 | etot = -33.5644503685566
611000  ekin = 15.0572484570073 |  erot = 22.7889597209054 | epot = -71.4106585446845 | etot = -33.5644503667718
612000  ekin = 14.2829782525896 |  erot = 22.6991649599953 | epot = -70.5465935774999 | etot = -33.564450364915
613000  ekin = 13.5233158608979 |  erot = 22.7018063034666 | epot = -69.789572526273 | etot = -33.5644503619085
614000  ekin = 12.7974443554635 |  erot = 22.8128628324568 | epot = -69.1747575482518 | etot = -33.5644503603315
615000  ekin = 12.1222485230176 |  erot = 23.0409824260638 | epot = -68.727681308147 | etot = -33.5644503590656
616000  ekin = 11.5143476716423 |  erot = 23.3894333510186 | epot = -68.468231381177 | etot = -33.5644503585161
617000  ekin = 10.9895105320919 |  erot = 23.8529820645469 | epot = -68.4069429553071 | etot = -33.5644503586684
618000  ekin = 10.562142737904 |  erot = 24.4166592385434 | epot = -68.5432523362142 | etot = -33.5644503597668
619000  ekin = 10.2447233169864 |  erot = 25.053936124725 | epot = -68.8631098035728 | etot = -33.5644503618614
620000  ekin = 10.0473729684105 |  erot = 25.7263958146269 | epot = -69.3382191478437 | etot = -33.5644503648063
621000  ekin = 9.97770919372447 |  erot = 26.386029455057 | epot = -69.9281890170002 | etot = -33.5644503682187
622000  ekin = 10.0410058298604 |  erot = 26.9805251344677 | epot = -70.5859813358563 | etot = -33.5644503715282
623000  ekin = 10.2405907653606 |  erot = 27.4608678076243 | epot = -71.265908947125 | etot = -33.5644503741401
624000  ekin = 10.5781077618222 |  erot = 27.789174960281 | epot = -71.9317330977985 | etot = -33.5644503756953
625000  ekin = 11.0534790507876 |  erot = 27.9443540029372 | epot = -72.5622834297716 | etot = -33.5644503760469
626000  ekin = 11.665023962676 |  erot = 27.9236660630966 | epot = -73.153140401212 | etot = -33.5644503754394
627000  ekin = 12.4090657095855 |  erot = 27.7401487506199 | epot = -73.7136648344174 | etot = -33.564450374212
628000  ekin = 13.2797303352362 |  erot = 27.4180442687031 | epot = -74.2622249766746 | etot = -33.5644503727353
629000  ekin = 14.2227247828091 |  erot = 26.9288523650796 | epot = -74.716027794269 | etot = -33.5644506463803
630000  ekin = 14.6371369670079 |  erot = 25.6849986219067 | epot = -73.8865860644015 | etot = -33.5644504754868
631000  ekin = 15.1932748253831 |  erot = 24.8015291116418 | epot = -73.5592542941192 | etot = -33.5644503570943
632000  ekin = 16.584223183011 |  erot = 25.1927867331162 | epot = -75.341460399694 | etot = -33.5644504835668
633000  ekin = 18.1129981078216 |  erot = 25.8399990857076 | epot = -77.5174478439555 | etot = -33.5644506504263
634000  ekin = 19.1483265856614 |  erot = 25.7387528535892 | epot = -78.4515299890265 | etot = -33.564450549776
635000  ekin = 20.1638306106813 |  erot = 25.6154971447985 | epot = -79.3437783094146 | etot = -33.5644505539348
636000  ekin = 21.1529452215294 |  erot = 25.4927802223992 | epot = -80.2101760029174 | etot = -33.5644505589887
637000  ekin = 22.076840414127 |  erot = 25.3376757551748 | epot = -80.9789667330327 | etot = -33.5644505637309
638000  ekin = 22.8998086513204 |  erot = 25.1175243534268 | epot = -81.5817835716912 | etot = -33.564450566944
639000  ekin = 23.5958452423371 |  erot = 24.810324027069 | epot = -81.970619837404 | etot = -33.5644505679979
640000  ekin = 24.1448393959509 |  erot = 24.4104070773779 | epot = -82.1196970414061 | etot = -33.5644505680774
641000  ekin = 24.5337741528747 |  erot = 23.9290519069577 | epot = -82.0272766245586 | etot = -33.5644505647262
642000  ekin = 24.7698696452211 |  erot = 23.3958020412245 | epot = -81.7301222481214 | etot = -33.5644505616758
643000  ekin = 24.8669267986387 |  erot = 22.8392829406438 | epot = -81.270660298016 | etot = -33.5644505587335
644000  ekin = 24.8431155056926 |  erot = 22.2830723080152 | epot = -80.6906383699449 | etot = -33.5644505562371
645000  ekin = 24.7193046979039 |  erot = 21.7428697624476 | epot = -80.0266250145381 | etot = -33.5644505541866
646000  ekin = 24.5180931827109 |  erot = 21.2270132547761 | epot = -79.3095569899392 | etot = -33.5644505524521
647000  ekin = 24.2628521130092 |  erot = 20.7388201342314 | epot = -78.5661227982078 | etot = -33.5644505509672
648000  ekin = 23.9761808135735 |  erot = 20.2787945271196 | epot = -77.8194258904783 | etot = -33.5644505497851
649000  ekin = 23.67787365498 |  erot = 19.8458221792402 | epot = -77.0881463832164 | etot = -33.5644505489962
650000  ekin = 23.3831896135476 |  erot = 19.4375683304372 | epot = -76.3852084925965 | etot = -33.5644505486117
651000  ekin = 23.1045251387838 |  erot = 19.0455994386645 | epot = -75.714575126721 | etot = -33.5644505492727
[...]
838000  ekin = 19.6129197626542 |  erot = 16.305100324473 | epot = -69.4824709011417 | etot = -33.5644508140144
839000  ekin = 19.9795904905589 |  erot = 16.4066730035615 | epot = -69.9507143107794 | etot = -33.564450816659
840000  ekin = 20.3545159446157 |  erot = 16.4936833394318 | epot = -70.4126501033158 | etot = -33.5644508192683
841000  ekin = 20.7164052638984 |  erot = 16.548246931381 | epot = -70.8291030169287 | etot = -33.5644508216493
842000  ekin = 21.0443277172268 |  erot = 16.5552492676569 | epot = -71.1640278085398 | etot = -33.5644508236561
843000  ekin = 21.3182343499603 |  erot = 16.5040987153204 | epot = -71.3867838904675 | etot = -33.5644508251868
844000  ekin = 21.5195641367703 |  erot = 16.3898128596529 | epot = -71.4738278225867 | etot = -33.5644508261635
845000  ekin = 21.6321888565554 |  erot = 16.2134452981662 | epot = -71.410084981231 | etot = -33.5644508265094
846000  ekin = 21.6437998325842 |  erot = 15.9820204390976 | epot = -71.1902710978237 | etot = -33.5644508261419
847000  ekin = 21.5475782493693 |  erot = 15.7081282849394 | epot = -70.8201573593162 | etot = -33.5644508250075
848000  ekin = 21.3436927775388 |  erot = 15.4091281501661 | epot = -70.3172717508461 | etot = -33.5644508231412
849000  ekin = 21.0400180651421 |  erot = 15.1057456316713 | epot = -69.7102145175199 | etot = -33.5644508207064
850000  ekin = 20.651624144221 |  erot = 14.819982121726 | epot = -69.0360570839323 | etot = -33.5644508179853
851000  ekin = 20.1989966727791 |  erot = 14.5725796374539 | epot = -68.3360271255451 | etot = -33.5644508153122
852000  ekin = 19.705405223643 |  erot = 14.3805531626584 | epot = -67.650409199298 | etot = -33.5644508129966
853000  ekin = 19.1940724610505 |  erot = 14.25530818557 | epot = -67.0138314578818 | etot = -33.5644508112614
854000  ekin = 18.6857524015881 |  erot = 14.2015962971835 | epot = -66.4517995089979 | etot = -33.5644508102263
855000  ekin = 18.1970763744836 |  erot = 14.2172634276327 | epot = -65.9787906120352 | etot = -33.5644508099189
856000  ekin = 17.7397499707612 |  erot = 14.2936050918535 | epot = -65.5978058729028 | etot = -33.5644508102882
857000  ekin = 17.3205057782524 |  erot = 14.4162007388387 | epot = -65.3011573283104 | etot = -33.5644508112193
858000  ekin = 16.9416544278078 |  erot = 14.5662556875881 | epot = -65.0723609279221 | etot = -33.5644508125262
859000  ekin = 16.6020780488435 |  erot = 14.7225727576944 | epot = -64.8891016204952 | etot = -33.5644508139574
860000  ekin = 16.2985125162571 |  erot = 14.8641879517113 | epot = -64.7271512831937 | etot = -33.5644508152253
861000  ekin = 16.0269335765221 |  erot = 14.9734306263673 | epot = -64.5648150189461 | etot = -33.5644508160567
862000  ekin = 15.7838145493149 |  erot = 15.0388248736918 | epot = -64.3870902392667 | etot = -33.56445081626
863000  ekin = 15.5670277401482 |  erot = 15.0570872004078 | epot = -64.1885657563379 | etot = -33.5644508157819
864000  ekin = 15.3762443264478 |  erot = 15.033644902431 | epot = -63.9743400435875 | etot = -33.5644508147087
865000  ekin = 15.2131876544491 |  erot = 14.9816007278775 | epot = -63.7592391954458 | etot = -33.5644508131193
866000  ekin = 15.0809818287742 |  erot = 14.9194630000228 | epot = -63.5648956402705 | etot = -33.5644508114735
867000  ekin = 14.9827726501217 |  erot = 14.8683323276467 | epot = -63.4155557876376 | etot = -33.5644508098692
868000  ekin = 14.92180112433 |  erot = 14.8493296988562 | epot = -63.3355816316708 | etot = -33.5644508084847
869000  ekin = 14.9010185116834 |  erot = 14.8813223016375 | epot = -63.3467916207947 | etot = -33.5644508074738
870000  ekin = 14.9227801761236 |  erot = 14.9789108660607 | epot = -63.4661418491954 | etot = -33.5644508070111
871000  ekin = 14.9884139356745 |  erot = 15.1503817842349 | epot = -63.7032465271887 | etot = -33.5644508072793
872000  ekin = 15.0976914319707 |  erot = 15.3955923654522 | epot = -64.0577346058697 | etot = -33.5644508084468
873000  ekin = 15.2480781387988 |  erot = 15.7042636439283 | epot = -64.5167925933356 | etot = -33.5644508106085
874000  ekin = 15.4340038873847 |  erot = 16.0553561021191 | epot = -65.053810803158 | etot = -33.5644508136542
875000  ekin = 15.6465534573556 |  erot = 16.4187317070787 | epot = -65.6297359816455 | etot = -33.5644508172112
876000  ekin = 15.8739222018982 |  erot = 16.7595446909201 | epot = -66.1979177135255 | etot = -33.5644508207072
877000  ekin = 16.1027155795467 |  erot = 17.044494341634 | epot = -66.7116607447368 | etot = -33.5644508235561
878000  ekin = 16.3197910454644 |  erot = 17.2478151625915 | epot = -67.1320570334198 | etot = -33.5644508253639
879000  ekin = 16.5138521394505 |  erot = 17.3548092079704 | epot = -67.4331121735215 | etot = -33.5644508261006
880000  ekin = 16.6772706623824 |  erot = 17.3624918569347 | epot = -67.6042133449038 | etot = -33.5644508255867
881000  ekin = 16.8080553798836 |  erot = 17.278452226898 | epot = -67.6509584308199 | etot = -33.5644508240383
882000  ekin = 16.9100399112771 |  erot = 17.119022231693 | epot = -67.5935129646031 | etot = -33.564450821633
883000  ekin = 16.9925721974834 |  erot = 16.9073416506224 | epot = -67.4643646668128 | etot = -33.564450818707
884000  ekin = 17.0687034065889 |  erot = 16.6704808211346 | epot = -67.3036350435126 | etot = -33.5644508157892
885000  ekin = 17.1519974191521 |  erot = 16.4352378677741 | epot = -67.1516861003877 | etot = -33.5644508134615
886000  ekin = 17.2529390367253 |  erot = 16.2234313385346 | epot = -67.040821187416 | etot = -33.564450812156
887000  ekin = 17.3762921605589 |  erot = 16.0482363267111 | epot = -66.9889792992713 | etot = -33.5644508120014
888000  ekin = 17.5203620939499 |  erot = 15.912713009727 | epot = -66.9975259165121 | etot = -33.5644508128352
889000  ekin = 17.6781644417429 |  erot = 15.8105908033725 | epot = -67.0532060594389 | etot = -33.5644508143236
890000  ekin = 17.8397117311843 |  erot = 15.728545074795 | epot = -67.1327076214795 | etot = -33.5644508155002
891000  ekin = 17.9946822356163 |  erot = 15.6526652128514 | epot = -67.2117982661653 | etot = -33.5644508176976
892000  ekin = 18.1331274108613 |  erot = 15.5631846536331 | epot = -67.2607628839469 | etot = -33.5644508194524
893000  ekin = 18.2472194923555 |  erot = 15.4391901233243 | epot = -67.2508604363308 | etot = -33.5644508206509
894000  ekin = 18.3321686592099 |  erot = 15.2648175287635 | epot = -67.1614370091493 | etot = -33.5644508211759
895000  ekin = 18.3862908731384 |  erot = 15.0310128799806 | epot = -66.9817545740828 | etot = -33.5644508209639
896000  ekin = 18.4109116125628 |  erot = 14.7366844064177 | epot = -66.7120468390301 | etot = -33.5644508200496
897000  ekin = 18.4100489982307 |  erot = 14.38859264232 | epot = -66.3630924591407 | etot = -33.56445081859
898000  ekin = 18.3898281603967 |  erot = 13.9998000546359 | epot = -65.954079031856 | etot = -33.5644508168234
899000  ekin = 18.3577139224559 |  erot = 13.5871378078456 | epot = -65.5093025452924 | etot = -33.5644508149909
900000  ekin = 18.3217786244971 |  erot = 13.1685630401998 | epot = -65.0547924779573 | etot = -33.5644508132604
901000  ekin = 18.2902589888584 |  erot = 12.7612484281998 | epot = -64.6159582287385 | etot = -33.5644508116803
902000  ekin = 18.2715810670069 |  erot = 12.3808553817479 | epot = -64.2168872589334 | etot = -33.5644508101785
903000  ekin = 18.2748902554657 |  erot = 12.0419799131758 | epot = -63.8813209772404 | etot = -33.5644508085989
904000  ekin = 18.310946079998 |  erot = 11.759427353884 | epot = -63.6348242406376 | etot = -33.5644508067556
905000  ekin = 18.3930925503139 |  erot = 11.5498594883528 | epot = -63.5074028431725 | etot = -33.5644508045058
906000  ekin = 18.5347341843358 |  erot = 11.429567327747 | epot = -63.5287523170652 | etot = -33.5644508049824
907000  ekin = 18.7414362451913 |  erot = 11.4045037508022 | epot = -63.7103908004036 | etot = -33.5644508044102
908000  ekin = 19.0194889718029 |  erot = 11.4807236813719 | epot = -64.064663457795 | etot = -33.5644508046201
909000  ekin = 19.3700614262796 |  erot = 11.658960594413 | epot = -64.5934728263738 | etot = -33.5644508056812
910000  ekin = 19.7882105287017 |  erot = 11.9333322709223 | epot = -65.2859936069509 | etot = -33.5644508073268
911000  ekin = 20.2647618472542 |  erot = 12.2921701432016 | epot = -66.1213827995986 | etot = -33.5644508091428
912000  ekin = 20.7894338989449 |  erot = 12.7195983435702 | epot = -67.0734830529977 | etot = -33.5644508104826
913000  ekin = 21.354185735415 |  erot = 13.1939380972622 | epot = -68.1125746463993 | etot = -33.564450813722
914000  ekin = 21.9410171539269 |  erot = 13.6876167580563 | epot = -69.1930847298951 | etot = -33.564450817912
915000  ekin = 22.5188846328755 |  erot = 14.1693256791945 | epot = -70.2526611349299 | etot = -33.5644508228598
916000  ekin = 23.0495496145354 |  erot = 14.6035757237462 | epot = -71.2175761670584 | etot = -33.5644508287768
917000  ekin = 23.4897289759918 |  erot = 14.9539952313724 | epot = -72.008175040674 | etot = -33.5644508333098
918000  ekin = 23.7939185234148 |  erot = 15.197647321232 | epot = -72.5560167286604 | etot = -33.5644508840135
919000  ekin = 23.6168045074412 |  erot = 15.3655091430202 | epot = -72.5467644924926 | etot = -33.5644508420312
920000  ekin = 23.165531585878 |  erot = 15.5814764955082 | epot = -72.311458892293 | etot = -33.5644508109067
921000  ekin = 22.8561009730671 |  erot = 15.8041631721062 | epot = -72.2247150051872 | etot = -33.5644508600138
922000  ekin = 22.440617199678 |  erot = 15.7102388661218 | epot = -71.7153069039719 | etot = -33.5644508381722
923000  ekin = 21.8145072438246 |  erot = 15.4204628466349 | epot = -70.7994209206915 | etot = -33.564450830232
924000  ekin = 21.089710612231 |  erot = 15.1252102241701 | epot = -69.7793716556892 | etot = -33.5644508192881
925000  ekin = 20.3778961082158 |  erot = 14.899059611937 | epot = -68.8414065283879 | etot = -33.5644508082351
926000  ekin = 19.7497733146689 |  erot = 14.7841436062358 | epot = -68.0983677263129 | etot = -33.5644508054082
927000  ekin = 19.2202389452663 |  erot = 14.8057849810623 | epot = -67.590474728778 | etot = -33.5644508024493
928000  ekin = 18.8098178358059 |  erot = 14.9862994051908 | epot = -67.3605680408844 | etot = -33.5644507998878
929000  ekin = 18.5263530322086 |  erot = 15.3189513314309 | epot = -67.4097551810462 | etot = -33.5644508174067
930000  ekin = 18.303158247999 |  erot = 15.7144845731335 | epot = -67.5820936492334 | etot = -33.564450828101
931000  ekin = 18.0528353467031 |  erot = 16.092098150507 | epot = -67.7093843340348 | etot = -33.5644508368247
932000  ekin = 17.7015072493782 |  erot = 16.3874716011874 | epot = -67.6534296917457 | etot = -33.5644508411801
933000  ekin = 17.2115757804696 |  erot = 16.5716045694095 | epot = -67.3476311886972 | etot = -33.5644508388181
934000  ekin = 16.5514003203334 |  erot = 16.6395832223659 | epot = -66.755434444527 | etot = -33.5644509018278
935000  ekin = 15.4338978862408 |  erot = 16.4795973505328 | epot = -65.4779460700676 | etot = -33.564450833294
936000  ekin = 14.2992444275143 |  erot = 16.4524645705128 | epot = -64.3161597798994 | etot = -33.5644507818723
937000  ekin = 13.59487740504 |  erot = 16.8307081996587 | epot = -63.9900364163686 | etot = -33.5644508116699
938000  ekin = 13.1600926964079 |  erot = 17.3617572930203 | epot = -64.0863008623788 | etot = -33.5644508729506
939000  ekin = 12.6302856058614 |  erot = 17.6616475284688 | epot = -63.8563839239186 | etot = -33.5644507895884
940000  ekin = 12.1844103645063 |  erot = 17.9750890236239 | epot = -63.7239501782487 | etot = -33.5644507901185
941000  ekin = 11.8736812756091 |  erot = 18.3544207679051 | epot = -63.7925528359821 | etot = -33.5644507924678
942000  ekin = 11.6856910076193 |  erot = 18.7737996767542 | epot = -64.0239414802086 | etot = -33.5644507958351
943000  ekin = 11.5993719915505 |  erot = 19.1997647093009 | epot = -64.3635875002877 | etot = -33.5644507994363
944000  ekin = 11.591116393097 |  erot = 19.5969000254167 | epot = -64.7524672211801 | etot = -33.5644508026663
945000  ekin = 11.6394594916683 |  erot = 19.9326030632592 | epot = -65.1365133600576 | etot = -33.56445080513
946000  ekin = 11.7278293647869 |  erot = 20.1807231613466 | epot = -65.4730033327469 | etot = -33.5644508066135
947000  ekin = 11.8456010910349 |  erot = 20.3241537585671 | epot = -65.7342056566312 | etot = -33.5644508070293
948000  ekin = 11.9879925905891 |  erot = 20.3564922444528 | epot = -65.9089356414658 | etot = -33.564450806424
949000  ekin = 12.1551997706618 |  erot = 20.2822908926568 | epot = -66.0019414683021 | etot = -33.5644508049834
950000  ekin = 12.3510408582428 |  erot = 20.1156595852263 | epot = -66.0311512464897 | etot = -33.5644508030205
951000  ekin = 12.5812930342184 |  erot = 19.8773156458908 | epot = -66.0230594810216 | etot = -33.5644508009124
952000  ekin = 12.8471183992429 |  erot = 19.5848425527081 | epot = -65.9964117535253 | etot = -33.5644508015743
953000  ekin = 13.1479143766235 |  erot = 19.2558560123375 | epot = -65.9682211888452 | etot = -33.5644507998843
954000  ekin = 13.4859607016749 |  erot = 18.9116613752366 | epot = -65.9620728756609 | etot = -33.5644507987494
955000  ekin = 13.8607396886139 |  erot = 18.5688220608356 | epot = -65.9940125476709 | etot = -33.5644507982214
956000  ekin = 14.2684790839254 |  erot = 18.2386766853017 | epot = -66.0716065674655 | etot = -33.5644507982384
957000  ekin = 14.7022261502645 |  erot = 17.9280211817306 | epot = -66.1946981306621 | etot = -33.5644507986669
958000  ekin = 15.1523557015762 |  erot = 17.6404101744164 | epot = -66.3572166753395 | etot = -33.5644507993469
959000  ekin = 15.6074014601803 |  erot = 17.3776018534993 | epot = -66.5494541137976 | etot = -33.5644508001179
960000  ekin = 16.0551055261351 |  erot = 17.1408213325793 | epot = -66.7603776595324 | etot = -33.5644508008181
961000  ekin = 16.483819511843 |  erot = 16.9315994951715 | epot = -66.9798698083909 | etot = -33.5644508013764
962000  ekin = 16.8831178337395 |  erot = 16.7524507837121 | epot = -67.2000194191554 | etot = -33.5644508017038
963000  ekin = 17.2446402411808 |  erot = 16.6070592916238 | epot = -67.4161503345794 | etot = -33.5644508017749
964000  ekin = 17.5626944186329 |  erot = 16.5001400673231 | epot = -67.6272852875597 | etot = -33.5644508016037
965000  ekin = 17.8343164080137 |  erot = 16.4370960223934 | epot = -67.8358632316613 | etot = -33.5644508012542
966000  ekin = 18.058881794858 |  erot = 16.4234839407457 | epot = -68.0468165364294 | etot = -33.5644508008257
967000  ekin = 18.2373393553309 |  erot = 16.4643418581003 | epot = -68.2661320138667 | etot = -33.5644508004355
968000  ekin = 18.3712253334182 |  erot = 16.5634469055311 | epot = -68.4991230391516 | etot = -33.5644508002023
969000  ekin = 18.4616731642916 |  erot = 16.7225928674224 | epot = -68.748716831933 | etot = -33.564450800219
970000  ekin = 18.508642391898 |  erot = 16.9409874226402 | epot = -69.014080615083 | etot = -33.5644508005448
971000  ekin = 18.5105217351456 |  erot = 17.2148322274807 | epot = -69.2898047638157 | etot = -33.5644508011893
972000  ekin = 18.4641879057989 |  erot = 17.5371342370508 | epot = -69.5657729449732 | etot = -33.5644508021236
973000  ekin = 18.3654967925945 |  erot = 17.8977436591339 | epot = -69.8276912550097 | etot = -33.5644508032813
974000  ekin = 18.2101154179932 |  erot = 18.2835968472234 | epot = -70.0581630697874 | etot = -33.5644508045708
975000  ekin = 17.9945660115437 |  erot = 18.6791515809232 | epot = -70.2381683983514 | etot = -33.5644508058845
976000  ekin = 17.7173305275788 |  erot = 19.0670257035496 | epot = -70.3488070382366 | etot = -33.5644508071083
977000  ekin = 17.3798453157079 |  erot = 19.4288693588492 | epot = -70.3731654826817 | etot = -33.5644508081246
978000  ekin = 16.9872046651528 |  erot = 19.7465105308244 | epot = -70.2981660048043 | etot = -33.5644508088271
979000  ekin = 16.5484156632796 |  erot = 20.0033999568713 | epot = -70.1162664292717 | etot = -33.5644508091207
980000  ekin = 16.0760394561679 |  erot = 20.1863036337654 | epot = -69.8267938958194 | etot = -33.5644508058861
981000  ekin = 15.5958799206067 |  erot = 20.2892058118436 | epot = -69.4495365390975 | etot = -33.5644508066472
982000  ekin = 15.0884229209118 |  erot = 20.3042917721005 | epot = -68.9571655433623 | etot = -33.56445085035
983000  ekin = 14.6278058930741 |  erot = 20.1974254363095 | epot = -68.3896821374305 | etot = -33.5644508080469
984000  ekin = 14.4857180537849 |  erot = 20.0570072753869 | epot = -68.1071761999148 | etot = -33.5644508707431
985000  ekin = 14.2080884745897 |  erot = 19.919276344842 | epot = -67.6918156218487 | etot = -33.564450802417
986000  ekin = 13.9758844712272 |  erot = 19.8429645358536 | epot = -67.3832998071099 | etot = -33.5644508000291
987000  ekin = 13.8444879396752 |  erot = 19.8435554330973 | epot = -67.2524941798934 | etot = -33.5644508071209
988000  ekin = 13.7899575635179 |  erot = 19.8765535654025 | epot = -67.2309619340325 | etot = -33.5644508051121
989000  ekin = 13.7826987510727 |  erot = 19.9896359806756 | epot = -67.3367855381806 | etot = -33.5644508064323
990000  ekin = 13.8064597723693 |  erot = 20.1866383120656 | epot = -67.5575488929868 | etot = -33.5644508085519
991000  ekin = 13.844476200064 |  erot = 20.4553568023019 | epot = -67.8642838132361 | etot = -33.5644508108702
992000  ekin = 13.8831356334462 |  erot = 20.7777558499506 | epot = -68.2253422960729 | etot = -33.5644508126761
993000  ekin = 13.9170731635836 |  erot = 21.135407615501 | epot = -68.6169315925055 | etot = -33.564450813421
994000  ekin = 13.9526839660428 |  erot = 21.5142214171928 | epot = -69.0313561961371 | etot = -33.5644508129016
995000  ekin = 14.0087176813023 |  erot = 21.9069609070435 | epot = -69.480129399738 | etot = -33.5644508113922
996000  ekin = 14.1134296875285 |  erot = 22.3130050689718 | epot = -69.9908855656615 | etot = -33.5644508091613
997000  ekin = 14.3000196822843 |  erot = 22.7364207784144 | epot = -70.6008912675636 | etot = -33.5644508068649
998000  ekin = 14.6010980656079 |  erot = 23.1830420844189 | epot = -71.3485909550456 | etot = -33.5644508050188
999000  ekin = 15.0427312776222 |  erot = 23.657392608768 | epot = -72.2645746968681 | etot = -33.5644508104779
1000000  ekin = 15.613660129969 |  erot = 24.1382006023969 | epot = -73.3163115458147 | etot = -33.5644508134487
   1000000   349.20396     -76.691733      3.375421      -57.702651     -0.00024160068  39304000     
Loop time of 31.1467 on 1 procs for 1000000 steps with 16 atoms

Performance: 47.324 ns/day, 0.507 hours/ns, 32106.084 timesteps/s, 513.697 katom-step/s
99.6% CPU use with 1 MPI tasks x no OpenMP threads

MPI task timing breakdown:
Section |  min time  |  avg time  |  max time  |%varavg| %total
---------------------------------------------------------------
Pair    | 26.515     | 26.515     | 26.515     |   0.0 | 85.13
Bond    | 1.0244     | 1.0244     | 1.0244     |   0.0 |  3.29
Neigh   | 0.019506   | 0.019506   | 0.019506   |   0.0 |  0.06
Comm    | 0.45429    | 0.45429    | 0.45429    |   0.0 |  1.46
Output  | 0.22043    | 0.22043    | 0.22043    |   0.0 |  0.71
Modify  | 2.4659     | 2.4659     | 2.4659     |   0.0 |  7.92
Other   |            | 0.4469     |            |       |  1.43

Nlocal:             16 ave          16 max          16 min
Histogram: 1 0 0 0 0 0 0 0 0 0
Nghost:              0 ave           0 max           0 min
Histogram: 1 0 0 0 0 0 0 0 0 0
Neighs:            107 ave         107 max         107 min
Histogram: 1 0 0 0 0 0 0 0 0 0

Total # of neighbors = 107
Ave neighs/atom = 6.6875
Ave special neighs/atom = 3.75
Neighbor list builds = 1000
Dangerous builds = 0

write_data last_config.${number}.* nocoeff
write_data last_config.2.* nocoeff
System init for write_data ...
Generated 0 of 6 mixed pair_coeff terms from geometric mixing rule
#write_restart last_config.${number}.*
Total wall time: 0:00:31
