LAMMPS (30 Oct 2019)
# hcp cobalt in a 3d periodic box

clear
units	 	metal
atom_style 	spin

dimension 	3
boundary 	p p p

# necessary for the serial algorithm (sametag)
atom_modify 	map array

lattice 	hcp 2.5071
Lattice spacing in x,y,z = 2.5071 4.34242 4.09408
region 		box block 0.0 5.0 0.0 5.0 0.0 5.0
create_box 	1 box
Created orthogonal box = (0 0 0) to (12.5355 21.7121 20.4704)
  1 by 1 by 1 MPI processor grid
create_atoms 	1 box
Created 500 atoms
  create_atoms CPU = 0.000491858 secs

# setting mass, mag. moments, and interactions for hcp cobalt

mass		1 58.93

set 		group all spin/random 31 1.72
  500 settings made for spin/random
#set 		group all spin 1.72 0.0 0.0 1.0
velocity 	all create 100 4928459 rot yes dist gaussian

#pair_style 	hybrid/overlay eam/alloy spin/exchange 4.0 spin/neel 4.0
pair_style 	hybrid/overlay eam/alloy spin/exchange 4.0
pair_coeff 	* * eam/alloy Co_PurjaPun_2012.eam.alloy Co
pair_coeff 	* * spin/exchange exchange 4.0 -0.3593 1.135028015e-05 1.064568567
#pair_coeff 	* * spin/neel neel 4.0 0.0048 0.234 1.168 2.6905 0.705 0.652

neighbor 	0.1 bin
neigh_modify 	every 10 check yes delay 20

#fix 		1 all precession/spin zeeman 1.0 0.0 0.0 1.0
fix 		1 all precession/spin anisotropy 0.01 0.0 0.0 1.0
#fix 		2 all langevin/spin 0.0 0.0 21
fix 		2 all langevin/spin 0.0 0.1 21
fix 		3 all nve/spin lattice moving

timestep	0.0001


compute 	out_mag    all spin
compute 	out_pe     all pe
compute 	out_ke     all ke
compute 	out_temp   all temp

variable 	magz      equal c_out_mag[3]
variable 	magnorm   equal c_out_mag[4]
variable 	emag      equal c_out_mag[5]
variable 	tmag      equal c_out_mag[6]

thermo_style    custom step time v_magnorm v_emag temp press etotal
thermo          10

compute 	outsp all property/atom spx spy spz sp fmx fmy fmz
dump 		1 all custom 100 dump_cobalt_hcp.lammpstrj type x y z c_outsp[1] c_outsp[2] c_outsp[3]

run 		1000
Neighbor list info ...
  update every 10 steps, delay 20 steps, check yes
  max neighbors/atom: 2000, page size: 100000
  master list distance cutoff = 6.59954
  ghost atom cutoff = 6.59954
  binsize = 3.29977, bins = 4 7 7
  2 neighbor lists, perpetual/occasional/extra = 2 0 0
  (1) pair eam/alloy, perpetual, half/full from (2)
      attributes: half, newton on
      pair build: halffull/newton
      stencil: none
      bin: none
  (2) pair spin/exchange, perpetual
      attributes: full, newton on
      pair build: full/bin/atomonly
      stencil: full/bin/3d
      bin: standard
Per MPI rank memory allocation (min/avg/max) = 7.902 | 7.902 | 7.902 Mbytes
Step Time v_magnorm v_emag Temp Press TotEng 
       0            0  0.076558814   -5.1073764    100.00543   -552.75983   -2190.3478 
      10        0.001  0.074494403   -6.2746901    100.01038   -1571.7966   -2191.5266 
      20        0.002  0.072366265   -7.4280779    99.885587   -2535.9845   -2192.6673 
      30        0.003  0.070127018   -8.5667999    99.611653   -3445.9872   -2193.7707 
      40        0.004  0.067755946   -9.6899272    99.164813   -4302.5715   -2194.8376 
      50        0.005  0.065261592    -10.79648    98.520535   -5107.2841   -2195.8697 
      60        0.006  0.062676613   -11.885341    97.657148   -5862.7198   -2196.8696 
      70        0.007  0.060046709   -12.955115    96.558718   -6572.0571   -2197.8404 
      80        0.008  0.057417313   -14.004096    95.216748   -7238.1396   -2198.7846 
      90        0.009  0.054822275   -15.030416    93.630634   -7862.5226   -2199.7028 
     100         0.01  0.052277835   -16.032345     91.80711   -8445.2646   -2200.5936 
     110        0.011  0.049783153   -17.008652    89.759163   -8985.5937   -2201.4546 
     120        0.012  0.047326373   -17.958895    87.504922   -9483.1141   -2202.2836 
     130        0.013  0.044893289   -18.883574    85.066818   -9938.8838     -2203.08 
     140        0.014  0.042474822   -19.784052    82.471014   -10355.911   -2203.8457 
     150        0.015  0.040070404   -20.662271    79.746901   -10739.081   -2204.5843 
     160        0.016  0.037686856   -21.520294    76.926428   -11094.793   -2205.3015 
     170        0.017  0.035334961   -22.359822    74.043181   -11430.247   -2206.0035 
     180        0.018  0.033026799   -23.181822    71.131269   -11752.268   -2206.6955 
     190        0.019  0.030775544   -23.986406    68.224204   -12065.774   -2207.3807 
     200         0.02  0.028597121   -24.773013    65.353995   -12372.712   -2208.0582 
     210        0.021  0.026511775   -25.540835     62.55053   -12672.055   -2208.7235 
     220        0.022   0.02454383   -26.289327    59.841288   -12961.112   -2209.3704 
     230        0.023   0.02271918   -27.018625    57.251361   -13237.544   -2209.9931 
     240        0.024  0.021061271   -27.729714     54.80373   -13501.028   -2210.5885 
     250        0.025  0.019587072    -28.42449    52.519717   -13754.325   -2211.1572 
     260        0.026  0.018304494   -29.105398    50.419388   -14002.718   -2211.7031 
     270        0.027  0.017211977   -29.775134    48.521812   -14253.089   -2212.2321 
     280        0.028  0.016300002   -30.436204    46.845075   -14512.437   -2212.7508 
     290        0.029  0.015553519   -31.090499    45.405985    -14786.53   -2213.2644 
     300         0.03  0.014954102   -31.739026    44.219544   -15079.165   -2213.7764 
     310        0.031  0.014481189   -32.381585    43.298175   -15391.531   -2214.2875 
     320        0.032  0.014112494   -33.016984    42.650874   -15722.828   -2214.7966 
     330        0.033  0.013824206   -33.643289    42.282535   -16070.874   -2215.3011 
     340        0.034  0.013591568   -34.258323     42.19365   -16433.065   -2215.7983 
     350        0.035  0.013390035   -34.860184    42.380506   -16807.186    -2216.286 
     360        0.036   0.01319679   -35.447655    42.835832   -17191.816    -2216.763 
     370        0.037  0.012992271   -36.020512    43.549656   -17586.676   -2217.2292 
     380        0.038  0.012761486   -36.579332    44.510078   -17991.857   -2217.6857 
     390        0.039  0.012494918   -37.125414    45.703757   -18407.738   -2218.1336 
     400         0.04    0.0121888   -37.660321    47.115967   -18834.276   -2218.5743 
     410        0.041  0.011844474   -38.185489    48.730291   -19270.674   -2219.0083 
     420        0.042  0.011466715    -38.70192    50.528119   -19715.276   -2219.4355 
     430        0.043  0.011061388    -39.21005    52.488204    -20165.66   -2219.8551 
     440        0.044  0.010633241   -39.709778    54.586528   -20618.997    -2220.266 
     450        0.045  0.010184696   -40.200724     56.79654   -21072.538   -2220.6671 
     460        0.046 0.0097161044   -40.682449    59.089699   -21523.873   -2221.0575 
     470        0.047 0.0092271788   -41.154614    61.436133   -21970.922   -2221.4371 
     480        0.048 0.0087187266   -41.617256    63.805414    -22412.32   -2221.8064 
     490        0.049 0.0081937768   -42.070708    66.167399   -22847.061   -2222.1664 
     500         0.05 0.0076576327    -42.51563    68.493235   -23274.619   -2222.5187 
     510        0.051 0.0071170477   -42.952841    70.756444   -23694.559   -2222.8652 
     520        0.052  0.006579078   -43.383338    72.933996   -24106.717   -2223.2075 
     530        0.053  0.006050144   -43.807962    75.007131   -24510.338   -2223.5467 
     540        0.054 0.0055354475   -44.227552    76.961803   -24904.495   -2223.8833 
     550        0.055 0.0050386503    -44.64268    78.788647   -25287.341   -2224.2166 
     560        0.056 0.0045617699   -45.053996      80.4825    -25657.11   -2224.5456 
     570        0.057 0.0041054334   -45.461923    82.041527   -26011.443   -2224.8688 
     580        0.058  0.003669689   -45.866895    83.466142   -26348.265   -2225.1846 
     590        0.059 0.0032553824   -46.269219    84.757926   -26665.834    -2225.492 
     600         0.06 0.0028655752   -46.669125    85.918711    -26963.24   -2225.7906 
     610        0.061 0.0025060765   -47.066641        86.95   -27240.331   -2226.0806 
     620        0.062 0.0021839971   -47.461566    87.852838   -27497.728   -2226.3626 
     630        0.063 0.0019039581   -47.853462    88.628142   -27736.503   -2226.6376 
     640        0.064 0.0016633855   -48.241747    89.277364    -27957.91   -2226.9064 
     650        0.065 0.0014502904   -48.625803    89.803307    -28163.11   -2227.1692 
     660        0.066 0.0012463786   -49.005026    90.210807   -28352.881   -2227.4258 
     670        0.067 0.0010345087   -49.378935    90.507107   -28527.721   -2227.6754 
     680        0.068 0.00080788134   -49.747325    90.701795   -28688.395   -2227.9175 
     690        0.069  0.000586442   -50.110227     90.80636   -28836.094   -2228.1522 
     700         0.07 0.00046855102   -50.467799    90.833539   -28972.361   -2228.3797 
     710        0.071 0.00061091693    -50.82044    90.796649    -29099.44   -2228.6011 
     720        0.072 0.00094960177   -51.168606    90.709122   -29219.676   -2228.8175 
     730        0.073 0.0013742455   -51.512913    90.584346   -29335.643   -2229.0301 
     740        0.074 0.0018397629   -51.853957    90.435783   -29449.521   -2229.2396 
     750        0.075 0.0023216474   -52.192407    90.277231   -29563.316   -2229.4468 
     760        0.076 0.0028000512   -52.528883    90.123061   -29678.726   -2229.6522 
     770        0.077 0.0032569295   -52.863859     89.98824   -29797.079   -2229.8564 
     780        0.078 0.0036765431   -53.197843    89.888047   -29919.964     -2230.06 
     790        0.079 0.0040467094   -53.530921    89.837568   -30048.271   -2230.2638 
     800         0.08 0.0043597837   -53.862938    89.850978   -30182.622   -2230.4682 
     810        0.081 0.0046129296   -54.193489    89.940884   -30323.293   -2230.6737 
     820        0.082 0.0048076151   -54.522077    90.117797   -30470.468   -2230.8804 
     830        0.083  0.004948533    -54.84813    90.389814   -30624.056   -2231.0884 
     840        0.084 0.0050423324   -55.171024    90.762454   -30783.658   -2231.2974 
     850        0.085 0.0050965581   -55.490357    91.238681   -30949.141   -2231.5072 
     860        0.086 0.0051190641   -55.805904    91.818973     -31120.5   -2231.7177 
     870        0.087 0.0051180301   -56.117429    92.501449   -31297.412   -2231.9286 
     880        0.088 0.0051024116   -56.424751    93.281992   -31479.436   -2232.1393 
     890        0.089  0.005082454   -56.727832    94.154367   -31666.293   -2232.3495 
     900         0.09 0.0050697645   -57.026442    95.110386   -31857.043   -2232.5582 
     910        0.091 0.0050765431   -57.320291    96.140056   -32050.436   -2232.7645 
     920        0.092 0.0051139309   -57.609075    97.231838   -32245.079   -2232.9672 
     930        0.093 0.0051899535    -57.89236    98.372982   -32439.141   -2233.1648 
     940        0.094 0.0053078572   -58.169742     99.54995   -32630.727   -2233.3559 
     950        0.095 0.0054654923    -58.44083    100.74893   -32817.882   -2233.5392 
     960        0.096 0.0056558757   -58.705483    101.95638   -32999.116   -2233.7136 
     970        0.097 0.0058685513   -58.963698    103.15953   -33173.159   -2233.8785 
     980        0.098 0.0060912487   -59.215624    104.34681   -33338.961   -2234.0336 
     990        0.099 0.0063114886   -59.461806    105.50819   -33496.345   -2234.1794 
    1000          0.1 0.0065179843   -59.702883    106.63524   -33645.259   -2234.3168 
Loop time of 5.86376 on 1 procs for 1000 steps with 500 atoms

Performance: 1.473 ns/day, 16.288 hours/ns, 170.539 timesteps/s
100.0% CPU use with 1 MPI tasks x no OpenMP threads

MPI task timing breakdown:
Section |  min time  |  avg time  |  max time  |%varavg| %total
---------------------------------------------------------------
Pair    | 2.9866     | 2.9866     | 2.9866     |   0.0 | 50.93
Neigh   | 0.016013   | 0.016013   | 0.016013   |   0.0 |  0.27
Comm    | 0.046018   | 0.046018   | 0.046018   |   0.0 |  0.78
Output  | 0.011075   | 0.011075   | 0.011075   |   0.0 |  0.19
Modify  | 2.7957     | 2.7957     | 2.7957     |   0.0 | 47.68
Other   |            | 0.008332   |            |       |  0.14

Nlocal:    500 ave 500 max 500 min
Histogram: 1 0 0 0 0 0 0 0 0 0
Nghost:    2442 ave 2442 max 2442 min
Histogram: 1 0 0 0 0 0 0 0 0 0
Neighs:    27581 ave 27581 max 27581 min
Histogram: 1 0 0 0 0 0 0 0 0 0
FullNghs:  55162 ave 55162 max 55162 min
Histogram: 1 0 0 0 0 0 0 0 0 0

Total # of neighbors = 55162
Ave neighs/atom = 110.324
Neighbor list builds = 7
Dangerous builds = 0

Please see the log.cite file for references relevant to this simulation

Total wall time: 0:00:05
