ITEM: TIMESTEP
0
ITEM: NUMBER OF ATOMS
100
ITEM: BOX BOUNDS
0 25
0 25
0 25
ITEM: ATOMS id type xs ys zs
15 3 0.0704432 0.0298664 0.0593292
17 1 0.174222 0.0136744 0.0124332
81 2 0.19392 0.425557 0.234288
82 4 0.119867 0.442463 0.204196
83 3 0.123802 0.443783 0.129303
85 3 0.078478 0.400712 0.222254
87 1 0.101101 0.417306 0.110694
89 1 0.207397 0.386275 0.219709
90 1 0.222695 0.456259 0.221427
51 2 0.70929 0.136283 0.331578
52 4 0.739951 0.211934 0.33504
58 1 0.686232 0.127823 0.368041
59 1 0.682879 0.13242 0.296582
60 1 0.741961 0.10701 0.328174
53 3 0.779389 0.225051 0.272602
54 3 0.786599 0.216384 0.393647
56 1 0.776483 0.243112 0.421171
88 1 0.192394 0.424878 0.27822
10 1 0.513617 0.465457 0.429875
55 3 0.695248 0.253786 0.340756
57 1 0.766384 0.255044 0.25037
21 2 0.090292 0.487588 0.749917
28 1 0.0897532 0.484114 0.706096
4 3 0.457126 0.444132 0.550693
6 1 0.424659 0.451688 0.572214
100 1 0.574049 0.387516 0.74593
75 3 0.853822 0.452082 0.72451
34 3 0.340377 0.22486 0.880055
36 1 0.362603 0.19293 0.872246
30 1 0.0880856 0.44732 0.76751
31 2 0.372895 0.326488 0.9498
32 4 0.37671 0.290471 0.876585
33 3 0.341901 0.333826 0.826235
35 3 0.435016 0.281073 0.859382
37 1 0.364583 0.346848 0.796591
38 1 0.392878 0.301395 0.979846
39 1 0.392742 0.365702 0.948213
40 1 0.33087 0.332155 0.961532
45 3 0.365175 0.455993 0.879626
46 1 0.262124 0.491315 0.84329
91 2 0.54325 0.378839 0.776132
92 4 0.567076 0.406897 0.849077
93 3 0.577771 0.481008 0.844233
94 3 0.632482 0.374873 0.867053
95 3 0.525163 0.394618 0.892384
96 1 0.632014 0.35326 0.900281
98 1 0.537025 0.335382 0.778157
99 1 0.505591 0.398269 0.764172
24 3 0.963441 0.49761 0.75518
72 4 0.851058 0.443996 0.785444
73 3 0.781172 0.425731 0.805569
74 3 0.89677 0.388138 0.805855
76 1 0.917786 0.372034 0.77635
77 1 0.754697 0.425127 0.776252
84 3 0.0992212 0.510622 0.227827
86 1 0.0661292 0.511498 0.249698
64 3 0.280109 0.742097 0.0112144
66 1 0.302444 0.740676 0.0439808
12 4 0.0872604 0.97475 0.03789
13 3 0.157381 0.977912 0.0113536
14 3 0.0854672 0.924212 0.0933448
16 1 0.072828 0.938122 0.128298
68 1 0.193296 0.84719 0.0123616
65 3 0.322034 0.845486 0.001448
1 2 0.494133 0.502445 0.44357
8 1 0.452992 0.503528 0.428101
9 1 0.516367 0.537027 0.427845
2 4 0.493166 0.504828 0.52524
5 3 0.465304 0.555714 0.545639
3 3 0.56377 0.502487 0.550452
7 1 0.57521 0.53385 0.571622
26 1 0.939806 0.518172 0.730674
22 4 0.026856 0.532465 0.774954
23 3 0.0284424 0.5373 0.849818
25 3 0.0281944 0.588768 0.750323
27 1 0.0318892 0.573923 0.864327
29 1 0.127944 0.506643 0.762412
41 2 0.364045 0.559499 0.937712
42 4 0.353982 0.515665 0.869512
43 3 0.400555 0.541717 0.816802
44 3 0.283597 0.524609 0.845182
47 1 0.427143 0.515703 0.8033
48 1 0.336843 0.544901 0.968999
49 1 0.40557 0.555906 0.951856
50 1 0.355247 0.601858 0.929716
97 1 0.554893 0.502983 0.867869
71 2 0.87308 0.511944 0.825222
78 1 0.914151 0.523141 0.81414
79 1 0.845866 0.544882 0.814825
80 1 0.871481 0.505067 0.868609
11 2 0.037468 0.949855 0.978087
19 1 0.0390444 0.978252 0.944498
20 1 0.0498332 0.9101 0.963836
61 2 0.207338 0.838964 0.971536
69 1 0.207673 0.876495 0.948568
70 1 0.179713 0.810629 0.952309
62 4 0.282558 0.807187 0.973939
63 3 0.305288 0.793156 0.903831
67 1 0.337703 0.81265 0.892333
18 1 0.996189 0.947494 0.993034
ITEM: TIMESTEP
30
ITEM: NUMBER OF ATOMS
100
ITEM: BOX BOUNDS
0 25
0 25
0 25
ITEM: ATOMS id type xs ys zs
15 3 0.0706135 0.0299087 0.0594857
17 1 0.172572 0.0146582 0.0137714
81 2 0.194168 0.425475 0.234417
82 4 0.119953 0.442485 0.204226
83 3 0.123697 0.443844 0.129312
85 3 0.0783258 0.400828 0.222113
87 1 0.0997835 0.417043 0.11236
89 1 0.207582 0.386199 0.220028
90 1 0.222943 0.45596 0.221636
51 2 0.709151 0.136029 0.331581
52 4 0.739958 0.211841 0.335046
58 1 0.686031 0.127603 0.367557
59 1 0.682643 0.132168 0.296764
60 1 0.741578 0.106749 0.328143
53 3 0.779464 0.225144 0.272658
54 3 0.786635 0.216528 0.393528
56 1 0.775311 0.244229 0.420814
88 1 0.192758 0.4245 0.27797
10 1 0.513534 0.465728 0.429416
55 3 0.695425 0.253936 0.340728
57 1 0.765082 0.255945 0.252019
21 2 0.0905893 0.487426 0.749781
28 1 0.0903948 0.484059 0.706371
4 3 0.457244 0.4442 0.550849
6 1 0.42431 0.453391 0.572622
100 1 0.573594 0.387176 0.745576
75 3 0.853587 0.45195 0.724503
34 3 0.340406 0.224988 0.879886
36 1 0.364334 0.193194 0.871484
30 1 0.0886088 0.447342 0.767267
31 2 0.372955 0.326652 0.950083
32 4 0.37668 0.290514 0.876669
33 3 0.341796 0.333532 0.826039
35 3 0.434935 0.280976 0.85907
37 1 0.366597 0.346531 0.797777
38 1 0.39301 0.302263 0.980047
39 1 0.392742 0.36571 0.948556
40 1 0.331158 0.332515 0.961944
45 3 0.365295 0.456024 0.879417
46 1 0.26296 0.489781 0.844169
91 2 0.543115 0.378708 0.775925
92 4 0.567083 0.406854 0.849007
93 3 0.577832 0.480941 0.844274
94 3 0.632504 0.375043 0.867142
95 3 0.525167 0.394878 0.892536
96 1 0.63149 0.35325 0.900873
98 1 0.536392 0.335742 0.777748
99 1 0.505408 0.398136 0.764177
24 3 0.963725 0.497768 0.755191
72 4 0.851108 0.444036 0.785517
73 3 0.781187 0.425555 0.805478
74 3 0.896537 0.387896 0.805791
76 1 0.91829 0.373314 0.775145
77 1 0.755838 0.425332 0.775214
84 3 0.0991161 0.51058 0.227673
86 1 0.065187 0.510183 0.249759
64 3 0.280363 0.74205 0.011014
66 1 0.302705 0.742429 0.0448858
12 4 0.0872241 0.974697 0.0378362
13 3 0.157433 0.977783 0.0114691
14 3 0.0857028 0.924285 0.0933025
16 1 0.0725585 0.939648 0.128499
68 1 0.192825 0.847841 0.0117763
65 3 0.322234 0.845309 0.00136528
1 2 0.494113 0.502448 0.443307
8 1 0.453351 0.503796 0.427848
9 1 0.516157 0.537078 0.427565
2 4 0.493177 0.504783 0.525167
5 3 0.465359 0.555659 0.545804
3 3 0.563727 0.50243 0.550616
7 1 0.573036 0.53474 0.571839
26 1 0.943331 0.516705 0.724969
22 4 0.0269677 0.532409 0.774912
23 3 0.0280531 0.5373 0.849727
25 3 0.0279255 0.588891 0.750461
27 1 0.0331681 0.574745 0.862478
29 1 0.128238 0.506367 0.761977
41 2 0.364079 0.559624 0.937986
42 4 0.35395 0.515745 0.869564
43 3 0.40051 0.54161 0.816734
44 3 0.283627 0.52448 0.844947
47 1 0.426166 0.513597 0.804349
48 1 0.337413 0.545255 0.969267
49 1 0.405476 0.555918 0.952196
50 1 0.355372 0.601871 0.930258
97 1 0.554613 0.501264 0.869655
71 2 0.872825 0.512298 0.825773
78 1 0.913768 0.526331 0.819411
79 1 0.845334 0.544576 0.815015
80 1 0.868987 0.504902 0.868715
11 2 0.0372941 0.94979 0.977892
19 1 0.0386782 0.978164 0.944384
20 1 0.0496185 0.910198 0.963633
61 2 0.20703 0.839154 0.971583
69 1 0.207089 0.876781 0.949027
70 1 0.179472 0.811016 0.952395
62 4 0.282452 0.807187 0.973938
63 3 0.305402 0.79301 0.903939
67 1 0.338039 0.813644 0.894253
18 1 0.996252 0.94761 0.992456
ITEM: TIMESTEP
60
ITEM: NUMBER OF ATOMS
100
ITEM: BOX BOUNDS
0 25
0 25
0 25
ITEM: ATOMS id type xs ys zs
15 3 0.0710401 0.0298989 0.0598077
17 1 0.172607 0.0146033 0.0148559
81 2 0.194691 0.425163 0.234674
82 4 0.120226 0.442545 0.204312
83 3 0.123264 0.443802 0.12949
85 3 0.0780242 0.401152 0.221766
87 1 0.0981312 0.417851 0.112891
89 1 0.207809 0.385942 0.219685
90 1 0.223559 0.455843 0.221885
51 2 0.708743 0.135515 0.331507
52 4 0.73998 0.21154 0.335059
58 1 0.685649 0.127218 0.368241
59 1 0.682588 0.132077 0.29631
60 1 0.741339 0.106118 0.328152
53 3 0.779366 0.225556 0.272896
54 3 0.786545 0.217047 0.393303
56 1 0.775074 0.245214 0.420342
88 1 0.192991 0.424566 0.278809
10 1 0.513528 0.465652 0.428757
55 3 0.695892 0.254231 0.340656
57 1 0.765356 0.257109 0.253107
21 2 0.0913795 0.487179 0.749491
28 1 0.0905082 0.483634 0.705445
4 3 0.45737 0.44458 0.551322
6 1 0.424338 0.454142 0.573157
100 1 0.573238 0.386709 0.745014
75 3 0.853046 0.451673 0.724552
34 3 0.340746 0.225176 0.879414
36 1 0.364896 0.1934 0.870468
30 1 0.0891504 0.446883 0.76714
31 2 0.373181 0.327185 0.950684
32 4 0.376583 0.290652 0.876932
33 3 0.341897 0.332754 0.82557
35 3 0.434649 0.28078 0.858373
37 1 0.36746 0.347719 0.798949
38 1 0.393453 0.302089 0.980839
39 1 0.392844 0.366493 0.948103
40 1 0.331175 0.332634 0.96256
45 3 0.365579 0.456172 0.878934
46 1 0.263069 0.489002 0.845054
91 2 0.542604 0.378472 0.775483
92 4 0.5671 0.406708 0.848788
93 3 0.577755 0.480674 0.844606
94 3 0.632484 0.375401 0.867449
95 3 0.525244 0.395516 0.892818
96 1 0.631299 0.3536 0.901305
98 1 0.535847 0.334867 0.777714
99 1 0.505308 0.398879 0.764137
24 3 0.964239 0.498333 0.754867
72 4 0.851317 0.444212 0.785743
73 3 0.781313 0.425155 0.805039
74 3 0.896015 0.387395 0.805366
76 1 0.919853 0.374999 0.775091
77 1 0.756355 0.425028 0.774478
84 3 0.0986846 0.510333 0.227403
86 1 0.064409 0.509637 0.249297
64 3 0.281144 0.742105 0.0107064
66 1 0.301549 0.743656 0.0460131
12 4 0.0871019 0.974534 0.0376617
13 3 0.157375 0.977785 0.0118864
14 3 0.0861821 0.924664 0.0933302
16 1 0.0728312 0.940249 0.128595
68 1 0.19223 0.847631 0.0127904
65 3 0.322639 0.84485 0.00113778
1 2 0.494097 0.502602 0.442713
8 1 0.452658 0.503687 0.427457
9 1 0.516468 0.537289 0.427535
2 4 0.493218 0.504641 0.524924
5 3 0.465524 0.55546 0.54615
3 3 0.563385 0.50257 0.551077
7 1 0.572107 0.534731 0.572793
26 1 0.952039 0.509562 0.716514
22 4 0.0273064 0.532242 0.774782
23 3 0.0271227 0.537573 0.849353
25 3 0.0273318 0.589081 0.750807
27 1 0.0357592 0.574625 0.861752
29 1 0.128754 0.506521 0.762273
41 2 0.36425 0.559865 0.93864
42 4 0.353856 0.516013 0.869734
43 3 0.40042 0.540985 0.81669
44 3 0.283781 0.523864 0.84447
47 1 0.425337 0.512325 0.804064
48 1 0.336941 0.545065 0.97004
49 1 0.405967 0.556044 0.952096
50 1 0.355566 0.602266 0.930682
97 1 0.556155 0.500593 0.871793
71 2 0.871849 0.513385 0.827816
78 1 0.912882 0.52736 0.823785
79 1 0.844069 0.544615 0.813317
80 1 0.862101 0.503482 0.869989
11 2 0.0369184 0.949759 0.977411
19 1 0.038939 0.978227 0.943945
20 1 0.0493513 0.909976 0.963196
61 2 0.206332 0.839775 0.971679
69 1 0.207157 0.876989 0.948274
70 1 0.17891 0.811267 0.952327
62 4 0.282109 0.807199 0.973927
63 3 0.305841 0.792874 0.904391
67 1 0.338379 0.813896 0.894995
18 1 0.995509 0.947275 0.99254
ITEM: TIMESTEP
90
ITEM: NUMBER OF ATOMS
100
ITEM: BOX BOUNDS
0 25
0 25
0 25
ITEM: ATOMS id type xs ys zs
15 3 0.0716398 0.0296827 0.0601326
17 1 0.175775 0.0125067 0.014616
81 2 0.195122 0.424862 0.234891
82 4 0.120677 0.442577 0.20447
83 3 0.122516 0.443583 0.129765
85 3 0.0777424 0.401664 0.221287
87 1 0.0973777 0.420262 0.110755
89 1 0.208238 0.385421 0.220331
90 1 0.224223 0.45564 0.222166
51 2 0.708366 0.135099 0.331437
52 4 0.73995 0.21105 0.335058
58 1 0.684534 0.126801 0.368191
59 1 0.681815 0.131581 0.296483
60 1 0.741002 0.105442 0.328129
53 3 0.779052 0.226291 0.273221
54 3 0.786361 0.217882 0.393143
56 1 0.776957 0.24547 0.420517
88 1 0.19342 0.423647 0.279421
10 1 0.513596 0.465671 0.428144
55 3 0.696585 0.254502 0.340548
57 1 0.768586 0.25768 0.252279
21 2 0.0921226 0.487065 0.749254
28 1 0.091801 0.48375 0.704721
4 3 0.457352 0.445154 0.552074
6 1 0.424641 0.452327 0.573909
100 1 0.573032 0.385953 0.744713
75 3 0.852382 0.451441 0.724774
34 3 0.341324 0.225181 0.878759
36 1 0.36291 0.192684 0.86961
30 1 0.0901179 0.446537 0.76704
31 2 0.373476 0.327743 0.951082
32 4 0.3765 0.290911 0.877351
33 3 0.342298 0.331716 0.824895
35 3 0.434097 0.280601 0.857549
37 1 0.364928 0.35069 0.799154
38 1 0.394787 0.302904 0.981387
39 1 0.393201 0.367178 0.948938
40 1 0.33142 0.333191 0.963364
45 3 0.365959 0.456511 0.878329
46 1 0.26135 0.490025 0.844909
91 2 0.541985 0.378306 0.77518
92 4 0.56706 0.406438 0.848443
93 3 0.577503 0.48035 0.845254
94 3 0.632456 0.375805 0.867935
95 3 0.525473 0.396402 0.893037
96 1 0.632138 0.354172 0.901419
98 1 0.534173 0.33444 0.777613
99 1 0.504676 0.398395 0.76349
24 3 0.964799 0.499109 0.75376
72 4 0.851671 0.444564 0.786119
73 3 0.781564 0.424587 0.804204
74 3 0.895423 0.3868 0.804577
76 1 0.92221 0.375527 0.777264
77 1 0.755348 0.42385 0.775152
26 1 0.960919 0.495861 0.712728
84 3 0.0979421 0.509996 0.227158
86 1 0.0641355 0.51131 0.248453
64 3 0.282286 0.742225 0.010508
66 1 0.299015 0.74233 0.0468983
12 4 0.0868655 0.97434 0.0373551
13 3 0.15725 0.978033 0.0125189
14 3 0.08676 0.925223 0.0935549
16 1 0.0738966 0.938543 0.129063
68 1 0.191848 0.849185 0.0131325
65 3 0.323023 0.844189 0.000778893
1 2 0.49407 0.502777 0.442231
8 1 0.452364 0.504336 0.426634
9 1 0.516095 0.537575 0.426776
2 4 0.493276 0.504477 0.5245
5 3 0.465804 0.555081 0.546511
3 3 0.562817 0.502991 0.551801
7 1 0.574282 0.532834 0.57434
18 1 0.994737 0.94776 0.991975
22 4 0.027921 0.532044 0.774525
23 3 0.0258495 0.538172 0.848834
25 3 0.0267057 0.589156 0.751316
27 1 0.038153 0.572336 0.864125
29 1 0.129695 0.506563 0.761507
41 2 0.364444 0.560042 0.939154
42 4 0.353735 0.516422 0.870059
43 3 0.400385 0.539865 0.816644
44 3 0.283984 0.522775 0.843902
47 1 0.425525 0.51388 0.801345
48 1 0.33723 0.544921 0.97108
49 1 0.406032 0.556021 0.953121
50 1 0.355494 0.602627 0.931497
97 1 0.56006 0.502557 0.872611
71 2 0.869096 0.514033 0.83032
78 1 0.911691 0.523212 0.828793
79 1 0.845774 0.547622 0.813108
80 1 0.858082 0.508213 0.872882
11 2 0.0366369 0.949732 0.976988
19 1 0.0381625 0.978414 0.94361
20 1 0.0489338 0.909768 0.962593
61 2 0.205799 0.840231 0.971733
69 1 0.206559 0.878104 0.949281
70 1 0.177854 0.811891 0.952412
62 4 0.281551 0.807293 0.97392
63 3 0.306599 0.792862 0.905049
67 1 0.338408 0.812279 0.892827
ITEM: TIMESTEP
120
ITEM: NUMBER OF ATOMS
100
ITEM: BOX BOUNDS
0 25
0 25
0 25
ITEM: ATOMS id type xs ys zs
15 3 0.0722551 0.0293074 0.0603615
17 1 0.176826 0.0120241 0.0157864
81 2 0.195322 0.424473 0.235165
82 4 0.121178 0.442495 0.204704
83 3 0.121856 0.443484 0.129716
85 3 0.0775663 0.402235 0.220808
87 1 0.0954482 0.421776 0.110294
89 1 0.208713 0.385271 0.220296
90 1 0.224613 0.454907 0.222851
51 2 0.707894 0.134897 0.331432
52 4 0.739783 0.210511 0.335042
58 1 0.68462 0.12662 0.367832
59 1 0.681702 0.131138 0.29626
60 1 0.740022 0.105006 0.328261
53 3 0.779034 0.226974 0.273299
54 3 0.786463 0.21872 0.393247
56 1 0.777582 0.246227 0.419629
88 1 0.193683 0.423583 0.279115
10 1 0.513239 0.466189 0.427583
55 3 0.697322 0.254663 0.340423
57 1 0.769959 0.259285 0.252897
21 2 0.0928561 0.487322 0.749004
28 1 0.0925053 0.483444 0.70516
4 3 0.457197 0.445355 0.552978
6 1 0.425366 0.452471 0.574574
100 1 0.572226 0.384829 0.744726
75 3 0.851792 0.451515 0.725185
34 3 0.341625 0.224772 0.878175
36 1 0.362401 0.19329 0.868203
30 1 0.0913648 0.44693 0.766457
31 2 0.374038 0.328307 0.951222
32 4 0.376562 0.291268 0.877814
33 3 0.342364 0.330761 0.824044
35 3 0.433427 0.280533 0.85682
37 1 0.364266 0.352985 0.800186
38 1 0.395012 0.303769 0.981067
39 1 0.393014 0.367902 0.949159
40 1 0.332391 0.333379 0.964398
45 3 0.366391 0.456977 0.877793
46 1 0.26139 0.489717 0.845245
91 2 0.541212 0.37804 0.775183
92 4 0.56687 0.406084 0.848076
93 3 0.577448 0.480381 0.845762
94 3 0.632601 0.376145 0.868445
95 3 0.525797 0.39736 0.893122
96 1 0.632406 0.355122 0.901618
98 1 0.533335 0.334866 0.777757
99 1 0.50453 0.39877 0.762533
24 3 0.965198 0.499615 0.751828
72 4 0.851979 0.44516 0.786694
73 3 0.781812 0.423788 0.803352
74 3 0.895022 0.386084 0.80388
76 1 0.923561 0.376873 0.778559
77 1 0.755143 0.422813 0.774356
26 1 0.970146 0.479061 0.717111
84 3 0.0971352 0.510022 0.226979
86 1 0.0636837 0.511338 0.247258
64 3 0.283377 0.741977 0.0104443
66 1 0.297124 0.742481 0.0471109
12 4 0.086527 0.974248 0.036984
13 3 0.157491 0.978056 0.0129771
14 3 0.0874166 0.925441 0.0940191
16 1 0.0750551 0.938364 0.128772
68 1 0.191732 0.848907 0.0128903
65 3 0.323241 0.843535 0.000377179
1 2 0.493952 0.503047 0.441898
8 1 0.452792 0.50422 0.426412
9 1 0.516284 0.537595 0.426251
2 4 0.493296 0.50443 0.523988
5 3 0.466122 0.554628 0.546759
3 3 0.562597 0.503244 0.55263
7 1 0.57414 0.532517 0.576141
18 1 0.995024 0.94763 0.991684
22 4 0.0287442 0.531939 0.774067
23 3 0.024327 0.538578 0.848652
25 3 0.0263848 0.589172 0.751903
27 1 0.0401614 0.57069 0.86487
29 1 0.130415 0.506545 0.761491
41 2 0.364528 0.560013 0.939582
42 4 0.353648 0.516787 0.87053
43 3 0.400527 0.538989 0.816298
44 3 0.283911 0.521704 0.843204
47 1 0.425076 0.513187 0.799964
48 1 0.337552 0.545114 0.970953
49 1 0.406108 0.556587 0.953555
50 1 0.355747 0.602513 0.932533
97 1 0.56302 0.502659 0.874609
71 2 0.86563 0.513972 0.832767
78 1 0.909801 0.516817 0.832164
79 1 0.849725 0.550281 0.814182
80 1 0.851185 0.513394 0.873996
11 2 0.0363332 0.949886 0.976719
19 1 0.0381495 0.978306 0.943154
20 1 0.0480983 0.910108 0.962049
61 2 0.205616 0.840774 0.972002
69 1 0.206099 0.878279 0.949029
70 1 0.176895 0.81351 0.952971
62 4 0.280922 0.807532 0.973961
63 3 0.307356 0.792663 0.905343
67 1 0.339219 0.811822 0.892748
ITEM: TIMESTEP
150
ITEM: NUMBER OF ATOMS
100
ITEM: BOX BOUNDS
0 25
0 25
0 25
ITEM: ATOMS id type xs ys zs
15 3 0.0726974 0.0289789 0.0604713
17 1 0.174288 0.0138254 0.01892
81 2 0.195451 0.42412 0.235455
82 4 0.121603 0.442389 0.20493
83 3 0.121468 0.443582 0.129372
85 3 0.0775016 0.402675 0.220478
87 1 0.0921239 0.42171 0.11306
89 1 0.208244 0.38486 0.220481
90 1 0.224286 0.454559 0.223059
51 2 0.707455 0.134736 0.331465
52 4 0.7396 0.210053 0.335023
58 1 0.684253 0.127318 0.367243
59 1 0.681279 0.131588 0.296324
60 1 0.739641 0.105299 0.328377
53 3 0.77937 0.227402 0.273131
54 3 0.786789 0.21934 0.393469
56 1 0.776002 0.247905 0.417482
88 1 0.193215 0.422859 0.278661
10 1 0.513111 0.466529 0.427776
55 3 0.697866 0.254702 0.34031
57 1 0.768061 0.26192 0.256141
21 2 0.093737 0.487756 0.748825
28 1 0.0931709 0.484477 0.705698
4 3 0.457045 0.445227 0.553794
6 1 0.426302 0.455636 0.575199
100 1 0.571819 0.383804 0.74532
75 3 0.851408 0.45217 0.725869
34 3 0.341661 0.224242 0.877838
36 1 0.364418 0.19538 0.866079
30 1 0.0917607 0.447934 0.766742
31 2 0.374677 0.328854 0.951271
32 4 0.376676 0.291607 0.878156
33 3 0.341938 0.330005 0.823208
35 3 0.432933 0.280635 0.856328
37 1 0.366868 0.353835 0.802711
38 1 0.396377 0.304784 0.979887
39 1 0.393457 0.368205 0.948102
40 1 0.333036 0.33337 0.964017
45 3 0.366872 0.457421 0.877523
46 1 0.26407 0.48708 0.846351
91 2 0.540483 0.377678 0.775283
92 4 0.5666 0.40578 0.847762
93 3 0.577677 0.480665 0.845933
94 3 0.632821 0.376404 0.868812
95 3 0.52604 0.39821 0.893142
96 1 0.631577 0.356375 0.902161
98 1 0.531504 0.335565 0.778679
99 1 0.504105 0.399327 0.763166
24 3 0.965919 0.499575 0.749209
72 4 0.851986 0.445838 0.78745
73 3 0.781985 0.422733 0.802654
74 3 0.894841 0.385512 0.803494
76 1 0.9234 0.379534 0.777482
77 1 0.757159 0.422441 0.771046
26 1 0.979649 0.464804 0.732102
97 1 0.563944 0.499569 0.878168
84 3 0.0965146 0.510327 0.226833
86 1 0.0627055 0.508764 0.245934
64 3 0.284132 0.741482 0.0103857
66 1 0.296825 0.745096 0.046933
12 4 0.0862371 0.974195 0.0366562
13 3 0.158019 0.977728 0.0131479
14 3 0.0880824 0.92531 0.0944469
16 1 0.0760094 0.940765 0.127806
68 1 0.192917 0.849508 0.0128577
65 3 0.323241 0.843145 5.60053e-05
1 2 0.493846 0.503234 0.441603
8 1 0.453118 0.504829 0.426898
9 1 0.516088 0.538065 0.426514
2 4 0.493296 0.504436 0.523551
5 3 0.466357 0.554303 0.546818
3 3 0.562762 0.503213 0.553394
7 1 0.569985 0.534412 0.577658
18 1 0.995429 0.948391 0.991555
22 4 0.0294752 0.531898 0.773439
23 3 0.0227012 0.538476 0.848633
25 3 0.0266507 0.589353 0.752423
27 1 0.0414942 0.570599 0.862825
29 1 0.130697 0.50775 0.761372
41 2 0.364485 0.56002 0.939963
42 4 0.353616 0.517051 0.870976
43 3 0.40076 0.538597 0.815742
44 3 0.283646 0.520848 0.842524
47 1 0.423245 0.508922 0.801456
48 1 0.33803 0.544666 0.970534
49 1 0.406119 0.555978 0.953354
50 1 0.35548 0.602133 0.932419
67 1 0.340809 0.813196 0.896409
71 2 0.862693 0.513704 0.834551
78 1 0.906671 0.512925 0.842107
79 1 0.851513 0.548956 0.811933
80 1 0.842182 0.511101 0.872538
11 2 0.036024 0.950076 0.976522
19 1 0.0379856 0.978831 0.943364
20 1 0.0481173 0.91052 0.96227
61 2 0.205465 0.841264 0.972334
69 1 0.207069 0.878889 0.949784
70 1 0.177678 0.813493 0.953235
62 4 0.280379 0.807768 0.974014
63 3 0.307867 0.792276 0.905243
ITEM: TIMESTEP
180
ITEM: NUMBER OF ATOMS
100
ITEM: BOX BOUNDS
0 25
0 25
0 25
ITEM: ATOMS id type xs ys zs
15 3 0.0728158 0.0288486 0.0604329
17 1 0.173391 0.0142794 0.0205515
81 2 0.195284 0.423737 0.235671
82 4 0.12187 0.442458 0.204988
83 3 0.121156 0.443637 0.129306
85 3 0.0775746 0.402839 0.22042
87 1 0.0904531 0.421704 0.114583
89 1 0.208314 0.38461 0.220682
90 1 0.224674 0.453944 0.223729
51 2 0.707054 0.134877 0.331488
52 4 0.739661 0.209759 0.334997
58 1 0.683427 0.127035 0.367348
59 1 0.680995 0.131433 0.296353
60 1 0.738773 0.104813 0.328548
53 3 0.779499 0.227681 0.273145
54 3 0.786815 0.219735 0.393489
56 1 0.775435 0.249161 0.416155
88 1 0.193472 0.422226 0.27926
10 1 0.512896 0.466886 0.426947
55 3 0.698037 0.25459 0.340226
57 1 0.767163 0.263283 0.258023
21 2 0.0946611 0.488681 0.74887
28 1 0.0950343 0.484637 0.70545
4 3 0.456969 0.4454 0.554274
6 1 0.427067 0.457241 0.576132
100 1 0.570612 0.381946 0.744991
75 3 0.851308 0.453667 0.726969
34 3 0.341979 0.224086 0.877784
36 1 0.365326 0.196456 0.86426
30 1 0.0936343 0.448664 0.766626
31 2 0.375479 0.329316 0.950818
32 4 0.376602 0.291766 0.878187
33 3 0.341589 0.329467 0.822842
35 3 0.432851 0.28095 0.856194
37 1 0.367416 0.354305 0.803832
38 1 0.397756 0.306278 0.980391
39 1 0.393572 0.369056 0.947445
40 1 0.334208 0.333866 0.964783
45 3 0.367407 0.457747 0.877686
46 1 0.265904 0.485029 0.845848
91 2 0.539746 0.377342 0.775742
92 4 0.566445 0.405694 0.847542
93 3 0.577938 0.48062 0.846039
94 3 0.632741 0.376578 0.868928
95 3 0.52603 0.398791 0.893165
96 1 0.631226 0.357546 0.902746
98 1 0.529182 0.335141 0.778871
99 1 0.504081 0.399929 0.763388
24 3 0.9682 0.49848 0.746407
72 4 0.851647 0.446299 0.788324
73 3 0.782113 0.421504 0.801861
74 3 0.894836 0.385733 0.803275
76 1 0.922229 0.380592 0.775823
77 1 0.759117 0.42163 0.768171
26 1 0.977664 0.459515 0.750376
97 1 0.564437 0.497998 0.879716
84 3 0.0961731 0.510323 0.226736
86 1 0.061893 0.507543 0.244831
64 3 0.284424 0.741392 0.0103071
66 1 0.297764 0.745986 0.04646
12 4 0.0862197 0.973996 0.0364691
13 3 0.158196 0.977478 0.0132822
14 3 0.0885448 0.925322 0.0944927
16 1 0.077375 0.942054 0.127534
68 1 0.191997 0.850235 0.0132511
9 1 0.51598 0.538123 0.426337
1 2 0.493787 0.503446 0.441608
8 1 0.452896 0.505126 0.426348
2 4 0.493375 0.504295 0.523367
5 3 0.466417 0.55425 0.546606
3 3 0.562667 0.503287 0.55395
7 1 0.567615 0.535235 0.578677
18 1 0.994741 0.948594 0.991177
22 4 0.0297678 0.531944 0.772863
23 3 0.0213429 0.537988 0.848038
25 3 0.0276348 0.58975 0.752634
27 1 0.0400061 0.570388 0.862343
29 1 0.131563 0.508671 0.76141
41 2 0.364302 0.559855 0.940041
42 4 0.353622 0.517283 0.871116
43 3 0.400807 0.538211 0.815492
44 3 0.283626 0.519944 0.842295
47 1 0.422063 0.506077 0.80288
48 1 0.338052 0.544904 0.97151
49 1 0.405893 0.556303 0.953604
50 1 0.355381 0.602165 0.933181
67 1 0.342091 0.8132 0.898806
71 2 0.860835 0.512027 0.835735
78 1 0.899793 0.516698 0.855538
79 1 0.852809 0.54833 0.812566
80 1 0.828854 0.509533 0.866339
11 2 0.0358319 0.950486 0.976545
19 1 0.0376929 0.978919 0.943177
20 1 0.0475478 0.910827 0.961986
61 2 0.205844 0.841682 0.972779
69 1 0.206464 0.879246 0.950186
70 1 0.177367 0.814397 0.953699
62 4 0.280086 0.807727 0.973979
63 3 0.30809 0.792156 0.905328
65 3 0.322963 0.843203 0.999899
ITEM: TIMESTEP
210
ITEM: NUMBER OF ATOMS
100
ITEM: BOX BOUNDS
0 25
0 25
0 25
ITEM: ATOMS id type xs ys zs
15 3 0.0725813 0.0288776 0.0601962
17 1 0.177142 0.0116888 0.0186364
81 2 0.195117 0.423336 0.235903
82 4 0.12193 0.442739 0.204842
83 3 0.12083 0.443519 0.129738
85 3 0.0778433 0.402704 0.220671
87 1 0.0921838 0.42252 0.111766
89 1 0.208031 0.384126 0.22056
90 1 0.224974 0.453801 0.224196
51 2 0.70665 0.135009 0.331504
52 4 0.740015 0.209675 0.334969
58 1 0.682397 0.127204 0.368224
59 1 0.680723 0.13175 0.296066
60 1 0.738482 0.104429 0.328794
53 3 0.779164 0.227886 0.273497
54 3 0.786351 0.219896 0.393246
56 1 0.777623 0.249178 0.416979
88 1 0.193061 0.42172 0.280515
10 1 0.512947 0.466664 0.426642
55 3 0.697798 0.254263 0.340174
57 1 0.769978 0.262172 0.2555
21 2 0.0959851 0.489875 0.749128
28 1 0.0966599 0.485406 0.704609
4 3 0.456941 0.446062 0.554331
6 1 0.427275 0.454879 0.577458
100 1 0.570096 0.379923 0.745119
75 3 0.851545 0.456186 0.728504
34 3 0.342777 0.224401 0.878029
36 1 0.363118 0.194966 0.8636
30 1 0.0955082 0.449452 0.767245
31 2 0.376314 0.329942 0.950267
32 4 0.376319 0.291694 0.877854
33 3 0.341529 0.329252 0.823123
35 3 0.433215 0.281499 0.856464
37 1 0.363228 0.35491 0.801804
38 1 0.399964 0.306821 0.980373
39 1 0.393975 0.370217 0.945845
40 1 0.334895 0.333971 0.965024
45 3 0.367968 0.457957 0.878357
46 1 0.264901 0.485057 0.842652
91 2 0.538846 0.376957 0.77619
92 4 0.566462 0.405859 0.847454
93 3 0.57811 0.480077 0.846207
94 3 0.63224 0.376606 0.868745
95 3 0.525739 0.399023 0.893189
96 1 0.632175 0.358305 0.903148
98 1 0.526696 0.334062 0.78028
99 1 0.504046 0.400706 0.7635
24 3 0.971765 0.496142 0.744012
72 4 0.851141 0.446294 0.789207
73 3 0.78207 0.420108 0.800738
74 3 0.89511 0.387086 0.803163
76 1 0.92016 0.377852 0.774765
77 1 0.758183 0.41917 0.76845
26 1 0.962923 0.46306 0.76141
84 3 0.0961358 0.50983 0.226743
86 1 0.0616635 0.509894 0.244319
64 3 0.284165 0.741894 0.0102895
66 1 0.299711 0.743154 0.0456214
12 4 0.0865187 0.973643 0.0364619
13 3 0.157821 0.97752 0.0134464
14 3 0.0886783 0.925614 0.0941052
16 1 0.079335 0.940124 0.128659
68 1 0.192031 0.850472 0.0148721
9 1 0.516153 0.538364 0.426581
1 2 0.493789 0.503611 0.441614
8 1 0.451939 0.505312 0.426125
2 4 0.493538 0.503979 0.523493
5 3 0.466301 0.55446 0.546061
3 3 0.562064 0.503673 0.554248
7 1 0.571048 0.533307 0.579304
18 1 0.993673 0.949055 0.991716
22 4 0.0297411 0.53213 0.772403
23 3 0.0204034 0.537185 0.846718
25 3 0.0292019 0.590302 0.752382
27 1 0.0347786 0.569529 0.864573
29 1 0.132401 0.510971 0.76217
41 2 0.36404 0.559831 0.940112
42 4 0.353646 0.517478 0.870891
43 3 0.400609 0.537512 0.815768
44 3 0.283979 0.518879 0.842707
47 1 0.423921 0.508832 0.801115
48 1 0.337088 0.544334 0.97225
49 1 0.405878 0.556488 0.953565
50 1 0.354762 0.602468 0.933081
67 1 0.34248 0.810069 0.896221
71 2 0.858262 0.510763 0.837298
78 1 0.890317 0.514566 0.866561
79 1 0.858639 0.547002 0.810789
80 1 0.819135 0.509607 0.860786
11 2 0.0356266 0.95091 0.976577
19 1 0.0377595 0.979543 0.943198
20 1 0.0470978 0.910838 0.961741
61 2 0.206077 0.842089 0.973211
69 1 0.206992 0.879711 0.950294
70 1 0.177199 0.814553 0.953956
62 4 0.280106 0.807367 0.973856
63 3 0.308066 0.792529 0.905799
65 3 0.322373 0.843736 0.999931
97 1 0.565341 0.501164 0.877116
ITEM: TIMESTEP
240
ITEM: NUMBER OF ATOMS
100
ITEM: BOX BOUNDS
0 25
0 25
0 25
ITEM: ATOMS id type xs ys zs
15 3 0.0720985 0.0288892 0.0597333
17 1 0.178783 0.0100394 0.0169192
81 2 0.194967 0.423091 0.236131
82 4 0.121678 0.443007 0.204605
83 3 0.120888 0.443511 0.13004
85 3 0.0783394 0.402345 0.221183
87 1 0.0946166 0.422175 0.110229
89 1 0.207467 0.383589 0.220852
90 1 0.224802 0.453752 0.224583
51 2 0.706406 0.135101 0.331586
52 4 0.7404 0.209914 0.334942
58 1 0.681684 0.128187 0.368123
59 1 0.680245 0.132263 0.296131
60 1 0.738367 0.104519 0.329122
53 3 0.778994 0.227708 0.273677
54 3 0.785961 0.219607 0.393071
56 1 0.778849 0.249289 0.418046
88 1 0.192069 0.420873 0.280632
10 1 0.513059 0.466396 0.427103
55 3 0.69724 0.253694 0.340151
57 1 0.771225 0.260325 0.253482
21 2 0.0975774 0.491311 0.749685
28 1 0.0986223 0.487293 0.70511
4 3 0.456916 0.446453 0.554024
6 1 0.426973 0.453586 0.578612
100 1 0.570104 0.377586 0.746213
75 3 0.852188 0.459605 0.730289
34 3 0.343414 0.224737 0.878732
36 1 0.36197 0.193343 0.863266
30 1 0.0974292 0.451056 0.76844
31 2 0.377034 0.330601 0.949615
32 4 0.376151 0.291483 0.877203
33 3 0.341009 0.329514 0.823674
35 3 0.433846 0.282256 0.857064
37 1 0.360788 0.354079 0.800314
38 1 0.402282 0.307728 0.978518
39 1 0.394386 0.370998 0.944419
40 1 0.335615 0.333983 0.964842
45 3 0.368477 0.458093 0.879476
46 1 0.265018 0.484074 0.8396
91 2 0.537915 0.376518 0.776596
92 4 0.566465 0.406196 0.847628
93 3 0.578487 0.479706 0.845922
94 3 0.631694 0.376374 0.868248
95 3 0.525299 0.398901 0.893141
96 1 0.632728 0.35866 0.903622
98 1 0.524118 0.33442 0.782506
99 1 0.503648 0.400736 0.763092
24 3 0.974954 0.492809 0.741535
72 4 0.850402 0.445757 0.789894
73 3 0.781536 0.418347 0.799692
74 3 0.896037 0.389135 0.803473
76 1 0.915801 0.374135 0.772623
77 1 0.757207 0.416865 0.768833
26 1 0.951356 0.476908 0.769698
84 3 0.0965187 0.509508 0.226882
86 1 0.0612804 0.511528 0.244451
64 3 0.283256 0.742296 0.0103858
66 1 0.303232 0.741197 0.0444056
12 4 0.0869816 0.973431 0.036648
13 3 0.15759 0.977341 0.0131945
14 3 0.0885792 0.925536 0.0935647
16 1 0.0808255 0.938951 0.129932
68 1 0.193735 0.851007 0.0155684
9 1 0.516077 0.538621 0.426813
1 2 0.493847 0.503556 0.441672
8 1 0.451911 0.505776 0.426577
65 3 0.321519 0.844603 0.000140112
2 4 0.493652 0.503777 0.523922
5 3 0.466076 0.554803 0.545192
3 3 0.561744 0.503883 0.554265
7 1 0.573179 0.532135 0.578796
18 1 0.99369 0.950341 0.992341
22 4 0.0297672 0.53245 0.771931
23 3 0.0196135 0.535748 0.845453
25 3 0.0310921 0.590916 0.751807
27 1 0.0276796 0.569811 0.864127
29 1 0.133178 0.513985 0.762794
41 2 0.363625 0.560042 0.940069
42 4 0.353744 0.51738 0.870462
43 3 0.400447 0.53727 0.816061
44 3 0.28424 0.518123 0.843432
47 1 0.426023 0.511908 0.800585
48 1 0.336615 0.543598 0.97162
49 1 0.405451 0.556506 0.953868
50 1 0.353614 0.602527 0.932622
67 1 0.342352 0.807584 0.89473
71 2 0.854486 0.510364 0.839355
78 1 0.88389 0.503447 0.871216
79 1 0.867326 0.545061 0.813748
80 1 0.813964 0.518957 0.856485
11 2 0.0354499 0.951169 0.976662
19 1 0.0374914 0.980498 0.943718
20 1 0.0465805 0.910996 0.961656
61 2 0.206103 0.842201 0.973549
69 1 0.208082 0.88043 0.951462
70 1 0.177186 0.814551 0.954366
62 4 0.28049 0.806967 0.973774
63 3 0.307661 0.792933 0.905906
97 1 0.564298 0.503278 0.873839
ITEM: TIMESTEP
270
ITEM: NUMBER OF ATOMS
100
ITEM: BOX BOUNDS
0 25
0 25
0 25
ITEM: ATOMS id type xs ys zs
15 3 0.0715372 0.0287644 0.0591016
17 1 0.175651 0.0117943 0.0172363
81 2 0.194506 0.422996 0.236258
82 4 0.121164 0.443032 0.204432
83 3 0.12154 0.443792 0.129657
85 3 0.0790016 0.40186 0.221853
87 1 0.0956433 0.419342 0.112764
89 1 0.207617 0.38399 0.220646