 LAMMPS Description
 
          24 atoms
 
           2 atom types
 
   0.0000000000000000        6.2670000000000003      xlo xhi
   0.0000000000000000        6.2670000000000003      ylo yhi
   0.0000000000000000        6.2670000000000003      zlo zhi
 
 Masses
 
              1   15.994915008544922     
              2   1.0078250169754028     
 
 Atoms
 
    1    1    1   0.0   3.08800   3.70000   3.12400
    2    1    2   0.0   4.05800   3.70000   3.12400
    3    1    2   0.0   2.76400   3.13200   3.84100
    4    1    1   0.0   2.47000   0.39000   1.36000
    5    1    2   0.0   1.54000   0.37000   1.73000
    6    1    2   0.0   2.48000   0.00000   0.44000
    7    1    1   0.0   1.99300   0.41700   5.25000
    8    1    2   0.0   2.39300   1.32700   5.16000
    9    1    2   0.0   0.99300   0.49700   5.31000
   10    1    1   0.0   2.05300   6.09700   3.48000
   11    1    2   0.0   2.12300   5.20700   3.02000
   12    1    2   0.0   1.11300   0.17000   3.40000
   13    1    1   0.0   4.90000   5.37700   2.14000
   14    1    2   0.0   5.51000   6.17700   2.18000
   15    1    2   0.0   3.95000   5.68700   2.21000
   16    1    1   0.0   0.92000   3.82700   0.56000
   17    1    2   0.0   0.00000   3.54700   0.27000
   18    1    2   0.0   1.23000   4.59700   0.00000
   19    1    1   0.0   0.89000   2.03700   3.41000
   20    1    2   0.0   0.72000   2.86700   2.87000
   21    1    2   0.0   1.79000   1.66700   3.19000
   22    1    1   0.0   4.45000   4.61700   5.43000
   23    1    2   0.0   4.75000   3.89700   4.81000
   24    1    2   0.0   4.06000   4.21700   6.26000
