Data File for CG Water

1000 atoms
2 atom types

0 31.0648 xlo xhi
0 31.0648 ylo yhi
0 31.0648 zlo zhi

Masses

1 18.0154
2 18.0154

Atoms

1  2 18.26 24.7 15.77
2  2 12.63 1.42 27.01
3  2 10.39 29.11 13.56
4  2 26.47 16.64 7.23
5  2 10.66 23.41 27.33
6  2 19.08 3.2 21.63
7  2 11.17 26.19 1.44
8  2 4.61 4.04 25.72
9  2 4.61 22.91 8.33
10  2 30.61 22.71 25.18
11  2 6.38 18.92 16.87
12  2 17.83 12.53 11.09
13  2 14.89 2.43 22.44
14  2 28.36 30.9 26.38
15  2 25.73 28.56 8.32
16  2 19.61 20.22 4.43
17  2 25.96 30.32 24.22
18  2 14.51 17.35 16.41
19  2 30.23 17.26 10.71
20  2 22.68 23.23 2.3
21  2 10.89 15.76 14.33
22  2 1.46 20.46 12.48
23  2 12.73 19.57 2.71
24  2 1.21 12.02 9.88
25  2 2.63 14.4 23.71
26  2 16.91 20.37 4.73
27  2 28.02 7.7 30.08
28  2 21.22 22.47 19.66
29  2 14.0 28.15 0.14
30  2 19.62 19.73 1.11
31  2 28.29 24.36 10.15
32  2 14.05 1.1 17.64
33  2 12.2 23.75 24.83
34  2 24.56 26.02 13.57
35  2 12.13 8.39 7.17
36  2 20.47 22.28 25.02
37  2 11.06 7.63 24.11
38  2 6.52 22.64 30.46
39  2 16.51 24.78 18.58
40  2 30.18 20.56 29.19
41  2 25.26 7.8 25.98
42  2 20.37 4.16 3.88
43  2 18.85 27.34 27.83
44  2 17.72 29.84 12.78
45  2 19.26 14.48 19.38
46  2 29.73 4.46 4.96
47  2 9.52 26.27 30.33
48  2 6.55 9.25 20.32
49  2 10.49 1.91 23.31
50  2 17.63 1.17 14.48
51  2 1.56 25.17 4.69
52  2 9.08 10.39 2.29
53  2 25.92 7.4 21.53
54  2 25.3 5.14 28.4
55  2 5.63 23.26 19.85
56  2 9.6 9.85 24.85
57  2 3.32 2.77 9.12
58  2 28.54 15.28 22.18
59  2 20.45 8.24 18.25
60  2 12.86 3.73 11.61
61  2 7.42 12.05 13.54
62  2 1.73 28.54 25.27
63  2 3.25 22.18 23.7
64  2 3.27 25.38 2.24
65  2 13.46 15.67 19.28
66  2 31.0 6.91 13.61
67  2 4.85 27.3 12.67
68  2 24.48 13.52 4.98
69  2 23.93 29.62 19.71
70  2 5.03 13.35 19.5
71  2 24.58 13.46 19.59
72  2 7.42 6.82 9.03
73  2 28.76 15.1 3.33
74  2 12.38 17.21 6.63
75  2 15.75 21.23 27.02
76  2 4.58 5.06 28.19
77  2 26.04 23.3 25.38
78  2 30.02 7.27 9.52
79  2 6.93 10.03 24.54
80  2 5.61 26.93 27.34
81  2 29.12 19.12 5.54
82  2 18.44 27.8 14.75
83  2 14.1 23.13 9.78
84  2 24.12 5.55 20.72
85  2 2.52 10.99 18.44
86  2 1.76 6.41 21.47
87  2 25.22 9.56 30.66
88  2 11.87 13.25 9.12
89  2 19.46 0.3 22.07
90  2 28.82 12.29 11.36
91  2 28.47 30.29 14.09
92  2 25.51 20.94 24.33
93  2 1.14 25.4 8.76
94  2 1.33 27.98 3.09
95  2 20.57 26.97 -0.04
96  2 22.73 1.18 0.62
97  2 19.16 16.99 30.52
98  2 0.39 9.65 9.02
99  2 4.41 7.21 3.22
100  2 11.07 30.64 25.91
101  1 7.93 25.84 26.26
102  1 26.76 2.51 2.93
103  1 30.8 18.15 18.49
104  1 10.2 7.46 30.44
105  1 4.77 20.39 26.99
106  1 25.27 26.77 1.64
107  1 28.51 13.99 9.33
108  1 13.86 8.04 24.9
109  1 30.67 29.88 23.01
110  1 29.49 30.58 30.02
111  1 28.74 5.08 30.95
112  1 13.21 4.31 30.96
113  1 5.27 3.66 5.02
114  1 29.43 7.99 17.07
115  1 4.19 1.37 16.63
116  1 1.27 27.81 16.56
117  1 30.64 5.73 25.91
118  1 10.33 5.33 26.48
119  1 11.56 21.77 14.77
120  1 26.46 27.17 5.7
121  1 14.85 25.79 8.64
122  1 22.62 6.18 17.61
123  1 3.45 18.53 11.84
124  1 11.65 18.17 15.97
125  1 23.16 17.0 1.5
126  1 18.92 16.01 3.98
127  1 30.05 0.25 5.23
128  1 26.06 11.96 21.96
129  1 16.82 2.0 10.25
130  1 19.58 2.63 24.75
131  1 20.09 14.75 26.62
132  1 3.14 0.05 26.13
133  1 4.86 11.79 12.99
134  1 1.86 11.32 28.57
135  1 8.82 28.6 6.22
136  1 20.85 24.68 23.87
137  1 7.58 25.15 3.44
138  1 23.46 9.13 8.11
139  1 6.45 10.24 27.37
140  1 15.06 10.35 26.71
141  1 13.8 18.39 26.5
142  1 5.11 7.7 5.83
143  1 23.27 23.16 6.67
144  1 6.33 1.31 11.37
145  1 14.66 22.28 21.43
146  1 7.9 8.65 0.61
147  1 21.83 3.67 26.17
148  1 1.41 23.66 11.09
149  1 10.19 17.23 22.71
150  1 29.53 27.31 23.19
151  1 28.69 11.38 2.33
152  1 1.07 2.97 14.53
153  1 23.47 30.53 14.32
154  1 1.59 18.83 14.75
155  1 20.38 30.6 24.38
156  1 19.81 29.95 27.9
157  1 12.68 27.59 26.46
158  1 20.46 9.14 29.06
159  1 8.69 13.98 24.71
160  1 0.72 9.29 30.28
161  1 11.81 20.55 12.28
162  1 23.8 13.8 9.4
163  1 13.63 0.51 0.95
164  1 2.33 6.68 14.95
165  1 15.98 6.35 25.28
166  1 7.38 14.88 18.44
167  1 17.07 20.48 29.16
168  1 14.53 1.49 8.4
169  1 28.45 1.21 20.58
170  1 0.07 5.28 29.45
171  1 26.0 9.98 15.37
172  1 14.56 6.91 14.46
173  1 20.6 9.09 23.04
174  1 26.02 4.59 0.14
175  1 5.21 21.9 17.55
176  1 2.44 7.72 1.47
177  1 1.25 30.0 13.48
178  1 27.27 23.13 14.61
179  1 24.04 15.61 21.64
180  1 25.13 5.24 17.43
181  1 4.2 15.98 12.34
182  1 26.92 13.54 12.87
183  1 3.38 19.38 9.08
184  1 27.75 25.03 2.15
185  1 26.13 20.68 16.54
186  1 8.3 14.6 13.49
187  1 3.04 22.87 29.93
188  1 9.5 26.41 21.23
189  1 6.53 2.16 2.75
190  1 6.37 29.04 2.63
191  1 26.58 4.38 19.69
192  1 28.44 6.56 14.66
193  1 25.55 11.1 28.03
194  1 25.5 18.39 28.73
195  1 27.67 23.47 5.65
196  1 13.69 14.81 16.17
197  1 22.97 27.61 24.11
198  1 2.06 18.58 30.22
199  1 2.07 7.13 29.2
200  1 13.0 7.26 17.76
201  1 10.04 16.22 30.62
202  1 6.54 9.8 17.47
203  1 5.65 12.68 0.64
204  1 20.84 20.25 23.02
205  1 22.48 27.63 21.48
206  1 15.61 22.73 5.36
207  1 3.52 30.36 6.24
208  1 6.38 17.25 26.36
209  1 14.13 10.57 22.63
210  1 10.22 25.11 3.64
211  1 16.63 14.7 25.08
212  1 3.51 29.69 2.76
213  1 19.2 11.9 21.44
214  1 30.8 23.85 14.75
215  1 21.02 14.34 12.4
216  1 2.75 22.13 27.29
217  1 29.27 14.29 6.8
218  1 8.44 20.67 5.23
219  1 9.42 20.06 22.95
220  1 30.83 10.64 19.73
221  1 19.33 14.14 8.94
222  1 14.18 11.32 18.19
223  1 26.55 2.39 28.55
224  1 6.83 16.57 8.9
225  1 13.98 8.79 1.97
226  1 4.94 3.0 23.16
227  1 25.39 29.46 0.63
228  1 15.32 16.43 2.45
229  1 5.26 29.73 29.87
230  1 26.92 14.84 19.93
231  1 11.87 30.08 4.52
232  1 7.17 6.71 2.23
233  1 10.46 1.13 18.11
234  1 28.59 20.57 25.68
235  1 26.54 4.84 8.44
236  1 16.46 18.37 26.15
237  1 30.53 0.74 15.31
238  1 27.25 6.31 27.09
239  1 22.42 1.65 3.87
240  1 17.85 3.77 8.02
241  1 11.82 8.23 11.15
242  1 8.62 27.66 15.87
243  1 25.19 1.89 18.37
244  1 14.0 21.96 30.21
245  1 29.3 1.73 28.29
246  1 9.35 24.02 12.03
247  1 1.05 21.5 0.35
248  1 21.87 20.54 2.54
249  1 10.59 15.98 17.51
250  1 22.76 6.0 9.32
251  1 0.31 9.13 11.87
252  1 29.16 25.13 18.29
253  1 1.23 29.08 7.75
254  1 30.01 28.49 26.21
255  1 1.87 5.92 5.03
256  1 1.15 10.27 22.35
257  1 11.83 10.31 5.16
258  1 20.89 8.28 8.14
259  1 13.48 11.78 28.37
260  1 6.82 10.48 10.25
261  1 7.34 4.49 18.73
262  1 5.49 22.37 14.23
263  1 12.31 21.05 27.47
264  1 24.09 17.4 8.65
265  1 22.03 11.54 20.98
266  1 16.68 13.17 0.68
267  1 5.52 1.47 8.78
268  1 14.95 11.83 7.95
269  1 5.9 10.66 7.12
270  1 10.06 11.28 30.73
271  1 17.72 10.71 27.46
272  1 13.6 6.23 10.82
273  1 23.42 30.72 9.31
274  1 23.27 4.25 3.8
275  1 13.79 8.37 21.07
276  1 5.01 30.13 12.61
277  1 26.04 24.45 17.25
278  1 22.59 14.31 0.81
279  1 23.74 10.37 17.17
280  1 23.4 8.52 12.55
281  1 10.53 23.97 21.96
282  1 0.69 13.92 28.42
283  1 6.94 6.27 15.01
284  1 29.8 20.92 3.41
285  1 10.19 20.68 19.0
286  1 26.38 25.4 28.89
287  1 12.34 26.9 8.27
288  1 15.0 7.69 6.4
289  1 24.75 13.1 2.24
290  1 4.5 20.58 6.78
291  1 23.27 18.25 11.48
292  1 25.92 26.39 22.66
293  1 24.63 4.21 6.52
294  1 16.68 15.05 15.6
295  1 26.39 16.17 29.89
296  1 10.12 6.21 8.63
297  1 14.41 14.67 12.23
298  1 19.59 3.47 1.47
299  1 28.21 22.43 18.25
300  1 27.87 29.74 11.47
301  1 22.53 24.1 13.94
302  1 12.55 1.58 29.82
303  1 17.45 21.28 8.34
304  1 16.3 10.75 16.22
305  1 16.34 13.25 17.65
306  1 8.44 4.52 0.93
307  1 17.47 23.79 2.3
308  1 29.04 26.8 5.13
309  1 13.13 11.34 24.9
310  1 24.33 13.0 13.32
311  1 8.21 29.74 24.23
312  1 21.79 28.0 5.85
313  1 13.74 20.08 10.26
314  1 20.92 24.38 6.01
315  1 9.83 29.56 17.99
316  1 26.66 30.76 2.95
317  1 24.34 3.08 1.67
318  1 28.09 10.69 23.33
319  1 7.08 25.28 0.77
320  1 15.34 1.12 29.82
321  1 26.07 12.55 7.74
322  1 16.85 0.81 21.24
323  1 9.96 0.57 6.36
324  1 29.4 2.54 1.18
325  1 5.81 1.0 5.42
326  1 25.16 24.89 11.15
327  1 15.43 24.93 13.71
328  1 24.6 10.06 10.58
329  1 20.4 12.04 15.51
330  1 15.72 18.9 0.21
331  1 16.5 17.21 28.81
332  1 16.79 3.11 12.74
333  1 22.75 6.22 6.6
334  1 8.09 19.86 30.92
335  1 24.15 8.75 23.65
336  1 12.24 30.51 15.39
337  1 8.15 26.8 18.69
338  1 0.1 15.0 15.49
339  1 29.84 15.71 30.0
340  1 15.39 18.25 11.17
341  1 1.2 15.49 18.8
342  1 27.55 9.81 17.9
343  1 18.93 8.9 10.06
344  1 28.35 12.36 4.82
345  1 11.21 13.71 30.62
346  1 2.5 16.67 16.33
347  1 0.47 4.2 6.99
348  1 23.72 4.38 12.28
349  1 16.59 3.54 16.9
350  1 17.31 17.81 15.8
351  1 11.58 0.3 21.21
352  1 23.67 21.91 15.84
353  1 7.74 2.78 23.52
354  1 14.34 9.65 4.52
355  1 23.35 10.88 14.55
356  1 3.51 10.03 20.99
357  1 14.63 21.34 1.75
358  1 24.37 8.39 2.96
359  1 14.8 15.5 30.48
360  1 2.59 1.32 12.76
361  1 0.16 13.81 25.49
362  1 11.26 10.11 27.84
363  1 27.8 18.65 15.07
364  1 5.07 5.43 21.33
365  1 14.06 5.26 19.67
366  1 3.76 18.23 19.36
367  1 26.68 27.25 10.67
368  1 7.72 19.58 13.64
369  1 29.48 16.94 16.45
370  1 28.18 13.38 30.28
371  1 29.97 10.41 16.17
372  1 11.97 28.73 29.31
373  1 14.88 0.79 25.43
374  1 8.98 23.85 7.66
375  1 4.78 8.21 9.79
376  1 21.74 20.61 28.64
377  1 20.36 18.75 17.92
378  1 12.61 21.65 23.18
379  1 6.36 29.76 8.49
380  1 12.51 26.69 18.69
381  1 22.2 17.41 6.86
382  1 11.7 6.53 21.66
383  1 4.62 16.22 3.24
384  1 0.76 13.73 0.83
385  1 21.91 13.43 5.67
386  1 17.36 6.16 4.12
387  1 0.34 28.1 11.89
388  1 2.43 26.92 20.47
389  1 0.99 22.41 4.14
390  1 23.77 24.66 24.16
391  1 22.41 7.79 20.57
392  1 16.4 22.82 23.46
393  1 24.68 28.28 17.44
394  1 14.99 26.21 27.12
395  1 0.75 13.41 7.7
396  1 16.43 5.69 21.09
397  1 19.5 6.71 27.89
398  1 14.32 17.4 22.9
399  1 29.04 27.81 19.17
400  1 9.52 19.68 10.69
401  1 5.33 27.17 17.3
402  1 5.2 12.64 9.11
403  1 9.8 6.14 19.74
404  1 9.86 22.71 1.2
405  1 0.84 12.31 14.9
406  1 18.79 12.07 17.76
407  1 27.21 25.79 14.27
408  1 6.11 1.01 19.83
409  1 8.44 5.68 12.85
410  1 22.42 26.4 1.81
411  1 24.0 20.11 18.63
412  1 2.32 26.11 12.18
413  1 26.06 7.28 15.77
414  1 9.96 9.13 19.49
415  1 10.74 12.01 25.79
416  1 30.39 1.07 11.77
417  1 9.49 20.19 26.63
418  1 15.99 30.59 6.78
419  1 11.0 30.74 0.96
420  1 23.67 30.14 22.75
421  1 24.14 9.9 19.82
422  1 5.88 5.5 7.25
423  1 3.45 10.72 9.52
424  1 11.78 25.26 29.31
425  1 15.95 27.28 17.71
426  1 17.99 16.5 8.95
427  1 28.47 0.47 23.29
428  1 14.06 1.39 12.17
429  1 19.28 23.85 8.27
430  1 13.62 4.42 14.21
431  1 2.98 9.89 12.04
432  1 7.35 14.53 10.79
433  1 15.55 0.87 3.17
434  1 7.7 24.24 23.88
435  1 17.61 8.64 6.93
436  1 5.17 26.9 3.74
437  1 1.06 17.17 27.8
438  1 18.8 9.64 19.81
439  1 8.36 1.64 0.63
440  1 13.68 14.97 7.75
441  1 29.56 0.55 17.98
442  1 3.01 24.45 14.3
443  1 11.98 7.48 26.92
444  1 19.13 24.44 27.57
445  1 11.75 14.57 11.88
446  1 13.1 4.54 22.64
447  1 7.2 21.26 28.21
448  1 24.85 22.96 28.77
449  1 15.0 23.95 16.32
450  1 24.6 14.43 15.56
451  1 3.05 13.66 17.69
452  1 3.0 3.39 6.37
453  1 24.92 22.04 13.42
454  1 21.24 2.56 17.68
455  1 19.69 0.3 11.75
456  1 5.73 29.89 26.41
457  1 7.62 30.1 0.37
458  1 14.62 28.23 20.86
459  1 8.72 5.14 23.94
460  1 9.94 25.78 9.45
461  1 17.3 4.53 0.74
462  1 17.58 12.58 14.58
463  1 8.64 2.55 20.15
464  1 21.07 10.96 26.32
465  1 27.85 4.23 10.9
466  1 20.41 29.07 20.84
467  1 9.35 12.65 10.7
468  1 9.88 0.73 3.41
469  1 26.64 20.78 1.33
470  1 25.47 19.72 10.96
471  1 1.01 5.01 12.19
472  1 10.11 27.98 23.8
473  1 17.51 0.24 28.51
474  1 21.85 14.89 8.07
475  1 18.22 12.88 29.4
476  1 10.97 16.02 2.55
477  1 4.3 25.33 5.86
478  1 12.67 27.62 3.28
479  1 12.18 24.26 16.74
480  1 0.24 29.32 20.41
481  1 5.03 15.5 6.14
482  1 11.11 12.43 6.7
483  1 10.14 4.47 15.0
484  1 2.9 6.91 24.11
485  1 30.6 4.29 16.4
486  1 9.61 4.66 29.44
487  1 5.38 17.6 1.1
488  1 3.71 5.22 11.92
489  1 8.93 11.33 8.19
490  1 31.02 28.82 0.48
491  1 0.81 2.74 23.14
492  1 16.45 28.36 8.16
493  1 2.1 8.36 17.2
494  1 25.82 16.89 1.44
495  1 20.21 11.2 11.56
496  1 13.88 23.42 27.01
497  1 30.15 5.56 2.54
498  1 1.76 17.51 24.41
499  1 18.18 8.62 16.29
500  1 4.41 20.18 15.26
501  1 7.05 29.39 19.64
502  1 22.92 21.56 26.41
503  1 29.43 3.25 12.91
504  1 16.92 25.1 29.07
505  1 25.4 12.48 17.22
506  1 7.4 5.74 28.39
507  1 0.14 3.32 27.06
508  1 29.61 24.31 3.76
509  1 13.25 25.77 23.43
510  1 19.18 28.02 24.33
511  1 3.66 10.37 26.9
512  1 12.53 11.26 1.28
513  1 28.21 7.27 11.49
514  1 26.9 9.35 3.39
515  1 18.87 28.09 9.36
516  1 9.3 30.5 15.62
517  1 12.34 13.23 3.13
518  1 27.93 26.52 26.46
519  1 7.78 9.29 14.0
520  1 16.12 6.82 1.73
521  1 0.63 2.82 20.33
522  1 12.2 26.56 13.2
523  1 6.16 16.1 15.43
524  1 13.49 24.29 6.85
525  1 28.61 10.73 30.64
526  1 19.98 17.97 5.68
527  1 2.75 19.83 4.73
528  1 18.41 26.18 2.29
529  1 22.35 24.43 11.05
530  1 4.45 4.92 15.13
531  1 16.8 18.43 21.99
532  1 2.08 4.57 24.87
533  1 26.03 2.02 24.82
534  1 15.65 30.12 19.2
535  1 27.88 13.79 27.66
536  1 29.03 7.86 2.9
537  1 2.68 5.55 9.4
538  1 30.45 11.98 23.35
539  1 2.08 19.71 21.15
540  1 11.06 3.11 4.38
541  1 21.61 14.28 20.83
542  1 15.85 5.82 12.29
543  1 29.7 22.61 8.47
544  1 29.5 7.81 27.38
545  1 24.12 20.22 0.4
546  1 16.0 25.22 21.34
547  1 19.8 25.24 13.43
548  1 7.11 16.71 4.39
549  1 4.59 0.13 21.8
550  1 20.94 12.01 28.92
551  1 12.99 2.09 6.04
552  1 19.45 19.38 14.86
553  1 12.98 23.9 12.88
554  1 13.06 12.04 20.67
555  1 17.56 1.18 25.76
556  1 29.88 16.58 1.42
557  1 6.04 13.87 25.34
558  1 25.5 6.08 10.63
559  1 20.34 11.15 2.51
560  1 3.82 11.92 15.57
561  1 10.47 18.64 8.01
562  1 13.02 24.92 20.67
563  1 20.03 29.78 7.22
564  1 8.36 11.63 28.63
565  1 14.06 21.56 15.74
566  1 9.4 28.78 29.81
567  1 9.07 10.18 22.15
568  1 11.47 22.66 29.81
569  1 17.02 8.02 27.19
570  1 29.56 18.32 21.38
571  1 8.58 8.58 11.23
572  1 22.15 19.86 15.25
573  1 12.34 29.83 7.16
574  1 20.52 25.35 20.66
575  1 21.23 5.6 23.05
576  1 23.45 10.69 5.93
577  1 14.15 4.81 4.29
578  1 8.26 24.58 28.88
579  1 10.03 3.4 7.88
580  1 25.65 7.23 0.84
581  1 7.28 26.7 9.09
582  1 20.47 29.31 16.02
583  1 4.44 7.7 27.1
584  1 27.95 23.13 0.39
585  1 19.82 18.98 12.12
586  1 20.01 5.07 14.72
587  1 1.66 1.23 5.19
588  1 5.6 11.21 22.59
589  1 3.81 22.68 4.63
590  1 17.47 14.06 22.25
591  1 16.77 22.61 10.71
592  1 7.2 26.5 22.52
593  1 10.75 17.97 28.76
594  1 16.61 8.28 20.88
595  1 0.81 27.72 28.37
596  1 6.78 22.71 4.37
597  1 27.35 28.79 17.13
598  1 15.16 3.34 2.07
599  1 19.69 29.89 30.66
600  1 17.34 20.23 2.18
601  1 15.65 15.76 9.8
602  1 19.07 19.02 8.23
603  1 26.13 0.42 7.37
604  1 4.29 9.29 15.94
605  1 7.86 7.42 4.84
606  1 23.4 1.93 16.16
607  1 5.27 27.16 0.17
608  1 27.08 14.52 1.58
609  1 8.34 11.25 18.53
610  1 10.4 17.83 12.7
611  1 8.86 18.1 18.73
612  1 17.69 22.57 26.0
613  1 6.1 6.61 11.68
614  1 24.32 13.38 23.99
615  1 0.13 20.78 22.53
616  1 10.96 20.82 6.33
617  1 28.46 1.62 7.03
618  1 16.9 4.13 23.44
619  1 1.89 11.75 5.82
620  1 3.27 20.91 2.26
621  1 11.14 15.5 24.78
622  1 21.76 3.5 20.99
623  1 3.95 12.22 24.49
624  1 7.26 23.31 16.11
625  1 19.28 20.97 21.06
626  1 7.2 17.22 22.12
627  1 16.26 10.81 24.17
628  1 1.54 24.72 17.86
629  1 17.74 0.11 1.5
630  1 25.85 5.87 23.82
631  1 4.21 7.73 13.47
632  1 20.87 8.0 25.94
633  1 22.23 3.22 8.98
634  1 13.72 30.72 23.05
635  1 4.91 26.26 19.85
636  1 14.82 27.52 13.76
637  1 27.5 3.72 26.36
638  1 27.62 9.82 10.27
639  1 19.32 8.78 3.53
640  1 16.33 28.86 1.39
641  1 30.26 10.13 4.93
642  1 14.94 29.37 4.67
643  1 7.61 12.27 21.0
644  1 5.31 18.92 23.16
645  1 25.19 3.1 14.51
646  1 8.12 21.6 9.56
647  1 20.35 17.71 23.89
648  1 3.39 19.78 24.7
649  1 5.42 23.52 1.93
650  1 29.44 5.52 23.47
651  1 23.83 22.25 20.16
652  1 17.93 4.41 19.13
653  1 9.44 1.91 29.19
654  1 29.91 23.65 12.09
655  1 27.06 21.35 3.96
656  1 16.28 19.92 14.78
657  1 19.99 5.38 17.54
658  1 14.54 21.16 7.89
659  1 26.09 14.97 10.68
660  1 0.63 24.05 28.89
661  1 5.07 25.73 10.62
662  1 6.78 8.27 29.12
663  1 11.86 12.77 15.67
664  1 21.83 14.26 24.49
665  1 23.7 1.53 6.32
666  1 28.91 27.7 13.19
667  1 16.46 28.92 23.22
668  1 26.22 15.29 23.65
669  1 23.75 1.5 21.21
670  1 4.08 23.38 11.4
671  1 29.4 29.73 2.7
672  1 8.94 16.2 27.64
673  1 30.79 23.65 6.33
674  1 27.04 17.6 10.45
675  1 21.48 15.71 29.11
676  1 17.68 22.29 18.33
677  1 22.1 29.54 1.71
678  1 16.17 27.33 3.65
679  1 9.22 5.24 5.71
680  1 1.81 4.91 1.83
681  1 30.98 28.61 5.42
682  1 0.24 6.26 18.55
683  1 17.39 24.85 11.97
684  1 28.21 20.4 22.88
685  1 23.01 8.35 29.39
686  1 4.03 15.76 25.76
687  1 3.89 12.75 4.32
688  1 16.42 9.73 9.22
689  1 14.74 17.01 13.68
690  1 11.65 22.66 10.77
691  1 21.04 26.56 25.76
692  1 3.97 29.83 10.01
693  1 10.62 26.12 25.57
694  1 17.97 8.53 23.31
695  1 19.22 16.46 13.24
696  1 2.39 24.13 25.42
697  1 1.72 21.99 14.71
698  1 14.16 25.55 4.52
699  1 10.58 12.26 13.38
700  1 25.76 29.55 5.46
701  1 24.18 1.25 26.8
702  1 30.61 26.16 30.37
703  1 3.38 16.05 28.52
704  1 1.18 24.43 20.96
705  1 7.9 1.26 25.66
706  1 26.57 10.39 5.82
707  1 8.44 8.09 16.34
708  1 16.67 27.55 25.72
709  1 7.45 2.82 7.35
710  1 19.18 19.09 28.22
711  1 12.68 8.88 30.58
712  1 27.98 26.24 30.75
713  1 11.84 28.3 20.75
714  1 10.45 30.97 11.14
715  1 8.96 2.33 11.92
716  1 7.66 10.26 5.22
717  1 23.5 12.98 28.85
718  1 30.48 8.08 21.02
719  1 16.48 29.96 10.33
720  1 13.88 5.72 8.08
721  1 27.47 28.22 21.47
722  1 26.74 18.07 22.5
723  1 25.13 23.78 0.9
724  1 29.21 15.71 26.07
725  1 19.41 3.92 10.58
726  1 24.96 7.64 5.7
727  1 7.44 14.1 29.85
728  1 7.13 12.21 3.18
729  1 16.35 14.7 4.18
730  1 1.43 15.6 11.58
731  1 30.27 1.93 9.17
732  1 2.77 2.54 27.69
733  1 11.36 27.83 16.39
734  1 7.83 2.36 14.66
735  1 19.3 12.28 5.63
736  1 28.36 12.19 19.25
737  1 10.67 7.34 13.62
738  1 26.6 24.47 21.0
739  1 8.55 29.42 27.3
740  1 25.79 25.13 4.07
741  1 28.21 8.09 22.88
742  1 22.44 11.07 23.78
743  1 27.76 17.89 25.74
744  1 2.23 0.19 23.48
745  1 10.49 12.99 20.29
746  1 18.74 11.84 24.74
747  1 29.46 2.69 24.54
748  1 3.11 29.29 15.2
749  1 21.8 19.07 20.45
750  1 11.21 17.26 20.08
751  1 2.59 26.55 26.79
752  1 23.67 25.82 17.79
753  1 23.43 27.91 15.08
754  1 6.86 2.11 28.13
755  1 14.38 19.97 19.61
756  1 29.05 26.41 8.62
757  1 3.34 9.63 6.81
758  1 21.41 30.88 18.45
759  1 30.35 16.75 23.77
760  1 19.92 6.73 20.92
761  1 26.4 1.5 11.47
762  1 16.6 8.88 30.96
763  1 23.25 29.76 4.34
764  1 17.15 13.45 7.34
765  1 14.52 14.34 23.37
766  1 11.77 3.31 25.06
767  1 15.52 25.25 0.94
768  1 21.53 27.39 12.97
769  1 11.29 10.11 17.38
770  1 11.07 15.06 5.47
771  1 27.61 7.39 6.07
772  1 15.82 4.83 27.63
773  1 17.16 20.28 12.25
774  1 3.18 28.03 22.92
775  1 25.53 27.61 25.22
776  1 1.81 16.55 1.25
777  1 3.72 16.82 7.97
778  1 7.68 21.57 2.11
779  1 21.85 26.93 28.36
780  1 10.31 8.57 4.0
781  1 11.61 9.88 14.35
782  1 0.41 8.48 24.13
783  1 3.8 10.63 30.74
784  1 2.74 17.0 21.82
785  1 28.44 22.73 28.74
786  1 2.08 0.43 20.23
787  1 0.25 9.36 2.02
788  1 27.68 11.33 26.53
789  1 27.63 4.1 14.74
790  1 19.68 0.89 3.22
791  1 17.12 30.74 17.17
792  1 16.11 25.62 24.01
793  1 20.49 9.58 13.85
794  1 26.77 20.78 27.64
795  1 18.77 16.87 25.93
796  1 7.01 13.49 6.76
797  1 18.38 16.84 18.4
798  1 8.54 14.44 4.51
799  1 11.51 1.42 8.98
800  1 17.06 14.93 12.29
801  1 6.07 0.24 15.08
802  1 8.76 17.53 2.01
803  1 19.63 6.58 1.71
804  1 10.24 4.66 10.93
805  1 4.39 20.15 30.88
806  1 30.31 16.7 6.24
807  1 26.0 30.16 27.34
808  1 6.44 21.42 21.88
809  1 22.05 29.62 11.43
810  1 21.94 22.11 9.22
811  1 21.82 1.59 13.13
812  1 27.09 0.55 16.64
813  1 8.88 3.09 17.06
814  1 6.95 18.85 6.3
815  1 20.13 2.53 15.07
816  1 17.52 12.36 3.26
817  1 18.46 7.24 13.99
818  1 12.61 6.94 3.36
819  1 15.55 17.46 19.11
820  1 16.13 27.37 11.33
821  1 2.99 14.41 9.34
822  1 5.81 22.26 24.67
823  1 19.82 2.53 6.19
824  1 28.93 5.65 7.69
825  1 17.89 22.05 15.68
826  1 5.63 7.81 23.81
827  1 19.09 16.3 22.05
828  1 1.07 19.82 27.06
829  1 14.74 8.15 28.71
830  1 16.98 10.27 4.92
831  1 13.39 20.01 5.47
832  1 21.23 3.56 30.15
833  1 29.23 18.12 28.24
834  1 16.76 24.31 7.29
835  1 26.12 21.8 21.5
836  1 0.2 13.1 12.25
837  1 1.99 3.78 30.39
838  1 26.67 20.02 19.27
839  1 20.63 10.01 5.91
840  1 4.44 3.74 1.84
841  1 21.95 6.78 0.24
842  1 9.86 22.51 17.05
843  1 26.17 7.64 18.91
844  1 17.09 20.11 19.78
845  1 10.38 9.07 9.16
846  1 9.92 13.21 17.39
847  1 24.26 19.17 3.05
848  1 13.32 18.96 29.06
849  1 27.98 20.32 7.7
850  1 10.35 6.44 17.04
851  1 27.27 28.95 29.77
852  1 7.71 19.32 24.95
853  1 23.11 17.51 14.39
854  1 25.37 14.39 26.26
855  1 4.73 3.99 17.92
856  1 28.53 17.74 8.3
857  1 28.99 9.49 7.65
858  1 11.37 3.77 18.66
859  1 11.01 23.57 6.0
860  1 7.29 17.47 30.27
861  1 18.92 10.24 0.36
862  1 22.76 24.44 27.3
863  1 14.27 13.05 5.04
864  1 3.42 14.59 30.9
865  1 9.31 22.34 24.75
866  1 25.78 16.96 15.63
867  1 7.18 22.01 12.25
868  1 5.0 18.29 28.57
869  1 23.36 20.87 22.7
870  1 13.16 10.8 10.17
871  1 6.42 24.78 7.47
872  1 28.86 3.89 20.92
873  1 4.8 3.05 13.07
874  1 27.07 3.53 5.63
875  1 13.11 28.33 23.92
876  1 14.84 13.88 20.8
877  1 15.81 7.0 16.91
878  1 23.41 25.39 20.56
879  1 26.08 0.43 14.19
880  1 6.28 17.41 19.28
881  1 2.74 4.79 19.54
882  1 20.98 26.42 10.11
883  1 24.18 28.48 29.18
884  1 12.74 29.99 12.8
885  1 27.22 16.82 18.13
886  1 2.08 19.98 18.27
887  1 22.0 23.67 17.16
888  1 17.83 3.01 29.13
889  1 9.59 26.62 13.51
890  1 11.48 2.18 13.45
891  1 13.57 15.29 26.47
892  1 1.72 0.72 9.92
893  1 2.14 30.76 17.27
894  1 17.9 15.88 1.47
895  1 13.47 5.84 28.76
896  1 8.96 22.14 21.0
897  1 12.96 24.15 0.94
898  1 26.13 23.25 8.89
899  1 6.01 28.65 6.08
900  1 22.88 20.21 6.1
901  1 30.34 20.77 10.49
902  1 12.19 28.16 10.6
903  1 5.8 5.33 30.84
904  1 29.83 26.29 15.91
905  1 18.28 0.14 5.58
906  1 1.91 17.34 5.88
907  1 24.05 18.42 22.53
908  1 10.82 21.55 3.57
909  1 11.29 26.73 5.6
910  1 21.34 14.41 3.22
911  1 12.61 18.99 24.17
912  1 25.02 18.6 25.9
913  1 29.0 21.05 13.14
914  1 17.72 27.28 30.27
915  1 30.56 24.81 23.12
916  1 17.09 20.05 24.02
917  1 7.35 6.83 21.31
918  1 3.39 22.32 21.05
919  1 2.28 29.8 30.23
920  1 5.29 25.66 14.8
921  1 26.16 30.72 21.04
922  1 21.63 6.32 11.68
923  1 15.45 18.06 4.65
924  1 5.76 28.33 24.04
925  1 15.08 29.21 16.09
926  1 18.76 6.14 6.94
927  1 22.31 30.25 26.46
928  1 18.49 22.04 30.93
929  1 11.15 16.42 9.89
930  1 4.34 7.98 30.25
931  1 9.29 29.92 8.58
932  1 22.97 27.09 8.04
933  1 20.71 16.7 15.75
934  1 30.36 7.49 5.24
935  1 29.56 19.54 0.83
936  1 30.71 14.04 20.91
937  1 19.36 4.06 27.14
938  1 23.41 10.8 2.14
939  1 1.51 1.32 0.44
940  1 8.16 14.39 1.63
941  1 20.66 6.74 4.62
942  1 20.78 26.26 3.85
943  1 5.11 15.12 21.64
944  1 12.53 20.03 17.67
945  1 28.63 18.4 12.56
946  1 1.95 21.69 8.08
947  1 21.53 0.93 7.84
948  1 2.69 22.51 17.17
949  1 19.29 22.12 6.05
950  1 23.68 2.14 11.01
951  1 27.14 17.8 3.72
952  1 2.22 14.81 3.31
953  1 23.1 6.43 14.62
954  1 0.22 12.59 3.57
955  1 13.21 22.86 3.67
956  1 13.45 2.1 20.14
957  1 12.52 17.12 0.46
958  1 3.07 27.45 9.03
959  1 15.33 10.95 11.78
960  1 0.05 4.26 9.75
961  1 23.05 16.98 24.69
962  1 16.15 16.28 6.51
963  1 30.05 28.87 9.61
964  1 6.67 29.5 16.95
965  1 21.95 14.44 14.94
966  1 22.58 22.47 30.33
967  1 21.34 19.29 9.9
968  1 29.31 21.79 20.79
969  1 5.55 2.56 30.23
970  1 25.88 3.17 22.22
971  1 22.38 18.32 30.08
972  1 6.27 19.24 8.86
973  1 0.34 24.29 1.49
974  1 20.49 24.13 0.25
975  1 2.94 1.41 2.74
976  1 24.88 25.38 7.35
977  1 28.18 14.89 14.6
978  1 7.84 30.36 4.39
979  1 14.54 9.59 14.4
980  1 27.63 12.3 15.83
981  1 11.15 14.17 27.97
982  1 25.27 20.88 8.35
983  1 17.06 14.76 27.78
984  1 3.9 14.79 15.06
985  1 13.81 3.82 17.03
986  1 28.55 24.1 26.15
987  1 29.28 21.79 15.76
988  1 15.05 30.12 27.83
989  1 15.42 3.77 6.76
990  1 22.65 12.12 11.24
991  1 11.29 4.96 2.18
992  1 2.15 7.43 7.57
993  1 30.21 10.13 26.21
994  1 24.42 22.18 4.42
995  1 8.68 14.72 22.08
996  1 23.1 6.9 27.1
997  1 18.71 27.2 21.72
998  1 14.12 12.7 30.76
999  1 18.81 6.5 10.98
1000  1 26.66 15.4 4.83
