LAMMPS data file via write_data, version 5 Nov 2016, timestep = 10000

500 atoms
1 atom types

1.1763237388036316e+00 2.3823676261196674e+01 xlo xhi
1.1763237388036316e+00 2.3823676261196674e+01 ylo yhi
1.1763237388036316e+00 2.3823676261196674e+01 zlo zhi

Masses

1 62.5

Pair Coeffs # lj/cut

1 1.1 2.8

Atoms # full

8 0 1 0.0000000000000000e+00 2.3940398944005628e+00 3.9599386058215478e+00 2.7672068145631616e+00 0 0 0
86 0 1 0.0000000000000000e+00 4.4667002136820866e+00 2.1817010248219670e+00 1.6222011679704309e+00 0 1 0
107 0 1 0.0000000000000000e+00 3.7341559599379068e+00 2.1639840271405757e+00 4.6552296846732286e+00 0 0 0
185 0 1 0.0000000000000000e+00 6.5789643773771793e+00 3.4583504013246902e+00 3.5799773886820208e+00 0 1 0
186 0 1 0.0000000000000000e+00 7.7081271732780978e+00 1.4915260421203695e+00 1.5211191486913718e+00 0 1 0
412 0 1 0.0000000000000000e+00 7.9064890272518467e+00 4.9492140531618167e+00 1.4373325343538070e+00 0 0 1
109 0 1 0.0000000000000000e+00 9.4343916105223062e+00 3.0727554972458138e+00 3.3576719000627464e+00 0 0 0
31 0 1 0.0000000000000000e+00 1.1476053311902200e+01 4.4900182058858160e+00 1.2899064003468494e+00 0 0 0
111 0 1 0.0000000000000000e+00 1.2791546359122426e+01 2.8354951795650578e+00 3.8887133639625469e+00 0 0 0
420 0 1 0.0000000000000000e+00 1.5952932766266892e+01 2.5451134480963358e+00 3.6811495971044490e+00 0 0 1
18 0 1 0.0000000000000000e+00 1.8413882205625406e+01 3.7130999885791116e+00 2.1860164935447979e+00 0 0 0
1 0 1 0.0000000000000000e+00 2.2361112652442998e+01 2.9216626685608098e+00 3.4384286813919047e+00 -1 0 0
34 0 1 0.0000000000000000e+00 2.0468836491821744e+01 5.0506174815245242e+00 4.5537692118615727e+00 0 0 0
435 0 1 0.0000000000000000e+00 2.1031451398342828e+01 4.9895149254179660e+00 1.5532217992218080e+00 0 0 1
22 0 1 0.0000000000000000e+00 3.2769455013108457e+00 7.1556702521224738e+00 3.0351125299189361e+00 0 0 0
25 0 1 0.0000000000000000e+00 4.8483668010543948e+00 5.5975146732679422e+00 2.3724834919344751e+01 0 0 -1
27 0 1 0.0000000000000000e+00 6.7675145951230444e+00 6.7452287476220016e+00 3.6163976134094287e+00 0 0 0
26 0 1 0.0000000000000000e+00 5.3640142051232518e+00 8.6687068547142552e+00 1.2542105980778944e+00 0 0 0
11 0 1 0.0000000000000000e+00 9.9219091342977705e+00 5.9483889046819698e+00 3.7166384196220332e+00 0 0 0
116 0 1 0.0000000000000000e+00 1.3446165978786729e+01 5.9640696842108722e+00 3.4866449162241939e+00 0 0 0
114 0 1 0.0000000000000000e+00 1.6488213096638813e+01 5.6463985523058753e+00 3.6031902460937202e+00 0 0 0
35 0 1 0.0000000000000000e+00 1.8973587808903755e+01 6.9613754978519786e+00 2.5193273168637784e+00 0 0 0
134 0 1 0.0000000000000000e+00 1.6834020614154625e+01 8.7103424232000393e+00 3.3631334439320213e+00 0 0 0
39 0 1 0.0000000000000000e+00 2.3110843519051592e+01 6.0896948998480278e+00 3.7004383966566712e+00 0 0 0
44 0 1 0.0000000000000000e+00 2.1887482675418539e+01 8.0725573776106359e+00 1.6418572145261461e+00 -1 0 0
57 0 1 0.0000000000000000e+00 2.1019715503986951e+01 8.2791125660518539e+00 4.8134222268212952e+00 0 0 0
41 0 1 0.0000000000000000e+00 3.8633789806824446e+00 1.0428696844318672e+01 3.2398833943073324e+00 0 0 0
43 0 1 0.0000000000000000e+00 1.4538216919334301e+00 1.2592901640461482e+01 4.0859991698072049e+00 0 0 0
79 0 1 0.0000000000000000e+00 2.4428918335262284e+00 1.2253036185153444e+01 2.3814058279168599e+01 1 0 -1
61 0 1 0.0000000000000000e+00 2.1212910318266367e+00 9.0806427366956814e+00 2.3577110050308995e+01 0 0 -1
45 0 1 0.0000000000000000e+00 7.0672238854524991e+00 1.0207558051992303e+01 3.5061771977598406e+00 0 0 0
146 0 1 0.0000000000000000e+00 1.0374753828575074e+01 9.2123956313672242e+00 3.7630545335191692e+00 0 0 0
153 0 1 0.0000000000000000e+00 8.9439373671572788e+00 1.1466989378566659e+01 1.2188873903697670e+00 0 0 0
150 0 1 0.0000000000000000e+00 1.3915667293628474e+01 9.2917159698667309e+00 3.6079901217015946e+00 0 0 0
156 0 1 0.0000000000000000e+00 1.5649573568730757e+01 1.0746251968270359e+01 2.3654259808074837e+01 0 0 -1
71 0 1 0.0000000000000000e+00 1.3910771586564222e+01 1.2302434184721905e+01 3.3230283079531180e+00 0 0 0
354 0 1 0.0000000000000000e+00 1.7186390916341100e+01 1.1839640092752147e+01 3.6024681529105926e+00 0 0 1
78 0 1 0.0000000000000000e+00 1.9583292120645968e+01 9.9384042282023000e+00 2.6263249970156970e+00 0 0 0
24 0 1 0.0000000000000000e+00 2.3726313320502666e+01 9.2351186496768118e+00 3.8894611007019382e+00 -1 0 0
62 0 1 0.0000000000000000e+00 2.2569785064077742e+01 1.1101264818519615e+01 1.8968657006926852e+00 -1 0 0
60 0 1 0.0000000000000000e+00 2.1226956126493000e+01 1.1460095443120206e+01 4.9037724837561214e+00 0 0 0
158 0 1 0.0000000000000000e+00 2.2885898346723783e+00 1.5418516480162557e+01 3.8879563757959552e+00 1 0 0
42 0 1 0.0000000000000000e+00 4.4737114242810296e+00 1.3526359100745745e+01 3.2798531848748245e+00 0 0 0
52 0 1 0.0000000000000000e+00 7.7088564478829982e+00 1.3263540970883126e+01 3.6704271840980751e+00 0 0 0
170 0 1 0.0000000000000000e+00 8.3740062007902338e+00 1.6493816982137744e+01 3.6338054861069096e+00 0 0 0
65 0 1 0.0000000000000000e+00 6.4434298891452633e+00 1.4627629351188299e+01 2.3610663823165307e+01 0 0 -1
73 0 1 0.0000000000000000e+00 1.0653626666187517e+01 1.2465883759104088e+01 3.5731234937833363e+00 0 0 0
91 0 1 0.0000000000000000e+00 1.1527825857458362e+01 1.5776587382353627e+01 3.8667438088291139e+00 0 0 0
72 0 1 0.0000000000000000e+00 9.5231622119651931e+00 1.4471307893060896e+01 1.6154354312332311e+00 0 0 0
174 0 1 0.0000000000000000e+00 1.4532635455242620e+01 1.5690463002626757e+01 3.5419145352510921e+00 0 0 0
77 0 1 0.0000000000000000e+00 1.6255167772941675e+01 1.3897048712403157e+01 1.4236212998103546e+00 0 0 0
75 0 1 0.0000000000000000e+00 1.7583033244005009e+01 1.4984798996404431e+01 3.6541366924650833e+00 0 0 0
59 0 1 0.0000000000000000e+00 1.9690030783851114e+01 1.3078617719008156e+01 2.5803837742040754e+00 0 0 0
63 0 1 0.0000000000000000e+00 2.2986518325940853e+01 1.4270512066104983e+01 1.7363131933932556e+00 -1 0 0
74 0 1 0.0000000000000000e+00 2.0486370576636560e+01 1.6046742268249027e+01 2.8478677179731311e+00 0 0 0
181 0 1 0.0000000000000000e+00 2.6005655106976491e+00 1.8402224875505080e+01 4.3749736344438208e+00 0 0 0
484 0 1 0.0000000000000000e+00 3.7505506103693298e+00 1.8287589454378285e+01 1.2206236982961622e+00 0 0 1
162 0 1 0.0000000000000000e+00 5.2283618884335183e+00 1.6551252588613387e+01 3.2478519531973036e+00 0 0 0
142 0 1 0.0000000000000000e+00 6.8450922079079106e+00 1.8128410572162139e+01 1.2344144784614683e+00 0 0 0
83 0 1 0.0000000000000000e+00 8.7222230442652169e+00 1.9500088163093984e+01 3.7741039612690419e+00 0 0 0
64 0 1 0.0000000000000000e+00 5.5713615487934529e+00 1.9786884824707908e+01 3.3049724484870766e+00 0 0 0
70 0 1 0.0000000000000000e+00 1.2014184647346474e+01 1.9318255303996278e+01 3.8083106363305714e+00 0 0 0
69 0 1 0.0000000000000000e+00 1.0343281897799702e+01 1.7586142725599547e+01 1.5905179517900350e+00 0 0 0
214 0 1 0.0000000000000000e+00 1.4994744704426489e+01 1.8955326826392213e+01 3.7946220779760984e+00 0 -1 0
475 0 1 0.0000000000000000e+00 1.6827222386549828e+01 1.7150329169974576e+01 1.4360775803041306e+00 0 0 1
197 0 1 0.0000000000000000e+00 1.8278964243118843e+01 1.8177162425637963e+01 3.7267670827968531e+00 0 0 0
161 0 1 0.0000000000000000e+00 2.3227811632104107e+01 1.7324778909079562e+01 1.9755515612694241e+00 -1 0 0
496 0 1 0.0000000000000000e+00 2.1129609285968495e+01 1.9462723492041714e+01 2.9076027906699817e+00 0 0 1
7 0 1 0.0000000000000000e+00 1.8339935342472082e+00 2.3340035552936985e+01 2.4486577934569027e+00 0 -1 0
5 0 1 0.0000000000000000e+00 4.1886947882169370e+00 2.1788838222642010e+01 1.3433051050771612e+00 0 -1 0
82 0 1 0.0000000000000000e+00 1.5606148662165618e+00 2.0357390010989786e+01 2.3516119705750977e+00 0 0 0
102 0 1 0.0000000000000000e+00 3.3454318989781049e+00 2.1676765707837824e+01 4.4706871756177335e+00 0 -1 0
88 0 1 0.0000000000000000e+00 6.1607727724767729e+00 2.3128341301851808e+01 3.6452337938911521e+00 0 0 0
66 0 1 0.0000000000000000e+00 7.5521363504293566e+00 2.1167840612716901e+01 1.2579302207699741e+00 0 0 0
10 0 1 0.0000000000000000e+00 1.1181501384090526e+01 1.3978769963346132e+00 1.4146890513790655e+00 0 0 0
67 0 1 0.0000000000000000e+00 9.1835487609358992e+00 2.2660175250827805e+01 3.8267287853092173e+00 0 0 0
472 0 1 0.0000000000000000e+00 1.0679142552329578e+01 2.0850452543321843e+01 1.5780561560629427e+00 0 0 1
13 0 1 0.0000000000000000e+00 1.2315043589099780e+01 2.2521676348646288e+01 3.9151620118683725e+00 0 -1 0
94 0 1 0.0000000000000000e+00 1.5559221856298889e+01 2.1861860711476869e+01 3.8627886703846639e+00 0 0 0
490 0 1 0.0000000000000000e+00 1.6900858181707015e+01 2.0183136694623052e+01 1.7680314969448894e+00 0 0 1
500 0 1 0.0000000000000000e+00 1.7622747176837571e+01 2.2960988659889928e+01 1.6985915624851000e+00 0 0 1
100 0 1 0.0000000000000000e+00 1.8859685198465744e+01 2.1522667567622047e+01 3.8879602943763039e+00 0 0 0
419 0 1 0.0000000000000000e+00 2.1666669846424700e+01 2.2485694614112212e+01 3.0872939344672128e+00 0 -1 1
19 0 1 0.0000000000000000e+00 2.8622976354602025e+00 2.3680683825006978e+00 7.7320285106654065e+00 1 0 0
101 0 1 0.0000000000000000e+00 1.5676878163990968e+00 4.2514510903963307e+00 5.6491091844456642e+00 0 0 0
125 0 1 0.0000000000000000e+00 5.6397299152361882e+00 3.3421209472655278e+00 7.3092308004767519e+00 0 0 0
87 0 1 0.0000000000000000e+00 7.6783707862812056e+00 1.5177850424641077e+00 6.1479687477459306e+00 0 1 0
110 0 1 0.0000000000000000e+00 1.1330704907823320e+01 4.4214077435686407e+00 6.1056184137188607e+00 0 0 0
192 0 1 0.0000000000000000e+00 9.8711725653344331e+00 3.0890618377323671e+00 8.3168162883285586e+00 0 1 0
209 0 1 0.0000000000000000e+00 1.2866661310262860e+01 2.7204394878897107e+00 8.3100635994344767e+00 0 0 0
120 0 1 0.0000000000000000e+00 1.4479846521851847e+01 4.1189745960088722e+00 6.0234232774426992e+00 0 0 0
115 0 1 0.0000000000000000e+00 1.5908428015114380e+01 2.4240872159435591e+00 8.3261751423759982e+00 0 0 0
113 0 1 0.0000000000000000e+00 1.7703798579514952e+01 3.6600245494086727e+00 5.9368687149028725e+00 0 0 0
217 0 1 0.0000000000000000e+00 1.9356296998932972e+01 1.6691546093703662e+00 7.8815007701947701e+00 0 0 0
117 0 1 0.0000000000000000e+00 1.9664126871163898e+01 1.8782635824530693e+00 4.3486927692996460e+00 0 0 0
28 0 1 0.0000000000000000e+00 4.4033044292283172e+00 5.3793094394938263e+00 5.0701231447880950e+00 0 0 0
38 0 1 0.0000000000000000e+00 2.4781961844701241e+00 7.7183983121235800e+00 6.1411421025139790e+00 1 0 0
106 0 1 0.0000000000000000e+00 3.4594211926334841e+00 5.5930361081993496e+00 8.0520938938199151e+00 0 0 0
105 0 1 0.0000000000000000e+00 8.2393005878380947e+00 4.6430513556573372e+00 5.9664661582057033e+00 0 0 0
108 0 1 0.0000000000000000e+00 6.3067354347908573e+00 6.6484576797737693e+00 7.5232726417994842e+00 0 0 0
131 0 1 0.0000000000000000e+00 8.5281221088165182e+00 7.9659519842979307e+00 5.9133599582459802e+00 0 0 0
32 0 1 0.0000000000000000e+00 5.3154844705371733e+00 8.6000152765159559e+00 5.5512312796662862e+00 0 0 0
232 0 1 0.0000000000000000e+00 9.9931863494753674e+00 6.1296153961148505e+00 8.4714911605913130e+00 0 0 0
151 0 1 0.0000000000000000e+00 1.1956613756179495e+01 7.3938743385809396e+00 5.8242555862532619e+00 0 0 0
135 0 1 0.0000000000000000e+00 1.5137905698772423e+01 7.0788131048132579e+00 5.7787911138488282e+00 0 0 0
112 0 1 0.0000000000000000e+00 1.3253950454298606e+01 5.7538181057324991e+00 8.3616870616293646e+00 0 0 0
194 0 1 0.0000000000000000e+00 1.9760275435744553e+01 5.1214216198615921e+00 7.7698290231433580e+00 0 1 0
233 0 1 0.0000000000000000e+00 1.6331674566142624e+01 5.5402930775562540e+00 8.0931178032307987e+00 0 0 0
139 0 1 0.0000000000000000e+00 1.8309945125939070e+01 6.9465491574146894e+00 5.5895311757019268e+00 0 0 0
118 0 1 0.0000000000000000e+00 1.9791214691249102e+01 8.4512246191805112e+00 8.0999627174766253e+00 0 0 0
136 0 1 0.0000000000000000e+00 1.6781351010925611e+01 8.4205780160980002e+00 8.0019260577946163e+00 0 0 0
37 0 1 0.0000000000000000e+00 2.2328191781698219e+01 6.4151191875115439e+00 6.8442627031012959e+00 0 0 0
122 0 1 0.0000000000000000e+00 4.0346413188721559e+00 8.7977704127432848e+00 8.4835678490182822e+00 0 0 0
23 0 1 0.0000000000000000e+00 3.0299217202258437e+00 1.0745560305679419e+01 6.2633208218757463e+00 0 0 0
132 0 1 0.0000000000000000e+00 6.6756243468195082e+00 9.9315624733762178e+00 7.8326343679739825e+00 0 0 0
148 0 1 0.0000000000000000e+00 5.8478974913157824e+00 1.1815817999587869e+01 5.5539403606795226e+00 0 0 0
126 0 1 0.0000000000000000e+00 9.1868253282020955e+00 1.0987063530287589e+01 6.1149962159995441e+00 0 0 0
147 0 1 0.0000000000000000e+00 1.0550163347050946e+01 9.0169110127726899e+00 8.1628866177534380e+00 0 0 0
152 0 1 0.0000000000000000e+00 1.2388757559206903e+01 1.0407568458904894e+01 5.8549732737699474e+00 0 0 0
230 0 1 0.0000000000000000e+00 1.3667018562218090e+01 8.9511082318834099e+00 8.2348836375208556e+00 0 0 0
173 0 1 0.0000000000000000e+00 1.5449177092225190e+01 1.0274020174782111e+01 5.9581494303277740e+00 0 0 0
196 0 1 0.0000000000000000e+00 1.4227936863626791e+01 1.2133745783862231e+01 7.9514245817410076e+00 0 0 0
137 0 1 0.0000000000000000e+00 1.8498868766841245e+01 1.0124380342999316e+01 5.7334731555691771e+00 0 0 0
179 0 1 0.0000000000000000e+00 1.7257971234649734e+01 1.1566083428773624e+01 8.0131861936868560e+00 0 0 0
273 0 1 0.0000000000000000e+00 2.0293483188538605e+01 1.1317245847177318e+01 7.9420003515336157e+00 0 0 0
157 0 1 0.0000000000000000e+00 2.2695301146827784e+01 9.6727094972574896e+00 7.1340291449881086e+00 0 0 0
143 0 1 0.0000000000000000e+00 3.4463676205141147e+00 1.3787360972730196e+01 6.0513182575265514e+00 0 0 0
99 0 1 0.0000000000000000e+00 2.3623071713630583e+01 1.5521232992005789e+01 7.1684043845047292e+00 0 0 0
263 0 1 0.0000000000000000e+00 7.6325348714752179e+00 1.3009798862222848e+01 8.0168514241382116e+00 0 0 0
48 0 1 0.0000000000000000e+00 6.3066091533286235e+00 1.4964257609951376e+01 5.8330734349064652e+00 0 0 0
168 0 1 0.0000000000000000e+00 7.8759215030749017e+00 1.6107445426894230e+01 8.1871546799490638e+00 0 0 0
249 0 1 0.0000000000000000e+00 1.1047495707603460e+01 1.2397221624815847e+01 8.3175144902461504e+00 0 0 0
172 0 1 0.0000000000000000e+00 9.3513514755484852e+00 1.4594650427446062e+01 5.9355247677205387e+00 0 0 0
246 0 1 0.0000000000000000e+00 1.1344310709537451e+01 1.5872747191979949e+01 7.8582973604775335e+00 0 0 0
250 0 1 0.0000000000000000e+00 1.2720686692288810e+01 1.3764529734164407e+01 5.9190791060859134e+00 0 0 0
278 0 1 0.0000000000000000e+00 1.4415153538105512e+01 1.5291555283763762e+01 7.8856353919327171e+00 0 0 0
40 0 1 0.0000000000000000e+00 1.5843106358154037e+01 1.3554327719789109e+01 5.7936708717751522e+00 0 0 0
277 0 1 0.0000000000000000e+00 1.7574001306879300e+01 1.4867920738875748e+01 7.8714988285008376e+00 0 0 0
138 0 1 0.0000000000000000e+00 1.8810510869935946e+01 1.3222979964137611e+01 5.7574540531529248e+00 0 0 0
163 0 1 0.0000000000000000e+00 2.3102565202497907e+01 1.2515816141698179e+01 7.1583885395589109e+00 -1 0 0
154 0 1 0.0000000000000000e+00 2.1794044544405857e+01 1.4389650042174605e+01 4.8401120586686046e+00 0 0 0
140 0 1 0.0000000000000000e+00 2.0626222214248386e+01 1.4526345240774191e+01 7.9556002258304037e+00 0 0 0
68 0 1 0.0000000000000000e+00 3.8985089998390436e+00 1.6939243097200183e+01 6.3715675183299751e+00 0 0 0
164 0 1 0.0000000000000000e+00 1.4193099357607055e+00 1.8687625561332791e+01 7.3084226927467446e+00 0 0 0
166 0 1 0.0000000000000000e+00 4.2669468078234996e+00 1.9967637505896526e+01 6.8489561662956309e+00 0 0 0
165 0 1 0.0000000000000000e+00 6.8284168044201747e+00 1.7890544375940017e+01 5.8345097974135767e+00 0 0 0
268 0 1 0.0000000000000000e+00 8.5061422826975583e+00 1.9328746615046839e+01 8.1719394819182298e+00 0 0 0
269 0 1 0.0000000000000000e+00 1.0113039837654245e+01 1.7729815038441018e+01 5.9275014276985116e+00 0 0 0
266 0 1 0.0000000000000000e+00 1.1837292850393306e+01 1.8999060108996737e+01 8.2808145435720668e+00 0 0 0
176 0 1 0.0000000000000000e+00 1.3187168516086883e+01 1.7362193511752547e+01 5.9439441216114943e+00 0 0 0
291 0 1 0.0000000000000000e+00 1.4816292252469569e+01 1.8558707248516846e+01 8.0236488867685232e+00 0 0 0
80 0 1 0.0000000000000000e+00 1.9459767337445623e+01 1.6416274979959987e+01 5.8432442940402485e+00 0 0 0
293 0 1 0.0000000000000000e+00 1.6097299758816455e+01 1.6821787501023291e+01 6.0195173497721335e+00 0 0 0
95 0 1 0.0000000000000000e+00 1.8201659546530227e+01 1.8105915413827454e+01 8.2669311294294090e+00 0 0 0
198 0 1 0.0000000000000000e+00 1.9876514207994479e+01 1.9508024488741938e+01 5.8590178535294948e+00 0 0 0
98 0 1 0.0000000000000000e+00 2.2339318806620540e+01 1.7435605957201481e+01 5.1166777506003207e+00 0 0 0
180 0 1 0.0000000000000000e+00 2.1232482621900775e+01 1.7549831744179521e+01 8.0499426414085029e+00 0 0 0
298 0 1 0.0000000000000000e+00 1.9071547490548093e+00 2.1951491927438749e+01 7.5989262999108016e+00 1 0 0
103 0 1 0.0000000000000000e+00 5.0297729222141596e+00 2.2826039674283710e+01 6.9097366093552370e+00 0 -1 0
169 0 1 0.0000000000000000e+00 7.2205809820484532e+00 2.0992394772241362e+01 6.0224091257849226e+00 0 0 0
191 0 1 0.0000000000000000e+00 1.0962923464959689e+01 2.3744825577130626e+01 6.5695086035861525e+00 0 0 0
189 0 1 0.0000000000000000e+00 1.0398389790007558e+01 2.0712107971707887e+01 6.1198692764183562e+00 0 0 0
286 0 1 0.0000000000000000e+00 9.0534042099052563e+00 2.2353503706236552e+01 8.2242853736756203e+00 0 0 0
96 0 1 0.0000000000000000e+00 1.4061539418677777e+01 2.3764321791887600e+01 6.0202155044318468e+00 0 0 0
193 0 1 0.0000000000000000e+00 1.3741306001954856e+01 2.0631582649569275e+01 6.1170246869578513e+00 0 0 0
17 0 1 0.0000000000000000e+00 1.5492713785944938e+01 2.2029470845098245e+01 7.9634360885730890e+00 0 -1 0
190 0 1 0.0000000000000000e+00 1.6633087401223733e+01 1.9879170195743228e+01 6.0981467519539230e+00 0 0 0
200 0 1 0.0000000000000000e+00 1.7255498418331989e+01 2.3290966968582453e+01 6.0426357785774130e+00 0 0 0
199 0 1 0.0000000000000000e+00 1.8606123330964746e+01 2.1171520383807071e+01 8.1347352302253597e+00 0 0 0
2 0 1 0.0000000000000000e+00 2.3594126468334139e+01 2.3381027098377167e+01 5.3629124115674234e+00 -1 -1 0
84 0 1 0.0000000000000000e+00 2.3012416931778528e+01 2.0422570616625837e+01 5.0980573620807030e+00 -1 0 0
182 0 1 0.0000000000000000e+00 2.1803262413097301e+01 2.0971281038626625e+01 7.8603120466722842e+00 -1 0 0
218 0 1 0.0000000000000000e+00 1.8518097602611499e+00 2.4991306393345933e+00 1.0660175906028821e+01 1 0 0
124 0 1 0.0000000000000000e+00 4.6895556090198447e+00 3.6994235351337856e+00 1.0097344383195356e+01 0 0 0
187 0 1 0.0000000000000000e+00 6.9411854324549660e+00 1.5162600821660182e+00 9.0404174775035813e+00 0 1 0
203 0 1 0.0000000000000000e+00 5.8412307301762674e+00 1.8860429303549913e+00 1.2109718665433528e+01 0 0 0
206 0 1 0.0000000000000000e+00 7.5471802921066136e+00 4.7206012465276812e+00 9.5355615685663278e+00 0 0 0
188 0 1 0.0000000000000000e+00 9.0742707817340822e+00 3.1032001921953434e+00 1.1423806844629963e+01 0 1 0
227 0 1 0.0000000000000000e+00 1.1724770253725707e+01 4.5316487200167881e+00 1.0666290382898982e+01 0 0 0
211 0 1 0.0000000000000000e+00 1.4795010634585495e+01 3.8850511278595303e+00 1.0324837949102456e+01 0 0 0
207 0 1 0.0000000000000000e+00 1.2622270977103646e+01 2.2184534648217848e+00 1.2828347061552604e+01 0 0 0
334 0 1 0.0000000000000000e+00 1.7899865556178263e+01 3.6359003109924579e+00 1.0279799126244722e+01 0 0 0
237 0 1 0.0000000000000000e+00 2.2599151972623606e+01 1.5900316620792414e+00 8.1246310807340905e+00 0 0 0
4 0 1 0.0000000000000000e+00 2.3288797930551205e+01 4.4018702427197258e+00 8.6482275885138549e+00 -1 0 0
119 0 1 0.0000000000000000e+00 2.1251007021056786e+01 3.0972239000346957e+00 1.0491207567358769e+01 0 0 0
239 0 1 0.0000000000000000e+00 2.2266558174704990e+01 1.3139311211310520e+00 1.2779243277867373e+01 0 0 0
224 0 1 0.0000000000000000e+00 2.5418146466145854e+00 5.8337472135402724e+00 1.1061042064116364e+01 0 0 0
221 0 1 0.0000000000000000e+00 1.2752545350001441e+00 7.6988263200334970e+00 8.9959315111130085e+00 0 0 0
204 0 1 0.0000000000000000e+00 6.3822218800503352e+00 5.0113764340598186e+00 1.2509431429972116e+01 0 0 0
225 0 1 0.0000000000000000e+00 5.2798780198646744e+00 7.0471151808164683e+00 1.0495760288458984e+01 0 0 0
129 0 1 0.0000000000000000e+00 8.2377736015782865e+00 8.1438056522354358e+00 9.7483585813455278e+00 0 0 0
228 0 1 0.0000000000000000e+00 9.3586761190833503e+00 6.3373318300180381e+00 1.1797678161111913e+01 0 0 0
229 0 1 0.0000000000000000e+00 1.1715074381937304e+01 7.5242523154814833e+00 1.0553192752483115e+01 0 0 0
235 0 1 0.0000000000000000e+00 1.4919794884903638e+01 7.0469687774800303e+00 1.0582257955841339e+01 0 0 0
240 0 1 0.0000000000000000e+00 1.8464342013575543e+01 6.6400468253256824e+00 9.9594746486373023e+00 0 0 0
20 0 1 0.0000000000000000e+00 2.1457465291312733e+01 6.3847055247649962e+00 1.0511352508576023e+01 0 0 0
259 0 1 0.0000000000000000e+00 2.3064837568009949e+01 7.7890958539304913e+00 1.2619422677555320e+01 0 0 0
141 0 1 0.0000000000000000e+00 4.6387638819530892e+00 1.2111232102570218e+01 8.5451496802913276e+00 0 0 0
121 0 1 0.0000000000000000e+00 1.6724423010831526e+00 1.0931717547976548e+01 9.3739845551978966e+00 0 0 0
241 0 1 0.0000000000000000e+00 2.9970858407578911e+00 9.1791340603049587e+00 1.1533332484448641e+01 0 0 0
145 0 1 0.0000000000000000e+00 3.7376535782811811e+00 1.2145785209217152e+01 1.1472223189960753e+01 0 0 0
128 0 1 0.0000000000000000e+00 5.7865783158667314e+00 1.0115093323525107e+01 1.0781652080595348e+01 0 0 0
47 0 1 0.0000000000000000e+00 8.8972298746059533e+00 1.1568509726657426e+01 1.0218166990373842e+01 0 0 0
231 0 1 0.0000000000000000e+00 1.2501061358960023e+01 1.0586437092732673e+01 1.0292672354361580e+01 0 0 0
226 0 1 0.0000000000000000e+00 1.0061845988707992e+01 9.6025250367737272e+00 1.2078750173712098e+01 0 0 0
234 0 1 0.0000000000000000e+00 1.5557796199162237e+01 1.0257530517651521e+01 1.0156434420897789e+01 0 0 0
330 0 1 0.0000000000000000e+00 1.3851121303645108e+01 9.0919825823186180e+00 1.2788173273542505e+01 0 0 0
238 0 1 0.0000000000000000e+00 1.8596757767913076e+01 9.9697043305237472e+00 1.0670368000094941e+01 0 0 0
255 0 1 0.0000000000000000e+00 1.7165538313880639e+01 1.1736771354973779e+01 1.2411244651680896e+01 0 0 0
123 0 1 0.0000000000000000e+00 2.1663406639317387e+01 9.6554055725421435e+00 1.0397292715617246e+01 -1 0 0
261 0 1 0.0000000000000000e+00 2.3658488642933837e+00 1.3912888557016220e+01 9.2679667991393497e+00 0 0 0
144 0 1 0.0000000000000000e+00 3.8344935257288739e+00 1.4996853270716944e+01 1.1839669259945563e+01 0 0 0
377 0 1 0.0000000000000000e+00 2.3761348099856367e+01 1.4211356623924569e+01 1.2202307315041431e+01 0 0 0
258 0 1 0.0000000000000000e+00 5.2002322430606611e+00 1.4969843060194723e+01 8.7643836369291250e+00 1 0 0
252 0 1 0.0000000000000000e+00 6.4493822806502088e+00 1.3313221574899377e+01 1.0791682150696291e+01 0 0 0
265 0 1 0.0000000000000000e+00 1.0812121114843736e+01 1.2786763061963777e+01 1.2148165137932015e+01 0 0 0
167 0 1 0.0000000000000000e+00 9.4434283341815828e+00 1.4654836033831263e+01 1.0277085842525187e+01 0 0 0
171 0 1 0.0000000000000000e+00 1.2874600354349409e+01 1.4078648530880406e+01 1.0004627853012940e+01 0 0 0
160 0 1 0.0000000000000000e+00 1.5899681523418490e+01 1.3471915703687658e+01 1.0149673497958617e+01 0 0 0
155 0 1 0.0000000000000000e+00 1.9118750373152881e+01 1.2970070606523844e+01 1.0078467614131165e+01 0 0 0
257 0 1 0.0000000000000000e+00 1.7401919766204564e+01 1.4589998052033428e+01 1.2820789318854654e+01 0 0 0
159 0 1 0.0000000000000000e+00 2.2071810758945627e+01 1.2820396883283069e+01 1.0054714086799683e+01 0 0 0
283 0 1 0.0000000000000000e+00 2.2645335537539353e+01 1.5866924145919622e+01 1.0061718128531716e+01 -1 0 0
297 0 1 0.0000000000000000e+00 2.0887348052363073e+01 1.4606976586950138e+01 1.2478760368721961e+01 0 0 0
264 0 1 0.0000000000000000e+00 2.8482396351452746e+00 1.6994212835085001e+01 9.6698788895284533e+00 0 0 0
184 0 1 0.0000000000000000e+00 4.6086285023727056e+00 1.8359040505243723e+01 1.1773091058533147e+01 0 0 0
299 0 1 0.0000000000000000e+00 1.8917303509159606e+00 1.7178076514046079e+01 1.2777854334009453e+01 1 0 0
285 0 1 0.0000000000000000e+00 6.8003429358047329e+00 1.6493149933163821e+01 1.1180217277056123e+01 0 0 0
262 0 1 0.0000000000000000e+00 5.6914316533345390e+00 1.8222921437330921e+01 8.6057643290560364e+00 0 0 0
287 0 1 0.0000000000000000e+00 7.4289250005765721e+00 1.9641829995658874e+01 1.1526100430247293e+01 0 0 0
365 0 1 0.0000000000000000e+00 9.6311294620612813e+00 1.7611418807618705e+01 1.0541862039599625e+01 0 0 0
270 0 1 0.0000000000000000e+00 1.3072895766858553e+01 1.7114606691494185e+01 1.0336376465561568e+01 0 0 0
274 0 1 0.0000000000000000e+00 1.6275034673129234e+01 1.6417973685210370e+01 1.0123213164366550e+01 0 0 0
378 0 1 0.0000000000000000e+00 1.9254869427494249e+01 1.6193890799711639e+01 1.0371337096473260e+01 0 0 0
394 0 1 0.0000000000000000e+00 1.6844796929526549e+01 1.9962340105287666e+01 1.0131548223858578e+01 0 0 0
281 0 1 0.0000000000000000e+00 2.0007085143710281e+01 1.9389473705085869e+01 1.0480571658359768e+01 -1 0 0
381 0 1 0.0000000000000000e+00 2.3190060583039340e+01 1.8983584733888712e+01 1.0117158156404969e+01 -1 0 0
183 0 1 0.0000000000000000e+00 3.5503162240205755e+00 2.0032670420847932e+01 9.7730874983062694e+00 0 0 0
104 0 1 0.0000000000000000e+00 4.2486664798162508e+00 2.3315234382514131e+01 9.9814784585356922e+00 0 -1 0
301 0 1 0.0000000000000000e+00 1.3597388761638420e+00 2.2192707014158703e+01 1.0707289011003009e+01 0 -1 0
282 0 1 0.0000000000000000e+00 6.2614984155063533e+00 2.1227298868362443e+01 9.1616042345464201e+00 0 0 0
363 0 1 0.0000000000000000e+00 4.9619065664942932e+00 2.1379556237598759e+01 1.2096257556451606e+01 0 0 0
288 0 1 0.0000000000000000e+00 8.4329498413359580e+00 2.2387115431492354e+01 1.1357122871048109e+01 0 0 0
290 0 1 0.0000000000000000e+00 1.0902239764006197e+01 2.3735914643531679e+01 1.0360590442754313e+01 0 0 0
289 0 1 0.0000000000000000e+00 1.0603381357457977e+01 2.0773281946700273e+01 1.0258406248542130e+01 0 0 0
292 0 1 0.0000000000000000e+00 1.3759123174001408e+01 2.0241825003264854e+01 1.0527402733871449e+01 0 0 0
390 0 1 0.0000000000000000e+00 1.4093086094923835e+01 2.3405664580774403e+01 1.0504574924029352e+01 0 0 0
210 0 1 0.0000000000000000e+00 1.7502631626862691e+01 2.3160785663324493e+01 1.0238002676883958e+01 0 -1 0
201 0 1 0.0000000000000000e+00 2.0498004569544364e+01 2.2344112302649272e+01 1.0412276940047143e+01 -1 -1 0
303 0 1 0.0000000000000000e+00 2.2208625121706220e+01 2.0809290723768960e+01 1.2544098722648807e+01 -1 -1 0
321 0 1 0.0000000000000000e+00 3.4867952110057816e+00 4.0027270151629040e+00 1.3004467501318468e+01 0 0 0
324 0 1 0.0000000000000000e+00 1.4694838189889987e+00 2.5866597899724009e+00 1.4912507528075105e+01 0 0 0
304 0 1 0.0000000000000000e+00 4.9669147120333017e+00 2.2103737407111161e+00 1.5033916916788947e+01 0 0 0
305 0 1 0.0000000000000000e+00 7.5643404345337180e+00 3.1802586087102345e+00 1.4335707667811816e+01 0 0 0
202 0 1 0.0000000000000000e+00 1.0670966543706555e+01 4.2435253977944623e+00 1.3747872772118725e+01 0 0 0
307 0 1 0.0000000000000000e+00 1.2180681232743385e+01 2.3501965549012391e+00 1.6000355569675257e+01 0 0 0
213 0 1 0.0000000000000000e+00 1.6017294309388745e+01 2.0600301850549032e+00 1.2677530174673386e+01 0 0 0
333 0 1 0.0000000000000000e+00 1.4948153575147378e+01 3.2417844143445813e+00 1.5348462446504291e+01 0 0 0
314 0 1 0.0000000000000000e+00 1.9137872921342840e+01 1.6638344699522367e+00 1.2505272032374419e+01 0 0 0
335 0 1 0.0000000000000000e+00 1.7886708475816992e+01 3.5753148689851559e+00 1.4835509779007765e+01 0 0 0
336 0 1 0.0000000000000000e+00 1.9629417157275409e+01 4.7850037532988638e+00 1.2461884004675662e+01 0 0 0
337 0 1 0.0000000000000000e+00 2.2756767131431051e+01 4.4185771478177767e+00 1.2618782086273606e+01 0 0 0
318 0 1 0.0000000000000000e+00 2.0751738044971091e+01 3.0016216722460003e+00 1.5040573393435515e+01 0 0 0
243 0 1 0.0000000000000000e+00 4.5696742512061945e+00 7.3520347123532952e+00 1.3255086672767263e+01 0 0 0
322 0 1 0.0000000000000000e+00 2.0024397954759787e+00 6.0119604939028060e+00 1.4515143569775670e+01 0 0 0
127 0 1 0.0000000000000000e+00 7.2697374867820752e+00 8.3623062174543321e+00 1.2789550667817201e+01 0 0 0
222 0 1 0.0000000000000000e+00 5.2162954895986280e+00 5.3608761320668750e+00 1.5241335938493295e+01 0 0 0
302 0 1 0.0000000000000000e+00 8.5425096832083032e+00 6.1605712988916350e+00 1.4884901355552502e+01 0 0 0
328 0 1 0.0000000000000000e+00 6.0972864907902862e+00 8.5456485056834577e+00 1.5580709012025446e+01 0 0 0
251 0 1 0.0000000000000000e+00 1.1212588303679318e+01 7.4856965180752901e+00 1.3726789371410288e+01 0 0 0
216 0 1 0.0000000000000000e+00 1.6661405302270989e+01 5.2193638580351411e+00 1.2588631515397717e+01 0 0 0
326 0 1 0.0000000000000000e+00 1.3476258911259741e+01 5.9238365598494047e+00 1.2691324510176470e+01 0 0 0
355 0 1 0.0000000000000000e+00 1.5254972317033907e+01 6.7085045330725661e+00 1.5060427576193145e+01 0 0 0
212 0 1 0.0000000000000000e+00 1.6839856932411507e+01 8.3363223907427582e+00 1.2358918607300630e+01 0 0 0
279 0 1 0.0000000000000000e+00 1.8067168203858170e+01 6.8424573676187590e+00 1.4816662487933073e+01 0 0 0
353 0 1 0.0000000000000000e+00 1.9982981596174984e+01 8.2197599998223758e+00 1.2513346296379101e+01 0 0 0
458 0 1 0.0000000000000000e+00 2.1310895408604601e+01 6.6157157999086511e+00 1.4856546761088078e+01 0 0 0
339 0 1 0.0000000000000000e+00 2.2223215597239920e+00 9.1628109940510161e+00 1.4625963397542993e+01 1 0 0
428 0 1 0.0000000000000000e+00 2.3594331179685435e+00 1.2450556884372951e+01 1.4454326559490827e+01 0 0 0
323 0 1 0.0000000000000000e+00 4.6975276328935536e+00 1.0611182323928787e+01 1.3895488288072007e+01 0 0 0