LAMMPS data file via write_data, version 22 Dec 2022, timestep = 0

2010 atoms
2 atom types

0 28.544 xlo xhi
0 28.544 ylo yhi
0 28.544 zlo zhi

Masses

1 12.011
2 55.847

Atoms # atomic

1 2 0 0 0 0 0 0
2 2 1.4272 1.4272 1.4272 0 0 0
3 2 2.8544 0 0 0 0 0
4 2 4.2816 1.4272 1.4272 0 0 0
5 2 5.7088 0 0 0 0 0
6 2 7.136 1.4272 1.4272 0 0 0
7 2 8.5632 0 0 0 0 0
8 2 9.990400000000001 1.4272 1.4272 0 0 0
9 2 11.4176 0 0 0 0 0
10 2 12.8448 1.4272 1.4272 0 0 0
11 2 14.272 0 0 0 0 0
12 2 15.699200000000001 1.4272 1.4272 0 0 0
13 2 17.1264 0 0 0 0 0
14 2 18.5536 1.4272 1.4272 0 0 0
15 2 19.980800000000002 0 0 0 0 0
16 2 21.408 1.4272 1.4272 0 0 0
17 2 22.8352 0 0 0 0 0
18 2 24.2624 1.4272 1.4272 0 0 0
19 2 25.6896 0 0 0 0 0
20 2 27.1168 1.4272 1.4272 0 0 0
21 2 0 2.8544 0 0 0 0
22 2 1.4272 4.2816 1.4272 0 0 0
23 2 2.8544 2.8544 0 0 0 0
24 2 4.2816 4.2816 1.4272 0 0 0
25 2 5.7088 2.8544 0 0 0 0
26 2 7.136 4.2816 1.4272 0 0 0
27 2 8.5632 2.8544 0 0 0 0
28 2 9.990400000000001 4.2816 1.4272 0 0 0
29 2 11.4176 2.8544 0 0 0 0
30 2 12.8448 4.2816 1.4272 0 0 0
31 2 14.272 2.8544 0 0 0 0
32 2 15.699200000000001 4.2816 1.4272 0 0 0
33 2 17.1264 2.8544 0 0 0 0
34 2 18.5536 4.2816 1.4272 0 0 0
35 2 19.980800000000002 2.8544 0 0 0 0
36 2 21.408 4.2816 1.4272 0 0 0
37 2 22.8352 2.8544 0 0 0 0
38 2 24.2624 4.2816 1.4272 0 0 0
39 2 25.6896 2.8544 0 0 0 0
40 2 27.1168 4.2816 1.4272 0 0 0
41 2 0 5.7088 0 0 0 0
42 2 1.4272 7.136 1.4272 0 0 0
43 2 2.8544 5.7088 0 0 0 0
44 2 4.2816 7.136 1.4272 0 0 0
45 2 5.7088 5.7088 0 0 0 0
46 2 7.136 7.136 1.4272 0 0 0
47 2 8.5632 5.7088 0 0 0 0
48 2 9.990400000000001 7.136 1.4272 0 0 0
49 2 11.4176 5.7088 0 0 0 0
50 2 12.8448 7.136 1.4272 0 0 0
51 2 14.272 5.7088 0 0 0 0
52 2 15.699200000000001 7.136 1.4272 0 0 0
53 2 17.1264 5.7088 0 0 0 0
54 2 18.5536 7.136 1.4272 0 0 0
55 2 19.980800000000002 5.7088 0 0 0 0
56 2 21.408 7.136 1.4272 0 0 0
57 2 22.8352 5.7088 0 0 0 0
58 2 24.2624 7.136 1.4272 0 0 0
59 2 25.6896 5.7088 0 0 0 0
60 2 27.1168 7.136 1.4272 0 0 0
61 2 0 8.5632 0 0 0 0
62 2 1.4272 9.990400000000001 1.4272 0 0 0
63 2 2.8544 8.5632 0 0 0 0
64 2 4.2816 9.990400000000001 1.4272 0 0 0
65 2 5.7088 8.5632 0 0 0 0
66 2 7.136 9.990400000000001 1.4272 0 0 0
67 2 8.5632 8.5632 0 0 0 0
68 2 9.990400000000001 9.990400000000001 1.4272 0 0 0
69 2 11.4176 8.5632 0 0 0 0
70 2 12.8448 9.990400000000001 1.4272 0 0 0
71 2 14.272 8.5632 0 0 0 0
72 2 15.699200000000001 9.990400000000001 1.4272 0 0 0
73 2 17.1264 8.5632 0 0 0 0
74 2 18.5536 9.990400000000001 1.4272 0 0 0
75 2 19.980800000000002 8.5632 0 0 0 0
76 2 21.408 9.990400000000001 1.4272 0 0 0
77 2 22.8352 8.5632 0 0 0 0
78 2 24.2624 9.990400000000001 1.4272 0 0 0
79 2 25.6896 8.5632 0 0 0 0
80 2 27.1168 9.990400000000001 1.4272 0 0 0
81 2 0 11.4176 0 0 0 0
82 2 1.4272 12.8448 1.4272 0 0 0
83 2 2.8544 11.4176 0 0 0 0
84 2 4.2816 12.8448 1.4272 0 0 0
85 2 5.7088 11.4176 0 0 0 0
86 2 7.136 12.8448 1.4272 0 0 0
87 2 8.5632 11.4176 0 0 0 0
88 2 9.990400000000001 12.8448 1.4272 0 0 0
89 2 11.4176 11.4176 0 0 0 0
90 2 12.8448 12.8448 1.4272 0 0 0
91 2 14.272 11.4176 0 0 0 0
92 2 15.699200000000001 12.8448 1.4272 0 0 0
93 2 17.1264 11.4176 0 0 0 0
94 2 18.5536 12.8448 1.4272 0 0 0
95 2 19.980800000000002 11.4176 0 0 0 0
96 2 21.408 12.8448 1.4272 0 0 0
97 2 22.8352 11.4176 0 0 0 0
98 2 24.2624 12.8448 1.4272 0 0 0
99 2 25.6896 11.4176 0 0 0 0
100 2 27.1168 12.8448 1.4272 0 0 0
101 2 0 0 2.8544 0 0 0
102 2 1.4272 1.4272 4.2816 0 0 0
103 2 2.8544 0 2.8544 0 0 0
104 2 4.2816 1.4272 4.2816 0 0 0
105 2 5.7088 0 2.8544 0 0 0
106 2 7.136 1.4272 4.2816 0 0 0
107 2 8.5632 0 2.8544 0 0 0
108 2 9.990400000000001 1.4272 4.2816 0 0 0
109 2 11.4176 0 2.8544 0 0 0
110 2 12.8448 1.4272 4.2816 0 0 0
111 2 14.272 0 2.8544 0 0 0
112 2 15.699200000000001 1.4272 4.2816 0 0 0
113 2 17.1264 0 2.8544 0 0 0
114 2 18.5536 1.4272 4.2816 0 0 0
115 2 19.980800000000002 0 2.8544 0 0 0
116 2 21.408 1.4272 4.2816 0 0 0
117 2 22.8352 0 2.8544 0 0 0
118 2 24.2624 1.4272 4.2816 0 0 0
119 2 25.6896 0 2.8544 0 0 0
120 2 27.1168 1.4272 4.2816 0 0 0
121 2 0 2.8544 2.8544 0 0 0
122 2 1.4272 4.2816 4.2816 0 0 0
123 2 2.8544 2.8544 2.8544 0 0 0
124 2 4.2816 4.2816 4.2816 0 0 0
125 2 5.7088 2.8544 2.8544 0 0 0
126 2 7.136 4.2816 4.2816 0 0 0
127 2 8.5632 2.8544 2.8544 0 0 0
128 2 9.990400000000001 4.2816 4.2816 0 0 0
129 2 11.4176 2.8544 2.8544 0 0 0
130 2 12.8448 4.2816 4.2816 0 0 0
131 2 14.272 2.8544 2.8544 0 0 0
132 2 15.699200000000001 4.2816 4.2816 0 0 0
133 2 17.1264 2.8544 2.8544 0 0 0
134 2 18.5536 4.2816 4.2816 0 0 0
135 2 19.980800000000002 2.8544 2.8544 0 0 0
136 2 21.408 4.2816 4.2816 0 0 0
137 2 22.8352 2.8544 2.8544 0 0 0
138 2 24.2624 4.2816 4.2816 0 0 0
139 2 25.6896 2.8544 2.8544 0 0 0
140 2 27.1168 4.2816 4.2816 0 0 0
141 2 0 5.7088 2.8544 0 0 0
142 2 1.4272 7.136 4.2816 0 0 0
143 2 2.8544 5.7088 2.8544 0 0 0
144 2 4.2816 7.136 4.2816 0 0 0
145 2 5.7088 5.7088 2.8544 0 0 0
146 2 7.136 7.136 4.2816 0 0 0
147 2 8.5632 5.7088 2.8544 0 0 0
148 2 9.990400000000001 7.136 4.2816 0 0 0
149 2 11.4176 5.7088 2.8544 0 0 0
150 2 12.8448 7.136 4.2816 0 0 0
151 2 14.272 5.7088 2.8544 0 0 0
152 2 15.699200000000001 7.136 4.2816 0 0 0
153 2 17.1264 5.7088 2.8544 0 0 0
154 2 18.5536 7.136 4.2816 0 0 0
155 2 19.980800000000002 5.7088 2.8544 0 0 0
156 2 21.408 7.136 4.2816 0 0 0
157 2 22.8352 5.7088 2.8544 0 0 0
158 2 24.2624 7.136 4.2816 0 0 0
159 2 25.6896 5.7088 2.8544 0 0 0
160 2 27.1168 7.136 4.2816 0 0 0
161 2 0 8.5632 2.8544 0 0 0
162 2 1.4272 9.990400000000001 4.2816 0 0 0
163 2 2.8544 8.5632 2.8544 0 0 0
164 2 4.2816 9.990400000000001 4.2816 0 0 0
165 2 5.7088 8.5632 2.8544 0 0 0
166 2 7.136 9.990400000000001 4.2816 0 0 0
167 2 8.5632 8.5632 2.8544 0 0 0
168 2 9.990400000000001 9.990400000000001 4.2816 0 0 0
169 2 11.4176 8.5632 2.8544 0 0 0
170 2 12.8448 9.990400000000001 4.2816 0 0 0
171 2 14.272 8.5632 2.8544 0 0 0
172 2 15.699200000000001 9.990400000000001 4.2816 0 0 0
173 2 17.1264 8.5632 2.8544 0 0 0
174 2 18.5536 9.990400000000001 4.2816 0 0 0
175 2 19.980800000000002 8.5632 2.8544 0 0 0
176 2 21.408 9.990400000000001 4.2816 0 0 0
177 2 22.8352 8.5632 2.8544 0 0 0
178 2 24.2624 9.990400000000001 4.2816 0 0 0
179 2 25.6896 8.5632 2.8544 0 0 0
180 2 27.1168 9.990400000000001 4.2816 0 0 0
181 2 0 11.4176 2.8544 0 0 0
182 2 1.4272 12.8448 4.2816 0 0 0
183 2 2.8544 11.4176 2.8544 0 0 0
184 2 4.2816 12.8448 4.2816 0 0 0
185 2 5.7088 11.4176 2.8544 0 0 0
186 2 7.136 12.8448 4.2816 0 0 0
187 2 8.5632 11.4176 2.8544 0 0 0
188 2 9.990400000000001 12.8448 4.2816 0 0 0
189 2 11.4176 11.4176 2.8544 0 0 0
190 2 12.8448 12.8448 4.2816 0 0 0
191 2 14.272 11.4176 2.8544 0 0 0
192 2 15.699200000000001 12.8448 4.2816 0 0 0
193 2 17.1264 11.4176 2.8544 0 0 0
194 2 18.5536 12.8448 4.2816 0 0 0
195 2 19.980800000000002 11.4176 2.8544 0 0 0
196 2 21.408 12.8448 4.2816 0 0 0
197 2 22.8352 11.4176 2.8544 0 0 0
198 2 24.2624 12.8448 4.2816 0 0 0
199 2 25.6896 11.4176 2.8544 0 0 0
200 2 27.1168 12.8448 4.2816 0 0 0
201 2 0 0 5.7088 0 0 0
202 2 1.4272 1.4272 7.136 0 0 0
203 2 2.8544 0 5.7088 0 0 0
204 2 4.2816 1.4272 7.136 0 0 0
205 2 5.7088 0 5.7088 0 0 0
206 2 7.136 1.4272 7.136 0 0 0
207 2 8.5632 0 5.7088 0 0 0
208 2 9.990400000000001 1.4272 7.136 0 0 0
209 2 11.4176 0 5.7088 0 0 0
210 2 12.8448 1.4272 7.136 0 0 0
211 2 14.272 0 5.7088 0 0 0
212 2 15.699200000000001 1.4272 7.136 0 0 0
213 2 17.1264 0 5.7088 0 0 0
214 2 18.5536 1.4272 7.136 0 0 0
215 2 19.980800000000002 0 5.7088 0 0 0
216 2 21.408 1.4272 7.136 0 0 0
217 2 22.8352 0 5.7088 0 0 0
218 2 24.2624 1.4272 7.136 0 0 0
219 2 25.6896 0 5.7088 0 0 0
220 2 27.1168 1.4272 7.136 0 0 0
221 2 0 2.8544 5.7088 0 0 0
222 2 1.4272 4.2816 7.136 0 0 0
223 2 2.8544 2.8544 5.7088 0 0 0
224 2 4.2816 4.2816 7.136 0 0 0
225 2 5.7088 2.8544 5.7088 0 0 0
226 2 7.136 4.2816 7.136 0 0 0
227 2 8.5632 2.8544 5.7088 0 0 0
228 2 9.990400000000001 4.2816 7.136 0 0 0
229 2 11.4176 2.8544 5.7088 0 0 0
230 2 12.8448 4.2816 7.136 0 0 0
231 2 14.272 2.8544 5.7088 0 0 0
232 2 15.699200000000001 4.2816 7.136 0 0 0
233 2 17.1264 2.8544 5.7088 0 0 0
234 2 18.5536 4.2816 7.136 0 0 0
235 2 19.980800000000002 2.8544 5.7088 0 0 0
236 2 21.408 4.2816 7.136 0 0 0
237 2 22.8352 2.8544 5.7088 0 0 0
238 2 24.2624 4.2816 7.136 0 0 0
239 2 25.6896 2.8544 5.7088 0 0 0
240 2 27.1168 4.2816 7.136 0 0 0
241 2 0 5.7088 5.7088 0 0 0
242 2 1.4272 7.136 7.136 0 0 0
243 2 2.8544 5.7088 5.7088 0 0 0
244 2 4.2816 7.136 7.136 0 0 0
245 2 5.7088 5.7088 5.7088 0 0 0
246 2 7.136 7.136 7.136 0 0 0
247 2 8.5632 5.7088 5.7088 0 0 0
248 2 9.990400000000001 7.136 7.136 0 0 0
249 2 11.4176 5.7088 5.7088 0 0 0
250 2 12.8448 7.136 7.136 0 0 0
251 2 14.272 5.7088 5.7088 0 0 0
252 2 15.699200000000001 7.136 7.136 0 0 0
253 2 17.1264 5.7088 5.7088 0 0 0
254 2 18.5536 7.136 7.136 0 0 0
255 2 19.980800000000002 5.7088 5.7088 0 0 0
256 2 21.408 7.136 7.136 0 0 0
257 2 22.8352 5.7088 5.7088 0 0 0
258 2 24.2624 7.136 7.136 0 0 0
259 2 25.6896 5.7088 5.7088 0 0 0
260 2 27.1168 7.136 7.136 0 0 0
261 2 0 8.5632 5.7088 0 0 0
262 2 1.4272 9.990400000000001 7.136 0 0 0
263 2 2.8544 8.5632 5.7088 0 0 0
264 2 4.2816 9.990400000000001 7.136 0 0 0
265 2 5.7088 8.5632 5.7088 0 0 0
266 2 7.136 9.990400000000001 7.136 0 0 0
267 2 8.5632 8.5632 5.7088 0 0 0
268 2 9.990400000000001 9.990400000000001 7.136 0 0 0
269 2 11.4176 8.5632 5.7088 0 0 0
270 2 12.8448 9.990400000000001 7.136 0 0 0
271 2 14.272 8.5632 5.7088 0 0 0
272 2 15.699200000000001 9.990400000000001 7.136 0 0 0
273 2 17.1264 8.5632 5.7088 0 0 0
274 2 18.5536 9.990400000000001 7.136 0 0 0
275 2 19.980800000000002 8.5632 5.7088 0 0 0
276 2 21.408 9.990400000000001 7.136 0 0 0
277 2 22.8352 8.5632 5.7088 0 0 0
278 2 24.2624 9.990400000000001 7.136 0 0 0
279 2 25.6896 8.5632 5.7088 0 0 0
280 2 27.1168 9.990400000000001 7.136 0 0 0
281 2 0 11.4176 5.7088 0 0 0
282 2 1.4272 12.8448 7.136 0 0 0
283 2 2.8544 11.4176 5.7088 0 0 0
284 2 4.2816 12.8448 7.136 0 0 0
285 2 5.7088 11.4176 5.7088 0 0 0
286 2 7.136 12.8448 7.136 0 0 0
287 2 8.5632 11.4176 5.7088 0 0 0
288 2 9.990400000000001 12.8448 7.136 0 0 0
289 2 11.4176 11.4176 5.7088 0 0 0
290 2 12.8448 12.8448 7.136 0 0 0
291 2 14.272 11.4176 5.7088 0 0 0
292 2 15.699200000000001 12.8448 7.136 0 0 0
293 2 17.1264 11.4176 5.7088 0 0 0
294 2 18.5536 12.8448 7.136 0 0 0
295 2 19.980800000000002 11.4176 5.7088 0 0 0
296 2 21.408 12.8448 7.136 0 0 0
297 2 22.8352 11.4176 5.7088 0 0 0
298 2 24.2624 12.8448 7.136 0 0 0
299 2 25.6896 11.4176 5.7088 0 0 0
300 2 27.1168 12.8448 7.136 0 0 0
301 2 0 0 8.5632 0 0 0
302 2 1.4272 1.4272 9.990400000000001 0 0 0
303 2 2.8544 0 8.5632 0 0 0
304 2 4.2816 1.4272 9.990400000000001 0 0 0
305 2 5.7088 0 8.5632 0 0 0
306 2 7.136 1.4272 9.990400000000001 0 0 0
307 2 8.5632 0 8.5632 0 0 0
308 2 9.990400000000001 1.4272 9.990400000000001 0 0 0
309 2 11.4176 0 8.5632 0 0 0
310 2 12.8448 1.4272 9.990400000000001 0 0 0
311 2 14.272 0 8.5632 0 0 0
312 2 15.699200000000001 1.4272 9.990400000000001 0 0 0
313 2 17.1264 0 8.5632 0 0 0
314 2 18.5536 1.4272 9.990400000000001 0 0 0
315 2 19.980800000000002 0 8.5632 0 0 0
316 2 21.408 1.4272 9.990400000000001 0 0 0
317 2 22.8352 0 8.5632 0 0 0
318 2 24.2624 1.4272 9.990400000000001 0 0 0
319 2 25.6896 0 8.5632 0 0 0
320 2 27.1168 1.4272 9.990400000000001 0 0 0
321 2 0 2.8544 8.5632 0 0 0
322 2 1.4272 4.2816 9.990400000000001 0 0 0
323 2 2.8544 2.8544 8.5632 0 0 0
324 2 4.2816 4.2816 9.990400000000001 0 0 0
325 2 5.7088 2.8544 8.5632 0 0 0
326 2 7.136 4.2816 9.990400000000001 0 0 0
327 2 8.5632 2.8544 8.5632 0 0 0
328 2 9.990400000000001 4.2816 9.990400000000001 0 0 0
329 2 11.4176 2.8544 8.5632 0 0 0
330 2 12.8448 4.2816 9.990400000000001 0 0 0
331 2 14.272 2.8544 8.5632 0 0 0
332 2 15.699200000000001 4.2816 9.990400000000001 0 0 0
333 2 17.1264 2.8544 8.5632 0 0 0
334 2 18.5536 4.2816 9.990400000000001 0 0 0
335 2 19.980800000000002 2.8544 8.5632 0 0 0
336 2 21.408 4.2816 9.990400000000001 0 0 0
337 2 22.8352 2.8544 8.5632 0 0 0
338 2 24.2624 4.2816 9.990400000000001 0 0 0
339 2 25.6896 2.8544 8.5632 0 0 0
340 2 27.1168 4.2816 9.990400000000001 0 0 0
341 2 0 5.7088 8.5632 0 0 0
342 2 1.4272 7.136 9.990400000000001 0 0 0
343 2 2.8544 5.7088 8.5632 0 0 0
344 2 4.2816 7.136 9.990400000000001 0 0 0
345 2 5.7088 5.7088 8.5632 0 0 0
346 2 7.136 7.136 9.990400000000001 0 0 0
347 2 8.5632 5.7088 8.5632 0 0 0
348 2 9.990400000000001 7.136 9.990400000000001 0 0 0
349 2 11.4176 5.7088 8.5632 0 0 0
350 2 12.8448 7.136 9.990400000000001 0 0 0
351 2 14.272 5.7088 8.5632 0 0 0
352 2 15.699200000000001 7.136 9.990400000000001 0 0 0
353 2 17.1264 5.7088 8.5632 0 0 0
354 2 18.5536 7.136 9.990400000000001 0 0 0
355 2 19.980800000000002 5.7088 8.5632 0 0 0
356 2 21.408 7.136 9.990400000000001 0 0 0
357 2 22.8352 5.7088 8.5632 0 0 0
358 2 24.2624 7.136 9.990400000000001 0 0 0
359 2 25.6896 5.7088 8.5632 0 0 0
360 2 27.1168 7.136 9.990400000000001 0 0 0
361 2 0 8.5632 8.5632 0 0 0
362 2 1.4272 9.990400000000001 9.990400000000001 0 0 0
363 2 2.8544 8.5632 8.5632 0 0 0
364 2 4.2816 9.990400000000001 9.990400000000001 0 0 0
365 2 5.7088 8.5632 8.5632 0 0 0
366 2 7.136 9.990400000000001 9.990400000000001 0 0 0
367 2 8.5632 8.5632 8.5632 0 0 0
368 2 9.990400000000001 9.990400000000001 9.990400000000001 0 0 0
369 2 11.4176 8.5632 8.5632 0 0 0
370 2 12.8448 9.990400000000001 9.990400000000001 0 0 0
371 2 14.272 8.5632 8.5632 0 0 0
372 2 15.699200000000001 9.990400000000001 9.990400000000001 0 0 0
373 2 17.1264 8.5632 8.5632 0 0 0
374 2 18.5536 9.990400000000001 9.990400000000001 0 0 0
375 2 19.980800000000002 8.5632 8.5632 0 0 0
376 2 21.408 9.990400000000001 9.990400000000001 0 0 0
377 2 22.8352 8.5632 8.5632 0 0 0
378 2 24.2624 9.990400000000001 9.990400000000001 0 0 0
379 2 25.6896 8.5632 8.5632 0 0 0
380 2 27.1168 9.990400000000001 9.990400000000001 0 0 0
381 2 0 11.4176 8.5632 0 0 0
382 2 1.4272 12.8448 9.990400000000001 0 0 0
383 2 2.8544 11.4176 8.5632 0 0 0
384 2 4.2816 12.8448 9.990400000000001 0 0 0
385 2 5.7088 11.4176 8.5632 0 0 0
386 2 7.136 12.8448 9.990400000000001 0 0 0
387 2 8.5632 11.4176 8.5632 0 0 0
388 2 9.990400000000001 12.8448 9.990400000000001 0 0 0
389 2 11.4176 11.4176 8.5632 0 0 0
390 2 12.8448 12.8448 9.990400000000001 0 0 0
391 2 14.272 11.4176 8.5632 0 0 0
392 2 15.699200000000001 12.8448 9.990400000000001 0 0 0
393 2 17.1264 11.4176 8.5632 0 0 0
394 2 18.5536 12.8448 9.990400000000001 0 0 0
395 2 19.980800000000002 11.4176 8.5632 0 0 0
396 2 21.408 12.8448 9.990400000000001 0 0 0
397 2 22.8352 11.4176 8.5632 0 0 0
398 2 24.2624 12.8448 9.990400000000001 0 0 0
399 2 25.6896 11.4176 8.5632 0 0 0
400 2 27.1168 12.8448 9.990400000000001 0 0 0
401 2 0 0 11.4176 0 0 0
402 2 1.4272 1.4272 12.8448 0 0 0
403 2 2.8544 0 11.4176 0 0 0
404 2 4.2816 1.4272 12.8448 0 0 0
405 2 5.7088 0 11.4176 0 0 0
406 2 7.136 1.4272 12.8448 0 0 0
407 2 8.5632 0 11.4176 0 0 0
408 2 9.990400000000001 1.4272 12.8448 0 0 0
409 2 11.4176 0 11.4176 0 0 0
410 2 12.8448 1.4272 12.8448 0 0 0
411 2 14.272 0 11.4176 0 0 0
412 2 15.699200000000001 1.4272 12.8448 0 0 0
413 2 17.1264 0 11.4176 0 0 0
414 2 18.5536 1.4272 12.8448 0 0 0
415 2 19.980800000000002 0 11.4176 0 0 0
416 2 21.408 1.4272 12.8448 0 0 0
417 2 22.8352 0 11.4176 0 0 0
418 2 24.2624 1.4272 12.8448 0 0 0
419 2 25.6896 0 11.4176 0 0 0
420 2 27.1168 1.4272 12.8448 0 0 0
421 2 0 2.8544 11.4176 0 0 0
422 2 1.4272 4.2816 12.8448 0 0 0
423 2 2.8544 2.8544 11.4176 0 0 0
424 2 4.2816 4.2816 12.8448 0 0 0
425 2 5.7088 2.8544 11.4176 0 0 0
426 2 7.136 4.2816 12.8448 0 0 0
427 2 8.5632 2.8544 11.4176 0 0 0
428 2 9.990400000000001 4.2816 12.8448 0 0 0
429 2 11.4176 2.8544 11.4176 0 0 0
430 2 12.8448 4.2816 12.8448 0 0 0
431 2 14.272 2.8544 11.4176 0 0 0
432 2 15.699200000000001 4.2816 12.8448 0 0 0
433 2 17.1264 2.8544 11.4176 0 0 0
434 2 18.5536 4.2816 12.8448 0 0 0
435 2 19.980800000000002 2.8544 11.4176 0 0 0
436 2 21.408 4.2816 12.8448 0 0 0
437 2 22.8352 2.8544 11.4176 0 0 0
438 2 24.2624 4.2816 12.8448 0 0 0
439 2 25.6896 2.8544 11.4176 0 0 0
440 2 27.1168 4.2816 12.8448 0 0 0
441 2 0 5.7088 11.4176 0 0 0
442 2 1.4272 7.136 12.8448 0 0 0
443 2 2.8544 5.7088 11.4176 0 0 0
444 2 4.2816 7.136 12.8448 0 0 0
445 2 5.7088 5.7088 11.4176 0 0 0
446 2 7.136 7.136 12.8448 0 0 0
447 2 8.5632 5.7088 11.4176 0 0 0
448 2 9.990400000000001 7.136 12.8448 0 0 0
449 2 11.4176 5.7088 11.4176 0 0 0
450 2 12.8448 7.136 12.8448 0 0 0
451 2 14.272 5.7088 11.4176 0 0 0
452 2 15.699200000000001 7.136 12.8448 0 0 0
453 2 17.1264 5.7088 11.4176 0 0 0
454 2 18.5536 7.136 12.8448 0 0 0
455 2 19.980800000000002 5.7088 11.4176 0 0 0
456 2 21.408 7.136 12.8448 0 0 0
457 2 22.8352 5.7088 11.4176 0 0 0
458 2 24.2624 7.136 12.8448 0 0 0
459 2 25.6896 5.7088 11.4176 0 0 0
460 2 27.1168 7.136 12.8448 0 0 0
461 2 0 8.5632 11.4176 0 0 0
462 2 1.4272 9.990400000000001 12.8448 0 0 0
463 2 2.8544 8.5632 11.4176 0 0 0
464 2 4.2816 9.990400000000001 12.8448 0 0 0
465 2 5.7088 8.5632 11.4176 0 0 0
466 2 7.136 9.990400000000001 12.8448 0 0 0
467 2 8.5632 8.5632 11.4176 0 0 0
468 2 9.990400000000001 9.990400000000001 12.8448 0 0 0
469 2 11.4176 8.5632 11.4176 0 0 0
470 2 12.8448 9.990400000000001 12.8448 0 0 0
471 2 14.272 8.5632 11.4176 0 0 0
472 2 15.699200000000001 9.990400000000001 12.8448 0 0 0
473 2 17.1264 8.5632 11.4176 0 0 0
474 2 18.5536 9.990400000000001 12.8448 0 0 0
475 2 19.980800000000002 8.5632 11.4176 0 0 0
476 2 21.408 9.990400000000001 12.8448 0 0 0
477 2 22.8352 8.5632 11.4176 0 0 0
478 2 24.2624 9.990400000000001 12.8448 0 0 0
479 2 25.6896 8.5632 11.4176 0 0 0
480 2 27.1168 9.990400000000001 12.8448 0 0 0
481 2 0 11.4176 11.4176 0 0 0
482 2 1.4272 12.8448 12.8448 0 0 0
483 2 2.8544 11.4176 11.4176 0 0 0
484 2 4.2816 12.8448 12.8448 0 0 0
485 2 5.7088 11.4176 11.4176 0 0 0
486 2 7.136 12.8448 12.8448 0 0 0
487 2 8.5632 11.4176 11.4176 0 0 0
488 2 9.990400000000001 12.8448 12.8448 0 0 0
489 2 11.4176 11.4176 11.4176 0 0 0
490 2 12.8448 12.8448 12.8448 0 0 0
491 2 14.272 11.4176 11.4176 0 0 0
492 2 15.699200000000001 12.8448 12.8448 0 0 0
493 2 17.1264 11.4176 11.4176 0 0 0
494 2 18.5536 12.8448 12.8448 0 0 0
495 2 19.980800000000002 11.4176 11.4176 0 0 0
496 2 21.408 12.8448 12.8448 0 0 0
497 2 22.8352 11.4176 11.4176 0 0 0
498 2 24.2624 12.8448 12.8448 0 0 0
499 2 25.6896 11.4176 11.4176 0 0 0
500 2 27.1168 12.8448 12.8448 0 0 0
2010 1 12.8448 9.990400000000001 2.8544 0 0 0
501 2 0 0 14.272 0 0 0
502 2 1.4272 1.4272 15.699200000000001 0 0 0
503 2 2.8544 0 14.272 0 0 0
504 2 4.2816 1.4272 15.699200000000001 0 0 0
505 2 5.7088 0 14.272 0 0 0
506 2 7.136 1.4272 15.699200000000001 0 0 0
507 2 8.5632 0 14.272 0 0 0
508 2 9.990400000000001 1.4272 15.699200000000001 0 0 0
509 2 11.4176 0 14.272 0 0 0
510 2 12.8448 1.4272 15.699200000000001 0 0 0
511 2 14.272 0 14.272 0 0 0
512 2 15.699200000000001 1.4272 15.699200000000001 0 0 0
513 2 17.1264 0 14.272 0 0 0
514 2 18.5536 1.4272 15.699200000000001 0 0 0
515 2 19.980800000000002 0 14.272 0 0 0
516 2 21.408 1.4272 15.699200000000001 0 0 0
517 2 22.8352 0 14.272 0 0 0
518 2 24.2624 1.4272 15.699200000000001 0 0 0
519 2 25.6896 0 14.272 0 0 0
520 2 27.1168 1.4272 15.699200000000001 0 0 0
521 2 0 2.8544 14.272 0 0 0
522 2 1.4272 4.2816 15.699200000000001 0 0 0
523 2 2.8544 2.8544 14.272 0 0 0
524 2 4.2816 4.2816 15.699200000000001 0 0 0
525 2 5.7088 2.8544 14.272 0 0 0
526 2 7.136 4.2816 15.699200000000001 0 0 0
527 2 8.5632 2.8544 14.272 0 0 0
528 2 9.990400000000001 4.2816 15.699200000000001 0 0 0
529 2 11.4176 2.8544 14.272 0 0 0
530 2 12.8448 4.2816 15.699200000000001 0 0 0
531 2 14.272 2.8544 14.272 0 0 0
532 2 15.699200000000001 4.2816 15.699200000000001 0 0 0
533 2 17.1264 2.8544 14.272 0 0 0
534 2 18.5536 4.2816 15.699200000000001 0 0 0
535 2 19.980800000000002 2.8544 14.272 0 0 0
536 2 21.408 4.2816 15.699200000000001 0 0 0
537 2 22.8352 2.8544 14.272 0 0 0
538 2 24.2624 4.2816 15.699200000000001 0 0 0
539 2 25.6896 2.8544 14.272 0 0 0
540 2 27.1168 4.2816 15.699200000000001 0 0 0
541 2 0 5.7088 14.272 0 0 0
542 2 1.4272 7.136 15.699200000000001 0 0 0
543 2 2.8544 5.7088 14.272 0 0 0
544 2 4.2816 7.136 15.699200000000001 0 0 0
545 2 5.7088 5.7088 14.272 0 0 0
546 2 7.136 7.136 15.699200000000001 0 0 0
547 2 8.5632 5.7088 14.272 0 0 0
548 2 9.990400000000001 7.136 15.699200000000001 0 0 0
549 2 11.4176 5.7088 14.272 0 0 0
550 2 12.8448 7.136 15.699200000000001 0 0 0
551 2 14.272 5.7088 14.272 0 0 0
552 2 15.699200000000001 7.136 15.699200000000001 0 0 0
553 2 17.1264 5.7088 14.272 0 0 0
554 2 18.5536 7.136 15.699200000000001 0 0 0
555 2 19.980800000000002 5.7088 14.272 0 0 0
556 2 21.408 7.136 15.699200000000001 0 0 0
557 2 22.8352 5.7088 14.272 0 0 0
558 2 24.2624 7.136 15.699200000000001 0 0 0
559 2 25.6896 5.7088 14.272 0 0 0
560 2 27.1168 7.136 15.699200000000001 0 0 0
561 2 0 8.5632 14.272 0 0 0
562 2 1.4272 9.990400000000001 15.699200000000001 0 0 0
563 2 2.8544 8.5632 14.272 0 0 0
564 2 4.2816 9.990400000000001 15.699200000000001 0 0 0
565 2 5.7088 8.5632 14.272 0 0 0
566 2 7.136 9.990400000000001 15.699200000000001 0 0 0
567 2 8.5632 8.5632 14.272 0 0 0
568 2 9.990400000000001 9.990400000000001 15.699200000000001 0 0 0
569 2 11.4176 8.5632 14.272 0 0 0
570 2 12.8448 9.990400000000001 15.699200000000001 0 0 0
571 2 14.272 8.5632 14.272 0 0 0
572 2 15.699200000000001 9.990400000000001 15.699200000000001 0 0 0
573 2 17.1264 8.5632 14.272 0 0 0
574 2 18.5536 9.990400000000001 15.699200000000001 0 0 0
575 2 19.980800000000002 8.5632 14.272 0 0 0
576 2 21.408 9.990400000000001 15.699200000000001 0 0 0
577 2 22.8352 8.5632 14.272 0 0 0
578 2 24.2624 9.990400000000001 15.699200000000001 0 0 0
579 2 25.6896 8.5632 14.272 0 0 0
580 2 27.1168 9.990400000000001 15.699200000000001 0 0 0
581 2 0 11.4176 14.272 0 0 0
582 2 1.4272 12.8448 15.699200000000001 0 0 0
583 2 2.8544 11.4176 14.272 0 0 0
584 2 4.2816 12.8448 15.699200000000001 0 0 0
585 2 5.7088 11.4176 14.272 0 0 0
586 2 7.136 12.8448 15.699200000000001 0 0 0
587 2 8.5632 11.4176 14.272 0 0 0
588 2 9.990400000000001 12.8448 15.699200000000001 0 0 0
589 2 11.4176 11.4176 14.272 0 0 0
590 2 12.8448 12.8448 15.699200000000001 0 0 0
591 2 14.272 11.4176 14.272 0 0 0
592 2 15.699200000000001 12.8448 15.699200000000001 0 0 0
593 2 17.1264 11.4176 14.272 0 0 0
594 2 18.5536 12.8448 15.699200000000001 0 0 0
595 2 19.980800000000002 11.4176 14.272 0 0 0
596 2 21.408 12.8448 15.699200000000001 0 0 0
597 2 22.8352 11.4176 14.272 0 0 0
598 2 24.2624 12.8448 15.699200000000001 0 0 0
599 2 25.6896 11.4176 14.272 0 0 0
600 2 27.1168 12.8448 15.699200000000001 0 0 0
601 2 0 0 17.1264 0 0 0
602 2 1.4272 1.4272 18.5536 0 0 0
603 2 2.8544 0 17.1264 0 0 0
604 2 4.2816 1.4272 18.5536 0 0 0
605 2 5.7088 0 17.1264 0 0 0
606 2 7.136 1.4272 18.5536 0 0 0
607 2 8.5632 0 17.1264 0 0 0
608 2 9.990400000000001 1.4272 18.5536 0 0 0
609 2 11.4176 0 17.1264 0 0 0
610 2 12.8448 1.4272 18.5536 0 0 0
611 2 14.272 0 17.1264 0 0 0
612 2 15.699200000000001 1.4272 18.5536 0 0 0
613 2 17.1264 0 17.1264 0 0 0
614 2 18.5536 1.4272 18.5536 0 0 0
615 2 19.980800000000002 0 17.1264 0 0 0
616 2 21.408 1.4272 18.5536 0 0 0
617 2 22.8352 0 17.1264 0 0 0
618 2 24.2624 1.4272 18.5536 0 0 0
619 2 25.6896 0 17.1264 0 0 0
620 2 27.1168 1.4272 18.5536 0 0 0
621 2 0 2.8544 17.1264 0 0 0
622 2 1.4272 4.2816 18.5536 0 0 0
623 2 2.8544 2.8544 17.1264 0 0 0
624 2 4.2816 4.2816 18.5536 0 0 0
625 2 5.7088 2.8544 17.1264 0 0 0
626 2 7.136 4.2816 18.5536 0 0 0
627 2 8.5632 2.8544 17.1264 0 0 0
628 2 9.990400000000001 4.2816 18.5536 0 0 0
629 2 11.4176 2.8544 17.1264 0 0 0
630 2 12.8448 4.2816 18.5536 0 0 0
631 2 14.272 2.8544 17.1264 0 0 0
632 2 15.699200000000001 4.2816 18.5536 0 0 0
633 2 17.1264 2.8544 17.1264 0 0 0
634 2 18.5536 4.2816 18.5536 0 0 0
635 2 19.980800000000002 2.8544 17.1264 0 0 0
636 2 21.408 4.2816 18.5536 0 0 0
637 2 22.8352 2.8544 17.1264 0 0 0
638 2 24.2624 4.2816 18.5536 0 0 0
639 2 25.6896 2.8544 17.1264 0 0 0
640 2 27.1168 4.2816 18.5536 0 0 0
641 2 0 5.7088 17.1264 0 0 0
642 2 1.4272 7.136 18.5536 0 0 0
643 2 2.8544 5.7088 17.1264 0 0 0
644 2 4.2816 7.136 18.5536 0 0 0
645 2 5.7088 5.7088 17.1264 0 0 0
646 2 7.136 7.136 18.5536 0 0 0
647 2 8.5632 5.7088 17.1264 0 0 0
648 2 9.990400000000001 7.136 18.5536 0 0 0
649 2 11.4176 5.7088 17.1264 0 0 0
650 2 12.8448 7.136 18.5536 0 0 0
651 2 14.272 5.7088 17.1264 0 0 0
652 2 15.699200000000001 7.136 18.5536 0 0 0
653 2 17.1264 5.7088 17.1264 0 0 0
654 2 18.5536 7.136 18.5536 0 0 0
655 2 19.980800000000002 5.7088 17.1264 0 0 0
656 2 21.408 7.136 18.5536 0 0 0
657 2 22.8352 5.7088 17.1264 0 0 0
658 2 24.2624 7.136 18.5536 0 0 0
659 2 25.6896 5.7088 17.1264 0 0 0
660 2 27.1168 7.136 18.5536 0 0 0
661 2 0 8.5632 17.1264 0 0 0
662 2 1.4272 9.990400000000001 18.5536 0 0 0
663 2 2.8544 8.5632 17.1264 0 0 0
664 2 4.2816 9.990400000000001 18.5536 0 0 0
665 2 5.7088 8.5632 17.1264 0 0 0
666 2 7.136 9.990400000000001 18.5536 0 0 0
667 2 8.5632 8.5632 17.1264 0 0 0
668 2 9.990400000000001 9.990400000000001 18.5536 0 0 0
669 2 11.4176 8.5632 17.1264 0 0 0
670 2 12.8448 9.990400000000001 18.5536 0 0 0
671 2 14.272 8.5632 17.1264 0 0 0
672 2 15.699200000000001 9.990400000000001 18.5536 0 0 0
673 2 17.1264 8.5632 17.1264 0 0 0
674 2 18.5536 9.990400000000001 18.5536 0 0 0
675 2 19.980800000000002 8.5632 17.1264 0 0 0
676 2 21.408 9.990400000000001 18.5536 0 0 0
677 2 22.8352 8.5632 17.1264 0 0 0
678 2 24.2624 9.990400000000001 18.5536 0 0 0
679 2 25.6896 8.5632 17.1264 0 0 0
680 2 27.1168 9.990400000000001 18.5536 0 0 0
681 2 0 11.4176 17.1264 0 0 0
682 2 1.4272 12.8448 18.5536 0 0 0
683 2 2.8544 11.4176 17.1264 0 0 0
684 2 4.2816 12.8448 18.5536 0 0 0
685 2 5.7088 11.4176 17.1264 0 0 0
686 2 7.136 12.8448 18.5536 0 0 0
687 2 8.5632 11.4176 17.1264 0 0 0
688 2 9.990400000000001 12.8448 18.5536 0 0 0
689 2 11.4176 11.4176 17.1264 0 0 0
690 2 12.8448 12.8448 18.5536 0 0 0
691 2 14.272 11.4176 17.1264 0 0 0
692 2 15.699200000000001 12.8448 18.5536 0 0 0
693 2 17.1264 11.4176 17.1264 0 0 0
694 2 18.5536 12.8448 18.5536 0 0 0
695 2 19.980800000000002 11.4176 17.1264 0 0 0
696 2 21.408 12.8448 18.5536 0 0 0
697 2 22.8352 11.4176 17.1264 0 0 0
698 2 24.2624 12.8448 18.5536 0 0 0
699 2 25.6896 11.4176 17.1264 0 0 0
700 2 27.1168 12.8448 18.5536 0 0 0
701 2 0 0 19.980800000000002 0 0 0
702 2 1.4272 1.4272 21.408 0 0 0
703 2 2.8544 0 19.980800000000002 0 0 0
704 2 4.2816 1.4272 21.408 0 0 0
705 2 5.7088 0 19.980800000000002 0 0 0
706 2 7.136 1.4272 21.408 0 0 0
707 2 8.5632 0 19.980800000000002 0 0 0
708 2 9.990400000000001 1.4272 21.408 0 0 0
709 2 11.4176 0 19.980800000000002 0 0 0
710 2 12.8448 1.4272 21.408 0 0 0
711 2 14.272 0 19.980800000000002 0 0 0
712 2 15.699200000000001 1.4272 21.408 0 0 0
713 2 17.1264 0 19.980800000000002 0 0 0
714 2 18.5536 1.4272 21.408 0 0 0
715 2 19.980800000000002 0 19.980800000000002 0 0 0
716 2 21.408 1.4272 21.408 0 0 0
717 2 22.8352 0 19.980800000000002 0 0 0
718 2 24.2624 1.4272 21.408 0 0 0
719 2 25.6896 0 19.980800000000002 0 0 0
720 2 27.1168 1.4272 21.408 0 0 0
721 2 0 2.8544 19.980800000000002 0 0 0
722 2 1.4272 4.2816 21.408 0 0 0
723 2 2.8544 2.8544 19.980800000000002 0 0 0
724 2 4.2816 4.2816 21.408 0 0 0
725 2 5.7088 2.8544 19.980800000000002 0 0 0
726 2 7.136 4.2816 21.408 0 0 0
727 2 8.5632 2.8544 19.980800000000002 0 0 0
728 2 9.990400000000001 4.2816 21.408 0 0 0
729 2 11.4176 2.8544 19.980800000000002 0 0 0
730 2 12.8448 4.2816 21.408 0 0 0
731 2 14.272 2.8544 19.980800000000002 0 0 0
732 2 15.699200000000001 4.2816 21.408 0 0 0
733 2 17.1264 2.8544 19.980800000000002 0 0 0
734 2 18.5536 4.2816 21.408 0 0 0
735 2 19.980800000000002 2.8544 19.980800000000002 0 0 0
736 2 21.408 4.2816 21.408 0 0 0
737 2 22.8352 2.8544 19.980800000000002 0 0 0
738 2 24.2624 4.2816 21.408 0 0 0
739 2 25.6896 2.8544 19.980800000000002 0 0 0
740 2 27.1168 4.2816 21.408 0 0 0
741 2 0 5.7088 19.980800000000002 0 0 0
742 2 1.4272 7.136 21.408 0 0 0
743 2 2.8544 5.7088 19.980800000000002 0 0 0
744 2 4.2816 7.136 21.408 0 0 0
745 2 5.7088 5.7088 19.980800000000002 0 0 0
746 2 7.136 7.136 21.408 0 0 0
747 2 8.5632 5.7088 19.980800000000002 0 0 0
748 2 9.990400000000001 7.136 21.408 0 0 0
749 2 11.4176 5.7088 19.980800000000002 0 0 0
750 2 12.8448 7.136 21.408 0 0 0
751 2 14.272 5.7088 19.980800000000002 0 0 0
752 2 15.699200000000001 7.136 21.408 0 0 0
753 2 17.1264 5.7088 19.980800000000002 0 0 0
754 2 18.5536 7.136 21.408 0 0 0
755 2 19.980800000000002 5.7088 19.980800000000002 0 0 0
756 2 21.408 7.136 21.408 0 0 0
757 2 22.8352 5.7088 19.980800000000002 0 0 0
758 2 24.2624 7.136 21.408 0 0 0
759 2 25.6896 5.7088 19.980800000000002 0 0 0
760 2 27.1168 7.136 21.408 0 0 0
761 2 0 8.5632 19.980800000000002 0 0 0
762 2 1.4272 9.990400000000001 21.408 0 0 0
763 2 2.8544 8.5632 19.980800000000002 0 0 0
764 2 4.2816 9.990400000000001 21.408 0 0 0
765 2 5.7088 8.5632 19.980800000000002 0 0 0
766 2 7.136 9.990400000000001 21.408 0 0 0
767 2 8.5632 8.5632 19.980800000000002 0 0 0
768 2 9.990400000000001 9.990400000000001 21.408 0 0 0
769 2 11.4176 8.5632 19.980800000000002 0 0 0
770 2 12.8448 9.990400000000001 21.408 0 0 0
771 2 14.272 8.5632 19.980800000000002 0 0 0
772 2 15.699200000000001 9.990400000000001 21.408 0 0 0
773 2 17.1264 8.5632 19.980800000000002 0 0 0
774 2 18.5536 9.990400000000001 21.408 0 0 0
775 2 19.980800000000002 8.5632 19.980800000000002 0 0 0
776 2 21.408 9.990400000000001 21.408 0 0 0
777 2 22.8352 8.5632 19.980800000000002 0 0 0
778 2 24.2624 9.990400000000001 21.408 0 0 0
779 2 25.6896 8.5632 19.980800000000002 0 0 0
780 2 27.1168 9.990400000000001 21.408 0 0 0
781 2 0 11.4176 19.980800000000002 0 0 0
782 2 1.4272 12.8448 21.408 0 0 0
783 2 2.8544 11.4176 19.980800000000002 0 0 0
784 2 4.2816 12.8448 21.408 0 0 0
785 2 5.7088 11.4176 19.980800000000002 0 0 0
786 2 7.136 12.8448 21.408 0 0 0
787 2 8.5632 11.4176 19.980800000000002 0 0 0
788 2 9.990400000000001 12.8448 21.408 0 0 0
789 2 11.4176 11.4176 19.980800000000002 0 0 0
790 2 12.8448 12.8448 21.408 0 0 0
791 2 14.272 11.4176 19.980800000000002 0 0 0
792 2 15.699200000000001 12.8448 21.408 0 0 0
793 2 17.1264 11.4176 19.980800000000002 0 0 0
794 2 18.5536 12.8448 21.408 0 0 0