LAMMPS (09 Jan 2020)
Running on 4 partitions of processors
Step MaxReplicaForce MaxAtomForce GradV0 GradV1 GradVc EBF EBR RDT RD1 PE1 RD2 PE2 ... RDN PEN
0    7.5525391    1.6345605   0.16683659    7.5525391    7.5525391    1.5383951            0    1.6207355            0   -2213.3343   0.33333333   -2212.7428   0.66666667   -2212.2247            1   -2211.7959 
10   0.82975832     0.151496  0.051405637   0.82975832   0.82890942   0.44110237   0.38602248    1.6383945            0    -2213.336   0.34232243   -2212.9441   0.67673819   -2212.8949            1   -2213.2809 
20    0.1352153  0.017969594  0.028869242    0.1352153   0.71343115   0.41634032   0.41253973    1.7292177            0   -2213.3368   0.32696596   -2212.9588    0.6532446   -2212.9204            1    -2213.333 
30  0.040631856 0.0047789392 0.0035943777  0.040631856   0.77848301   0.38922096   0.38909328    1.7666107            0   -2213.3374   0.33479277   -2212.9482   0.66840762   -2212.9544            1   -2213.3373 
40  0.010021333 0.00094141903 0.0026779237  0.010021333   0.78047283   0.38807503   0.38804134     1.765797            0   -2213.3374   0.33414241   -2212.9493   0.66764466   -2212.9529            1   -2213.3374 
41 0.0085585955 0.00080485818 0.0024573847 0.0085585955   0.78063064   0.38800164   0.38797632    1.7656661            0   -2213.3374   0.33413244   -2212.9494   0.66759535   -2212.9527            1   -2213.3374 
Climbing replica = 2
Step MaxReplicaForce MaxAtomForce GradV0 GradV1 GradVc EBF EBR RDT RD1 PE1 RD2 PE2 ... RDN PEN
41   0.78063064   0.31131254 0.0024573847 0.0085585955   0.78063064   0.38800164   0.38797632    1.7656661            0   -2213.3374   0.33413244   -2212.9494   0.66759535   -2212.9527            1   -2213.3374 
51  0.077404428  0.031367667 0.0011842934 0.0024342976  0.019465249   0.51014525   0.51014291     1.761094            0   -2213.3374   0.49613471   -2212.8272   0.72707246   -2213.0479            1   -2213.3374 
61  0.012232045 0.0032274471 0.00078574104 0.0014332303  0.008388584   0.51009811   0.51009738    1.7611503            0   -2213.3374   0.49457348   -2212.8273   0.74541597   -2213.0782            1   -2213.3374 
62 0.0089103916 0.0024842796 0.00072806474 0.0014932704 0.0083939608   0.51009995   0.51009934    1.7610284            0   -2213.3374   0.49503069   -2212.8273   0.74593364    -2213.079            1   -2213.3374 
