LAMMPS (09 Jan 2020)
Running on 4 partitions of processors
Step MaxReplicaForce MaxAtomForce GradV0 GradV1 GradVc EBF EBR RDT RD1 PE1 RD2 PE2 ... RDN PEN
0    7.5525391    1.6345605   0.16683659    7.5525391    7.5525391    1.5383951            0    1.6207355            0   -2213.3343   0.33333333   -2212.7428   0.66666667   -2212.2247            1   -2211.7959 
10   0.48320283  0.070875032  0.038616783   0.48320283   0.73566671   0.43244307   0.41490356    1.6995075            0   -2213.3364   0.32902356   -2212.9569   0.65268687    -2212.904            1   -2213.3189 
20   0.04588662 0.0059014273  0.013607587   0.04588662    0.7620294   0.39621211   0.39588855     1.754979            0   -2213.3372   0.32672928   -2212.9586   0.66103382    -2212.941            1   -2213.3369 
30  0.012046386 0.0023677314 0.0024864261  0.012046386   0.77394417     0.390621   0.39059583    1.7683216            0   -2213.3374   0.33656712   -2212.9468   0.66993108    -2212.956            1   -2213.3374 
32 0.0082265111  0.002338617 0.0024204614 0.0082265111   0.77424743   0.39048139   0.39045939    1.7683165            0   -2213.3374   0.33645819   -2212.9469   0.66981988   -2212.9558            1   -2213.3374 
Climbing replica = 2
Step MaxReplicaForce MaxAtomForce GradV0 GradV1 GradVc EBF EBR RDT RD1 PE1 RD2 PE2 ... RDN PEN
32   0.77424743   0.30840645 0.0024204614 0.0082265111   0.77424743   0.39048139   0.39045939    1.7683165            0   -2213.3374   0.33645819   -2212.9469   0.66981988   -2212.9558            1   -2213.3374 
42   0.10894394  0.044043242 0.0013210541 0.0029131753  0.021916453    0.5102364   0.51023223    1.7634332            0   -2213.3374   0.49598665   -2212.8272   0.71765441   -2213.0326            1   -2213.3374 
50 0.0068513242 0.0010095684 0.00065625863  0.001215472 0.0066965947   0.51011571   0.51011496    1.7619971            0   -2213.3374   0.49559669   -2212.8273   0.74807431   -2213.0827            1   -2213.3374 
