LAMMPS (09 Jan 2020)
Running on 8 partitions of processors
Step MaxReplicaForce MaxAtomForce GradV0 GradV1 GradVc EBF EBR RDT RD1 PE1 RD2 PE2 ... RDN PEN
0    7.5525391    1.6345605   0.16683659    7.5525391    7.5525391    1.5383951            0    1.6207355            0   -2213.3343   0.14285714   -2213.1848   0.28571429   -2212.8577   0.42857143   -2212.5353   0.57142857   -2212.3131   0.71428571    -2212.192   0.85714286   -2212.0797            1   -2211.7959 
10    1.3733952   0.28091862  0.070816258    1.3733952    0.8486803   0.56001239    0.3703372     1.585382            0   -2213.3353    0.1507806   -2213.2252   0.30063588    -2212.994   0.45029991   -2212.8095   0.59994263   -2212.7753    0.7496139   -2212.8912   0.89858029   -2213.0683            1   -2213.1457 
20     1.092582   0.20848565  0.049208846     1.092582   0.67749217   0.51312948   0.45351955    1.6893895            0   -2213.3362   0.14936576   -2213.2335   0.29517709   -2213.0109   0.44023761   -2212.8383   0.58433586    -2212.823   0.72824623   -2212.9685   0.86563155   -2213.1656            1   -2213.2765 
30   0.51394672  0.065440154  0.039324493   0.51394672    0.3958278   0.49724388   0.48072013    1.7159739            0   -2213.3364   0.14741033   -2213.2378   0.29093102   -2213.0178   0.43329455   -2212.8488   0.57560149   -2212.8391   0.71699492   -2212.9908   0.85518626   -2213.2019            1   -2213.3199 
40    0.3585576  0.049551349  0.034062896    0.3585576   0.35880033   0.49523368   0.48643307    1.7331908            0   -2213.3366    0.1468741   -2213.2401   0.28995894   -2213.0199   0.43116537   -2212.8509   0.57200904   -2212.8414   0.71172557   -2212.9933   0.85019682   -2213.2079            1   -2213.3278 
50   0.44071315  0.082631584  0.022058757   0.44071315   0.37223078   0.49368273   0.48892253     1.798835            0   -2213.3371   0.14570064   -2213.2457   0.28667681   -2213.0242   0.42410363   -2212.8534   0.55976055   -2212.8434   0.69487743   -2212.9955   0.83779975   -2213.2217            1   -2213.3324 
60  0.077895494  0.011715318   0.01696469  0.077895494   0.32663094   0.49291962   0.49197362    1.7955425            0   -2213.3372    0.1454209   -2213.2463    0.2868202   -2213.0251   0.42463425    -2212.854   0.56068056   -2212.8442   0.69668441   -2212.9982   0.84064029   -2213.2268            1   -2213.3362 
70   0.11340967  0.020267586  0.014639143   0.11200288   0.32902721   0.49268033   0.49216997    1.7893615            0   -2213.3372   0.14432947   -2213.2481   0.28644798   -2213.0271   0.42527709   -2212.8546   0.56239953   -2212.8445   0.70115891   -2213.0022   0.84751195   -2213.2328            1   -2213.3367 
80  0.059890228 0.0072324994  0.013525373  0.058536736   0.32663552   0.49254358   0.49222746    1.7897234            0   -2213.3372   0.14416888   -2213.2483   0.28619681   -2213.0275   0.42510701   -2212.8548    0.5624421   -2212.8447   0.70158835   -2213.0031   0.84785092   -2213.2336            1   -2213.3369 
90  0.046425179 0.0085878339  0.012661487  0.044701202   0.32705463   0.49239983   0.49214608    1.7902988            0   -2213.3373   0.14397996   -2213.2486   0.28591514   -2213.0281   0.42492825   -2212.8549   0.56254967   -2212.8449   0.70215415   -2213.0043   0.84829939   -2213.2344            1    -2213.337 
100   0.10492073  0.011902365 0.0086596336  0.098577447   0.33783582   0.49131393   0.49111204    1.7952617            0   -2213.3373   0.14284709   -2213.2507   0.28418505   -2213.0317   0.42398447   -2212.8559    0.5637284    -2212.846   0.70592525   -2213.0117   0.85128864   -2213.2397            1   -2213.3371 
Climbing replica = 5
Step MaxReplicaForce MaxAtomForce GradV0 GradV1 GradVc EBF EBR RDT RD1 PE1 RD2 PE2 ... RDN PEN
100   0.33783582   0.13401694 0.0086596336  0.098577447   0.33783582   0.49131393   0.49111204    1.7952617            0   -2213.3373   0.14284709   -2213.2507   0.28418505   -2213.0317   0.42398447   -2212.8559    0.5637284    -2212.846   0.70592525   -2213.0117   0.85128864   -2213.2397            1   -2213.3371 
110   0.18587506  0.036451754  0.010634469   0.17023192  0.096871396   0.51011217   0.50966159    1.7980162            0   -2213.3374   0.14250254   -2213.2514   0.28367135   -2213.0327   0.42003349   -2212.8588   0.50682002   -2212.8272   0.70273624   -2213.0073   0.85172992    -2213.241            1   -2213.3369 
120   0.10027564  0.032272806 0.0066799491  0.069972769   0.04600783   0.51006637   0.50996326    1.7980446            0   -2213.3374   0.14245419   -2213.2516   0.28333857   -2213.0334   0.41656844   -2212.8616   0.50571617   -2212.8273   0.69946889   -2213.0023   0.85165952   -2213.2413            1   -2213.3373 
130  0.061140793  0.022612825 0.0051287229  0.035432028  0.023420936   0.51012054   0.51007667      1.79856            0   -2213.3374   0.14224093    -2213.252   0.28182793   -2213.0361   0.40850953   -2212.8685   0.50337537   -2212.8272   0.69184303   -2212.9904   0.85074583   -2213.2402            1   -2213.3373 
140  0.034227221  0.013436677 0.0033777969  0.012466833  0.012341194   0.51010526    0.5100916    1.7997532            0   -2213.3374   0.14115179    -2213.254   0.27552835   -2213.0474   0.39134491   -2212.8853   0.50005108   -2212.8273   0.67579228   -2212.9658   0.84597693   -2213.2336            1   -2213.3374 
150  0.031519482  0.012310467  0.003215866 0.0067823368 0.0094298698   0.51010745   0.51009621     1.799913            0   -2213.3374    0.1407836   -2213.2545   0.27442232   -2213.0493   0.39094764   -2212.8858   0.50040612   -2212.8273   0.67547004   -2212.9653   0.84498145   -2213.2322            1   -2213.3374 
160   0.02145751  0.006224623 0.0025005459  0.015465641  0.009264856   0.51010724   0.51009839    1.8012956            0   -2213.3374   0.13767881   -2213.2589   0.26720429   -2213.0621   0.38791572   -2212.8894   0.50222367   -2212.8273   0.67294161   -2212.9614   0.83875897   -2213.2236            1   -2213.3374 
170  0.066130312 0.0055647193 0.0038237308  0.038908839  0.020979589   0.51009997   0.51007791    1.8039701            0   -2213.3374   0.13100945   -2213.2676   0.25738978   -2213.0796    0.3821429   -2212.8962   0.50312597   -2212.8273   0.66833145   -2212.9546   0.83201742   -2213.2142            1   -2213.3374 
175  0.008829511 0.0032927835 0.00089755332 0.0014591785 0.0043357949   0.51009467   0.51009389    1.8039465            0   -2213.3374   0.13086052   -2213.2678    0.2573384   -2213.0797   0.38201967   -2212.8964   0.50305513   -2212.8273   0.66828977   -2212.9546   0.83216025   -2213.2144            1   -2213.3374 
