LAMMPS data file, 360 water molecules

1080 atoms
2 atom types

0.0 2.2695686722465727E+01 xlo xhi
0.0 2.3586033624598713E+01 ylo yhi
0.0 2.2237130028217017E+01 zlo zhi

Masses

1 1.00794
2 15.9994

Atoms # atomic

1    2   1.7548118361224624E+01   7.3699168122955889E+00   5.5591101411055377E-01
2    1   1.7052018361224619E+01   7.5604368122955892E+00   1.3882600141105546E+00
3    1   1.8473918361224619E+01   7.4162968122955890E+00   8.4111101411055411E-01
4    2   9.1706683612246138E+00   1.2915816812295594E+01   2.5107200141105555E+00
5    1   9.7830883612246140E+00   1.2151816812295593E+01   2.3347500141105550E+00
6    1   9.1892283612246164E+00   1.3443216812295594E+01   1.6591000141105545E+00
7    2   1.8399218361224623E+01   1.7424016812295601E+01   6.5473300141105586E+00
8    1   1.8345918361224623E+01   1.8268716812295594E+01   7.0339200141105591E+00
9    1   1.9026818361224624E+01   1.6834816812295600E+01   7.0045500141105599E+00
10   2   5.7216883612246123E+00   1.6305516812295600E+01   1.0104620014110562E+01
11   1   6.2668083612246122E+00   1.5517116812295598E+01   9.8182400141105628E+00
12   1   6.2385083612246124E+00   1.6937316812295599E+01   1.0608050014110562E+01
13   2   1.1317118361224615E+01   1.1227616812295592E+01   1.5996300141105546E+00
14   1   1.1296018361224618E+01   1.0203716812295591E+01   1.7394500141105549E+00
15   1   1.1304118361224615E+01   1.1323916812295593E+01   6.1680301411055383E-01
16   2   7.8280183612246139E+00   2.2671316812295601E+01   4.2759600141105567E+00
17   1   7.1177183612246129E+00   2.2216116812295603E+01   3.7208400141105566E+00
18   1   8.3989583612246133E+00   2.2791416812295601E+01   3.4672900141105565E+00
19   2   4.3278983612246105E+00   8.5704868122955897E+00   1.9742050014110571E+01
20   1   5.3082183612246112E+00   8.2615268122955889E+00   1.9662550014110568E+01
21   1   4.0620583612246106E+00   8.0321368122955903E+00   2.0571250014110571E+01
22   2   1.7732618361224624E+01   1.5933416812295597E+01   1.9881550014110569E+01
23   1   1.8279418361224621E+01   1.5600716812295596E+01   2.0596350014110573E+01
24   1   1.6762718361224621E+01   1.5919016812295597E+01   2.0129250014110571E+01
25   2   8.8204883612246157E+00   2.0042116812295600E+01   1.5762450014110566E+01
26   1   7.9101683612246143E+00   1.9947516812295600E+01   1.6194150014110569E+01
27   1   9.2758283612246135E+00   1.9487716812295599E+01   1.6447350014110569E+01
28   2   1.1361918361224616E+01   1.2958816812295595E+01   1.5721550014110568E+01
29   1   1.0710518361224615E+01   1.3138916812295594E+01   1.6487150014110568E+01
30   1   1.1182418361224618E+01   1.2046616812295593E+01   1.5544250014110565E+01
31   2   9.0853583612246158E+00   1.8028316812295600E+01   1.3540150014110566E+01
32   1   9.0982483612246146E+00   1.8864216812295595E+01   1.4036250014110564E+01
33   1   9.8956783612246166E+00   1.8073516812295594E+01   1.3050750014110566E+01
34   2   3.3490983612246099E+00   1.3145316812295595E+01   2.1514250014110569E+01
35   1   3.9414483612246105E+00   1.3751716812295594E+01   2.2021150014110574E+01
36   1   3.6130383612246102E+00   1.3223816812295594E+01   2.0535850014110569E+01
37   2   6.4411883612246124E+00   7.5546068122955887E+00   1.2406250014110563E+01
38   1   6.4110583612246135E+00   7.3084268122955889E+00   1.1455550014110564E+01
39   1   5.9502783612246120E+00   6.8079868122955887E+00   1.2882150014110564E+01
40   2   3.1816283612246097E+00   1.3743768122955837E+00   1.8410650014110569E+01
41   1   2.7456683612246096E+00   1.9753168122955844E+00   1.7761550014110568E+01
42   1   3.3321183612246101E+00   6.4900681229558332E-01   1.7765450014110570E+01
43   2   1.1615018361224617E+01   8.3421868122955907E+00   9.3717400141105607E+00
44   1   1.1505118361224616E+01   9.2703268122955897E+00   8.9617500141105602E+00
45   1   1.1720018361224618E+01   8.5827868122955895E+00   1.0287050014110562E+01
46   2   1.6212718361224624E+01   1.6780668122955840E+00   1.1987450014110564E+01
47   1   1.6817418361224618E+01   9.2842081229558349E-01   1.2089350014110565E+01
48   1   1.6302618361224624E+01   1.6888668122955843E+00   1.0949350014110564E+01
49   2   5.7806183612246125E+00   2.3120416812295598E+01   5.7535201411055370E-01
50   1   6.0597183612246122E+00   2.2879416812295602E+01   2.1923350014110571E+01
51   1   6.1737883612246121E+00   3.7587181229558303E-01   7.5628401411055390E-01
52   2   6.9870736122460764E-01   4.4018468122955863E+00   2.0745450014110574E+01
53   1   1.0849233612246079E+00   5.0078768122955868E+00   2.1326650014110573E+01
54   1   1.1343483612246081E+00   3.5552568122955859E+00   2.0739850014110569E+01
55   2   1.2474018361224617E+01   1.8462716812295600E+01   4.2626300141105569E+00
56   1   1.2631218361224617E+01   1.9451616812295601E+01   4.1598600141105573E+00
57   1   1.1535518361224616E+01   1.8339216812295600E+01   3.8941600141105570E+00
58   2   1.4727518361224622E+01   1.1649916812295594E+01   1.2720850014110564E+01
59   1   1.4211718361224619E+01   1.2472216812295594E+01   1.2857350014110564E+01
60   1   1.4256618361224620E+01   1.1143516812295591E+01   1.1963750014110564E+01
61   2   1.8643018361224620E+01   3.1526568122955854E+00   3.3192500141105561E+00
62   1   1.8497618361224625E+01   2.1786668122955843E+00   3.1363400141105560E+00
63   1   1.8226818361224623E+01   3.7471968122955857E+00   2.7182100141105558E+00
64   2   5.9526383612246123E+00   9.9064868122955918E+00   1.3675050014110566E+01
65   1   5.8703483612246119E+00   9.1964268122955914E+00   1.2998350014110564E+01
66   1   5.6200083612246123E+00   9.5717168122955893E+00   1.4553850014110566E+01
67   2   2.0547618361224622E+01   1.4953616812295596E+01   7.4909000141105597E+00
68   1   1.9810418361224624E+01   1.4276716812295595E+01   7.7369400141105604E+00
69   1   2.0538518361224622E+01   1.4842716812295595E+01   6.5215100141105582E+00
70   2   5.6182883612246117E+00   1.0935616812295592E+01   2.1309550014110577E+01
71   1   5.1210983612246110E+00   1.0201616812295592E+01   2.0927650014110572E+01
72   1   5.0231983612246101E+00   1.1682816812295593E+01   2.1195250014110574E+01
73   2   7.3994883612246127E+00   1.6590716812295597E+01   1.6644200141105545E+00
74   1   7.4832983612246133E+00   1.5764316812295597E+01   1.1037010141105541E+00
75   1   6.4615483612246125E+00   1.6884716812295594E+01   1.5901700141105546E+00
76   2   1.6481618361224619E+01   6.8669468122955886E+00   8.1942200141105612E+00
77   1   1.6842218361224624E+01   6.6571868122955893E+00   7.3171500141105605E+00
78   1   1.6662118361224621E+01   7.9103168122955898E+00   8.3926300141105603E+00
79   2   3.8240283612246104E+00   7.4557268122955893E+00   2.2081450014110569E+01
80   1   3.9996383612246107E+00   8.2127468122955900E+00   4.4258201411055370E-01
81   1   4.3794783612246118E+00   6.7752768122955889E+00   3.0601401411055357E-01
82   2   1.8206818361224624E+01   1.8675116812295599E+01   2.2143550014110573E+01
83   1   1.9050418361224622E+01   1.8625316812295598E+01   3.1911901411055360E-01
84   1   1.7785918361224624E+01   1.7838316812295595E+01   3.0735001411055357E-01
85   2   4.7481983612246115E+00   2.2139016812295598E+01   1.2766950014110565E+01
86   1   4.8718083612246117E+00   2.1795616812295602E+01   1.1856350014110564E+01
87   1   3.9089883612246101E+00   2.2636316812295600E+01   1.2895850014110565E+01
88   2   1.5071218361224622E+01   1.5644016812295597E+01   2.1116550014110569E+01
89   1   1.5525518361224620E+01   1.5499516812295598E+01   2.1939550014110573E+01
90   1   1.4560118361224619E+01   1.4829216812295597E+01   2.0911550014110574E+01
91   2   3.5850483612246102E+00   2.0238968122955843E+00   1.4329950014110565E+01
92   1   4.5822683612246102E+00   2.0182468122955846E+00   1.4489350014110565E+01
93   1   3.3075483612246099E+00   1.7417468122955844E+00   1.3412850014110566E+01
94   2   9.3287883612246159E+00   1.0948916812295593E+01   1.7445050014110571E+01
95   1   9.1849283612246140E+00   1.0964816812295592E+01   1.6497450014110569E+01
96   1   1.0208518361224616E+01   1.0560116812295592E+01   1.7467750014110571E+01
97   2   1.6917518361224623E+01   1.6216116812295596E+01   1.2336000141105543E+00
98   1   1.7640918361224621E+01   1.5569416812295596E+01   1.1444600141105543E+00
99   1   1.6626918361224618E+01   1.6336716812295599E+01   2.2021100141105552E+00
100  2   1.3679818361224619E+01   1.7129816812295594E+01   1.1430150014110563E+01
101  1   1.3887318361224619E+01   1.7170416812295599E+01   1.0468250014110565E+01
102  1   1.4096718361224619E+01   1.7968216812295598E+01   1.1805550014110564E+01
103  2   1.3326318361224619E+01   2.0612716812295599E+01   1.9289650014110574E+01
104  1   1.3880018361224620E+01   2.1380416812295604E+01   1.9637050014110574E+01
105  1   1.3969718361224619E+01   2.0031816812295599E+01   1.8864850014110566E+01
106  2   1.3102818361224617E+01   9.7449768122955920E+00   4.8646700141105574E+00
107  1   1.3259018361224618E+01   8.7793068122955891E+00   4.8787300141105581E+00
108  1   1.2297018361224618E+01   1.0037396812295592E+01   5.2867800141105574E+00
109  2   1.3561218361224620E+01   1.0125528122955836E+00   1.7365550014110568E+01
110  1   1.4132118361224620E+01   1.2935668122955839E+00   1.6589150014110565E+01
111  1   1.3566118361224619E+01   1.3040812295582734E-02   1.7411450014110571E+01
112  2   2.5471083612246090E+00   7.7398068122955896E+00   1.1637550014110564E+01
113  1   2.9179683612246090E+00   8.1217068122955887E+00   1.2434250014110564E+01
114  1   1.6739383612246084E+00   7.2966168122955892E+00   1.1887150014110563E+01
115  2   1.1800218361224616E+01   4.8194781229558314E-01   2.1326750014110569E+01
116  1   1.2170218361224618E+01   2.3460816812295601E+01   2.1940950014110573E+01
117  1   1.0818818361224615E+01   3.7687481229558306E-01   2.1407550014110573E+01
118  2   1.7245383612246086E+00   2.0642416812295608E+01   1.5474450014110568E+01
119  1   7.5602036122460758E-01   2.0577716812295602E+01   1.5232950014110566E+01
120  1   2.0120183612246088E+00   1.9757816812295598E+01   1.5778550014110568E+01
121  2   2.1498018361224627E+01   2.3493416812295607E+01   1.3820250014110565E+01
122  1   2.1494718361224624E+01   2.2471216812295598E+01   1.3868050014110564E+01
123  1   2.1258518361224628E+01   8.0412312295582794E-02   1.2930450014110564E+01
124  2   6.7655083612246134E+00   2.2767416812295608E+01   1.4699650014110565E+01
125  1   6.0001183612246125E+00   2.2567816812295604E+01   1.4021650014110564E+01
126  1   7.6516483612246144E+00   2.2636816812295606E+01   1.4157950014110565E+01
127  2   3.3906536122460723E-01   1.0326888122955835E+00   1.6208950014110570E+01
128  1   2.2390518361224629E+01   1.6853768122955841E+00   1.6668350014110565E+01
129  1   2.2469018361224627E+01   7.4193681229558339E-01   1.5376250014110568E+01
130  2   1.9926618361224623E+01   1.0603116812295591E+01   6.2471900141105587E+00
131  1   1.9651418361224625E+01   1.0742616812295591E+01   7.1974200141105591E+00
132  1   2.0326818361224621E+01   9.7091568122955891E+00   6.2972500141105590E+00
133  2   1.4065418361224619E+01   9.6032968122955911E+00   1.0851650014110565E+01
134  1   1.4888018361224619E+01   9.4829868122955894E+00   1.0347850014110563E+01
135  1   1.3995918361224620E+01   8.8324168122955911E+00   1.1424350014110564E+01
136  2   1.9120918361224621E+01   9.2330968122955923E+00   1.4397850014110565E+01
137  1   1.9273018361224622E+01   9.3574668122955913E+00   1.5329650014110568E+01
138  1   1.8336218361224628E+01   9.7577868122955902E+00   1.4209550014110565E+01
139  2   9.2747583612246132E+00   3.3802168122955858E+00   2.1921150014110570E+01
140  1   9.7027183612246155E+00   4.2624668122955862E+00   2.1965550014110573E+01
141  1   9.9842883612246158E+00   2.9253568122955849E+00   2.1379850014110570E+01
142  2   9.0611683612246132E+00   2.2742216812295599E+01   1.2904350014110564E+01
143  1   8.4974083612246147E+00   2.2879016812295600E+01   1.2165450014110563E+01
144  1   9.7257783612246165E+00   2.2033816812295601E+01   1.2587850014110565E+01
145  2   1.5256683612246082E+00   2.1530416812295606E+01   7.1578800141105594E+00
146  1   8.7799836122460773E-01   2.2234616812295606E+01   7.2577600141105592E+00
147  1   2.3075883612246093E+00   2.2010816812295598E+01   6.8841200141105583E+00
148  2   1.6081118361224622E+01   1.6021916812295597E+01   1.6166550014110570E+01
149  1   1.6522018361224625E+01   1.5180316812295597E+01   1.6454250014110571E+01
150  1   1.5401218361224620E+01   1.5769416812295598E+01   1.5483250014110567E+01
151  2   1.7749018361224625E+01   1.3835416812295595E+01   1.7934850014110566E+01
152  1   1.7619418361224618E+01   1.2996016812295593E+01   1.8357350014110569E+01
153  1   1.7710318361224626E+01   1.4526716812295595E+01   1.8693350014110564E+01
154  2   1.0784218361224616E+01   2.0789668122955844E+00   3.1584400141105560E+00
155  1   1.0978818361224617E+01   1.9034768122955845E+00   4.0827400141105574E+00
156  1   1.0457118361224616E+01   3.0216968122955854E+00   3.1455400141105558E+00
157  2   9.4666183612246151E+00   1.3795016812295595E+01   1.8255150014110573E+01
158  1   9.2739483612246154E+00   1.2816116812295595E+01   1.8237050014110565E+01
159  1   1.0024898361224613E+01   1.3849816812295595E+01   1.9041350014110570E+01
160  2   1.6607718361224620E+01   9.5926568122955906E+00   8.3610000141105605E+00
161  1   1.7489618361224622E+01   1.0033886812295592E+01   8.5949700141105598E+00
162  1   1.6081218361224622E+01   1.0086916812295589E+01   7.6766200141105605E+00
163  2   2.4720583612246085E+00   9.5096768122955897E+00   7.5596600141105599E+00
164  1   3.3352983612246097E+00   1.0003256812295591E+01   7.6921700141105598E+00
165  1   1.8756683612246088E+00   9.8285368122955923E+00   8.2621300141105607E+00
166  2   1.3606518361224618E+01   4.4837168122955875E+00   1.9624350014110568E+01
167  1   1.4283518361224617E+01   3.7681568122955857E+00   1.9538550014110569E+01
168  1   1.2702218361224618E+01   4.1496568122955866E+00   1.9708550014110568E+01
169  2   1.1041018361224618E+01   1.7860416812295597E+01   1.1277550014110563E+01
170  1   1.1982418361224617E+01   1.7497016812295602E+01   1.1127350014110561E+01
171  1   1.0792418361224616E+01   1.8262616812295597E+01   1.0475950014110563E+01
172  2   7.0982883612246130E+00   2.3566768122955843E+00   1.2506050014110563E+01
173  1   6.3155683612246118E+00   2.7857868122955849E+00   1.2136750014110564E+01
174  1   6.9544283612246129E+00   1.4878268122955838E+00   1.2027550014110563E+01
175  2   2.2461118361224624E+01   1.7223816812295595E+01   3.7853700141105566E+00
176  1   3.8035736122460728E-01   1.6541216812295595E+01   4.1282300141105566E+00
177  1   2.2170218361224627E+01   1.7718916812295596E+01   4.5884800141105577E+00
178  2   2.1524918361224625E+01   2.3278416812295603E+01   6.0502000141105574E+00
179  1   2.2344918361224625E+01   1.9910411229558292E-01   5.7837700141105577E+00
180  1   2.1146818361224621E+01   6.2103512295582780E-02   6.8814600141105586E+00
181  2   1.1647418361224618E+01   6.9274068122955876E+00   1.9202350014110564E+01
182  1   1.1682918361224617E+01   6.7232468122955886E+00   1.8281250014110572E+01
183  1   1.2452418361224618E+01   6.5915368122955877E+00   1.9630250014110569E+01
184  2   1.2980118361224617E+01   1.5656916812295595E+01   1.8521550014110570E+01
185  1   1.2468118361224617E+01   1.6152716812295594E+01   1.7788550014110569E+01
186  1   1.3643618361224618E+01   1.6261516812295596E+01   1.8848950014110571E+01
187  2   9.4894083612246138E+00   4.1912368122955863E+00   1.7762350014110567E+01
188  1   9.4709683612246156E+00   5.0998768122955873E+00   1.7391550014110571E+01
189  1   9.2232883612246166E+00   3.6788768122955857E+00   1.6979950014110571E+01
190  2   1.0881918361224615E+01   1.3244068122955841E+00   1.2479050014110564E+01
191  1   1.0745218361224616E+01   2.0666368122955845E+00   1.3140050014110566E+01
192  1   1.0165418361224615E+01   6.0247381229558317E-01   1.2629050014110565E+01
193  2   7.4984083612246133E+00   3.3828168122955855E+00   3.9904000141105569E+00
194  1   8.1749683612246145E+00   3.8193668122955864E+00   3.4147100141105557E+00
195  1   6.8737483612246129E+00   4.0983668122955859E+00   4.1438600141105573E+00
196  2   1.4126718361224619E+01   1.5892816812295598E+01   1.4166950014110565E+01
197  1   1.3539718361224617E+01   1.5189216812295596E+01   1.3845850014110566E+01
198  1   1.4026418361224620E+01   1.6423616812295599E+01   1.3361150014110565E+01
199  2   1.4372418361224620E+01   7.0926268122955891E+00   2.0220450014110572E+01
200  1   1.4315818361224620E+01   6.0986968122955885E+00   2.0182150014110572E+01
201  1   1.5239118361224619E+01   7.2175968122955894E+00   1.9768250014110574E+01
202  2   1.5588318361224621E+01   2.2037616812295600E+01   1.5235750014110568E+01
203  1   1.5829418361224620E+01   2.2941816812295606E+01   1.5099350014110568E+01
204  1   1.4999218361224621E+01   2.2049116812295598E+01   1.5987150014110565E+01
205  2   1.4421618361224619E+01   2.1336416812295599E+01   3.5083700141105565E+00
206  1   1.4400318361224619E+01   2.1871716812295599E+01   4.3014500141105581E+00
207  1   1.3664518361224617E+01   2.1559716812295605E+01   2.9277000141105560E+00
208  2   9.1273183612246136E+00   1.5723216812295597E+01   1.5417350014110566E+01
209  1   8.8226183612246150E+00   1.6523616812295600E+01   1.4958650014110566E+01
210  1   1.0089618361224616E+01   1.5748616812295596E+01   1.5115450014110568E+01
211  2   9.6441083612246139E+00   1.7782116812295598E+01   1.7539750014110567E+01
212  1   9.3256883612246160E+00   1.7082316812295598E+01   1.6893750014110566E+01
213  1   1.0581918361224616E+01   1.7599016812295595E+01   1.7467150014110565E+01
214  2   7.1293383612246135E+00   9.3145968122955924E+00   7.9714000141105608E+00
215  1   7.4179783612246135E+00   9.2406068122955904E+00   7.0637200141105598E+00
216  1   6.3589583612246123E+00   9.9272468122955910E+00   8.0110800141105614E+00
217  2   1.7449618361224623E+01   3.8352581229558308E-01   2.6529300141105554E+00
218  1   1.7216018361224620E+01   7.3571681229558328E-01   3.4988700141105564E+00
219  1   1.6795318361224624E+01   7.8186081229558335E-01   2.0029300141105550E+00
220  2   2.7238683612246093E+00   1.3575516812295593E+01   9.1347500141105620E+00
221  1   3.0097983612246093E+00   1.4302416812295595E+01   9.7420200141105617E+00
222  1   2.2133483612246088E+00   1.2933116812295594E+01   9.6944700141105624E+00
223  2   4.9860783612246111E+00   1.2665616812295593E+01   1.5609150014110568E+01
224  1   4.9965483612246109E+00   1.1861316812295593E+01   1.6114350014110567E+01
225  1   5.9271583612246124E+00   1.2606916812295593E+01   1.5351750014110568E+01
226  2   1.1435483612246080E+00   1.3539068122955837E+00   7.7349200141105596E+00
227  1   1.5793183612246082E+00   1.6381468122955842E+00   6.9259100141105590E+00
228  1   4.3584436122460729E-01   7.9355981229558337E-01   7.3642800141105598E+00
229  2   2.0810918361224626E+01   1.1051988122955836E+00   8.5077500141105595E+00
230  1   2.0203618361224624E+01   1.8570068122955843E+00   8.6209600141105600E+00
231  1   2.0219618361224619E+01   3.4726481229558298E-01   8.7549200141105601E+00
232  2   6.5894683612246130E+00   1.1921716812295593E+01   4.0921200141105567E+00
233  1   6.3531783612246127E+00   1.1335416812295593E+01   3.4139200141105559E+00
234  1   7.1131683612246128E+00   1.2611116812295593E+01   3.5863600141105563E+00
235  2   9.0237636122460774E-01   1.0768116812295593E+01   1.6422550014110570E+01
236  1   1.4161883612246080E+00   1.0641416812295592E+01   1.7232550014110565E+01
237  1   2.2616918361224624E+01   1.0771016812295592E+01   1.6694350014110569E+01
238  2   8.2755683612246145E+00   1.8576368122955842E+00   1.6580950014110570E+01
239  1   7.6744983612246136E+00   1.9758868122955846E+00   1.5821950014110568E+01
240  1   9.2312783612246143E+00   1.6032768122955843E+00   1.6367750014110570E+01
241  2   1.1704118361224616E+01   9.4753668122955919E+00   1.7018450014110570E+01
242  1   1.2234418361224618E+01   9.6674568122955904E+00   1.7812650014110567E+01
243  1   1.2171818361224618E+01   9.7638768122955923E+00   1.6142250014110566E+01
244  2   2.0875418361224622E+01   7.6334468122955901E+00   1.7202250014110568E+01
245  1   2.1311318361224629E+01   7.7807768122955903E+00   1.6383650014110565E+01
246  1   2.0672118361224623E+01   6.6749568122955889E+00   1.7034250014110569E+01
247  2   2.0937583612246087E+00   2.3730568122955851E+00   1.1627350014110563E+01
248  1   2.2551183612246088E+00   1.6816668122955840E+00   1.0954050014110564E+01
249  1   1.1885983612246080E+00   2.7517268122955856E+00   1.1554250014110563E+01
250  2   7.2603583612246139E+00   4.2773768122955875E+00   8.8049500141105597E+00
251  1   7.4533183612246132E+00   4.0471168122955863E+00   7.8469900141105597E+00
252  1   6.7938183612246119E+00   5.1467568122955871E+00   8.7676000141105614E+00
253  2   1.3927383612246080E+00   1.9629816812295598E+01   4.1623901411055370E-01
254  1   2.0677783612246090E+00   1.9987416812295599E+01   2.2001250014110575E+01
255  1   7.1310236122460757E-01   2.0389716812295600E+01   4.3255901411055364E-01
256  2   1.5805183612246083E+00   1.5056116812295596E+01   1.8649450014110570E+01
257  1   1.3038183612246081E+00   1.4243616812295594E+01   1.8143150014110567E+01
258  1   2.5451183612246093E+00   1.4987816812295595E+01   1.8770950014110568E+01
259  2   1.9252918361224623E+01   2.1857416812295604E+01   4.9588600141105577E+00
260  1   2.0035018361224626E+01   2.2392516812295604E+01   5.2176700141105581E+00
261  1   1.8564818361224628E+01   2.2523016812295602E+01   4.9610500141105573E+00
262  2   9.5099883612246163E+00   6.7496568122955889E+00   1.3032950014110567E+01
263  1   8.5549183612246136E+00   6.9968568122955883E+00   1.3139650014110567E+01
264  1   9.4325783612246141E+00   5.9435868122955871E+00   1.2409150014110564E+01
265  2   1.8775718361224619E+01   1.8512116812295595E+01   1.1178550014110563E+01
266  1   1.9375018361224623E+01   1.7842316812295600E+01   1.0824850014110563E+01
267  1   1.8301818361224623E+01   1.8175016812295599E+01   1.1968450014110564E+01
268  2   2.0758818361224623E+01   1.6814216812295598E+01   9.5641100141105628E+00
269  1   2.1492818361224625E+01   1.6432216812295600E+01   1.0074140014110561E+01
270  1   2.0737418361224623E+01   1.6298516812295595E+01   8.7849400141105605E+00
271  2   9.0843183612246161E+00   1.4295916812295594E+01   2.2017750014110572E+01
272  1   9.8806483612246154E+00   1.4254216812295596E+01   2.1449850014110570E+01
273  1   8.2492183612246137E+00   1.4102616812295595E+01   2.1457750014110569E+01
274  2   1.6252683612246084E+00   2.2325916812295599E+01   1.0071610014110561E+01
275  1   1.8163983612246084E+00   2.1904516812295604E+01   9.2056800141105608E+00
276  1   2.1963983612246087E+00   2.3161816812295601E+01   1.0022530014110561E+01
277  2   1.9690018361224627E+01   1.5367316812295597E+01   2.2023250014110573E+01
278  1   1.9792918361224626E+01   1.6162216812295597E+01   3.6804301411055362E-01
279  1   2.0360218361224621E+01   1.4874616812295598E+01   1.7995231411055346E-01
280  2   2.0582018361224623E+01   1.2211516812295594E+01   2.0851150014110569E+01
281  1   2.0381118361224626E+01   1.1261816812295594E+01   2.0826950014110572E+01
282  1   2.0674818361224627E+01   1.2419816812295593E+01   2.1734650014110574E+01
283  2   1.5688818361224621E+01   1.1403716812295594E+01   1.9054550014110571E+01
284  1   1.6024118361224623E+01   1.0872816812295591E+01   1.8344950014110569E+01
285  1   1.4931218361224621E+01   1.1950816812295594E+01   1.8644050014110572E+01
286  2   1.0725583612246079E+00   6.3569368122955883E+00   3.0266401411055360E-01
287  1   4.6673736122460735E-01   7.0986268122955893E+00   2.2192650014110576E+01
288  1   1.9070783612246087E+00   6.8754168122955877E+00   3.7071301411055363E-01
289  2   4.7548083612246117E+00   2.1465716812295604E+01   7.0663800141105595E+00
290  1   4.3146783612246118E+00   2.1161816812295601E+01   6.2923200141105582E+00
291  1   5.6301983612246120E+00   2.1084816812295603E+01   7.0544500141105599E+00
292  2   1.3509118361224619E+01   4.8757368122955871E+00   1.6648950014110568E+01
293  1   1.4180418361224620E+01   4.1934568122955866E+00   1.6293850014110568E+01
294  1   1.3492318361224619E+01   4.7198868122955870E+00   1.7573650014110569E+01
295  2   1.9289718361224622E+01   1.0733116812295593E+01   9.1081600141105614E+00
296  1   1.9808118361224626E+01   1.0005626812295592E+01   9.5612800141105616E+00
297  1   1.9248918361224618E+01   1.1572916812295592E+01   9.6944600141105628E+00
298  2   2.1876818361224625E+01   3.9526081229558307E-01   1.0871450014110563E+01
299  1   2.1553418361224626E+01   6.8666181229558332E-01   9.9923100141105614E+00
300  1   2.2626618361224629E+01   2.3447416812295607E+01   1.0608250014110563E+01
301  2   9.8606183612246152E+00   6.6352668122955887E+00   1.6612050014110565E+01
302  1   9.5310983612246165E+00   7.5706868122955902E+00   1.6474650014110566E+01
303  1   1.0524818361224618E+01   6.5101368122955892E+00   1.5946350014110568E+01
304  2   1.2186518361224618E+01   1.3789916812295596E+01   8.7496700141105599E+00
305  1   1.1890718361224618E+01   1.2891816812295593E+01   8.4995700141105619E+00
306  1   1.1614018361224618E+01   1.4372516812295595E+01   8.2094300141105609E+00
307  2   1.9512018361224623E+01   9.5948968122955911E+00   2.1519650014110574E+01
308  1   1.8609418361224620E+01   9.2378768122955890E+00   2.1589650014110575E+01
309  1   1.9834518361224628E+01   9.3800568122955905E+00   1.5962161411055339E-01
310  2   1.8450418361224624E+01   1.3554216812295595E+01   1.4053150014110566E+01
311  1   1.7896118361224623E+01   1.4209516812295595E+01   1.4480050014110565E+01
312  1   1.9045218361224620E+01   1.4116116812295594E+01   1.3480350014110565E+01
313  2   5.9608036122460750E-01   3.0962568122955854E+00   4.0104500141105568E+00
314  1   5.0918536122460734E-01   2.6044668122955850E+00   3.1592400141105559E+00
315  1   3.2660836122460718E-01   3.9779868122955859E+00   3.6244600141105563E+00
316  2   1.6709218361224622E+01   7.5030268122955892E+00   1.9032650014110569E+01
317  1   1.7344118361224623E+01   6.8040368122955890E+00   1.9414250014110568E+01
318  1   1.7245318361224619E+01   8.3102568122955898E+00   1.8926950014110570E+01
319  2   4.0470283612246103E+00   7.2508468122955891E+00   8.1440200141105610E+00
320  1   3.6216883612246100E+00   6.4829968122955890E+00   8.5846100141105612E+00
321  1   3.3669983612246099E+00   7.9566968122955890E+00   8.0139600141105607E+00
322  2   1.1552318361224618E+01   2.2031116812295608E+01   4.7262300141105573E+00
323  1   1.1247918361224617E+01   2.2941516812295600E+01   4.8992000141105576E+00
324  1   1.0996918361224616E+01   2.1524116812295599E+01   5.3949600141105583E+00
325  2   1.1565818361224618E+01   3.0461968122955856E+00   6.5562400141105588E+00
326  1   1.1633318361224617E+01   2.1371568122955846E+00   6.8306200141105595E+00
327  1   1.2214518361224616E+01   3.2326968122955853E+00   5.8648800141105584E+00
328  2   1.9688783612246086E+00   3.2526968122955853E+00   1.6120850014110566E+01
329  1   2.5916283612246094E+00   3.0423368122955852E+00   1.5306050014110566E+01
330  1   1.4524983612246081E+00   2.3877468122955845E+00   1.6220950014110571E+01
331  2   7.6774983612246137E+00   7.9097668122955902E+00   2.4107900141105549E+00
332  1   7.4992283612246133E+00   6.9473868122955889E+00   2.2584400141105556E+00
333  1   6.7466083612246122E+00   8.2655268122955903E+00   2.3244700141105552E+00
334  2   1.2130318361224617E+01   1.7223616812295596E+01   1.5700650014110568E+01
335  1   1.2407018361224617E+01   1.8112016812295600E+01   1.5365250014110568E+01
336  1   1.2742518361224617E+01   1.6577616812295595E+01   1.5263350014110568E+01
337  2   1.7728718361224622E+01   2.2896216812295606E+01   1.2365950014110563E+01
338  1   1.7984818361224619E+01   2.2452816812295598E+01   1.3213050014110564E+01
339  1   1.8595118361224621E+01   2.2969216812295606E+01   1.1892750014110565E+01
340  2   1.5281918361224621E+01   1.6689116812295595E+01   3.5126800141105563E+00
341  1   1.4492318361224619E+01   1.6669216812295595E+01   2.9194400141105561E+00
342  1   1.5646618361224620E+01   1.7600516812295599E+01   3.6025000141105563E+00
343  2   4.2794683612246107E+00   1.4200416812295595E+01   1.8525450014110568E+01
344  1   4.8127283612246110E+00   1.4764216812295595E+01   1.7954950014110565E+01
345  1   4.1127983612246108E+00   1.3370716812295594E+01   1.8049050014110570E+01
346  2   1.8236918361224628E+01   4.0448668122955862E+00   1.2482750014110565E+01
347  1   1.7464118361224621E+01   3.4157768122955861E+00   1.2577050014110563E+01
348  1   1.8888418361224623E+01   3.9472868122955864E+00   1.3187850014110564E+01
349  2   1.5210083612246084E+00   2.0760116812295603E+01   1.8568050014110568E+01
350  1   9.3233636122460772E-01   2.1579116812295599E+01   1.8623250014110567E+01
351  1   1.8655283612246085E+00   2.0705116812295607E+01   1.7674350014110569E+01
352  2   9.6988983612246145E+00   2.3227116812295606E+01   2.1607600141105552E+00
353  1   1.0575218361224616E+01   2.2801816812295606E+01   2.1157200141105550E+00
354  1   9.6457883612246160E+00   5.8366581229558323E-01   2.5761700141105557E+00
355  2   1.2286583612246080E+00   1.2357416812295593E+01   1.1163150014110563E+01
356  1   1.9847783612246088E+00   1.2235016812295594E+01   1.1737750014110564E+01
357  1   4.3310836122460727E-01   1.2623516812295593E+01   1.1706550014110563E+01
358  2   5.7105283612246112E+00   5.5146568122955868E+00   7.4986001411055381E-01
359  1   5.1383683612246109E+00   5.0091168122955869E+00   1.2348700141105544E+00
360  1   5.9350183612246123E+00   5.1514468122955872E+00   2.2081450014110569E+01
361  2   1.6902636122460707E-01   8.6971668122955901E+00   2.1557650014110568E+01
362  1   3.4063136122460719E-01   8.7598168122955897E+00   2.0593550014110573E+01
363  1   2.1925618361224629E+01   8.9990868122955909E+00   2.1607650014110572E+01