info: xyz2data 11:52, Tue 28-02-2017
129 atoms
2  atom types

   0.00000000  17.04000000 xlo xhi
   0.00000000  19.67609717 ylo yhi
 -10.00000000  40.00000000 zlo zhi

Atoms

  1 1   0.00000000   0.00000000   0.00000000
  2 1   1.42000000   0.00000000   0.00000000
  3 1   2.13000000   1.22975607   0.00000000
  4 1   3.55000000   1.22975607   0.00000000
  5 1   0.00000000   2.45951215   0.00000000
  6 1   1.42000000   2.45951215   0.00000000
  7 1   2.13000000   3.68926822   0.00000000
  8 1   3.55000000   3.68926822   0.00000000
  9 1   0.00000000   4.91902429   0.00000000
 10 1   1.42000000   4.91902429   0.00000000
 11 1   2.13000000   6.14878037   0.00000000
 12 1   3.55000000   6.14878037   0.00000000
 13 1   0.00000000   7.37853644   0.00000000
 14 1   1.42000000   7.37853644   0.00000000
 15 1   2.13000000   8.60829251   0.00000000
 16 1   3.55000000   8.60829251   0.00000000
 17 1   0.00000000   9.83804859   0.00000000
 18 1   1.42000000   9.83804859   0.00000000
 19 1   2.13000000  11.06780466   0.00000000
 20 1   3.55000000  11.06780466   0.00000000
 21 1   0.00000000  12.29756073   0.00000000
 22 1   1.42000000  12.29756073   0.00000000
 23 1   2.13000000  13.52731681   0.00000000
 24 1   3.55000000  13.52731681   0.00000000
 25 1   0.00000000  14.75707288   0.00000000
 26 1   1.42000000  14.75707288   0.00000000
 27 1   2.13000000  15.98682895   0.00000000
 28 1   3.55000000  15.98682895   0.00000000
 29 1   0.00000000  17.21658503   0.00000000
 30 1   1.42000000  17.21658503   0.00000000
 31 1   2.13000000  18.44634110   0.00000000
 32 1   3.55000000  18.44634110   0.00000000
 33 1   4.26000000   0.00000000   0.00000000
 34 1   5.68000000   0.00000000   0.00000000
 35 1   6.39000000   1.22975607   0.00000000
 36 1   7.81000000   1.22975607   0.00000000
 37 1   4.26000000   2.45951215   0.00000000
 38 1   5.68000000   2.45951215   0.00000000
 39 1   6.39000000   3.68926822   0.00000000
 40 1   7.81000000   3.68926822   0.00000000
 41 1   4.26000000   4.91902429   0.00000000
 42 1   5.68000000   4.91902429   0.00000000
 43 1   6.39000000   6.14878037   0.00000000
 44 1   7.81000000   6.14878037   0.00000000
 45 1   4.26000000   7.37853644   0.00000000
 46 1   5.68000000   7.37853644   0.00000000
 47 1   6.39000000   8.60829251   0.00000000
 48 1   7.81000000   8.60829251   0.00000000
 49 1   4.26000000   9.83804859   0.00000000
 50 1   5.68000000   9.83804859   0.00000000
 51 1   6.39000000  11.06780466   0.00000000
 52 1   7.81000000  11.06780466   0.00000000
 53 1   4.26000000  12.29756073   0.00000000
 54 1   5.68000000  12.29756073   0.00000000
 55 1   6.39000000  13.52731681   0.00000000
 56 1   7.81000000  13.52731681   0.00000000
 57 1   4.26000000  14.75707288   0.00000000
 58 1   5.68000000  14.75707288   0.00000000
 59 1   6.39000000  15.98682895   0.00000000
 60 1   7.81000000  15.98682895   0.00000000
 61 1   4.26000000  17.21658503   0.00000000
 62 1   5.68000000  17.21658503   0.00000000
 63 1   6.39000000  18.44634110   0.00000000
 64 1   7.81000000  18.44634110   0.00000000
 65 1   8.52000000   0.00000000   0.00000000
 66 1   9.94000000   0.00000000   0.00000000
 67 1  10.65000000   1.22975607   0.00000000
 68 1  12.07000000   1.22975607   0.00000000
 69 1   8.52000000   2.45951215   0.00000000
 70 1   9.94000000   2.45951215   0.00000000
 71 1  10.65000000   3.68926822   0.00000000
 72 1  12.07000000   3.68926822   0.00000000
 73 1   8.52000000   4.91902429   0.00000000
 74 1   9.94000000   4.91902429   0.00000000
 75 1  10.65000000   6.14878037   0.00000000
 76 1  12.07000000   6.14878037   0.00000000
 77 1   8.52000000   7.37853644   0.00000000
 78 1   9.94000000   7.37853644   0.00000000
 79 1  10.65000000   8.60829251   0.00000000
 80 1  12.07000000   8.60829251   0.00000000
 81 1   8.52000000   9.83804859   0.00000000
 82 1   9.94000000   9.83804859   0.00000000
 83 1  10.65000000  11.06780466   0.00000000
 84 1  12.07000000  11.06780466   0.00000000
 85 1   8.52000000  12.29756073   0.00000000
 86 1   9.94000000  12.29756073   0.00000000
 87 1  10.65000000  13.52731681   0.00000000
 88 1  12.07000000  13.52731681   0.00000000
 89 1   8.52000000  14.75707288   0.00000000
 90 1   9.94000000  14.75707288   0.00000000
 91 1  10.65000000  15.98682895   0.00000000
 92 1  12.07000000  15.98682895   0.00000000
 93 1   8.52000000  17.21658503   0.00000000
 94 1   9.94000000  17.21658503   0.00000000
 95 1  10.65000000  18.44634110   0.00000000
 96 1  12.07000000  18.44634110   0.00000000
 97 1  12.78000000   0.00000000   0.00000000
 98 1  14.20000000   0.00000000   0.00000000
 99 1  14.91000000   1.22975607   0.00000000
100 1  16.33000000   1.22975607   0.00000000
101 1  12.78000000   2.45951215   0.00000000
102 1  14.20000000   2.45951215   0.00000000
103 1  14.91000000   3.68926822   0.00000000
104 1  16.33000000   3.68926822   0.00000000
105 1  12.78000000   4.91902429   0.00000000
106 1  14.20000000   4.91902429   0.00000000
107 1  14.91000000   6.14878037   0.00000000
108 1  16.33000000   6.14878037   0.00000000
109 1  12.78000000   7.37853644   0.00000000
110 1  14.20000000   7.37853644   0.00000000
111 1  14.91000000   8.60829251   0.00000000
112 1  16.33000000   8.60829251   0.00000000
113 1  12.78000000   9.83804859   0.00000000
114 1  14.20000000   9.83804859   0.00000000
115 1  14.91000000  11.06780466   0.00000000
116 1  16.33000000  11.06780466   0.00000000
117 1  12.78000000  12.29756073   0.00000000
118 1  14.20000000  12.29756073   0.00000000
119 1  14.91000000  13.52731681   0.00000000
120 1  16.33000000  13.52731681   0.00000000
121 1  12.78000000  14.75707288   0.00000000
122 1  14.20000000  14.75707288   0.00000000
123 1  14.91000000  15.98682895   0.00000000
124 1  16.33000000  15.98682895   0.00000000
125 1  12.78000000  17.21658503   0.00000000
126 1  14.20000000  17.21658503   0.00000000
127 1  14.91000000  18.44634110   0.00000000
128 1  16.33000000  18.44634110   0.00000000
129 2  10.00000000  10.00000000   3.30000000
