128
 Atoms. Timestep: 0
2 -2.93785 -4.45926 -4.81092
2 5.62221 -2.7335 -1.71576
2 -2.66146 -5.54311 1.63537
2 -5.43268 -4.61746 5.94523
2 5.86792 -0.112054 -3.58394
2 -3.71746 -0.662331 -0.371479
2 -5.07247 -2.56716 4.41035
2 -3.39514 0.934113 4.93107
2 -5.43476 1.95238 -5.61809
2 -4.58847 2.29045 -1.05977
2 -5.90587 0.621241 2.01276
2 -4.76807 0.196574 4.32678
2 -5.42289 5.25697 -4.51629
2 -5.2684 -5.91937 -2.86487
2 -2.86109 1.04847 2.02991
2 -4.07111 5.3133 3.80095
2 -0.194715 -4.16777 -5.69509
2 -2.98927 -3.16474 -1.61739
2 -0.912931 -4.38191 -0.160186
2 -2.45137 -5.24665 4.88829
2 -2.888 -0.163345 -3.34011
1 -4.67388 -1.38073 -2.29468
2 -0.697395 -1.48853 0.600516
1 -2.73922 -2.47748 0.238719
2 -2.65513 -2.723 2.63503
1 -3.46443 -4.60281 3.38178
2 0.722761 -2.07094 2.92147
1 -2.10006 -3.21313 5.72734
2 -3.10576 2.32048 -2.27256
1 -2.22988 0.716839 -1.31072
2 -1.86983 1.40068 0.726511
1 -4.11034 -0.709334 1.93418
2 -0.350558 3.27072 -0.288066
1 -3.40454 -1.4384 4.39035
2 -3.09405 1.41325 -5.36355
1 -4.45607 1.20729 -3.73102
2 -2.6061 4.63735 -4.69039
1 -3.34774 4.67681 -2.62847
2 0.81217 4.86024 -4.67109
1 -2.57569 3.37407 -0.213635
2 -0.386798 5.87456 -2.11199
1 -1.67662 1.33743 3.87415
2 -0.877061 3.37359 4.3847
1 -1.86093 3.31582 -5.97866
1 -5.27323 -4.60733 -0.958175
1 -2.78887 -5.69102 -0.792202
1 -2.47172 4.58019 2.50832
1 -3.88199 5.84566 -5.75634
2 2.23148 -2.77292 -5.23569
2 0.298198 -3.13853 -3.16082
2 2.88108 -3.46587 -0.58232
2 0.250962 -5.75952 2.73898
2 -0.293412 -0.802943 -3.36985
1 -1.00757 -2.04819 -1.94193
2 2.07291 1.49224 -2.38981
1 1.11109 -3.20042 0.949108
2 1.67743 -0.790186 2.51588
1 -0.83423 -4.33425 2.09715
2 3.27474 -1.31079 4.78847
1 1.71262 -3.36915 4.5581
2 0.47706 1.7769 -5.33399
1 0.294439 0.589278 -2.20301
2 2.20393 3.15576 -2.02768
1 -0.0404494 0.476782 1.03964
2 1.13959 2.37634 2.3481
1 -0.973837 -1.63252 3.75386
2 -0.3292 0.299699 5.27708
1 -1.61856 -0.396427 -5.17712
2 2.59999 -5.19777 5.82307
1 -1.62707 2.32109 -3.62999
2 3.65327 4.92826 -5.43193
1 0.0788934 4.0241 -2.50115
2 2.85565 2.61687 2.11255
1 0.973899 2.62554 4.34121
2 3.74529 3.45214 4.59464
1 2.08052 4.7039 5.32803
1 -1.03242 -5.8155 -4.32658
1 0.762244 -4.36316 -1.31566
1 0.326368 3.99374 1.61723
1 -0.435011 -5.79971 4.59591
2 3.91611 -4.60528 -3.31917
2 1.92407 5.73451 -1.97543
2 -5.97945 -4.23694 1.86465
2 4.334 -4.48452 5.37374
2 2.27555 -0.632774 -5.79318
1 1.87282 -1.55049 -3.456
2 3.45581 -1.10541 -1.83331
1 4.37882 -1.94665 -0.328464
2 2.59992 -3.7549 2.57406
1 3.99839 -4.48566 1.19687
2 -5.72956 -2.14757 -5.99636
1 4.26641 -2.6989 -5.80055
2 4.52547 2.29068 -3.47658
1 2.36031 1.34164 -4.41738
2 4.77671 1.40612 -0.752462
1 1.80727 -0.783597 -0.458199
2 4.4745 0.373622 2.10683
1 3.60812 -1.73157 2.40191
2 4.62814 -0.286541 4.47565
1 1.79752 0.289353 4.23308
2 5.83415 4.49865 -5.96645
1 3.24013 4.16552 -3.507
2 4.87203 4.871 -2.33644
1 3.55265 1.22628 0.692683
2 -5.81733 4.54205 1.55789
1 3.96832 1.54411 3.82844
2 -5.53493 1.9067 3.75041
1 4.47286 2.64156 -5.59528
1 1.70009 -4.81154 -4.19539
1 1.72215 4.18784 -0.371268
1 3.92182 4.59356 1.32634
1 3.13102 -5.89225 3.60012
1 4.75587 -2.28778 -3.47421
1 -5.50503 -2.70274 0.874887
1 5.84186 -4.60644 3.87141
1 -4.75169 -3.1692 -4.40998
1 3.9405 0.71887 -2.28988
1 -5.68697 0.204238 -0.191674
1 5.89496 -1.24226 3.12013
1 5.96758 -0.0712572 5.8964
1 -5.62085 3.36 -2.94935
1 5.20653 3.45179 -0.380089
1 -4.69945 2.54896 1.82974
1 -4.07584 3.07262 5.0648
1 4.15876 -5.08968 -1.14435
1 -4.69638 -5.74298 1.13578
1 5.59942 4.6887 3.59483
1 5.09884 -5.37744 -4.90513
