LAMMPS (27 Nov 2018)
  using 1 OpenMP thread(s) per MPI task
# 3d metal shear simulation

units		metal
boundary	s s p

atom_style	atomic
lattice		fcc 3.52
Lattice spacing in x,y,z = 3.52 3.52 3.52
region		box block 0 16.0 0 10.0 0 2.828427
create_box	3 box
Created orthogonal box = (0 0 0) to (56.32 35.2 9.95606)
  1 by 1 by 1 MPI processor grid

lattice		fcc 3.52 orient	x 1 0 0 orient y 0 1 1 orient z 0 -1 1 		origin 0.5 0 0
Lattice spacing in x,y,z = 3.52 4.97803 4.97803
create_atoms	1 box
Created 1912 atoms
  Time spent = 0.0007267 secs

pair_style	meam
WARNING: THE pair_style meam COMMAND IS OBSOLETE AND WILL BE REMOVED VERY SOON. PLEASE USE meam/c (src/MEAM/pair_meam.cpp:51)
pair_coeff	* * library.meam Ni4 Ni.meam Ni4 Ni4 Ni4
Reading potential file library.meam with DATE: 2012-06-29
Reading potential file Ni.meam with DATE: 2007-06-11

neighbor	0.3 bin
neigh_modify	delay 5

region		lower block INF INF INF 0.9 INF INF
region		upper block INF INF 6.1 INF INF INF
group		lower region lower
264 atoms in group lower
group		upper region upper
264 atoms in group upper
group		boundary union lower upper
528 atoms in group boundary
group		mobile subtract all boundary
1384 atoms in group mobile

set		group lower type 2
  264 settings made for type
set		group upper type 3
  264 settings made for type

# void

#region		void cylinder z 8 5 2.5 INF INF
#delete_atoms	region void

# temp controllers

compute		new3d mobile temp
compute		new2d mobile temp/partial 0 1 1

# equilibrate

velocity	mobile create 300.0 5812775 temp new3d
fix		1 all nve
fix		2 boundary setforce 0.0 0.0 0.0

fix		3 mobile temp/rescale 10 300.0 300.0 10.0 1.0
fix_modify	3 temp new3d

thermo		25
thermo_modify	temp new3d
WARNING: Temperature for thermo pressure is not for group all (src/thermo.cpp:488)

timestep	0.001
run		100
Neighbor list info ...
  update every 1 steps, delay 5 steps, check yes
  max neighbors/atom: 2000, page size: 100000
  master list distance cutoff = 4.3
  ghost atom cutoff = 4.3
  binsize = 2.15, bins = 27 17 5
  2 neighbor lists, perpetual/occasional/extra = 2 0 0
  (1) pair meam, perpetual
      attributes: full, newton on
      pair build: full/bin/atomonly
      stencil: full/bin/3d
      bin: standard
  (2) pair meam, perpetual, half/full from (1)
      attributes: half, newton on
      pair build: halffull/newton
      stencil: none
      bin: none
Per MPI rank memory allocation (min/avg/max) = 9.788 | 9.788 | 9.788 Mbytes
Step Temp E_pair E_mol TotEng Press Volume 
       0          300   -8232.7767            0   -8179.1466    1386.6643     19547.02 
      25    222.78953   -8188.1215            0   -8148.2941    9095.9008     19547.02 
      50          300   -8149.7654            0   -8096.1353    10633.141    19684.382 
      75    304.80657   -8163.4557            0   -8108.9665     7045.457    19759.745 
     100          300   -8173.6884            0   -8120.0584     5952.521    19886.589 
Loop time of 0.894544 on 1 procs for 100 steps with 1912 atoms

Performance: 9.659 ns/day, 2.485 hours/ns, 111.789 timesteps/s
99.4% CPU use with 1 MPI tasks x 1 OpenMP threads

MPI task timing breakdown:
Section |  min time  |  avg time  |  max time  |%varavg| %total
---------------------------------------------------------------
Pair    | 0.87012    | 0.87012    | 0.87012    |   0.0 | 97.27
Neigh   | 0.01798    | 0.01798    | 0.01798    |   0.0 |  2.01
Comm    | 0.0016143  | 0.0016143  | 0.0016143  |   0.0 |  0.18
Output  | 0.00011492 | 0.00011492 | 0.00011492 |   0.0 |  0.01
Modify  | 0.0035381  | 0.0035381  | 0.0035381  |   0.0 |  0.40
Other   |            | 0.001176   |            |       |  0.13

Nlocal:    1912 ave 1912 max 1912 min
Histogram: 1 0 0 0 0 0 0 0 0 0
Nghost:    1672 ave 1672 max 1672 min
Histogram: 1 0 0 0 0 0 0 0 0 0
Neighs:    23806 ave 23806 max 23806 min
Histogram: 1 0 0 0 0 0 0 0 0 0
FullNghs:  47612 ave 47612 max 47612 min
Histogram: 1 0 0 0 0 0 0 0 0 0

Total # of neighbors = 47612
Ave neighs/atom = 24.9017
Neighbor list builds = 5
Dangerous builds = 0

# shear

velocity	upper set 1.0 0 0
velocity	mobile ramp vx 0.0 1.0 y 1.4 8.6 sum yes

unfix		3
fix		3 mobile temp/rescale 10 300.0 300.0 10.0 1.0
fix_modify	3 temp new2d

#dump		1 all atom 500 dump.meam.shear

#dump		2 all image 100 image.*.jpg type type #		axes yes 0.8 0.02 view 0 0 zoom 1.5 up 0 1 0 adiam 2.0
#dump_modify	2 pad 4

#dump		3 all movie 100 movie.mpg type type #		axes yes 0.8 0.02 view 0 0 zoom 1.5 up 0 1 0 adiam 2.0
#dump_modify	3 pad 4

thermo		100
thermo_modify	temp new2d
WARNING: Temperature for thermo pressure is not for group all (src/thermo.cpp:488)

reset_timestep	0
run		3000
Per MPI rank memory allocation (min/avg/max) = 9.964 | 9.964 | 9.964 Mbytes
Step Temp E_pair E_mol TotEng Press Volume 
       0    300.39988   -8173.6884            0   -8137.8874    4992.9811    19894.297 
     100    292.06374   -8177.7096            0   -8142.9021    2568.3762     19871.53 
     200    306.69894   -8177.1357            0    -8140.584    874.24259     20047.24 
     300    295.68229   -8172.9213            0   -8137.6825   -1049.0836    20091.759 
     400    308.99958   -8169.6355            0   -8132.8096   -1785.9335    20121.698 
     500    303.85723    -8163.984            0   -8127.7709   -150.56268    20183.813 
     600          300   -8157.7632            0   -8122.0099    1492.5742    20279.887 
     700          300   -8148.1328            0   -8112.3794    3506.9234    20435.302 
     800          300   -8139.1821            0   -8103.4288    3628.3957    20509.519 
     900    305.03425   -8126.7734            0   -8090.4201    5316.2206    20638.992 
    1000    304.00321   -8112.1616            0   -8075.9311    7441.9638    20767.243 
    1100    304.14041   -8096.5041            0   -8060.2573    9646.6972    20888.167 
    1200    302.78454   -8080.5931            0   -8044.5079    11516.208    20995.917 
    1300    308.67064   -8061.6724            0   -8024.8857    11496.471    21130.013 
    1400    309.82994     -8046.27            0   -8009.3451    12926.819    21247.271 
    1500          300   -8035.0317            0   -7999.2784    15346.797    21370.637 
    1600          300   -8030.6636            0   -7994.9102     14803.43    21496.446 
    1700          300   -8024.4819            0   -7988.7286    13175.257    21611.262 
    1800          300   -8022.8531            0   -7987.0998     10315.63    21743.178 
    1900          300   -8028.4095            0   -7992.6561    6882.0635    21855.551 
    2000          300   -8036.9005            0   -8001.1472    3508.9237    21983.802 
    2100          300   -8037.8224            0   -8002.0691    2724.0594    22112.054 
    2200    306.93248   -8035.3297            0   -7998.7501    4400.6008    22228.091 
    2300    306.24125    -8036.748            0   -8000.2508    6075.0546    22352.678 
    2400          300   -8038.8534            0      -8003.1    8701.8498    22465.051 
    2500    308.34129   -8034.0796            0   -7997.3322     10977.68    22600.632 
    2600    299.70072   -8028.8815            0   -7993.1638     15468.97    22715.447 
    2700    298.78276   -8019.1655            0   -7983.5572    18076.132    22844.921 
    2800    305.57845   -8014.3542            0    -7977.936    17573.035    22962.179 
    2900          300   -8015.7677            0   -7980.0144    13461.463    23087.988 
    3000          300   -8010.5908            0   -7974.8375    9333.4855    23199.139 
Loop time of 29.4592 on 1 procs for 3000 steps with 1912 atoms

Performance: 8.799 ns/day, 2.728 hours/ns, 101.836 timesteps/s
99.8% CPU use with 1 MPI tasks x 1 OpenMP threads

MPI task timing breakdown:
Section |  min time  |  avg time  |  max time  |%varavg| %total
---------------------------------------------------------------
Pair    | 28.489     | 28.489     | 28.489     |   0.0 | 96.71
Neigh   | 0.77356    | 0.77356    | 0.77356    |   0.0 |  2.63
Comm    | 0.052517   | 0.052517   | 0.052517   |   0.0 |  0.18
Output  | 0.00095224 | 0.00095224 | 0.00095224 |   0.0 |  0.00
Modify  | 0.10813    | 0.10813    | 0.10813    |   0.0 |  0.37
Other   |            | 0.03525    |            |       |  0.12

Nlocal:    1912 ave 1912 max 1912 min
Histogram: 1 0 0 0 0 0 0 0 0 0
Nghost:    1668 ave 1668 max 1668 min
Histogram: 1 0 0 0 0 0 0 0 0 0
Neighs:    23391 ave 23391 max 23391 min
Histogram: 1 0 0 0 0 0 0 0 0 0
FullNghs:  46782 ave 46782 max 46782 min
Histogram: 1 0 0 0 0 0 0 0 0 0

Total # of neighbors = 46782
Ave neighs/atom = 24.4676
Neighbor list builds = 219
Dangerous builds = 0
Total wall time: 0:00:30
