LAMMPS (19 May 2017)
  using 1 OpenMP thread(s) per MPI task
# Test of MEAM potential for SiC system

units		metal
boundary	p p p

atom_style	atomic

read_data	data.meam
  orthogonal box = (-6 -6 -6) to (5.97232 5.97232 5.97232)
  1 by 2 by 2 MPI processor grid
  reading atoms ...
  128 atoms

pair_style	meam
pair_coeff	* * library.meam Si C SiC.meam Si C
Reading potential file library.meam with DATE: 2012-06-29
Reading potential file SiC.meam with DATE: 2007-06-11

neighbor	0.3 bin
neigh_modify	delay 10

fix		1 all nve
thermo		10
timestep	0.001

#dump		1 all atom 50 dump.meam

#dump		2 all image 10 image.*.jpg element element #		axes yes 0.8 0.02 view 60 -30
#dump_modify	2 pad 3 element Si C

#dump		3 all movie 10 movie.mpg element element #		axes yes 0.8 0.02 view 60 -30
#dump_modify	3 pad 3 element Si C

run		100
Neighbor list info ...
  update every 1 steps, delay 10 steps, check yes
  max neighbors/atom: 2000, page size: 100000
  master list distance cutoff = 4.3
  ghost atom cutoff = 4.3
  binsize = 2.15, bins = 6 6 6
  2 neighbor lists, perpetual/occasional/extra = 2 0 0
  (1) pair meam, perpetual
      attributes: full, newton on
      pair build: full/bin/atomonly
      stencil: full/bin/3d
      bin: standard
  (2) pair meam, perpetual, half/full from (1)
      attributes: half, newton on
      pair build: halffull/newton
      stencil: none
      bin: none
Per MPI rank memory allocation (min/avg/max) = 8.024 | 8.026 | 8.027 Mbytes
Step Temp E_pair E_mol TotEng Press 
       0            0   -636.38121            0   -636.38121   -76571.819 
      10    1807.8862   -666.21959            0   -636.54126   -150571.49 
      20    1932.4467    -668.2581            0   -636.53498   -120223.52 
      30    1951.3652   -668.58139            0   -636.54771    -100508.4 
      40    2172.5974   -672.22715            0    -636.5617   -110753.34 
      50    2056.9149   -670.33108            0   -636.56468   -105418.07 
      60    1947.9564   -668.52788            0   -636.55015   -111413.04 
      70    1994.7712   -669.28849            0   -636.54225   -109645.76 
      80    2126.0903   -671.43755            0   -636.53557   -97475.831 
      90     2065.755    -670.4349            0   -636.52338   -95858.837 
     100    2051.4553   -670.20799            0   -636.53122    -107068.9 
Loop time of 0.0389078 on 4 procs for 100 steps with 128 atoms

Performance: 222.063 ns/day, 0.108 hours/ns, 2570.177 timesteps/s
99.4% CPU use with 4 MPI tasks x 1 OpenMP threads

MPI task timing breakdown:
Section |  min time  |  avg time  |  max time  |%varavg| %total
---------------------------------------------------------------
Pair    | 0.031958   | 0.033267   | 0.034691   |   0.6 | 85.50
Neigh   | 0.00079155 | 0.00086409 | 0.00098801 |   0.0 |  2.22
Comm    | 0.0025704  | 0.0041765  | 0.005573   |   1.9 | 10.73
Output  | 0.0002749  | 0.00029588 | 0.00033569 |   0.0 |  0.76
Modify  | 9.4891e-05 | 0.00010347 | 0.00011587 |   0.0 |  0.27
Other   |            | 0.000201   |            |       |  0.52

Nlocal:    32 ave 36 max 30 min
Histogram: 1 2 0 0 0 0 0 0 0 1
Nghost:    293.75 ave 305 max 285 min
Histogram: 2 0 0 0 0 0 0 1 0 1
Neighs:    381.5 ave 413 max 334 min
Histogram: 1 0 0 0 1 0 0 0 0 2
FullNghs:  763 ave 866 max 678 min
Histogram: 1 0 1 0 0 1 0 0 0 1

Total # of neighbors = 3052
Ave neighs/atom = 23.8438
Neighbor list builds = 10
Dangerous builds = 10
Total wall time: 0:00:00
