created by fftool

2500 atoms
2000 bonds
500 angles
4 atom types
3 bond types
1 angle types
-12.0 12.0 xlo xhi
-12.0 12.0 ylo yhi
-12.0 12.0 zlo zhi

Masses

   1   15.199  # ODw DC
   2    1.008  # Hw
   3    1.e-16  # M
   4    0.800  # ODw DP

Bond Coeffs

   1   517.630258     0.957200  # Ow-Hw
   2   500.000000     0.240340  # Ow-M
   3   500.000000     0.000000  # ODw DC-DP

Angle Coeffs

   1    37.950526   104.520000  # Hw-Ow-Hw

Atoms

      1       1    1   1.7162 -2.949429e+00  7.137735e+00 -8.129422e+00 # ODw SWM4-NDP DC
      2       1    2   0.5573 -2.650363e+00  6.374324e+00 -7.635464e+00 # Hw SWM4-NDP
      3       1    2   0.5573 -3.443020e+00  6.770726e+00 -8.862841e+00 # Hw SWM4-NDP
      4       1    3  -1.1146 -2.989328e+00  6.905875e+00 -8.178538e+00 # M SWM4-NDP
      5       2    1   1.7162 -5.751382e+00  5.425967e+00  8.235903e+00 # ODw SWM4-NDP DC
      6       2    2   0.5573 -5.537059e+00  4.814216e+00  8.940217e+00 # Hw SWM4-NDP
      7       2    2   0.5573 -4.920374e+00  5.852973e+00  8.027760e+00 # Hw SWM4-NDP
      8       2    3  -1.1146 -5.536974e+00  5.388074e+00  8.337672e+00 # M SWM4-NDP
      9       3    1   1.7162  8.717123e+00 -6.158856e+00 -5.808614e+00 # ODw SWM4-NDP DC
     10       3    2   0.5573  8.739001e+00 -5.981168e+00 -6.748923e+00 # Hw SWM4-NDP
     11       3    2   0.5573  8.493678e+00 -7.087433e+00 -5.744986e+00 # Hw SWM4-NDP
     12       3    3  -1.1146  8.675779e+00 -6.312871e+00 -5.988430e+00 # M SWM4-NDP
     13       4    1   1.7162 -6.595899e+00  7.511600e-01 -4.657975e+00 # ODw SWM4-NDP DC
     14       4    2   0.5573 -5.681534e+00  5.239800e-01 -4.826965e+00 # Hw SWM4-NDP
     15       4    2   0.5573 -7.059531e+00 -8.592000e-02 -4.681919e+00 # Hw SWM4-NDP
     16       4    3  -1.1146 -6.503450e+00  5.328700e-01 -4.697548e+00 # M SWM4-NDP
     17       5    1   1.7162 -3.896429e+00 -1.038309e+01  4.658920e-01 # ODw SWM4-NDP DC
     18       5    2   0.5573 -4.040446e+00 -1.094979e+01 -2.919620e-01 # Hw SWM4-NDP
     19       5    2   0.5573 -3.781109e+00 -1.098755e+01  1.199082e+00 # Hw SWM4-NDP
     20       5    3  -1.1146 -3.902315e+00 -1.062331e+01  4.608340e-01 # M SWM4-NDP
     21       6    1   1.7162 -8.141023e+00  9.077755e+00 -2.962494e+00 # ODw SWM4-NDP DC
     22       6    2   0.5573 -7.850119e+00  8.167144e+00 -2.913573e+00 # Hw SWM4-NDP
     23       6    2   0.5573 -7.331557e+00  9.585652e+00 -3.017599e+00 # Hw SWM4-NDP
     24       6    3  -1.1146 -7.915327e+00  8.995155e+00 -2.963762e+00 # M SWM4-NDP
     25       7    1   1.7162 -1.122521e+00 -8.366266e+00 -5.978855e+00 # ODw SWM4-NDP DC
     26       7    2   0.5573 -5.357250e-01 -9.117740e+00 -5.894067e+00 # Hw SWM4-NDP
     27       7    2   0.5573 -1.775145e+00 -8.642773e+00 -6.622172e+00 # Hw SWM4-NDP
     28       7    3  -1.1146 -1.136023e+00 -8.577115e+00 -6.093415e+00 # M SWM4-NDP
     29       8    1   1.7162 -9.601020e-01  1.016029e+01 -1.027833e+01 # ODw SWM4-NDP DC
     30       8    2   0.5573 -6.267620e-01  9.627267e+00 -1.100013e+01 # Hw SWM4-NDP
     31       8    2   0.5573 -7.041780e-01  9.682743e+00 -9.489227e+00 # Hw SWM4-NDP
     32       8    3  -1.1146 -8.392390e-01  9.953015e+00 -1.026452e+01 # M SWM4-NDP
     33       9    1   1.7162  7.440645e+00  2.593236e+00  3.351627e+00 # ODw SWM4-NDP DC
     34       9    2   0.5573  7.466093e+00  2.053775e+00  4.141922e+00 # Hw SWM4-NDP
     35       9    2   0.5573  7.176812e+00  1.989460e+00  2.657310e+00 # Hw SWM4-NDP
     36       9    3  -1.1146  7.391750e+00  2.358747e+00  3.371313e+00 # M SWM4-NDP
     37      10    1   1.7162  1.100079e+01 -1.100085e+01  7.727576e+00 # ODw SWM4-NDP DC
     38      10    2   0.5573  1.095691e+01 -1.007878e+01  7.980744e+00 # Hw SWM4-NDP
     39      10    2   0.5573  1.080730e+01 -1.100180e+01  6.790137e+00 # Hw SWM4-NDP
     40      10    3  -1.1146  1.095210e+01 -1.081192e+01  7.587225e+00 # M SWM4-NDP
     41      11    1   1.7162  1.020058e+00  1.561032e+00  4.825358e+00 # ODw SWM4-NDP DC
     42      11    2   0.5573  1.361890e+00  6.669910e-01  4.833957e+00 # Hw SWM4-NDP
     43      11    2   0.5573  1.264040e-01  1.479492e+00  5.158472e+00 # Hw SWM4-NDP
     44      11    3  -1.1146  9.068740e-01  1.360931e+00  4.895447e+00 # M SWM4-NDP
     45      12    1   1.7162  3.978687e+00 -1.007725e+01  3.894940e+00 # ODw SWM4-NDP DC
     46      12    2   0.5573  3.775431e+00 -1.100052e+01  4.044913e+00 # Hw SWM4-NDP
     47      12    2   0.5573  4.926931e+00 -1.001826e+01  4.011493e+00 # Hw SWM4-NDP
     48      12    3  -1.1146  4.131491e+00 -1.025452e+01  3.949607e+00 # M SWM4-NDP
     49      13    1   1.7162 -5.545253e+00 -9.202261e+00 -4.252142e+00 # ODw SWM4-NDP DC
     50      13    2   0.5573 -5.235489e+00 -8.299666e+00 -4.177311e+00 # Hw SWM4-NDP
     51      13    2   0.5573 -6.486036e+00 -9.120909e+00 -4.408796e+00 # Hw SWM4-NDP
     52      13    3  -1.1146 -5.674681e+00 -9.000444e+00 -4.268925e+00 # M SWM4-NDP
     53      14    1   1.7162  3.754650e-01 -9.777962e+00 -1.049756e+01 # ODw SWM4-NDP DC
     54      14    2   0.5573  3.743910e-01 -8.963128e+00 -1.099983e+01 # Hw SWM4-NDP
     55      14    2   0.5573 -1.840050e-01 -1.037028e+01 -1.099993e+01 # Hw SWM4-NDP
     56      14    3  -1.1146  2.604920e-01 -9.732323e+00 -1.070362e+01 # M SWM4-NDP
     57      15    1   1.7162 -1.029367e+00 -5.663030e+00 -1.105338e+00 # ODw SWM4-NDP DC
     58      15    2   0.5573 -6.311980e-01 -4.793062e+00 -1.134473e+00 # Hw SWM4-NDP
     59      15    2   0.5573 -1.880624e+00 -5.523581e+00 -6.904320e-01 # Hw SWM4-NDP
     60      15    3  -1.1146 -1.122300e+00 -5.455989e+00 -1.026213e+00 # M SWM4-NDP
     61      16    1   1.7162 -8.209576e+00  7.233855e+00  6.851936e+00 # ODw SWM4-NDP DC
     62      16    2   0.5573 -7.324468e+00  7.583599e+00  6.749492e+00 # Hw SWM4-NDP
     63      16    2   0.5573 -8.780579e+00  7.922146e+00  6.510701e+00 # Hw SWM4-NDP
     64      16    3  -1.1146 -8.145151e+00  7.446766e+00  6.760933e+00 # M SWM4-NDP
     65      17    1   1.7162  5.389648e+00  2.128946e+00 -1.099942e+01 # ODw SWM4-NDP DC
     66      17    2   0.5573  5.416720e+00  1.172134e+00 -1.099629e+01 # Hw SWM4-NDP
     67      17    2   0.5573  4.456604e+00  2.342627e+00 -1.100047e+01 # Hw SWM4-NDP
     68      17    3  -1.1146  5.203824e+00  1.976523e+00 -1.099899e+01 # M SWM4-NDP
     69      18    1   1.7162 -7.559170e-01  7.225347e+00  9.790285e+00 # ODw SWM4-NDP DC
     70      18    2   0.5573 -1.456000e-01  6.984888e+00  1.048737e+01 # Hw SWM4-NDP
     71      18    2   0.5573 -1.291179e+00  6.442663e+00  9.659398e+00 # Hw SWM4-NDP
     72      18    3  -1.1146 -7.405230e-01  7.015491e+00  9.906417e+00 # M SWM4-NDP
     73      19    1   1.7162  1.949696e+00  8.019349e+00 -8.226014e+00 # ODw SWM4-NDP DC
     74      19    2   0.5573  1.146284e+00  8.251363e+00 -7.760256e+00 # Hw SWM4-NDP
     75      19    2   0.5573  1.652459e+00  7.735168e+00 -9.090377e+00 # Hw SWM4-NDP
     76      19    3  -1.1146  1.723942e+00  8.008649e+00 -8.307772e+00 # M SWM4-NDP
     77      20    1   1.7162  2.873031e+00  2.354620e+00  1.087028e+01 # ODw SWM4-NDP DC
     78      20    2   0.5573  3.640372e+00  1.782416e+00  1.087152e+01 # Hw SWM4-NDP
     79      20    2   0.5573  3.234574e+00  3.240914e+00  1.086890e+01 # Hw SWM4-NDP
     80      20    3  -1.1146  3.104575e+00  2.419043e+00  1.087025e+01 # M SWM4-NDP
     81      21    1   1.7162  6.791827e+00  6.576157e+00 -3.263969e+00 # ODw SWM4-NDP DC
     82      21    2   0.5573  7.454512e+00  5.946535e+00 -3.547970e+00 # Hw SWM4-NDP
     83      21    2   0.5573  5.986623e+00  6.063022e+00 -3.196365e+00 # Hw SWM4-NDP
     84      21    3  -1.1146  6.762595e+00  6.341767e+00 -3.308354e+00 # M SWM4-NDP
     85      22    1   1.7162 -2.343247e+00 -1.100435e+01  4.061129e+00 # ODw SWM4-NDP DC
     86      22    2   0.5573 -2.730532e+00 -1.014167e+01  3.912737e+00 # Hw SWM4-NDP
     87      22    2   0.5573 -1.408692e+00 -1.083150e+01  4.174973e+00 # Hw SWM4-NDP
     88      22    3  -1.1146 -2.230997e+00 -1.079195e+01  4.054043e+00 # M SWM4-NDP
     89      23    1   1.7162  1.071800e+01 -1.216888e+00  1.100014e+01 # ODw SWM4-NDP DC
     90      23    2   0.5573  1.100014e+01 -2.131165e+00  1.097312e+01 # Hw SWM4-NDP
     91      23    2   0.5573  9.761806e+00 -1.260644e+00  1.099802e+01 # Hw SWM4-NDP
     92      23    3  -1.1146  1.057975e+01 -1.413390e+00  1.099416e+01 # M SWM4-NDP
     93      24    1   1.7162 -5.017892e+00  7.798472e+00  5.139856e+00 # ODw SWM4-NDP DC
     94      24    2   0.5573 -4.900452e+00  7.593921e+00  4.212171e+00 # Hw SWM4-NDP
     95      24    2   0.5573 -4.795920e+00  6.986031e+00  5.594719e+00 # Hw SWM4-NDP
     96      24    3  -1.1146 -4.948275e+00  7.589877e+00  5.042876e+00 # M SWM4-NDP
     97      25    1   1.7162  8.059698e+00 -2.786319e+00 -5.585640e+00 # ODw SWM4-NDP DC
     98      25    2   0.5573  8.448303e+00 -2.290164e+00 -4.865189e+00 # Hw SWM4-NDP
     99      25    2   0.5573  8.794690e+00 -3.260620e+00 -5.974299e+00 # Hw SWM4-NDP
    100      25    3  -1.1146  8.290159e+00 -2.781836e+00 -5.517587e+00 # M SWM4-NDP
    101      26    1   1.7162  1.088371e+01 -1.801970e+00 -4.581727e+00 # ODw SWM4-NDP DC
    102      26    2   0.5573  1.099942e+01 -9.037470e-01 -4.271826e+00 # Hw SWM4-NDP
    103      26    2   0.5573  1.094682e+01 -1.737075e+00 -5.534637e+00 # Hw SWM4-NDP
    104      26    3  -1.1146  1.092038e+01 -1.604426e+00 -4.713614e+00 # M SWM4-NDP
    105      27    1   1.7162  1.390515e+00  1.100122e+01 -9.841075e+00 # ODw SWM4-NDP DC
    106      27    2   0.5573  1.792211e+00  1.019398e+01 -9.519774e+00 # Hw SWM4-NDP
    107      27    2   0.5573  1.482636e+00  1.095289e+01 -1.079261e+01 # Hw SWM4-NDP
    108      27    3  -1.1146  1.491801e+00  1.082573e+01 -9.970341e+00 # M SWM4-NDP
    109      28    1   1.7162 -8.171847e+00 -3.696800e+00 -6.192320e-01 # ODw SWM4-NDP DC
    110      28    2   0.5573 -8.902190e+00 -3.078498e+00 -6.423160e-01 # Hw SWM4-NDP
    111      28    2   0.5573 -8.583826e+00 -4.557695e+00 -6.924710e-01 # Hw SWM4-NDP
    112      28    3  -1.1146 -8.406148e+00 -3.746559e+00 -6.389890e-01 # M SWM4-NDP
    113      29    1   1.7162  9.392740e+00  7.991220e+00  1.099334e+01 # ODw SWM4-NDP DC
    114      29    2   0.5573  8.530444e+00  8.406201e+00  1.097171e+01 # Hw SWM4-NDP
    115      29    2   0.5573  9.207063e+00  7.052232e+00  1.100086e+01 # Hw SWM4-NDP
    116      29    3  -1.1146  9.177791e+00  7.883741e+00  1.099044e+01 # M SWM4-NDP
    117      30    1   1.7162 -5.856610e-01  1.097095e+01 -7.293609e+00 # ODw SWM4-NDP DC
    118      30    2   0.5573  1.134320e-01  1.043190e+01 -6.923576e+00 # Hw SWM4-NDP
    119      30    2   0.5573 -1.253982e+00  1.100032e+01 -6.608981e+00 # Hw SWM4-NDP
    120      30    3  -1.1146 -5.793500e-01  1.086641e+01 -7.077288e+00 # M SWM4-NDP
    121      31    1   1.7162 -6.889553e+00  3.848498e+00 -2.261087e+00 # ODw SWM4-NDP DC
    122      31    2   0.5573 -7.210569e+00  3.462634e+00 -1.446047e+00 # Hw SWM4-NDP
    123      31    2   0.5573 -6.626008e+00  3.098466e+00 -2.794218e+00 # Hw SWM4-NDP
    124      31    3  -1.1146 -6.901341e+00  3.615515e+00 -2.203265e+00 # M SWM4-NDP
    125      32    1   1.7162 -1.100024e+01 -9.741216e+00  9.502958e+00 # ODw SWM4-NDP DC
    126      32    2   0.5573 -1.034112e+01 -9.533721e+00  1.016532e+01 # Hw SWM4-NDP
    127      32    2   0.5573 -1.100031e+01 -8.983012e+00  8.918699e+00 # Hw SWM4-NDP
    128      32    3  -1.1146 -1.086507e+01 -9.543142e+00  9.518979e+00 # M SWM4-NDP
    129      33    1   1.7162  9.756137e+00 -4.650752e+00 -4.106897e+00 # ODw SWM4-NDP DC
    130      33    2   0.5573  9.897474e+00 -3.867088e+00 -3.575740e+00 # Hw SWM4-NDP
    131      33    2   0.5573  1.049440e+01 -4.664185e+00 -4.716007e+00 # Hw SWM4-NDP
    132      33    3  -1.1146  9.936552e+00 -4.492770e+00 -4.122886e+00 # M SWM4-NDP
    133      34    1   1.7162  8.133320e+00  8.265563e+00  8.146223e+00 # ODw SWM4-NDP DC
    134      34    2   0.5573  8.875280e+00  8.708189e+00  7.734144e+00 # Hw SWM4-NDP
    135      34    2   0.5573  8.516770e+00  7.496774e+00  8.568313e+00 # Hw SWM4-NDP
    136      34    3  -1.1146  8.364152e+00  8.198664e+00  8.148277e+00 # M SWM4-NDP
    137      35    1   1.7162  1.042260e+01  9.538744e+00 -3.382108e+00 # ODw SWM4-NDP DC
    138      35    2   0.5573  1.099547e+01  1.018121e+01 -3.800791e+00 # Hw SWM4-NDP
    139      35    2   0.5573  1.099993e+01  8.805853e+00 -3.168117e+00 # Hw SWM4-NDP
    140      35    3  -1.1146  1.065852e+01  9.520196e+00 -3.424092e+00 # M SWM4-NDP
    141      36    1   1.7162  7.360567e+00  1.041859e+01 -1.025519e+01 # ODw SWM4-NDP DC
    142      36    2   0.5573  7.503448e+00  1.100035e+01 -1.100176e+01 # Hw SWM4-NDP
    143      36    2   0.5573  7.089549e+00  1.100098e+01 -9.545540e+00 # Hw SWM4-NDP
    144      36    3  -1.1146  7.334285e+00  1.065737e+01 -1.026276e+01 # M SWM4-NDP
    145      37    1   1.7162  6.768608e+00  7.958015e+00  3.888470e+00 # ODw SWM4-NDP DC
    146      37    2   0.5573  6.610257e+00  7.026550e+00  3.735075e+00 # Hw SWM4-NDP
    147      37    2   0.5573  5.910263e+00  8.312299e+00  4.120757e+00 # Hw SWM4-NDP
    148      37    3  -1.1146  6.560074e+00  7.839630e+00  3.904651e+00 # M SWM4-NDP
    149      38    1   1.7162 -1.057328e+01  1.022085e+01 -1.032861e+01 # ODw SWM4-NDP DC
    150      38    2   0.5573 -9.852605e+00  1.056271e+01 -1.085775e+01 # Hw SWM4-NDP
    151      38    2   0.5573 -1.100006e+01  1.100004e+01 -9.972321e+00 # Hw SWM4-NDP
    152      38    3  -1.1146 -1.051300e+01  1.045079e+01 -1.036406e+01 # M SWM4-NDP
    153      39    1   1.7162 -1.099498e+01  7.988588e+00 -8.172314e+00 # ODw SWM4-NDP DC
    154      39    2   0.5573 -1.006908e+01  8.224105e+00 -8.231292e+00 # Hw SWM4-NDP
    155      39    2   0.5573 -1.099999e+01  7.031420e+00 -8.178361e+00 # Hw SWM4-NDP
    156      39    3  -1.1146 -1.080610e+01  7.840571e+00 -8.185651e+00 # M SWM4-NDP
    157      40    1   1.7162 -1.049480e+00  1.041418e+01  3.518162e+00 # ODw SWM4-NDP DC
    158      40    2   0.5573 -2.925880e-01  1.100011e+01  3.524340e+00 # Hw SWM4-NDP
    159      40    2   0.5573 -1.806454e+00  1.100002e+01  3.514221e+00 # Hw SWM4-NDP
    160      40    3  -1.1146 -1.049497e+00  1.065452e+01  3.518621e+00 # M SWM4-NDP
    161      41    1   1.7162 -5.757005e+00 -2.756894e+00 -6.532412e+00 # ODw SWM4-NDP DC
    162      41    2   0.5573 -6.452063e+00 -3.162397e+00 -7.050769e+00 # Hw SWM4-NDP
    163      41    2   0.5573 -5.074407e+00 -3.425969e+00 -6.481131e+00 # Hw SWM4-NDP
    164      41    3  -1.1146 -5.759561e+00 -2.977300e+00 -6.628214e+00 # M SWM4-NDP
    165      42    1   1.7162  2.166298e+00  4.042753e+00  5.507082e+00 # ODw SWM4-NDP DC
    166      42    2   0.5573  3.107312e+00  3.879805e+00  5.442485e+00 # Hw SWM4-NDP
    167      42    2   0.5573  2.088349e+00  4.996666e+00  5.521420e+00 # Hw SWM4-NDP
    168      42    3  -1.1146  2.343321e+00  4.204987e+00  5.496773e+00 # M SWM4-NDP
    169      43    1   1.7162 -9.651893e+00 -1.011331e+01 -8.624744e+00 # ODw SWM4-NDP DC
    170      43    2   0.5573 -1.031785e+01 -1.016489e+01 -7.939124e+00 # Hw SWM4-NDP
    171      43    2   0.5573 -9.606118e+00 -1.100014e+01 -8.982046e+00 # Hw SWM4-NDP
    172      43    3  -1.1146 -9.779098e+00 -1.030578e+01 -8.557403e+00 # M SWM4-NDP
    173      44    1   1.7162  1.486513e+00  6.997229e+00  8.201529e+00 # ODw SWM4-NDP DC
    174      44    2   0.5573  6.840130e-01  6.623762e+00  7.837182e+00 # Hw SWM4-NDP
    175      44    2   0.5573  1.245392e+00  7.890245e+00  8.447731e+00 # Hw SWM4-NDP
    176      44    3  -1.1146  1.272456e+00  7.103794e+00  8.177296e+00 # M SWM4-NDP
    177      45    1   1.7162 -7.792053e+00  1.507923e+00  9.393808e+00 # ODw SWM4-NDP DC
    178      45    2   0.5573 -6.879162e+00  1.769436e+00  9.273504e+00 # Hw SWM4-NDP
    179      45    2   0.5573 -7.909001e+00  7.652260e-01  8.801393e+00 # Hw SWM4-NDP
    180      45    3  -1.1146 -7.628797e+00  1.409228e+00  9.247623e+00 # M SWM4-NDP
    181      46    1   1.7162 -5.776968e+00  2.290027e+00  3.823232e+00 # ODw SWM4-NDP DC
    182      46    2   0.5573 -5.668051e+00  3.209111e+00  3.578993e+00 # Hw SWM4-NDP
    183      46    2   0.5573 -6.718986e+00  2.187742e+00  3.958775e+00 # Hw SWM4-NDP
    184      46    3  -1.1146 -5.947845e+00  2.457560e+00  3.800938e+00 # M SWM4-NDP
    185      47    1   1.7162 -8.675161e+00 -2.648293e+00  1.881342e+00 # ODw SWM4-NDP DC
    186      47    2   0.5573 -8.514255e+00 -3.591499e+00  1.854811e+00 # Hw SWM4-NDP
    187      47    2   0.5573 -8.926425e+00 -2.473118e+00  2.788211e+00 # Hw SWM4-NDP
    188      47    3  -1.1146 -8.693695e+00 -2.805823e+00  2.061908e+00 # M SWM4-NDP
    189      48    1   1.7162  4.622731e+00 -3.473807e+00  7.211230e-01 # ODw SWM4-NDP DC
    190      48    2   0.5573  4.676878e+00 -4.428494e+00  6.778290e-01 # Hw SWM4-NDP
    191      48    2   0.5573  4.005686e+00 -3.300425e+00  1.432056e+00 # Hw SWM4-NDP
    192      48    3  -1.1146  4.507275e+00 -3.634060e+00  8.580620e-01 # M SWM4-NDP
    193      49    1   1.7162 -1.358734e+00  2.591975e+00 -4.953787e+00 # ODw SWM4-NDP DC
    194      49    2   0.5573 -1.252286e+00  3.439420e+00 -5.385918e+00 # Hw SWM4-NDP
    195      49    2   0.5573 -4.864190e-01  2.381090e+00 -4.620883e+00 # Hw SWM4-NDP
    196      49    3  -1.1146 -1.157981e+00  2.722539e+00 -4.974139e+00 # M SWM4-NDP
    197      50    1   1.7162 -8.779660e-01  1.100020e+01 -3.979732e+00 # ODw SWM4-NDP DC
    198      50    2   0.5573 -1.133454e+00  1.007795e+01 -3.959181e+00 # Hw SWM4-NDP
    199      50    2   0.5573  3.548100e-02  1.098986e+01 -4.265631e+00 # Hw SWM4-NDP
    200      50    3  -1.1146 -7.430120e-01  1.080892e+01 -4.034157e+00 # M SWM4-NDP
    201      51    1   1.7162  1.923063e+00 -4.267182e+00 -6.189730e-01 # ODw SWM4-NDP DC
    202      51    2   0.5573  1.665560e+00 -3.964242e+00  2.517460e-01 # Hw SWM4-NDP
    203      51    2   0.5573  2.363276e+00 -5.102524e+00 -4.619770e-01 # Hw SWM4-NDP
    204      51    3  -1.1146  1.960538e+00 -4.376383e+00 -4.081790e-01 # M SWM4-NDP
    205      52    1   1.7162 -6.611599e+00  7.717722e+00  1.042183e+01 # ODw SWM4-NDP DC
    206      52    2   0.5573 -7.219761e+00  7.386245e+00  9.761158e+00 # Hw SWM4-NDP
    207      52    2   0.5573 -6.229039e+00  6.931690e+00  1.081175e+01 # Hw SWM4-NDP
    208      52    3  -1.1146 -6.657872e+00  7.488510e+00  1.036630e+01 # M SWM4-NDP
    209      53    1   1.7162 -3.657623e+00 -3.656272e+00  1.001631e+00 # ODw SWM4-NDP DC
    210      53    2   0.5573 -4.100929e+00 -4.452747e+00  7.095000e-01 # Hw SWM4-NDP
    211      53    2   0.5573 -2.736292e+00 -3.906274e+00  1.071478e+00 # Hw SWM4-NDP
    212      53    3  -1.1146 -3.559576e+00 -3.870914e+00  9.560380e-01 # M SWM4-NDP
    213      54    1   1.7162  4.957807e+00 -9.381406e+00  1.515323e+00 # ODw SWM4-NDP DC
    214      54    2   0.5573  5.430745e+00 -1.020134e+01  1.372927e+00 # Hw SWM4-NDP
    215      54    2   0.5573  5.642488e+00 -8.713935e+00  1.559200e+00 # Hw SWM4-NDP
    216      54    3  -1.1146  5.195245e+00 -9.412676e+00  1.495116e+00 # M SWM4-NDP
    217      55    1   1.7162 -1.052820e+01 -8.102160e-01 -7.599967e+00 # ODw SWM4-NDP DC
    218      55    2   0.5573 -1.099991e+01  1.177900e-02 -7.734328e+00 # Hw SWM4-NDP
    219      55    2   0.5573 -1.100047e+01 -1.244581e+00 -6.889666e+00 # Hw SWM4-NDP
    220      55    3  -1.1146 -1.072182e+01 -7.307100e-01 -7.481836e+00 # M SWM4-NDP
    221      56    1   1.7162 -9.640960e-01 -1.833965e+00 -8.263905e+00 # ODw SWM4-NDP DC
    222      56    2   0.5573 -7.620930e-01 -1.252938e+00 -7.530532e+00 # Hw SWM4-NDP
    223      56    2   0.5573 -2.860800e-01 -2.508744e+00 -8.229286e+00 # Hw SWM4-NDP
    224      56    3  -1.1146 -7.835960e-01 -1.853194e+00 -8.106383e+00 # M SWM4-NDP
    225      57    1   1.7162  9.623867e+00  7.959284e+00  4.172653e+00 # ODw SWM4-NDP DC
    226      57    2   0.5573  9.266675e+00  7.083378e+00  4.026249e+00 # Hw SWM4-NDP
    227      57    2   0.5573  1.056042e+01  7.816716e+00  4.309685e+00 # Hw SWM4-NDP
    228      57    3  -1.1146  9.742699e+00  7.750386e+00  4.170731e+00 # M SWM4-NDP
    229      58    1   1.7162  7.172731e+00 -6.926054e+00  3.014169e+00 # ODw SWM4-NDP DC
    230      58    2   0.5573  6.226556e+00 -6.782781e+00  3.035532e+00 # Hw SWM4-NDP
    231      58    2   0.5573  7.523191e+00 -6.149814e+00  2.577293e+00 # Hw SWM4-NDP
    232      58    3  -1.1146  7.050545e+00 -6.737453e+00  2.928943e+00 # M SWM4-NDP
    233      59    1   1.7162 -5.633479e+00 -6.449439e+00  5.214860e-01 # ODw SWM4-NDP DC
    234      59    2   0.5573 -6.120044e+00 -5.771797e+00  5.213800e-02 # Hw SWM4-NDP
    235      59    2   0.5573 -6.018083e+00 -7.272807e+00  2.208610e-01 # Hw SWM4-NDP
    236      59    3  -1.1146 -5.812164e+00 -6.479329e+00  3.635570e-01 # M SWM4-NDP
    237      60    1   1.7162 -4.686509e+00 -8.105160e-01 -7.830603e+00 # ODw SWM4-NDP DC
    238      60    2   0.5573 -5.090212e+00 -3.571130e-01 -7.090547e+00 # Hw SWM4-NDP
    239      60    2   0.5573 -3.925116e+00 -1.252494e+00 -7.454882e+00 # Hw SWM4-NDP
    240      60    3  -1.1146 -4.613143e+00 -8.081720e-01 -7.601747e+00 # M SWM4-NDP
    241      61    1   1.7162  9.809198e+00 -4.923831e+00  2.973358e+00 # ODw SWM4-NDP DC
    242      61    2   0.5573  1.062099e+01 -4.417090e+00  2.952504e+00 # Hw SWM4-NDP
    243      61    2   0.5573  9.115061e+00 -4.264794e+00  2.982037e+00 # Hw SWM4-NDP
    244      61    3  -1.1146  9.833330e+00 -4.684719e+00  2.970861e+00 # M SWM4-NDP
    245      62    1   1.7162 -8.312422e+00 -9.109113e+00 -1.091693e+01 # ODw SWM4-NDP DC
    246      62    2   0.5573 -8.478815e+00 -1.004806e+01 -1.100010e+01 # Hw SWM4-NDP
    247      62    2   0.5573 -9.165160e+00 -8.732616e+00 -1.069940e+01 # Hw SWM4-NDP
    248      62    3  -1.1146 -8.521455e+00 -9.224478e+00 -1.088937e+01 # M SWM4-NDP
    249      63    1   1.7162 -1.100048e+01 -7.198682e+00 -6.072760e-01 # ODw SWM4-NDP DC
    250      63    2   0.5573 -1.078206e+01 -8.034406e+00 -1.019697e+00 # Hw SWM4-NDP
    251      63    2   0.5573 -1.036100e+01 -6.581362e+00 -9.625410e-01 # Hw SWM4-NDP
    252      63    3  -1.1146 -1.082451e+01 -7.243479e+00 -7.647350e-01 # M SWM4-NDP
    253      64    1   1.7162 -4.892833e+00 -6.057202e+00 -2.707851e+00 # ODw SWM4-NDP DC
    254      64    2   0.5573 -5.188779e+00 -5.290469e+00 -2.217169e+00 # Hw SWM4-NDP
    255      64    2   0.5573 -5.038447e+00 -5.825933e+00 -3.625207e+00 # Hw SWM4-NDP
    256      64    3  -1.1146 -4.983401e+00 -5.852502e+00 -2.795366e+00 # M SWM4-NDP
    257      65    1   1.7162 -5.145912e+00 -1.100076e+01  5.439784e+00 # ODw SWM4-NDP DC
    258      65    2   0.5573 -4.304512e+00 -1.069717e+01  5.780537e+00 # Hw SWM4-NDP
    259      65    2   0.5573 -5.052848e+00 -1.094772e+01  4.488596e+00 # Hw SWM4-NDP
    260      65    3  -1.1146 -4.954245e+00 -1.092761e+01  5.314578e+00 # M SWM4-NDP
    261      66    1   1.7162 -3.778067e+00 -5.272545e+00  3.904319e+00 # ODw SWM4-NDP DC
    262      66    2   0.5573 -2.835347e+00 -5.224221e+00  4.062983e+00 # Hw SWM4-NDP
    263      66    2   0.5573 -4.013552e+00 -4.399692e+00  3.589825e+00 # Hw SWM4-NDP
    264      66    3  -1.1146 -3.633007e+00 -5.083603e+00  3.872357e+00 # M SWM4-NDP
    265      67    1   1.7162  1.047393e+01 -7.740539e+00 -7.942438e+00 # ODw SWM4-NDP DC
    266      67    2   0.5573  1.100030e+01 -8.433358e+00 -8.341397e+00 # Hw SWM4-NDP
    267      67    2   0.5573  1.100004e+01 -6.947998e+00 -8.048823e+00 # Hw SWM4-NDP
    268      67    3  -1.1146  1.068981e+01 -7.720085e+00 -8.046089e+00 # M SWM4-NDP
    269      68    1   1.7162  2.626622e+00 -7.313024e+00 -5.784300e+00 # ODw SWM4-NDP DC
    270      68    2   0.5573  1.709521e+00 -7.283266e+00 -5.511772e+00 # Hw SWM4-NDP
    271      68    2   0.5573  2.928967e+00 -6.407990e+00 -5.708587e+00 # Hw SWM4-NDP
    272      68    3  -1.1146  2.500530e+00 -7.121289e+00 -5.712872e+00 # M SWM4-NDP
    273      69    1   1.7162 -7.127638e+00  5.543311e+00  4.680576e+00 # ODw SWM4-NDP DC
    274      69    2   0.5573 -6.606976e+00  5.791052e+00  3.916530e+00 # Hw SWM4-NDP
    275      69    2   0.5573 -6.492507e+00  5.174597e+00  5.294490e+00 # Hw SWM4-NDP
    276      69    3  -1.1146 -6.890574e+00  5.518498e+00  4.649783e+00 # M SWM4-NDP
    277      70    1   1.7162 -1.511574e+00 -1.635153e+00 -3.321835e+00 # ODw SWM4-NDP DC
    278      70    2   0.5573 -1.014848e+00 -1.667924e+00 -4.139406e+00 # Hw SWM4-NDP
    279      70    2   0.5573 -2.225358e+00 -1.022516e+00 -3.499087e+00 # Hw SWM4-NDP
    280      70    3  -1.1146 -1.556095e+00 -1.516217e+00 -3.525883e+00 # M SWM4-NDP
    281      71    1   1.7162  1.803009e+00  1.078145e+01 -2.157967e+00 # ODw SWM4-NDP DC
    282      71    2   0.5573  2.698591e+00  1.100032e+01 -1.900556e+00 # Hw SWM4-NDP
    283      71    2   0.5573  1.782390e+00  9.824495e+00 -2.164968e+00 # Hw SWM4-NDP
    284      71    3  -1.1146  1.982472e+00  1.063006e+01 -2.106606e+00 # M SWM4-NDP
    285      72    1   1.7162  4.318060e-01 -3.212451e+00 -5.694213e+00 # ODw SWM4-NDP DC
    286      72    2   0.5573  1.008695e+00 -2.460533e+00 -5.828566e+00 # Hw SWM4-NDP
    287      72    2   0.5573  8.454850e-01 -3.709204e+00 -4.988283e+00 # Hw SWM4-NDP
    288      72    3  -1.1146  6.349810e-01 -3.160114e+00 -5.576977e+00 # M SWM4-NDP
    289      73    1   1.7162  2.833345e+00 -1.073682e+01 -5.630795e+00 # ODw SWM4-NDP DC
    290      73    2   0.5573  1.891205e+00 -1.090405e+01 -5.656096e+00 # Hw SWM4-NDP
    291      73    2   0.5573  2.914495e+00 -9.796339e+00 -5.789353e+00 # Hw SWM4-NDP
    292      73    3  -1.1146  2.656748e+00 -1.057822e+01 -5.668506e+00 # M SWM4-NDP
    293      74    1   1.7162 -1.047216e+01  1.017305e+01  7.342855e+00 # ODw SWM4-NDP DC
    294      74    2   0.5573 -1.057852e+01  1.099999e+01  6.872651e+00 # Hw SWM4-NDP
    295      74    2   0.5573 -1.100000e+01  1.027750e+01  8.134501e+00 # Hw SWM4-NDP
    296      74    3  -1.1146 -1.060224e+01  1.036409e+01  7.408786e+00 # M SWM4-NDP
    297      75    1   1.7162  9.716372e+00  1.100294e+01 -8.576550e+00 # ODw SWM4-NDP DC
    298      75    2   0.5573  9.273235e+00  1.015927e+01 -8.666489e+00 # Hw SWM4-NDP
    299      75    2   0.5573  1.063163e+01  1.081682e+01 -8.786062e+00 # Hw SWM4-NDP
    300      75    3  -1.1146  9.813209e+00  1.079172e+01 -8.637970e+00 # M SWM4-NDP
    301      76    1   1.7162 -1.068599e+01  8.369950e-01  6.887014e+00 # ODw SWM4-NDP DC
    302      76    2   0.5573 -9.976214e+00  1.148329e+00  7.448727e+00 # Hw SWM4-NDP
    303      76    2   0.5573 -1.100058e+01  1.622792e+00  6.440038e+00 # Hw SWM4-NDP
    304      76    3  -1.1146 -1.060493e+01  1.062027e+00  6.910548e+00 # M SWM4-NDP
    305      77    1   1.7162 -2.023300e+00 -4.124226e+00  8.503500e+00 # ODw SWM4-NDP DC
    306      77    2   0.5573 -2.294865e+00 -5.040245e+00  8.561748e+00 # Hw SWM4-NDP
    307      77    2   0.5573 -2.638050e+00 -3.655316e+00  9.067802e+00 # Hw SWM4-NDP
    308      77    3  -1.1146 -2.205092e+00 -4.215932e+00  8.631191e+00 # M SWM4-NDP
    309      78    1   1.7162  9.942612e+00  4.373824e+00 -2.205384e+00 # ODw SWM4-NDP DC
    310      78    2   0.5573  9.294294e+00  5.070377e+00 -2.101803e+00 # Hw SWM4-NDP
    311      78    2   0.5573  1.078418e+01  4.829624e+00 -2.220810e+00 # Hw SWM4-NDP
    312      78    3  -1.1146  9.982250e+00  4.610183e+00 -2.187303e+00 # M SWM4-NDP
    313      79    1   1.7162 -5.002866e+00 -3.495899e+00  9.862820e+00 # ODw SWM4-NDP DC
    314      79    2   0.5573 -5.073609e+00 -4.394522e+00  9.540789e+00 # Hw SWM4-NDP
    315      79    2   0.5573 -5.461396e+00 -2.969486e+00  9.207938e+00 # Hw SWM4-NDP
    316      79    3  -1.1146 -5.111425e+00 -3.572243e+00  9.662446e+00 # M SWM4-NDP
    317      80    1   1.7162  3.362470e+00  7.254982e+00 -5.512620e+00 # ODw SWM4-NDP DC
    318      80    2   0.5573  3.245847e+00  7.680331e+00 -4.663086e+00 # Hw SWM4-NDP
    319      80    2   0.5573  2.488088e+00  7.253044e+00 -5.902086e+00 # Hw SWM4-NDP
    320      80    3  -1.1146  3.159206e+00  7.341828e+00 -5.418256e+00 # M SWM4-NDP
    321      81    1   1.7162  8.521878e+00 -1.739960e-01  7.507379e+00 # ODw SWM4-NDP DC
    322      81    2   0.5573  7.852411e+00 -6.175290e-01  6.986491e+00 # Hw SWM4-NDP
    323      81    2   0.5573  8.480210e+00 -5.991570e-01  8.363962e+00 # Hw SWM4-NDP
    324      81    3  -1.1146  8.376017e+00 -3.521730e-01  7.576233e+00 # M SWM4-NDP
    325      82    1   1.7162  7.825036e+00 -9.851149e+00  7.449220e-01 # ODw SWM4-NDP DC
    326      82    2   0.5573  8.178193e+00 -1.072723e+01  8.998510e-01 # Hw SWM4-NDP
    327      82    2   0.5573  8.591778e+00 -9.316145e+00  5.397200e-01 # Hw SWM4-NDP
    328      82    3  -1.1146  8.054738e+00 -9.921106e+00  7.346100e-01 # M SWM4-NDP
    329      83    1   1.7162  3.899960e-01  6.453186e+00  1.722711e+00 # ODw SWM4-NDP DC
    330      83    2   0.5573 -5.488410e-01  6.639778e+00  1.722064e+00 # Hw SWM4-NDP
    331      83    2   0.5573  4.447470e-01  5.497554e+00  1.723433e+00 # Hw SWM4-NDP
    332      83    3  -1.1146  2.086610e-01  6.295449e+00  1.722726e+00 # M SWM4-NDP
    333      84    1   1.7162 -1.048812e+01 -5.763401e+00  7.139451e+00 # ODw SWM4-NDP DC
    334      84    2   0.5573 -1.098965e+01 -6.374205e+00  7.679469e+00 # Hw SWM4-NDP
    335      84    2   0.5573 -1.100261e+01 -4.956284e+00  7.149161e+00 # Hw SWM4-NDP
    336      84    3  -1.1146 -1.069652e+01 -5.723135e+00  7.252205e+00 # M SWM4-NDP
    337      85    1   1.7162 -3.615510e+00  1.098482e+01  6.162193e+00 # ODw SWM4-NDP DC
    338      85    2   0.5573 -3.560539e+00  1.058602e+01  7.030622e+00 # Hw SWM4-NDP
    339      85    2   0.5573 -2.712635e+00  1.099333e+01  5.844427e+00 # Hw SWM4-NDP
    340      85    3  -1.1146 -3.419047e+00  1.090477e+01  6.275139e+00 # M SWM4-NDP