# LAMMPS data file for rigid bodies

81      atoms
1       atom types

-12 12 xlo xhi
-12 12 ylo yhi
-12 12 zlo zhi

Masses

1 1

Pair Coeffs

1 1 1

Atoms

1        1     1      0       0       0
2        1     1      0       1       0
3        1     1      0       0.5     0
4        1     1      0.5     0       0
5        1     1      0.5     0.5     1
6        1     1      1       0.5     0
7        1     1      0.5     1       0
8        1     1      1       0       0
9        1     1      1       1       0
10       2     1      2       1       0
11       2     1      1       2       0
12       2     1      1.5     2       0
13       2     1      1.5     1       0
14       2     1      1       1.5     0
15       2     1      1.5     1.5     1
16       2     1      2       1.5     0
17       2     1      2       2       0
18       2     1      2       3       0
19       3     1      2       2.5     0
20       3     1      2.5     2       0
21       3     1      2.5     2.5     1
22       3     1      3       2.5     0
23       3     1      2.5     3       0
24       3     1      3       2       0
25       3     1      3       3       0
26       3     1      4       3       0
27       3     1      3       4       0
28       4     1      3.5     4       0
29       4     1      3.5     3       0
30       4     1      3       3.5     0
31       4     1      3.5     3.5     1
32       4     1      4       3.5     0
33       4     1      4       4       0
34       4     1      4       5       0
35       4     1      4       4.5     0
36       4     1      4.5     4       0
37       5     1      4.5     4.5     1
38       5     1      5       4.5     0
39       5     1      4.5     5       0
40       5     1      5       4       0
41       5     1      5       5       0
42       5     1      6       5       0
43       5     1      5       6       0
44       5     1      5.5     6       0
45       5     1      5.5     5       0
46       6     1      5       5.5     0
47       6     1      5.5     5.5     1
48       6     1      6       5.5     0
49       6     1      6       6       0
50       6     1      6       7       0
51       6     1      6       6.5     0
52       6     1      6.5     6       0
53       6     1      6.5     6.5     1
54       6     1      7       6.5     0
55       7     1      6.5     7       0
56       7     1      7       6       0
57       7     1      7       7       0
58       7     1      8       7       0
59       7     1      7       8       0
60       7     1      7.5     8       0
61       7     1      7.5     7       0
62       7     1      7       7.5     0
63       7     1      7.5     7.5     1
64       8     1      8       7.5     0
65       8     1      8       8       0
66       8     1      8       9       0
67       8     1      8       8.5     0
68       8     1      8.5     8       0
69       8     1      8.5     8.5     1
70       8     1      9       8.5     0
71       8     1      8.5     9       0
72       8     1      9       8       0
73       9     1      9       9       0
74       9     1      10      9       0
75       9     1      9       10      0
76       9     1      9.5     10      0
77       9     1      9.5     9       0
78       9     1      9       9.5     0
79       9     1      9.5     9.5     1
80       9     1      10      9.5     0
81       9     1      10      10      0
