LAMMPS (7 Feb 2024 - Development - patch_7Feb2024_update1-306-gf3391199e7-modified)
  using 1 OpenMP thread(s) per MPI task
#Pour composite granular particles on flat wall

newton		on
atom_style	sphere
atom_modify	map array sort 0 0

thermo_modify	flush yes
units 		si

variable	minrad equal 0.5
variable	maxrad equal 1.4

variable 	skin equal 0.3*${maxrad}
variable 	skin equal 0.3*1.4

boundary	p p f
region		reg block 0 20 0 20 0 200 units box
create_box	1 reg
Created orthogonal box = (0 0 0) to (20 20 200)
  1 by 1 by 1 MPI processor grid

fix             prop all property/atom mol ghost yes

variable	dumpfreq equal 1000
variable	logfreq equal 1000

pair_style	gran/hooke/history 4e5 NULL 1e2 NULL 0.5 0
pair_coeff	* *

timestep 	0.0001

group		particles type 1
0 atoms in group particles
atom_modify     first particles

neighbor        ${skin} bin
neighbor        0.42 bin
group		rigid type 1
0 atoms in group rigid
neigh_modify	every 1 delay 0 check yes exclude molecule/intra all

thermo 		${logfreq}
thermo 		1000
thermo_style	custom step cpu atoms ke
WARNING: New thermo_style command, previous thermo_modify settings will be lost (src/output.cpp:904)
thermo_modify	flush yes lost warn

comm_modify	vel yes cutoff 3

molecule	mymol molecule.data
Read molecule template mymol:
LAMMPS data file created for rigid body molecule template
  1 molecules
  0 fragments
  5 atoms with max type 1
  0 bonds with max type 0
  0 angles with max type 0
  0 dihedrals with max type 0
  0 impropers with max type 0
region		pourreg block 5 15 5 15 80 100 side in units box

#Note: in versions prior to 1/2020, the 'disable' keyword to fix/gravity
# and the 'gravity' keyword to fix rigid/small were not available.
# These settings produce undesirable behavior, where gravity can induce
# torque on rigid bodies.
#fix		gravfix all gravity 9.8 vector 0 0 -1 #disable
#fix		rigidfix all rigid/small molecule mol mymol #gravity gravfix

#The correct behavior is recovered with the following settings:
fix		gravfix all gravity 9.8 vector 0 0 -1 disable
fix		rigidfix all rigid/small molecule mol mymol gravity gravfix
  create bodies CPU = 0.000 seconds
  0 rigid bodies with 0 atoms
  1.2 = max distance from body owner to body atom

fix		pourfix all pour 5 0 1234 region pourreg mol mymol rigid rigidfix
Particle insertion: 15 every 20203 steps, 5 by step 1

fix		zwall all wall/gran hooke/history 4000.0 NULL 100.0 NULL 0.5 0 zplane 0.1 NULL

#dump		1 all custom 1000 molecule_pour.dump id type mass radius x y z fx fy fz

run		100000
Generated 0 of 0 mixed pair_coeff terms from geometric mixing rule
Neighbor list info ...
  update: every = 1 steps, delay = 0 steps, check = yes
  max neighbors/atom: 2000, page size: 100000
  master list distance cutoff = 1.62
  ghost atom cutoff = 3
  binsize = 0.81, bins = 25 25 247
  1 neighbor lists, perpetual/occasional/extra = 1 0 0
  (1) pair gran/hooke/history, perpetual
      attributes: half, newton on, size, history
      pair build: half/size/bin/atomonly/newton
      stencil: half/bin/3d
      bin: standard
Per MPI rank memory allocation (min/avg/max) = 6.893 | 6.893 | 6.893 Mbytes
   Step          CPU          Atoms        KinEng    
         0   0                      0  -0            
      1000   0.005385611           25  -0            
      2000   0.01106897            25  -0            
      3000   0.01569532            25  -0            
      4000   0.020782538           25  -0            
      5000   0.02656256            25  -0            
      6000   0.03132421            25  -0            
      7000   0.035996621           25  -0            
      8000   0.040816339           25  -0            
      9000   0.045911912           25  -0            
     10000   0.051486339           25  -0            
     11000   0.058049641           25  -0            
     12000   0.063206805           25  -0            
     13000   0.068374138           25  -0            
     14000   0.073423818           25  -0            
     15000   0.078890587           25  -0            
     16000   0.086372246           25  -0            
     17000   0.091912312           25  -0            
     18000   0.097317178           25  -0            
     19000   0.10284163            25  -0            
     20000   0.10836857            25  -0            
     21000   0.11476057            25  -0            
     22000   0.12201322            25  -0            
     23000   0.127963              25  -0            
     24000   0.13386968            25  -0            
     25000   0.1397396             25  -0            
     26000   0.14672759            25  -0            
     27000   0.15447534            25  -0            
     28000   0.16103509            25  -0            
     29000   0.16703686            25  -0            
     30000   0.17306375            25  -0            
     31000   0.18150464            25  -0            
     32000   0.1874536             25  -0            
     33000   0.19372953            25  -0            
     34000   0.19997087            25  -0            
     35000   0.20643521            25  -0            
     36000   0.21499446            25  -0            
     37000   0.22129475            25  -0            
     38000   0.2278159             25  -0            
     39000   0.23262556            25  -0            
     40000   0.23679               25  -0            
     41000   0.2428383             25  -0            
     42000   0.24757287            25  -0            
     43000   0.25190701            25  -0            
     44000   0.25617771            25  -0            
     45000   0.26057242            25  -0            
     46000   0.26469065            25  -0            
     47000   0.26921214            25  -0            
     48000   0.27502337            25  -0            
     49000   0.27911905            25  -0            
     50000   0.28338379            25  -0            
     51000   0.28736617            25  -0            
     52000   0.29127304            25  -0            
     53000   0.29504445            25  -0            
     54000   0.29898933            25  -0            
     55000   0.30479176            25  -0            
     56000   0.30893347            25  -0            
     57000   0.31277358            25  -0            
     58000   0.31658797            25  -0            
     59000   0.32024112            25  -0            
     60000   0.32373109            25  -0            
     61000   0.32753442            25  -0            
     62000   0.33123815            25  -0            
     63000   0.33643285            25  -0            
     64000   0.34036569            25  -0            
     65000   0.34399532            25  -0            
     66000   0.3475875             25  -0            
     67000   0.35124833            25  -0            
     68000   0.35503825            25  -0            
     69000   0.35870471            25  -0            
     70000   0.3624294             25  -0            
     71000   0.36714884            25  -0            
     72000   0.37082887            25  -0            
     73000   0.37459885            25  -0            
     74000   0.37835449            25  -0            
     75000   0.38245549            25  -0            
     76000   0.38681838            25  -0            
     77000   0.39069919            25  -0            
     78000   0.39460729            25  -0            
     79000   0.39908672            25  -0            
     80000   0.40266481            25  -0            
     81000   0.40645032            25  -0            
     82000   0.41005038            25  -0            
     83000   0.41355864            25  -0            
     84000   0.41741638            25  -0            
     85000   0.42182475            25  -0            
     86000   0.42614449            25  -0            
     87000   0.43024819            25  -0            
     88000   0.43389722            25  -0            
     89000   0.4372946             25  -0            
     90000   0.44097963            25  -0            
     91000   0.44451596            25  -0            
     92000   0.44800886            25  -0            
     93000   0.45171482            25  -0            
     94000   0.45568312            25  -0            
     95000   0.46068385            25  -0            
     96000   0.46423783            25  -0            
     97000   0.46783791            25  -0            
     98000   0.47132532            25  -0            
     99000   0.47462675            25  -0            
    100000   0.47811781            25  -0            
Loop time of 0.478128 on 1 procs for 100000 steps with 25 atoms

99.3% CPU use with 1 MPI tasks x 1 OpenMP threads

MPI task timing breakdown:
Section |  min time  |  avg time  |  max time  |%varavg| %total
---------------------------------------------------------------
Pair    | 0.016638   | 0.016638   | 0.016638   |   0.0 |  3.48
Neigh   | 0.12338    | 0.12338    | 0.12338    |   0.0 | 25.81
Comm    | 0.026212   | 0.026212   | 0.026212   |   0.0 |  5.48
Output  | 0.0015672  | 0.0015672  | 0.0015672  |   0.0 |  0.33
Modify  | 0.28303    | 0.28303    | 0.28303    |   0.0 | 59.20
Other   |            | 0.0273     |            |       |  5.71

Nlocal:             25 ave          25 max          25 min
Histogram: 1 0 0 0 0 0 0 0 0 0
Nghost:              1 ave           1 max           1 min
Histogram: 1 0 0 0 0 0 0 0 0 0
Neighs:              0 ave           0 max           0 min
Histogram: 1 0 0 0 0 0 0 0 0 0

Total # of neighbors = 0
Ave neighs/atom = 0
Neighbor list builds = 703
Dangerous builds = 0

Total wall time: 0:00:00
