LAMMPS (5 Oct 2007)
# Simple rigid body system

units		lj
atom_style	atomic

pair_style	lj/cut 2.5

read_data	data.rigid
  orthogonal box = (-12 -12 -12) to (12 12 12)
  1 by 1 by 1 processor grid
  81 atoms

velocity 	all create 100.0 4928459

# unconnected bodies

#group		clump1 id <> 1 9
#group		clump2 id <> 10 18
#group		clump3 id <> 19 27
#group		clump4 id <> 28 36
#group		clump5 id <> 37 45
#group		clump6 id <> 46 54
#group		clump7 id <> 55 63
#group		clump8 id <> 64 72
#group		clump9 id <> 73 81

#fix 1 all rigid group clump1 clump2 clump3 clump4 clump5 #	  	      clump6 clump7 clump8 clump9

# 1 chain of connected bodies

#group		clump1 id <> 1 9
#group		clump2 id <> 9 18
#group		clump3 id <> 18 27
#group		clump4 id <> 27 36
#group		clump5 id <> 36 45
#group		clump6 id <> 45 54
#group		clump7 id <> 54 63
#group		clump8 id <> 63 72
#group		clump9 id <> 72 81

#fix 1 all poems group clump1 clump2 clump3 clump4 clump5 #	  	      clump6 clump7 clump8 clump9

# 2 chains of connected bodies

group		clump1 id <> 1 9
9 atoms in group clump1
group		clump2 id <> 9 18
10 atoms in group clump2
group		clump3 id <> 18 27
10 atoms in group clump3
group		clump4 id <> 27 36
10 atoms in group clump4
group		clump5 id <> 37 45
9 atoms in group clump5
group		clump6 id <> 45 54
10 atoms in group clump6
group		clump7 id <> 54 63
10 atoms in group clump7
group		clump8 id <> 63 72
10 atoms in group clump8
group		clump9 id <> 72 81
10 atoms in group clump9

fix 1 all poems group clump1 clump2 clump3 clump4
1 clusters, 4 bodies, 3 joints, 36 atoms
fix 2 all poems group clump5 clump6 clump7 clump8 clump9
1 clusters, 5 bodies, 4 joints, 45 atoms

neigh_modify	exclude group clump1 clump1
neigh_modify	exclude group clump2 clump2
neigh_modify	exclude group clump3 clump3
neigh_modify	exclude group clump4 clump4
neigh_modify	exclude group clump5 clump5
neigh_modify	exclude group clump6 clump6
neigh_modify	exclude group clump7 clump7
neigh_modify	exclude group clump8 clump8
neigh_modify	exclude group clump9 clump9

thermo		100
dump		1 all atom 50 dump.rigid

timestep 	0.0001
thermo		50
run		10000
Memory usage per processor = 1.85865 Mbytes
Step Temp E_pair E_mol TotEng Press 
       0    196.00047    3632.2347            0    3668.5311   -2.7403788 
      50    12167.633    1505.5478            0    3758.8133    35.125973 
     100    17556.978    512.66277            0    3763.9549    11.137534 
     150    19579.586    138.04942            0    3763.8987   -29.953971 
     200     19757.51    105.30542            0    3764.1036 -0.030645317 
     250    18218.374    390.10747            0    3763.8804    13.711001 
     300    19383.039    174.40688            0    3763.8586    5.7240693 
     350    20125.986    36.972611            0    3764.0071    1.9559205 
     400    18888.816    266.10975            0    3764.0386    9.6362168 
     450    19307.656     188.2511            0     3763.743    1.9326206 
     500    16331.197    738.56392            0    3762.8597    9.1715579 
     550    19318.722    186.16172            0    3763.7027    3.0115336 
     600    19455.268    161.20621            0    3764.0336   0.55208034 
     650    18487.011    340.03216            0    3763.5528   -8.0359122 
     700    17321.201    556.32471            0    3763.9545   -13.631751 
     750    18979.187    249.04389            0    3763.7082   -2.6072455 
     800    19342.456    181.85552            0    3763.7918    8.1918726 
     850    19070.641    232.19342            0    3763.7936    7.3148472 
     900    19478.873    156.65987            0    3763.8586    2.4284987 
     950    19912.415    76.437437            0    3763.9216   -1.4667227 
    1000    16003.749    802.39753            0    3766.0548    46.642188 
    1050    19859.583     86.64176            0    3764.3424   -2.1961943 
    1100    19229.575    203.61488            0    3764.6473   -10.632365 
    1150      18821.6    279.15861            0      3764.64  -0.89495035 
    1200    19392.695    173.59744            0    3764.8373    1.8508753 
    1250    16459.624    717.32104            0    3765.3995    33.478127 
    1300    19343.863    182.59043            0    3764.7874   0.75890736 
    1350    20019.643    57.503573            0    3764.8448   0.31444672 
    1400    18549.582    329.31436            0    3764.4221    10.738303 
    1450    15163.926    957.47584            0    3765.6103   -17.923459 
    1500    19223.688    204.15171            0    3764.0939   -1.6134537 
    1550    18147.996    404.12676            0    3764.8668    8.4194772 
    1600    18615.043    317.42465            0    3764.6548   -2.3288964 
    1650    20120.654    38.887931            0     3764.935   -8.7620234 
    1700    19450.906    162.98288            0    3765.0025    2.3254699 
    1750    19374.633     177.3795            0    3765.2744    8.9328779 
    1800    19424.403    167.93973            0    3765.0514  0.081235304 
    1850    17936.331    442.82718            0    3764.3699    6.6008391 
    1900    19982.596     64.40603            0    3764.8868   -2.9530194 
    1950    16215.981    761.88879            0    3764.8481    13.994088 
    2000    18584.381      322.128            0      3763.68    7.1655135 
    2050    20107.966    41.025597            0     3764.723  -0.31094122 
    2100     20002.35    60.589881            0    3764.7288   -6.7919416 
    2150    16949.562    626.63321            0     3765.441    3.5096306 
    2200    20010.952    58.808561            0    3764.5403    -10.86228 
    2250    18982.725    247.00987            0    3762.3292  -0.53791914 
    2300    18401.372    354.86612            0    3762.5275    1.0918754 
    2350    19390.489    172.94794            0    3763.7793   -3.3526861 
    2400    16081.953    786.17478            0    3764.3143   -16.196885 
    2450    18870.833     268.6722            0    3763.2708    11.190569 
    2500    19687.509    117.72716            0    3763.5621    4.3895758 
    2550    18872.588    268.46009            0    3763.3837     -5.65615 
    2600    17016.358    612.26248            0    3763.4398    6.3212358 
    2650    18770.003    287.95779            0    3763.8843    2.3918934 
    2700    19736.664    108.26363            0    3763.2014  -0.29985725 
    2750    19503.072    151.75954            0    3763.4396   -1.6107925 
    2800    18406.518    353.53932            0    3762.1537    21.011956 
    2850    18588.513    320.69228            0    3763.0095    3.8268043 
    2900    20117.999    37.673729            0    3763.2291   0.38606556 
    2950    15648.583    864.90426            0      3762.79    14.652138 
    3000    18110.003    409.12743            0    3762.8316    7.3046692 
    3050    18963.762    251.51142            0    3763.3192    8.8730032 
    3100    19360.233    177.87686            0    3763.1052    -3.003396 
    3150    19397.486    171.24452            0    3763.3715   -8.1894286 
    3200    19861.488    85.443011            0    3763.4963   -7.9892285 
    3250    18129.623    406.06986            0    3763.4075    6.2227065 
    3300    18459.732    345.12915            0    3763.5981  -0.88501113 
    3350    18418.183    352.86898            0    3763.6435    5.1465871 
    3400    18198.833    393.57376            0    3763.7281    17.906799 
    3450    19394.691    171.91415            0    3763.5237    2.3061923 
    3500    17989.487    431.57409            0    3762.9605    4.7722999 
    3550    19839.778    89.464757            0    3763.4977   0.75587352 
    3600    16651.363    679.92046            0    3763.5062    2.5922559 
    3650    19640.809    126.36971            0    3763.5565    3.8009718 
    3700    18760.693    289.25283            0    3763.4552  -0.23256809 
    3750    18422.806     351.8633            0     3763.494   -5.7063428 
    3800    19064.379    232.62039            0    3763.0609    1.9143018 
    3850    20028.147    54.870459            0    3763.7866   -2.0674064 
    3900    18363.903    363.15053            0    3763.8733  -0.83767264 
    3950    19142.068     218.5822            0    3763.4096    1.2533787 
    4000    17657.429    493.09545            0    3762.9897    12.601663 
    4050    19999.996    59.856421            0    3763.5594   0.65351515 
    4100    19031.815    238.72419            0    3763.1343   -2.7080944 
    4150    18380.468    359.73956            0      3763.53    15.388701 
    4200    18317.648    371.13705            0     3763.294    -13.66239 
    4250    18825.075    277.55216            0    3763.6771    7.9673845 
    4300    18865.367    269.84013            0    3763.4266   -3.5057357 
    4350    18873.642     268.1837            0    3763.3026   -1.7780136 
    4400    18916.382    260.35702            0    3763.3908    6.8447807 
    4450    19712.893    112.94768            0    3763.4834    2.0240342 
    4500    14398.025    1098.0138            0    3764.3148    10.385478 
    4550    20022.067    55.986279            0    3763.7765    4.4810795 
    4600    19180.928    211.60561            0    3763.6293   0.30988185 
    4650    19971.505    65.490271            0    3763.9172   -10.108697 
    4700     19829.97    91.602773            0    3763.8194  -0.40679921 
    4750    19246.766    199.64331            0    3763.8593   -1.2506428 
    4800    19631.666    128.40837            0     3763.902    -2.040334 
    4850     19947.67    70.094361            0    3764.1073  -0.78294536 
    4900    19465.259    159.54674            0    3764.2242   -4.9676397 
    4950    17477.587    527.80906            0    3764.3993     14.21063 
    5000    20084.743    44.912413            0    3764.3094   -2.1726035 
    5050     17272.98     565.5041            0    3764.2042   -9.5226681 
    5100    19781.281    100.98301            0    3764.1832    1.8979179 
    5150    17633.952    498.58541            0    3764.1321    13.595063 
    5200    19610.188    132.81351            0    3764.3297   -2.8574796 
    5250    19519.474      149.381            0    3764.0985   0.34060773 
    5300    18714.208    298.54457            0    3764.1386    4.0211125 
    5350    19134.687    220.83624            0    3764.2968    6.6237377 
    5400     18379.28    360.44805            0    3764.0185     4.259352 
    5450    15537.658    886.81447            0    3764.1586    20.286717 
    5500    19533.983    146.53005            0    3763.9344   -6.5895297 
    5550    18959.278    253.13334            0    3764.1108    5.7507497 
    5600    19132.581    221.01922            0    3764.0898    2.7244388 
    5650    17943.188    441.39829            0    3764.2109    8.0028833 
    5700    17548.004    514.31011            0    3763.9406    2.2500386 
    5750    18131.629     406.4959            0     3764.205    5.2965619 
    5800    18853.962     271.8568            0    3763.3312   -1.7826489 
    5850    19833.936    91.028067            0    3763.9792   -1.9914832 
    5900    19690.909    117.60196            0    3764.0665    5.6772373 
    5950    18757.783    290.52181            0    3764.1853    5.8206362 
    6000    17998.199    431.27274            0    3764.2725  0.083704718 
    6050    18502.246    337.39216            0     3763.734    3.3273079 
    6100     20089.48    44.192378            0    3764.4664   0.68769167 
    6150    20017.292    57.474329            0    3764.3803   -3.3015592 
    6200    18928.553    259.01047            0    3764.2981   0.23705671 
    6250    20092.994     43.38052            0    3764.3053   -1.5299825 
    6300    19166.273     214.9146            0    3764.2243   -10.477528 
    6350    20184.081    26.406542            0    3764.1993   0.70992951 
    6400    19936.269    72.125456            0     3764.027     4.547003 
    6450    19426.521    166.55133            0    3764.0552    11.632463 
    6500     16977.51    621.49704            0    3765.4804    11.786242 
    6550    20135.186    35.324124            0    3764.0623  -0.16522965 
    6600    19606.614    132.91803            0    3763.7725  -0.61848508 
    6650    18309.085    373.80514            0    3764.3765   -1.7012386 
    6700    19975.746     64.76507            0    3763.9772   -1.5629614 
    6750    19007.784    244.00603            0    3763.9661    6.9564316 
    6800    19789.033    99.121949            0    3763.7576   -2.2131506 
    6850    18882.807    266.99644            0    3763.8126    2.4030624 
    6900    19391.989    172.92061            0    3764.0297   -1.5324267 
    6950    18629.076    314.26692            0    3764.0959   -4.1954944 
    7000     19808.66    95.779871            0    3764.0503   -1.3370578 
    7050    18887.077    266.02979            0    3763.6367     2.774529 
    7100    18580.757    322.65858            0    3763.5395   -2.1890265 
    7150    16163.557    770.98499            0    3764.2363    20.131822 
    7200    19186.484    210.55048            0    3763.6031  -0.89301479 
    7250    20029.759    54.832558            0    3764.0472    2.3684305 
    7300    19261.729    197.02825            0    3764.0151    2.8701583 
    7350    19164.529    214.95337            0    3763.9402    8.0231456 
    7400    19800.742    97.184346            0    3763.9885     3.993226 
    7450    19816.878    94.252523            0    3764.0447    1.4394826 
    7500    19614.542     131.7474            0    3764.0701    6.1725294 
    7550    19639.188    127.26814            0    3764.1547    9.0025265 
    7600    17857.045     457.8061            0    3764.6663    7.9940245 
    7650    19476.582    157.57506            0    3764.3496   -5.4364947 
    7700     19178.69    212.93777            0    3764.5471   -5.9629802 
    7750    19881.136    82.821376            0    3764.5132   -8.3396437 
    7800    18361.619    364.22947            0    3764.5293   -4.5390987 
    7850    19681.473    119.75558            0    3764.4729  -0.74705901 
    7900    19146.391    218.84806            0    3764.4761   -1.5368503 
    7950     19015.66    242.97309            0    3764.3916    3.3627424 
    8000    18953.108    254.65237            0    3764.4871  -0.80075758 
    8050    18394.217    356.97127            0    3763.3078    12.192418 
    8100     20003.88    60.047797            0    3764.4699    1.7147703 
    8150    18837.189    276.08871            0    3764.4571   -4.7061952 
    8200    18490.393    339.89616            0    3764.0431    8.0876507 
    8250    18934.911    258.01382            0    3764.4789   -2.2722023 
    8300    18992.532    247.22587            0    3764.3614   -5.5757488 
    8350    18734.381    294.85715            0     3764.187   -1.6784471 
    8400    19096.231    227.81027            0    3764.1493    5.0013345 
    8450    18122.103     408.1265            0    3764.0716   0.29367221 
    8500    18456.948    345.89622            0    3763.8496   -1.2953924 
    8550    16179.751    768.08513            0    3764.3354   -15.783038 
    8600    19701.886     115.3429            0    3763.8404   -6.1300317 
    8650    19780.208    100.82835            0    3763.8298   0.93136385 
    8700    18515.649    335.16403            0     3763.988    10.678559 
    8750     17012.98    613.44187            0    3763.9937      12.4263 
    8800    17036.007    609.07499            0     3763.891    5.3177704 
    8850    19101.348    226.51778            0    3763.8045    -2.726039 
    8900    17986.965    431.79479            0    3762.7143   -4.4254578 
    8950    19880.063    82.363637            0    3763.8567    1.5026042 
    9000    19828.576    92.071674            0    3764.0302   -1.7569687 
    9050    19721.773    111.92169            0    3764.1018   -3.0171895 
    9100    17390.413    543.64757            0    3764.0944    5.3417629 
    9150    19364.081    177.94004            0     3763.881    6.3844136 
    9200    16827.754    644.56015            0    3760.8109    5.0809124 
    9250    17426.564    536.70058            0     3763.842    18.414202 
    9300    19937.674    71.616041            0    3763.7778  -0.94895536 
    9350    18256.386    383.04188            0     3763.854    6.0361903 
    9400    19219.405    204.62722            0    3763.7762    1.1760521 
    9450    19410.161    169.19165            0    3763.6659   -2.8855494 
    9500    18347.623    365.56603            0     3763.274    5.0517322 
    9550    15380.886    915.82705            0    3764.1393   -4.7478422 
    9600    18171.855    398.91387            0    3764.0721    4.9262284 
    9650    19654.551    124.46991            0    3764.2016    -5.107423 
    9700    18617.556    316.25119            0    3763.9468    2.1271053 
    9750    19582.424    137.92448            0    3764.2992    2.0390597 
    9800    19779.785     101.3667            0    3764.2899   0.35055578 
    9850    19505.552    152.25257            0    3764.3919   -6.1300408 
    9900    19673.685    121.19565            0    3764.4706   -3.5337791 
    9950    19555.722     142.8602            0    3764.2902   -8.3414781 
   10000    19032.018    239.75987            0    3764.2076    -1.413483 
Loop time of 7.50411 on 1 procs for 10000 steps with 81 atoms

Pair  time (%) = 0.207226 (2.7615)
Neigh time (%) = 0.092211 (1.22881)
Comm  time (%) = 0.0210001 (0.279849)
Outpt time (%) = 0.0277221 (0.369426)
Other time (%) = 7.15595 (95.3604)

Nlocal:    81 ave 81 max 81 min
Histogram: 1 0 0 0 0 0 0 0 0 0
Nghost:    69 ave 69 max 69 min
Histogram: 1 0 0 0 0 0 0 0 0 0
Neighs:    617 ave 617 max 617 min
Histogram: 1 0 0 0 0 0 0 0 0 0

Total # of neighbors = 617
Ave neighs/atom = 7.61728
Neighbor list builds = 994
Dangerous builds = 957
