LAMMPS (7 Feb 2024 - Development - patch_7Feb2024_update1-306-gf3391199e7-modified)
  using 1 OpenMP thread(s) per MPI task
# Simple rigid body system

units           lj
atom_style      atomic

pair_style      lj/cut 2.5

read_data       data.rigid
Reading data file ...
  orthogonal box = (-12 -12 -12) to (12 12 12)
  1 by 1 by 1 MPI processor grid
  reading atoms ...
  81 atoms
  read_data CPU = 0.001 seconds

velocity        all create 100.0 4928459


# 2 chains of connected bodies

group           clump1 id <> 1 9
9 atoms in group clump1
group           clump2 id <> 9 18
10 atoms in group clump2
group           clump3 id <> 18 27
10 atoms in group clump3
group           clump4 id <> 27 36
10 atoms in group clump4
group           clump5 id <> 37 45
9 atoms in group clump5
group           clump6 id <> 45 54
10 atoms in group clump6
group           clump7 id <> 54 63
10 atoms in group clump7
group           clump8 id <> 63 72
10 atoms in group clump8
group           clump9 id <> 72 81
10 atoms in group clump9

fix 1 all poems file connected-bodies2.dat
2 clusters, 9 bodies, 7 joints, 81 atoms

neigh_modify    exclude group clump1 clump1
neigh_modify    exclude group clump2 clump2
neigh_modify    exclude group clump3 clump3
neigh_modify    exclude group clump4 clump4
neigh_modify    exclude group clump5 clump5
neigh_modify    exclude group clump6 clump6
neigh_modify    exclude group clump7 clump7
neigh_modify    exclude group clump8 clump8
neigh_modify    exclude group clump9 clump9

thermo          100

#dump           1 all atom 50 dump.rigid.poems

#dump           2 all image 100 image.*.jpg type type #               axes yes 0.8 0.02 view 60 -30
#dump_modify    2 pad 5

#dump           3 all movie 100 movie.mpg type type #               axes yes 0.8 0.02 view 60 -30
#dump_modify    3 pad 5

timestep        0.0001
thermo          50
run             10000

CITE-CITE-CITE-CITE-CITE-CITE-CITE-CITE-CITE-CITE-CITE-CITE-CITE

Your simulation uses code contributions which should be cited:

- fix poems command: doi:10.1016/j.ijnonlinmec.2008.04.003

@Article{Mukherjee08,
 author = {R. M. Mukherjee and P. S. Crozier and S. J. Plimpton and K. S. Anderson},
 title = {Substructured Molecular Dynamics Using Multibody Dynamics Algorithms},
 journal = {Intl.\ J.\ Non-Linear Mechanics},
 year =    2008,
 volume =  43,
 number =  10,
 pages =   {1040--1055}
}

CITE-CITE-CITE-CITE-CITE-CITE-CITE-CITE-CITE-CITE-CITE-CITE-CITE

Generated 0 of 0 mixed pair_coeff terms from geometric mixing rule
Neighbor list info ...
  update: every = 1 steps, delay = 0 steps, check = yes
  max neighbors/atom: 2000, page size: 100000
  master list distance cutoff = 2.8
  ghost atom cutoff = 2.8
  binsize = 1.4, bins = 18 18 18
  1 neighbor lists, perpetual/occasional/extra = 1 0 0
  (1) pair lj/cut, perpetual
      attributes: half, newton on
      pair build: half/bin/atomonly/newton
      stencil: half/bin/3d
      bin: standard
Per MPI rank memory allocation (min/avg/max) = 3.666 | 3.666 | 3.666 Mbytes
   Step          Temp          E_pair         E_mol          TotEng         Press     
         0   196.00047      3632.2347      0              3668.5311     -2.7403788    
        50   12774.759      1538.7378      0              3904.434       18.086356    
       100   19803.641      237.21132      0              3904.5523     -3.1528278    
       150   20259.6        152.62072      0              3904.3985     -4.6173512    
       200   20705.978      69.977442      0              3904.4178      9.0928146    
       250   19552.211      283.50505      0              3904.2848      15.670464    
       300   19266.324      333.5788       0              3901.4165      7.2119173    
       350   20738.325      63.738945      0              3904.1694     -23.039989    
       400   20616.682      86.082444      0              3903.9864     -13.783584    
       450   19831.326      230.13818      0              3902.6059      0.42074126   
       500   20365.825      131.47231      0              3902.9213      0.69215475   
       550   20794.102      52.163238      0              3902.9229      4.5895354    
       600   20853.873      40.899172      0              3902.7275      2.3593042    
       650   19255.802      336.29509      0              3902.1844      10.341742    
       700   18526.969      471.02462      0              3901.9448     -0.61898691   
       750   18960.662      391.26028      0              3902.494       12.047308    
       800   20142.432      172.05197      0              3902.1319      4.6838632    
       850   19932.48       210.71155      0              3901.9116      3.471602     
       900   20243.528      153.13972      0              3901.9411      3.6490762    
       950   20388.132      126.88722      0              3902.4671     -4.4518463    
      1000   20076.333      184.61916      0              3902.4586     -2.2723139    
      1050   20859.506      39.696992      0              3902.5684      6.45166      
      1100   15284.661      1072.1908      0              3902.6836      21.194042    
      1150   19658.317      261.99809      0              3902.4272     -2.8744219    
      1200   20767.681      56.717093      0              3902.5839     -34.817443    
      1250   20625.583      82.586395      0              3902.1388      11.697328    
      1300   20690.013      71.006479      0              3902.4903     -29.292783    
      1350   20936.019      26.022787      0              3903.0634      1.0316033    
      1400   19753.56       244.81774      0              3902.8844      6.7138457    
      1450   15690.143      998.34271      0              3903.9248      48.124667    
      1500   20234.455      155.92517      0              3903.0465      13.172173    
      1550   20779.63       55.062895      0              3903.1426     -2.6390424    
      1600   20642.757      80.232879      0              3902.9657     -2.4687934    
      1650   18785.716      423.90031      0              3902.7365     -5.6468747    
      1700   20965.076      20.760295      0              3903.1818     -0.45382233   
      1750   18935.466      396.94949      0              3903.5173      25.912008    
      1800   20581.509      91.766145      0              3903.1567      3.8229018    
      1850   20616.968      85.18122       0              3903.1382      4.1907646    
      1900   16600.676      828.66496      0              3902.8643     -0.49197745   
      1950   20175.677      166.50513      0              3902.7416      5.6027746    
      2000   20268.078      149.2566       0              3902.6044     -1.1951453    
      2050   20155.388      170.16328      0              3902.6425     -0.79473147   
      2100   19715.497      250.63403      0              3901.652       3.6719022    
      2150   20677.205      73.792009      0              3902.9041      0.64246071   
      2200   20041.156      191.58407      0              3902.9093      7.4438342    
      2250   19924.453      213.0259       0              3902.7394      2.3652069    
      2300   20432.764      119.13103      0              3902.9763     -11.527566    
      2350   18265.828      520.75569      0              3903.3165     -8.9634198    
      2400   19574.981      277.7963       0              3902.7927      1.8085002    
      2450   20655.975      77.958119      0              3903.1387      3.4001031    
      2500   19783.143      239.3546       0              3902.8995      24.872182    
      2550   16660.113      818.36907      0              3903.5752     -11.766765    
      2600   19789.524      238.61817      0              3903.3448      3.3910931    
      2650   18532.96       471.8684       0              3903.898      -4.812577     
      2700   19081.457      369.81185      0              3903.4151     -0.49159968   
      2750   20370.042      131.6764       0              3903.9064     -3.3818893    
      2800   20727.087      65.499688      0              3903.8491      4.3537941    
      2850   18252.657      523.061        0              3903.1827      11.774986    
      2900   20780.391      55.586541      0              3903.8071      5.4415831    
      2950   20361.047      132.98647      0              3903.5508     -2.4847656    
      3000   19528.633      284.87405      0              3901.2876      14.23453     
      3050   20385.56       127.80448      0              3902.9081     -0.51079949   
      3100   19040.7        376.96613      0              3903.0216     -8.9425331    
      3150   20053.417      189.7312       0              3903.327       4.6695643    
      3200   20862.681      40.219985      0              3903.6795      1.2220199    
      3250   20692.32       71.660474      0              3903.5716      2.118694     
      3300   20560.104      95.905282      0              3903.332       5.9856809    
      3350   20693.236      71.35789       0              3903.4387      3.9315564    
      3400   19045.135      376.64379      0              3903.5206      3.9692419    
      3450   20354.826      134.28157      0              3903.6938      7.6208552    
      3500   20528.053      102.12643      0              3903.6178      7.2863414    
      3550   20525.13       103.01612      0              3903.9661      8.4807852    
      3600   19782.42       240.28031      0              3903.6914      1.0181878    
      3650   20519.52       104.05243      0              3903.9636     -2.36641      
      3700   20024.307      195.68587      0              3903.8908     -6.261818     
      3750   20239.643      155.72722      0              3903.8092     -20.781566    
      3800   20601.2        88.794605      0              3903.8317     -11.491217    
      3850   20973.346      19.675436      0              3903.6283     -9.0554155    
      3900   16212.846      902.10241      0              3904.4813     -19.773976    
      3950   19645.576      264.59477      0              3902.6643      16.065663    
      4000   17439.655      673.47397      0              3903.0398     -3.7357722    
      4050   19305.077      328.50056      0              3903.5148      10.43441     
      4100   18634.36       451.24343      0              3902.0508      3.4327844    
      4150   20249.11       153.64108      0              3903.4763     -2.5190604    
      4200   19177.928      351.81896      0              3903.2871     -5.5110274    
      4250   20754.898      60.189732      0              3903.6893     -3.3019026    
      4300   19693.307      256.31591      0              3903.2245      5.8795929    
      4350   18411.713      494.6957       0              3904.2722      4.2513782    
      4400   18499.707      474.35141      0              3900.2231      10.120914    
      4450   18620.543      449.98137      0              3898.2301      0.74648702   
      4500   18930.676      398.47668      0              3904.1573     -3.3953153    
      4550   18708.382      438.70363      0              3903.2188      8.478793     
      4600   19937.049      211.7655       0              3903.8117      4.8300368    
      4650   19919.169      214.98435      0              3903.7194     -1.0166319    
      4700   19345.329      321.18127      0              3903.6496     -23.032019    
      4750   18391.67       498.629        0              3904.4939     -15.40779     
      4800   18597.103      459.20983      0              3903.1179      9.3900723    
      4850   19857.892      226.27908      0              3903.6665      4.1998427    
      4900   20428.515      120.59483      0              3903.6532     -1.8636046    
      4950   18457.127      485.79992      0              3903.7864     -7.2380409    
      5000   20543.123      99.480661      0              3903.7627     -0.39555479   
      5050   18716.671      436.46735      0              3902.5175      29.395654    
      5100   20048.411      191.03727      0              3903.706      -0.91178091   
      5150   19647.675      265.24989      0              3903.7083      3.8658742    
      5200   20787.465      54.078505      0              3903.6091     -3.3582221    
      5250   20630.096      83.165593      0              3903.5538     -11.86045     
      5300   16598.926      830.02918      0              3903.9043     -1.8793568    
      5350   19114.667      363.424        0              3903.1772      11.894383    
      5400   19563.654      280.22257      0              3903.1215      8.8285523    
      5450   20012.628      197.27325      0              3903.3154      2.1981092    
      5500   17845.428      599.4114       0              3904.1202      20.091131    
      5550   20630.423      82.857857      0              3903.3065      0.93827014   
      5600   19675.125      259.89939      0              3903.4411     -2.4034875    
      5650   19932.349      212.22024      0              3903.3961      2.0064698    
      5700   20499.192      107.17918      0              3903.3259      2.5440649    
      5750   19522.335      287.94941      0              3903.1966     -0.7615272    
      5800   18010.242      568.31554      0              3903.5455     -6.3433889    
      5850   20177.497      166.64243      0              3903.2159     -0.95012013   
      5900   17919.358      584.40694      0              3902.8065      10.49282     
      5950   18390.453      498.29164      0              3903.9311      10.026285    
      6000   18040.232      562.71939      0              3903.5032      0.22172862   
      6050   19777.355      240.88597      0              3903.3592     -3.1899015    
      6100   19132.014      360.58765      0              3903.5531      1.6644736    
      6150   19780.214      240.31985      0              3903.3224      4.2403325    
      6200   18883.45       406.45503      0              3903.3902     -3.5422327    
      6250   19875.924      222.49729      0              3903.2239      3.0535292    
      6300   19882.454      221.4928       0              3903.4287      5.7371152    
      6350   19040.565      377.18193      0              3903.2124     -0.26454332   
      6400   19137.008      359.7025       0              3903.5929      9.5375531    
      6450   19655.205      263.59789      0              3903.4507     -1.8592763    
      6500   18385.045      499.5436       0              3904.1816     -7.8549266    
      6550   18823.423      417.69964      0              3903.5187     -2.8268518    
      6600   19414.118      308.11966      0              3903.3268      4.6627243    
      6650   20533.065      100.75047      0              3903.1698      3.3716972    
      6700   20206.283      161.18079      0              3903.085       5.6368472    
      6750   19517.622      288.72511      0              3903.0995      0.3337076    
      6800   18152.278      541.45525      0              3902.9883     -7.2734044    
      6850   18910.032      401.19322      0              3903.0511      6.2653128    
      6900   18580.612      462.26403      0              3903.1182      15.681586    
      6950   20459.012      114.44928      0              3903.1552     -0.82985388   
      7000   20866.868      38.822988      0              3903.0578     -6.2182429    
      7050   20460.074      114.11492      0              3903.0175     -2.1465384    
      7100   20553.533      96.636153      0              3902.846      -5.105486     
      7150   20447.915      116.30898      0              3902.9599      8.2035464    
      7200   20703.396      69.030336      0              3902.9926      9.1221166    
      7250   19652.215      263.63438      0              3902.9335      17.675447    
      7300   20691.205      71.094727      0              3902.7994     -1.7423404    
      7350   18845.785      412.74313      0              3902.7033     -2.0276584    
      7400   18462.131      483.73088      0              3902.6441     -0.22424322   
      7450   20458.641      113.96173      0              3902.599      -4.9286236    
      7500   17681.258      628.1576       0              3902.4647     -16.803813    
      7550   19149.34       356.35773      0              3902.5318     -5.3481685    
      7600   19723.907      249.45462      0              3902.03        7.2597963    
      7650   19317.18       325.01536      0              3902.271      -0.16642424   
      7700   19620.248      269.22043      0              3902.5996     -4.6771277    
      7750   17751.083      615.46827      0              3902.7058      7.3637076    
      7800   20724.904      64.633157      0              3902.5784      5.2079592    
      7850   19966.924      204.60327      0              3902.1817      6.4943932    
      7900   19730.339      248.88701      0              3902.6536      8.4392109    
      7950   19907.748      216.06587      0              3902.6859     -5.1989259    
      8000   18217.971      528.46486      0              3902.1632     -15.394144    
      8050   17868.898      592.98294      0              3902.0381      9.1139508    
      8100   19370.601      315.22753      0              3902.3759      7.9651368    
      8150   18199.01       532.43818      0              3902.6252      10.07163     
      8200   20646.337      79.222148      0              3902.6179      0.17396159   
      8250   20811.938      48.374613      0              3902.4372     -14.594973    
      8300   20906.571      30.626024      0              3902.2132     -12.34909     
      8350   19873.431      221.86861      0              3902.1335      7.1435615    
      8400   20374.979      127.96219      0              3901.1064      10.527044    
      8450   20701.502      68.073078      0              3901.6846      2.5071154    
      8500   20452.423      113.98399      0              3901.4698      4.2164058    
      8550   19695.059      253.87834      0              3901.1115      8.0656507    
      8600   19447.531      299.45597      0              3900.8505     -0.71982287   
      8650   17202.668      714.55842      0              3900.2378     -16.743518    
      8700   18579.153      459.20676      0              3899.7906      3.4494692    
      8750   20247.204      150.39086      0              3899.8731     -0.1022032    
      8800   18520.797      469.57224      0              3899.3494      5.7412252    
      8850   16011.411      934.80107      0              3899.8772      34.500452    
      8900   19045.914      372.92529      0              3899.9464      10.001612    
      8950   19798.369      233.70991      0              3900.0746      9.3270865    
      9000   17141.02       725.70858      0              3899.9716     -6.7470927    
      9050   17722.847      617.81927      0              3899.828      -10.909071    
      9100   20811.604      45.701413      0              3899.7021     -12.300065    
      9150   18066.034      554.62654      0              3900.1884     -5.7606837    
      9200   19259.884      332.49612      0              3899.1412     -40.231609    
      9250   19116.782      359.42396      0              3899.5689      0.68271469   
      9300   18785.022      421.1178       0              3899.8256     -20.433345    
      9350   19018.32       377.90289      0              3899.814       3.2963902    
      9400   17321.798      691.93839      0              3899.6788      24.552549    
      9450   18318.437      507.12661      0              3899.4297      6.1367468    
      9500   16431.681      857.32722      0              3900.2311      25.431389    
      9550   17920.939      581.45381      0              3900.1462      9.1734747    
      9600   16603.394      825.79291      0              3900.4954     -5.9643183    
      9650   17753.931      607.15019      0              3894.9151      2.2302338    
      9700   17452.305      668.30613      0              3900.2145      2.4635322    
      9750   15955.164      945.80159      0              3900.4617      20.290857    
      9800   17958.495      574.7055       0              3900.3526      12.218625    
      9850   18759.766      423.66965      0              3897.7005     -4.8999337    
      9900   19798.529      232.2507       0              3898.6449      0.10312101   
      9950   18260.87       517.50071      0              3899.1432      5.7261992    
     10000   19116.279      359.58291      0              3899.6345      3.2110764    
Loop time of 3.40298 on 1 procs for 10000 steps with 81 atoms

Performance: 25389.516 tau/day, 2938.601 timesteps/s, 238.027 katom-step/s
99.5% CPU use with 1 MPI tasks x 1 OpenMP threads

MPI task timing breakdown:
Section |  min time  |  avg time  |  max time  |%varavg| %total
---------------------------------------------------------------
Pair    | 0.068835   | 0.068835   | 0.068835   |   0.0 |  2.02
Neigh   | 0.078603   | 0.078603   | 0.078603   |   0.0 |  2.31
Comm    | 0.013957   | 0.013957   | 0.013957   |   0.0 |  0.41
Output  | 0.0034786  | 0.0034786  | 0.0034786  |   0.0 |  0.10
Modify  | 3.2212     | 3.2212     | 3.2212     |   0.0 | 94.66
Other   |            | 0.01692    |            |       |  0.50

Nlocal:             81 ave          81 max          81 min
Histogram: 1 0 0 0 0 0 0 0 0 0
Nghost:            105 ave         105 max         105 min
Histogram: 1 0 0 0 0 0 0 0 0 0
Neighs:            498 ave         498 max         498 min
Histogram: 1 0 0 0 0 0 0 0 0 0

Total # of neighbors = 498
Ave neighs/atom = 6.1481481
Neighbor list builds = 1202
Dangerous builds = 0
Total wall time: 0:00:03
