LAMMPS (7 Feb 2024 - Development - patch_7Feb2024_update1-306-gf3391199e7-modified)
  using 1 OpenMP thread(s) per MPI task
# Simple rigid body system

units           lj
atom_style      atomic

pair_style      lj/cut 2.5

read_data       data.rigid
Reading data file ...
  orthogonal box = (-12 -12 -12) to (12 12 12)
  1 by 2 by 2 MPI processor grid
  reading atoms ...
  81 atoms
  read_data CPU = 0.001 seconds

velocity        all create 100.0 4928459


# 2 chains of connected bodies

group           clump1 id <> 1 9
9 atoms in group clump1
group           clump2 id <> 9 18
10 atoms in group clump2
group           clump3 id <> 18 27
10 atoms in group clump3
group           clump4 id <> 27 36
10 atoms in group clump4
group           clump5 id <> 37 45
9 atoms in group clump5
group           clump6 id <> 45 54
10 atoms in group clump6
group           clump7 id <> 54 63
10 atoms in group clump7
group           clump8 id <> 63 72
10 atoms in group clump8
group           clump9 id <> 72 81
10 atoms in group clump9

fix 1 all poems file connected-bodies2.dat
2 clusters, 9 bodies, 7 joints, 81 atoms

neigh_modify    exclude group clump1 clump1
neigh_modify    exclude group clump2 clump2
neigh_modify    exclude group clump3 clump3
neigh_modify    exclude group clump4 clump4
neigh_modify    exclude group clump5 clump5
neigh_modify    exclude group clump6 clump6
neigh_modify    exclude group clump7 clump7
neigh_modify    exclude group clump8 clump8
neigh_modify    exclude group clump9 clump9

thermo          100

#dump           1 all atom 50 dump.rigid.poems

#dump           2 all image 100 image.*.jpg type type #               axes yes 0.8 0.02 view 60 -30
#dump_modify    2 pad 5

#dump           3 all movie 100 movie.mpg type type #               axes yes 0.8 0.02 view 60 -30
#dump_modify    3 pad 5

timestep        0.0001
thermo          50
run             10000

CITE-CITE-CITE-CITE-CITE-CITE-CITE-CITE-CITE-CITE-CITE-CITE-CITE

Your simulation uses code contributions which should be cited:

- fix poems command: doi:10.1016/j.ijnonlinmec.2008.04.003

@Article{Mukherjee08,
 author = {R. M. Mukherjee and P. S. Crozier and S. J. Plimpton and K. S. Anderson},
 title = {Substructured Molecular Dynamics Using Multibody Dynamics Algorithms},
 journal = {Intl.\ J.\ Non-Linear Mechanics},
 year =    2008,
 volume =  43,
 number =  10,
 pages =   {1040--1055}
}

CITE-CITE-CITE-CITE-CITE-CITE-CITE-CITE-CITE-CITE-CITE-CITE-CITE

Generated 0 of 0 mixed pair_coeff terms from geometric mixing rule
Neighbor list info ...
  update: every = 1 steps, delay = 0 steps, check = yes
  max neighbors/atom: 2000, page size: 100000
  master list distance cutoff = 2.8
  ghost atom cutoff = 2.8
  binsize = 1.4, bins = 18 18 18
  1 neighbor lists, perpetual/occasional/extra = 1 0 0
  (1) pair lj/cut, perpetual
      attributes: half, newton on
      pair build: half/bin/atomonly/newton
      stencil: half/bin/3d
      bin: standard
Per MPI rank memory allocation (min/avg/max) = 3.514 | 3.545 | 3.639 Mbytes
   Step          Temp          E_pair         E_mol          TotEng         Press     
         0   196.00047      3632.2347      0              3668.5311     -2.7403788    
        50   12774.759      1538.7378      0              3904.434       18.086356    
       100   19803.641      237.21132      0              3904.5523     -3.1528278    
       150   20259.6        152.62032      0              3904.3981     -4.6173548    
       200   20705.978      69.977442      0              3904.4178      9.0928146    
       250   19552.211      283.50525      0              3904.285       15.670465    
       300   19266.324      333.5792       0              3901.4169      7.2119197    
       350   20738.325      63.738945      0              3904.1694     -23.03999     
       400   20616.682      86.082444      0              3903.9864     -13.783584    
       450   19831.326      230.13858      0              3902.6063      0.42074361   
       500   20365.825      131.47271      0              3902.9217      0.69215592   
       550   20794.102      52.163238      0              3902.9229      4.5895354    
       600   20853.873      40.899172      0              3902.7275      2.3593042    
       650   19255.802      336.29509      0              3902.1844      10.341742    
       700   18526.969      471.02462      0              3901.9448     -0.61898691   
       750   18960.662      391.26068      0              3902.4944      12.04731     
       800   20142.432      172.05197      0              3902.1319      4.6838632    
       850   19932.48       210.71175      0              3901.9118      3.4716031    
       900   20243.528      153.13972      0              3901.9411      3.6490762    
       950   20388.132      126.88722      0              3902.4671     -4.4518463    
      1000   20076.333      184.61916      0              3902.4586     -2.272315     
      1050   20859.506      39.696992      0              3902.5684      6.45166      
      1100   15284.661      1072.1906      0              3902.6833      21.194041    
      1150   19658.317      261.99809      0              3902.4272     -2.8744196    
      1200   20767.681      56.717093      0              3902.5839     -34.817444    
      1250   20625.583      82.586396      0              3902.1388      11.697328    
      1300   20690.013      71.006479      0              3902.4903     -29.292783    
      1350   20936.019      26.022787      0              3903.0634      1.0316031    
      1400   19753.56       244.81777      0              3902.8844      6.713847     
      1450   15690.145      998.34279      0              3903.9252      48.124638    
      1500   20234.455      155.92476      0              3903.0461      13.17218     
      1550   20779.631      55.063072      0              3903.1428     -2.6390427    
      1600   20642.756      80.233303      0              3902.9659     -2.4688077    
      1650   18785.71       423.90132      0              3902.7365     -5.6468182    
      1700   20965.076      20.760481      0              3903.182      -0.45377448   
      1750   18935.45       396.95247      0              3903.5173      25.912353    
      1800   20581.523      91.763662      0              3903.1567      3.8225817    
      1850   20616.962      85.182351      0              3903.1382      4.1907744    
      1900   16601.061      828.59343      0              3902.8639     -0.49284971   
      1950   20175.618      166.51633      0              3902.7419      5.6031735    
      2000   20266.439      149.55931      0              3902.6036     -1.1956447    
      2050   20159.308      169.44017      0              3902.6453     -0.7983344    
      2100   19743.72       245.40822      0              3901.6527      3.5301052    
      2150   20674.556      74.284034      0              3902.9055      0.61532081   
      2200   19950.784      208.30189      0              3902.8915      7.6523945    
      2250   19817.161      232.7485       0              3902.5932      3.4492756    
      2300   20459.058      114.2307       0              3902.9451     -11.066393    
      2350   18359.21       503.25787      0              3903.1115     -9.0741539    
      2400   19952.914      207.84881      0              3902.8328     -0.53972874   
      2450   19661.352      259.78979      0              3900.781       7.8669927    
      2500   20917.293      29.699201      0              3903.2719      1.1433085    
      2550   20763.955      57.990256      0              3903.1671     -1.1088372    
      2600   20640.005      80.556339      0              3902.7795      9.6127007    
      2650   20823.227      47.292746      0              3903.446       2.2923503    
      2700   20401.43       125.53141      0              3903.5739     -8.0683618    
      2750   20689.918      72.242212      0              3903.7084      0.22078527   
      2800   20783.922      54.87309       0              3903.7476      2.0668249    
      2850   19258.563      336.84835      0              3903.2488      4.2704683    
      2900   20565.694      95.184831      0              3903.6468     -0.24799068   
      2950   20915.041      30.344751      0              3903.5004     -2.9900907    
      3000   19571.964      278.74004      0              3903.1778      12.195325    
      3050   20356.693      133.43974      0              3903.1976      0.11608195   
      3100   20047.888      190.69627      0              3903.268      -4.5895546    
      3150   19834.363      230.59072      0              3903.6209     -1.4352632    
      3200   20213.412      160.25129      0              3903.4757      3.7488266    
      3250   19286.774      332.04497      0              3903.6699     -5.0835358    
      3300   20952.226      23.774103      0              3903.816       0.10019546   
      3350   20407.952      124.62932      0              3903.8798      0.4403531    
      3400   19401.716      311.03567      0              3903.9461      1.8034568    
      3450   20880.78       37.20558       0              3904.0167      6.3948533    
      3500   19529.313      287.50301      0              3904.0425      12.311168    
      3550   20943.604      25.677677      0              3904.1228      5.1786098    
      3600   20272.725      149.91697      0              3904.1254      1.196909     
      3650   19781.047      240.95421      0              3904.1111     -8.5091671    
      3700   20613.433      86.53896       0              3903.8414     -9.1622102    
      3750   20567.605      95.294456      0              3904.1101     -0.11887825   
      3800   19891.98       220.32932      0              3904.0292      6.8801146    
      3850   20669.735      76.407858      0              3904.1365     -7.4310509    
      3900   20908.711      32.197181      0              3904.1807     -4.6573356    
      3950   20822.78       48.03134       0              3904.1018      0.086779759  
      4000   20199.055      163.66262      0              3904.2283      2.0027771    
      4050   20072.638      187.07041      0              3904.2256      4.4103784    
      4100   17724.651      619.7903       0              3902.1331      11.210006    
      4150   20760.201      60.001382      0              3904.4831     -3.8510009    
      4200   19159.102      356.30472      0              3904.2865     -2.3503308    
      4250   19403.974      311.3497       0              3904.6783     -1.2458384    
      4300   20858.687      42.000734      0              3904.7206      2.1750528    
      4350   20486.989      110.94383      0              3904.8306      5.017245     
      4400   20231.073      158.28825      0              3904.7832      7.4295979    
      4450   16369.689      873.39361      0              3904.8175      14.371454    
      4500   20745.196      63.11427       0              3904.8172     -7.855609     
      4550   18688.003      443.85636      0              3904.5977      9.8067426    
      4600   17755.672      616.68475      0              3904.7721     -3.9654703    
      4650   19843.131      230.34486      0              3904.9988     -0.13553926   
      4700   18873.202      409.99341      0              3905.0308      15.912724    
      4750   20605.355      89.223116      0              3905.0295      2.0847611    
      4800   20136.483      176.1278       0              3905.1062     -1.7091113    
      4850   19808.073      236.83278      0              3904.9945      5.0982271    
      4900   19142.083      359.55764      0              3904.3878      8.2072008    
      4950   20539.687      101.08198      0              3904.7277      8.0469319    
      5000   20840.809      45.759021      0              3905.168       4.771755     
      5050   20009.696      199.45528      0              3904.9546      6.1191423    
      5100   20882.034      38.247578      0              3905.2909     -6.3068822    
      5150   20329.869      140.47458      0              3905.2651     -21.720979    
      5200   17334.411      695.67098      0              3905.7471     -9.8243617    
      5250   19602.025      275.17282      0              3905.1775     -3.2371379    
      5300   20858.74       42.630642      0              3905.3603      0.38011789   
      5350   20828.619      48.188698      0              3905.3403      5.7187945    
      5400   20978.428      20.447148      0              3905.3413      6.1168011    
      5450   20115.374      179.9294       0              3904.9987      8.6440563    
      5500   20522.744      104.7733       0              3905.2815     -2.6561664    
      5550   20625.724      85.600795      0              3905.1792     -1.327206     
      5600   19559.638      282.68742      0              3904.8426      17.893028    
      5650   20552.224      98.978098      0              3904.9455      2.4489071    
      5700   19982.142      204.09989      0              3904.4966      9.9034011    
      5750   20408.825      125.30875      0              3904.7209      1.2515548    
      5800   19773.143      243.02134      0              3904.7144     -2.6729948    
      5850   20781.934      56.310486      0              3904.8168     -1.659054     
      5900   19807.668      236.54392      0              3904.6306      0.49776361   
      5950   20741.237      63.921667      0              3904.8916      4.2800039    
      6000   20322.7        140.98125      0              3904.4442      7.4978024    
      6050   20858.439      42.383629      0              3905.0575     -4.6872323    
      6100   20212.538      162.022        0              3905.0847     -7.0796165    
      6150   18513.957      476.7087       0              3905.2193      7.107138     
      6200   20802.734      52.621638      0              3904.9797      3.7242428    
      6250   20818.044      49.717458      0              3904.9109     -0.91041774   
      6300   19987.245      203.4635       0              3904.8052     -0.86714551   
      6350   20806.906      51.449749      0              3904.5806     -4.0699629    
      6400   20530.3        103.09809      0              3905.0055      1.660177     
      6450   20667.085      77.715553      0              3904.9535      0.99217521   
      6500   20515.816      105.81762      0              3905.0428      3.0994091    
      6550   20548.348      99.627131      0              3904.8769     -0.77417688   
      6600   19827.378      232.99889      0              3904.7355      3.295082     
      6650   19237.199      342.94808      0              3905.3923     -6.2226637    
      6700   19611.621      273.139        0              3904.9206     -3.5465535    
      6750   20874.805      39.1893        0              3904.8939     -0.051336814  
      6800   19433.717      305.99952      0              3904.8361     -19.858865    
      6850   20119.223      179.19987      0              3904.9818      4.6466283    
      6900   20467.389      114.77871      0              3905.0359      10.290214    
      6950   20334.202      139.43289      0              3905.0259      7.5448433    
      7000   20504.591      107.86929      0              3905.0158     -0.10092084   
      7050   17969.214      576.83722      0              3904.4694      10.852897    
      7100   19186.398      351.80467      0              3904.8414      0.24779979   
      7150   20261.23       152.54684      0              3904.6265     -7.0175844    
      7200   20696.821      71.985154      0              3904.7298      3.9649146    
      7250   18456.212      487.1819       0              3904.9989      5.8280225    
      7300   17705.1        625.95928      0              3904.6816      6.8298215    
      7350   17032.039      750.96958      0              3905.051       11.833303    
      7400   20557.431      97.599213      0              3904.5308      0.43747863   
      7450   20466.847      114.5693       0              3904.7261      1.9786538    
      7500   20416.862      123.31643      0              3904.2168     -2.9094738    
      7550   18433.95       487.50767      0              3901.2022      4.0921479    
      7600   19950.107      209.92208      0              3904.3863      3.9114888    
      7650   16037.844      934.94785      0              3904.9189     -1.2183461    
      7700   20145.239      173.99945      0              3904.5993      3.1185554    
      7750   18672.579      446.35236      0              3904.2373      4.1086445    
      7800   19740.616      249.10395      0              3904.7737      4.6048428    
      7850   20801.917      52.742096      0              3904.9489      1.5978265    
      7900   20305.348      144.57749      0              3904.8272      2.7348725    
      7950   20221.086      159.31958      0              3903.9652      7.1592496    
      8000   20826.907      47.953835      0              3904.7884      6.2728901    
      8050   18646.418      452.02126      0              3905.0617      5.9716218    
      8100   20653.653      80.183024      0              3904.9336     -1.8274783    
      8150   20843.275      45.172279      0              3905.0379     -6.9445524    
      8200   20364.78       133.45082      0              3904.7064     -12.094533    
      8250   18163.745      541.08818      0              3904.7447     -2.6103997    
      8300   20889.664      36.793018      0              3905.2494     -9.2650749    
      8350   20307.367      144.33088      0              3904.9543     -0.65999546   
      8400   20485.202      111.41317      0              3904.9691     -0.42802224   
      8450   20864.395      41.146879      0              3904.9238      7.7084978    
      8500   20901.899      34.291267      0              3905.0132     -5.2070823    
      8550   20211.78       162.02611      0              3904.9484     -5.8363409    
      8600   19639.538      268.05291      0              3905.0044      3.8180903    
      8650   19919.356      216.24885      0              3905.0185      0.17130921   
      8700   19499.449      293.97522      0              3904.9843     -4.897872     
      8750   20270.687      151.1571       0              3904.9879      0.28558082   
      8800   18804.137      422.61651      0              3904.864       15.351015    
      8850   20654.443      80.110976      0              3905.0078      4.1368065    
      8900   19953.725      209.81046      0              3904.9447      10.71743     
      8950   18195.013      536.67764      0              3906.1245      21.497802    
      9000   20478.531      112.78923      0              3905.1098     -13.053056    
      9050   20866.484      40.901611      0              3905.0653     -3.6134066    
      9100   20322.595      141.61419      0              3905.0577      15.459697    
      9150   20855.456      42.94311       0              3905.0646      4.9123213    
      9200   20208.201      162.79363      0              3905.0531      2.5454472    
      9250   18394.203      498.63686      0              3904.9707      0.041811692  
      9300   18776.997      427.7118       0              3904.9335     -7.652483     
      9350   18330.751      510.07857      0              3904.6621      8.3424059    
      9400   17538.366      657.08623      0              3904.9319      8.5478668    
      9450   20309.605      143.77142      0              3904.8093      6.6831447    
      9500   19982.331      203.81545      0              3904.2471     -7.6711411    
      9550   19410.612      310.1139       0              3904.6717      5.3983286    
      9600   19198.225      349.06634      0              3904.2932     -4.107658     
      9650   19388.043      314.31566      0              3904.6939      6.1198194    
      9700   18849.37       414.1045       0              3904.7286      5.4468861    
      9750   18263.312      523.38716      0              3905.4819     -0.56480349   
      9800   20421.858      122.53973      0              3904.3653     -15.641399    
      9850   17678.959      631.15683      0              3905.0381     -1.805446     
      9900   19421.046      306.67446      0              3903.1644      7.0287747    
      9950   18460.64       483.18902      0              3901.8261      3.658774     
     10000   19781.151      239.38136      0              3902.5575      6.3312911    
Loop time of 3.21586 on 4 procs for 10000 steps with 81 atoms

Performance: 26866.868 tau/day, 3109.591 timesteps/s, 251.877 katom-step/s
99.4% CPU use with 4 MPI tasks x 1 OpenMP threads

MPI task timing breakdown:
Section |  min time  |  avg time  |  max time  |%varavg| %total
---------------------------------------------------------------
Pair    | 0.0068055  | 0.017185   | 0.043838   |  11.8 |  0.53
Neigh   | 0.010594   | 0.021601   | 0.042532   |   8.5 |  0.67
Comm    | 0.068664   | 0.091849   | 0.10748    |   4.8 |  2.86
Output  | 0.0038351  | 0.0044469  | 0.0057465  |   1.1 |  0.14
Modify  | 2.8494     | 2.9033     | 2.9663     |   2.5 | 90.28
Other   |            | 0.1775     |            |       |  5.52

Nlocal:          20.25 ave          36 max           0 min
Histogram: 1 0 0 0 0 1 0 1 0 1
Nghost:          38.25 ave          50 max          28 min
Histogram: 1 0 1 0 0 1 0 0 0 1
Neighs:          126.5 ave         213 max           0 min
Histogram: 1 0 0 0 1 0 0 0 0 2

Total # of neighbors = 506
Ave neighs/atom = 6.2469136
Neighbor list builds = 1207
Dangerous builds = 0
Total wall time: 0:00:03
