LAMMPS (7 Feb 2024 - Development - patch_7Feb2024_update1-306-gf3391199e7-modified)
  using 1 OpenMP thread(s) per MPI task
# Simple rigid body system

units           lj
atom_style      atomic

pair_style      lj/cut 2.5

read_data       data.rigid
Reading data file ...
  orthogonal box = (-12 -12 -12) to (12 12 12)
  1 by 2 by 2 MPI processor grid
  reading atoms ...
  81 atoms
  read_data CPU = 0.001 seconds

velocity        all create 100.0 4928459

# 1 chain of connected bodies

group           clump1 id <> 1 9
9 atoms in group clump1
group           clump2 id <> 9 18
10 atoms in group clump2
group           clump3 id <> 18 27
10 atoms in group clump3
group           clump4 id <> 27 36
10 atoms in group clump4
group           clump5 id <> 36 45
10 atoms in group clump5
group           clump6 id <> 45 54
10 atoms in group clump6
group           clump7 id <> 54 63
10 atoms in group clump7
group           clump8 id <> 63 72
10 atoms in group clump8
group           clump9 id <> 72 81
10 atoms in group clump9

fix 1 all poems group clump1 clump2 clump3 clump4 clump5                       clump6 clump7 clump8 clump9
1 clusters, 9 bodies, 8 joints, 81 atoms

neigh_modify    exclude group clump1 clump1
neigh_modify    exclude group clump2 clump2
neigh_modify    exclude group clump3 clump3
neigh_modify    exclude group clump4 clump4
neigh_modify    exclude group clump5 clump5
neigh_modify    exclude group clump6 clump6
neigh_modify    exclude group clump7 clump7
neigh_modify    exclude group clump8 clump8
neigh_modify    exclude group clump9 clump9

thermo          100

#dump           1 all atom 50 dump.rigid.poems

#dump           2 all image 100 image.*.jpg type type #               axes yes 0.8 0.02 view 60 -30
#dump_modify    2 pad 5

#dump           3 all movie 100 movie.mpg type type #               axes yes 0.8 0.02 view 60 -30
#dump_modify    3 pad 5

timestep        0.0001
thermo          50
run             10000

CITE-CITE-CITE-CITE-CITE-CITE-CITE-CITE-CITE-CITE-CITE-CITE-CITE

Your simulation uses code contributions which should be cited:

- fix poems command: doi:10.1016/j.ijnonlinmec.2008.04.003

@Article{Mukherjee08,
 author = {R. M. Mukherjee and P. S. Crozier and S. J. Plimpton and K. S. Anderson},
 title = {Substructured Molecular Dynamics Using Multibody Dynamics Algorithms},
 journal = {Intl.\ J.\ Non-Linear Mechanics},
 year =    2008,
 volume =  43,
 number =  10,
 pages =   {1040--1055}
}

CITE-CITE-CITE-CITE-CITE-CITE-CITE-CITE-CITE-CITE-CITE-CITE-CITE

Generated 0 of 0 mixed pair_coeff terms from geometric mixing rule
Neighbor list info ...
  update: every = 1 steps, delay = 0 steps, check = yes
  max neighbors/atom: 2000, page size: 100000
  master list distance cutoff = 2.8
  ghost atom cutoff = 2.8
  binsize = 1.4, bins = 18 18 18
  1 neighbor lists, perpetual/occasional/extra = 1 0 0
  (1) pair lj/cut, perpetual
      attributes: half, newton on
      pair build: half/bin/atomonly/newton
      stencil: half/bin/3d
      bin: standard
Per MPI rank memory allocation (min/avg/max) = 3.514 | 3.545 | 3.639 Mbytes
   Step          Temp          E_pair         E_mol          TotEng         Press     
         0   217.7783       3430.3907      0              3466.6871     -2.7403788    
        50   13679.637      1404.2468      0              3684.1863      12.446066    
       100   16777.225      888.87665      0              3685.0808     -31.828677    
       150   19595.365      418.45042      0              3684.3446      40.709078    
       200   18524.188      596.47273      0              3683.8375     -0.8159371    
       250   21015.789      180.96521      0              3683.5967     -10.042469    
       300   20785.513      219.25314      0              3683.5053      2.6452719    
       350   21072.46       171.2554       0              3683.3321      7.0609024    
       400   19956.414      356.36381      0              3682.4328      19.320259    
       450   20724.42       227.73284      0              3681.8028      8.1259249    
       500   20152.578      322.71466      0              3681.4777      5.4929878    
       550   20017.022      345.29701      0              3681.4673      5.4661666    
       600   17897.743      698.72196      0              3681.6791      3.2854742    
       650   17297.758      796.60256      0              3679.5623      15.191113    
       700   18581.934      584.29715      0              3681.2861      5.1588289    
       750   21774.158      52.821062      0              3681.8474     -10.775664    
       800   21604.055      81.188546      0              3681.8644     -3.2045743    
       850   17821.483      711.53827      0              3681.7854      7.4384277    
       900   21033.292      175.98127      0              3681.5299     -16.345167    
       950   20968.166      186.59847      0              3681.2929     -2.330456     
      1000   20490.66       266.19375      0              3681.3037      11.787983    
      1050   20222.396      310.94072      0              3681.34       -8.3459539    
      1100   21321.687      127.61533      0              3681.2299     -1.2184718    
      1150   20849.582      206.01695      0              3680.9472     -0.86699156   
      1200   21815.003      45.317416      0              3681.1512      1.5988314    
      1250   18655.437      572.41453      0              3681.654       10.064076    
      1300   20780.781      217.36505      0              3680.8286      6.0538619    
      1350   20558.972      254.36481      0              3680.8601     -3.6773978    
      1400   21485.029      99.812941      0              3680.6511     -16.185471    
      1450   21771.108      52.159596      0              3680.6775     -2.4756679    
      1500   21520.948      93.503942      0              3680.3286      2.1023578    
      1550   21351.418      121.6814       0              3680.2511      5.5159969    
      1600   20778.805      216.92173      0              3680.0559      15.089183    
      1650   21477.639      100.21825      0              3679.8247     -1.1045878    
      1700   18501.342      596.47873      0              3680.0357     -15.679646    
      1750   18563.643      587.34777      0              3681.2882      33.532181    
      1800   19110.189      494.82286      0              3679.8543      18.024038    
      1850   21364.195      119.2348       0              3679.9339      2.5291365    
      1900   20146.638      322.1467       0              3679.9197      5.7312008    
      1950   20692.67       231.25355      0              3680.0319      4.297766     
      2000   20943.904      189.1122       0              3679.7629     -22.645478    
      2050   19668.123      401.81885      0              3679.8394      3.6254541    
      2100   20280.531      299.74669      0              3679.8352      7.4808896    
      2150   19182.034      483.49332      0              3680.4991      22.616956    
      2200   21299.885      130.75166      0              3680.7326      4.7110487    
      2250   20487.525      266.54254      0              3681.1301     -8.6422018    
      2300   18654.522      572.01515      0              3681.1021     -5.2661499    
      2350   21512.897      95.719565      0              3681.2024     -9.3553511    
      2400   21467.306      103.39279      0              3681.2771     -29.588234    
      2450   20097.914      332.63812      0              3682.2904      35.845886    
      2500   20762.362      222.00787      0              3682.4016     -12.509872    
      2550   20417.692      279.31982      0              3682.2685     -22.320693    
      2600   21468.738      104.15905      0              3682.2821     -10.050868    
      2650   20742.305      225.31121      0              3682.362       5.2887043    
      2700   18575.367      586.68141      0              3682.5759      21.990986    
      2750   20577.766      252.52411      0              3682.1518     -5.8697894    
      2800   20683.69       234.89244      0              3682.1741     -6.7464964    
      2850   16088.831      1001.1454      0              3682.6172      27.686908    
      2900   20715.565      229.46407      0              3682.0583      6.5207552    
      2950   19969.143      353.98595      0              3682.1765      5.3891903    
      3000   20429.639      277.11063      0              3682.0505     -10.302229    
      3050   19840.965      375.78339      0              3682.611      -6.1970263    
      3100   19149.859      490.69976      0              3682.3429      22.372557    
      3150   20421.772      278.3256       0              3681.9543      8.7381033    
      3200   19492.899      433.22833      0              3682.0448      4.3431162    
      3250   20231.034      310.12852      0              3681.9675     -3.2734265    
      3300   19420.155      445.8855       0              3682.578       14.157316    
      3350   21386.445      117.85565      0              3682.2631      1.9590216    
      3400   20372.28       286.91596      0              3682.296       8.2472357    
      3450   20870.351      203.91619      0              3682.308       7.9601676    
      3500   21469.401      104.14434      0              3682.3778      2.5067348    
      3550   21630.799      77.317219      0              3682.4504     -6.5148709    
      3600   21291.513      133.97558      0              3682.5611     -8.8761801    
      3650   19138.211      493.09199      0              3682.7937      25.075733    
      3700   21282.953      135.36631      0              3682.5252     -8.1163312    
      3750   20660.876      239.15863      0              3682.638      -24.806983    
      3800   20161.169      322.26065      0              3682.4555      13.204808    
      3850   19477.477      435.56421      0              3681.8105      31.065794    
      3900   21108.425      164.35492      0              3682.4258      0.37839399   
      3950   21195.124      150.68497      0              3683.2056     -10.098889    
      4000   21477.025      103.95273      0              3683.4568     -4.139886     
      4050   20603.58       249.35497      0              3683.2849      1.3114756    
      4100   19724.656      396.37166      0              3683.8144     -6.6159163    
      4150   20768.839      221.21034      0              3682.6835     -3.4649381    
      4200   19675.942      404.01538      0              3683.339       17.586922    
      4250   21022.927      179.12036      0              3682.9415      0.59436606   
      4300   20511.134      264.68208      0              3683.2044      8.8380269    
      4350   21038.204      177.05256      0              3683.42       -1.3698914    
      4400   18866.857      539.5082       0              3683.9844      10.461602    
      4450   21607.322      83.184316      0              3684.4046     -1.5071605    
      4500   20895.628      201.9445       0              3684.5492      5.7578991    
      4550   20210.744      316.5044       0              3684.9617      5.6678493    
      4600   20416.269      282.24539      0              3684.9569     -3.0067543    
      4650   18811.283      549.46791      0              3684.6817      7.5182454    
      4700   20899.462      201.92249      0              3685.1661      2.6998262    
      4750   20771.285      223.44307      0              3685.3239      12.165622    
      4800   21834.653      46.231798      0              3685.3407      2.021615     
      4850   21282.348      138.2858       0              3685.3437      4.2174481    
      4900   21892.433      36.607993      0              3685.3468     -10.208769    
      4950   21731.003      63.442124      0              3685.2759     -26.918841    
      5000   21476.967      105.69026      0              3685.1848     -10.007088    
      5050   20485.84       270.81814      0              3685.1248      0.65119013   
      5100   21485.763      104.28837      0              3685.2488     -5.3826149    
      5150   21485.096      104.44183      0              3685.2912     -1.274141     
      5200   21388.175      120.61165      0              3685.3074     -7.7953815    
      5250   20656.672      242.51472      0              3685.2934     -4.4067447    
      5300   20132.262      330.10916      0              3685.4862     -11.466755    
      5350   19080.054      505.63228      0              3685.6413      4.6356684    
      5400   21683.337      71.886529      0              3685.7761     -8.4520633    
      5450   20632.669      246.77173      0              3685.5499      5.5429152    
      5500   20896.92       202.76984      0              3685.5898      3.9762924    
      5550   21172.409      156.92085      0              3685.6557      2.6573146    
      5600   20695.91       236.255        0              3685.5733     -18.109158    
      5650   21741.679      61.956471      0              3685.5697     -3.7520994    
      5700   21164.94       157.60813      0              3685.098       2.4020734    
      5750   21075.393      172.84386      0              3685.4093      7.646915     
      5800   20638.831      245.82076      0              3685.6259      8.3009859    
      5850   20262.966      308.37489      0              3685.5359      7.5861941    
      5900   21730.418      63.97074       0              3685.7071     -6.2813552    
      5950   21820.659      48.990687      0              3685.7673     -5.6400713    
      6000   21027.051      181.2853       0              3685.7937      1.213872     
      6050   14422.66       1284.4174      0              3688.194       57.908667    
      6100   19852.685      377.0743       0              3685.8552     -5.1418207    
      6150   20678.783      239.10987      0              3685.5737     -11.982018    
      6200   19788.097      387.62127      0              3685.6375     -2.684571     
      6250   21611.523      83.575418      0              3685.496       1.7544019    
      6300   19214.109      482.45067      0              3684.8021      24.711965    
      6350   18800.074      553.07966      0              3686.4254      11.125791    
      6400   19771.53       390.40388      0              3685.659      -6.1254643    
      6450   20192.282      319.53713      0              3684.9175      13.959536    
      6500   20360.332      292.28682      0              3685.6755      4.4265274    
      6550   21778.739      56.056362      0              3685.8462     -4.6705452    
      6600   16612.689      917.96646      0              3686.748      -32.617733    
      6650   21068.368      174.38501      0              3685.7797     -0.84207954   
      6700   20749.675      227.41249      0              3685.6916      2.9235268    
      6750   20594.96       253.47665      0              3685.9699     -12.440843    
      6800   19974.133      357.05242      0              3686.0745      34.064247    
      6850   21802.523      52.05173       0              3685.8055     -1.4073818    
      6900   18644.747      577.97031      0              3685.4282      19.759245    
      6950   20463.441      274.90799      0              3685.4815      1.2230553    
      7000   20213.292      316.50714      0              3685.3892      23.9288      
      7050   21571.525      90.089593      0              3685.3437     -26.539261    
      7100   20480.036      271.77541      0              3685.1147     -0.13969301   
      7150   21064.842      174.4144       0              3685.2214      3.5451037    
      7200   21179.296      154.8514       0              3684.7341     -5.007319     
      7250   20714.182      232.84783      0              3685.2115      10.601943    
      7300   19341.561      461.91524      0              3685.5087      18.89547     
      7350   21011.016      183.55321      0              3685.3893      1.6481821    
      7400   21206.598      151.07364      0              3685.5066      1.5040526    
      7450   19999.404      352.83129      0              3686.0652     -18.58587     
      7500   21581.952      88.519362      0              3685.5114     -4.0009441    
      7550   21652.618      76.962392      0              3685.7321     -5.758242     
      7600   21207.411      150.86712      0              3685.4355     -0.023727123  
      7650   21756.168      59.804311      0              3685.8323      0.76768563   
      7700   21825.037      48.380795      0              3685.8869     -0.11098207   
      7750   21581.665      89.078228      0              3686.0223     -0.50220667   
      7800   21714.856      66.946216      0              3686.0889      4.637364     
      7850   21319.774      132.905        0              3686.2007      3.4663558    
      7900   21730.647      64.263898      0              3686.0384      1.0898763    
      7950   21597.663      86.255996      0              3685.8664      3.2847476    
      8000   21724.118      65.137632      0              3685.8239      3.7318614    
      8050   19672.702      406.56191      0              3685.3456     -0.37960768   
      8100   21696.026      69.71367       0              3685.7179     -6.2273451    
      8150   18869.648      540.09908      0              3685.0403      22.915669    
      8200   21717.002      66.01922       0              3685.5196     -4.8553801    
      8250   20292.502      303.3445       0              3685.4282     -13.203008    
      8300   21314.341      133.18215      0              3685.5724     -10.023288    
      8350   20992.272      186.87998      0              3685.592      -4.5538872    
      8400   21726.088      64.55825       0              3685.573      -5.1228188    
      8450   21188.98       153.93449      0              3685.4311     -6.8622554    
      8500   21113.87       166.54678      0              3685.5251      2.6009221    
      8550   20620.735      248.66776      0              3685.4569     -8.0047984    
      8600   19715.276      399.79648      0              3685.6758     -10.980391    
      8650   18898.94       535.95488      0              3685.7782      22.513752    
      8700   21692.841      70.067726      0              3685.5413     -3.3917479    
      8750   20242.909      311.87115      0              3685.6893      17.996012    
      8800   19253.702      476.69077      0              3685.6411      3.7170165    
      8850   17625.913      748.07802      0              3685.7302      11.095548    
      8900   21554.709      92.817998      0              3685.2696      0.30720376   
      8950   21585.337      87.685891      0              3685.2421     -0.22047593   
      9000   17454.847      776.14227      0              3685.2834      22.631913    
      9050   20023.106      347.35041      0              3684.5348      4.0008899    
      9100   21100.691      168.07199      0              3684.8539      2.9016681    
      9150   20307.206      299.45669      0              3683.991       2.1630277    
      9200   21747.579      60.245542      0              3684.8421     -15.419887    
      9250   21525.571      97.26157       0              3684.8567     -7.0449498    
      9300   15084.149      1170.5925      0              3684.6173      43.259279    
      9350   21198.648      151.70957      0              3684.8176      3.0716881    
      9400   17771.533      724.65805      0              3686.5802     -18.320033    
      9450   20029.819      346.23988      0              3684.543      -4.0976705    
      9500   19913.342      365.57743      0              3684.4677      2.4909741    
      9550   20594.619      252.35578      0              3684.7923     -4.4263632    
      9600   21013.668      182.33425      0              3684.6122     -1.9371919    
      9650   16915.052      865.78051      0              3684.9559      1.8697619    
      9700   18789.78       553.48818      0              3685.1181      15.642074    
      9750   21236.716      145.75801      0              3685.2107     -3.6730702    
      9800   20972.957      189.72849      0              3685.2214      0.85691231   
      9850   19658.721      408.29826      0              3684.7517      14.8446      
      9900   21624.401      81.484234      0              3685.5511      3.4507557    
      9950   21883.535      38.474607      0              3685.7304      0.3038348    
     10000   21355.31       126.72088      0              3685.9392     -5.5872974    
Loop time of 3.32742 on 4 procs for 10000 steps with 81 atoms

Performance: 25966.084 tau/day, 3005.334 timesteps/s, 243.432 katom-step/s
99.4% CPU use with 4 MPI tasks x 1 OpenMP threads

MPI task timing breakdown:
Section |  min time  |  avg time  |  max time  |%varavg| %total
---------------------------------------------------------------
Pair    | 0.0073125  | 0.031081   | 0.067049   |  13.5 |  0.93
Neigh   | 0.010912   | 0.030444   | 0.058202   |  10.8 |  0.91
Comm    | 0.084952   | 0.12347    | 0.18323    |  10.9 |  3.71
Output  | 0.0033463  | 0.0038996  | 0.0047508  |   0.9 |  0.12
Modify  | 2.8501     | 2.9361     | 3.0072     |   3.5 | 88.24
Other   |            | 0.2024     |            |       |  6.08

Nlocal:          20.25 ave          81 max           0 min
Histogram: 3 0 0 0 0 0 0 0 0 1
Nghost:           33.5 ave          66 max           2 min
Histogram: 1 1 0 0 0 0 0 1 0 1
Neighs:          212.5 ave         850 max           0 min
Histogram: 3 0 0 0 0 0 0 0 0 1

Total # of neighbors = 850
Ave neighs/atom = 10.493827
Neighbor list builds = 1246
Dangerous builds = 0
Total wall time: 0:00:03
