LAMMPS (7 Feb 2024 - Development - patch_7Feb2024_update1-306-gf3391199e7-modified)
  using 1 OpenMP thread(s) per MPI task
# Simple rigid body system

units           lj
atom_style      atomic

pair_style      lj/cut 2.5

read_data       data.rigid
Reading data file ...
  orthogonal box = (-12 -12 -12) to (12 12 12)
  1 by 1 by 1 MPI processor grid
  reading atoms ...
  81 atoms
  read_data CPU = 0.001 seconds

velocity        all create 100.0 4928459

# 1 chain of connected bodies

group           clump1 id <> 1 9
9 atoms in group clump1
group           clump2 id <> 9 18
10 atoms in group clump2
group           clump3 id <> 18 27
10 atoms in group clump3
group           clump4 id <> 27 36
10 atoms in group clump4
group           clump5 id <> 36 45
10 atoms in group clump5
group           clump6 id <> 45 54
10 atoms in group clump6
group           clump7 id <> 54 63
10 atoms in group clump7
group           clump8 id <> 63 72
10 atoms in group clump8
group           clump9 id <> 72 81
10 atoms in group clump9

fix 1 all poems file connected-bodies.dat
1 clusters, 9 bodies, 8 joints, 81 atoms

neigh_modify    exclude group clump1 clump1
neigh_modify    exclude group clump2 clump2
neigh_modify    exclude group clump3 clump3
neigh_modify    exclude group clump4 clump4
neigh_modify    exclude group clump5 clump5
neigh_modify    exclude group clump6 clump6
neigh_modify    exclude group clump7 clump7
neigh_modify    exclude group clump8 clump8
neigh_modify    exclude group clump9 clump9

thermo          100

#dump           1 all atom 50 dump.rigid.poems

#dump           2 all image 100 image.*.jpg type type #               axes yes 0.8 0.02 view 60 -30
#dump_modify    2 pad 5

#dump           3 all movie 100 movie.mpg type type #               axes yes 0.8 0.02 view 60 -30
#dump_modify    3 pad 5

timestep        0.0001
thermo          50
run             10000

CITE-CITE-CITE-CITE-CITE-CITE-CITE-CITE-CITE-CITE-CITE-CITE-CITE

Your simulation uses code contributions which should be cited:

- fix poems command: doi:10.1016/j.ijnonlinmec.2008.04.003

@Article{Mukherjee08,
 author = {R. M. Mukherjee and P. S. Crozier and S. J. Plimpton and K. S. Anderson},
 title = {Substructured Molecular Dynamics Using Multibody Dynamics Algorithms},
 journal = {Intl.\ J.\ Non-Linear Mechanics},
 year =    2008,
 volume =  43,
 number =  10,
 pages =   {1040--1055}
}

CITE-CITE-CITE-CITE-CITE-CITE-CITE-CITE-CITE-CITE-CITE-CITE-CITE

Generated 0 of 0 mixed pair_coeff terms from geometric mixing rule
Neighbor list info ...
  update: every = 1 steps, delay = 0 steps, check = yes
  max neighbors/atom: 2000, page size: 100000
  master list distance cutoff = 2.8
  ghost atom cutoff = 2.8
  binsize = 1.4, bins = 18 18 18
  1 neighbor lists, perpetual/occasional/extra = 1 0 0
  (1) pair lj/cut, perpetual
      attributes: half, newton on
      pair build: half/bin/atomonly/newton
      stencil: half/bin/3d
      bin: standard
Per MPI rank memory allocation (min/avg/max) = 3.666 | 3.666 | 3.666 Mbytes
   Step          Temp          E_pair         E_mol          TotEng         Press     
         0   217.7783       3430.3907      0              3466.6871     -2.7403788    
        50   13679.637      1404.2468      0              3684.1863      12.446066    
       100   16777.225      888.87665      0              3685.0808     -31.828677    
       150   19595.365      418.45042      0              3684.3446      40.709078    
       200   18524.188      596.47273      0              3683.8375     -0.8159371    
       250   21015.789      180.96521      0              3683.5967     -10.042469    
       300   20785.513      219.25314      0              3683.5053      2.6452719    
       350   21072.46       171.2554       0              3683.3321      7.0609024    
       400   19956.414      356.36381      0              3682.4328      19.320259    
       450   20724.42       227.73284      0              3681.8028      8.1259249    
       500   20152.578      322.71466      0              3681.4777      5.4929878    
       550   20017.022      345.29701      0              3681.4673      5.4661666    
       600   17897.743      698.72196      0              3681.6791      3.2854742    
       650   17297.758      796.60256      0              3679.5623      15.191113    
       700   18581.934      584.29715      0              3681.2861      5.1588289    
       750   21774.158      52.821062      0              3681.8474     -10.775664    
       800   21604.055      81.188546      0              3681.8644     -3.2045743    
       850   17821.483      711.53827      0              3681.7854      7.4384279    
       900   21033.292      175.98127      0              3681.5299     -16.345167    
       950   20968.166      186.59847      0              3681.2929     -2.330456     
      1000   20490.66       266.19375      0              3681.3037      11.787983    
      1050   20222.396      310.94072      0              3681.34       -8.3459539    
      1100   21321.687      127.61533      0              3681.2299     -1.2184717    
      1150   20849.582      206.01695      0              3680.9472     -0.86699135   
      1200   21815.003      45.317412      0              3681.1512      1.5988314    
      1250   18655.437      572.41453      0              3681.654       10.06408     
      1300   20780.781      217.36509      0              3680.8286      6.0538614    
      1350   20558.971      254.36485      0              3680.8601     -3.6773923    
      1400   21485.029      99.812891      0              3680.6511     -16.185475    
      1450   21771.107      52.159624      0              3680.6775     -2.4756668    
      1500   21520.948      93.503905      0              3680.3286      2.1023577    
      1550   21351.418      121.68136      0              3680.2511      5.5159922    
      1600   20778.805      216.92182      0              3680.0559      15.089193    
      1650   21477.637      100.21853      0              3679.8247     -1.1045536    
      1700   18501.335      596.47986      0              3680.0357     -15.679729    
      1750   18563.64       587.34819      0              3681.2882      33.532254    
      1800   19110.181      494.82407      0              3679.8543      18.02406     
      1850   21364.186      119.23625      0              3679.9339      2.5290683    
      1900   20146.613      322.15086      0              3679.9197      5.7314718    
      1950   20692.671      231.25334      0              3680.0319      4.2977791    
      2000   20943.905      189.11211      0              3679.7629     -22.644575    
      2050   19667.965      401.84519      0              3679.8394      3.6247265    
      2100   20280.309      299.78396      0              3679.8355      7.4806221    
      2150   19181.565      483.57073      0              3680.4982      22.62593     
      2200   21300.569      130.63684      0              3680.7316      4.7090558    
      2250   20486.112      266.77753      0              3681.1296     -8.6505201    
      2300   18651.193      572.56862      0              3681.1008     -5.2604682    
      2350   21514.435      95.462414      0              3681.2016     -9.3718933    
      2400   21464.75       103.81741      0              3681.2757     -29.521964    
      2450   20103.185      331.7557       0              3682.2865      35.600257    
      2500   20767.309      221.18002      0              3682.3981     -12.41075     
      2550   20461.88       271.93545      0              3682.2488     -22.542329    
      2600   21463.807      104.97703      0              3682.2782     -10.118749    
      2650   20902.135      198.66716      0              3682.3564      5.0103958    
      2700   18582.384      585.6465       0              3682.7106      22.212808    
      2750   21079.961      168.86261      0              3682.1894     -8.8401109    
      2800   21425.876      111.18035      0              3682.1598     -6.7933883    
      2850   17414.605      780.0645       0              3682.4987      28.180022    
      2900   19978.961      352.1845       0              3682.0113      8.4280816    
      2950   21189.046      150.47808      0              3681.9858      2.8898793    
      3000   19271.367      469.54947      0              3681.4439     -7.1530396    
      3050   21470.889      103.45294      0              3681.9344     -1.4975516    
      3100   21574.513      85.87604       0              3681.6282      7.0301554    
      3150   21649.42       73.506656      0              3681.7434      1.6649326    
      3200   20857.44       205.3704       0              3681.6104      2.9318184    
      3250   18573.575      585.73328      0              3681.3292      5.9394399    
      3300   17938.353      691.67199      0              3681.3975      9.7205454    
      3350   18668.795      570.23722      0              3681.7031      3.6442733    
      3400   16834.721      876.36804      0              3682.1548      21.869594    
      3450   20148.848      323.06988      0              3681.2112      3.8120475    
      3500   21039.942      175.06064      0              3681.7177      1.4965105    
      3550   21439.472      108.66655      0              3681.9119      4.192594     
      3600   21457.784      105.54883      0              3681.8461     -2.932673     
      3650   21409.999      113.49591      0              3681.829      -15.09817     
      3700   21380.023      118.56895      0              3681.9061     -15.461367    
      3750   20422.085      277.28852      0              3680.9694      19.331799    
      3800   18275.038      635.75951      0              3681.5992      22.413362    
      3850   20906.341      197.06897      0              3681.4592      2.5691289    
      3900   20041.032      341.11847      0              3681.2905      1.8089245    
      3950   18917.084      528.44677      0              3681.2941     -10.656627    
      4000   20425.89       276.98688      0              3681.3018      7.5960674    
      4050   18289.157      633.13575      0              3681.3286      6.5695895    
      4100   19601.884      414.64621      0              3681.6269      8.6144847    
      4150   20790.308      216.9575       0              3682.0088      1.6300255    
      4200   21043.169      174.98738      0              3682.1822      3.8942459    
      4250   19073.45       503.63057      0              3682.5389     -10.975988    
      4300   21251.971      140.63454      0              3682.6298     -7.7937426    
      4350   20844.867      208.08653      0              3682.2311     -10.295096    
      4400   20869.781      203.57469      0              3681.8716     -8.7176985    
      4450   20384.41       284.19751      0              3681.5992      3.9044821    
      4500   20002.241      346.95848      0              3680.6654      12.100678    
      4550   21410.259      112.40994      0              3680.7864     -6.6653767    
      4600   18230.418      641.88921      0              3680.2922      22.502391    
      4650   21319.778      127.76737      0              3681.0638     -0.50309316   
      4700   19429.05       441.85455      0              3680.0296      20.851722    
      4750   20395.967      281.13332      0              3680.4611      12.635024    
      4800   19405.371      446.47714      0              3680.7056     -3.0340076    
      4850   19935.979      358.4478       0              3681.1109     -7.9390554    
      4900   18822.801      543.80607      0              3680.9396     -3.1086099    
      4950   20569.881      252.87963      0              3681.1932      11.807076    
      5000   20311.182      296.63458      0              3681.8315     -4.2409472    
      5050   20187.672      316.83663      0              3681.4486      1.8723981    
      5100   17439.679      775.35516      0              3681.9684     -5.7037267    
      5150   20394.4        282.56755      0              3681.6342      4.3399253    
      5200   20294.84       299.10095      0              3681.5742     -9.9868412    
      5250   20396.122      282.31614      0              3681.6698     -4.9932521    
      5300   20617.465      245.11679      0              3681.3609      0.97429493   
      5350   21651.191      72.878802      0              3681.4106      2.0913693    
      5400   19097.721      498.69617      0              3681.6496      21.808511    
      5450   21856.73       38.930299      0              3681.7186     -4.0225451    
      5500   20087.477      334.09405      0              3682.0069      5.7109498    
      5550   17734.477      726.10594      0              3681.8522      16.277738    
      5600   21183.231      151.714        0              3682.2525     -2.1080998    
      5650   20832.185      210.14251      0              3682.1733     -8.0602581    
      5700   18879.226      535.50935      0              3682.0471     -14.351666    
      5750   18931.81       529.67506      0              3684.9768      4.8675164    
      5800   21674.979      70.259619      0              3682.7561     -14.990544    
      5850   21395.905      116.47471      0              3682.4588     -0.94334402   
      5900   18532.955      593.27143      0              3682.0973      26.072477    
      5950   20767.534      220.78554      0              3682.0413     -1.6468662    
      6000   21546.127      91.167146      0              3682.1882     -5.4664857    
      6050   20085.534      334.40872      0              3681.9977     -0.34825498   
      6100   21218.156      145.88926      0              3682.2486      2.2871905    
      6150   20902.857      198.59424      0              3682.4038      6.0082154    
      6200   21726.547      61.195607      0              3682.2868     -2.2981656    
      6250   17507.589      764.20763      0              3682.1392      9.4977327    
      6300   21687.283      67.283821      0              3681.831      -8.694756     
      6350   19806.474      380.24632      0              3681.3254     -0.94067379   
      6400   21128.461      160.65399      0              3682.0641     -4.8435757    
      6450   19747.214      390.89694      0              3682.0992      1.9108969    
      6500   20460.408      272.79545      0              3682.8634     -4.1094877    
      6550   16740.095      892.11547      0              3682.1313      13.20551     
      6600   18326.164      628.80415      0              3683.1648     -19.884336    
      6650   18469.284      605.36384      0              3683.5778      10.345658    
      6700   21086.876      168.61821      0              3683.0976     -0.036118094  
      6750   19924.801      361.46485      0              3682.2649     -2.1144953    
      6800   19812.028      380.5919       0              3682.5966      11.119936    
      6850   19118.501      496.38857      0              3682.8054      0.53906703   
      6900   19221.04       478.31879      0              3681.8255      11.13851     
      6950   20482.79       269.03445      0              3682.8328      2.6705981    
      7000   16350.403      957.96283      0              3683.03       -2.9783385    
      7050   20789.906      218.36242      0              3683.3467      4.2465754    
      7100   17718.126      730.09011      0              3683.111       15.271811    
      7150   19020.414      513.34591      0              3683.4149     -8.3035633    
      7200   21165.007      156.24494      0              3683.7461     -7.3085107    
      7250   20520.422      264.35574      0              3684.4261     -6.7803072    
      7300   19078.795      505.10953      0              3684.9087     -11.147107    
      7350   20529.173      263.85389      0              3685.3827      0.59881989   
      7400   20548.068      261.27337      0              3685.9513     -5.0067382    
      7450   20849.172      211.46852      0              3686.3306     -0.80175538   
      7500   20869.894      207.95335      0              3686.2689      0.44541197   
      7550   18490.583      605.63557      0              3687.3993     -11.744631    
      7600   19185.381      488.52218      0              3686.0857      3.0881652    
      7650   20520.848      265.65037      0              3685.7917     -0.28165722   
      7700   20599.631      251.69265      0              3684.9645      0.19835423   
      7750   18428.55       614.11446      0              3685.5395      5.8092563    
      7800   19660.337      408.61674      0              3685.3396      4.9902979    
      7850   19409.663      450.30454      0              3685.2483      8.8641567    
      7900   21307.628      133.95865      0              3685.23       -1.8297128    
      7950   17828.245      713.05722      0              3684.4314      5.9673166    
      8000   15894.788      1036.4896      0              3685.621       57.567209    
      8050   18588.022      587.45738      0              3685.4611      1.5643233    
      8100   20664.194      241.59965      0              3685.632      -4.9298687    
      8150   17745.538      728.43249      0              3686.0221      6.121885     
      8200   18433.239      612.84747      0              3685.0539      17.078623    
      8250   19162.628      492.52511      0              3686.2965      12.204945    
      8300   18507.768      602.21188      0              3686.8399     -14.003487    
      8350   21010.715      184.80032      0              3686.5861     -0.93351338   
      8400   20888.233      205.24214      0              3686.6143     -5.3433619    
      8450   20920.621      199.6941       0              3686.4643     -30.437742    
      8500   17085.22       840.80474      0              3688.3414      3.9123878    
      8550   20900.377      203.87077      0              3687.267      -6.7525851    
      8600   19771.517      392.67499      0              3687.9278      13.762684    
      8650   19541.099      431.09497      0              3687.9448      2.0785077    
      8700   21056.327      178.88314      0              3688.2709     -13.663758    
      8750   20109.075      336.93228      0              3688.4447     -1.0445182    
      8800   21821.77       51.337654      0              3688.2993     -10.263971    
      8850   17653.401      740.45074      0              3682.6842      49.147758    
      8900   20311.01       302.92663      0              3688.095      -8.1910583    
      8950   19745.488      396.38557      0              3687.3003     -16.948557    
      9000   20248.989      311.52221      0              3686.3537     -2.4158415    
      9050   17850.649      710.17969      0              3685.2878      25.692377    
      9100   19370.284      456.73812      0              3685.1187     -21.201413    
      9150   20452.896      276.95741      0              3685.7735      2.0316457    
      9200   19174.266      488.9925       0              3684.7035      10.317202    
      9250   20174.171      323.4614       0              3685.8232     -2.1072552    
      9300   21442.761      111.68542      0              3685.479      -12.303658    
      9350   19697.287      402.21503      0              3685.0963      8.4697153    
      9400   21553.763      93.03581       0              3685.3297     -6.7286485    
      9450   18946.935      527.04498      0              3684.8674     -6.6174191    
      9500   21162.915      158.64321      0              3685.7957     -3.2085936    
      9550   20704.844      235.41227      0              3686.2196      10.847095    
      9600   20664.074      242.09733      0              3686.1096      3.7301969    
      9650   20829.655      214.20146      0              3685.8107      7.2197609    
      9700   17336.625      797.22781      0              3686.6654      14.775351    
      9750   19978.15       356.51126      0              3686.2029     -1.1978838    
      9800   21150.487      162.1616       0              3687.2427     -15.596643    
      9850   20849.962      213.10316      0              3688.0968     -5.5443282    
      9900   18407.158      620.93592      0              3688.7956      10.177471    
      9950   20459.637      278.24203      0              3688.1815      0.0020687238 
     10000   21667.112      78.10938       0              3689.2948     -12.660594    
Loop time of 3.40889 on 1 procs for 10000 steps with 81 atoms

Performance: 25345.463 tau/day, 2933.503 timesteps/s, 237.614 katom-step/s
99.5% CPU use with 1 MPI tasks x 1 OpenMP threads

MPI task timing breakdown:
Section |  min time  |  avg time  |  max time  |%varavg| %total
---------------------------------------------------------------
Pair    | 0.12904    | 0.12904    | 0.12904    |   0.0 |  3.79
Neigh   | 0.10613    | 0.10613    | 0.10613    |   0.0 |  3.11
Comm    | 0.011135   | 0.011135   | 0.011135   |   0.0 |  0.33
Output  | 0.0042137  | 0.0042137  | 0.0042137  |   0.0 |  0.12
Modify  | 3.142      | 3.142      | 3.142      |   0.0 | 92.17
Other   |            | 0.01636    |            |       |  0.48

Nlocal:             81 ave          81 max          81 min
Histogram: 1 0 0 0 0 0 0 0 0 0
Nghost:            115 ave         115 max         115 min
Histogram: 1 0 0 0 0 0 0 0 0 0
Neighs:            808 ave         808 max         808 min
Histogram: 1 0 0 0 0 0 0 0 0 0

Total # of neighbors = 808
Ave neighs/atom = 9.9753086
Neighbor list builds = 1162
Dangerous builds = 0
Total wall time: 0:00:03
