256
# CELL(abcABC):   34.67500    34.67500    34.67500    90.00000    90.00000    90.00000  Step:           0  Bead:       3 forces{atomic_unit}  cell{atomic_unit}
       1  1.19272e-07  1.19272e-07  1.19272e-07
       1 -4.78542e-09 -4.78542e-09  1.19242e-07
       1 -4.78542e-09  1.19242e-07 -4.78542e-09
       1  1.19242e-07 -4.78542e-09 -4.78542e-09
       1 -3.10349e-10  1.19257e-07  1.19257e-07
       1 -1.22862e-18 -4.78541e-09  1.19242e-07
       1 -1.23328e-18  1.19242e-07 -4.78541e-09
       1 -3.10342e-10 -4.78535e-09 -4.78535e-09
       1  2.18196e-18  1.19257e-07  1.19257e-07
       1  3.10345e-10 -4.78541e-09  1.19242e-07
       1  3.10345e-10  1.19242e-07 -4.78541e-09
       1  2.60209e-18 -4.78535e-09 -4.78535e-09
       1  4.78548e-09  1.19257e-07  1.19257e-07
       1 -1.19257e-07 -4.78548e-09  1.19257e-07
       1 -1.19257e-07  1.19257e-07 -4.78548e-09
       1  4.78536e-09 -4.78536e-09 -4.78536e-09
       1  1.19257e-07 -3.10349e-10  1.19257e-07
       1 -4.78541e-09 -1.22904e-18  1.19242e-07
       1 -4.78535e-09 -3.10342e-10 -4.78535e-09
       1  1.19242e-07 -9.69006e-19 -4.78541e-09
       1 -3.10345e-10 -3.10345e-10  1.19242e-07
       1 -1.22481e-18 -1.24853e-18  1.19242e-07
       1 -1.30443e-18 -3.10342e-10 -4.78534e-09
       1 -3.10342e-10 -1.02809e-18 -4.78534e-09
       1  2.31748e-18 -3.10345e-10  1.19242e-07
       1  3.10345e-10 -1.26377e-18  1.19242e-07
       1  3.10342e-10 -3.10342e-10 -4.78534e-09
       1  2.89346e-18 -1.25022e-18 -4.78534e-09
       1  4.78541e-09 -3.10345e-10  1.19242e-07
       1 -1.19257e-07 -1.16044e-18  1.19257e-07
       1 -1.19242e-07 -3.10345e-10 -4.78541e-09
       1  4.78535e-09 -1.02142e-18 -4.78535e-09
       1  1.19257e-07  2.21584e-18  1.19257e-07
       1 -4.78541e-09  3.10345e-10  1.19242e-07
       1 -4.78535e-09  2.34379e-18 -4.78535e-09
       1  1.19242e-07  3.10345e-10 -4.78541e-09
       1 -3.10345e-10  2.32765e-18  1.19242e-07
       1 -1.26377e-18  3.10345e-10  1.19242e-07
       1 -1.22820e-18  2.89346e-18 -4.78534e-09
       1 -3.10342e-10  3.10342e-10 -4.78534e-09
       1  2.29715e-18  2.30562e-18  1.19242e-07
       1  3.10345e-10  3.10345e-10  1.19242e-07
       1  3.10342e-10  2.51061e-18 -4.78534e-09
       1  2.66985e-18  3.10342e-10 -4.78534e-09
       1  4.78541e-09  2.49377e-18  1.19242e-07
       1 -1.19257e-07  3.10349e-10  1.19257e-07
       1 -1.19242e-07  2.56143e-18 -4.78541e-09
       1  4.78535e-09  3.10342e-10 -4.78535e-09
       1  1.19257e-07  4.78548e-09  1.19257e-07
       1 -4.78548e-09 -1.19257e-07  1.19257e-07
       1 -4.78536e-09  4.78536e-09 -4.78536e-09
       1  1.19257e-07 -1.19257e-07 -4.78548e-09
       1 -3.10345e-10  4.78541e-09  1.19242e-07
       1 -1.14731e-18 -1.19257e-07  1.19257e-07
       1 -1.18923e-18  4.78535e-09 -4.78535e-09
       1 -3.10345e-10 -1.19242e-07 -4.78541e-09
       1  2.48011e-18  4.78541e-09  1.19242e-07
       1  3.10349e-10 -1.19257e-07  1.19257e-07
       1  3.10342e-10  4.78535e-09 -4.78535e-09
       1  2.85281e-18 -1.19242e-07 -4.78541e-09
       1  4.78542e-09  4.78542e-09  1.19242e-07
       1 -1.19272e-07 -1.19272e-07  1.19272e-07
       1 -1.19242e-07  4.78542e-09 -4.78542e-09
       1  4.78542e-09 -1.19242e-07 -4.78542e-09
       1  1.19257e-07  1.19257e-07 -3.10349e-10
       1 -4.78535e-09 -4.78535e-09 -3.10342e-10
       1 -4.78541e-09  1.19242e-07 -9.69853e-19
       1  1.19242e-07 -4.78541e-09 -9.60112e-19
       1 -3.10345e-10  1.19242e-07 -3.10345e-10
       1 -1.29596e-18 -4.78534e-09 -3.10342e-10
       1 -1.23497e-18  1.19242e-07 -9.85946e-19
       1 -3.10342e-10 -4.78534e-09 -1.02809e-18
       1  2.33781e-18  1.19242e-07 -3.10345e-10
       1  3.10342e-10 -4.78534e-09 -3.10342e-10
       1  3.10345e-10  1.19242e-07 -9.96111e-19
       1  2.88669e-18 -4.78534e-09 -1.25869e-18
       1  4.78541e-09  1.19242e-07 -3.10345e-10
       1 -1.19242e-07 -4.78541e-09 -3.10345e-10
       1 -1.19257e-07  1.19257e-07 -8.97855e-19
       1  4.78535e-09 -4.78535e-09 -1.02650e-18
       1  1.19242e-07 -3.10345e-10 -3.10345e-10
       1 -4.78534e-09 -1.29173e-18 -3.10342e-10
       1 -4.78534e-09 -3.10342e-10 -1.03169e-18
       1  1.19242e-07 -9.57147e-19 -9.75782e-19
       1 -3.10342e-10 -3.10342e-10 -3.10342e-10
       1 -1.29765e-18 -1.30782e-18 -3.10342e-10
       1 -1.30951e-18 -3.10342e-10 -1.07573e-18
       1 -3.10342e-10 -1.04249e-18 -1.06112e-18
       1  2.48011e-18 -3.10342e-10 -3.10342e-10
       1  3.10342e-10 -1.33831e-18 -3.10342e-10
       1  3.10342e-10 -3.10342e-10 -1.06811e-18
       1  3.18484e-18 -1.25022e-18 -1.26208e-18
       1  4.78534e-09 -3.10342e-10 -3.10342e-10
       1 -1.19242e-07 -1.23582e-18 -3.10345e-10
       1 -1.19242e-07 -3.10345e-10 -9.58418e-19
       1  4.78534e-09 -1.04429e-18 -1.04598e-18
       1  1.19242e-07  2.33781e-18 -3.10345e-10
       1 -4.78534e-09  3.10342e-10 -3.10342e-10
       1 -4.78534e-09  2.62162e-18 -1.25869e-18
       1  1.19242e-07  3.10345e-10 -9.89334e-19
       1 -3.10342e-10  2.48647e-18 -3.10342e-10
       1 -1.34001e-18  3.10342e-10 -3.10342e-10
       1 -1.23836e-18  3.19162e-18 -1.26547e-18
       1 -3.10342e-10  3.10342e-10 -1.06874e-18
       1  2.44623e-18  2.45301e-18 -3.10342e-10
       1  3.10342e-10  3.10342e-10 -3.10342e-10
       1  3.10342e-10  2.79690e-18 -1.28241e-18
       1  2.96123e-18  3.10342e-10 -1.27733e-18
       1  4.78534e-09  2.64285e-18 -3.10342e-10
       1 -1.19242e-07  3.10345e-10 -3.10345e-10
       1 -1.19242e-07  2.85281e-18 -1.17145e-18
       1  4.78534e-09  3.10342e-10 -1.06970e-18
       1  1.19242e-07  4.78541e-09 -3.10345e-10
       1 -4.78541e-09 -1.19242e-07 -3.10345e-10
       1 -4.78535e-09  4.78535e-09 -1.02946e-18
       1  1.19257e-07 -1.19257e-07 -8.80914e-19
       1 -3.10342e-10  4.78534e-09 -3.10342e-10
       1 -1.22481e-18 -1.19242e-07 -3.10345e-10
       1 -1.19940e-18  4.78534e-09 -1.06049e-18
       1 -3.10345e-10 -1.19242e-07 -9.66253e-19
       1  2.62241e-18  4.78534e-09 -3.10342e-10
       1  3.10345e-10 -1.19242e-07 -3.10345e-10
       1  3.10342e-10  4.78534e-09 -1.06303e-18
       1  3.14080e-18 -1.19242e-07 -1.16891e-18
       1  4.78535e-09  4.78535e-09 -3.10342e-10
       1 -1.19257e-07 -1.19257e-07 -3.10349e-10
       1 -1.19242e-07  4.78541e-09 -9.70382e-19
       1  4.78541e-09 -1.19242e-07 -9.76735e-19
       1  1.19257e-07  1.19257e-07  2.19551e-18
       1 -4.78535e-09 -4.78535e-09  2.08550e-18
       1 -4.78541e-09  1.19242e-07  3.10345e-10
       1  1.19242e-07 -4.78541e-09  3.10345e-10
       1 -3.10345e-10  1.19242e-07  2.34798e-18
       1 -1.22820e-18 -4.78534e-09  2.63766e-18
       1 -1.26716e-18  1.19242e-07  3.10345e-10
       1 -3.10342e-10 -4.78534e-09  3.10342e-10
       1  2.29715e-18  1.19242e-07  2.30562e-18
       1  3.10342e-10 -4.78534e-09  2.25480e-18
       1  3.10345e-10  1.19242e-07  3.10345e-10
       1  2.65968e-18 -4.78534e-09  3.10342e-10
       1  4.78541e-09  1.19242e-07  2.48022e-18
       1 -1.19242e-07 -4.78541e-09  2.30991e-18
       1 -1.19257e-07  1.19257e-07  3.10349e-10
       1  4.78535e-09 -4.78535e-09  3.10342e-10
       1  1.19242e-07 -3.10345e-10  2.34459e-18
       1 -4.78534e-09 -1.22904e-18  2.64364e-18
       1 -4.78534e-09 -3.10342e-10  3.10342e-10
       1  1.19242e-07 -9.92723e-19  3.10345e-10
       1 -3.10342e-10 -3.10342e-10  2.48901e-18
       1 -1.23159e-18 -1.23328e-18  3.19162e-18
       1 -1.33323e-18 -3.10342e-10  3.10342e-10
       1 -3.10342e-10 -1.06620e-18  3.10342e-10
       1  2.44623e-18 -3.10342e-10  2.45978e-18
       1  3.10342e-10 -1.25869e-18  2.82316e-18
       1  3.10342e-10 -3.10342e-10  3.10342e-10
       1  2.95445e-18 -1.28749e-18  3.10342e-10
       1  4.78534e-09 -3.10342e-10  2.63014e-18
       1 -1.19242e-07 -1.13926e-18  2.84688e-18
       1 -1.19242e-07 -3.10345e-10  3.10345e-10
       1  4.78534e-09 -1.06038e-18  3.10342e-10
       1  1.19242e-07  2.29715e-18  2.30562e-18
       1 -4.78534e-09  3.10342e-10  2.27095e-18
       1 -4.78534e-09  2.41156e-18  3.10342e-10
       1  1.19242e-07  3.10345e-10  3.10345e-10
       1 -3.10342e-10  2.45258e-18  2.45555e-18
       1 -1.25530e-18  3.10342e-10  2.81046e-18
       1 -1.26716e-18  2.95784e-18  3.10342e-10
       1 -3.10342e-10  3.10342e-10  3.10342e-10
       1  2.39880e-18  2.43268e-18  2.44284e-18
       1  3.10342e-10  3.10342e-10  2.41023e-18
       1  3.10342e-10  2.56016e-18  3.10342e-10
       1  2.73083e-18  3.10342e-10  3.10342e-10
       1  4.78534e-09  2.59541e-18  2.60897e-18
       1 -1.19242e-07  3.10345e-10  2.48350e-18
       1 -1.19242e-07  2.63597e-18  3.10345e-10
       1  4.78534e-09  3.10342e-10  3.10342e-10
       1  1.19242e-07  4.78541e-09  2.48699e-18
       1 -4.78541e-09 -1.19242e-07  2.32346e-18
       1 -4.78535e-09  4.78535e-09  3.10342e-10
       1  1.19257e-07 -1.19257e-07  3.10349e-10
       1 -3.10342e-10  4.78534e-09  2.64740e-18
       1 -1.14731e-18 -1.19242e-07  2.86467e-18
       1 -1.22650e-18  4.78534e-09  3.10342e-10
       1 -3.10345e-10 -1.19242e-07  3.10345e-10
       1  2.58853e-18  4.78534e-09  2.61394e-18
       1  3.10345e-10 -1.19242e-07  2.49959e-18
       1  3.10342e-10  4.78534e-09  3.10342e-10
       1  2.91718e-18 -1.19242e-07  3.10345e-10
       1  4.78535e-09  4.78535e-09  2.77170e-18
       1 -1.19257e-07 -1.19257e-07  2.54110e-18
       1 -1.19242e-07  4.78541e-09  3.10345e-10
       1  4.78541e-09 -1.19242e-07  3.10345e-10
       1  1.19257e-07  1.19257e-07  4.78548e-09
       1 -4.78536e-09 -4.78536e-09  4.78536e-09
       1 -4.78548e-09  1.19257e-07 -1.19257e-07
       1  1.19257e-07 -4.78548e-09 -1.19257e-07
       1 -3.10345e-10  1.19242e-07  4.78541e-09
       1 -1.17483e-18 -4.78535e-09  4.78535e-09
       1 -1.15535e-18  1.19257e-07 -1.19257e-07
       1 -3.10345e-10 -4.78541e-09 -1.19242e-07
       1  2.48689e-18  1.19242e-07  4.78541e-09
       1  3.10342e-10 -4.78535e-09  4.78535e-09
       1  3.10349e-10  1.19257e-07 -1.19257e-07
       1  2.85958e-18 -4.78541e-09 -1.19242e-07
       1  4.78542e-09  1.19242e-07  4.78542e-09
       1 -1.19242e-07 -4.78542e-09  4.78542e-09
       1 -1.19272e-07  1.19272e-07 -1.19272e-07
       1  4.78542e-09 -4.78542e-09 -1.19242e-07
       1  1.19242e-07 -3.10345e-10  4.78541e-09
       1 -4.78535e-09 -1.17653e-18  4.78535e-09
       1 -4.78541e-09 -3.10345e-10 -1.19242e-07
       1  1.19257e-07 -8.84302e-19 -1.19257e-07
       1 -3.10342e-10 -3.10342e-10  4.78534e-09
       1 -1.19601e-18 -1.21126e-18  4.78534e-09
       1 -1.24344e-18 -3.10345e-10 -1.19242e-07
       1 -3.10345e-10 -9.66253e-19 -1.19242e-07
       1  2.62919e-18 -3.10342e-10  4.78534e-09
       1  3.10342e-10 -1.21295e-18  4.78534e-09
       1  3.10345e-10 -3.10345e-10 -1.19242e-07
       1  3.14419e-18 -1.17907e-18 -1.19242e-07
       1  4.78535e-09 -3.10342e-10  4.78535e-09
       1 -1.19242e-07 -1.12740e-18  4.78541e-09
       1 -1.19257e-07 -3.10349e-10 -1.19257e-07
       1  4.78541e-09 -9.57041e-19 -1.19242e-07
       1  1.19242e-07  2.48689e-18  4.78541e-09
       1 -4.78535e-09  3.10342e-10  4.78535e-09
       1 -4.78541e-09  2.60807e-18 -1.19242e-07
       1  1.19257e-07  3.10349e-10 -1.19257e-07
       1 -3.10342e-10  2.63385e-18  4.78534e-09
       1 -1.21634e-18  3.10342e-10  4.78534e-09
       1 -1.16552e-18  3.14757e-18 -1.19242e-07
       1 -3.10345e-10  3.10345e-10 -1.19242e-07
       1  2.57498e-18  2.58006e-18  4.78534e-09
       1  3.10342e-10  3.10342e-10  4.78534e-09
       1  3.10345e-10  2.74777e-18 -1.19242e-07
       1  2.92057e-18  3.10345e-10 -1.19242e-07
       1  4.78535e-09  2.77837e-18  4.78535e-09
       1 -1.19242e-07  3.10345e-10  4.78541e-09
       1 -1.19257e-07  2.82570e-18 -1.19257e-07
       1  4.78541e-09  3.10345e-10 -1.19242e-07
       1  1.19242e-07  4.78542e-09  4.78542e-09
       1 -4.78542e-09 -1.19242e-07  4.78542e-09
       1 -4.78542e-09  4.78542e-09 -1.19242e-07
       1  1.19272e-07 -1.19272e-07 -1.19272e-07
       1 -3.10342e-10  4.78535e-09  4.78535e-09
       1 -1.10792e-18 -1.19242e-07  4.78541e-09
       1 -1.12317e-18  4.78541e-09 -1.19242e-07
       1 -3.10349e-10 -1.19257e-07 -1.19257e-07
       1  2.76472e-18  4.78535e-09  4.78535e-09
       1  3.10345e-10 -1.19242e-07  4.78541e-09
       1  3.10345e-10  4.78541e-09 -1.19242e-07
       1  3.11030e-18 -1.19257e-07 -1.19257e-07
       1  4.78536e-09  4.78536e-09  4.78536e-09
       1 -1.19257e-07 -1.19257e-07  4.78548e-09
       1 -1.19257e-07  4.78548e-09 -1.19257e-07
       1  4.78548e-09 -1.19257e-07 -1.19257e-07
256
# CELL(abcABC):   34.67500    34.67500    34.67500    90.00000    90.00000    90.00000  Step:        1000  Bead:       3 forces{atomic_unit}  cell{atomic_unit}
       1 -6.56325e-08 -6.56325e-08 -6.56325e-08
       1 -2.42062e-09 -2.42062e-09 -6.56377e-08
       1 -2.42062e-09 -6.56377e-08 -2.42062e-09
       1 -6.56377e-08 -2.42062e-09 -2.42062e-09
       1 -2.22675e-09 -6.56384e-08 -6.56384e-08
       1  4.01697e-08 -2.41889e-09 -6.56393e-08
       1  4.01697e-08 -6.56393e-08 -2.41889e-09
       1 -2.21746e-09 -2.41879e-09 -2.41879e-09
       1 -4.05738e-08 -6.56367e-08 -6.56367e-08
       1  3.03654e-09 -2.42135e-09 -6.56410e-08
       1  3.03654e-09 -6.56410e-08 -2.42135e-09
       1 -4.05761e-08 -2.41635e-09 -2.41635e-09
       1  2.08810e-09 -6.56351e-08 -6.56351e-08
       1  6.55610e-08 -2.42314e-09 -6.56351e-08
       1  6.55610e-08 -6.56351e-08 -2.42314e-09
       1  2.08297e-09 -2.41814e-09 -2.41814e-09
       1 -6.56384e-08 -2.22675e-09 -6.56384e-08
       1 -2.41889e-09  4.01697e-08 -6.56393e-08
       1 -2.41879e-09 -2.21746e-09 -2.41879e-09
       1 -6.56393e-08  4.01697e-08 -2.41889e-09
       1 -2.21958e-09 -2.21958e-09 -6.56443e-08
       1  4.01608e-08  4.01608e-08 -6.56409e-08
       1  4.01624e-08 -2.21346e-09 -2.41706e-09
       1 -2.21346e-09  4.01624e-08 -2.41706e-09
       1 -4.05666e-08 -2.21811e-09 -6.56426e-08
       1  3.03267e-09  4.01614e-08 -6.56426e-08
       1  3.02956e-09 -2.21497e-09 -2.41951e-09
       1 -4.05671e-08  4.01619e-08 -2.41462e-09
       1  2.08608e-09 -2.22216e-09 -6.56410e-08
       1  6.55627e-08  4.01687e-08 -6.56367e-08
       1  6.55670e-08 -2.22213e-09 -2.42130e-09
       1  2.08107e-09  4.01708e-08 -2.41642e-09
       1 -6.56367e-08 -4.05738e-08 -6.56367e-08
       1 -2.42135e-09  3.03654e-09 -6.56410e-08
       1 -2.41635e-09 -4.05761e-08 -2.41635e-09
       1 -6.56410e-08  3.03654e-09 -2.42135e-09
       1 -2.21811e-09 -4.05666e-08 -6.56426e-08
       1  4.01614e-08  3.03267e-09 -6.56426e-08
       1  4.01619e-08 -4.05671e-08 -2.41462e-09
       1 -2.21497e-09  3.02956e-09 -2.41951e-09
       1 -4.05661e-08 -4.05661e-08 -6.56409e-08
       1  3.03419e-09  3.03419e-09 -6.56443e-08
       1  3.02809e-09 -4.05678e-08 -2.41707e-09
       1 -4.05678e-08  3.02809e-09 -2.41707e-09
       1  2.08361e-09 -4.05750e-08 -6.56393e-08
       1  6.55643e-08  3.04115e-09 -6.56384e-08
       1  6.55653e-08 -4.05750e-08 -2.41886e-09
       1  2.08355e-09  3.03201e-09 -2.41887e-09
       1 -6.56351e-08  2.08810e-09 -6.56351e-08
       1 -2.42314e-09  6.55610e-08 -6.56351e-08
       1 -2.41814e-09  2.08297e-09 -2.41814e-09
       1 -6.56351e-08  6.55610e-08 -2.42314e-09
       1 -2.22216e-09  2.08608e-09 -6.56410e-08
       1  4.01687e-08  6.55627e-08 -6.56367e-08
       1  4.01708e-08  2.08107e-09 -2.41642e-09
       1 -2.22213e-09  6.55670e-08 -2.42130e-09
       1 -4.05750e-08  2.08361e-09 -6.56393e-08
       1  3.04115e-09  6.55643e-08 -6.56384e-08
       1  3.03201e-09  2.08355e-09 -2.41887e-09
       1 -4.05750e-08  6.55653e-08 -2.41886e-09
       1  2.08558e-09  2.08558e-09 -6.56377e-08
       1  6.55583e-08  6.55583e-08 -6.56325e-08
       1  6.55636e-08  2.08552e-09 -2.42065e-09
       1  2.08552e-09  6.55636e-08 -2.42065e-09
       1 -6.56384e-08 -6.56384e-08 -2.22675e-09
       1 -2.41879e-09 -2.41879e-09 -2.21746e-09
       1 -2.41889e-09 -6.56393e-08  4.01697e-08
       1 -6.56393e-08 -2.41889e-09  4.01697e-08
       1 -2.21958e-09 -6.56443e-08 -2.21958e-09
       1  4.01624e-08 -2.41706e-09 -2.21346e-09
       1  4.01608e-08 -6.56409e-08  4.01608e-08
       1 -2.21346e-09 -2.41706e-09  4.01624e-08
       1 -4.05666e-08 -6.56426e-08 -2.21811e-09
       1  3.02956e-09 -2.41951e-09 -2.21497e-09
       1  3.03267e-09 -6.56426e-08  4.01614e-08
       1 -4.05671e-08 -2.41462e-09  4.01619e-08
       1  2.08608e-09 -6.56410e-08 -2.22216e-09
       1  6.55670e-08 -2.42130e-09 -2.22213e-09
       1  6.55627e-08 -6.56367e-08  4.01687e-08
       1  2.08107e-09 -2.41642e-09  4.01708e-08
       1 -6.56443e-08 -2.21958e-09 -2.21958e-09
       1 -2.41706e-09  4.01624e-08 -2.21346e-09
       1 -2.41706e-09 -2.21346e-09  4.01624e-08
       1 -6.56409e-08  4.01608e-08  4.01608e-08
       1 -2.21239e-09 -2.21239e-09 -2.21239e-09
       1  4.01534e-08  4.01534e-08 -2.20944e-09
       1  4.01534e-08 -2.20944e-09  4.01534e-08
       1 -2.20944e-09  4.01534e-08  4.01534e-08
       1 -4.05594e-08 -2.21092e-09 -2.21092e-09
       1  3.02568e-09  4.01540e-08 -2.21096e-09
       1  3.02568e-09 -2.21096e-09  4.01540e-08
       1 -4.05582e-08  4.01529e-08  4.01529e-08
       1  2.08405e-09 -2.21499e-09 -2.21499e-09
       1  6.55687e-08  4.01614e-08 -2.21812e-09
       1  6.55687e-08 -2.21812e-09  4.01614e-08
       1  2.07917e-09  4.01618e-08  4.01618e-08
       1 -6.56426e-08 -4.05666e-08 -2.21811e-09
       1 -2.41951e-09  3.02956e-09 -2.21498e-09
       1 -2.41462e-09 -4.05671e-08  4.01619e-08
       1 -6.56426e-08  3.03267e-09  4.01614e-08
       1 -2.21092e-09 -4.05594e-08 -2.21092e-09
       1  4.01540e-08  3.02568e-09 -2.21096e-09
       1  4.01529e-08 -4.05582e-08  4.01529e-08
       1 -2.21096e-09  3.02568e-09  4.01540e-08
       1 -4.05589e-08 -4.05589e-08 -2.20946e-09
       1  3.02720e-09  3.02720e-09 -2.21248e-09
       1  3.02422e-09 -4.05588e-08  4.01535e-08
       1 -4.05588e-08  3.02422e-09  4.01535e-08
       1  2.08159e-09 -4.05678e-08 -2.21352e-09
       1  6.55703e-08  3.03417e-09 -2.21964e-09
       1  6.55670e-08 -4.05661e-08  4.01609e-08
       1  2.08164e-09  3.02814e-09  4.01625e-08
       1 -6.56410e-08  2.08608e-09 -2.22216e-09
       1 -2.42130e-09  6.55670e-08 -2.22213e-09
       1 -2.41642e-09  2.08107e-09  4.01708e-08
       1 -6.56367e-08  6.55627e-08  4.01687e-08
       1 -2.21499e-09  2.08405e-09 -2.21499e-09
       1  4.01614e-08  6.55687e-08 -2.21812e-09
       1  4.01618e-08  2.07917e-09  4.01618e-08
       1 -2.21812e-09  6.55687e-08  4.01614e-08
       1 -4.05678e-08  2.08159e-09 -2.21352e-09
       1  3.03417e-09  6.55703e-08 -2.21964e-09
       1  3.02814e-09  2.08164e-09  4.01625e-08
       1 -4.05661e-08  6.55670e-08  4.01609e-08
       1  2.08356e-09  2.08356e-09 -2.21758e-09
       1  6.55643e-08  6.55643e-08 -2.22680e-09
       1  6.55653e-08  2.08362e-09  4.01698e-08
       1  2.08362e-09  6.55653e-08  4.01698e-08
       1 -6.56367e-08 -6.56367e-08 -4.05738e-08
       1 -2.41635e-09 -2.41635e-09 -4.05761e-08
       1 -2.42135e-09 -6.56410e-08  3.03654e-09
       1 -6.56410e-08 -2.42135e-09  3.03654e-09
       1 -2.21811e-09 -6.56426e-08 -4.05666e-08
       1  4.01619e-08 -2.41462e-09 -4.05671e-08
       1  4.01614e-08 -6.56426e-08  3.03267e-09
       1 -2.21498e-09 -2.41951e-09  3.02956e-09
       1 -4.05661e-08 -6.56409e-08 -4.05661e-08
       1  3.02809e-09 -2.41707e-09 -4.05678e-08
       1  3.03419e-09 -6.56443e-08  3.03419e-09
       1 -4.05678e-08 -2.41707e-09  3.02809e-09
       1  2.08361e-09 -6.56393e-08 -4.05750e-08
       1  6.55653e-08 -2.41886e-09 -4.05750e-08
       1  6.55643e-08 -6.56384e-08  3.04115e-09
       1  2.08355e-09 -2.41887e-09  3.03201e-09
       1 -6.56426e-08 -2.21811e-09 -4.05666e-08
       1 -2.41462e-09  4.01619e-08 -4.05671e-08
       1 -2.41951e-09 -2.21497e-09  3.02956e-09
       1 -6.56426e-08  4.01614e-08  3.03267e-09
       1 -2.21092e-09 -2.21092e-09 -4.05594e-08
       1  4.01529e-08  4.01529e-08 -4.05582e-08
       1  4.01540e-08 -2.21096e-09  3.02568e-09
       1 -2.21096e-09  4.01540e-08  3.02568e-09
       1 -4.05589e-08 -2.20946e-09 -4.05589e-08
       1  3.02422e-09  4.01535e-08 -4.05588e-08
       1  3.02720e-09 -2.21248e-09  3.02720e-09
       1 -4.05588e-08  4.01535e-08  3.02422e-09
       1  2.08159e-09 -2.21352e-09 -4.05678e-08
       1  6.55670e-08  4.01609e-08 -4.05661e-08
       1  6.55703e-08 -2.21964e-09  3.03417e-09
       1  2.08164e-09  4.01625e-08  3.02814e-09
       1 -6.56409e-08 -4.05661e-08 -4.05661e-08
       1 -2.41707e-09  3.02809e-09 -4.05678e-08
       1 -2.41707e-09 -4.05678e-08  3.02809e-09
       1 -6.56443e-08  3.03419e-09  3.03419e-09
       1 -2.20946e-09 -4.05589e-08 -4.05589e-08
       1  4.01535e-08  3.02422e-09 -4.05588e-08
       1  4.01535e-08 -4.05588e-08  3.02422e-09
       1 -2.21248e-09  3.02720e-09  3.02720e-09
       1 -4.05584e-08 -4.05584e-08 -4.05584e-08
       1  3.02573e-09  3.02573e-09 -4.05595e-08
       1  3.02573e-09 -4.05595e-08  3.02573e-09
       1 -4.05595e-08  3.02573e-09  3.02573e-09
       1  2.07913e-09 -4.05673e-08 -4.05673e-08
       1  6.55686e-08  3.03270e-09 -4.05667e-08
       1  6.55686e-08 -4.05667e-08  3.03270e-09
       1  2.08412e-09  3.02966e-09  3.02966e-09
       1 -6.56393e-08  2.08361e-09 -4.05750e-08
       1 -2.41886e-09  6.55653e-08 -4.05750e-08
       1 -2.41887e-09  2.08355e-09  3.03201e-09
       1 -6.56384e-08  6.55643e-08  3.04115e-09
       1 -2.21352e-09  2.08159e-09 -4.05678e-08
       1  4.01609e-08  6.55670e-08 -4.05661e-08
       1  4.01625e-08  2.08164e-09  3.02814e-09
       1 -2.21964e-09  6.55703e-08  3.03417e-09
       1 -4.05673e-08  2.07913e-09 -4.05673e-08
       1  3.03270e-09  6.55686e-08 -4.05667e-08
       1  3.02966e-09  2.08412e-09  3.02966e-09
       1 -4.05667e-08  6.55686e-08  3.03270e-09
       1  2.08110e-09  2.08110e-09 -4.05761e-08
       1  6.55626e-08  6.55626e-08 -4.05740e-08
       1  6.55669e-08  2.08610e-09  3.03662e-09
       1  2.08610e-09  6.55669e-08  3.03662e-09
       1 -6.56351e-08 -6.56351e-08  2.08810e-09
       1 -2.41814e-09 -2.41814e-09  2.08297e-09
       1 -2.42314e-09 -6.56351e-08  6.55610e-08
       1 -6.56351e-08 -2.42314e-09  6.55610e-08
       1 -2.22216e-09 -6.56410e-08  2.08608e-09
       1  4.01708e-08 -2.41642e-09  2.08107e-09
       1  4.01687e-08 -6.56367e-08  6.55627e-08
       1 -2.22213e-09 -2.42130e-09  6.55670e-08
       1 -4.05750e-08 -6.56393e-08  2.08361e-09
       1  3.03201e-09 -2.41887e-09  2.08355e-09
       1  3.04115e-09 -6.56384e-08  6.55643e-08
       1 -4.05750e-08 -2.41886e-09  6.55653e-08
       1  2.08558e-09 -6.56377e-08  2.08558e-09
       1  6.55636e-08 -2.42065e-09  2.08552e-09
       1  6.55583e-08 -6.56325e-08  6.55583e-08
       1  2.08552e-09 -2.42065e-09  6.55636e-08
       1 -6.56410e-08 -2.22216e-09  2.08608e-09
       1 -2.41642e-09  4.01708e-08  2.08107e-09
       1 -2.42130e-09 -2.22213e-09  6.55670e-08
       1 -6.56367e-08  4.01687e-08  6.55627e-08
       1 -2.21499e-09 -2.21499e-09  2.08405e-09
       1  4.01618e-08  4.01618e-08  2.07917e-09
       1  4.01614e-08 -2.21812e-09  6.55687e-08
       1 -2.21812e-09  4.01614e-08  6.55687e-08
       1 -4.05678e-08 -2.21352e-09  2.08159e-09
       1  3.02814e-09  4.01625e-08  2.08164e-09
       1  3.03417e-09 -2.21964e-09  6.55703e-08
       1 -4.05661e-08  4.01609e-08  6.55670e-08
       1  2.08356e-09 -2.21758e-09  2.08356e-09
       1  6.55653e-08  4.01698e-08  2.08362e-09
       1  6.55643e-08 -2.22680e-09  6.55643e-08
       1  2.08362e-09  4.01698e-08  6.55653e-08
       1 -6.56393e-08 -4.05750e-08  2.08361e-09
       1 -2.41887e-09  3.03201e-09  2.08355e-09
       1 -2.41886e-09 -4.05750e-08  6.55653e-08
       1 -6.56384e-08  3.04115e-09  6.55643e-08
       1 -2.21352e-09 -4.05678e-08  2.08159e-09
       1  4.01625e-08  3.02814e-09  2.08164e-09
       1  4.01609e-08 -4.05661e-08  6.55670e-08
       1 -2.21964e-09  3.03417e-09  6.55703e-08
       1 -4.05673e-08 -4.05673e-08  2.07913e-09
       1  3.02966e-09  3.02966e-09  2.08412e-09
       1  3.03270e-09 -4.05667e-08  6.55686e-08
       1 -4.05667e-08  3.03270e-09  6.55686e-08
       1  2.08110e-09 -4.05761e-08  2.08110e-09
       1  6.55669e-08  3.03662e-09  2.08610e-09
       1  6.55626e-08 -4.05740e-08  6.55626e-08
       1  2.08610e-09  3.03662e-09  6.55669e-08
       1 -6.56377e-08  2.08558e-09  2.08558e-09
       1 -2.42065e-09  6.55636e-08  2.08552e-09
       1 -2.42065e-09  2.08552e-09  6.55636e-08
       1 -6.56325e-08  6.55583e-08  6.55583e-08
       1 -2.21758e-09  2.08356e-09  2.08356e-09
       1  4.01698e-08  6.55653e-08  2.08362e-09
       1  4.01698e-08  2.08362e-09  6.55653e-08
       1 -2.22680e-09  6.55643e-08  6.55643e-08
       1 -4.05761e-08  2.08110e-09  2.08110e-09
       1  3.03662e-09  6.55669e-08  2.08610e-09
       1  3.03662e-09  2.08610e-09  6.55669e-08
       1 -4.05740e-08  6.55626e-08  6.55626e-08
       1  2.08306e-09  2.08306e-09  2.08306e-09
       1  6.55609e-08  6.55609e-08  2.08807e-09
       1  6.55609e-08  2.08807e-09  6.55609e-08
       1  2.08807e-09  6.55609e-08  6.55609e-08
256
# CELL(abcABC):   34.67500    34.67500    34.67500    90.00000    90.00000    90.00000  Step:        2000  Bead:       3 forces{atomic_unit}  cell{atomic_unit}
       1 -1.79497e-08 -1.79497e-08 -1.79497e-08
       1  1.11467e-08  1.11467e-08 -1.79415e-08
       1  1.11467e-08 -1.79415e-08  1.11467e-08
       1 -1.79415e-08  1.11467e-08  1.11467e-08
       1  8.17417e-12 -1.79440e-08 -1.79440e-08
       1 -9.04562e-08  1.11456e-08 -1.79429e-08
       1 -9.04562e-08 -1.79429e-08  1.11456e-08
       1  1.32966e-11  1.11470e-08  1.11470e-08
       1  9.03507e-08 -1.79470e-08 -1.79470e-08
       1  1.02299e-09  1.11449e-08 -1.79398e-08
       1  1.02300e-09 -1.79398e-08  1.11449e-08
       1  9.03552e-08  1.11478e-08  1.11478e-08
       1 -1.25269e-08 -1.79456e-08 -1.79456e-08
       1  1.83974e-08  1.11447e-08 -1.79456e-08
       1  1.83974e-08 -1.79456e-08  1.11447e-08
       1 -1.25312e-08  1.11488e-08  1.11488e-08
       1 -1.79440e-08  8.17417e-12 -1.79440e-08
       1  1.11456e-08 -9.04562e-08 -1.79429e-08
       1  1.11470e-08  1.32965e-11  1.11470e-08
       1 -1.79429e-08 -9.04562e-08  1.11456e-08
       1  1.17089e-11  1.17088e-11 -1.79382e-08
       1 -9.04645e-08 -9.04645e-08 -1.79444e-08
       1 -9.04615e-08  1.23095e-11  1.11459e-08
       1  1.23096e-11 -9.04615e-08  1.11459e-08
       1  9.03559e-08  9.76072e-12 -1.79413e-08
       1  1.02408e-09 -9.04591e-08 -1.79413e-08
       1  1.01949e-09  1.42688e-11  1.11451e-08
       1  9.03635e-08 -9.04667e-08  1.11467e-08
       1 -1.25272e-08  1.07132e-11 -1.79399e-08
       1  1.83989e-08 -9.04539e-08 -1.79471e-08
       1  1.83917e-08  1.07229e-11  1.11449e-08
       1 -1.25302e-08 -9.04584e-08  1.11477e-08
       1 -1.79470e-08  9.03507e-08 -1.79470e-08
       1  1.11449e-08  1.02300e-09 -1.79398e-08
       1  1.11478e-08  9.03552e-08  1.11478e-08
       1 -1.79398e-08  1.02299e-09  1.11449e-08
       1  9.76065e-12  9.03559e-08 -1.79413e-08
       1 -9.04591e-08  1.02408e-09 -1.79413e-08
       1 -9.04667e-08  9.03635e-08  1.11467e-08
       1  1.42689e-11  1.01949e-09  1.11451e-08
       1  9.03612e-08  9.03612e-08 -1.79444e-08
       1  1.02205e-09  1.02205e-09 -1.79382e-08
       1  1.02151e-09  9.03581e-08  1.11459e-08
       1  9.03581e-08  1.02151e-09  1.11459e-08
       1 -1.25281e-08  9.03529e-08 -1.79429e-08
       1  1.83958e-08  1.02558e-09 -1.79440e-08
       1  1.83948e-08  9.03529e-08  1.11457e-08
       1 -1.25293e-08  1.02045e-09  1.11470e-08
       1 -1.79456e-08 -1.25269e-08 -1.79456e-08
       1  1.11447e-08  1.83974e-08 -1.79456e-08
       1  1.11488e-08 -1.25312e-08  1.11488e-08
       1 -1.79456e-08  1.83974e-08  1.11447e-08
       1  1.07132e-11 -1.25272e-08 -1.79399e-08
       1 -9.04539e-08  1.83989e-08 -1.79471e-08
       1 -9.04584e-08 -1.25302e-08  1.11477e-08
       1  1.07228e-11  1.83917e-08  1.11449e-08
       1  9.03529e-08 -1.25281e-08 -1.79429e-08
       1  1.02558e-09  1.83958e-08 -1.79440e-08
       1  1.02045e-09 -1.25293e-08  1.11470e-08
       1  9.03529e-08  1.83948e-08  1.11457e-08
       1 -1.25290e-08 -1.25290e-08 -1.79415e-08
       1  1.84015e-08  1.84015e-08 -1.79498e-08
       1  1.83934e-08 -1.25291e-08  1.11468e-08
       1 -1.25291e-08  1.83934e-08  1.11468e-08
       1 -1.79440e-08 -1.79440e-08  8.17417e-12
       1  1.11470e-08  1.11470e-08  1.32965e-11
       1  1.11456e-08 -1.79429e-08 -9.04562e-08
       1 -1.79429e-08  1.11456e-08 -9.04562e-08
       1  1.17088e-11 -1.79382e-08  1.17087e-11
       1 -9.04615e-08  1.11459e-08  1.23094e-11
       1 -9.04645e-08 -1.79444e-08 -9.04645e-08
       1  1.23096e-11  1.11459e-08 -9.04615e-08
       1  9.03559e-08 -1.79413e-08  9.76068e-12
       1  1.01949e-09  1.11451e-08  1.42687e-11
       1  1.02408e-09 -1.79413e-08 -9.04591e-08
       1  9.03635e-08  1.11467e-08 -9.04667e-08
       1 -1.25272e-08 -1.79399e-08  1.07132e-11
       1  1.83917e-08  1.11449e-08  1.07228e-11
       1  1.83989e-08 -1.79471e-08 -9.04539e-08
       1 -1.25302e-08  1.11477e-08 -9.04584e-08
       1 -1.79382e-08  1.17088e-11  1.17087e-11
       1  1.11459e-08 -9.04615e-08  1.23095e-11
       1  1.11459e-08  1.23095e-11 -9.04615e-08
       1 -1.79444e-08 -9.04645e-08 -9.04645e-08
       1  1.52479e-11  1.52480e-11  1.52479e-11
       1 -9.04698e-08 -9.04698e-08  1.13262e-11
       1 -9.04698e-08  1.13261e-11 -9.04698e-08
       1  1.13260e-11 -9.04698e-08 -9.04698e-08
       1  9.03612e-08  1.32989e-11  1.32989e-11
       1  1.02057e-09 -9.04644e-08  1.32893e-11
       1  1.02057e-09  1.32894e-11 -9.04644e-08
       1  9.03718e-08 -9.04750e-08 -9.04750e-08
       1 -1.25275e-08  1.42455e-11  1.42456e-11
       1  1.83932e-08 -9.04592e-08  9.73746e-12
       1  1.83932e-08  9.73755e-12 -9.04592e-08
       1 -1.25292e-08 -9.04667e-08 -9.04667e-08
       1 -1.79413e-08  9.03559e-08  9.76087e-12
       1  1.11451e-08  1.01949e-09  1.42688e-11
       1  1.11467e-08  9.03635e-08 -9.04667e-08
       1 -1.79413e-08  1.02408e-09 -9.04591e-08
       1  1.32988e-11  9.03612e-08  1.32989e-11
       1 -9.04644e-08  1.02057e-09  1.32894e-11