256
Atoms. Timestep: 0
1 0 0 0
1 4.3344 4.3344 0
1 4.3344 0 4.3344
1 0 4.3344 4.3344
1 8.6688 0 0
1 13.0032 4.3344 0
1 13.0032 0 4.3344
1 8.6688 4.3344 4.3344
1 17.3376 0 0
1 21.672 4.3344 0
1 21.672 0 4.3344
1 17.3376 4.3344 4.3344
1 26.0064 0 0
1 30.3408 4.3344 0
1 30.3408 0 4.3344
1 26.0064 4.3344 4.3344
1 0 8.6688 0
1 4.3344 13.0032 0
1 4.3344 8.6688 4.3344
1 0 13.0032 4.3344
1 8.6688 8.6688 0
1 13.0032 13.0032 0
1 13.0032 8.6688 4.3344
1 8.6688 13.0032 4.3344
1 17.3376 8.6688 0
1 21.672 13.0032 0
1 21.672 8.6688 4.3344
1 17.3376 13.0032 4.3344
1 26.0064 8.6688 0
1 30.3408 13.0032 0
1 30.3408 8.6688 4.3344
1 26.0064 13.0032 4.3344
1 0 17.3376 0
1 4.3344 21.672 0
1 4.3344 17.3376 4.3344
1 0 21.672 4.3344
1 8.6688 17.3376 0
1 13.0032 21.672 0
1 13.0032 17.3376 4.3344
1 8.6688 21.672 4.3344
1 17.3376 17.3376 0
1 21.672 21.672 0
1 21.672 17.3376 4.3344
1 17.3376 21.672 4.3344
1 26.0064 17.3376 0
1 30.3408 21.672 0
1 30.3408 17.3376 4.3344
1 26.0064 21.672 4.3344
1 0 26.0064 0
1 4.3344 30.3408 0
1 4.3344 26.0064 4.3344
1 0 30.3408 4.3344
1 8.6688 26.0064 0
1 13.0032 30.3408 0
1 13.0032 26.0064 4.3344
1 8.6688 30.3408 4.3344
1 17.3376 26.0064 0
1 21.672 30.3408 0
1 21.672 26.0064 4.3344
1 17.3376 30.3408 4.3344
1 26.0064 26.0064 0
1 30.3408 30.3408 0
1 30.3408 26.0064 4.3344
1 26.0064 30.3408 4.3344
1 0 0 8.6688
1 4.3344 4.3344 8.6688
1 4.3344 0 13.0032
1 0 4.3344 13.0032
1 8.6688 0 8.6688
1 13.0032 4.3344 8.6688
1 13.0032 0 13.0032
1 8.6688 4.3344 13.0032
1 17.3376 0 8.6688
1 21.672 4.3344 8.6688
1 21.672 0 13.0032
1 17.3376 4.3344 13.0032
1 26.0064 0 8.6688
1 30.3408 4.3344 8.6688
1 30.3408 0 13.0032
1 26.0064 4.3344 13.0032
1 0 8.6688 8.6688
1 4.3344 13.0032 8.6688
1 4.3344 8.6688 13.0032
1 0 13.0032 13.0032
1 8.6688 8.6688 8.6688
1 13.0032 13.0032 8.6688
1 13.0032 8.6688 13.0032
1 8.6688 13.0032 13.0032
1 17.3376 8.6688 8.6688
1 21.672 13.0032 8.6688
1 21.672 8.6688 13.0032
1 17.3376 13.0032 13.0032
1 26.0064 8.6688 8.6688
1 30.3408 13.0032 8.6688
1 30.3408 8.6688 13.0032
1 26.0064 13.0032 13.0032
1 0 17.3376 8.6688
1 4.3344 21.672 8.6688
1 4.3344 17.3376 13.0032
1 0 21.672 13.0032
1 8.6688 17.3376 8.6688
1 13.0032 21.672 8.6688
1 13.0032 17.3376 13.0032
1 8.6688 21.672 13.0032
1 17.3376 17.3376 8.6688
1 21.672 21.672 8.6688
1 21.672 17.3376 13.0032
1 17.3376 21.672 13.0032
1 26.0064 17.3376 8.6688
1 30.3408 21.672 8.6688
1 30.3408 17.3376 13.0032
1 26.0064 21.672 13.0032
1 0 26.0064 8.6688
1 4.3344 30.3408 8.6688
1 4.3344 26.0064 13.0032
1 0 30.3408 13.0032
1 8.6688 26.0064 8.6688
1 13.0032 30.3408 8.6688
1 13.0032 26.0064 13.0032
1 8.6688 30.3408 13.0032
1 17.3376 26.0064 8.6688
1 21.672 30.3408 8.6688
1 21.672 26.0064 13.0032
1 17.3376 30.3408 13.0032
1 26.0064 26.0064 8.6688
1 30.3408 30.3408 8.6688
1 30.3408 26.0064 13.0032
1 26.0064 30.3408 13.0032
1 0 0 17.3376
1 4.3344 4.3344 17.3376
1 4.3344 0 21.672
1 0 4.3344 21.672
1 8.6688 0 17.3376
1 13.0032 4.3344 17.3376
1 13.0032 0 21.672
1 8.6688 4.3344 21.672
1 17.3376 0 17.3376
1 21.672 4.3344 17.3376
1 21.672 0 21.672
1 17.3376 4.3344 21.672
1 26.0064 0 17.3376
1 30.3408 4.3344 17.3376
1 30.3408 0 21.672
1 26.0064 4.3344 21.672
1 0 8.6688 17.3376
1 4.3344 13.0032 17.3376
1 4.3344 8.6688 21.672
1 0 13.0032 21.672
1 8.6688 8.6688 17.3376
1 13.0032 13.0032 17.3376
1 13.0032 8.6688 21.672
1 8.6688 13.0032 21.672
1 17.3376 8.6688 17.3376
1 21.672 13.0032 17.3376
1 21.672 8.6688 21.672
1 17.3376 13.0032 21.672
1 26.0064 8.6688 17.3376
1 30.3408 13.0032 17.3376
1 30.3408 8.6688 21.672
1 26.0064 13.0032 21.672
1 0 17.3376 17.3376
1 4.3344 21.672 17.3376
1 4.3344 17.3376 21.672
1 0 21.672 21.672
1 8.6688 17.3376 17.3376
1 13.0032 21.672 17.3376
1 13.0032 17.3376 21.672
1 8.6688 21.672 21.672
1 17.3376 17.3376 17.3376
1 21.672 21.672 17.3376
1 21.672 17.3376 21.672
1 17.3376 21.672 21.672
1 26.0064 17.3376 17.3376
1 30.3408 21.672 17.3376
1 30.3408 17.3376 21.672
1 26.0064 21.672 21.672
1 0 26.0064 17.3376
1 4.3344 30.3408 17.3376
1 4.3344 26.0064 21.672
1 0 30.3408 21.672
1 8.6688 26.0064 17.3376
1 13.0032 30.3408 17.3376
1 13.0032 26.0064 21.672
1 8.6688 30.3408 21.672
1 17.3376 26.0064 17.3376
1 21.672 30.3408 17.3376
1 21.672 26.0064 21.672
1 17.3376 30.3408 21.672
1 26.0064 26.0064 17.3376
1 30.3408 30.3408 17.3376
1 30.3408 26.0064 21.672
1 26.0064 30.3408 21.672
1 0 0 26.0064
1 4.3344 4.3344 26.0064
1 4.3344 0 30.3408
1 0 4.3344 30.3408
1 8.6688 0 26.0064
1 13.0032 4.3344 26.0064
1 13.0032 0 30.3408
1 8.6688 4.3344 30.3408
1 17.3376 0 26.0064
1 21.672 4.3344 26.0064
1 21.672 0 30.3408
1 17.3376 4.3344 30.3408
1 26.0064 0 26.0064
1 30.3408 4.3344 26.0064
1 30.3408 0 30.3408
1 26.0064 4.3344 30.3408
1 0 8.6688 26.0064
1 4.3344 13.0032 26.0064
1 4.3344 8.6688 30.3408
1 0 13.0032 30.3408
1 8.6688 8.6688 26.0064
1 13.0032 13.0032 26.0064
1 13.0032 8.6688 30.3408
1 8.6688 13.0032 30.3408
1 17.3376 8.6688 26.0064
1 21.672 13.0032 26.0064
1 21.672 8.6688 30.3408
1 17.3376 13.0032 30.3408
1 26.0064 8.6688 26.0064
1 30.3408 13.0032 26.0064
1 30.3408 8.6688 30.3408
1 26.0064 13.0032 30.3408
1 0 17.3376 26.0064
1 4.3344 21.672 26.0064
1 4.3344 17.3376 30.3408
1 0 21.672 30.3408
1 8.6688 17.3376 26.0064
1 13.0032 21.672 26.0064
1 13.0032 17.3376 30.3408
1 8.6688 21.672 30.3408
1 17.3376 17.3376 26.0064
1 21.672 21.672 26.0064
1 21.672 17.3376 30.3408
1 17.3376 21.672 30.3408
1 26.0064 17.3376 26.0064
1 30.3408 21.672 26.0064
1 30.3408 17.3376 30.3408
1 26.0064 21.672 30.3408
1 0 26.0064 26.0064
1 4.3344 30.3408 26.0064
1 4.3344 26.0064 30.3408
1 0 30.3408 30.3408
1 8.6688 26.0064 26.0064
1 13.0032 30.3408 26.0064
1 13.0032 26.0064 30.3408
1 8.6688 30.3408 30.3408
1 17.3376 26.0064 26.0064
1 21.672 30.3408 26.0064
1 21.672 26.0064 30.3408
1 17.3376 30.3408 30.3408
1 26.0064 26.0064 26.0064
1 30.3408 30.3408 26.0064
1 30.3408 26.0064 30.3408
1 26.0064 30.3408 30.3408
256
Atoms. Timestep: 1
1 0 0 0
1 4.3344 4.3344 0
1 4.3344 0 4.3344
1 0 4.3344 4.3344
1 8.6688 0 0
1 13.0032 4.3344 0
1 13.0032 0 4.3344
1 8.6688 4.3344 4.3344
1 17.3376 0 0
1 21.672 4.3344 0
1 21.672 0 4.3344
1 17.3376 4.3344 4.3344
1 26.0064 0 0
1 30.3408 4.3344 0
1 30.3408 0 4.3344
1 26.0064 4.3344 4.3344
1 0 8.6688 0
1 4.3344 13.0032 0
1 4.3344 8.6688 4.3344
1 0 13.0032 4.3344
1 8.6688 8.6688 0
1 13.0032 13.0032 0
1 13.0032 8.6688 4.3344
1 8.6688 13.0032 4.3344
1 17.3376 8.6688 0
1 21.672 13.0032 0
1 21.672 8.6688 4.3344
1 17.3376 13.0032 4.3344
1 26.0064 8.6688 0
1 30.3408 13.0032 0
1 30.3408 8.6688 4.3344
1 26.0064 13.0032 4.3344
1 0 17.3376 0
1 4.3344 21.672 0
1 4.3344 17.3376 4.3344
1 0 21.672 4.3344
1 8.6688 17.3376 0
1 13.0032 21.672 0
1 13.0032 17.3376 4.3344
1 8.6688 21.672 4.3344
1 17.3376 17.3376 0
1 21.672 21.672 0
1 21.672 17.3376 4.3344
1 17.3376 21.672 4.3344
1 26.0064 17.3376 0
1 30.3408 21.672 0
1 30.3408 17.3376 4.3344
1 26.0064 21.672 4.3344
1 0 26.0064 0
1 4.3344 30.3408 0
1 4.3344 26.0064 4.3344
1 0 30.3408 4.3344
1 8.6688 26.0064 0
1 13.0032 30.3408 0
1 13.0032 26.0064 4.3344
1 8.6688 30.3408 4.3344
1 17.3376 26.0064 0
1 21.672 30.3408 0
1 21.672 26.0064 4.3344
1 17.3376 30.3408 4.3344
1 26.0064 26.0064 0
1 30.3408 30.3408 0
1 30.3408 26.0064 4.3344
1 26.0064 30.3408 4.3344
1 0 0 8.6688
1 4.3344 4.3344 8.6688
1 4.3344 0 13.0032
1 0 4.3344 13.0032
1 8.6688 0 8.6688
1 13.0032 4.3344 8.6688
1 13.0032 0 13.0032
1 8.6688 4.3344 13.0032
1 17.3376 0 8.6688
1 21.672 4.3344 8.6688
1 21.672 0 13.0032
1 17.3376 4.3344 13.0032
1 26.0064 0 8.6688
1 30.3408 4.3344 8.6688
1 30.3408 0 13.0032
1 26.0064 4.3344 13.0032
1 0 8.6688 8.6688
1 4.3344 13.0032 8.6688
1 4.3344 8.6688 13.0032
1 0 13.0032 13.0032
1 8.6688 8.6688 8.6688
1 13.0032 13.0032 8.6688
1 13.0032 8.6688 13.0032
1 8.6688 13.0032 13.0032
1 17.3376 8.6688 8.6688
1 21.672 13.0032 8.6688
1 21.672 8.6688 13.0032
1 17.3376 13.0032 13.0032
1 26.0064 8.6688 8.6688
1 30.3408 13.0032 8.6688
1 30.3408 8.6688 13.0032
1 26.0064 13.0032 13.0032
1 0 17.3376 8.6688
1 4.3344 21.672 8.6688
1 4.3344 17.3376 13.0032
1 0 21.672 13.0032
1 8.6688 17.3376 8.6688
1 13.0032 21.672 8.6688
1 13.0032 17.3376 13.0032
1 8.6688 21.672 13.0032
1 17.3376 17.3376 8.6688
1 21.672 21.672 8.6688
1 21.672 17.3376 13.0032
1 17.3376 21.672 13.0032
1 26.0064 17.3376 8.6688
1 30.3408 21.672 8.6688
1 30.3408 17.3376 13.0032
1 26.0064 21.672 13.0032
1 0 26.0064 8.6688
1 4.3344 30.3408 8.6688
1 4.3344 26.0064 13.0032
1 0 30.3408 13.0032
1 8.6688 26.0064 8.6688
1 13.0032 30.3408 8.6688
1 13.0032 26.0064 13.0032
1 8.6688 30.3408 13.0032
1 17.3376 26.0064 8.6688
1 21.672 30.3408 8.6688
1 21.672 26.0064 13.0032
1 17.3376 30.3408 13.0032
1 26.0064 26.0064 8.6688
1 30.3408 30.3408 8.6688
1 30.3408 26.0064 13.0032
1 26.0064 30.3408 13.0032
1 0 0 17.3376
1 4.3344 4.3344 17.3376
1 4.3344 0 21.672
1 0 4.3344 21.672
1 8.6688 0 17.3376
1 13.0032 4.3344 17.3376
1 13.0032 0 21.672
1 8.6688 4.3344 21.672
1 17.3376 0 17.3376
1 21.672 4.3344 17.3376
1 21.672 0 21.672
1 17.3376 4.3344 21.672
1 26.0064 0 17.3376
1 30.3408 4.3344 17.3376
1 30.3408 0 21.672
1 26.0064 4.3344 21.672
1 0 8.6688 17.3376
1 4.3344 13.0032 17.3376
1 4.3344 8.6688 21.672
1 0 13.0032 21.672
1 8.6688 8.6688 17.3376
1 13.0032 13.0032 17.3376
1 13.0032 8.6688 21.672
1 8.6688 13.0032 21.672
1 17.3376 8.6688 17.3376
1 21.672 13.0032 17.3376
1 21.672 8.6688 21.672
1 17.3376 13.0032 21.672
1 26.0064 8.6688 17.3376
1 30.3408 13.0032 17.3376
1 30.3408 8.6688 21.672
1 26.0064 13.0032 21.672
1 0 17.3376 17.3376
1 4.3344 21.672 17.3376
1 4.3344 17.3376 21.672
1 0 21.672 21.672
1 8.6688 17.3376 17.3376
1 13.0032 21.672 17.3376
1 13.0032 17.3376 21.672
1 8.6688 21.672 21.672
1 17.3376 17.3376 17.3376
1 21.672 21.672 17.3376
1 21.672 17.3376 21.672
1 17.3376 21.672 21.672
1 26.0064 17.3376 17.3376
1 30.3408 21.672 17.3376
1 30.3408 17.3376 21.672
1 26.0064 21.672 21.672
1 0 26.0064 17.3376
1 4.3344 30.3408 17.3376
1 4.3344 26.0064 21.672
1 0 30.3408 21.672
1 8.6688 26.0064 17.3376
1 13.0032 30.3408 17.3376
1 13.0032 26.0064 21.672
1 8.6688 30.3408 21.672
1 17.3376 26.0064 17.3376
1 21.672 30.3408 17.3376
1 21.672 26.0064 21.672
1 17.3376 30.3408 21.672
1 26.0064 26.0064 17.3376
1 30.3408 30.3408 17.3376
1 30.3408 26.0064 21.672
1 26.0064 30.3408 21.672
1 0 0 26.0064
1 4.3344 4.3344 26.0064
1 4.3344 0 30.3408
1 0 4.3344 30.3408
1 8.6688 0 26.0064
1 13.0032 4.3344 26.0064
1 13.0032 0 30.3408
1 8.6688 4.3344 30.3408
1 17.3376 0 26.0064
1 21.672 4.3344 26.0064
1 21.672 0 30.3408
1 17.3376 4.3344 30.3408
1 26.0064 0 26.0064
1 30.3408 4.3344 26.0064
1 30.3408 0 30.3408
1 26.0064 4.3344 30.3408
1 0 8.6688 26.0064
1 4.3344 13.0032 26.0064
1 4.3344 8.6688 30.3408
1 0 13.0032 30.3408
1 8.6688 8.6688 26.0064
1 13.0032 13.0032 26.0064
1 13.0032 8.6688 30.3408
1 8.6688 13.0032 30.3408
1 17.3376 8.6688 26.0064
1 21.672 13.0032 26.0064
1 21.672 8.6688 30.3408
1 17.3376 13.0032 30.3408
1 26.0064 8.6688 26.0064
1 30.3408 13.0032 26.0064
1 30.3408 8.6688 30.3408
1 26.0064 13.0032 30.3408
1 0 17.3376 26.0064
1 4.3344 21.672 26.0064
1 4.3344 17.3376 30.3408
1 0 21.672 30.3408
1 8.6688 17.3376 26.0064
1 13.0032 21.672 26.0064
1 13.0032 17.3376 30.3408
1 8.6688 21.672 30.3408
1 17.3376 17.3376 26.0064
1 21.672 21.672 26.0064
1 21.672 17.3376 30.3408
1 17.3376 21.672 30.3408
1 26.0064 17.3376 26.0064
1 30.3408 21.672 26.0064
1 30.3408 17.3376 30.3408
1 26.0064 21.672 30.3408
1 0 26.0064 26.0064
1 4.3344 30.3408 26.0064
1 4.3344 26.0064 30.3408
1 0 30.3408 30.3408
1 8.6688 26.0064 26.0064
1 13.0032 30.3408 26.0064
1 13.0032 26.0064 30.3408
1 8.6688 30.3408 30.3408
1 17.3376 26.0064 26.0064
1 21.672 30.3408 26.0064
1 21.672 26.0064 30.3408
1 17.3376 30.3408 30.3408
1 26.0064 26.0064 26.0064
1 30.3408 30.3408 26.0064
1 30.3408 26.0064 30.3408
1 26.0064 30.3408 30.3408
