ITEM: TIMESTEP
0
ITEM: NUMBER OF ATOMS
256
ITEM: BOX BOUNDS pp pp pp
0.0000000000000000e+00 3.4675203027999999e+01
0.0000000000000000e+00 3.4675203027999999e+01
0.0000000000000000e+00 3.4675203027999999e+01
ITEM: ATOMS x y z fx fy fz
0 0 0 0 5.0822e-21 1.35525e-20
4.3344 4.3344 0 -6.77626e-21 1.18585e-20 2.96462e-21
4.3344 0 4.3344 -6.77626e-21 -4.23516e-22 3.38813e-21
0 4.3344 4.3344 0 3.38813e-21 -3.38813e-21
8.6688 0 0 2.5411e-21 -6.77626e-21 -1.01644e-20
13.0032 4.3344 0 -1.69407e-21 0 -6.77626e-21
13.0032 0 4.3344 -2.32934e-21 6.77626e-21 1.69407e-21
8.6688 4.3344 4.3344 3.17637e-21 2.48816e-21 1.68877e-20
17.3376 0 0 2.11758e-22 -6.77626e-21 -1.01644e-20
21.672 4.3344 0 -2.32934e-21 0 -4.2881e-21
21.672 0 4.3344 -2.32934e-21 9.26442e-21 1.69407e-21
17.3376 4.3344 4.3344 1.48231e-21 6.77626e-21 2.11758e-20
26.0064 0 0 0 -1.27055e-21 -5.0822e-21
30.3408 4.3344 0 5.0822e-21 -8.47033e-22 3.38813e-21
30.3408 0 4.3344 1.69407e-21 1.35525e-20 0
26.0064 4.3344 4.3344 1.27055e-21 6.14099e-21 2.05405e-20
0 8.6688 0 0 0 -1.01644e-20
4.3344 13.0032 0 -6.77626e-21 -8.47033e-22 9.74088e-21
4.3344 8.6688 4.3344 0 -2.96462e-21 3.72694e-20
0 13.0032 4.3344 -6.77626e-21 0 -2.5411e-20
8.6688 8.6688 0 -8.47033e-22 -9.31736e-21 6.77626e-21
13.0032 13.0032 0 -2.11758e-21 -6.98802e-21 -6.77626e-21
13.0032 8.6688 4.3344 -5.0822e-21 4.23516e-21 3.63695e-20
8.6688 13.0032 4.3344 2.96462e-21 -1.32349e-21 1.60407e-20
17.3376 8.6688 0 -3.17637e-21 4.23516e-21 2.03288e-20
21.672 13.0032 0 -2.75286e-21 -6.98802e-21 -4.2881e-21
21.672 8.6688 4.3344 -5.71747e-21 6.72332e-21 3.63695e-20
17.3376 13.0032 4.3344 1.27055e-21 -3.81165e-21 2.03288e-20
26.0064 8.6688 0 -3.38813e-21 2.5411e-21 1.90582e-20
30.3408 13.0032 0 4.23516e-22 -1.69407e-21 6.77626e-21
30.3408 8.6688 4.3344 -3.38813e-21 -6.77626e-21 2.5411e-20
26.0064 13.0032 4.3344 1.69407e-21 -5.0822e-21 1.96935e-20
0 17.3376 0 -6.77626e-21 0 -3.38813e-21
4.3344 21.672 0 -6.77626e-21 -8.47033e-22 1.2282e-20
4.3344 17.3376 4.3344 0 -8.25857e-21 2.79521e-20
0 21.672 4.3344 -6.77626e-21 0 -2.5411e-20
8.6688 17.3376 0 -8.47033e-22 -8.47033e-21 6.77626e-21
13.0032 21.672 0 -2.11758e-21 -6.98802e-21 -4.2881e-21
13.0032 17.3376 4.3344 -5.0822e-21 9.1056e-21 4.06576e-20
8.6688 21.672 4.3344 2.96462e-21 -1.32349e-21 1.60407e-20
17.3376 17.3376 0 -3.17637e-21 5.0822e-21 0
21.672 21.672 0 -2.75286e-21 -6.98802e-21 -1.79995e-21
21.672 17.3376 4.3344 -5.71747e-21 4.8175e-21 4.06576e-20
17.3376 21.672 4.3344 1.27055e-21 -3.81165e-21 2.03288e-20
26.0064 17.3376 0 -3.38813e-21 0 1.2282e-20
30.3408 21.672 0 4.23516e-22 -1.69407e-21 8.47033e-21
30.3408 17.3376 4.3344 -3.38813e-21 0 3.04932e-20
26.0064 21.672 4.3344 1.69407e-21 -5.0822e-21 1.96935e-20
0 26.0064 0 -1.35525e-20 0 1.69407e-21
4.3344 30.3408 0 -6.77626e-21 -4.65868e-21 2.11758e-20
4.3344 26.0064 4.3344 0 -8.25857e-21 2.71051e-20
0 30.3408 4.3344 -6.77626e-21 0 -2.37169e-20
8.6688 26.0064 0 -8.47033e-22 -6.77626e-21 1.43996e-20
13.0032 30.3408 0 -2.75286e-21 -7.6233e-21 5.92923e-21
13.0032 26.0064 4.3344 -5.0822e-21 9.1056e-21 4.00223e-20
8.6688 30.3408 4.3344 2.75286e-21 -8.99973e-22 1.60407e-20
17.3376 26.0064 0 -3.17637e-21 6.77626e-21 7.6233e-21
21.672 30.3408 0 -2.75286e-21 -7.6233e-21 8.41739e-21
21.672 26.0064 4.3344 -5.71747e-21 4.8175e-21 4.00223e-20
17.3376 30.3408 4.3344 1.05879e-21 -3.38813e-21 2.03288e-20
26.0064 26.0064 0 -3.38813e-21 1.69407e-21 1.99053e-20
30.3408 30.3408 0 0 -1.69407e-21 5.0822e-21
30.3408 26.0064 4.3344 -3.38813e-21 0 3.04932e-20
26.0064 30.3408 4.3344 1.69407e-21 -4.87044e-21 1.96935e-20
0 0 8.6688 0 -6.77626e-21 -8.47033e-21
4.3344 4.3344 8.6688 0 5.0822e-21 -1.14349e-20
4.3344 0 13.0032 -6.77626e-21 1.3129e-20 1.69407e-21
0 4.3344 13.0032 6.77626e-21 3.38813e-21 6.77626e-21
8.6688 0 8.6688 2.5411e-21 6.77626e-21 0
13.0032 4.3344 8.6688 -4.65868e-21 6.77626e-21 -2.5411e-21
13.0032 0 13.0032 -2.75286e-21 6.77626e-21 -9.31736e-21
8.6688 4.3344 13.0032 2.75286e-21 2.48816e-21 -3.44107e-21
17.3376 0 8.6688 2.11758e-22 -6.77626e-21 0
21.672 4.3344 8.6688 -5.71747e-21 6.77626e-21 -5.98217e-21
21.672 0 13.0032 -2.75286e-21 9.26442e-21 -9.31736e-21
17.3376 4.3344 13.0032 1.05879e-21 6.77626e-21 -5.92923e-21
26.0064 0 8.6688 3.38813e-21 1.2282e-20 3.38813e-21
30.3408 4.3344 8.6688 3.38813e-21 -8.47033e-22 1.35525e-20
30.3408 0 13.0032 1.69407e-21 1.01644e-20 1.69407e-21
26.0064 4.3344 13.0032 1.69407e-21 6.14099e-21 -6.56451e-21
0 8.6688 8.6688 1.35525e-20 -4.23516e-21 -3.38813e-21
4.3344 13.0032 8.6688 0 -8.47033e-22 1.27055e-21
4.3344 8.6688 13.0032 6.77626e-21 -3.81165e-21 2.5411e-21
0 13.0032 13.0032 0 0 1.69407e-21
8.6688 8.6688 8.6688 2.5411e-21 -1.10114e-20 1.01644e-20
13.0032 13.0032 8.6688 -5.0822e-21 -7.19978e-21 1.01644e-20
13.0032 8.6688 13.0032 -2.11758e-21 3.38813e-21 -6.19393e-21
8.6688 13.0032 13.0032 2.5411e-21 -1.95876e-21 -3.65283e-21
17.3376 8.6688 8.6688 -6.35275e-22 2.5411e-21 3.38813e-21
21.672 13.0032 8.6688 -6.14099e-21 -7.19978e-21 6.72332e-21
21.672 8.6688 13.0032 6.35275e-22 5.87629e-21 -6.19393e-21
17.3376 13.0032 13.0032 8.47033e-22 -4.44692e-21 -6.14099e-21
26.0064 8.6688 8.6688 -3.38813e-21 4.23516e-21 1.56701e-20
30.3408 13.0032 8.6688 3.38813e-21 -1.69407e-21 2.03288e-20
30.3408 8.6688 13.0032 -3.38813e-21 -6.77626e-21 8.47033e-21
26.0064 13.0032 13.0032 2.11758e-21 -5.71747e-21 -6.98802e-21
0 17.3376 8.6688 0 0 -3.38813e-21
4.3344 21.672 8.6688 0 -8.47033e-22 1.05879e-20
4.3344 17.3376 13.0032 6.77626e-21 -8.89385e-21 -8.47033e-22
0 21.672 13.0032 0 0 1.69407e-21
8.6688 17.3376 8.6688 2.5411e-21 -6.98802e-21 1.69407e-20
13.0032 21.672 8.6688 -5.0822e-21 -8.68209e-21 6.72332e-21
13.0032 17.3376 13.0032 -2.11758e-21 8.47033e-21 -8.68209e-21
8.6688 21.672 13.0032 2.5411e-21 -1.95876e-21 -3.65283e-21
17.3376 17.3376 8.6688 -6.35275e-22 6.56451e-21 3.38813e-21
21.672 21.672 8.6688 -6.14099e-21 -8.68209e-21 1.59877e-20
21.672 17.3376 13.0032 6.35275e-22 4.18223e-21 -8.68209e-21
17.3376 21.672 13.0032 8.47033e-22 -4.44692e-21 -6.14099e-21
26.0064 17.3376 8.6688 -3.38813e-21 1.69407e-21 1.56701e-20
30.3408 21.672 8.6688 3.38813e-21 -2.5411e-21 2.20229e-20
30.3408 17.3376 13.0032 1.69407e-21 0 0
26.0064 21.672 13.0032 2.11758e-21 -5.71747e-21 -6.98802e-21
0 26.0064 8.6688 6.77626e-21 6.77626e-21 0
4.3344 30.3408 8.6688 6.77626e-21 4.23516e-22 1.60936e-20
4.3344 26.0064 13.0032 6.77626e-21 -4.87044e-21 -8.47033e-22
0 30.3408 13.0032 -6.77626e-21 -1.01644e-20 3.38813e-21
8.6688 26.0064 8.6688 2.5411e-21 -1.69407e-21 3.04932e-20
13.0032 30.3408 8.6688 -5.50571e-21 -8.47033e-22 1.52466e-20
13.0032 26.0064 13.0032 -2.11758e-21 9.1056e-21 -9.52912e-21
8.6688 30.3408 13.0032 2.5411e-21 -9.3703e-21 -2.29228e-20
17.3376 26.0064 8.6688 -6.35275e-22 -1.69407e-21 1.69407e-20
21.672 30.3408 8.6688 -6.56451e-21 -8.47033e-22 2.4511e-20
21.672 26.0064 13.0032 6.35275e-22 4.8175e-21 -9.52912e-21
17.3376 30.3408 13.0032 8.47033e-22 -1.18585e-20 -1.86347e-20
26.0064 26.0064 8.6688 -3.38813e-21 9.31736e-21 1.65171e-20
30.3408 30.3408 8.6688 -1.69407e-21 5.0822e-21 -5.0822e-21
30.3408 26.0064 13.0032 1.69407e-21 3.38813e-21 1.18585e-20
26.0064 30.3408 13.0032 2.11758e-21 -7.41154e-21 -1.58819e-20
0 0 17.3376 0 -1.35525e-20 -1.69407e-21
4.3344 4.3344 17.3376 0 5.0822e-21 -2.11758e-21
4.3344 0 21.672 -6.77626e-21 1.3129e-20 1.69407e-21
0 4.3344 21.672 6.77626e-21 3.38813e-21 6.77626e-21
8.6688 0 17.3376 2.5411e-21 -6.77626e-21 -1.69407e-21
13.0032 4.3344 17.3376 -4.65868e-21 6.77626e-21 -5.0822e-21
13.0032 0 21.672 -2.75286e-21 6.77626e-21 -9.31736e-21
8.6688 4.3344 21.672 2.75286e-21 2.48816e-21 -3.44107e-21
17.3376 0 17.3376 2.11758e-22 6.77626e-21 -1.69407e-21
21.672 4.3344 17.3376 -5.71747e-21 6.77626e-21 4.18223e-21
21.672 0 21.672 -2.75286e-21 9.26442e-21 -9.31736e-21
17.3376 4.3344 21.672 1.05879e-21 6.77626e-21 -5.92923e-21
26.0064 0 17.3376 3.38813e-21 1.2282e-20 5.0822e-21
30.3408 4.3344 17.3376 6.77626e-21 -8.47033e-22 1.69407e-20
30.3408 0 21.672 1.69407e-21 1.01644e-20 1.69407e-21
26.0064 4.3344 21.672 1.69407e-21 6.14099e-21 -6.56451e-21
0 8.6688 17.3376 0 -4.23516e-21 1.69407e-21
4.3344 13.0032 17.3376 0 -8.47033e-22 1.05879e-20
4.3344 8.6688 21.672 6.77626e-21 -3.81165e-21 2.5411e-21
0 13.0032 21.672 0 0 1.69407e-21
8.6688 8.6688 17.3376 2.5411e-21 -1.10114e-20 7.19978e-21
13.0032 13.0032 17.3376 -5.0822e-21 -7.19978e-21 8.47033e-21
13.0032 8.6688 21.672 -2.11758e-21 3.38813e-21 -6.19393e-21
8.6688 13.0032 21.672 2.5411e-21 -1.95876e-21 -3.65283e-21
17.3376 8.6688 17.3376 -6.35275e-22 2.5411e-21 1.3976e-20
21.672 13.0032 17.3376 -6.14099e-21 -7.19978e-21 4.18223e-21
21.672 8.6688 21.672 6.35275e-22 5.87629e-21 -6.19393e-21
17.3376 13.0032 21.672 8.47033e-22 -4.44692e-21 -6.14099e-21
26.0064 8.6688 17.3376 -3.38813e-21 4.23516e-21 1.3129e-20
30.3408 13.0032 17.3376 4.23516e-22 -1.69407e-21 2.03288e-20
30.3408 8.6688 21.672 -3.38813e-21 -6.77626e-21 8.47033e-21
26.0064 13.0032 21.672 2.11758e-21 -5.71747e-21 -6.98802e-21
0 17.3376 17.3376 0 0 1.69407e-21
4.3344 21.672 17.3376 0 -8.47033e-22 2.07523e-20
4.3344 17.3376 21.672 6.77626e-21 -8.89385e-21 -8.47033e-22
0 21.672 21.672 0 0 1.69407e-21
8.6688 17.3376 17.3376 2.5411e-21 -6.98802e-21 1.3976e-20
13.0032 21.672 17.3376 -5.0822e-21 -8.68209e-21 4.18223e-21
13.0032 17.3376 21.672 -2.11758e-21 8.47033e-21 -8.68209e-21
8.6688 21.672 21.672 2.5411e-21 -1.95876e-21 -3.65283e-21
17.3376 17.3376 17.3376 -6.35275e-22 6.56451e-21 1.3976e-20
21.672 21.672 17.3376 -6.14099e-21 -8.68209e-21 1.34466e-20
21.672 17.3376 21.672 6.35275e-22 4.18223e-21 -8.68209e-21
17.3376 21.672 21.672 8.47033e-22 -4.44692e-21 -6.14099e-21
26.0064 17.3376 17.3376 -3.38813e-21 1.69407e-21 1.3129e-20
30.3408 21.672 17.3376 4.23516e-22 -2.5411e-21 2.87991e-20
30.3408 17.3376 21.672 1.69407e-21 0 0
26.0064 21.672 21.672 2.11758e-21 -5.71747e-21 -6.98802e-21
0 26.0064 17.3376 -6.77626e-21 6.77626e-21 3.38813e-21
4.3344 30.3408 17.3376 6.77626e-21 -2.96462e-21 2.87991e-20
4.3344 26.0064 21.672 6.77626e-21 -4.87044e-21 -8.47033e-22
0 30.3408 21.672 -6.77626e-21 -1.01644e-20 3.38813e-21
8.6688 26.0064 17.3376 2.5411e-21 -1.69407e-21 2.87991e-20
13.0032 30.3408 17.3376 -5.50571e-21 -8.47033e-22 2.03288e-20
13.0032 26.0064 21.672 -2.11758e-21 9.1056e-21 -9.52912e-21
8.6688 30.3408 21.672 2.5411e-21 -9.3703e-21 -2.29228e-20
17.3376 26.0064 17.3376 -6.35275e-22 -1.69407e-21 2.87991e-20
21.672 30.3408 17.3376 -6.56451e-21 -8.47033e-22 2.95932e-20
21.672 26.0064 21.672 6.35275e-22 4.8175e-21 -9.52912e-21
17.3376 30.3408 21.672 8.47033e-22 -1.18585e-20 -1.86347e-20
26.0064 26.0064 17.3376 -3.38813e-21 9.31736e-21 2.66815e-20
30.3408 30.3408 17.3376 3.38813e-21 -1.69407e-21 5.0822e-21
30.3408 26.0064 21.672 1.69407e-21 3.38813e-21 1.18585e-20
26.0064 30.3408 21.672 2.11758e-21 -7.41154e-21 -1.58819e-20
0 0 26.0064 0 -1.35525e-20 -1.69407e-21
4.3344 4.3344 26.0064 0 5.0822e-21 -2.11758e-21
4.3344 0 30.3408 -6.77626e-21 1.3129e-20 1.69407e-21
0 4.3344 30.3408 6.77626e-21 3.38813e-21 6.77626e-21
8.6688 0 26.0064 2.5411e-21 -6.77626e-21 -1.69407e-21
13.0032 4.3344 26.0064 -4.65868e-21 6.77626e-21 -5.0822e-21
13.0032 0 30.3408 -2.75286e-21 6.77626e-21 -9.31736e-21
8.6688 4.3344 30.3408 2.75286e-21 2.48816e-21 -3.44107e-21
17.3376 0 26.0064 2.11758e-22 6.77626e-21 -1.69407e-21
21.672 4.3344 26.0064 -5.71747e-21 6.77626e-21 4.18223e-21
21.672 0 30.3408 -2.75286e-21 9.26442e-21 -9.31736e-21
17.3376 4.3344 30.3408 1.05879e-21 6.77626e-21 -5.92923e-21
26.0064 0 26.0064 3.38813e-21 1.2282e-20 5.0822e-21
30.3408 4.3344 26.0064 6.77626e-21 -8.47033e-22 1.69407e-20
30.3408 0 30.3408 1.69407e-21 1.01644e-20 1.69407e-21
26.0064 4.3344 30.3408 1.69407e-21 6.14099e-21 -6.56451e-21
0 8.6688 26.0064 0 -4.23516e-21 1.69407e-21
4.3344 13.0032 26.0064 0 -8.47033e-22 1.05879e-20
4.3344 8.6688 30.3408 6.77626e-21 -3.81165e-21 2.5411e-21
0 13.0032 30.3408 0 0 1.69407e-21
8.6688 8.6688 26.0064 2.5411e-21 -1.10114e-20 7.19978e-21
13.0032 13.0032 26.0064 -5.0822e-21 -7.19978e-21 8.47033e-21
13.0032 8.6688 30.3408 -2.11758e-21 3.38813e-21 -6.19393e-21
8.6688 13.0032 30.3408 2.5411e-21 -1.95876e-21 -3.65283e-21
17.3376 8.6688 26.0064 -6.35275e-22 2.5411e-21 1.3976e-20
21.672 13.0032 26.0064 -6.14099e-21 -7.19978e-21 4.18223e-21
21.672 8.6688 30.3408 6.35275e-22 5.87629e-21 -6.19393e-21
17.3376 13.0032 30.3408 8.47033e-22 -4.44692e-21 -6.14099e-21
26.0064 8.6688 26.0064 -3.38813e-21 4.23516e-21 1.3129e-20
30.3408 13.0032 26.0064 4.23516e-22 -1.69407e-21 2.03288e-20
30.3408 8.6688 30.3408 -3.38813e-21 -6.77626e-21 8.47033e-21
26.0064 13.0032 30.3408 2.11758e-21 -5.71747e-21 -6.98802e-21
0 17.3376 26.0064 0 0 1.69407e-21
4.3344 21.672 26.0064 0 -8.47033e-22 2.07523e-20
4.3344 17.3376 30.3408 6.77626e-21 -8.89385e-21 -8.47033e-22
0 21.672 30.3408 0 0 1.69407e-21
8.6688 17.3376 26.0064 2.5411e-21 -6.98802e-21 1.3976e-20
13.0032 21.672 26.0064 -5.0822e-21 -8.68209e-21 4.18223e-21
13.0032 17.3376 30.3408 -2.11758e-21 8.47033e-21 -8.68209e-21
8.6688 21.672 30.3408 2.5411e-21 -1.95876e-21 -3.65283e-21
17.3376 17.3376 26.0064 -6.35275e-22 6.56451e-21 1.3976e-20
21.672 21.672 26.0064 -6.14099e-21 -8.68209e-21 1.34466e-20
21.672 17.3376 30.3408 6.35275e-22 4.18223e-21 -8.68209e-21
17.3376 21.672 30.3408 8.47033e-22 -4.44692e-21 -6.14099e-21
26.0064 17.3376 26.0064 -3.38813e-21 1.69407e-21 1.3129e-20
30.3408 21.672 26.0064 4.23516e-22 -2.5411e-21 2.87991e-20
30.3408 17.3376 30.3408 1.69407e-21 0 0
26.0064 21.672 30.3408 2.11758e-21 -5.71747e-21 -6.98802e-21
0 26.0064 26.0064 -6.77626e-21 6.77626e-21 3.38813e-21
4.3344 30.3408 26.0064 6.77626e-21 -2.96462e-21 2.87991e-20
4.3344 26.0064 30.3408 6.77626e-21 -4.87044e-21 -8.47033e-22
0 30.3408 30.3408 -6.77626e-21 -1.01644e-20 3.38813e-21
8.6688 26.0064 26.0064 2.5411e-21 -1.69407e-21 2.87991e-20
13.0032 30.3408 26.0064 -5.50571e-21 -8.47033e-22 2.03288e-20
13.0032 26.0064 30.3408 -2.11758e-21 9.1056e-21 -9.52912e-21
8.6688 30.3408 30.3408 2.5411e-21 -9.3703e-21 -2.29228e-20
17.3376 26.0064 26.0064 -6.35275e-22 -1.69407e-21 2.87991e-20
21.672 30.3408 26.0064 -6.56451e-21 -8.47033e-22 2.95932e-20
21.672 26.0064 30.3408 6.35275e-22 4.8175e-21 -9.52912e-21
17.3376 30.3408 30.3408 8.47033e-22 -1.18585e-20 -1.86347e-20
26.0064 26.0064 26.0064 -3.38813e-21 9.31736e-21 2.66815e-20
30.3408 30.3408 26.0064 3.38813e-21 -1.69407e-21 5.0822e-21
30.3408 26.0064 30.3408 1.69407e-21 3.38813e-21 1.18585e-20
26.0064 30.3408 30.3408 2.11758e-21 -7.41154e-21 -1.58819e-20
