# DFF generated LAMMPS data file
3000 atoms
2000 bonds
1000 angles
0 dihedrals
0 impropers

2  atom types
1  bond types
1  angle types
0  dihedral types
0  improper types

      0.0000     31.0430   xlo xhi
      0.0000     31.0430   ylo yhi
      0.0000     31.0430   zlo zhi

Masses

           1     15.9994   #   o_2w
           2      1.0079   #   h_1o

Atoms

           1           1           1    -0.84760    10.02000    17.96200    20.41400	      #     O1
           2           1           2     0.42380    10.01000    18.85000    20.89600	      #     H2
           3           1           2     0.42380    10.87100    17.45700    20.64700	      #     H3
           4           2           1    -0.84760     5.99700    12.62400    25.60500	      #     O4
           5           2           2     0.42380     5.78800    12.30400    26.55300	      #     H5
           6           2           2     0.42380     6.69100    11.94300    25.34500	      #     H6
           7           3           1    -0.84760     8.41400     5.80900    17.01200	      #     O7
           8           3           2     0.42380     8.48900     5.69300    16.00800	      #     H8
           9           3           2     0.42380     7.90800     4.99800    17.40500	      #     H9
          10           4           1    -0.84760    17.58100    16.62000     6.43700	      #     O10
          11           4           2     0.42380    17.25100    17.30600     7.17000	      #     H11
          12           4           2     0.42380    18.39900    17.02700     5.90600	      #     H12
          13           5           1    -0.84760    15.82700    21.92200    15.08600	      #     O13
          14           5           2     0.42380    16.43600    22.69100    15.11000	      #     H14
          15           5           2     0.42380    16.56400    21.17400    14.98900	      #     H15
          16           6           1    -0.84760    24.18200    -0.18100    27.97700	      #     O16
          17           6           2     0.42380    23.95500    -0.27600    26.96300	      #     H17
          18           6           2     0.42380    23.44400     0.37300    28.30000	      #     H18
          19           7           1    -0.84760     7.19500     7.91600    -0.56500	      #     O19
          20           7           2     0.42380     7.55900     6.96600    -0.38300	      #     H20
          21           7           2     0.42380     7.20700     8.39600     0.34200	      #     H21
          22           8           1    -0.84760     5.63500    13.85300    11.25200	      #     O22
          23           8           2     0.42380     6.08200    13.16700    10.62800	      #     H23
          24           8           2     0.42380     4.84500    13.43100    11.72500	      #     H24
          25           9           1    -0.84760    23.85900    -0.47100    19.57500	      #     O25
          26           9           2     0.42380    24.23000    -0.80400    18.71100	      #     H26
          27           9           2     0.42380    23.88300    -1.23400    20.25500	      #     H27
          28          10           1    -0.84760     7.19100    20.92100    28.09900	      #     O28
          29          10           2     0.42380     6.61400    21.56500    27.55300	      #     H29
          30          10           2     0.42380     6.68200    20.08700    28.02500	      #     H30
          31          11           1    -0.84760     6.10000    27.87700    18.99800	      #     O31
          32          11           2     0.42380     5.49800    27.32200    18.45300	      #     H32
          33          11           2     0.42380     7.03600    27.63800    18.73900	      #     H33
          34          12           1    -0.84760    22.42000     9.51900     9.70000	      #     O34
          35          12           2     0.42380    22.08300     9.67000    10.67900	      #     H35
          36          12           2     0.42380    23.36100     9.97900     9.69000	      #     H36
          37          13           1    -0.84760    29.33600    21.61500    18.38900	      #     O37
          38          13           2     0.42380    29.20300    22.58600    18.29200	      #     H38
          39          13           2     0.42380    28.37100    21.33000    18.42500	      #     H39
          40          14           1    -0.84760    20.82900    25.68600    29.05700	      #     O40
          41          14           2     0.42380    20.68200    24.91600    29.71000	      #     H41
          42          14           2     0.42380    19.95500    25.65300    28.50100	      #     H42
          43          15           1    -0.84760    20.16600    20.34600    17.44500	      #     O43
          44          15           2     0.42380    20.37000    19.35800    17.15100	      #     H44
          45          15           2     0.42380    20.89300    20.56700    18.05800	      #     H45
          46          16           1    -0.84760    24.91300    27.21500    15.65400	      #     O46
          47          16           2     0.42380    24.95000    27.94200    16.40800	      #     H47
          48          16           2     0.42380    25.30100    27.67200    14.82300	      #     H48
          49          17           1    -0.84760    10.86100    25.07200    22.61800	      #     O49
          50          17           2     0.42380    10.51500    25.85100    21.97900	      #     H50
          51          17           2     0.42380    10.26100    25.02600    23.45100	      #     H51
          52          18           1    -0.84760    20.41700     4.62600    14.12400	      #     O52
          53          18           2     0.42380    21.28400     3.99600    14.15300	      #     H53
          54          18           2     0.42380    20.66000     5.60900    13.89000	      #     H54
          55          19           1    -0.84760    18.65500     9.73300    16.03500	      #     O55
          56          19           2     0.42380    18.81100     9.24400    15.15200	      #     H56
          57          19           2     0.42380    17.82800    10.19500    15.75000	      #     H57
          58          20           1    -0.84760    15.15000    10.75800    24.17300	      #     O58
          59          20           2     0.42380    14.29300    11.08600    24.54700	      #     H59
          60          20           2     0.42380    15.86200    11.41200    24.55500	      #     H60
          61          21           1    -0.84760     0.43700     1.33900    16.19600	      #     O61
          62          21           2     0.42380     0.45100     1.11700    15.20700	      #     H62
          63          21           2     0.42380     0.46400     0.48900    16.74600	      #     H63
          64          22           1    -0.84760     6.40400    22.65100    26.12000	      #     O64
          65          22           2     0.42380     5.42300    22.87000    26.37400	      #     H65
          66          22           2     0.42380     6.11500    22.28300    25.17700	      #     H66
          67          23           1    -0.84760    24.88400    20.16700    25.26600	      #     O67
          68          23           2     0.42380    23.95400    20.57300    24.98900	      #     H68
          69          23           2     0.42380    25.39500    21.06100    25.25300	      #     H69
          70          24           1    -0.84760    13.97500    16.88900    10.88100	      #     O70
          71          24           2     0.42380    13.82600    16.33300    10.04100	      #     H71
          72          24           2     0.42380    13.34100    16.77700    11.59500	      #     H72
          73          25           1    -0.84760     0.73200    20.62100     5.08000	      #     O73
          74          25           2     0.42380     0.48100    19.75800     5.45100	      #     H74
          75          25           2     0.42380     0.24900    20.62700     4.22900	      #     H75
          76          26           1    -0.84760     4.21500    23.27600    20.59300	      #     O76
          77          26           2     0.42380     4.32700    24.17100    20.06800	      #     H77
          78          26           2     0.42380     3.75400    23.53200    21.42600	      #     H78
          79          27           1    -0.84760     5.08400    20.34600     6.43100	      #     O79
          80          27           2     0.42380     4.33700    20.78900     5.90200	      #     H80
          81          27           2     0.42380     4.78300    19.42800     6.59200	      #     H81
          82          28           1    -0.84760     9.94400    22.43600    27.21700	      #     O82
          83          28           2     0.42380     9.49200    21.88100    26.52400	      #     H83
          84          28           2     0.42380    10.75500    21.84300    27.39500	      #     H84
          85          29           1    -0.84760    22.87700     5.01000    28.11900	      #     O85
          86          29           2     0.42380    22.40000     5.25100    27.22800	      #     H86
          87          29           2     0.42380    23.73300     5.50100    28.05400	      #     H87
          88          30           1    -0.84760     3.15000    23.45700     0.05000	      #     O88
          89          30           2     0.42380     3.63500    24.06500     0.66700	      #     H89
          90          30           2     0.42380     3.49800    23.55000    -0.87900	      #     H90
          91          31           1    -0.84760    21.21700    14.97600    28.85900	      #     O91
          92          31           2     0.42380    22.02000    15.18800    28.28200	      #     H92
          93          31           2     0.42380    21.49700    15.06100    29.85600	      #     H93
          94          32           1    -0.84760    18.14800    25.30800     3.57400	      #     O94
          95          32           2     0.42380    17.65500    24.94900     2.75600	      #     H95
          96          32           2     0.42380    17.86600    24.72600     4.39200	      #     H96
          97          33           1    -0.84760    14.78100    10.19800    19.09700	      #     O97
          98          33           2     0.42380    13.87800    10.49300    19.47300	      #     H98
          99          33           2     0.42380    14.43200     9.89800    18.13600	      #     H99
         100          34           1    -0.84760    22.84400     2.27900    23.49900	      #     O100
         101          34           2     0.42380    21.82600     2.13500    23.68400	      #     H101
         102          34           2     0.42380    23.22400     1.40000    23.16000	      #     H102
         103          35           1    -0.84760    21.93300    14.23900     9.87300	      #     O103
         104          35           2     0.42380    21.23200    13.49500     9.81800	      #     H104
         105          35           2     0.42380    21.51100    15.06800     9.33000	      #     H105
         106          36           1    -0.84760    19.42400    30.06700     7.14100	      #     O106
         107          36           2     0.42380    18.65200    29.34600     7.16500	      #     H107
         108          36           2     0.42380    20.01100    29.93000     7.93500	      #     H108
         109          37           1    -0.84760     3.00900     7.29000    19.12900	      #     O109
         110          37           2     0.42380     2.34300     6.56000    19.04200	      #     H110
         111          37           2     0.42380     2.52200     7.60100    20.03000	      #     H111
         112          38           1    -0.84760    14.46300    13.71300    10.47200	      #     O112
         113          38           2     0.42380    13.77400    13.63700     9.69500	      #     H113
         114          38           2     0.42380    14.93100    14.60600    10.49300	      #     H114
         115          39           1    -0.84760    26.02000     3.52800    19.78800	      #     O115
         116          39           2     0.42380    25.04700     3.83300    19.83300	      #     H116
         117          39           2     0.42380    26.03000     2.63800    20.28600	      #     H117
         118          40           1    -0.84760    15.63500    27.14400    26.49400	      #     O118
         119          40           2     0.42380    14.59800    27.43000    26.44700	      #     H119
         120          40           2     0.42380    15.84700    26.35000    27.11500	      #     H120
         121          41           1    -0.84760    18.20200    -0.34100    13.08200	      #     O121
         122          41           2     0.42380    17.63600     0.47800    12.83100	      #     H122
         123          41           2     0.42380    17.53000    -1.12700    13.03800	      #     H123
         124          42           1    -0.84760     5.36400     1.04500     3.37800	      #     O124
         125          42           2     0.42380     6.38800     0.72200     3.40900	      #     H125
         126          42           2     0.42380     4.90900     0.71200     4.24200	      #     H126
         127          43           1    -0.84760    28.56000    17.87800    12.38900	      #     O127
         128          43           2     0.42380    27.75900    17.74800    12.93600	      #     H128
         129          43           2     0.42380    29.36300    18.37200    12.69000	      #     H129
         130          44           1    -0.84760    11.17600     9.31000    19.41400	      #     O130
         131          44           2     0.42380    10.42900     8.65200    19.27900	      #     H131
         132          44           2     0.42380    11.96800     8.92900    18.93400	      #     H132
         133          45           1    -0.84760    23.15200    11.07200    16.86400	      #     O133
         134          45           2     0.42380    23.22800    11.88000    16.23700	      #     H134
         135          45           2     0.42380    22.39000    10.45900    16.53300	      #     H135
         136          46           1    -0.84760    17.75000    13.43200     4.45000	      #     O136
         137          46           2     0.42380    18.72000    13.75500     4.33700	      #     H137
         138          46           2     0.42380    17.56000    12.78800     5.29500	      #     H138
         139          47           1    -0.84760    11.70100    14.33600    17.46700	      #     O139
         140          47           2     0.42380    10.83000    14.15500    17.93500	      #     H140
         141          47           2     0.42380    11.64900    15.19800    16.91500	      #     H141
         142          48           1    -0.84760    23.22600    -0.66600    25.69700	      #     O142
         143          48           2     0.42380    23.62500     0.00100    25.06700	      #     H143
         144          48           2     0.42380    22.51900    -1.05400    25.16600	      #     H144
         145          49           1    -0.84760    16.94400    11.52900    17.25900	      #     O145
         146          49           2     0.42380    15.97000    11.88500    17.38400	      #     H146
         147          49           2     0.42380    17.65000    12.05900    17.77100	      #     H147
         148          50           1    -0.84760    21.12700    26.88300    23.25400	      #     O148
         149          50           2     0.42380    21.07100    25.96900    22.88900	      #     H149
         150          50           2     0.42380    20.32100    27.34000    22.85300	      #     H150
         151          51           1    -0.84760    13.08200    28.59900     9.25700	      #     O151
         152          51           2     0.42380    12.99700    27.59400     9.03200	      #     H152
         153          51           2     0.42380    13.95400    28.78900     9.61000	      #     H153
         154          52           1    -0.84760    18.07800     1.87000    15.56900	      #     O154
         155          52           2     0.42380    17.67300     1.18000    14.94100	      #     H155
         156          52           2     0.42380    18.32700     2.58700    14.90100	      #     H156
         157          53           1    -0.84760    24.21600    23.08900    20.28300	      #     O157
         158          53           2     0.42380    23.81800    24.02700    20.26300	      #     H158
         159          53           2     0.42380    23.51800    22.38600    20.07300	      #     H159
         160          54           1    -0.84760    13.49600     3.82000     4.73600	      #     O160
         161          54           2     0.42380    13.46000     4.83000     4.74500	      #     H161
         162          54           2     0.42380    13.12400     3.62600     5.72000	      #     H162
         163          55           1    -0.84760     9.97500    10.77100     6.90400	      #     O163
         164          55           2     0.42380    10.85200    10.71000     6.43600	      #     H164
         165          55           2     0.42380     9.43300    10.27900     6.27000	      #     H165
         166          56           1    -0.84760     2.65800    15.47300    21.75500	      #     O166
         167          56           2     0.42380     2.85400    16.12500    22.44000	      #     H167
         168          56           2     0.42380     2.66900    14.51500    22.11500	      #     H168
         169          57           1    -0.84760    15.23100    25.00200    15.10200	      #     O169
         170          57           2     0.42380    14.21300    25.02400    15.21400	      #     H170
         171          57           2     0.42380    15.55100    25.61300    15.85500	      #     H171
         172          58           1    -0.84760    24.76200    12.98300    29.24400	      #     O172
         173          58           2     0.42380    24.23400    13.72400    29.65700	      #     H173
         174          58           2     0.42380    24.20700    12.40600    28.57500	      #     H174
         175          59           1    -0.84760    16.70100    23.48200    12.88000	      #     O175
         176          59           2     0.42380    16.06200    24.22400    13.24000	      #     H176
         177          59           2     0.42380    17.48400    23.50400    13.57700	      #     H177
         178          60           1    -0.84760     5.03400    14.97500     8.22300	      #     O178
         179          60           2     0.42380     4.66600    15.74600     7.70100	      #     H179
         180          60           2     0.42380     5.36300    15.29600     9.11700	      #     H180
         181          61           1    -0.84760     1.41800     0.11800    13.87300	      #     O181
         182          61           2     0.42380     1.81800    -0.01400    14.78800	      #     H182
         183          61           2     0.42380     0.38900    -0.01500    13.84100	      #     H183
         184          62           1    -0.84760    29.01700     8.90400    24.43500	      #     O184
         185          62           2     0.42380    28.39400     9.21500    23.74100	      #     H185
         186          62           2     0.42380    29.68600     8.45500    23.89000	      #     H186
         187          63           1    -0.84760     2.46500    19.03100    23.65900	      #     O187
         188          63           2     0.42380     2.12900    18.43200    24.46500	      #     H188
         189          63           2     0.42380     2.69700    18.32200    22.96300	      #     H189
         190          64           1    -0.84760    19.67500    19.94000    27.72700	      #     O190
         191          64           2     0.42380    20.13100    20.57000    27.09800	      #     H191
         192          64           2     0.42380    19.18000    20.42400    28.45600	      #     H192
         193          65           1    -0.84760    10.07000    23.67200    11.11200	      #     O193
         194          65           2     0.42380    10.51900    23.08700    10.45100	      #     H194
         195          65           2     0.42380     9.92900    24.48200    10.59100	      #     H195
         196          66           1    -0.84760    13.25600    28.34400    25.62000	      #     O196
         197          66           2     0.42380    12.63100    28.05800    24.83700	      #     H197
         198          66           2     0.42380    13.03800    28.09500    26.62000	      #     H198
         199          67           1    -0.84760    12.37800    10.79300    10.02000	      #     O199
         200          67           2     0.42380    13.11900    11.13600     9.53100	      #     H200
         201          67           2     0.42380    12.39300     9.81500     9.94000	      #     H201
         202          68           1    -0.84760    22.75300    14.39900     7.19200	      #     O202
         203          68           2     0.42380    21.78500    14.25000     6.98600	      #     H203
         204          68           2     0.42380    22.98300    13.64100     7.76400	      #     H204
         205          69           1    -0.84760    21.34100     2.49900     2.14600	      #     O205
         206          69           2     0.42380    20.61300     2.89500     2.74300	      #     H206
         207          69           2     0.42380    22.06500     3.22600     1.83100	      #     H207
         208          70           1    -0.84760    11.64800    20.29400    27.70500	      #     O208
         209          70           2     0.42380    11.88800    20.72800    28.56500	      #     H209
         210          70           2     0.42380    11.93400    19.29500    27.96600	      #     H210
         211          71           1    -0.84760     8.01800    25.70500    -0.48800	      #     O211
         212          71           2     0.42380     7.69400    25.20200    -1.34500	      #     H212
         213          71           2     0.42380     9.00600    25.68300    -0.45200	      #     H213
         214          72           1    -0.84760     7.55000     2.04700     1.09200	      #     O214
         215          72           2     0.42380     6.78400     2.29700     1.61100	      #     H215
         216          72           2     0.42380     7.30700     2.15000     0.14800	      #     H216
         217          73           1    -0.84760    27.52800    17.17200     8.33700	      #     O217
         218          73           2     0.42380    27.39900    16.58100     7.46000	      #     H218
         219          73           2     0.42380    28.56000    16.85700     8.49500	      #     H219
         220          74           1    -0.84760    25.28900    27.23700     6.77400	      #     O220
         221          74           2     0.42380    24.50500    27.84000     6.69400	      #     H221
         222          74           2     0.42380    25.38500    26.87200     7.72400	      #     H222
         223          75           1    -0.84760    26.37200     0.72700    -0.31700	      #     O223
         224          75           2     0.42380    27.34600     0.85700    -0.12100	      #     H224
         225          75           2     0.42380    26.01600     1.55700    -0.75100	      #     H225
         226          76           1    -0.84760    26.16200     3.51400    24.32700	      #     O226
         227          76           2     0.42380    27.13500     3.66200    24.08000	      #     H227
         228          76           2     0.42380    25.54600     3.30400    23.57500	      #     H228
         229          77           1    -0.84760    22.84800    27.59600    29.22800	      #     O229
         230          77           2     0.42380    22.08000    26.90900    29.06500	      #     H230
         231          77           2     0.42380    23.41000    26.96700    29.79900	      #     H231
         232          78           1    -0.84760    26.87700     3.82500    29.76200	      #     O232
         233          78           2     0.42380    27.54400     3.19700    30.19100	      #     H233
         234          78           2     0.42380    26.75100     3.68200    28.79700	      #     H234
         235          79           1    -0.84760    13.12900    12.86500    29.25300	      #     O235
         236          79           2     0.42380    12.43400    13.14800    28.59400	      #     H236
         237          79           2     0.42380    13.71300    13.67800    29.38000	      #     H237
         238          80           1    -0.84760    17.81000    10.12300     7.12400	      #     O238
         239          80           2     0.42380    17.14200     9.62900     6.54700	      #     H239
         240          80           2     0.42380    18.64100     9.88200     6.63300	      #     H240
         241          81           1    -0.84760     9.11100    14.30700    26.16000	      #     O241
         242          81           2     0.42380     9.94000    14.12900    26.74400	      #     H242
         243          81           2     0.42380     9.26700    13.63600    25.36000	      #     H243
         244          82           1    -0.84760    13.93000    18.44400    22.37300	      #     O244
         245          82           2     0.42380    14.20900    18.54400    23.29400	      #     H245
         246          82           2     0.42380    13.59300    19.26100    21.97000	      #     H246
         247          83           1    -0.84760     0.98800     6.29300    27.55700	      #     O247
         248          83           2     0.42380     0.66100     5.39100    27.24600	      #     H248
         249          83           2     0.42380     1.66000     6.39900    26.78000	      #     H249
         250          84           1    -0.84760    16.84600    29.24900    24.51000	      #     O250
         251          84           2     0.42380    16.15500    28.61600    24.90700	      #     H251
         252          84           2     0.42380    16.38300    29.46200    23.67000	      #     H252
         253          85           1    -0.84760     6.35100    17.25400     0.83800	      #     O253
         254          85           2     0.42380     6.87700    16.45400     0.54800	      #     H254
         255          85           2     0.42380     5.40800    16.85300     0.93700	      #     H255
         256          86           1    -0.84760    14.99500     7.90900    26.86300	      #     O256
         257          86           2     0.42380    14.70900     8.05000    27.84900	      #     H257
         258          86           2     0.42380    15.49800     7.06200    26.68800	      #     H258
         259          87           1    -0.84760     6.14100    28.63000    15.75200	      #     O259
         260          87           2     0.42380     6.30700    28.03400    16.59200	      #     H260
         261          87           2     0.42380     6.77000    29.40400    15.69900	      #     H261
         262          88           1    -0.84760    18.65800    14.29600    15.00200	      #     O262
         263          88           2     0.42380    19.31800    13.86500    14.37000	      #     H263
         264          88           2     0.42380    19.01100    15.24500    15.11500	      #     H264
         265          89           1    -0.84760     2.33700     9.03400    14.49900	      #     O265
         266          89           2     0.42380     2.08400     8.54100    13.66900	      #     H266
         267          89           2     0.42380     2.36800     8.41700    15.26300	      #     H267
         268          90           1    -0.84760    25.94900    19.31100     7.58500	      #     O268
         269          90           2     0.42380    25.95900    19.30900     8.56800	      #     H269
         270          90           2     0.42380    26.66100    18.63500     7.29300	      #     H270
         271          91           1    -0.84760    26.62900    23.49600    12.15600	      #     O271
         272          91           2     0.42380    26.96300    22.56800    12.24600	      #     H272
         273          91           2     0.42380    27.03600    24.04000    12.88200	      #     H273
         274          92           1    -0.84760    11.48400     2.32400    12.59700	      #     O274
         275          92           2     0.42380    11.49400     2.62300    11.62500	      #     H275
         276          92           2     0.42380    10.74900     1.62200    12.64000	      #     H276
         277          93           1    -0.84760    -0.51800    22.20500     8.88100	      #     O277
         278          93           2     0.42380     0.24900    22.55800     8.29500	      #     H278
         279          93           2     0.42380    -0.27400    22.11400     9.87800	      #     H279
         280          94           1    -0.84760     9.41700    -0.60000    -0.33000	      #     O280
         281          94           2     0.42380    10.01100     0.03500     0.20200	      #     H281
         282          94           2     0.42380     9.97700    -0.71600    -1.18400	      #     H282
         283          95           1    -0.84760     8.06700    23.08800    12.87300	      #     O283
         284          95           2     0.42380     8.84700    23.20800    12.17200	      #     H284
         285          95           2     0.42380     7.89200    23.83600    13.54200	      #     H285
         286          96           1    -0.84760    19.90600     3.96900     6.75100	      #     O286
         287          96           2     0.42380    18.90100     3.94900     6.74700	      #     H287
         288          96           2     0.42380    20.12800     4.43200     5.89700	      #     H288
         289          97           1    -0.84760     3.70900    13.47300    12.79500	      #     O289
         290          97           2     0.42380     3.70700    14.47600    12.92800	      #     H290
         291          97           2     0.42380     3.13100    13.06300    13.52000	      #     H291