LAMMPS (8 Mar 2018)
  using 1 OpenMP thread(s) per MPI task
# Initialization
units           metal
boundary        p p p
atom_style      full
processors      * * 1     # domain decomposition over x and y

# System and atom definition
# we use 2 atom types so that inter- and intra-layer
# interactions can be specified separately
read_data       hBN_AB_stack_2L_noH_equi_300K.data
  orthogonal box = (0 0 0) to (43.38 42.5773 100)
  1 by 1 by 1 MPI processor grid
  reading atoms ...
  1360 atoms
  reading velocities ...
  1360 velocities
  0 = max # of 1-2 neighbors
  0 = max # of 1-3 neighbors
  0 = max # of 1-4 neighbors
  1 = max # of special neighbors
mass            1 10.8110   # boron mass (g/mole) | membrane
mass            2 14.0067   # nitrogen mass (g/mole) | adsorbate
mass            3 10.8110   # boron mass (g/mole) | membrane
mass            4 14.0067   # nitrogen mass (g/mole) | adsorbate
# Separate atom groups
group membrane  type 1 2
680 atoms in group membrane
group adsorbate type 3 4
680 atoms in group adsorbate

######################## Potential defition ########################
pair_style  hybrid/overlay  tersoff  ilp/graphene/hbn 16.0 coul/shield 16.0 1
####################################################################
pair_coeff  * * tersoff          BNC.tersoff   NULL NULL B N  # chemical
Reading potential file BNC.tersoff with DATE: 2013-03-21
pair_coeff  * * ilp/graphene/hbn BNCH-old.ILP  B N B N  # long range
pair_coeff  1 3 coul/shield 0.70
pair_coeff  1 4 coul/shield 0.69498201415576216335
pair_coeff  2 3 coul/shield 0.69498201415576216335
pair_coeff  2 4 coul/shield 0.69
####################################################################
# Neighbor update settings
neighbor        2.0 bin
neigh_modify    every 1
neigh_modify    delay 0
neigh_modify    check yes

# calculate the COM
variable        adsxcom equal xcm(adsorbate,x)
variable        adsycom equal xcm(adsorbate,y)
variable        adszcom equal xcm(adsorbate,z)
variable        adsvxcom equal vcm(adsorbate,x)
variable        adsvycom equal vcm(adsorbate,y)
variable        adsvzcom equal vcm(adsorbate,z)

#### Simulation settings ####
timestep  0.001
#velocity  adsorbate create 300.0 12345
fix       subf membrane setforce 0.0 0.0 0.0
fix       thermostat all nve

compute   0 all pair tersoff
compute   1 all pair coul/shield ecoul
compute   2 all pair ilp/graphene/hbn
variable  Tersoff  equal c_0
variable  Ecoul    equal c_1
variable  EILP     equal c_2

# Calculate the pair potential between the substrate and slider
compute         sldsub adsorbate group/group membrane
variable        Evdw equal c_sldsub

############################

# Output
thermo          100
thermo_style    custom step etotal pe ke v_Evdw v_Tersoff v_EILP v_Ecoul temp v_adsxcom v_adsycom v_adszcom v_adsvxcom v_adsvycom v_adsvzcom f_subf[1] f_subf[2] f_subf[3]
thermo_modify   line one format float %.10f
thermo_modify   flush yes norm no lost warn #ignore

#dump            1 all custom 1000 traj.lammpstrj id mol type xu yu zu
#dump_modify     1 format line "%7d %3d %3d %15.10g %15.10g %15.10g" flush yes

###### Run molecular dynamics ######
run 1000
Neighbor list info ...
  update every 1 steps, delay 0 steps, check yes
  max neighbors/atom: 2000, page size: 100000
  master list distance cutoff = 18
  ghost atom cutoff = 18
  binsize = 9, bins = 5 5 12
  6 neighbor lists, perpetual/occasional/extra = 5 1 0
  (1) pair tersoff, perpetual, skip from (5)
      attributes: full, newton on
      pair build: skip
      stencil: none
      bin: none
  (2) pair ilp/graphene/hbn, perpetual
      attributes: full, newton on, ghost
      pair build: full/bin/ghost
      stencil: full/ghost/bin/3d
      bin: standard
  (3) pair coul/shield, perpetual, skip from (6)
      attributes: half, newton on
      pair build: skip
      stencil: none
      bin: none
  (4) compute group/group, occasional, copy from (6)
      attributes: half, newton on
      pair build: copy
      stencil: none
      bin: none
  (5) neighbor class addition, perpetual, copy from (2)
      attributes: full, newton on
      pair build: copy
      stencil: none
      bin: none
  (6) neighbor class addition, perpetual, half/full from (5)
      attributes: half, newton on
      pair build: halffull/newton
      stencil: none
      bin: none
Per MPI rank memory allocation (min/avg/max) = 57.85 | 57.85 | 57.85 Mbytes
Step TotEng PotEng KinEng v_Evdw v_Tersoff v_EILP v_Ecoul Temp v_adsxcom v_adsycom v_adszcom v_adsvxcom v_adsvycom v_adsvzcom f_subf[1] f_subf[2] f_subf[3] 
       0 -5114.6628078598 -5127.8586355055 13.1958276458 -75.3652234209 -5091.4120857465 -36.0831137829 -0.3634359761 75.1194741238 20.9113202537 20.6582215878 3.2895976612 -0.0495147937 -0.0552233516 -0.0166592619 -0.1742790202 -0.0884665936 -0.8010816801 
     100 -5114.6620580583 -5127.6958349342 13.0337768758 -75.2249487778 -5091.2407919311 -36.0927601416 -0.3622828614 74.1969727889 20.9076129631 20.6534162972 3.2908118318 -0.0234802196 -0.0397832410 0.0332404745 -0.2430042439 -0.1598109185 -0.5351246275 
     200 -5114.6630637865 -5127.5945140906 12.9314503041 -74.6445167393 -5091.1507571912 -36.0866688941 -0.3570880053 73.6144615235 20.9067696105 20.6505240051 3.2976575241 0.0078967872 -0.0170385302 0.0850447973 -0.2934041648 -0.2405295165 0.2309200807 
     300 -5114.6693830121 -5128.3286231421 13.6592401300 -74.2223518942 -5091.8645555419 -36.1107860098 -0.3532815904 77.7575278367 20.9090146500 20.6502445717 3.3024525026 0.0352437329 0.0112279015 -0.0021399216 -0.2166516175 -0.2410661267 0.9007458614 
     400 -5114.6614035404 -5127.6423784754 12.9809749350 -74.6548295432 -5091.2348011465 -36.0496340516 -0.3579432773 73.8963888364 20.9136276183 20.6526810045 3.2977225951 0.0556629502 0.0358324354 -0.0738287296 -0.1431221016 -0.1626739623 0.0673046122 
     500 -5114.6599876234 -5127.4097813122 12.7497936887 -75.2268687829 -5090.9284608504 -36.1195707042 -0.3617497575 72.5803506074 20.9197050770 20.6571510311 3.2909058903 0.0631939085 0.0530269602 -0.0516940297 -0.0112976844 -0.1217009147 -0.4713422319 
     600 -5114.6672773464 -5128.0912983829 13.4240210364 -75.3848112535 -5091.6338883189 -36.0938401510 -0.3635699131 76.4185034811 20.9258252862 20.6628322031 3.2892805234 0.0573396226 0.0579085440 0.0291853982 0.1059950758 0.0102266125 -0.7683214794 
     700 -5114.6609647250 -5127.7466720637 13.0857073388 -74.7981789470 -5091.2811095008 -36.1066385732 -0.3589239897 74.4925957063 20.9307092134 20.6683554324 3.2957959411 0.0396744013 0.0503347378 0.0818267711 0.1737903706 0.1258761156 0.1307185989 
     800 -5114.6622627667 -5128.0130406264 13.3507778597 -74.2952448854 -5091.5693975625 -36.0897180314 -0.3539250325 76.0015543464 20.9334441079 20.6725125240 3.3019570181 0.0142277646 0.0313116646 0.0291673132 0.2457478793 0.1912082770 0.7239823553 
     900 -5114.6675469561 -5128.1496933801 13.4821464240 -74.3644898573 -5091.6703861750 -36.1246785145 -0.3546286905 76.7493920516 20.9334403558 20.6744181494 3.3005582394 -0.0141399355 0.0063543986 -0.0561206619 0.2370151923 0.2115707560 0.7822017606 
    1000 -5114.6683146144 -5128.3364609113 13.6681462969 -75.1091579020 -5091.9370210069 -36.0375964349 -0.3618434694 77.8082276935 20.9306643096 20.6737238853 3.2922181699 -0.0411219854 -0.0200694204 -0.0788193565 0.2225175431 0.2377413412 -0.5875288557 
Loop time of 202.063 on 1 procs for 1000 steps with 1360 atoms

Performance: 0.428 ns/day, 56.129 hours/ns, 4.949 timesteps/s
91.0% CPU use with 1 MPI tasks x 1 OpenMP threads

MPI task timing breakdown:
Section |  min time  |  avg time  |  max time  |%varavg| %total
---------------------------------------------------------------
Pair    | 201.4      | 201.4      | 201.4      |   0.0 | 99.67
Bond    | 0.00092697 | 0.00092697 | 0.00092697 |   0.0 |  0.00
Neigh   | 0          | 0          | 0          |   0.0 |  0.00
Comm    | 0.086005   | 0.086005   | 0.086005   |   0.0 |  0.04
Output  | 0.50438    | 0.50438    | 0.50438    |   0.0 |  0.25
Modify  | 0.038846   | 0.038846   | 0.038846   |   0.0 |  0.02
Other   |            | 0.03093    |            |       |  0.02

Nlocal:    1360 ave 1360 max 1360 min
Histogram: 1 0 0 0 0 0 0 0 0 0
Nghost:    7840 ave 7840 max 7840 min
Histogram: 1 0 0 0 0 0 0 0 0 0
Neighs:    249628 ave 249628 max 249628 min
Histogram: 1 0 0 0 0 0 0 0 0 0
FullNghs:  253390 ave 253390 max 253390 min
Histogram: 1 0 0 0 0 0 0 0 0 0

Total # of neighbors = 253390
Ave neighs/atom = 186.316
Ave special neighs/atom = 0
Neighbor list builds = 0
Dangerous builds = 0
Total wall time: 0:03:22
