4
Lattice = "4.20979976654 0.0 0.0 0.00079999997979 4.19229984283 0.0 0.00139999995008 -0.00289999996312 4.20120000839" Properties=species:S:1:pos:R:3:forces:R:3 energy=-46.437936 stress="32125.329999999998 -282.22 -267.48 -282.22 28704.550000000003 301.20000000000005 -267.48 301.20000000000005 19406.25"
Ta 2.1056 -0.0014 2.1006 -0.00024 -0.000831 -4.2e-05
Ta 2.1053 2.0961 0.0 0.00024 0.000831 4.2e-05
Ta 0.0011 2.0947 2.1006 0.000211 -2.8e-05 -7.8e-05
Ta 0.0 0.0 0.0 -0.000211 2.8e-05 7.8e-05
4
Lattice = "4.21169996262 0.0 0.0 -0.0197000000626 4.18310022354 0.0 0.0122999995947 -0.0172000005841 4.21549987793" Properties=species:S:1:pos:R:3:forces:R:3 energy=-46.438504 stress="28580.99 4661.44 -2537.73 4661.44 21736.13 3777.39 -2537.73 3777.39 15422.61"
Ta 2.112 -0.0086 2.1078 -8.5e-05 0.000609 -0.000432
Ta 2.096 2.0916 0.0 8.5e-05 -0.000609 0.000432
Ta -0.0037 2.083 2.1078 -7.9e-05 -0.000591 -0.00044
Ta 0.0 0.0 0.0 7.9e-05 0.000591 0.00044
4
Lattice = "4.20760011673 0.0 0.0 0.00839999970049 4.19579982758 0.0 -0.0108000002801 0.00989999994636 4.19500017166" Properties=species:S:1:pos:R:3:forces:R:3 energy=-46.436378 stress="32906.770000000004 -1998.4299999999998 2448.51 -1998.4299999999998 31390.95 -2209.73 2448.51 -2209.73 20534.55"
Ta 2.1068 4.2007 2.0975 4.9e-05 0.00037 -0.000158
Ta 2.108 2.0979 0.0 -4.9e-05 -0.00037 0.000158
Ta -0.0012 2.1028 2.0975 4.9e-05 0.00037 -0.000158
Ta 0.0 0.0 0.0 -4.9e-05 -0.00037 0.000158
4
Lattice = "4.21610021591 0.0 0.0 -0.0186000000685 4.20079994202 0.0 -0.0110999997705 -0.0149999996647 4.195499897" Properties=species:S:1:pos:R:3:forces:R:3 energy=-46.441551 stress="27882.2 4157.13 2708.72 4157.13 24066.9 3156.97 2708.72 3156.97 13737.52"
Ta 2.0839 4.1933 2.0977 6.8e-05 -4.7e-05 0.000367
Ta 2.0987 2.1004 0.0 0.000703 0.000158 -0.000404
Ta -0.0148 2.0929 2.0977 -0.000703 -0.000158 0.000404
Ta 0.0 0.0 0.0 -6.8e-05 4.7e-05 -0.000367
4
Lattice = "4.18009996414 0.0 0.0 -0.00079999997979 4.19099998474 0.0 -0.00109999999404 -0.0186000000685 4.19029998779" Properties=species:S:1:pos:R:3:forces:R:3 energy=-46.416957 stress="47483.73 251.66 89.96 251.66 51115.740000000005 3817.67 89.96 3817.67 39271.009999999995"
Ta 2.0895 -0.0093 2.0952 -0.000287 7.5e-05 -0.000462
Ta 2.0896 2.0955 0.0 0.000287 -7.5e-05 0.000462
Ta 4.1791 2.0862 2.0952 0.00038 6.8e-05 -0.000503
Ta 0.0 0.0 0.0 -0.00038 -6.8e-05 0.000503
4
Lattice = "4.21759986877 0.0 0.0 0.00989999994636 4.20160007477 0.0 -0.0164999999106 0.000600000028498 4.1861000061" Properties=species:S:1:pos:R:3:forces:R:3 energy=-46.440495 stress="30412.84 -2230.41 3936.28 -2230.41 27956.19 -314.22 3936.28 -314.22 16511.39"
Ta 2.1006 0.0003 2.093 -0.000512 -1.6e-05 0.000315
Ta 2.1138 2.1008 0.0 -0.000516 -1.4e-05 -0.000327
Ta 4.2143 2.1011 2.093 0.000516 1.4e-05 0.000327
Ta 0.0 0.0 0.0 0.000512 1.6e-05 -0.000315
4
Lattice = "4.20800018311 0.0 0.0 -0.00609999988228 4.19269990921 0.0 0.0185000002384 0.00510000018403 4.20429992676" Properties=species:S:1:pos:R:3:forces:R:3 energy=-46.437972 stress="30692.39 1017.5300000000001 -3953.9 1017.5300000000001 27371.22 -937.5 -3953.9 -937.5 18526.5"
Ta 2.1071 4.1952 2.1022 0.000867 0.001178 -0.000599
Ta 2.101 2.0964 0.0 -0.000867 -0.001178 0.000599
Ta 4.2142 2.0989 2.1022 -3.6e-05 -0.000335 -0.000411
Ta 0.0 0.0 0.0 3.6e-05 0.000335 0.000411
4
Lattice = "4.20389986038 0.0 0.0 0.0109999999404 4.21560001373 0.0 -0.0149999996647 -0.0195000004023 4.21710014343" Properties=species:S:1:pos:R:3:forces:R:3 energy=-46.44586 stress="13322.5 -1851.3999999999999 2698.2400000000002 -1851.3999999999999 15084.53 4168.71 2698.2400000000002 4168.71 3183.15"
Ta 2.0944 -0.0097 2.1085 0.000605 -0.001004 0.000354
Ta 2.1075 2.1078 0.0 -0.000787 0.00036 -0.000493
Ta 4.2019 2.098 2.1085 0.000145 0.000977 0.000593
Ta 0.0 0.0 0.0 3.7e-05 -0.000333 -0.000454
4
Lattice = "4.20989990234 0.0 0.0 0.0194000005722 4.18979978561 0.0 0.0187999997288 -0.00710000004619 4.1998000145" Properties=species:S:1:pos:R:3:forces:R:3 energy=-46.435744 stress="32866.979999999996 -4705.08 -4510.19 -4705.08 27538.81 1684.04 -4510.19 1684.04 19619.25"
Ta 2.1338 4.1862 2.0999 -0.000654 0.000551 -0.000151
Ta 2.1146 2.0949 0.0 0.000654 -0.000551 0.000151
Ta 0.0191 2.0913 2.0999 0.000168 0.00073 -0.000338
Ta 0.0 0.0 0.0 -0.000168 -0.00073 0.000338
4
Lattice = "4.20370006561 0.0 0.0 -0.00999999977648 4.18909978867 0.0 0.0038999998942 0.0115999998525 4.21619987488" Properties=species:S:1:pos:R:3:forces:R:3 energy=-46.438209 stress="27954.8 2323.13 -793.2399999999999 2323.13 23969.38 -2424.6400000000003 -793.2399999999999 -2424.6400000000003 15680.8"
Ta 2.1038 0.0058 2.1081 0.000328 -0.000478 -1.9e-05
Ta 2.0969 2.0945 0.0 -0.000328 0.000478 1.9e-05
Ta -0.003 2.1003 2.1081 -0.000328 0.000478 1.9e-05
Ta 0.0 0.0 0.0 0.000328 -0.000478 -1.9e-05
4
Lattice = "4.19409990311 0.0 0.0 -0.00949999969453 4.18279981613 0.0 -0.00359999993816 0.0146000003442 4.20279979706" Properties=species:S:1:pos:R:3:forces:R:3 energy=-46.42629 stress="40994.259999999995 1984.0500000000002 678.41 1984.0500000000002 38515.95 -2950.21 678.41 -2950.21 30369.28"
Ta 2.0953 0.0073 2.1014 -0.000264 2.1e-05 -3e-06
Ta 2.0923 2.0914 0.0 0.000264 -2.1e-05 3e-06
Ta -0.0065 2.0987 2.1014 -0.000264 2.1e-05 -3e-06
Ta 0.0 0.0 0.0 0.000264 -2.1e-05 3e-06
4
Lattice = "4.21500015259 0.0 0.0 0.00240000011399 4.2077999115 0.0 0.00559999980032 -0.00430000014603 4.19150018692" Properties=species:S:1:pos:R:3:forces:R:3 energy=-46.443301 stress="25318.89 -582.25 -1370.1399999999999 -582.25 24260.940000000002 1009.18 -1370.1399999999999 1009.18 11853.45"
Ta 2.1103 -0.0021 2.0957 2.5e-05 -0.00092 0.000616
Ta 2.1087 2.1039 0.0 -3.1e-05 0.000243 -0.000622
Ta 0.004 2.1017 2.0957 4e-05 0.000897 0.000626
Ta 0.0 0.0 0.0 -3.4e-05 -0.00022 -0.000621
4
Lattice = "4.21619987488 0.0 0.0 -0.0207000002265 4.1875 0.0 -0.00230000005104 0.00730000017211 4.20310020447" Properties=species:S:1:pos:R:3:forces:R:3 energy=-46.439002 stress="30242.61 4765.59 418.83 4765.59 23708.24 -1576.43 418.83 -1576.43 16414.149999999998"
Ta 2.0863 4.1911 2.1015 -0.00067 0.000288 0.000472
Ta 2.0977 2.0937 0.0 0.000637 0.000248 -0.000453
Ta 4.2047 2.0974 2.1015 6.7e-05 -0.00028 0.000455
Ta 0.0 0.0 0.0 -3.3e-05 -0.000255 -0.000474
4
Lattice = "4.21169996262 0.0 0.0 -0.0137999998406 4.18540000916 0.0 0.00350000010803 0.016799999401 4.19210004807" Properties=species:S:1:pos:R:3:forces:R:3 energy=-46.432438 stress="38865.54 2976.27 -1187.3700000000001 2976.27 32433.36 -3670.5899999999997 -1187.3700000000001 -3670.5899999999997 24012.71"
Ta 2.0938 4.1938 2.0961 0.000109 1.5e-05 -0.000266
Ta 2.0989 2.0927 0.0 0.000626 -5.5e-05 0.000181
Ta -0.0051 2.1011 2.0961 -0.000626 5.5e-05 -0.000181
Ta 0.0 0.0 0.0 -0.000109 -1.5e-05 0.000266
4
Lattice = "4.18310022354 0.0 0.0 -0.00300000002608 4.18790006638 0.0 0.0161000005901 -0.0153999999166 4.18289995193" Properties=species:S:1:pos:R:3:forces:R:3 energy=-46.412654 stress="53423.5 705.21 -3760.97 705.21 56329.25 3452.61 -3760.97 3452.61 44823.36"
Ta 2.0996 -0.0077 2.0915 0.000209 0.000715 -0.000359
Ta 2.09 2.094 0.0 0.000554 -0.000722 0.000333
Ta 0.0066 2.0863 2.0915 -0.000628 -0.000725 -0.000262
Ta 0.0 0.0 0.0 -0.000135 0.000731 0.000288
4
Lattice = "4.19859981537 0.0 0.0 -0.00520000001416 4.21680021286 0.0 -0.000199999994948 0.00190000003204 4.20230007172" Properties=species:S:1:pos:R:3:forces:R:3 energy=-46.443231 stress="21408.78 997.66 2.63 997.66 23951.809999999998 -420.08 2.63 -420.08 10910.34"
Ta 2.094 4.2177 2.1012 -4.8e-05 0.000221 -0.000815
Ta 2.0967 2.1084 0.0 4.8e-05 -0.000221 0.000815
Ta 4.1959 2.1093 2.1012 -4.8e-05 0.000221 -0.000815
Ta 0.0 0.0 0.0 4.8e-05 -0.000221 0.000815
4
Lattice = "4.21309995651 0.0 0.0 0.00989999994636 4.17939996719 0.0 -0.0111999996006 -0.0109000001103 4.19469976425" Properties=species:S:1:pos:R:3:forces:R:3 energy=-46.431513 stress="38571.840000000004 -2057.94 2001.0400000000002 -2057.94 31128.620000000003 2212.8199999999997 2001.0400000000002 2212.8199999999997 25395.620000000003"
Ta 2.101 -0.0054 2.0973 -0.000812 -0.000699 0.000382
Ta 2.1115 2.0897 0.0 -5.2e-05 0.000172 -0.000317
Ta 4.2124 2.0842 2.0973 0.000823 0.000706 0.000273
Ta 0.0 0.0 0.0 4.1e-05 -0.000179 -0.000337
4
Lattice = "4.21220016479 0.0 0.0 0.00730000017211 4.19630002975 0.0 0.00209999992512 -0.0115000000224 4.18480014801" Properties=species:S:1:pos:R:3:forces:R:3 energy=-46.435608 stress="35907.1 -1805.28 -643.2900000000001 -1805.28 32898.1 2687.74 -643.2900000000001 2687.74 21620.26"
Ta 2.1144 4.1905 2.0924 0.000371 0.000304 -3e-06
Ta 2.1097 2.0981 0.0 0.000371 0.000304 -3e-06
Ta 0.0047 2.0924 2.0924 -0.000371 -0.000304 3e-06
Ta 0.0 0.0 0.0 -0.000371 -0.000304 3e-06
4
Lattice = "4.18069982529 0.0 0.0 -0.0109000001103 4.21169996262 0.0 -0.00529999984428 0.00520000001416 4.21330022812" Properties=species:S:1:pos:R:3:forces:R:3 energy=-46.437689 stress="23769.33 2509.14 1235.52 2509.14 31281.32 -1087.23 1235.52 -1087.23 17393.4"
Ta 2.0768 4.2143 2.1067 -0.000106 -0.000368 -0.000493
Ta 2.0849 2.1058 0.0 0.000106 0.000368 0.000493
Ta 4.1726 2.1084 2.1067 0.000104 0.000319 -0.000489
Ta 0.0 0.0 0.0 -0.000104 -0.000319 0.000489
4
Lattice = "4.18959999084 0.0 0.0 0.0164999999106 4.20200014114 0.0 0.00899999961257 -0.0188999995589 4.19029998779" Properties=species:S:1:pos:R:3:forces:R:3 energy=-46.428447 stress="39131.659999999996 -3973.89 -2296.86 -3973.89 42258.21 4597.84 -2296.86 4597.84 29361.260000000002"
Ta 2.0993 -0.0094 2.0951 0.000613 -0.000529 0.000975
Ta 2.1031 2.101 0.0 -0.000613 0.000529 -0.000975
Ta 0.0128 2.0916 2.0951 -0.000208 -0.000185 0.000662
Ta 0.0 0.0 0.0 0.000208 0.000185 -0.000662
4
Lattice = "4.18120002747 0.0 0.0 -0.000399999989895 4.21000003815 0.0 0.00460000010207 0.0187999997288 4.19910001755" Properties=species:S:1:pos:R:3:forces:R:3 energy=-46.432255 stress="29757.62 -182.62 -536.07 -182.62 36285.020000000004 -3344.74 -536.07 -3344.74 22592.0"
Ta 2.0929 0.0094 2.0995 -0.00013 1.7e-05 0.000285
Ta 2.0904 2.105 0.0 0.00013 -1.7e-05 -0.000285
Ta 0.0021 2.1144 2.0995 -0.00013 1.7e-05 0.000285
Ta 0.0 0.0 0.0 0.00013 -1.7e-05 -0.000285
4
Lattice = "4.21250009537 0.0 0.0 -0.0190999992192 4.2062997818 0.0 0.0172000005841 0.0121999997646 4.1968998909" Properties=species:S:1:pos:R:3:forces:R:3 energy=-46.442315 stress="24536.86 4406.19 -4080.28 4406.19 23952.329999999998 -2854.26 -4080.28 -2854.26 11636.13"
Ta 2.1149 0.0061 2.0984 -0.00079 -0.000901 0.000821
Ta 2.0967 2.1031 0.0 0.00079 0.000901 -0.000821
Ta -0.0009 2.1092 2.0984 -0.00026 0.000434 0.000757
Ta 0.0 0.0 0.0 0.00026 -0.000434 -0.000757
4
Lattice = "4.18179988861 0.0 0.0 0.0136000001803 4.21280002594 0.0 0.00310000008903 -0.0118000004441 4.20720005035" Properties=species:S:1:pos:R:3:forces:R:3 energy=-46.436613 stress="25874.06 -3205.31 -821.0 -3205.31 32985.54 2726.66 -821.0 2726.66 19695.18"
Ta 2.0925 -0.0059 2.1036 -0.000254 -3.3e-05 -7.2e-05
Ta 2.0977 2.1064 0.0 0.000254 3.3e-05 7.2e-05
Ta 0.0084 2.1005 2.1036 -0.000254 -3.3e-05 -7.2e-05
Ta 0.0 0.0 0.0 0.000254 3.3e-05 7.2e-05
4
Lattice = "4.20440006256 0.0 0.0 -0.00430000014603 4.18720006943 0.0 0.0116999996826 0.0206000003964 4.19589996338" Properties=species:S:1:pos:R:3:forces:R:3 energy=-46.430825 stress="38754.51 1016.0100000000001 -2801.6 1016.0100000000001 34556.35 -4530.67 -2801.6 -4530.67 26227.129999999997"
Ta 2.108 0.0103 2.0979 0.000384 -3.4e-05 0.000554
Ta 2.1 2.0936 0.0 0.000373 -0.000115 -0.00061
Ta 0.0037 2.1039 2.0979 -0.000373 0.000115 0.00061
Ta 0.0 0.0 0.0 -0.000384 3.4e-05 -0.000554
4
Lattice = "4.1888999939 0.0 0.0 0.0038999998942 4.20720005035 0.0 -0.0144999995828 0.0156999994069 4.19560003281" Properties=species:S:1:pos:R:3:forces:R:3 energy=-46.43312 stress="29781.53 -523.96 3434.8399999999997 -523.96 33821.21 -3382.98 3434.8399999999997 -3382.98 20448.34"
Ta 2.0911 4.215 2.0978 2.8e-05 0.00036 4.3e-05
Ta 2.0964 2.1036 0.0 -2.8e-05 -0.00036 -4.3e-05
Ta -0.0053 2.1114 2.0978 2.8e-05 0.00036 4.3e-05
Ta 0.0 0.0 0.0 -2.8e-05 -0.00036 -4.3e-05
4
Lattice = "4.21330022812 0.0 0.0 0.000699999975041 4.1810002327 0.0 0.0054999999702 -0.00949999969453 4.19969987869" Properties=species:S:1:pos:R:3:forces:R:3 energy=-46.434347 stress="37957.909999999996 -320.79 -1076.83 -320.79 30562.539999999997 2073.23 -1076.83 2073.23 23518.02"
Ta 2.1094 -0.0047 2.0998 -8.7e-05 -0.000391 0.000502
Ta 2.107 2.0905 0.0 8.7e-05 0.000391 -0.000502
Ta 0.0031 2.0858 2.0998 -8.7e-05 -0.000391 0.000502
Ta 0.0 0.0 0.0 8.7e-05 0.000391 -0.000502
4
Lattice = "4.20370006561 0.0 0.0 0.00340000004508 4.18830013275 0.0 -0.00089999998454 0.00980000011623 4.19320011139" Properties=species:S:1:pos:R:3:forces:R:3 energy=-46.430573 stress="38159.329999999994 -261.17 350.0 -261.17 35372.36 -2364.75 350.0 -2364.75 25174.510000000002"
Ta 2.1014 0.0049 2.0966 0.000389 -0.00053 2.4e-05
Ta 2.1036 2.0941 0.0 -0.000389 0.00053 -2.4e-05
Ta 0.0013 2.099 2.0966 -0.000389 0.00053 -2.4e-05
Ta 0.0 0.0 0.0 0.000389 -0.00053 2.4e-05
4
Lattice = "4.20860004425 0.0 0.0 -0.00989999994636 4.20669984818 0.0 -0.0154999997467 0.00520000001416 4.21969985962" Properties=species:S:1:pos:R:3:forces:R:3 energy=-46.445665 stress="14174.23 2425.32 3028.21 2425.32 15030.34 -809.6999999999999 3028.21 -809.6999999999999 2911.0299999999997"
Ta 2.0966 0.0026 2.1098 -0.000412 -0.000614 0.000581
Ta 2.0994 2.1033 0.0 -0.00059 0.000627 -0.000659
Ta 4.1959 2.1059 2.1098 0.000541 0.000424 0.000445
Ta 0.0 0.0 0.0 0.000461 -0.000437 -0.000367
4
Lattice = "4.19920015335 0.0 0.0 0.0185000002384 4.19920015335 0.0 -0.0126000000164 0.00540000014007 4.20139980316" Properties=species:S:1:pos:R:3:forces:R:3 energy=-46.435898 stress="32203.23 -4272.68 2945.41 -4272.68 31706.99 -1474.9 2945.41 -1474.9 21250.72"
Ta 2.0933 0.0027 2.1007 0.00043 -1.3e-05 0.000192
Ta 2.1088 2.0996 0.0 0.00122 -8.7e-05 -0.000171
Ta 0.003 2.1023 2.1007 -0.00122 8.7e-05 0.000171
Ta 0.0 0.0 0.0 -0.00043 1.3e-05 -0.000192
4
Lattice = "4.2108001709 0.0 0.0 0.0163000002503 4.21479988098 0.0 0.01070000045 0.00499999988824 4.18380022049" Properties=species:S:1:pos:R:3:forces:R:3 energy=-46.442107 stress="28916.579999999998 -3579.5699999999997 -2277.82 -3579.5699999999997 29458.98 -1392.66 -2277.82 -1392.66 14592.84"
Ta 2.1108 0.0025 2.0919 -0.000298 4e-05 1.5e-05
Ta 2.1136 2.1074 0.0 -0.000298 4e-05 1.5e-05
Ta 0.0135 2.1099 2.0919 0.000298 -4e-05 -1.5e-05
Ta 0.0 0.0 0.0 0.000298 -4e-05 -1.5e-05
4
Lattice = "4.19960021973 0.0 0.0 0.00079999997979 4.18790006638 0.0 -0.0054999999702 0.00499999988824 4.21040010452" Properties=species:S:1:pos:R:3:forces:R:3 energy=-46.434432 stress="33222.78 -147.47 1254.14 -147.47 29633.84 -1145.8 1254.14 -1145.8 20687.69"
Ta 2.097 0.0025 2.1052 0.00033 -1.2e-05 0.000134
Ta 2.1002 2.094 0.0 -0.000357 -0.00057 -0.000134
Ta 4.1972 2.0964 2.1052 0.000357 0.00057 0.000134
Ta 0.0 0.0 0.0 -0.00033 1.2e-05 -0.000134
4
Lattice = "4.18860006332 0.0 0.0 0.00829999987036 4.19880008698 0.0 0.00680000009015 -0.0104999998584 4.21710014343" Properties=species:S:1:pos:R:3:forces:R:3 energy=-46.436308 stress="26865.34 -1570.0700000000002 -1633.81 -1570.0700000000002 30088.280000000002 2199.78 -1633.81 2199.78 18762.14"
Ta 2.0977 -0.0052 2.1086 0.000219 -0.000492 -0.000515
Ta 2.0984 2.0994 0.0 0.000816 0.000404 0.000554
Ta 0.0076 2.0942 2.1086 -0.000816 -0.000404 -0.000554
Ta 0.0 0.0 0.0 -0.000219 0.000492 0.000515
4
Lattice = "4.1999001503 0.0 0.0 0.01600000076 4.18179988861 0.0 0.0184000004083 0.00219999998808 4.19189977646" Properties=species:S:1:pos:R:3:forces:R:3 energy=-46.423938 stress="45156.3 -3736.32 -4044.29 -3736.32 42163.939999999995 -272.71000000000004 -4044.29 -272.71000000000004 33401.829999999994"
Ta 2.1091 0.0011 2.0959 0.00063 0.000124 0.000424
Ta 2.1079 2.0909 0.0 0.000645 0.000127 -0.000216
Ta 0.0172 2.092 2.0959 -0.000645 -0.000127 0.000216
Ta 0.0 0.0 0.0 -0.00063 -0.000124 -0.000424
4
Lattice = "4.18540000916 0.0 0.0 0.00910000037402 4.20340013504 0.0 -0.00449999980628 0.0206000003964 4.19199991226" Properties=species:S:1:pos:R:3:forces:R:3 energy=-46.428115 stress="33159.950000000004 -2037.96 1037.3300000000002 -2037.96 36902.979999999996 -4264.8 1037.3300000000002 -4264.8 24342.199999999997"
Ta 2.0905 0.0103 2.096 -0.000408 0.000133 9e-06
Ta 2.0973 2.1017 0.0 -0.000408 0.000133 9e-06
Ta 0.0023 2.112 2.096 0.000408 -0.000133 -9e-06
Ta 0.0 0.0 0.0 0.000408 -0.000133 -9e-06
4
Lattice = "4.20219993591 0.0 0.0 -0.0137000000104 4.18510007858 0.0 0.0170000009239 0.000399999989895 4.19110012054" Properties=species:S:1:pos:R:3:forces:R:3 energy=-46.4269 stress="42344.0 2996.3700000000003 -4106.58 2996.3700000000003 39499.920000000006 161.89000000000001 -4106.58 161.89000000000001 29485.66"
Ta 2.1096 0.0002 2.0955 3.6e-05 -2.9e-05 0.000575
Ta 2.0943 2.0925 0.0 -0.000498 0.000956 -0.000492
Ta 0.0017 2.0928 2.0955 5e-06 -0.000949 0.000486
Ta 0.0 0.0 0.0 0.000457 2.2e-05 -0.000569
4
Lattice = "4.18289995193 0.0 0.0 0.00159999995958 4.179500103 0.0 -0.00310000008903 0.0133999995887 4.209400177" Properties=species:S:1:pos:R:3:forces:R:3 energy=-46.421142 stress="44099.57 -461.53 789.15 -461.53 41820.810000000005 -2469.31 789.15 -2469.31 34193.81"
Ta 2.0899 0.0067 2.1047 0.000191 0.000394 1e-06
Ta 2.0922 2.0898 0.0 0.000613 -0.00044 1.7e-05
Ta -0.0007 2.0965 2.1047 -0.000794 -0.000378 -7e-06
Ta 0.0 0.0 0.0 -1e-05 0.000423 -1e-05
4
Lattice = "4.21260023117 0.0 0.0 0.0207000002265 4.19000005722 0.0 0.00159999995958 -0.00769999995828 4.18440008163" Properties=species:S:1:pos:R:3:forces:R:3 energy=-46.432233 stress="39750.03 -4610.75 -478.2 -4610.75 34854.11 1877.37 -478.2 1877.37 25710.550000000003"
Ta 2.1071 -0.0038 2.0922 0.000289 -0.000207 -3e-06
Ta 2.1167 2.095 0.0 -0.000289 0.000207 3e-06
Ta 0.0112 2.0912 2.0922 -0.000287 -0.000233 1e-06
Ta 0.0 0.0 0.0 0.000287 0.000233 -1e-06
4
Lattice = "4.19710016251 0.0 0.0 0.017899999395 4.18270015717 0.0 -0.00960000045598 -0.01600000076 4.20739984512" Properties=species:S:1:pos:R:3:forces:R:3 energy=-46.429408 stress="37387.92 -3190.48 1878.9499999999998 -3190.48 32357.480000000003 3103.4700000000003 1878.9499999999998 3103.4700000000003 25220.76"
Ta 2.0938 -0.008 2.1037 -0.000335 0.000327 5.2e-05
Ta 2.1075 2.0914 0.0 0.000335 -0.000327 -5.2e-05
Ta 0.0042 2.0834 2.1037 -0.000324 -0.000492 4.2e-05
Ta 0.0 0.0 0.0 0.000324 0.000492 -4.2e-05
4
Lattice = "4.21169996262 0.0 0.0 -0.00689999992028 4.20370006561 0.0 0.00150000001304 -0.00920000020415 4.21269989014" Properties=species:S:1:pos:R:3:forces:R:3 energy=-46.445145 stress="18335.4 1673.0 -228.65 1673.0 16239.820000000002 2082.03 -228.65 2082.03 6136.77"
Ta 2.0997 4.1991 2.1063 6.7e-05 -0.000114 0.000643
Ta 2.1024 2.1018 0.0 -9e-05 0.000831 -0.000669
Ta -0.0027 2.0973 2.1063 9e-05 -0.000831 0.000669
Ta 0.0 0.0 0.0 -6.7e-05 0.000114 -0.000643
4
Lattice = "4.19729995728 0.0 0.0 0.00370000000112 4.20749998093 0.0 0.0143999997526 -0.00310000008903 4.19150018692" Properties=species:S:1:pos:R:3:forces:R:3 energy=-46.435868 stress="32126.109999999997 -1008.08 -3338.91 -1008.08 34042.35 685.31 -3338.91 685.31 21906.06"
Ta 2.1095 4.2059 2.0958 0.000735 0.000174 -0.00065
Ta 2.1005 2.1037 0.0 0.000783 0.000746 0.000651
Ta 0.0091 2.1022 2.0958 -0.00125 -0.00074 -0.00065
Ta 0.0 0.0 0.0 -0.000268 -0.00018 0.00065
4
Lattice = "4.18669986725 0.0 0.0 0.018200000748 4.22060012817 0.0 0.00449999980628 -0.00139999995008 4.19939994812" Properties=species:S:1:pos:R:3:forces:R:3 energy=-46.439663 stress="24909.960000000003 -4206.58 -1004.1899999999999 -4206.58 31036.64 543.86 -1004.1899999999999 543.86 16832.42"
Ta 2.0956 -0.0007 2.0997 0.000559 -2.8e-05 1e-06
Ta 2.1025 2.1103 0.0 -0.000559 2.8e-05 -1e-06
Ta 0.0114 2.1096 2.0997 -0.000559 2.8e-05 -1e-06
Ta 0.0 0.0 0.0 0.000559 -2.8e-05 1e-06
4
Lattice = "4.1998000145 0.0 0.0 -0.0163000002503 4.19570016861 0.0 0.01070000045 -0.0124000003561 4.18389987946" Properties=species:S:1:pos:R:3:forces:R:3 energy=-46.428287 stress="41731.25 3757.21 -2445.36 3757.21 41051.920000000006 2856.2799999999997 -2445.36 2856.2799999999997 30297.370000000003"
Ta 2.1053 -0.0062 2.092 -0.00054 -0.000412 -0.000306
Ta 2.0917 2.0978 0.0 0.00054 0.000412 0.000306
Ta 4.197 2.0916 2.092 2.3e-05 0.0004 -0.000316
Ta 0.0 0.0 0.0 -2.3e-05 -0.0004 0.000316
4
Lattice = "4.1970000267 0.0 0.0 0.0194000005722 4.1888999939 0.0 -0.00179999996908 -0.0136000001803 4.18779993057" Properties=species:S:1:pos:R:3:forces:R:3 energy=-46.424584 stress="44875.270000000004 -4458.47 289.83 -4458.47 43234.76 3197.07 289.83 3197.07 33469.479999999996"
Ta 2.0976 -0.0068 2.0939 5.4e-05 -0.000398 -1e-06
Ta 2.1082 2.0944 0.0 -5.4e-05 0.000398 1e-06
Ta 0.0088 2.0876 2.0939 -5.4e-05 0.000398 1e-06
Ta 0.0 0.0 0.0 5.4e-05 -0.000398 -1e-06
4
Lattice = "4.18450021744 0.0 0.0 0.0130000002682 4.18849992752 0.0 -0.0195000004023 -0.00370000000112 4.18139982224" Properties=species:S:1:pos:R:3:forces:R:3 energy=-46.413045 stress="50367.32 -3261.88 3822.1099999999997 -3261.88 50402.17 705.52 3822.1099999999997 705.52 39882.66"
Ta 2.0825 -0.0018 2.0907 -5.1e-05 -0.000344 -1e-06
Ta 2.0988 2.0943 0.0 -0.000738 -0.000336 2.6e-05
Ta 4.1812 2.0924 2.0907 0.000738 0.000336 -2.6e-05
Ta 0.0 0.0 0.0 5.1e-05 0.000344 1e-06
4
Lattice = "4.20609998703 0.0 0.0 0.0121999997646 4.20860004425 0.0 0.0104000000283 0.00490000005811 4.1810002327" Properties=species:S:1:pos:R:3:forces:R:3 energy=-46.436994 stress="32291.899999999998 -2490.73 -2201.86 -2490.73 33006.25 -463.13 -2201.86 -463.13 19860.08"
Ta 2.1204 4.211 2.0905 0.000646 0.000444 0.000147
Ta 2.1092 2.1043 0.0 -0.000646 -0.000444 -0.000147
Ta 0.0113 2.1067 2.0905 0.000171 0.000448 0.000145
Ta 0.0 0.0 0.0 -0.000171 -0.000448 -0.000145
4
Lattice = "4.1939997673 0.0 0.0 -0.0175999999046 4.21909999847 0.0 -0.00359999993816 0.00300000002608 4.2079000473" Properties=species:S:1:pos:R:3:forces:R:3 energy=-46.443604 stress="18084.66 3671.56 781.26 3671.56 24730.91 -432.39 781.26 -432.39 9828.4"
Ta 2.0776 4.2206 2.104 0.000117 0.000438 -0.0005
Ta 2.0882 2.1096 0.0 -0.000117 -0.000438 0.0005
Ta -0.0106 2.1111 2.104 -1.1e-05 -0.000248 -0.000419
Ta 0.0 0.0 0.0 1.1e-05 0.000248 0.000419
4
Lattice = "4.19670009613 0.0 0.0 0.0144999995828 4.20499992371 0.0 -0.0154999997467 -0.00319999991916 4.21000003815" Properties=species:S:1:pos:R:3:forces:R:3 energy=-46.439718 stress="23536.32 -3142.14 3304.68 -3142.14 26048.2 678.5 3304.68 678.5 13870.050000000001"
Ta 2.0906 -0.0016 2.105 0.0 0.0 0.0
Ta 2.1056 2.1025 0.0 0.0 0.0 0.0
Ta -0.0005 2.1009 2.105 0.0 0.0 0.0
Ta 0.0 0.0 0.0 0.0 0.0 0.0
4
Lattice = "4.18400001526 0.0 0.0 -0.00139999995008 4.20389986038 0.0 -0.0186000000685 -0.0144999995828 4.21430015564" Properties=species:S:1:pos:R:3:forces:R:3 energy=-46.435527 stress="26601.199999999997 224.89999999999998 3984.39 224.89999999999998 32506.140000000003 3199.5499999999997 3984.39 3199.5499999999997 20323.48"
Ta 2.0813 4.1966 2.1072 -5.7e-05 0.000574 -0.000235
Ta 2.0913 2.102 0.0 5.7e-05 -0.000574 0.000235
Ta -0.01 2.0947 2.1072 7.8e-05 -6.3e-05 -0.000195
Ta 0.0 0.0 0.0 -7.8e-05 6.3e-05 0.000195
4
Lattice = "4.1810002327 0.0 0.0 0.00600000005215 4.22009992599 0.0 -0.00669999979436 -0.0204000007361 4.19239997864" Properties=species:S:1:pos:R:3:forces:R:3 energy=-46.434787 stress="30521.97 -1467.91 1403.6 -1467.91 38595.36 4398.91 1403.6 4398.91 23894.760000000002"
Ta 2.0872 -0.0102 2.0962 -0.000704 0.000292 6e-05
Ta 2.0935 2.1101 0.0 -0.000115 -0.000301 -1e-06
Ta 4.1806 2.0999 2.0962 0.000704 -0.000292 -6e-05
Ta 0.0 0.0 0.0 0.000115 0.000301 1e-06
4
Lattice = "4.2076997757 0.0 0.0 -0.00329999998212 4.18240022659 0.0 0.0197999998927 -0.0142999999225 4.20949983597" Properties=species:S:1:pos:R:3:forces:R:3 energy=-46.434929 stress="33106.05 400.43 -4376.98 400.43 26345.52 2747.71 -4376.98 2747.71 20304.05"
Ta 2.1104 4.1752 2.1048 0.000619 0.000224 -0.00034
Ta 2.1022 2.0912 0.0 0.000185 -0.00027 0.000324
Ta 0.0083 2.084 2.1048 -0.000828 0.000293 -0.000329
Ta 0.0 0.0 0.0 2.4e-05 -0.000248 0.000344
4
Lattice = "4.18709993362 0.0 0.0 -0.0137000000104 4.19210004807 0.0 -0.0206000003964 -0.00300000002608 4.2013001442" Properties=species:S:1:pos:R:3:forces:R:3 energy=-46.426499 stress="39883.59 3131.64 4730.58 3131.64 40703.380000000005 736.94 4730.58 736.94 30183.84"
Ta 2.0695 4.1906 2.1006 0.000281 -0.00046 0.000374
Ta 2.0867 2.096 0.0 -0.000281 0.00046 -0.000374
Ta 4.1699 2.0945 2.1006 0.000239 0.000426 0.000333
Ta 0.0 0.0 0.0 -0.000239 -0.000426 -0.000333
4
Lattice = "4.19180011749 0.0 0.0 0.00350000010803 4.20699977875 0.0 0.0201999992132 -0.0141000002623 4.20459985733" Properties=species:S:1:pos:R:3:forces:R:3 energy=-46.437025 stress="28895.21 -1353.89 -4533.7300000000005 -1353.89 33286.0 2779.0699999999997 -4533.7300000000005 2779.0699999999997 20380.649999999998"
Ta 2.1095 4.1999 2.1023 0.000444 0.000256 2.5e-05
Ta 2.0977 2.1035 0.0 -0.000444 -0.000256 -2.5e-05
Ta 0.0119 2.0964 2.1023 -0.000371 0.000196 3.1e-05
Ta 0.0 0.0 0.0 0.000371 -0.000196 -3.1e-05
4
Lattice = "4.19680023193 0.0 0.0 -0.019999999553 4.19010019302 0.0 0.0148000000045 0.00449999980628 4.19729995728" Properties=species:S:1:pos:R:3:forces:R:3 energy=-46.428937 stress="38946.02 4281.84 -3402.34 4281.84 36868.95 -1152.93 -3402.34 -1152.93 27927.85"
Ta 2.0858 4.1923 2.0986 -3.4e-05 0.000667 0.000439
Ta 2.0884 2.0951 0.0 3.4e-05 -0.000667 -0.000439
Ta -0.0026 2.0973 2.0986 -7.3e-05 -0.000101 0.000416
Ta 0.0 0.0 0.0 7.3e-05 0.000101 -0.000416
4
Lattice = "4.21390008926 0.0 0.0 -0.0159000009298 4.2077999115 0.0 -0.0115000000224 0.00680000009015 4.19169998169" Properties=species:S:1:pos:R:3:forces:R:3 energy=-46.442516 stress="26548.37 3415.7000000000003 2464.46 3415.7000000000003 25895.34 -1426.55 2464.46 -1426.55 12731.93"
Ta 2.1012 0.0034 2.0958 -0.000117 -0.000115 0.000445
Ta 2.099 2.1039 0.0 0.000117 0.000115 -0.000445
Ta 4.2002 2.1073 2.0958 -0.000117 -0.000115 0.000445
Ta 0.0 0.0 0.0 0.000117 0.000115 -0.000445
4
Lattice = "4.18620014191 0.0 0.0 0.00319999991916 4.18989992142 0.0 0.00359999993816 0.0201999992132 4.21029996872" Properties=species:S:1:pos:R:3:forces:R:3 energy=-46.428736 stress="36533.26 -472.27000000000004 -599.63 -472.27000000000004 38503.49 -4878.59 -599.63 -4878.59 28242.54"
Ta 2.0949 0.0101 2.1051 7.8e-05 0.000472 0.000488
Ta 2.0947 2.095 0.0 -7.8e-05 -0.000472 -0.000488
Ta 0.0034 2.1051 2.1051 3e-06 -0.000581 0.000458
Ta 0.0 0.0 0.0 -3e-06 0.000581 -0.000458
4
Lattice = "4.18650007248 0.0 0.0 -0.020300000906 4.20889997482 0.0 0.0177999995649 -0.0108000002801 4.19799995422" Properties=species:S:1:pos:R:3:forces:R:3 energy=-46.433359 stress="31456.3 4402.04 -3820.04 4402.04 36583.71000000001 2243.03 -3820.04 2243.03 23228.44"
Ta 2.1021 -0.0054 2.099 0.000683 0.000409 2.2e-05
Ta 2.0831 2.1045 0.0 0.000136 -0.000401 -3.2e-05
Ta -0.0012 2.0991 2.099 -0.000683 -0.000409 -2.2e-05
Ta 0.0 0.0 0.0 -0.000136 0.000401 3.2e-05
4
Lattice = "4.18569993973 0.0 0.0 -0.0201999992132 4.21250009537 0.0 0.0132999997586 -0.0038999998942 4.21120023727" Properties=species:S:1:pos:R:3:forces:R:3 energy=-46.438799 stress="22841.29 4506.599999999999 -2944.67 4506.599999999999 28994.420000000002 787.89 -2944.67 787.89 15742.92"
Ta 2.0793 4.2105 2.1056 0.00025 0.000338 -9e-06
Ta 2.0828 2.1062 0.0 -0.000222 0.00033 -1.1e-05
Ta -0.0034 2.1043 2.1056 -0.00025 -0.000338 9e-06
Ta 0.0 0.0 0.0 0.000222 -0.00033 1.1e-05
4
Lattice = "4.20319986343 0.0 0.0 0.0133999995887 4.21220016479 0.0 0.0153000000864 0.016799999401 4.20030021667" Properties=species:S:1:pos:R:3:forces:R:3 energy=-46.441993 stress="22767.3 -2987.04 -3341.07 -2987.04 24394.9 -3697.02 -3341.07 -3697.02 11782.27"
Ta 2.1226 4.2206 2.1002 0.000406 4.3e-05 -0.000851
Ta 2.1083 2.1061 0.0 -0.000406 -4.3e-05 0.000851
Ta 4.2175 2.1145 2.1002 0.000406 4.3e-05 -0.000851
Ta 0.0 0.0 0.0 -0.000406 -4.3e-05 0.000851
4
Lattice = "4.20020008087 0.0 0.0 0.0159000009298 4.21250009537 0.0 0.00839999970049 0.00270000007004 4.19059991837" Properties=species:S:1:pos:R:3:forces:R:3 energy=-46.439033 stress="31311.34 -2962.04 -2118.77 -2962.04 33332.84 -497.0 -2118.77 -497.0 19397.95"
Ta 2.1043 0.0014 2.0953 -0.000169 -0.000336 2e-06
Ta 2.108 2.1063 0.0 0.000307 -0.000319 4e-06
Ta 4.2123 2.1076 2.0953 0.000169 0.000336 -2e-06
Ta 0.0 0.0 0.0 -0.000307 0.000319 -4e-06
4
Lattice = "4.19460010529 0.0 0.0 -0.00380000006407 4.20300006866 0.0 0.00710000004619 0.00289999996312 4.20419979095" Properties=species:S:1:pos:R:3:forces:R:3 energy=-46.436967 stress="28199.07 1077.27 -1364.09 1077.27 30335.760000000002 -742.39 -1364.09 -742.39 18938.510000000002"
Ta 2.1009 0.0015 2.1021 -0.000397 -0.000899 -0.000183
Ta 2.0954 2.1015 0.0 0.000341 0.000174 0.00019
Ta 0.0017 2.1029 2.1021 -0.000267 0.000862 -0.0002
Ta 0.0 0.0 0.0 0.000324 -0.000137 0.000193
4
Lattice = "4.19649982452 0.0 0.0 0.0170000009239 4.18389987946 0.0 0.000500000023749 0.0197000000626 4.20139980316" Properties=species:S:1:pos:R:3:forces:R:3 energy=-46.427245 stress="39200.850000000006 -3187.19 -498.29 -3187.19 36589.530000000006 -4530.76 -498.29 -4530.76 27001.34"
Ta 2.0985 0.0099 2.1007 1e-05 -0.00045 2.8e-05
Ta 2.1067 2.092 0.0 0.000706 -0.000365 -4.5e-05
Ta 0.0088 2.1018 2.1007 -0.000706 0.000365 4.5e-05
Ta 0.0 0.0 0.0 -1e-05 0.00045 -2.8e-05
4
Lattice = "4.19409990311 0.0 0.0 -0.0157999992371 4.20200014114 0.0 -0.00249999994412 -0.00449999980628 4.21129989624" Properties=species:S:1:pos:R:3:forces:R:3 energy=-46.438046 stress="26136.06 3578.57 621.48 3578.57 27841.36 1030.6 621.48 1030.6 16177.720000000001"
Ta 2.08 4.1997 2.1057 0.000264 0.000278 -0.000459
Ta 2.0891 2.101 0.0 0.000831 -0.000264 0.000454
Ta -0.0091 2.0987 2.1057 -0.000831 0.000264 -0.000454
Ta 0.0 0.0 0.0 -0.000264 -0.000278 0.000459
4
Lattice = "4.18219995499 0.0 0.0 -0.0186999998987 4.19169998169 0.0 0.00850000046194 -0.00270000007004 4.19329977036" Properties=species:S:1:pos:R:3:forces:R:3 energy=-46.420083 stress="45896.659999999996 4350.44 -1715.56 4350.44 48179.94 571.0699999999999 -1715.56 571.0699999999999 36393.41"
Ta 2.0766 4.1903 2.0967 0.00046 0.001197 -0.000615
Ta 2.0818 2.0959 0.0 -0.00046 -0.001197 0.000615
Ta 4.1771 2.0945 2.0967 -0.000243 -0.00048 -0.000746
Ta 0.0 0.0 0.0 0.000243 0.00048 0.000746
4