2
Lattice = "4.2 0.0 0.0 0.0 4.2 0.0 0.0 0.0 4.2" Properties=species:S:1:pos:R:3:forces:R:3 energy=-16.763625 stress="-315811.75 0.0 0.0 0.0 -315811.75 0.0 0.0 0.0 -315811.75"
Ta 0.0 0.0 0.0 0.0 0.0 0.0
Ta 2.1 2.1 2.1 0.0 0.0 0.0
2
Lattice = "2.4 0.0 0.0 0.0 2.4 0.0 0.0 0.0 2.4" Properties=species:S:1:pos:R:3:forces:R:3 energy=16.314145 stress="13221145.45 0.0 -0.0 0.0 13221145.45 0.0 -0.0 0.0 13221145.45"
Ta 0.0 0.0 0.0 0.0 0.0 0.0
Ta 1.2 1.2 1.2 0.0 0.0 0.0
2
Lattice = "3.0 0.0 0.0 0.0 3.0 0.0 0.0 0.0 3.0" Properties=species:S:1:pos:R:3:forces:R:3 energy=-21.209071 stress="1054433.87 -0.0 0.0 -0.0 1054433.87 -0.0 0.0 -0.0 1054433.87"
Ta 0.0 0.0 0.0 0.0 0.0 0.0
Ta 1.5 1.5 1.5 0.0 0.0 0.0
2
Lattice = "2.8 0.0 0.0 0.0 2.8 0.0 0.0 0.0 2.8" Properties=species:S:1:pos:R:3:forces:R:3 energy=-15.780524 stress="2609201.0100000002 0.0 -0.0 0.0 2609201.0100000002 0.0 -0.0 0.0 2609201.0100000002"
Ta 0.0 0.0 0.0 0.0 0.0 0.0
Ta 1.4 1.4 1.4 0.0 0.0 0.0
2
Lattice = "2.9 0.0 0.0 0.0 2.9 0.0 0.0 0.0 2.9" Properties=species:S:1:pos:R:3:forces:R:3 energy=-19.002205 stress="1696212.8900000001 0.0 0.0 0.0 1696212.8900000001 0.0 0.0 0.0 1696212.8900000001"
Ta 0.0 0.0 0.0 0.0 0.0 0.0
Ta 1.45 1.45 1.45 0.0 0.0 0.0
2
Lattice = "3.1 0.0 0.0 0.0 3.1 0.0 0.0 0.0 3.1" Properties=species:S:1:pos:R:3:forces:R:3 energy=-22.620568 stress="596204.8200000001 0.0 0.0 0.0 596204.8200000001 0.0 0.0 0.0 596204.8200000001"
Ta 0.0 0.0 0.0 0.0 0.0 0.0
Ta 1.55 1.55 1.55 0.0 0.0 0.0
2
Lattice = "2.5 0.0 0.0 0.0 2.5 0.0 0.0 0.0 2.5" Properties=species:S:1:pos:R:3:forces:R:3 energy=4.096885 stress="8866538.459999999 0.0 0.0 0.0 8866538.459999999 -0.0 0.0 -0.0 8866538.459999999"
Ta 0.0 0.0 0.0 0.0 0.0 0.0
Ta 1.25 1.25 1.25 0.0 0.0 0.0
2
Lattice = "2.2 0.0 0.0 0.0 2.2 0.0 0.0 0.0 2.2" Properties=species:S:1:pos:R:3:forces:R:3 energy=56.26276 stress="29925857.27 -0.0 -0.0 -0.0 29925857.27 -0.0 -0.0 -0.0 29925857.27"
Ta 0.0 0.0 0.0 0.0 0.0 0.0
Ta 1.1 1.1 1.1 0.0 0.0 0.0
2
Lattice = "3.6 0.0 0.0 0.0 3.6 0.0 0.0 0.0 3.6" Properties=species:S:1:pos:R:3:forces:R:3 energy=-22.585113 stress="-294769.07 0.0 0.0 0.0 -294769.07 0.0 0.0 0.0 -294769.07"
Ta 0.0 0.0 0.0 0.0 0.0 0.0
Ta 1.8 1.8 1.8 0.0 0.0 0.0
2
Lattice = "3.7 0.0 0.0 0.0 3.7 0.0 0.0 0.0 3.7" Properties=species:S:1:pos:R:3:forces:R:3 energy=-21.795501 stress="-334343.07 0.0 0.0 0.0 -334343.07 -0.0 0.0 -0.0 -334343.07"
Ta 0.0 0.0 0.0 0.0 0.0 0.0
Ta 1.85 1.85 1.85 0.0 0.0 0.0
2
Lattice = "2.3 0.0 0.0 0.0 2.3 0.0 0.0 0.0 2.3" Properties=species:S:1:pos:R:3:forces:R:3 energy=33.110078 stress="19804876.43 0.0 0.0 0.0 19804876.43 -0.0 0.0 -0.0 19804876.43"
Ta 0.0 0.0 0.0 0.0 0.0 0.0
Ta 1.15 1.15 1.15 0.0 0.0 0.0
2
Lattice = "3.8 0.0 0.0 0.0 3.8 0.0 0.0 0.0 3.8" Properties=species:S:1:pos:R:3:forces:R:3 energy=-20.885998 stress="-353363.87 -0.0 0.0 -0.0 -353363.87 -0.0 0.0 -0.0 -353363.87"
Ta 0.0 0.0 0.0 0.0 0.0 0.0
Ta 1.9 1.9 1.9 0.0 0.0 0.0
2
Lattice = "3.4 0.0 0.0 0.0 3.4 0.0 0.0 0.0 3.4" Properties=species:S:1:pos:R:3:forces:R:3 energy=-23.601336 stress="-119086.12999999999 0.0 -0.0 0.0 -119086.12999999999 0.0 -0.0 0.0 -119086.12999999999"
Ta 0.0 0.0 0.0 0.0 0.0 0.0
Ta 1.7 1.7 1.7 0.0 0.0 0.0
2
Lattice = "3.5 0.0 0.0 0.0 3.5 0.0 0.0 0.0 3.5" Properties=species:S:1:pos:R:3:forces:R:3 energy=-23.207313 stress="-226389.97 0.0 -0.0 0.0 -226389.97 0.0 -0.0 0.0 -226389.97"
Ta 0.0 0.0 0.0 0.0 0.0 0.0
Ta 1.75 1.75 1.75 0.0 0.0 0.0
2
Lattice = "3.9 0.0 0.0 0.0 3.9 0.0 0.0 0.0 3.9" Properties=species:S:1:pos:R:3:forces:R:3 energy=-19.898089 stress="-356527.42 0.0 -0.0 0.0 -356527.42 0.0 -0.0 0.0 -356527.42"
Ta 0.0 0.0 0.0 0.0 0.0 0.0
Ta 1.95 1.95 1.95 0.0 0.0 0.0
2
Lattice = "3.2 0.0 0.0 0.0 3.2 0.0 0.0 0.0 3.2" Properties=species:S:1:pos:R:3:forces:R:3 energy=-23.405474 stress="270245.51 -0.0 0.0 -0.0 270245.51 -0.0 0.0 -0.0 270245.51"
Ta 0.0 0.0 0.0 0.0 0.0 0.0
Ta 1.6 1.6 1.6 0.0 0.0 0.0
2
Lattice = "2.6 0.0 0.0 0.0 2.6 0.0 0.0 0.0 2.6" Properties=species:S:1:pos:R:3:forces:R:3 energy=-4.781324 stress="5944705.43 -0.0 0.0 -0.0 5944705.43 -0.0 0.0 -0.0 5944705.43"
Ta 0.0 0.0 0.0 0.0 0.0 0.0
Ta 1.3 1.3 1.3 0.0 0.0 0.0
2
Lattice = "4.0 0.0 0.0 0.0 4.0 0.0 0.0 0.0 4.0" Properties=species:S:1:pos:R:3:forces:R:3 energy=-18.864936 stress="-349512.61 -0.0 -0.0 -0.0 -349512.61 0.0 -0.0 0.0 -349512.61"
Ta 0.0 0.0 0.0 0.0 0.0 0.0
Ta 2.0 2.0 2.0 0.0 0.0 0.0
2
Lattice = "4.1 0.0 0.0 0.0 4.1 0.0 0.0 0.0 4.1" Properties=species:S:1:pos:R:3:forces:R:3 energy=-17.813086 stress="-334971.81 0.0 0.0 0.0 -334971.81 0.0 0.0 0.0 -334971.81"
Ta 0.0 0.0 0.0 0.0 0.0 0.0
Ta 2.05 2.05 2.05 0.0 0.0 0.0
2
Lattice = "2.7 0.0 0.0 0.0 2.7 0.0 0.0 0.0 2.7" Properties=species:S:1:pos:R:3:forces:R:3 energy=-11.197201 stress="3964027.36 0.0 0.0 0.0 3964027.36 0.0 0.0 0.0 3964027.36"
Ta 0.0 0.0 0.0 0.0 0.0 0.0
Ta 1.35 1.35 1.35 0.0 0.0 0.0
2
Lattice = "3.3 0.0 0.0 0.0 3.3 0.0 0.0 0.0 3.3" Properties=species:S:1:pos:R:3:forces:R:3 energy=-23.696705 stress="39945.84 -0.0 -0.0 -0.0 39945.84 0.0 -0.0 0.0 39945.84"
Ta 0.0 0.0 0.0 0.0 0.0 0.0
Ta 1.65 1.65 1.65 0.0 0.0 0.0
