LAMMPS data file in real units via oxdna lj2real.py, date 2024-05-19

16 atoms
4 atom types
13 bonds
1 bond types
16 ellipsoids

-170 170 xlo xhi
-170 170 ylo yhi
-170 170 zlo zhi

Masses

1 315.8376
2 315.8376
3 315.8376
4 315.8376

Atoms # hybrid

1 1 -5.224492277936935 -5.6003990662830665 3.072035980595378 1 1 1.0016462505133576 0 0 0
2 2 -3.855482258589815 -8.54410812515585 6.182955020430966 1 1 1.0016462505133576 0 0 0
3 3 -0.8418698080395857 -10.56041032511679 9.10967975032824 1 1 1.0016462505133576 0 0 0
4 4 2.502394065492512 -10.715431837829685 12.145744722571814 1 1 1.0016462505133576 0 0 0
5 1 5.355178690564601 -8.674171903962998 15.067785212133312 1 1 1.0016462505133576 0 0 0
6 2 6.7305169669220595 -5.763569949980494 18.347908888941284 1 1 1.0016462505133576 0 0 0
7 3 6.061219006086631 -3.4238594469157198 21.88758604427721 1 1 1.0016462505133576 0 0 0
8 4 4.001186577913306 -2.576839632838177 26.12300846270287 1 1 1.0016462505133576 0 0 0
9 1 3.454997351061381 -12.298079702286948 26.05718083554597 2 1 1.0016462505133576 0 0 0
10 2 -0.2728181587270111 -11.028698363238112 23.169872406755868 2 1 1.0016462505133576 0 0 0
11 3 -2.692868178466912 -7.73787195036868 20.549852065183913 2 1 1.0016462505133576 0 0 0
12 4 -3.316857346830113 -4.145374554885233 17.08862230448963 2 1 1.0016462505133576 0 0 0
13 1 -0.5308965342198838 -0.6095451431748122 13.28229291571604 3 1 1.0016462505133576 0 0 0
14 2 1.5233668194980015 -0.46991432454420656 8.699204689407908 3 1 1.0016462505133576 0 0 0
15 3 3.844548159551531 -2.026909836907328 5.074452450044903 3 1 1.0016462505133576 0 0 0
16 4 4.325141724684425 -4.740799489595668 1.4104749932020408 3 1 1.0016462505133576 0 0 0

Velocities

1 0.00026896558742537556 0.00011298695236274073 0.001242364337461123 0.7538466533118467 -1.2587520584415195 -1.1163576881067447
2 -0.00019946914535880285 0.0013465785184092233 -0.0009479872206420321 -0.13024003640483983 -0.5006975787807386 0.17048535791572514
3 -0.0010377647810347322 -0.0006804774738725614 -0.000302697462953215 -0.15638545864527348 -0.2683843524758034 -0.6295604792026762
4 -0.0011968051721949484 -0.002808404437492725 0.00016214368951061121 -0.7029471277015998 1.2169631204234201 1.42700472482703
5 -0.0008046113463391788 -0.001142874812754601 -0.0006767129075723855 0.304218367349499 -0.4005571162913614 0.5710347488390389
6 -0.00023475461149269044 0.000959484075931813 0.0007283860029089665 0.3921776444343422 -2.399417440979843 0.3950910265578085
7 0.0002545632912247854 -0.00019202725318668095 -0.0007112078778547229 1.4800522749729792 1.8058703404340948 -0.5778414965351256
8 0.0018887377488028885 -0.0002473511615838234 0.0008120520191337178 0.18841278062652408 0.3347372075847072 -0.5408605905745774
9 0.0002452564077667799 0.00020601300929708606 6.1033299095680186e-05 0.13966147753401867 -0.0005390290197378453 0.6635632318913824
10 0.000968244047328249 0.0005529827424647325 -0.00020224034557198784 -0.7235582069719148 -1.9412262416735993 -1.289806869224333
11 -0.0017543321990246556 -0.000939796984860897 0.0018048542648271923 -1.5775475529872025 -2.0891633737315023 0.40142307521789933
12 -0.0005934853675296159 0.001116191652783757 4.626275649966328e-05 -1.200961814632207 0.4371811217355096 0.43287366246768927
13 -0.0007222905985558083 -0.0005767904238661645 0.0006648020330562531 -1.084763819731394 1.1718860080947717 0.2470159472481526
14 0.0002573730178578412 -0.00182797610679242 -0.00033107273492769625 -0.510496177490122 0.29118940603730814 0.9195837620128926
15 -0.0010092903785878923 0.0011654195253227475 4.0609661125969864e-05 -0.723803934131871 0.07956576746268508 -1.1413793944128399
16 -0.0009587558806876301 -0.0004046946607553641 -0.0002343452641922075 0.07373406158203998 -1.3986322243084912 0.4617216556119086

Bonds

1 1 1 2
2 1 2 3
3 1 3 4
4 1 4 5
5 1 5 6
6 1 6 7
7 1 7 8
8 1 9 10
9 1 10 11
10 1 11 12
11 1 13 14
12 1 14 15
13 1 15 16

Ellipsoids

1 9.999999997766462 9.999999997766462 9.999999997766462 0.9964752158482045 -0.053253555733239796 0.011391163807102514 -0.06380787090289707
2 9.999999997766462 9.999999997766462 9.999999997766462 0.9369923833143513 0.11220716044648564 0.06732538499716349 0.3239168400846305
3 9.999999997766462 9.999999997766462 9.999999997766462 0.797964932091827 0.14473096354527873 0.18374142699366386 0.5554673737937029
4 9.999999997766462 9.999999997766462 9.999999997766462 0.5660864821344559 0.14688275499481052 0.09873742533340191 0.8051226439917721
5 9.999999997766462 9.999999997766462 9.999999997766462 0.2533023785125306 0.12062313161679827 0.08583012223905846 0.9559922359911086
6 9.999999997766462 9.999999997766462 9.999999997766462 -0.03855807343534716 0.08405913137017908 0.02236505169306371 0.9954632800204194
7 9.999999997766462 9.999999997766462 9.999999997766462 -0.45592844330248017 0.1004550065061007 -0.052524745294758785 0.8827679181910482
8 9.999999997766462 9.999999997766462 9.999999997766462 0.768021221540491 -0.009582139884533599 0.03658677589040892 -0.63930665074644
9 9.999999997766462 9.999999997766462 9.999999997766462 -0.23299975754512345 0.688686395231341 0.6747873944883376 -0.12682324016841584
10 9.999999997766462 9.999999997766462 9.999999997766462 -0.24662061871907232 0.8744456399178389 0.39370836087823996 -0.13970261209395163
11 9.999999997766462 9.999999997766462 9.999999997766462 -0.087475900850909 0.977367602388229 0.14493549113095577 -0.12686307572668784
12 9.999999997766462 9.999999997766462 9.999999997766462 -0.03181169300779214 0.9634374984140112 -0.2442360692534371 -0.10547485630879185
13 9.999999997766462 9.999999997766462 9.999999997766462 -0.032786070696572266 0.7922941528811777 -0.6084214170523915 -0.03191282109962717
14 9.999999997766462 9.999999997766462 9.999999997766462 0.047188686288341455 0.6316396208287698 -0.7737349519945348 0.011783095844627799
15 9.999999997766462 9.999999997766462 9.999999997766462 -0.05869980642620335 -0.34229358203414423 0.9376740835056508 0.012519965878508689
16 9.999999997766462 9.999999997766462 9.999999997766462 -0.08582818143150042 0.0008707732197394232 0.9939540921464659 -0.0684691735853161
