LAMMPS (17 Apr 2024 - Development - patch_17Apr2024-174-g749e259294-modified)
# LAMMPS input file in real units via oxdna lj2real.py, date 2024-05-19
variable number	equal 2
variable ofreq	equal 1000
variable efreq	equal 1000
variable T      equal 300.0
variable rhos   equal 0.2

units real

dimension 3

newton on

boundary  p p p

atom_style hybrid bond ellipsoid oxdna
WARNING: Atom style hybrid defines both, per-type and per-atom masses; both must be set, but only per-atom masses will be used (../atom_vec_hybrid.cpp:132)
atom_modify sort 0 8.518

# Pair interactions require lists of neighbours to be calculated
neighbor 17.036 bin
neigh_modify every 1 delay 0 check yes

read_data data.duplex2
Reading data file ...
  orthogonal box = (-170 -170 -170) to (170 170 170)
  1 by 1 by 1 MPI processor grid
  reading atoms ...
  16 atoms
  reading velocities ...
  16 velocities
  scanning bonds ...
  1 = max bonds/atom
  16 ellipsoids
  orthogonal box = (-170 -170 -170) to (170 170 170)
  1 by 1 by 1 MPI processor grid
  reading bonds ...
  13 bonds
Finding 1-2 1-3 1-4 neighbors ...
  special bond factors lj:    0        0        0       
  special bond factors coul:  0        0        0       
     2 = max # of 1-2 neighbors
     2 = max # of 1-3 neighbors
     4 = max # of 1-4 neighbors
     6 = max # of special neighbors
  special bonds CPU = 0.000 seconds
  read_data CPU = 0.009 seconds

set atom * mass 315.8376
Setting atom values ...
  16 settings made for mass

group all type 1 4
16 atoms in group all

# oxDNA2 bond interactions - FENE backbone
bond_style oxdna2/fene
bond_coeff * 11.92337812042065 2.1295 6.4430152
special_bonds lj 0 1 1
Finding 1-2 1-3 1-4 neighbors ...
  special bond factors lj:    0        1        1       
  special bond factors coul:  0        0        0       
     2 = max # of 1-2 neighbors
     2 = max # of 1-3 neighbors
     4 = max # of 1-4 neighbors
     6 = max # of special neighbors
  special bonds CPU = 0.000 seconds

# oxDNA2 pair interactions
pair_style hybrid/overlay oxdna2/excv oxdna2/stk oxdna2/hbond oxdna2/xstk oxdna2/coaxstk oxdna2/dh
pair_coeff * * oxdna2/excv 11.92337812042065 5.9626 5.74965 11.92337812042065 4.38677 4.259 11.92337812042065 2.81094 2.72576
pair_coeff * * oxdna2/stk seqav ${T} 8.06199211612242 0.005309213 0.70439070204273 3.4072 7.6662 2.72576 6.3885 1.3 0.0 0.8 0.9 0.0 0.95 0.9 0.0 0.95 2.0 0.65 2.0 0.65
pair_coeff * * oxdna2/stk seqav 300 8.06199211612242 0.005309213 0.70439070204273 3.4072 7.6662 2.72576 6.3885 1.3 0.0 0.8 0.9 0.0 0.95 0.9 0.0 0.95 2.0 0.65 2.0 0.65
pair_coeff * * oxdna2/hbond seqav 0.0 0.93918760272364 3.4072 6.3885 2.89612 5.9626 1.5 0.0 0.7 1.5 0 0.7 1.5 0 0.7 0.46 3.141592654 0.7 4.0 1.570796327 0.45 4.0 1.570796327 0.45
pair_coeff 1 4 oxdna2/hbond seqav 6.36589157849259 0.93918760272364 3.4072 6.3885 2.89612 5.9626 1.5 0 0.7 1.5 0.0 0.7 1.5 0 0.7 0.46 3.141592654 0.7 4.0 1.570796327 0.45 4.0 1.570796327 0.45
pair_coeff 2 3 oxdna2/hbond seqav 6.36589157849259 0.93918760272364 3.4072 6.3885 2.89612 5.9626 1.5 0 0.7 1.5 0.0 0.7 1.5 0 0.7 0.46 3.141592654 0.7 4.0 1.570796327 0.45 4.0 1.570796327 0.45
pair_coeff * * oxdna2/xstk 3.9029021145006 4.89785 5.74965 4.21641 5.57929 2.25 0.791592654 0.58 1.7 1.0 0.68 1.7 1.0 0.68 1.5 0 0.65 1.7 0.875 0.68 1.7 0.875 0.68
pair_coeff * * oxdna2/coaxstk 4.80673207785863 3.4072 5.1108 1.87396 4.94044 2.0 2.891592653589793 0.65 1.3 0 0.8 0.9 0 0.95 0.9 0 0.95 40.0 3.116592653589793
pair_coeff * * oxdna2/dh ${T} ${rhos} 0.815
pair_coeff * * oxdna2/dh 300 ${rhos} 0.815
pair_coeff * * oxdna2/dh 300 0.2 0.815

# NVE ensemble
fix 1 all nve/asphere
fix 2 all langevin ${T} ${T} 4265.0 457145 angmom 10
fix 2 all langevin 300 ${T} 4265.0 457145 angmom 10
fix 2 all langevin 300 300 4265.0 457145 angmom 10

timestep 0.01706

#comm_style tiled
fix 3 all balance 1000 1.03 shift xyz 10 1.03
comm_modify cutoff 32.4

compute quat all property/atom quatw quati quatj quatk

compute erot all erotate/asphere
compute ekin all ke
compute epot all pe
variable erot equal c_erot
variable ekin equal c_ekin
variable epot equal c_epot
variable etot equal c_erot+c_ekin+c_epot
fix 5 all print ${efreq} "$(step)  ekin = ${ekin} |  erot = ${erot} | epot = ${epot} | etot = ${etot}" screen yes
fix 5 all print 1000 "$(step)  ekin = ${ekin} |  erot = ${erot} | epot = ${epot} | etot = ${etot}" screen yes

dump out all custom ${ofreq} out.${number}.lammpstrj id mol type x y z ix iy iz vx vy vz c_quat[1] c_quat[2] c_quat[3] c_quat[4] angmomx angmomy angmomz
dump out all custom 1000 out.${number}.lammpstrj id mol type x y z ix iy iz vx vy vz c_quat[1] c_quat[2] c_quat[3] c_quat[4] angmomx angmomy angmomz
dump out all custom 1000 out.2.lammpstrj id mol type x y z ix iy iz vx vy vz c_quat[1] c_quat[2] c_quat[3] c_quat[4] angmomx angmomy angmomz
dump_modify out sort id
dump_modify out format line "%d %d %d  %22.15le %22.15le %22.15le  %d %d %d  %22.15le %22.15le %22.15le  %22.15le %22.15le %22.15le %22.15le  %22.15le %22.15le %22.15le"

run 1000000
Generated 0 of 6 mixed pair_coeff terms from geometric mixing rule
Neighbor list info ...
  update: every = 1 steps, delay = 0 steps, check = yes
  max neighbors/atom: 2000, page size: 100000
  master list distance cutoff = 48.032697
  ghost atom cutoff = 48.032697
  binsize = 24.016348, bins = 15 15 15
  5 neighbor lists, perpetual/occasional/extra = 5 0 0
  (1) pair oxdna2/excv, perpetual
      attributes: half, newton on
      pair build: half/bin/newton
      stencil: half/bin/3d
      bin: standard
  (2) pair oxdna2/hbond, perpetual, copy from (1)
      attributes: half, newton on
      pair build: copy
      stencil: none
      bin: none
  (3) pair oxdna2/xstk, perpetual, copy from (1)
      attributes: half, newton on
      pair build: copy
      stencil: none
      bin: none
  (4) pair oxdna2/coaxstk, perpetual, copy from (1)
      attributes: half, newton on
      pair build: copy
      stencil: none
      bin: none
  (5) pair oxdna2/dh, perpetual, copy from (1)
      attributes: half, newton on
      pair build: copy
      stencil: none
      bin: none
WARNING: Communication cutoff adjusted to 48.03269686950012 (../comm.cpp:739)
0  ekin = 16.1203242878408 |  erot = 16.6982509426318 | epot = -125.483166681887 | etot = -92.6645914514141
Per MPI rank memory allocation (min/avg/max) = 7.57 | 7.57 | 7.57 Mbytes
   Step          Temp          E_pair         E_mol          TotEng         Press          Volume    
         0   360.53565     -129.82524      4.3420686     -109.36284      0.039706925    39304000     
1000  ekin = 16.1153280108143 |  erot = 15.5197830189416 | epot = -124.555012078315 | etot = -92.9199010485588
2000  ekin = 15.772246419827 |  erot = 15.1139636185383 | epot = -123.879088875298 | etot = -92.9928788369323
3000  ekin = 16.0773390725189 |  erot = 15.209959103884 | epot = -123.489559526102 | etot = -92.2022613496986
4000  ekin = 15.8173041766846 |  erot = 14.7611030291702 | epot = -123.285245732656 | etot = -92.7068385268011
5000  ekin = 15.4977817476135 |  erot = 13.136888034624 | epot = -123.146472671991 | etot = -94.511802889753
6000  ekin = 14.7156620894482 |  erot = 14.7421516126936 | epot = -123.022223364177 | etot = -93.5644096620347
7000  ekin = 14.9944296549912 |  erot = 13.783162042227 | epot = -123.190008596649 | etot = -94.4124168994313
8000  ekin = 15.4784069740882 |  erot = 13.849436282597 | epot = -123.501589669336 | etot = -94.1737464126508
9000  ekin = 14.8187016230064 |  erot = 12.4172590954619 | epot = -123.977782239857 | etot = -96.7418215213889
10000  ekin = 15.0274879557549 |  erot = 13.1218082157407 | epot = -124.599335647018 | etot = -96.4500394755227
11000  ekin = 14.4931845632981 |  erot = 14.4826290329821 | epot = -125.349370552054 | etot = -96.3735569557737
12000  ekin = 14.6238652440025 |  erot = 15.0566784473206 | epot = -126.147676000969 | etot = -96.4671323096456
13000  ekin = 15.137690408925 |  erot = 16.3735083921761 | epot = -126.783622343916 | etot = -95.2724235428147
14000  ekin = 15.0736340167339 |  erot = 17.9580151111454 | epot = -127.212455694657 | etot = -94.1808065667773
15000  ekin = 15.6847409974466 |  erot = 16.4414105500024 | epot = -127.359697666437 | etot = -95.2335461189881
16000  ekin = 15.101909613666 |  erot = 17.5942742553051 | epot = -127.202183128007 | etot = -94.5059992590364
17000  ekin = 15.3727376562683 |  erot = 19.1091811430074 | epot = -126.813728712217 | etot = -92.3318099129414
18000  ekin = 14.8374011694519 |  erot = 19.7017705490592 | epot = -126.30449141107 | etot = -91.7653196925591
19000  ekin = 15.1981564010543 |  erot = 18.6439998775122 | epot = -125.672872041634 | etot = -91.830715763067
20000  ekin = 16.1151841084727 |  erot = 20.7585939815706 | epot = -124.972087929324 | etot = -88.0983098392806
21000  ekin = 16.3338477714416 |  erot = 20.8240546257147 | epot = -124.366832858554 | etot = -87.2089304613976
22000  ekin = 16.1322150698349 |  erot = 20.2134381799286 | epot = -123.905804890148 | etot = -87.5601516403842
23000  ekin = 16.5115128572444 |  erot = 17.6994160203144 | epot = -123.55564726802 | etot = -89.3447183904615
24000  ekin = 16.1352983796458 |  erot = 16.3149199437269 | epot = -123.442319677191 | etot = -90.9921013538185
25000  ekin = 16.022085347148 |  erot = 15.583100483768 | epot = -123.449358919593 | etot = -91.8441730886766
26000  ekin = 16.2893661316802 |  erot = 16.2928134270855 | epot = -123.576521595326 | etot = -90.9943420365607
27000  ekin = 16.7390245507423 |  erot = 15.3238654831856 | epot = -123.731718503694 | etot = -91.6688284697663
28000  ekin = 16.2177081340479 |  erot = 14.8307563153175 | epot = -123.99220492136 | etot = -92.9437404719943
29000  ekin = 16.394983535328 |  erot = 14.5241463812386 | epot = -124.513314221131 | etot = -93.5941843045643
30000  ekin = 16.9754617608551 |  erot = 15.2543913785552 | epot = -125.219970033943 | etot = -92.9901168945324
31000  ekin = 17.5126083496296 |  erot = 16.0100732675228 | epot = -126.062415056418 | etot = -92.5397334392652
32000  ekin = 18.5712292997905 |  erot = 16.206627396287 | epot = -126.997383457792 | etot = -92.2195267617144
33000  ekin = 20.3914733420706 |  erot = 17.95620789524 | epot = -127.853083619434 | etot = -89.5054023821237
34000  ekin = 20.6113627375719 |  erot = 19.9540488404715 | epot = -128.630184260389 | etot = -88.0647726823456
35000  ekin = 20.8360942975504 |  erot = 18.7186151968505 | epot = -129.138353151477 | etot = -89.583643657076
36000  ekin = 20.6985051785528 |  erot = 16.975623481333 | epot = -129.307575419352 | etot = -91.6334467594659
37000  ekin = 20.5167811486514 |  erot = 15.2755543486072 | epot = -129.197321856118 | etot = -93.4049863588594
38000  ekin = 21.1497608417914 |  erot = 14.5576638198861 | epot = -128.930481489255 | etot = -93.2230568275779
39000  ekin = 20.6746026905741 |  erot = 14.3039991212366 | epot = -128.401411971525 | etot = -93.4228101597146
40000  ekin = 20.2458392603998 |  erot = 12.3350344432048 | epot = -127.685777608123 | etot = -95.1049039045185
41000  ekin = 19.9443359632547 |  erot = 12.5780453533769 | epot = -127.034234533918 | etot = -94.5118532172866
42000  ekin = 18.7142138659613 |  erot = 15.6025018660211 | epot = -126.430389989682 | etot = -92.1136742577
43000  ekin = 18.2011859622276 |  erot = 12.9029481737254 | epot = -125.805728672502 | etot = -94.7015945365485
44000  ekin = 17.0231621476026 |  erot = 13.3229275319614 | epot = -125.306302559716 | etot = -94.9602128801516
45000  ekin = 16.152368779228 |  erot = 13.1425819599688 | epot = -125.010262919191 | etot = -95.7153121799937
46000  ekin = 16.7021752482541 |  erot = 14.1252164671804 | epot = -124.733270572736 | etot = -93.9058788573016
47000  ekin = 15.99784829344 |  erot = 13.7601120378058 | epot = -124.690287962324 | etot = -94.9323276310783
48000  ekin = 15.5197793757419 |  erot = 12.9242805215039 | epot = -124.828892248156 | etot = -96.3848323509101
49000  ekin = 16.0883502578865 |  erot = 11.6460670991824 | epot = -125.077169952033 | etot = -97.3427525949638
50000  ekin = 16.5910827451326 |  erot = 10.3658274796462 | epot = -125.343780614919 | etot = -98.3868703901406
51000  ekin = 16.6472854601222 |  erot = 10.477376420409 | epot = -125.554004771147 | etot = -98.4293428906161
52000  ekin = 17.5155585277601 |  erot = 12.2350226754088 | epot = -125.797409563523 | etot = -96.0468283603543
53000  ekin = 17.4722415449292 |  erot = 13.1927275265022 | epot = -126.040236812772 | etot = -95.3752677413405
54000  ekin = 17.6076594913864 |  erot = 13.1614957800302 | epot = -126.29136443309 | etot = -95.5222091616737
55000  ekin = 17.8100170030173 |  erot = 14.1252425722699 | epot = -126.659390094792 | etot = -94.7241305195052
56000  ekin = 17.8387492196087 |  erot = 14.0302618957366 | epot = -126.997375569247 | etot = -95.1283644539021
57000  ekin = 18.1401351862027 |  erot = 12.5711347601677 | epot = -127.202256599684 | etot = -96.4909866533135
58000  ekin = 17.7813245596444 |  erot = 12.7191555553695 | epot = -127.338590294723 | etot = -96.8381101797093
59000  ekin = 17.3503839581068 |  erot = 14.1146045471954 | epot = -127.355017342212 | etot = -95.8900288369098
60000  ekin = 17.7216299019791 |  erot = 15.1536630383833 | epot = -127.187386794376 | etot = -94.3120938540139
61000  ekin = 17.6941198173267 |  erot = 14.8383509334028 | epot = -126.818610986476 | etot = -94.2861402357464
62000  ekin = 17.5641418897184 |  erot = 13.0033976525466 | epot = -126.314451969138 | etot = -95.7469124268735
63000  ekin = 18.0478257135008 |  erot = 12.8783262794927 | epot = -125.770715790686 | etot = -94.8445637976929
64000  ekin = 19.1312112805444 |  erot = 12.3333582641774 | epot = -125.534785996931 | etot = -94.0702164522088
65000  ekin = 19.2188096461596 |  erot = 11.534140380085 | epot = -125.40389945946 | etot = -94.6509494332154
66000  ekin = 18.5078500027816 |  erot = 11.5846652158613 | epot = -125.504956118775 | etot = -95.4124409001317
67000  ekin = 18.638156151796 |  erot = 13.7030208647307 | epot = -125.838860350819 | etot = -93.4976833342926
68000  ekin = 17.8865475786144 |  erot = 12.1697153221337 | epot = -126.27822517768 | etot = -96.2219622769318
69000  ekin = 17.5219063470627 |  erot = 12.4929246770787 | epot = -126.717736182271 | etot = -96.7029051581301
70000  ekin = 17.5814052632097 |  erot = 12.0656944954174 | epot = -127.122334765233 | etot = -97.4752350066057
71000  ekin = 17.6186651902907 |  erot = 11.805625199446 | epot = -127.543345427813 | etot = -98.1190550380765
72000  ekin = 18.0718508623175 |  erot = 9.77749946391409 | epot = -127.989924738645 | etot = -100.140574412413
73000  ekin = 19.0920485574284 |  erot = 10.888821079169 | epot = -128.359908178953 | etot = -98.3790385423553
74000  ekin = 19.2389264009398 |  erot = 11.2795143076653 | epot = -128.562954573251 | etot = -98.0445138646455
75000  ekin = 19.6112927877196 |  erot = 11.317568594913 | epot = -128.661300438151 | etot = -97.7324390555186
76000  ekin = 19.6492516668936 |  erot = 11.1717966410452 | epot = -128.559946485653 | etot = -97.7388981777141
77000  ekin = 21.1068514097441 |  erot = 10.4729843548249 | epot = -128.202251226815 | etot = -96.6224154622463
78000  ekin = 21.1227025352881 |  erot = 10.5460147355503 | epot = -127.582218749235 | etot = -95.9135014783966
79000  ekin = 21.1634476662608 |  erot = 11.412795878689 | epot = -126.699422157225 | etot = -94.123178612275
80000  ekin = 20.5411068465151 |  erot = 9.28280579073373 | epot = -125.813611671359 | etot = -95.9896990341104
81000  ekin = 20.2127188226421 |  erot = 8.68741517076759 | epot = -125.052171926345 | etot = -96.1520379329351
82000  ekin = 19.5639253627065 |  erot = 8.24811185652522 | epot = -124.593340202665 | etot = -96.7813029834335
83000  ekin = 19.5018897695322 |  erot = 9.63479707897837 | epot = -124.407709264664 | etot = -95.2710224161539
84000  ekin = 19.3027647164262 |  erot = 9.42639051222035 | epot = -124.334250370385 | etot = -95.6050951417389
85000  ekin = 19.0487713310452 |  erot = 9.79542315457042 | epot = -124.252398919893 | etot = -95.4082044342771
86000  ekin = 19.3694172993635 |  erot = 11.2986506313883 | epot = -124.198542654273 | etot = -93.5304747235215
87000  ekin = 18.6713589438551 |  erot = 11.5853232812429 | epot = -124.290853730472 | etot = -94.0341715053737
88000  ekin = 18.5500451464139 |  erot = 10.655919965597 | epot = -124.63664155045 | etot = -95.4306764384394
89000  ekin = 18.3872263818112 |  erot = 9.75329564920108 | epot = -125.028859357009 | etot = -96.8883373259966
90000  ekin = 19.0994515181362 |  erot = 11.6206668977449 | epot = -125.599576758451 | etot = -94.87945834257
91000  ekin = 18.762458694279 |  erot = 13.4916962121932 | epot = -126.260965836519 | etot = -94.0068109300465
92000  ekin = 19.2847330458389 |  erot = 14.2203422707944 | epot = -127.023086031573 | etot = -93.5180107149399
93000  ekin = 19.5504808602138 |  erot = 13.2606408217758 | epot = -127.650916011537 | etot = -94.839794329547
94000  ekin = 19.7629848910551 |  erot = 12.7340289593159 | epot = -128.193890026322 | etot = -95.6968761759514
95000  ekin = 19.5164573312404 |  erot = 14.1994672700034 | epot = -128.871597081462 | etot = -95.1556724802185
96000  ekin = 19.2181154642271 |  erot = 15.1758927231988 | epot = -129.560918567207 | etot = -95.1669103797815
97000  ekin = 19.2828087523966 |  erot = 15.748540644312 | epot = -130.239899181154 | etot = -95.208549784446
98000  ekin = 19.130898096078 |  erot = 15.9200598142929 | epot = -130.857091082761 | etot = -95.8061331723896
99000  ekin = 18.5810737782702 |  erot = 17.3321684743508 | epot = -131.447004089924 | etot = -95.5337618373029
100000  ekin = 18.0800633544481 |  erot = 17.7023518077182 | epot = -132.024865631774 | etot = -96.2424504696075
101000  ekin = 17.5896052041272 |  erot = 17.1959075049022 | epot = -132.357834696272 | etot = -97.5723219872429
102000  ekin = 17.0192077298915 |  erot = 18.9771880159657 | epot = -132.313152428828 | etot = -96.3167566829707
103000  ekin = 16.9032784353035 |  erot = 18.5152697805926 | epot = -131.919415232451 | etot = -96.500867016555
104000  ekin = 16.3450502985469 |  erot = 16.4796871078877 | epot = -131.372601946296 | etot = -98.5478645398611
105000  ekin = 16.0157880251461 |  erot = 14.5137387234916 | epot = -130.690178340474 | etot = -100.160651591836
106000  ekin = 15.2781681840949 |  erot = 12.2178930878269 | epot = -130.108516100693 | etot = -102.612454828772
107000  ekin = 14.6195965363415 |  erot = 14.0419438496236 | epot = -129.597025617775 | etot = -100.93548523181
108000  ekin = 15.1311776564956 |  erot = 14.392205366199 | epot = -129.226898397379 | etot = -99.703515374684
109000  ekin = 14.7526348132911 |  erot = 13.3877709003095 | epot = -128.961214437226 | etot = -100.820808723625
110000  ekin = 14.9215683172472 |  erot = 11.1115528281189 | epot = -128.900162697442 | etot = -102.867041552076
111000  ekin = 15.2178285635409 |  erot = 11.5265219530728 | epot = -129.02264735669 | etot = -102.278296840076
112000  ekin = 15.3540615689254 |  erot = 11.0854135027605 | epot = -129.156449565022 | etot = -102.716974493336
113000  ekin = 15.4065622254168 |  erot = 9.93115052586711 | epot = -129.264775093603 | etot = -103.927062342319
114000  ekin = 15.7255993115367 |  erot = 11.1268632736623 | epot = -129.296474102219 | etot = -102.44401151702
115000  ekin = 15.2547531671349 |  erot = 11.6530061146701 | epot = -129.424954691359 | etot = -102.517195409554
116000  ekin = 15.5019695068328 |  erot = 11.8342564956936 | epot = -129.611475879022 | etot = -102.275249876496
117000  ekin = 15.7229455518224 |  erot = 12.8683161616472 | epot = -129.846111796993 | etot = -101.254850083523
118000  ekin = 15.9368151241017 |  erot = 12.3779048180477 | epot = -130.050496350427 | etot = -101.735776408277
119000  ekin = 17.361257323721 |  erot = 11.8518613557714 | epot = -130.196521073721 | etot = -100.983402394229
120000  ekin = 17.5338424127199 |  erot = 11.9133772725297 | epot = -130.267749385737 | etot = -100.820529700487
121000  ekin = 18.1732043783987 |  erot = 12.8282861983004 | epot = -130.286986417184 | etot = -99.2854958404852
122000  ekin = 18.0099423653346 |  erot = 12.4654600731294 | epot = -130.383884542817 | etot = -99.9084821043533
123000  ekin = 17.8506031517267 |  erot = 10.5503100490201 | epot = -130.596614601186 | etot = -102.195701400439
124000  ekin = 17.6710243181817 |  erot = 11.7129267154528 | epot = -130.763489485464 | etot = -101.379538451829
125000  ekin = 17.7891709571639 |  erot = 9.81386685043019 | epot = -130.931886974658 | etot = -103.328849167064
126000  ekin = 17.8350392396833 |  erot = 10.4705584397578 | epot = -131.222622366146 | etot = -102.917024686705
127000  ekin = 18.1416438253932 |  erot = 11.0182198075673 | epot = -131.446798072859 | etot = -102.286934439898
128000  ekin = 18.8582437184471 |  erot = 11.8401049533331 | epot = -131.795067249695 | etot = -101.096718577915
129000  ekin = 18.8650300802711 |  erot = 11.7918190138826 | epot = -132.119265989036 | etot = -101.462416894882
130000  ekin = 18.4257823677809 |  erot = 15.0299466324866 | epot = -132.288573044193 | etot = -98.8328440439252
131000  ekin = 18.1437894207897 |  erot = 16.5103668803409 | epot = -132.315884341679 | etot = -97.6617280405481
132000  ekin = 17.7512583058201 |  erot = 15.4247935235789 | epot = -132.043801623743 | etot = -98.8677497943437
133000  ekin = 18.084680831884 |  erot = 14.8524353891271 | epot = -131.387672978511 | etot = -98.4505567574995
134000  ekin = 17.7192111747964 |  erot = 13.5884229143348 | epot = -130.583041739003 | etot = -99.275407649872
135000  ekin = 17.7536873750666 |  erot = 14.0982927325614 | epot = -129.714512834768 | etot = -97.8625327271396
136000  ekin = 18.2509212913219 |  erot = 11.0266206273164 | epot = -128.826275668783 | etot = -99.5487337501442
137000  ekin = 18.0888537517195 |  erot = 10.6764813782231 | epot = -128.070491805314 | etot = -99.3051566753711
138000  ekin = 17.7812261279265 |  erot = 11.6465856631146 | epot = -127.390489385666 | etot = -97.9626775946245
139000  ekin = 17.9170079781834 |  erot = 10.4529474308984 | epot = -126.842446381848 | etot = -98.4724909727663
140000  ekin = 17.7773492411915 |  erot = 9.25494565223195 | epot = -126.432310441117 | etot = -99.4000155476936
141000  ekin = 17.1244425096873 |  erot = 9.65549785466578 | epot = -126.141777730543 | etot = -99.3618373661899
142000  ekin = 16.5201701593962 |  erot = 10.8998964099815 | epot = -125.940729957089 | etot = -98.5206633877113
143000  ekin = 15.8857666561186 |  erot = 10.1784670365893 | epot = -125.90698471032 | etot = -99.8427510176117
144000  ekin = 15.7565411168065 |  erot = 12.047444203328 | epot = -126.125108036528 | etot = -98.321122716393
145000  ekin = 15.3969621946866 |  erot = 13.9459354390538 | epot = -126.373024296495 | etot = -97.030126662755
146000  ekin = 15.4725607727619 |  erot = 14.2570317429904 | epot = -126.498863796023 | etot = -96.7692712802706
147000  ekin = 15.3450693776366 |  erot = 15.6232442146574 | epot = -126.412342603372 | etot = -95.4440290110776
148000  ekin = 15.8954626715371 |  erot = 15.7885966481124 | epot = -126.133296825904 | etot = -94.449237506254
149000  ekin = 15.5447736469062 |  erot = 13.3783461269004 | epot = -125.798608325168 | etot = -96.8754885513612
150000  ekin = 15.1495805797146 |  erot = 13.6429758807529 | epot = -125.407317668973 | etot = -96.6147612085054
151000  ekin = 15.1616652247071 |  erot = 14.0598975281373 | epot = -125.035002166702 | etot = -95.813439413858
152000  ekin = 15.3091686685073 |  erot = 14.4869353531681 | epot = -124.697020998762 | etot = -94.9009169770863
153000  ekin = 14.9857966418998 |  erot = 14.2639845699339 | epot = -124.429194085149 | etot = -95.179412873315
154000  ekin = 15.2871304577002 |  erot = 15.2408560259889 | epot = -124.13138567458 | etot = -93.6033991908905
155000  ekin = 15.1935902329344 |  erot = 16.5332537474993 | epot = -123.717148957551 | etot = -91.9903049771177
156000  ekin = 14.9318980548606 |  erot = 16.9585676917368 | epot = -123.312319455018 | etot = -91.4218537084203
157000  ekin = 14.9239819478168 |  erot = 16.3436933974605 | epot = -122.821468736538 | etot = -91.5537933912602
158000  ekin = 14.6896340711936 |  erot = 16.2520546181314 | epot = -121.560992897385 | etot = -90.6193042080597
159000  ekin = 14.380371095523 |  erot = 17.248314924081 | epot = -121.467420388953 | etot = -89.8387343693487
160000  ekin = 14.5875486089083 |  erot = 17.5905809234816 | epot = -122.699020677454 | etot = -90.5208911450643
161000  ekin = 14.8276227126018 |  erot = 18.3926246794873 | epot = -123.566242857825 | etot = -90.3459954657364
162000  ekin = 15.6936272173714 |  erot = 16.9816508210412 | epot = -124.054848993562 | etot = -91.3795709551497
163000  ekin = 16.2263820836142 |  erot = 17.6245213122907 | epot = -124.736300977309 | etot = -90.8853975814038
164000  ekin = 17.0093157816188 |  erot = 16.6796461814173 | epot = -125.568419886304 | etot = -91.8794579232682
165000  ekin = 18.009720026184 |  erot = 15.3539812192405 | epot = -126.49931452143 | etot = -93.1356132760057
166000  ekin = 18.8470150492957 |  erot = 15.1046721419971 | epot = -127.429741849845 | etot = -93.4780546585521
167000  ekin = 19.5642890442739 |  erot = 15.8598331039342 | epot = -128.291297852841 | etot = -92.8671757046329
168000  ekin = 19.6862039573375 |  erot = 15.8349840859769 | epot = -129.140703889381 | etot = -93.6195158460662
169000  ekin = 20.6945323087269 |  erot = 13.4325872410556 | epot = -129.822388484466 | etot = -95.6952689346837
170000  ekin = 22.0647526260469 |  erot = 12.8942633681097 | epot = -130.419864694263 | etot = -95.4608487001065
171000  ekin = 22.943639339366 |  erot = 11.1816601087484 | epot = -130.898425026419 | etot = -96.7731255783043
172000  ekin = 23.5487360086972 |  erot = 11.709116260819 | epot = -131.153087196089 | etot = -95.8952349265727
173000  ekin = 23.3892857905513 |  erot = 12.7557214142903 | epot = -131.135342861095 | etot = -94.9903356562537
174000  ekin = 23.35018573525 |  erot = 12.8363501231957 | epot = -130.945667676559 | etot = -94.7591318181137
175000  ekin = 23.3884404339159 |  erot = 10.8122258111237 | epot = -130.472641840404 | etot = -96.2719755953642
176000  ekin = 21.5597457312898 |  erot = 10.0374200559152 | epot = -129.874726714678 | etot = -98.2775609274735
177000  ekin = 20.4815949162203 |  erot = 8.99167759948274 | epot = -129.080278974767 | etot = -99.6070064590639
178000  ekin = 19.6247383858513 |  erot = 9.22106961945735 | epot = -128.257986703796 | etot = -99.4121786984872
179000  ekin = 18.7995820087584 |  erot = 10.9357566605628 | epot = -127.480693192329 | etot = -97.7453545230082
180000  ekin = 18.5383318996741 |  erot = 11.695380571584 | epot = -126.758025790561 | etot = -96.5243133193033
181000  ekin = 17.0447803103657 |  erot = 11.8007631437052 | epot = -126.226072012177 | etot = -97.380528558106
182000  ekin = 16.2894526949276 |  erot = 12.416164133038 | epot = -125.887179385862 | etot = -97.1815625578969
183000  ekin = 16.6080309265792 |  erot = 12.8149523345473 | epot = -125.615950231218 | etot = -96.1929669700911
184000  ekin = 16.3744299525237 |  erot = 12.9694537390341 | epot = -125.446432769611 | etot = -96.102549078053
185000  ekin = 16.1680663279096 |  erot = 14.4956894838547 | epot = -125.517482617703 | etot = -94.8537268059389
186000  ekin = 16.1257587462836 |  erot = 15.1875842076049 | epot = -125.659427603794 | etot = -94.3460846499053
187000  ekin = 16.0397295413223 |  erot = 14.4670724430242 | epot = -125.995193074143 | etot = -95.488391089796
188000  ekin = 15.6899836100949 |  erot = 14.7638277675767 | epot = -126.425523467655 | etot = -95.9717120899832
189000  ekin = 15.0625500409891 |  erot = 14.1154735980193 | epot = -126.846152752696 | etot = -97.6681291136872
190000  ekin = 15.2069054588956 |  erot = 14.6859243902427 | epot = -127.433541853514 | etot = -97.5407120043753
191000  ekin = 15.6740546561506 |  erot = 15.9626651851846 | epot = -127.896978550165 | etot = -96.2602587088297
192000  ekin = 15.4318280527709 |  erot = 18.1353702097593 | epot = -128.302111852112 | etot = -94.734913589582
193000  ekin = 15.3469995573318 |  erot = 17.7766470416487 | epot = -128.618975597814 | etot = -95.495328998834
194000  ekin = 15.2104506233857 |  erot = 21.0799824470635 | epot = -128.783338748985 | etot = -92.4929056785358
195000  ekin = 14.1287522348466 |  erot = 23.1619754781382 | epot = -128.29289851349 | etot = -91.0021708005055
196000  ekin = 13.3885368132018 |  erot = 23.1979147136361 | epot = -127.741537167645 | etot = -91.1550856408074
197000  ekin = 12.4059689641546 |  erot = 22.2524136408538 | epot = -127.509097138024 | etot = -92.8507145330151
198000  ekin = 11.8921374835096 |  erot = 19.781728200708 | epot = -127.037889310497 | etot = -95.3640236262798
199000  ekin = 11.2532240659878 |  erot = 18.2188688915955 | epot = -126.340308303153 | etot = -96.8682153455699
200000  ekin = 11.0987340347435 |  erot = 18.60818019739 | epot = -125.85420630367 | etot = -96.1472920715361
201000  ekin = 11.7489357164156 |  erot = 15.281688246823 | epot = -125.682140321791 | etot = -98.6515163585526
202000  ekin = 11.7145445879392 |  erot = 15.0356903466778 | epot = -125.740023875244 | etot = -98.9897889406272
203000  ekin = 12.0903488366362 |  erot = 14.3345717011572 | epot = -126.048866274682 | etot = -99.6239457368885
204000  ekin = 12.4417683268483 |  erot = 14.3229870520558 | epot = -126.529965825482 | etot = -99.7652104465778
205000  ekin = 13.1698814591864 |  erot = 14.6415169346515 | epot = -127.124165984413 | etot = -99.3127675905754
206000  ekin = 13.8723804085583 |  erot = 14.5686570177801 | epot = -127.751024041401 | etot = -99.3099866150631
207000  ekin = 14.3112273566462 |  erot = 13.070167910606 | epot = -128.541344802635 | etot = -101.159949535383
208000  ekin = 15.16434371668 |  erot = 12.0476689292267 | epot = -129.396845246345 | etot = -102.184832600439
209000  ekin = 15.7182214267953 |  erot = 11.9792376393735 | epot = -130.439256642704 | etot = -102.741797576535
210000  ekin = 16.8116032305538 |  erot = 12.8318158803216 | epot = -131.566184333306 | etot = -101.922765222431
211000  ekin = 17.0286682860339 |  erot = 11.9299987181453 | epot = -132.706776286311 | etot = -103.748109282131
212000  ekin = 17.495092644444 |  erot = 13.0542600963912 | epot = -133.734529445312 | etot = -103.185176704477
213000  ekin = 18.1544022312138 |  erot = 12.9214683681872 | epot = -134.668238718993 | etot = -103.592368119592
214000  ekin = 18.944441841757 |  erot = 11.5204669980782 | epot = -135.37166723116 | etot = -104.906758391324
215000  ekin = 19.2678390020627 |  erot = 11.3933718971404 | epot = -135.757866327845 | etot = -105.096655428642
216000  ekin = 19.2698399527749 |  erot = 11.134292164478 | epot = -135.978508576259 | etot = -105.574376459006
217000  ekin = 19.6693699034603 |  erot = 11.8996645917077 | epot = -136.066555103325 | etot = -104.497520608157
218000  ekin = 19.6558025470516 |  erot = 11.6982321377416 | epot = -136.00830488635 | etot = -104.654270201556
219000  ekin = 19.2866150818585 |  erot = 11.5958256376614 | epot = -135.986480868354 | etot = -105.104040148834
220000  ekin = 19.0299200086328 |  erot = 12.7877825940592 | epot = -136.003862431597 | etot = -104.186159828905
221000  ekin = 18.3887352106328 |  erot = 14.0162126644684 | epot = -135.884700146083 | etot = -103.479752270982
222000  ekin = 17.8182271656908 |  erot = 13.3669574260086 | epot = -135.679482053355 | etot = -104.494297461656
223000  ekin = 17.5268503521898 |  erot = 14.6122101838067 | epot = -135.382982684107 | etot = -103.243922148111
224000  ekin = 17.0683929815185 |  erot = 14.6347025849537 | epot = -135.233315947347 | etot = -103.530220380875
225000  ekin = 17.0633907591624 |  erot = 15.7710716167764 | epot = -135.38637693405 | etot = -102.551914558111
226000  ekin = 16.7787690680764 |  erot = 15.7986947056439 | epot = -135.879311388113 | etot = -103.301847614393
227000  ekin = 16.463912634538 |  erot = 15.0990454188237 | epot = -136.352660528608 | etot = -104.789702475246
228000  ekin = 16.6277811962492 |  erot = 14.1044610323435 | epot = -136.763704119537 | etot = -106.031461890944
229000  ekin = 16.270302581487 |  erot = 14.1131098254062 | epot = -136.971116618175 | etot = -106.587704211282
230000  ekin = 16.2889568947664 |  erot = 13.542272603068 | epot = -136.891243624268 | etot = -107.060014126434
231000  ekin = 16.5868050722652 |  erot = 15.2600761973021 | epot = -136.529850670182 | etot = -104.682969400615
232000  ekin = 16.1288630231825 |  erot = 13.1674679001409 | epot = -135.937232830953 | etot = -106.64090190763
233000  ekin = 15.7857630558791 |  erot = 12.5300334624789 | epot = -135.216925627261 | etot = -106.901129108903
234000  ekin = 15.6125198960089 |  erot = 11.2806230486724 | epot = -134.434273419247 | etot = -107.541130474566
235000  ekin = 15.4569759849517 |  erot = 10.8081368630456 | epot = -133.869202645129 | etot = -107.604089797131
236000  ekin = 14.9820807386331 |  erot = 11.1823386784929 | epot = -133.297958923831 | etot = -107.133539506705
237000  ekin = 14.8216786424466 |  erot = 11.2471885188066 | epot = -132.595601448487 | etot = -106.526734287234
238000  ekin = 14.6706220188174 |  erot = 10.1140644021516 | epot = -132.065646431795 | etot = -107.280960010826
239000  ekin = 14.4348056512931 |  erot = 10.1432117067704 | epot = -131.917610583546 | etot = -107.339593225483
240000  ekin = 14.1316519601016 |  erot = 11.8496406962971 | epot = -132.004580752914 | etot = -106.023288096515
241000  ekin = 14.1719234313466 |  erot = 13.8094321611479 | epot = -132.248478579103 | etot = -104.267122986608
242000  ekin = 14.4067409199113 |  erot = 15.2208382789827 | epot = -132.237557462079 | etot = -102.609978263185
243000  ekin = 13.9001228129608 |  erot = 16.4885549233189 | epot = -132.327253958718 | etot = -101.938576222438
244000  ekin = 14.2124604518254 |  erot = 16.3580145393041 | epot = -133.265138084389 | etot = -102.694663093259
245000  ekin = 13.9391457137868 |  erot = 15.7114912432817 | epot = -134.162723777585 | etot = -104.512086820517
246000  ekin = 13.4634980405893 |  erot = 14.8529525187265 | epot = -134.759599084005 | etot = -106.443148524689
247000  ekin = 13.1394657389663 |  erot = 14.9809346189963 | epot = -135.270170814713 | etot = -107.14977045675
248000  ekin = 12.5974089965367 |  erot = 14.1968470998346 | epot = -135.720205164949 | etot = -108.925949068578
249000  ekin = 13.0079405446737 |  erot = 12.6478010567203 | epot = -135.976059745644 | etot = -110.32031814425
250000  ekin = 11.9665436270665 |  erot = 12.7394906885837 | epot = -135.911451138462 | etot = -111.205416822812
251000  ekin = 11.9761911331982 |  erot = 12.8355549179859 | epot = -135.648387424505 | etot = -110.836641373321
252000  ekin = 12.2240250409318 |  erot = 12.5494470999045 | epot = -135.429112694318 | etot = -110.655640553482
253000  ekin = 11.7586948220616 |  erot = 15.2823123339394 | epot = -135.224481555101 | etot = -108.1834743991
254000  ekin = 11.3311374059083 |  erot = 16.4795694427141 | epot = -135.040669148792 | etot = -107.22996230017
255000  ekin = 11.471231769472 |  erot = 16.8299610794708 | epot = -134.929906170188 | etot = -106.628713321245
256000  ekin = 11.2441754010408 |  erot = 14.2749475233363 | epot = -134.76558967984 | etot = -109.246466755463
257000  ekin = 11.273914355832 |  erot = 14.7441264905457 | epot = -134.63597018422 | etot = -108.617929337842
258000  ekin = 12.128649316714 |  erot = 12.3006544166916 | epot = -134.51238338776 | etot = -110.083079654355
259000  ekin = 12.4162486986459 |  erot = 11.8189831631872 | epot = -134.489054265492 | etot = -110.253822403659
260000  ekin = 12.8516754908381 |  erot = 11.497953565895 | epot = -134.553471186685 | etot = -110.203842129952
261000  ekin = 13.0343910888837 |  erot = 10.7691862375377 | epot = -134.729318840158 | etot = -110.925741513736
262000  ekin = 14.2874948463721 |  erot = 10.5582220873925 | epot = -134.990907586225 | etot = -110.145190652461
263000  ekin = 15.0019927116376 |  erot = 10.4048010965419 | epot = -135.379108178799 | etot = -109.972314370619
264000  ekin = 15.5826861643349 |  erot = 10.2546388876574 | epot = -135.848998441352 | etot = -110.01167338936
265000  ekin = 16.0874701006427 |  erot = 10.3511427583311 | epot = -136.380262211566 | etot = -109.941649352592
266000  ekin = 16.3003073067596 |  erot = 11.9373544401253 | epot = -137.009363532579 | etot = -108.771701785694
267000  ekin = 17.2219404130253 |  erot = 12.1424398852432 | epot = -137.561511974844 | etot = -108.197131676575
268000  ekin = 17.2009756929593 |  erot = 14.2660931214315 | epot = -138.134066507026 | etot = -106.666997692635
269000  ekin = 17.5332603165065 |  erot = 14.7566713792615 | epot = -138.587695425486 | etot = -106.297763729718
270000  ekin = 18.8972170404745 |  erot = 14.5838354068123 | epot = -138.68266462674 | etot = -105.201612179454
271000  ekin = 19.2798632826061 |  erot = 13.2959771096333 | epot = -138.517048226924 | etot = -105.941207834685
272000  ekin = 19.4328171307553 |  erot = 13.5758888534677 | epot = -138.17513356012 | etot = -105.166427575897
273000  ekin = 19.8597451581877 |  erot = 13.9959767402809 | epot = -137.648904040346 | etot = -103.793182141877
274000  ekin = 18.6820893610573 |  erot = 13.6482586162615 | epot = -136.938179869851 | etot = -104.607831892532
275000  ekin = 18.2660791421053 |  erot = 12.2609583978932 | epot = -136.164087116334 | etot = -105.637049576335
276000  ekin = 17.9004867505407 |  erot = 14.3974247752901 | epot = -135.325508183154 | etot = -103.027596657323
277000  ekin = 17.2269955060707 |  erot = 15.3022411244147 | epot = -134.486514748267 | etot = -101.957278117782
278000  ekin = 16.6892354000126 |  erot = 14.5893321464561 | epot = -133.733094918947 | etot = -102.454527372478
279000  ekin = 15.6192008320367 |  erot = 13.9737522271236 | epot = -133.065353125456 | etot = -103.472400066296
280000  ekin = 15.8029815632486 |  erot = 14.2001632540758 | epot = -132.421240721495 | etot = -102.41809590417
281000  ekin = 15.2607705885714 |  erot = 12.7607691318965 | epot = -132.022771567729 | etot = -104.001231847261
282000  ekin = 14.7197627172706 |  erot = 12.4260243382723 | epot = -131.782153922758 | etot = -104.636366867215
283000  ekin = 14.5696242094015 |  erot = 11.213371151963 | epot = -131.556720370679 | etot = -105.773725009314
284000  ekin = 14.2731206049614 |  erot = 12.8148966990646 | epot = -131.490239296031 | etot = -104.402221992005
285000  ekin = 14.2892073777173 |  erot = 15.322726695954 | epot = -131.681469234421 | etot = -102.06953516075
286000  ekin = 14.5295816614891 |  erot = 16.9482844272975 | epot = -131.994346482577 | etot = -100.51648039379
287000  ekin = 13.8119183806608 |  erot = 16.9734747395549 | epot = -132.26255120614 | etot = -101.477158085924
288000  ekin = 13.5104518538994 |  erot = 19.15601872209 | epot = -132.571143919699 | etot = -99.9046733437092
289000  ekin = 13.6879789079896 |  erot = 18.5577865527907 | epot = -132.871664328362 | etot = -100.625898867581
290000  ekin = 13.2976555696433 |  erot = 17.1112459528925 | epot = -133.02645983522 | etot = -102.617558312684
291000  ekin = 13.2211085618527 |  erot = 16.1729195781472 | epot = -133.185234708 | etot = -103.791206568
292000  ekin = 13.1947483461643 |  erot = 16.0723910787646 | epot = -133.433270238445 | etot = -104.166130813516
293000  ekin = 13.2996269037799 |  erot = 15.5125592618921 | epot = -133.745707778566 | etot = -104.933521612894
294000  ekin = 13.4921147160859 |  erot = 18.0876895403391 | epot = -133.943082964024 | etot = -102.363278707599
295000  ekin = 13.6001244303235 |  erot = 17.1026862565064 | epot = -134.076076149791 | etot = -103.373265462961
296000  ekin = 13.4976604407178 |  erot = 16.6010516378414 | epot = -134.210092447971 | etot = -104.111380369412
297000  ekin = 13.9415075561874 |  erot = 17.7972728397637 | epot = -134.247712961306 | etot = -102.508932565355
298000  ekin = 14.1780029375634 |  erot = 17.0511963270014 | epot = -134.168924033823 | etot = -102.939724769258
299000  ekin = 13.8361564139329 |  erot = 16.0669521975166 | epot = -134.068492310082 | etot = -104.165383698632
300000  ekin = 13.7326437681577 |  erot = 16.2729547114218 | epot = -133.890944289642 | etot = -103.885345810063
301000  ekin = 13.7141690556675 |  erot = 15.5483729893138 | epot = -133.599370882051 | etot = -104.33682883707
302000  ekin = 13.8016066958289 |  erot = 15.936856523607 | epot = -133.240558832336 | etot = -103.5020956129
303000  ekin = 14.3450581683325 |  erot = 14.3991837835363 | epot = -132.841355292688 | etot = -104.097113340819
304000  ekin = 14.0432433747207 |  erot = 12.2471441381921 | epot = -132.411991934279 | etot = -106.121604421366
305000  ekin = 13.7451663687168 |  erot = 11.8055396154173 | epot = -132.136089702987 | etot = -106.585383718852
306000  ekin = 13.8602855535103 |  erot = 11.2975987457346 | epot = -132.01332305383 | etot = -106.855438754585
307000  ekin = 14.3933488058418 |  erot = 11.4125898833739 | epot = -132.076988534469 | etot = -106.271049845253
308000  ekin = 14.5877929349634 |  erot = 13.7844635852125 | epot = -132.379943681766 | etot = -104.00768716159
309000  ekin = 14.6468860318721 |  erot = 12.8855238046447 | epot = -132.790482577119 | etot = -105.258072740602
310000  ekin = 15.392372494004 |  erot = 14.5395261933749 | epot = -133.139957738231 | etot = -103.208059050852
311000  ekin = 15.0800623659564 |  erot = 16.4619620929048 | epot = -133.366197656559 | etot = -101.824173197698
312000  ekin = 15.0612640553335 |  erot = 17.7716663024468 | epot = -133.463157250145 | etot = -100.630226892364
313000  ekin = 15.0496012548364 |  erot = 16.7171000278227 | epot = -133.572818737683 | etot = -101.806117455024
314000  ekin = 15.8034899506749 |  erot = 16.0925639210479 | epot = -133.470644690524 | etot = -101.574590818801
315000  ekin = 16.366489345922 |  erot = 15.8790190903233 | epot = -133.301536278224 | etot = -101.056027841979
316000  ekin = 16.8909929849972 |  erot = 15.9984636306728 | epot = -132.972647290534 | etot = -100.083190674864
317000  ekin = 17.785292167189 |  erot = 14.9039641317449 | epot = -132.500917675508 | etot = -99.8116613765746
318000  ekin = 17.5993880908146 |  erot = 14.6914071194506 | epot = -132.115571579264 | etot = -99.8247763689988
319000  ekin = 17.8599367754211 |  erot = 14.1353188496931 | epot = -131.708173655537 | etot = -99.712918030423
320000  ekin = 18.6581032066137 |  erot = 13.4331705144337 | epot = -131.273397749098 | etot = -99.1821240280507
321000  ekin = 19.1474562630728 |  erot = 12.1110703081368 | epot = -131.035243134479 | etot = -99.7767165632692
322000  ekin = 19.8508860282636 |  erot = 13.9599076713822 | epot = -131.017079844699 | etot = -97.2062861450529
323000  ekin = 20.3434128121834 |  erot = 14.5284558532583 | epot = -131.242060167605 | etot = -96.370191502163
324000  ekin = 21.6816363054614 |  erot = 11.6094198187815 | epot = -131.687828885057 | etot = -98.3967727608138
325000  ekin = 21.7556398119963 |  erot = 10.9492045533556 | epot = -132.111190356534 | etot = -99.406345991182
326000  ekin = 22.6473350093869 |  erot = 9.57702095551454 | epot = -132.448821068116 | etot = -100.224465103215
327000  ekin = 22.9547512120162 |  erot = 11.0621417409188 | epot = -132.862102217055 | etot = -98.8452092641196
328000  ekin = 23.5737808038549 |  erot = 12.6984438571557 | epot = -133.193143240814 | etot = -96.9209185798029
329000  ekin = 23.6352335154599 |  erot = 12.2956706764736 | epot = -133.395236559297 | etot = -97.4643323673633
330000  ekin = 23.8391520228329 |  erot = 12.0370047788423 | epot = -133.345382913248 | etot = -97.4692261115726
331000  ekin = 22.8959913619489 |  erot = 11.30846430113 | epot = -133.020506291975 | etot = -98.8160506288956
332000  ekin = 21.8204000909394 |  erot = 14.2756313662232 | epot = -132.689351486946 | etot = -96.5933200297831
333000  ekin = 21.0106478016265 |  erot = 13.1455024021325 | epot = -132.253491783917 | etot = -98.0973415801577
334000  ekin = 19.9217218385571 |  erot = 14.091018178305 | epot = -131.971215207996 | etot = -97.9584751911336
335000  ekin = 19.2873748500285 |  erot = 15.3215860418359 | epot = -131.85819529049 | etot = -97.2492343986257
336000  ekin = 18.7678345301193 |  erot = 16.4869510658781 | epot = -131.844352238269 | etot = -96.589566642272
337000  ekin = 17.6131282411972 |  erot = 20.227892880872 | epot = -132.091380721362 | etot = -94.2503595992928
338000  ekin = 16.5316565058049 |  erot = 20.19667842932 | epot = -132.359487287499 | etot = -95.631152352374
339000  ekin = 15.3093289418818 |  erot = 20.0585909980764 | epot = -132.598946045035 | etot = -97.2310261050771
340000  ekin = 15.1702759209444 |  erot = 19.0125223540299 | epot = -132.757880960711 | etot = -98.5750826857363
341000  ekin = 14.6984201961113 |  erot = 19.2973194359688 | epot = -132.768022329401 | etot = -98.7722826973214
342000  ekin = 14.419185060618 |  erot = 18.4871375877433 | epot = -132.715486658902 | etot = -99.8091640105411
343000  ekin = 14.2510678270355 |  erot = 17.8837836084501 | epot = -132.715877324812 | etot = -100.581025889327
344000  ekin = 14.3088347204905 |  erot = 18.3281706547507 | epot = -132.541230881633 | etot = -99.9042255063921
345000  ekin = 14.7729752840168 |  erot = 17.9928124874577 | epot = -132.203322556083 | etot = -99.4375347846084
346000  ekin = 14.4478987349512 |  erot = 14.8603324121466 | epot = -131.791226187862 | etot = -102.482995040764
347000  ekin = 14.9495411968808 |  erot = 15.0531306904129 | epot = -131.581664356582 | etot = -101.578992469288
348000  ekin = 14.9106344526996 |  erot = 16.3222170851953 | epot = -131.315204523293 | etot = -100.082352985399
349000  ekin = 15.5640705164731 |  erot = 16.6567998125757 | epot = -131.03580673161 | etot = -98.8149364025609
350000  ekin = 15.3525255344555 |  erot = 17.1589173845544 | epot = -130.684885383684 | etot = -98.1734424646738
351000  ekin = 15.5604423853952 |  erot = 14.7449001424502 | epot = -130.577479343389 | etot = -100.272136815543
352000  ekin = 16.0213916155565 |  erot = 12.9283234241451 | epot = -130.520782488219 | etot = -101.571067448518
353000  ekin = 16.2706611268026 |  erot = 13.2135527584764 | epot = -130.531272204218 | etot = -101.047058318939
354000  ekin = 16.7551971771748 |  erot = 13.6739898513455 | epot = -130.713465602543 | etot = -100.284278574022
355000  ekin = 16.8761517885112 |  erot = 13.3482375555154 | epot = -131.00169518562 | etot = -100.777305841594
356000  ekin = 17.6119715794083 |  erot = 13.1534547245203 | epot = -131.381977701561 | etot = -100.616551397633
357000  ekin = 17.9212807392641 |  erot = 14.278695302262 | epot = -131.779026398909 | etot = -99.5790503573828
358000  ekin = 18.7258104781707 |  erot = 16.7912517283134 | epot = -132.311439028535 | etot = -96.7943768220511
359000  ekin = 19.3732736670771 |  erot = 17.2739539863543 | epot = -132.879438461778 | etot = -96.2322108083466
360000  ekin = 19.6464373761355 |  erot = 16.0634856117012 | epot = -133.434958740234 | etot = -97.7250357523969
361000  ekin = 19.7822067135547 |  erot = 18.3661629834882 | epot = -133.446226940954 | etot = -95.2978572439108
362000  ekin = 19.2258029988226 |  erot = 17.5528372322332 | epot = -132.301193434443 | etot = -95.5225532033868
363000  ekin = 19.7930261365336 |  erot = 16.9646071251481 | epot = -131.995469208061 | etot = -95.2378359463791
364000  ekin = 20.6366833282949 |  erot = 18.9139523531674 | epot = -132.891077360108 | etot = -93.3404416786456
365000  ekin = 20.3689030819221 |  erot = 17.5903344904057 | epot = -132.578147300574 | etot = -94.6189097282457
366000  ekin = 19.6055112959891 |  erot = 15.9901011051967 | epot = -131.691955629683 | etot = -96.0963432284971
367000  ekin = 18.6692190631214 |  erot = 13.8437371590621 | epot = -130.921138953502 | etot = -98.4081827313182
368000  ekin = 18.219068783416 |  erot = 14.8529187740073 | epot = -130.504389467515 | etot = -97.4324019100922
369000  ekin = 17.7629678423308 |  erot = 12.4989887874946 | epot = -130.274191179522 | etot = -100.012234549696
370000  ekin = 17.0650223978097 |  erot = 13.5821596836016 | epot = -130.335687313643 | etot = -99.6885052322315
371000  ekin = 16.7913745722517 |  erot = 14.9629741940435 | epot = -130.32282870869 | etot = -98.5684799423952
372000  ekin = 17.2307270306248 |  erot = 12.9911617978282 | epot = -130.236933986417 | etot = -100.015045157964
373000  ekin = 17.0304402846253 |  erot = 13.2707537504999 | epot = -130.100796264889 | etot = -99.7996022297637
374000  ekin = 16.0415595056889 |  erot = 15.1803442269075 | epot = -129.972987311626 | etot = -98.7510835790299
375000  ekin = 15.8176192185438 |  erot = 16.9883413755264 | epot = -129.944912466272 | etot = -97.1389518722015
376000  ekin = 15.2903747494021 |  erot = 18.8068775560055 | epot = -129.965681757382 | etot = -95.8684294519739
377000  ekin = 14.995947034047 |  erot = 19.9472899539892 | epot = -129.829932831079 | etot = -94.8866958430433
378000  ekin = 14.2959318558334 |  erot = 18.7668035961228 | epot = -129.592844878311 | etot = -96.5301094263543
379000  ekin = 13.857355471346 |  erot = 17.5724093346652 | epot = -129.233821228828 | etot = -97.8040564228168
380000  ekin = 12.8275218506783 |  erot = 20.5046758847232 | epot = -128.789730014376 | etot = -95.4575322789749
381000  ekin = 12.735162884832 |  erot = 18.5613197500517 | epot = -128.390040910682 | etot = -97.0935582757987
382000  ekin = 12.2452890160443 |  erot = 20.564638156725 | epot = -128.030645015804 | etot = -95.2207178430346
383000  ekin = 12.1080018787289 |  erot = 20.1999409855048 | epot = -127.678397123719 | etot = -95.3704542594853
384000  ekin = 11.6435047444796 |  erot = 20.0195379904968 | epot = -127.335918040772 | etot = -95.6728753057953
385000  ekin = 11.6405112732186 |  erot = 19.0845996443496 | epot = -127.124973960441 | etot = -96.3998630428725
386000  ekin = 12.1338227535956 |  erot = 15.7029155804283 | epot = -127.099493323699 | etot = -99.2627549896752
387000  ekin = 12.4448216572665 |  erot = 15.9527401483909 | epot = -127.113713274559 | etot = -98.716151468902
388000  ekin = 12.5477526743772 |  erot = 15.7264339561621 | epot = -127.302269285959 | etot = -99.0280826554199
389000  ekin = 12.7365761628926 |  erot = 14.8999554020062 | epot = -127.586298095577 | etot = -99.9497665306781
390000  ekin = 13.2018526541373 |  erot = 15.5840879369083 | epot = -127.936145623289 | etot = -99.1502050322436
391000  ekin = 13.7630478535849 |  erot = 14.4376541638023 | epot = -128.303860720027 | etot = -100.103158702639
392000  ekin = 13.7713771450355 |  erot = 13.5356578275445 | epot = -128.58812747767 | etot = -101.28109250509
393000  ekin = 14.5177182396087 |  erot = 13.0863011788344 | epot = -128.867722321476 | etot = -101.263702903033
394000  ekin = 14.7950835380052 |  erot = 11.7665006681664 | epot = -129.02765872441 | etot = -102.466074518239
395000  ekin = 15.3250550913504 |  erot = 11.5930851190037 | epot = -129.381911781199 | etot = -102.463771570845
396000  ekin = 15.7274830034877 |  erot = 12.8428669141979 | epot = -129.670501062476 | etot = -101.100151144791
397000  ekin = 15.9336057344419 |  erot = 12.5423981572936 | epot = -129.882143644775 | etot = -101.40613975304
398000  ekin = 16.1902642375988 |  erot = 13.5464129112161 | epot = -129.92961516752 | etot = -100.192938018705
399000  ekin = 16.3325461362548 |  erot = 11.8125267837203 | epot = -129.86635331385 | etot = -101.721280393875
400000  ekin = 16.2371759156548 |  erot = 10.688472264068 | epot = -129.645266211183 | etot = -102.71961803146
401000  ekin = 15.9596433115687 |  erot = 10.7690637950704 | epot = -129.351599210472 | etot = -102.622892103833
402000  ekin = 15.8915589358765 |  erot = 11.8717442427545 | epot = -128.863730745308 | etot = -101.100427566677
403000  ekin = 16.1787980975133 |  erot = 11.9524066979189 | epot = -128.349870546345 | etot = -100.218665750913
404000  ekin = 16.2559042324474 |  erot = 11.7923315153145 | epot = -127.721941645185 | etot = -99.6737058974226
405000  ekin = 15.8297631258515 |  erot = 11.5147712902976 | epot = -127.044284217556 | etot = -99.6997498014074
406000  ekin = 15.5346343103188 |  erot = 10.5094970219731 | epot = -126.338765848855 | etot = -100.294634516563
407000  ekin = 14.7958112110859 |  erot = 11.3095257330351 | epot = -125.613350484068 | etot = -99.5080135399471
408000  ekin = 14.8624029878213 |  erot = 13.2220079279186 | epot = -124.727782956332 | etot = -96.6433720405917
409000  ekin = 13.6028613042818 |  erot = 13.9313059082655 | epot = -123.943236525651 | etot = -96.4090693131036
410000  ekin = 12.9391405676151 |  erot = 13.9083866084738 | epot = -123.698449973831 | etot = -96.8509227977424
411000  ekin = 12.9511911958114 |  erot = 13.2111133981956 | epot = -123.475848630892 | etot = -97.3135440368848
412000  ekin = 13.0102946149252 |  erot = 11.6293349705262 | epot = -123.312975165786 | etot = -98.6733455803344
413000  ekin = 13.7672328255849 |  erot = 12.3436014571232 | epot = -123.339406487652 | etot = -97.2285722049436
414000  ekin = 13.9282595375335 |  erot = 11.9157312379677 | epot = -123.568171704082 | etot = -97.7241809285804
415000  ekin = 14.2112002618673 |  erot = 12.6165381733728 | epot = -124.074734542967 | etot = -97.2469961077268
416000  ekin = 14.8471585259496 |  erot = 13.9090014073649 | epot = -124.918146496334 | etot = -96.1619865630192
417000  ekin = 15.1833698247616 |  erot = 15.2600269348037 | epot = -125.972782960942 | etot = -95.5293862013764
418000  ekin = 15.0116385331976 |  erot = 16.2202339191643 | epot = -127.001358515785 | etot = -95.7694860634236
419000  ekin = 15.946640481216 |  erot = 16.556706532663 | epot = -127.930826638016 | etot = -95.427479624137
420000  ekin = 17.0030755122275 |  erot = 13.8064387238821 | epot = -128.779917699183 | etot = -97.9704034630734
421000  ekin = 17.7076999173918 |  erot = 15.6607762389099 | epot = -129.712399115792 | etot = -96.3439229594902
422000  ekin = 19.0288893821844 |  erot = 16.9547249541364 | epot = -130.705406615431 | etot = -94.7217922791104
423000  ekin = 20.0928868467255 |  erot = 15.6791978827033 | epot = -131.512201888439 | etot = -95.7401171590101
424000  ekin = 21.2867782211336 |  erot = 14.7249077763209 | epot = -132.144270226839 | etot = -96.1325842293842
425000  ekin = 22.3046811399301 |  erot = 14.0135834881444 | epot = -132.584492965832 | etot = -96.2662283377575
426000  ekin = 22.6757260607186 |  erot = 14.0425771244452 | epot = -132.927022234245 | etot = -96.2087190490815
427000  ekin = 22.9114920469756 |  erot = 13.9187692374731 | epot = -133.17306480712 | etot = -96.3428035226713
428000  ekin = 22.8833836302245 |  erot = 13.3202826174428 | epot = -133.354420414982 | etot = -97.1507541673149
429000  ekin = 23.1759582261326 |  erot = 14.8508769700698 | epot = -133.395233600723 | etot = -95.3683984045205
430000  ekin = 22.7011135257097 |  erot = 14.3323835628523 | epot = -133.281782390496 | etot = -96.2482853019342
431000  ekin = 22.4860621542188 |  erot = 13.5830545588894 | epot = -133.063122899888 | etot = -96.9940061867801
432000  ekin = 20.9926376577681 |  erot = 13.3850499162301 | epot = -132.792306053964 | etot = -98.4146184799654
433000  ekin = 20.6601187297081 |  erot = 13.1353458539732 | epot = -132.632984905955 | etot = -98.8375203222734
434000  ekin = 19.7772364576386 |  erot = 12.5789641824799 | epot = -132.401261608975 | etot = -100.045060968857
435000  ekin = 18.9180523876104 |  erot = 14.9032013087131 | epot = -132.14719170047 | etot = -98.3259380041467
436000  ekin = 18.0157320272878 |  erot = 14.3516355778797 | epot = -131.928263980224 | etot = -99.5608963750566
437000  ekin = 16.8474929436859 |  erot = 12.7767873756002 | epot = -131.753136883159 | etot = -102.128856563873
438000  ekin = 16.4671541938377 |  erot = 14.4213750411729 | epot = -131.725759984879 | etot = -100.837230749868
439000  ekin = 15.9238388746797 |  erot = 15.4702902702385 | epot = -131.833740043839 | etot = -100.43961089892
440000  ekin = 14.9768489355124 |  erot = 17.3584161477327 | epot = -132.010161743274 | etot = -99.6748966600286
441000  ekin = 14.9478235464867 |  erot = 16.2706154773913 | epot = -132.172451698074 | etot = -100.954012674196
442000  ekin = 14.5971874348284 |  erot = 16.3914765923343 | epot = -132.387105996492 | etot = -101.39844196933
443000  ekin = 14.1938972260854 |  erot = 15.7500104224714 | epot = -132.637569125185 | etot = -102.693661476628
444000  ekin = 14.2106948400759 |  erot = 15.9261435937722 | epot = -132.804152949518 | etot = -102.66731451567
445000  ekin = 14.3504745217208 |  erot = 15.4757301980022 | epot = -132.870345661761 | etot = -103.044140942038
446000  ekin = 14.0762883104816 |  erot = 16.2756502679397 | epot = -132.828104290398 | etot = -102.476165711977
447000  ekin = 14.1069696622209 |  erot = 15.3943186838422 | epot = -132.926864854306 | etot = -103.425576508243
448000  ekin = 13.8424969286477 |  erot = 14.0768776395851 | epot = -133.07889196132 | etot = -105.159517393087
449000  ekin = 14.5602094831078 |  erot = 15.6501945950326 | epot = -132.967703020155 | etot = -102.757298942015
450000  ekin = 14.9711261701579 |  erot = 15.7868636107344 | epot = -132.757738590532 | etot = -101.999748809639
451000  ekin = 14.9520831349878 |  erot = 17.6569828498342 | epot = -132.602681277381 | etot = -99.9936152925592
452000  ekin = 14.9965092624441 |  erot = 17.742997702384 | epot = -132.3213447904 | etot = -99.581837825572
453000  ekin = 14.7863093929959 |  erot = 15.3601255964711 | epot = -131.845627968433 | etot = -101.699192978966
454000  ekin = 15.1253016175455 |  erot = 13.835767544551 | epot = -131.226853217639 | etot = -102.265784055542
455000  ekin = 14.3547689605291 |  erot = 15.0536928662401 | epot = -130.646123989566 | etot = -101.237662162797
456000  ekin = 14.7873663711511 |  erot = 14.6097887125708 | epot = -130.159036791418 | etot = -100.761881707696
457000  ekin = 14.4101192581538 |  erot = 14.371400529337 | epot = -129.80422976325 | etot = -101.022709975759
458000  ekin = 14.7794232424024 |  erot = 12.961786275671 | epot = -129.445895613438 | etot = -101.704686095364
459000  ekin = 14.905480731245 |  erot = 12.7036192262007 | epot = -129.120668125581 | etot = -101.511568168135
460000  ekin = 14.1935048188216 |  erot = 11.5773117937114 | epot = -128.824190440567 | etot = -103.053373828034
461000  ekin = 13.9073192104769 |  erot = 11.8465196019207 | epot = -128.567103523397 | etot = -102.813264710999
462000  ekin = 13.6040511794357 |  erot = 10.6529412012384 | epot = -128.498343339882 | etot = -104.241350959208
463000  ekin = 13.7949695250129 |  erot = 10.4405979877883 | epot = -128.633460244471 | etot = -104.39789273167
464000  ekin = 13.9363536682094 |  erot = 11.7923025500535 | epot = -128.950025580843 | etot = -103.22136936258
465000  ekin = 14.0315715317229 |  erot = 11.4183186979088 | epot = -129.399663695114 | etot = -103.949773465483
466000  ekin = 14.4802887283481 |  erot = 10.4358066575657 | epot = -129.863426573792 | etot = -104.947331187878
467000  ekin = 14.6854676893719 |  erot = 10.6584665341399 | epot = -130.272520868508 | etot = -104.928586644996
468000  ekin = 14.5469456942364 |  erot = 10.3055980169457 | epot = -130.575032240544 | etot = -105.722488529361
469000  ekin = 15.168157151144 |  erot = 11.507015709602 | epot = -130.888148525244 | etot = -104.212975664498
470000  ekin = 15.7011319290239 |  erot = 8.977646308534 | epot = -131.052840155166 | etot = -106.374061917608
471000  ekin = 15.8582623804226 |  erot = 10.1529587779977 | epot = -131.152653971397 | etot = -105.141432812977
472000  ekin = 16.0960791677601 |  erot = 10.7379394990764 | epot = -131.176700464405 | etot = -104.342681797569
473000  ekin = 16.2469673512857 |  erot = 12.0638689637426 | epot = -131.178252406718 | etot = -102.86741609169
474000  ekin = 16.9347610623616 |  erot = 13.201470118462 | epot = -131.1257886003 | etot = -100.989557419477
475000  ekin = 16.7328496952857 |  erot = 11.3426592811571 | epot = -131.071794155634 | etot = -102.996285179191
476000  ekin = 16.2366407965404 |  erot = 11.9441332898775 | epot = -131.097072928838 | etot = -102.91629884242
477000  ekin = 16.9351367402763 |  erot = 11.440591798362 | epot = -131.185160242912 | etot = -102.809431704274
478000  ekin = 16.6616408068105 |  erot = 13.9256317118027 | epot = -131.205504523652 | etot = -100.618232005039
479000  ekin = 16.0008851258034 |  erot = 12.9062911465348 | epot = -131.145780442706 | etot = -102.238604170368
480000  ekin = 16.153051360502 |  erot = 13.240187162759 | epot = -131.013990091124 | etot = -101.620751567863
481000  ekin = 15.6997128899876 |  erot = 11.8843332525322 | epot = -130.747154689635 | etot = -103.163108547116
482000  ekin = 15.461547294599 |  erot = 13.2334925131229 | epot = -130.409797459234 | etot = -101.714757651513
483000  ekin = 14.7289085221475 |  erot = 13.8000496019692 | epot = -130.027660388389 | etot = -101.498702264272
484000  ekin = 15.1136508570559 |  erot = 14.7539335670785 | epot = -129.477550930602 | etot = -99.6099665064671
485000  ekin = 14.9321228859757 |  erot = 13.8590042781607 | epot = -128.991380995111 | etot = -100.200253830975
486000  ekin = 14.7668438833204 |  erot = 12.7423551235166 | epot = -128.316975757481 | etot = -100.807776750645
487000  ekin = 14.1678900372468 |  erot = 13.0635828461302 | epot = -127.077452878479 | etot = -99.8459799951017
488000  ekin = 14.8255095560756 |  erot = 11.2316156944368 | epot = -127.051028068959 | etot = -100.993902818447
489000  ekin = 16.3879092432496 |  erot = 11.2815960546274 | epot = -128.026161431286 | etot = -100.356656133409
490000  ekin = 16.959663291994 |  erot = 10.2078247857106 | epot = -128.333865657079 | etot = -101.166377579374
491000  ekin = 17.0348672433699 |  erot = 9.25556052315784 | epot = -128.227912452425 | etot = -101.937484685897
492000  ekin = 17.3483211459634 |  erot = 11.4154185591411 | epot = -128.342672201381 | etot = -99.5789324962765
493000  ekin = 17.2348576252696 |  erot = 12.5648739147125 | epot = -128.479394212831 | etot = -98.6796626728493
494000  ekin = 17.3038003727757 |  erot = 11.5672074462369 | epot = -128.660368070501 | etot = -99.7893602514889
495000  ekin = 17.1258919991972 |  erot = 10.7494061195242 | epot = -128.839810873842 | etot = -100.964512755121
496000  ekin = 17.318497765135 |  erot = 10.2788570970333 | epot = -129.065072827865 | etot = -101.467717965696
497000  ekin = 16.6874850161065 |  erot = 10.4744793096002 | epot = -129.221329775903 | etot = -102.059365450196
498000  ekin = 16.3405856180467 |  erot = 11.3228301656308 | epot = -129.433591069646 | etot = -101.770175285969
499000  ekin = 16.7128261882854 |  erot = 13.7857259990512 | epot = -129.662041831932 | etot = -99.1634896445952
500000  ekin = 16.9053910911621 |  erot = 13.0780218271034 | epot = -129.878668968014 | etot = -99.8952560497487
501000  ekin = 17.0172390257773 |  erot = 14.4629157974909 | epot = -130.073458906796 | etot = -98.5933040835274
502000  ekin = 17.1282261586988 |  erot = 14.9539774859395 | epot = -130.221972157653 | etot = -98.139768513015
503000  ekin = 17.5546036332384 |  erot = 14.0883470413025 | epot = -130.278172755496 | etot = -98.6352220809554
504000  ekin = 17.7985001597182 |  erot = 14.3816843432498 | epot = -130.048618111128 | etot = -97.8684336081601
505000  ekin = 18.5307913625694 |  erot = 12.7305066490212 | epot = -129.690487363962 | etot = -98.4291893523712
506000  ekin = 18.4661491726515 |  erot = 12.0237334573043 | epot = -129.398673769567 | etot = -98.908791139611
507000  ekin = 18.8565072195484 |  erot = 11.6213689291001 | epot = -129.173042833474 | etot = -98.6951666848255
508000  ekin = 18.3032025118119 |  erot = 12.724843938206 | epot = -128.981326874503 | etot = -97.9532804244849
509000  ekin = 18.6502737002307 |  erot = 14.0272268632987 | epot = -128.895304531304 | etot = -96.2178039677745
510000  ekin = 18.0277632428527 |  erot = 13.4299302877474 | epot = -128.922916440059 | etot = -97.4652229094587
511000  ekin = 17.5260110563993 |  erot = 13.8282341255303 | epot = -128.903349958923 | etot = -97.5491047769936
512000  ekin = 17.5517145472481 |  erot = 13.3745126006227 | epot = -128.752491335774 | etot = -97.8262641879036
513000  ekin = 17.1517712141475 |  erot = 14.4018924631723 | epot = -128.640382924002 | etot = -97.0867192466822
514000  ekin = 17.1581698605642 |  erot = 15.1222296324458 | epot = -128.708034248345 | etot = -96.4276347553345
515000  ekin = 15.8051374112764 |  erot = 16.1563790359802 | epot = -128.850754192543 | etot = -96.8892377452867
516000  ekin = 16.5271623960638 |  erot = 18.5505467406792 | epot = -128.839438973065 | etot = -93.7617298363215
517000  ekin = 16.4868139127013 |  erot = 17.8014401654955 | epot = -128.74253830514 | etot = -94.4542842269433
518000  ekin = 16.1006166424232 |  erot = 17.5543821079202 | epot = -128.636126775695 | etot = -94.9811280253518
519000  ekin = 15.1704632807069 |  erot = 15.8604600527579 | epot = -128.481628515987 | etot = -97.4507051825225
520000  ekin = 14.6622666235346 |  erot = 15.5338712986971 | epot = -128.255685868565 | etot = -98.0595479463329
521000  ekin = 14.3504805791432 |  erot = 15.6899297514092 | epot = -128.075540396984 | etot = -98.0351300664311
522000  ekin = 15.0477672454033 |  erot = 15.2642093540337 | epot = -127.956172830119 | etot = -97.6441962306822
523000  ekin = 14.767767681747 |  erot = 13.5814717851208 | epot = -127.539779507626 | etot = -99.1905400407585
524000  ekin = 14.6069196455603 |  erot = 14.0177887916875 | epot = -126.88932478628 | etot = -98.2646163490319
525000  ekin = 14.081308023724 |  erot = 15.3056367474803 | epot = -127.428384894989 | etot = -98.0414401237848
526000  ekin = 14.3879654378154 |  erot = 15.628104596299 | epot = -128.290587621559 | etot = -98.2745175874442
527000  ekin = 15.0091258995447 |  erot = 14.9442651630367 | epot = -128.322770264793 | etot = -98.3693792022119
528000  ekin = 15.1924000588665 |  erot = 15.1405044413986 | epot = -128.275488437959 | etot = -97.9425839376937
529000  ekin = 14.7608909739065 |  erot = 15.3127643348495 | epot = -128.247700144926 | etot = -98.1740448361703
530000  ekin = 15.3870586818276 |  erot = 17.9585974777292 | epot = -128.291764568292 | etot = -94.9461084087352
531000  ekin = 15.8046429679375 |  erot = 16.7231918317401 | epot = -128.52991188429 | etot = -96.0020770846121
532000  ekin = 15.918762785565 |  erot = 16.3467928267805 | epot = -129.051901123749 | etot = -96.7863455114031
533000  ekin = 16.2642911492058 |  erot = 16.5689918544283 | epot = -129.745297141318 | etot = -96.9120141376836
534000  ekin = 15.7517561484693 |  erot = 18.8923343381611 | epot = -130.719587510081 | etot = -96.0754970234509
535000  ekin = 15.8908651165416 |  erot = 19.6077755379398 | epot = -131.691278516183 | etot = -96.1926378617015
536000  ekin = 15.657422720842 |  erot = 19.6944676458463 | epot = -132.625422408951 | etot = -97.2735320422625
537000  ekin = 16.0881374426079 |  erot = 20.4410414617136 | epot = -133.669156764979 | etot = -97.1399778606577
538000  ekin = 15.9042666213089 |  erot = 21.6016620321202 | epot = -134.68322491116 | etot = -97.1772962577309
539000  ekin = 15.9378287613458 |  erot = 21.4872325025689 | epot = -135.446877093373 | etot = -98.0218158294586
540000  ekin = 15.6112840095225 |  erot = 21.4497699911127 | epot = -135.957890823285 | etot = -98.8968368226501
541000  ekin = 15.9288741786483 |  erot = 19.8309966465166 | epot = -136.120934942516 | etot = -100.361064117351
542000  ekin = 16.1419860736591 |  erot = 17.9479523532218 | epot = -135.988037745877 | etot = -101.898099318996
543000  ekin = 15.1824354162597 |  erot = 16.8517890600258 | epot = -135.718162913889 | etot = -103.683938437604
544000  ekin = 15.1827135168603 |  erot = 15.0048696624577 | epot = -135.530755245336 | etot = -105.343172066018
545000  ekin = 15.2741156854232 |  erot = 15.8309704071885 | epot = -135.335682223801 | etot = -104.230596131189
546000  ekin = 15.3924194729537 |  erot = 14.2326619353906 | epot = -135.146089024587 | etot = -105.521007616243
547000  ekin = 15.5751107564637 |  erot = 13.9850378083498 | epot = -134.926334665874 | etot = -105.366186101061
548000  ekin = 15.6139233872879 |  erot = 15.2105492461662 | epot = -134.785867443372 | etot = -103.961394809917
549000  ekin = 15.9319687156595 |  erot = 15.5397222622966 | epot = -134.796303225495 | etot = -103.324612247539
550000  ekin = 16.234796236126 |  erot = 15.7998070510281 | epot = -134.850172284878 | etot = -102.815568997724
551000  ekin = 16.3550656020587 |  erot = 16.6976335106374 | epot = -134.834096493945 | etot = -101.781397381248
552000  ekin = 16.7982250295082 |  erot = 16.4108095890454 | epot = -134.741291181816 | etot = -101.532256563263
553000  ekin = 16.6471135162259 |  erot = 15.2737640610373 | epot = -134.450617410391 | etot = -102.529739833128
554000  ekin = 16.3112091588779 |  erot = 15.8022473729795 | epot = -134.007855613491 | etot = -101.894399081633
555000  ekin = 15.7348233908133 |  erot = 15.5059388504751 | epot = -133.433578685387 | etot = -102.192816444099
556000  ekin = 15.4281960559873 |  erot = 16.9241016935445 | epot = -133.073663452995 | etot = -100.721365703463
557000  ekin = 14.7744254644961 |  erot = 16.8791586531569 | epot = -133.076161177793 | etot = -101.42257706014
558000  ekin = 14.3343095894577 |  erot = 17.4876123230497 | epot = -132.797942898459 | etot = -100.976020985951
559000  ekin = 14.4150967544258 |  erot = 17.0562125021645 | epot = -132.359702332896 | etot = -100.888393076306
560000  ekin = 14.2886839234454 |  erot = 15.3656565141194 | epot = -131.965932895964 | etot = -102.311592458399
561000  ekin = 14.4055433812606 |  erot = 14.49600350596 | epot = -131.509933125069 | etot = -102.608386237849
562000  ekin = 13.8753316850914 |  erot = 16.0129944792554 | epot = -131.36607800742 | etot = -101.477751843073
563000  ekin = 14.3166497861359 |  erot = 15.6497012412811 | epot = -131.389436334525 | etot = -101.423085307108
564000  ekin = 14.9444351561269 |  erot = 14.8671616481941 | epot = -131.509916958159 | etot = -101.698320153838
565000  ekin = 14.9840128733637 |  erot = 14.7409927208675 | epot = -131.690758822109 | etot = -101.965753227878
566000  ekin = 14.6433599870639 |  erot = 13.7649316156739 | epot = -131.839622590928 | etot = -103.43133098819
567000  ekin = 14.8198853756067 |  erot = 12.1213853551919 | epot = -132.041023188438 | etot = -105.099752457639
568000  ekin = 14.5868002517378 |  erot = 12.9304551056786 | epot = -132.179975682384 | etot = -104.662720324968
569000  ekin = 14.4021331261604 |  erot = 12.4240110720475 | epot = -132.286232960564 | etot = -105.460088762356
570000  ekin = 13.7778229675881 |  erot = 11.6082627883511 | epot = -132.33298375932 | etot = -106.94689800338
571000  ekin = 13.9648715298097 |  erot = 11.3524654271521 | epot = -132.363295531801 | etot = -107.045958574839
572000  ekin = 13.8107293610983 |  erot = 13.8613894066824 | epot = -132.331162117028 | etot = -104.659043349247
573000  ekin = 13.9371184623306 |  erot = 12.2414755746739 | epot = -132.193123149789 | etot = -106.014529112784
574000  ekin = 13.4323120702288 |  erot = 12.830383211662 | epot = -132.070898945157 | etot = -105.808203663267
575000  ekin = 14.2619757827425 |  erot = 12.4019752034107 | epot = -131.904315635128 | etot = -105.240364648975
576000  ekin = 14.3013943500202 |  erot = 13.1130761591535 | epot = -131.651722356672 | etot = -104.237251847498
577000  ekin = 13.8761533925322 |  erot = 11.5775193912968 | epot = -131.354888112826 | etot = -105.901215328997
578000  ekin = 12.9607997314117 |  erot = 11.474611691305 | epot = -130.997933169007 | etot = -106.56252174629
579000  ekin = 12.6094040635563 |  erot = 11.503345002677 | epot = -130.579175616204 | etot = -106.466426549971
580000  ekin = 11.8222758511646 |  erot = 11.3314724877752 | epot = -130.044918816031 | etot = -106.891170477091
581000  ekin = 11.5623099891038 |  erot = 11.5204236717994 | epot = -129.459203984987 | etot = -106.376470324083
582000  ekin = 11.0908793705015 |  erot = 10.6909997165271 | epot = -128.99217590891 | etot = -107.210296821882
583000  ekin = 10.0357308165672 |  erot = 10.9504193493993 | epot = -128.761952459723 | etot = -107.775802293756
584000  ekin = 9.96979580895644 |  erot = 9.87641882825156 | epot = -128.739676965292 | etot = -108.893462328084
585000  ekin = 10.3714607356325 |  erot = 10.9356679379603 | epot = -128.965365875863 | etot = -107.65823720227
586000  ekin = 10.4116016162334 |  erot = 10.2113529207472 | epot = -129.368180678409 | etot = -108.745226141428
587000  ekin = 10.237089300975 |  erot = 11.7541762306805 | epot = -129.776818849233 | etot = -107.785553317577
588000  ekin = 11.1220742099154 |  erot = 11.0556200106363 | epot = -130.220508468425 | etot = -108.042814247874
589000  ekin = 11.0340592312317 |  erot = 11.7512538500335 | epot = -130.620979376897 | etot = -107.835666295632
590000  ekin = 10.9311472445812 |  erot = 10.8194747946168 | epot = -130.907016299035 | etot = -109.156394259837
591000  ekin = 10.8163024481065 |  erot = 11.9185941116031 | epot = -130.678625125208 | etot = -107.943728565498
592000  ekin = 10.2172937646583 |  erot = 12.6790802107598 | epot = -130.919975024198 | etot = -108.023601048779
593000  ekin = 10.2938420054994 |  erot = 12.9983490935077 | epot = -131.559728955501 | etot = -108.267537856494
594000  ekin = 10.461577369823 |  erot = 11.856264304853 | epot = -131.741951596953 | etot = -109.424109922277
595000  ekin = 11.056901905874 |  erot = 13.1301785758932 | epot = -131.890307818448 | etot = -107.703227336681
596000  ekin = 11.0132919720099 |  erot = 13.9466596433744 | epot = -132.089150727953 | etot = -107.129199112568
597000  ekin = 10.8378272336451 |  erot = 14.3090562620938 | epot = -132.10967433948 | etot = -106.962790843741
598000  ekin = 11.1396964341323 |  erot = 15.2201613294321 | epot = -132.110967353142 | etot = -105.751109589577
599000  ekin = 11.4366693174268 |  erot = 15.9290474447925 | epot = -132.179576664893 | etot = -104.813859902674
600000  ekin = 11.853069506235 |  erot = 16.6980554217788 | epot = -132.413213746698 | etot = -103.862088818684
601000  ekin = 11.3731393014526 |  erot = 16.8988693116771 | epot = -132.603665782831 | etot = -104.331657169701
602000  ekin = 11.6288846916753 |  erot = 17.3084169077548 | epot = -132.790978516308 | etot = -103.853676916878
603000  ekin = 11.7283808351674 |  erot = 15.8876229233384 | epot = -132.845370173479 | etot = -105.229366414973
604000  ekin = 11.44401932352 |  erot = 16.4551108016216 | epot = -132.758081124222 | etot = -104.858950999081
605000  ekin = 11.7633043618998 |  erot = 15.1811098330878 | epot = -132.421221692429 | etot = -105.476807497441
606000  ekin = 12.1214438326343 |  erot = 13.102235854812 | epot = -131.857167552501 | etot = -106.633487865055
607000  ekin = 12.2353560435281 |  erot = 12.9094585695507 | epot = -131.029223534431 | etot = -105.884408921352
608000  ekin = 13.0019096138754 |  erot = 12.6971647076221 | epot = -130.064319041703 | etot = -104.365244720205
609000  ekin = 12.8925710430578 |  erot = 12.2805351934011 | epot = -129.204447610614 | etot = -104.031341374155
610000  ekin = 13.0900707944407 |  erot = 12.0421993054041 | epot = -128.472375430258 | etot = -103.340105330413
611000  ekin = 13.1247948731074 |  erot = 13.1256764839786 | epot = -127.822619969903 | etot = -101.572148612818
612000  ekin = 13.3183191664132 |  erot = 12.96389541794 | epot = -127.296224301128 | etot = -101.014009716775
613000  ekin = 13.9769629953256 |  erot = 11.2865295624435 | epot = -127.055718105206 | etot = -101.792225547436
614000  ekin = 14.3890395543953 |  erot = 9.9248812934263 | epot = -127.074730201449 | etot = -102.760809353627
615000  ekin = 14.6567050561459 |  erot = 9.95992749791948 | epot = -127.478583088677 | etot = -102.861950534611
616000  ekin = 15.2016814148893 |  erot = 9.73164395406493 | epot = -128.043934938619 | etot = -103.110609569665
617000  ekin = 16.0807025297027 |  erot = 9.98598225137266 | epot = -128.723798364128 | etot = -102.657113583052
618000  ekin = 17.1570301245589 |  erot = 10.7358136674337 | epot = -129.417791581699 | etot = -101.524947789706
619000  ekin = 18.2645203968826 |  erot = 9.8387819670336 | epot = -130.058651014826 | etot = -101.95534865091
620000  ekin = 18.2329353345973 |  erot = 10.6434570665445 | epot = -130.794480704669 | etot = -101.918088303528
621000  ekin = 19.0631853488392 |  erot = 11.0524598837306 | epot = -131.52467427776 | etot = -101.40902904519
622000  ekin = 19.0814697452848 |  erot = 9.78841080836808 | epot = -131.948328552335 | etot = -103.078447998682
623000  ekin = 19.6689115793648 |  erot = 10.1108317760386 | epot = -132.182115057445 | etot = -102.402371702042
624000  ekin = 20.1424435622364 |  erot = 9.65005263120131 | epot = -132.29920261852 | etot = -102.506706425083
625000  ekin = 20.1789761692576 |  erot = 9.23340661934284 | epot = -132.290886616266 | etot = -102.878503827665
626000  ekin = 19.8331329644991 |  erot = 9.3446297079685 | epot = -132.226747350546 | etot = -103.048984678079
627000  ekin = 19.7699917865906 |  erot = 10.2063458557855 | epot = -132.017759980705 | etot = -102.041422338329
628000  ekin = 18.882283265158 |  erot = 11.0882601804713 | epot = -131.239811992474 | etot = -101.269268546845
629000  ekin = 17.8242062169103 |  erot = 11.1109911962111 | epot = -130.767645094112 | etot = -101.832447680991
630000  ekin = 17.3117221567737 |  erot = 12.3442278894691 | epot = -130.769105668562 | etot = -101.113155622319
631000  ekin = 16.6822887154981 |  erot = 12.2752035787203 | epot = -130.265480905641 | etot = -101.307988611422
632000  ekin = 15.9183023976893 |  erot = 12.1344670714203 | epot = -129.709637897154 | etot = -101.656868428045
633000  ekin = 15.8222932056193 |  erot = 12.1446443747701 | epot = -129.264109348895 | etot = -101.297171768506
634000  ekin = 15.5294990051235 |  erot = 12.7487113053321 | epot = -128.880873430724 | etot = -100.602663120268
635000  ekin = 14.9379626100724 |  erot = 10.4365299701931 | epot = -128.516843327075 | etot = -103.14235074681
636000  ekin = 14.2852533918016 |  erot = 11.0630154584387 | epot = -128.345040012588 | etot = -102.996771162348
637000  ekin = 14.4078244478272 |  erot = 11.3085354080839 | epot = -128.340632215988 | etot = -102.624272360077
638000  ekin = 14.7529412454464 |  erot = 14.1213788652934 | epot = -128.390352919974 | etot = -99.5160328092347
639000  ekin = 14.043316889061 |  erot = 14.9971425784089 | epot = -128.430633485756 | etot = -99.3901740182862
640000  ekin = 14.6298336226098 |  erot = 15.9727938774897 | epot = -128.496604272929 | etot = -97.8939767728293
641000  ekin = 15.3122061230573 |  erot = 14.4774681815629 | epot = -128.621986682022 | etot = -98.8323123774021
642000  ekin = 15.2890375006629 |  erot = 14.9559327924486 | epot = -128.670108235029 | etot = -98.4251379419172
643000  ekin = 15.5837329334813 |  erot = 12.7894488254017 | epot = -128.794257348761 | etot = -100.421075589878
644000  ekin = 15.6301920123022 |  erot = 12.7652946748823 | epot = -128.920720014312 | etot = -100.525233327127
645000  ekin = 16.3030902027485 |  erot = 14.0541414816075 | epot = -129.049082733824 | etot = -98.6918510494677
646000  ekin = 16.387120508912 |  erot = 12.9699759961764 | epot = -129.005812913628 | etot = -99.6487164085396
647000  ekin = 16.7825340632155 |  erot = 12.4375474757415 | epot = -128.955788501865 | etot = -99.7357069629082
648000  ekin = 17.0345267264513 |  erot = 11.498688698786 | epot = -129.004379745517 | etot = -100.47116432028
649000  ekin = 16.9014474492138 |  erot = 10.7890889406651 | epot = -129.260191565824 | etot = -101.569655175945
650000  ekin = 16.8382079727115 |  erot = 11.8050330618057 | epot = -129.589908653889 | etot = -100.946667619371
651000  ekin = 17.4628898229135 |  erot = 12.660223006772 | epot = -130.068881730979 | etot = -99.945768901294
652000  ekin = 17.4703226613751 |  erot = 13.5606875051042 | epot = -130.491175025567 | etot = -99.4601648590877
653000  ekin = 18.1727773843547 |  erot = 12.9136750169098 | epot = -130.851123572071 | etot = -99.764671170807
[...]
838000  ekin = 9.22678257596562 |  erot = 11.7950777786698 | epot = -135.309708937396 | etot = -114.287848582761
839000  ekin = 9.31364044689879 |  erot = 9.19117521815819 | epot = -135.224645715934 | etot = -116.719830050877
840000  ekin = 9.95651666063242 |  erot = 10.2562033846855 | epot = -135.050789715828 | etot = -114.83806967051
841000  ekin = 10.1329136337983 |  erot = 11.1215377358375 | epot = -134.844846156174 | etot = -113.590394786538
842000  ekin = 9.81306935601066 |  erot = 11.8450714037862 | epot = -134.621170352062 | etot = -112.963029592265
843000  ekin = 9.6014172601031 |  erot = 11.5647290918967 | epot = -134.324999225728 | etot = -113.158852873729
844000  ekin = 9.87980157515639 |  erot = 12.3554353870616 | epot = -134.065834194652 | etot = -111.830597232434
845000  ekin = 9.93780379927978 |  erot = 12.0090921548411 | epot = -133.814970563149 | etot = -111.868074609028
846000  ekin = 10.4775554235282 |  erot = 12.1654574191588 | epot = -133.472543158636 | etot = -110.829530315949
847000  ekin = 10.0026611797418 |  erot = 11.6213808792176 | epot = -133.066600825389 | etot = -111.44255876643
848000  ekin = 10.5520984068296 |  erot = 11.6099997320351 | epot = -132.780981683409 | etot = -110.618883544544
849000  ekin = 10.7448279920532 |  erot = 11.4890837546211 | epot = -132.676110820266 | etot = -110.442199073591
850000  ekin = 10.8113038660881 |  erot = 10.9488089735479 | epot = -132.895254583106 | etot = -111.13514174347
851000  ekin = 11.2511239289073 |  erot = 11.8929283018388 | epot = -133.389075417486 | etot = -110.24502318674
852000  ekin = 11.044204555781 |  erot = 12.4402386301468 | epot = -134.143640073191 | etot = -110.659196887264
853000  ekin = 11.7246156001573 |  erot = 14.7235683156687 | epot = -135.052215505121 | etot = -108.604031589295
854000  ekin = 11.8684738498269 |  erot = 16.8582257926897 | epot = -136.115564410014 | etot = -107.388864767497
855000  ekin = 12.0538531934163 |  erot = 16.4968100795581 | epot = -137.007305545871 | etot = -108.456642272897
856000  ekin = 11.8401943131307 |  erot = 17.2853860946902 | epot = -137.587232095186 | etot = -108.461651687365
857000  ekin = 11.599621890787 |  erot = 16.4784196407965 | epot = -137.876240736872 | etot = -109.798199205288
858000  ekin = 10.5710249607862 |  erot = 17.774578899555 | epot = -137.72393299091 | etot = -109.378329130569
859000  ekin = 10.4697302561029 |  erot = 17.597107441915 | epot = -137.270423002965 | etot = -109.203585304947
860000  ekin = 10.1406561107331 |  erot = 15.3180480162168 | epot = -136.644343040593 | etot = -111.185638913643
861000  ekin = 9.65715456935708 |  erot = 15.5614532259773 | epot = -135.848542830414 | etot = -110.62993503508
862000  ekin = 9.85528367938723 |  erot = 15.4449729727622 | epot = -134.939823071984 | etot = -109.639566419835
863000  ekin = 9.69076776402144 |  erot = 13.8617702176826 | epot = -134.057449790282 | etot = -110.504911808578
864000  ekin = 9.83691178944935 |  erot = 14.4145092716249 | epot = -133.22233410367 | etot = -108.970913042596
865000  ekin = 9.70884152940973 |  erot = 14.4808352209294 | epot = -132.563697713287 | etot = -108.374020962948
866000  ekin = 9.11283566820104 |  erot = 14.5204631481052 | epot = -131.937901154687 | etot = -108.304602338381
867000  ekin = 9.2135658001457 |  erot = 15.2722616926324 | epot = -131.396165375322 | etot = -106.910337882544
868000  ekin = 9.07317508153068 |  erot = 15.2281990898813 | epot = -131.118523212643 | etot = -106.817149041231
869000  ekin = 9.56719467261706 |  erot = 12.8413524494189 | epot = -131.01323487078 | etot = -108.604687748744
870000  ekin = 9.72249968111539 |  erot = 13.7134538695638 | epot = -131.218120667046 | etot = -107.782167116366
871000  ekin = 9.85996645893833 |  erot = 13.6635792026521 | epot = -131.558103225477 | etot = -108.034557563886
872000  ekin = 10.4752428180374 |  erot = 11.8752328723624 | epot = -131.888428620607 | etot = -109.537952930207
873000  ekin = 10.8938008841087 |  erot = 12.8115939555363 | epot = -132.291734739806 | etot = -108.58633990016
874000  ekin = 10.8667098405276 |  erot = 12.7998561629061 | epot = -132.641951772155 | etot = -108.975385768721
875000  ekin = 11.5409462432229 |  erot = 12.4790882752089 | epot = -132.897239389184 | etot = -108.877204870753
876000  ekin = 12.2883954932043 |  erot = 10.1693017030717 | epot = -133.13826440665 | etot = -110.680567210374
877000  ekin = 11.9868365460025 |  erot = 11.1973354913962 | epot = -133.277164876379 | etot = -110.092992838981
878000  ekin = 11.7960623014163 |  erot = 11.5665973071625 | epot = -133.204556406453 | etot = -109.841896797874
879000  ekin = 11.3794101440003 |  erot = 12.3887904161458 | epot = -133.070672059809 | etot = -109.302471499663
880000  ekin = 10.7473007273139 |  erot = 12.155950661048 | epot = -132.937567335563 | etot = -110.034315947201
881000  ekin = 11.0382243859572 |  erot = 11.3700738104817 | epot = -132.69132443217 | etot = -110.283026235731
882000  ekin = 11.0268715692644 |  erot = 11.2476396846495 | epot = -132.362248590805 | etot = -110.087737336891
883000  ekin = 11.0960831022765 |  erot = 12.1675015631156 | epot = -132.006051221569 | etot = -108.742466556177
884000  ekin = 10.4356706372254 |  erot = 14.3790792419536 | epot = -131.703683205292 | etot = -106.888933326113
885000  ekin = 10.1809074114291 |  erot = 12.6512885344041 | epot = -131.510977940224 | etot = -108.678781994391
886000  ekin = 9.88536804636765 |  erot = 14.3207405049851 | epot = -131.378147411038 | etot = -107.172038859686
887000  ekin = 9.62079843372949 |  erot = 15.0371337320698 | epot = -131.400485267651 | etot = -106.742553101851
888000  ekin = 9.73389413938928 |  erot = 15.1710263384175 | epot = -131.650272106319 | etot = -106.745351628512
889000  ekin = 9.34497189726216 |  erot = 17.4864380141716 | epot = -132.135997200666 | etot = -105.304587289232
890000  ekin = 9.50892312765913 |  erot = 17.8223441845159 | epot = -132.732936870751 | etot = -105.401669558576
891000  ekin = 9.34170617038541 |  erot = 20.6177451138689 | epot = -133.434405161174 | etot = -103.47495387692
892000  ekin = 9.22652718687059 |  erot = 22.2205451959243 | epot = -134.045766158437 | etot = -102.598693775642
893000  ekin = 9.51353526251288 |  erot = 21.3492467917455 | epot = -134.582423327744 | etot = -103.719641273486
894000  ekin = 9.68540627216124 |  erot = 20.7203124322274 | epot = -134.963692741512 | etot = -104.557974037123
895000  ekin = 9.95671082160135 |  erot = 20.8661564008034 | epot = -135.108391715319 | etot = -104.285524492914
896000  ekin = 9.25648303222798 |  erot = 18.4512526441791 | epot = -135.123937491507 | etot = -107.4162018151
897000  ekin = 9.53459318473638 |  erot = 19.0120970545174 | epot = -134.990076473698 | etot = -106.443386234444
898000  ekin = 9.77485480011757 |  erot = 21.0086049051177 | epot = -134.565691552272 | etot = -103.782231847037
899000  ekin = 10.4975912485659 |  erot = 21.3211384106303 | epot = -134.121541482168 | etot = -102.302811822972
900000  ekin = 10.7040034570073 |  erot = 20.7049887334994 | epot = -133.718651895895 | etot = -102.309659705389
901000  ekin = 11.3149377516008 |  erot = 18.3638364663083 | epot = -133.36706652203 | etot = -103.688292304121
902000  ekin = 11.0832893000046 |  erot = 21.0463442003965 | epot = -133.101677545994 | etot = -100.972044045593
903000  ekin = 10.8652645352773 |  erot = 17.5135253954939 | epot = -132.746316141513 | etot = -104.367526210742
904000  ekin = 10.9199231545732 |  erot = 16.5086841323364 | epot = -132.400898639401 | etot = -104.972291352492
905000  ekin = 11.8265529183729 |  erot = 14.2338803732188 | epot = -132.222926764547 | etot = -106.162493472955
906000  ekin = 12.1112443730427 |  erot = 13.9046851351739 | epot = -132.108887856991 | etot = -106.092958348775
907000  ekin = 12.7249921890105 |  erot = 14.8976247467494 | epot = -131.902848545294 | etot = -104.280231609534
908000  ekin = 13.6491269150615 |  erot = 13.1132074135062 | epot = -131.679328194016 | etot = -104.916993865448
909000  ekin = 13.4654192893617 |  erot = 12.4026216006941 | epot = -131.510323746492 | etot = -105.642282856436
910000  ekin = 13.3669089746771 |  erot = 12.2515043108096 | epot = -131.279564850064 | etot = -105.661151564577
911000  ekin = 13.1803758942232 |  erot = 12.3776233805492 | epot = -130.939217067511 | etot = -105.381217792738
912000  ekin = 13.4936182562076 |  erot = 13.0646784895681 | epot = -130.523318371126 | etot = -103.965021625351
913000  ekin = 13.4654133940855 |  erot = 12.7992887229988 | epot = -130.057711790665 | etot = -103.793009673581
914000  ekin = 13.2424883715306 |  erot = 12.5762407989739 | epot = -129.735396069255 | etot = -103.916666898751
915000  ekin = 13.7568260961906 |  erot = 11.979358786625 | epot = -129.408246543188 | etot = -103.672061660372
916000  ekin = 13.8329970070235 |  erot = 13.4868801631182 | epot = -129.017837864616 | etot = -101.697960694474
917000  ekin = 13.6739342498415 |  erot = 14.0172019245937 | epot = -128.74257584105 | etot = -101.051439666615
918000  ekin = 13.245471595107 |  erot = 15.951967354764 | epot = -128.617123842226 | etot = -99.4196848923551
919000  ekin = 12.9797138485786 |  erot = 14.9345708711274 | epot = -128.733889181863 | etot = -100.819604462157
920000  ekin = 12.2436001260489 |  erot = 13.6267663169795 | epot = -128.905668726167 | etot = -103.035302283138
921000  ekin = 11.6805154863491 |  erot = 14.6040007578678 | epot = -129.025116647105 | etot = -102.740600402888
922000  ekin = 11.2509613017982 |  erot = 13.1615261905601 | epot = -129.013398954601 | etot = -104.600911462243
923000  ekin = 11.0530387912639 |  erot = 14.8051452828429 | epot = -128.882878859975 | etot = -103.024694785868
924000  ekin = 10.864428957365 |  erot = 14.5487695471967 | epot = -128.635895835237 | etot = -103.222697330675
925000  ekin = 10.4368013074651 |  erot = 15.9506322379272 | epot = -128.538691204592 | etot = -102.1512576592
926000  ekin = 10.8708234501058 |  erot = 14.499435338498 | epot = -128.530880030449 | etot = -103.160621241845
927000  ekin = 10.1756205898105 |  erot = 14.9151755779541 | epot = -128.657945645067 | etot = -103.567149477302
928000  ekin = 9.79032376464694 |  erot = 15.1711554438299 | epot = -128.994657707943 | etot = -104.033178499466
929000  ekin = 10.0135841647818 |  erot = 13.5327974045767 | epot = -129.564299260408 | etot = -106.01791769105
930000  ekin = 10.7232337588077 |  erot = 14.4150772232789 | epot = -130.372253794754 | etot = -105.233942812668
931000  ekin = 10.957250201845 |  erot = 15.0298851642653 | epot = -131.309548641823 | etot = -105.322413275712
932000  ekin = 11.3959980921443 |  erot = 14.9867277427775 | epot = -132.358040832085 | etot = -105.975314997164
933000  ekin = 12.4008984499258 |  erot = 15.1859215644479 | epot = -133.399347144136 | etot = -105.812527129763
934000  ekin = 12.8178650688633 |  erot = 14.1063647076232 | epot = -134.260016847604 | etot = -107.335787071118
935000  ekin = 13.4125148241317 |  erot = 15.5991487655469 | epot = -135.013664838076 | etot = -106.002001248398
936000  ekin = 13.5923426534851 |  erot = 17.2538639887924 | epot = -135.505358908873 | etot = -104.659152266595
937000  ekin = 13.4400246720306 |  erot = 16.0596443449443 | epot = -135.603355890124 | etot = -106.103686873149
938000  ekin = 13.6103529372685 |  erot = 15.1920952210033 | epot = -135.267026708504 | etot = -106.464578550232
939000  ekin = 13.2221334283198 |  erot = 14.3711020679947 | epot = -134.526020035158 | etot = -106.932784538844
940000  ekin = 13.0406740143487 |  erot = 13.3893112135224 | epot = -133.398922419693 | etot = -106.968937191822
941000  ekin = 11.7807611095563 |  erot = 12.6169081908774 | epot = -132.064733106846 | etot = -107.667063806413
942000  ekin = 10.8560631703933 |  erot = 12.1028950338682 | epot = -130.673314662297 | etot = -107.714356458035
943000  ekin = 10.5643065816831 |  erot = 11.8423377277436 | epot = -129.594814920542 | etot = -107.188170611116
944000  ekin = 10.370989663475 |  erot = 12.0833746672059 | epot = -128.740658913622 | etot = -106.286294582941
945000  ekin = 10.2962804558076 |  erot = 13.1799266129607 | epot = -128.223752772124 | etot = -104.747545703355
946000  ekin = 11.3534838321474 |  erot = 12.7383974360111 | epot = -128.032202727824 | etot = -103.940321459666
947000  ekin = 12.071576442379 |  erot = 13.711541060477 | epot = -128.004967672372 | etot = -102.221850169516
948000  ekin = 12.1245321275793 |  erot = 12.6107396971468 | epot = -128.117296095249 | etot = -103.382024270523
949000  ekin = 12.90805889959 |  erot = 11.8866900148027 | epot = -128.337539014419 | etot = -103.542790100027
950000  ekin = 13.3527995691362 |  erot = 12.6583339419699 | epot = -128.832022322223 | etot = -102.820888811117
951000  ekin = 14.0353166034226 |  erot = 12.4887352237453 | epot = -129.414227058798 | etot = -102.89017523163
952000  ekin = 14.4539614182342 |  erot = 15.5615058449647 | epot = -129.957345323999 | etot = -99.9418780608004
953000  ekin = 15.3508256645353 |  erot = 15.6454407354306 | epot = -130.579053532496 | etot = -99.5827871325296
954000  ekin = 15.9073052013717 |  erot = 14.8907336374863 | epot = -130.944475184772 | etot = -100.146436345914
955000  ekin = 17.0707787056887 |  erot = 16.1503176017207 | epot = -131.120438402122 | etot = -97.8993420947125
956000  ekin = 18.4222164929532 |  erot = 15.6543247459001 | epot = -131.085064350135 | etot = -97.0085231112819
957000  ekin = 18.2181636890142 |  erot = 16.8789809387867 | epot = -130.704563934414 | etot = -95.6074193066135
958000  ekin = 18.7457849087942 |  erot = 15.2649074372207 | epot = -129.893126844032 | etot = -95.882434498017
959000  ekin = 18.8948326127131 |  erot = 14.8187025948101 | epot = -128.827607813188 | etot = -95.1140726056646
960000  ekin = 17.9232164812531 |  erot = 14.5006592659995 | epot = -127.512494075793 | etot = -95.0886183285401
961000  ekin = 17.5283007778538 |  erot = 13.6318013254001 | epot = -125.965759972438 | etot = -94.8056578691841
962000  ekin = 17.1087856720778 |  erot = 13.5209597244085 | epot = -124.308831476352 | etot = -93.6790860798655
963000  ekin = 16.2294672761422 |  erot = 12.0982940138005 | epot = -122.756343433097 | etot = -94.4285821431539
964000  ekin = 15.217906775052 |  erot = 11.3466076337834 | epot = -121.35364013365 | etot = -94.7891257248148
965000  ekin = 14.4571904869347 |  erot = 11.1958015829203 | epot = -120.159287462331 | etot = -94.5062953924763
966000  ekin = 13.713691048934 |  erot = 12.2763392569664 | epot = -119.373509436091 | etot = -93.383479130191
967000  ekin = 13.0525275313628 |  erot = 13.3325378981858 | epot = -118.754627961849 | etot = -92.3695625323
968000  ekin = 12.6258253330282 |  erot = 13.6667960669937 | epot = -118.263761246798 | etot = -91.9711398467763
969000  ekin = 12.093963793091 |  erot = 12.6851784652315 | epot = -118.10172157237 | etot = -93.322579314047
970000  ekin = 12.2814352863516 |  erot = 13.1741722808913 | epot = -118.084891935487 | etot = -92.6292843682446
971000  ekin = 12.336963793396 |  erot = 14.287178261779 | epot = -118.240142548498 | etot = -91.6160004933226
972000  ekin = 12.7123353326953 |  erot = 15.0155999303371 | epot = -118.41298000455 | etot = -90.6850447415176
973000  ekin = 13.0472009182221 |  erot = 16.2295024444777 | epot = -118.471843214116 | etot = -89.1951398514163
974000  ekin = 12.388354969002 |  erot = 17.4722487948746 | epot = -118.364598615294 | etot = -88.5039948514174
975000  ekin = 11.9685102758026 |  erot = 15.3885917283584 | epot = -118.090409410582 | etot = -90.7333074064213
976000  ekin = 11.3088073476216 |  erot = 15.2854132762829 | epot = -117.800271375519 | etot = -91.2060507516144
977000  ekin = 10.8710842145684 |  erot = 15.2909542063552 | epot = -117.349796621949 | etot = -91.1877582010249
978000  ekin = 10.817860138762 |  erot = 13.2276696679694 | epot = -117.117297916081 | etot = -93.0717681093499
979000  ekin = 11.0709902353881 |  erot = 12.5293846344496 | epot = -117.175595959156 | etot = -93.5752210893179
980000  ekin = 11.2965161569289 |  erot = 11.1601040800375 | epot = -117.277906119498 | etot = -94.8212858825316
981000  ekin = 11.6690570838973 |  erot = 10.7736458692936 | epot = -117.768958129291 | etot = -95.3262551760997
982000  ekin = 12.1575161392224 |  erot = 11.9678903157896 | epot = -118.550912187072 | etot = -94.4255057320603
983000  ekin = 12.4067474872099 |  erot = 12.7193186844112 | epot = -119.304867426008 | etot = -94.1788012543873
984000  ekin = 13.5940880425583 |  erot = 13.7165337446016 | epot = -120.273805342163 | etot = -92.9631835550026
985000  ekin = 13.8874336321484 |  erot = 14.1076224004122 | epot = -121.273851753427 | etot = -93.2787957208661
986000  ekin = 14.1136768141539 |  erot = 14.3150637930082 | epot = -122.271363839249 | etot = -93.8426232320867
987000  ekin = 14.5776610706687 |  erot = 15.5141413343671 | epot = -123.255640154049 | etot = -93.1638377490135
988000  ekin = 14.821884995834 |  erot = 15.312967168187 | epot = -124.232918811331 | etot = -94.0980666473104
989000  ekin = 15.646855689107 |  erot = 16.5736195699528 | epot = -125.090514341493 | etot = -92.8700390824336
990000  ekin = 16.1676158963034 |  erot = 18.2046608708844 | epot = -125.736029858856 | etot = -91.3637530916681
991000  ekin = 16.9467094059315 |  erot = 20.3489064269837 | epot = -126.034194682764 | etot = -88.7385788498484
992000  ekin = 17.1946688955272 |  erot = 20.6446832139068 | epot = -126.023723568376 | etot = -88.1843714589421
993000  ekin = 17.0492861030736 |  erot = 20.2357766473302 | epot = -125.775974072184 | etot = -88.4909113217802
994000  ekin = 17.2852712785184 |  erot = 21.9253125145711 | epot = -125.462594884831 | etot = -86.2520110917411
995000  ekin = 16.9781200706309 |  erot = 23.024520231669 | epot = -125.08695964599 | etot = -85.0843193436903
996000  ekin = 17.1233597247117 |  erot = 20.1219478311412 | epot = -124.661238194914 | etot = -87.415930639061
997000  ekin = 16.9435496098567 |  erot = 19.2980117125048 | epot = -124.068366062786 | etot = -87.826804740424
998000  ekin = 17.0875482949223 |  erot = 19.7008126514126 | epot = -123.301709192639 | etot = -86.5133482463046
999000  ekin = 17.3864595030106 |  erot = 19.031153747846 | epot = -122.410040365131 | etot = -85.9924271142742
1000000  ekin = 17.4266501863313 |  erot = 15.93443523795 | epot = -121.571786609929 | etot = -88.2107011856477
   1000000   389.752       -124.64554      3.0737557     -104.14514      0.13705163     39304000     
Loop time of 40.2662 on 1 procs for 1000000 steps with 16 atoms

Performance: 36.606 ns/day, 0.656 hours/ns, 24834.718 timesteps/s, 397.355 katom-step/s
99.8% CPU use with 1 MPI tasks x no OpenMP threads

MPI task timing breakdown:
Section |  min time  |  avg time  |  max time  |%varavg| %total
---------------------------------------------------------------
Pair    | 33.133     | 33.133     | 33.133     |   0.0 | 82.29
Bond    | 1.0208     | 1.0208     | 1.0208     |   0.0 |  2.54
Neigh   | 0.014956   | 0.014956   | 0.014956   |   0.0 |  0.04
Comm    | 0.45341    | 0.45341    | 0.45341    |   0.0 |  1.13
Output  | 0.19799    | 0.19799    | 0.19799    |   0.0 |  0.49
Modify  | 4.9747     | 4.9747     | 4.9747     |   0.0 | 12.35
Other   |            | 0.4711     |            |       |  1.17

Nlocal:             16 ave          16 max          16 min
Histogram: 1 0 0 0 0 0 0 0 0 0
Nghost:              0 ave           0 max           0 min
Histogram: 1 0 0 0 0 0 0 0 0 0
Neighs:            107 ave         107 max         107 min
Histogram: 1 0 0 0 0 0 0 0 0 0

Total # of neighbors = 107
Ave neighs/atom = 6.6875
Ave special neighs/atom = 3.75
Neighbor list builds = 1000
Dangerous builds = 0

write_data last_config.${number}.* nocoeff
write_data last_config.2.* nocoeff
System init for write_data ...
Generated 0 of 6 mixed pair_coeff terms from geometric mixing rule
#write_restart last_config.${number}.*
Total wall time: 0:00:40
