 # Hcp Zr with box vectors H1=[2-1-10], H2=[-12-10], H3=[0001].
  
         864  atoms
           1  atom types
 
      0.000000000000      19.374000000000  xlo xhi
      0.000000000000      33.556752345839  ylo yhi
      0.000000000000      30.846000000000  zlo zhi
 
Masses
 
            1   91.22400000             # Zr
 
Atoms # atomic
 
         1    1        0.000000000000       1.864264019213       2.570500000000
         2    1        0.000000000000       0.000000000000       0.000000000000
         3    1        1.614500000000       4.660660048033       2.570500000000
         4    1        1.614500000000       2.796396028820       0.000000000000
         5    1        3.229000000000       1.864264019213       2.570500000000
         6    1        3.229000000000       0.000000000000       0.000000000000
         7    1        4.843500000000       4.660660048033       2.570500000000
         8    1        4.843500000000       2.796396028820       0.000000000000
         9    1        6.458000000000       1.864264019213       2.570500000000
        10    1        6.458000000000       0.000000000000       0.000000000000
        11    1        8.072500000000       4.660660048033       2.570500000000
        12    1        8.072500000000       2.796396028820       0.000000000000
        13    1        9.687000000000       1.864264019213       2.570500000000
        14    1        9.687000000000       0.000000000000       0.000000000000
        15    1       11.301500000000       4.660660048033       2.570500000000
        16    1       11.301500000000       2.796396028820       0.000000000000
        17    1       12.916000000000       1.864264019213       2.570500000000
        18    1       12.916000000000       0.000000000000       0.000000000000
        19    1       14.530500000000       4.660660048033       2.570500000000
        20    1       14.530500000000       2.796396028820       0.000000000000
        21    1       16.145000000000       1.864264019213       2.570500000000
        22    1       16.145000000000       0.000000000000       0.000000000000
        23    1       17.759500000000       4.660660048033       2.570500000000
        24    1       17.759500000000       2.796396028820       0.000000000000
        25    1        0.000000000000       7.457056076853       2.570500000000
        26    1        0.000000000000       5.592792057640       0.000000000000
        27    1        1.614500000000      10.253452105673       2.570500000000
        28    1        1.614500000000       8.389188086460       0.000000000000
        29    1        3.229000000000       7.457056076853       2.570500000000
        30    1        3.229000000000       5.592792057640       0.000000000000
        31    1        4.843500000000      10.253452105673       2.570500000000
        32    1        4.843500000000       8.389188086460       0.000000000000
        33    1        6.458000000000       7.457056076853       2.570500000000
        34    1        6.458000000000       5.592792057640       0.000000000000
        35    1        8.072500000000      10.253452105673       2.570500000000
        36    1        8.072500000000       8.389188086460       0.000000000000
        37    1        9.687000000000       7.457056076853       2.570500000000
        38    1        9.687000000000       5.592792057640       0.000000000000
        39    1       11.301500000000      10.253452105673       2.570500000000
        40    1       11.301500000000       8.389188086460       0.000000000000
        41    1       12.916000000000       7.457056076853       2.570500000000
        42    1       12.916000000000       5.592792057640       0.000000000000
        43    1       14.530500000000      10.253452105673       2.570500000000
        44    1       14.530500000000       8.389188086460       0.000000000000
        45    1       16.145000000000       7.457056076853       2.570500000000
        46    1       16.145000000000       5.592792057640       0.000000000000
        47    1       17.759500000000      10.253452105673       2.570500000000
        48    1       17.759500000000       8.389188086460       0.000000000000
        49    1        0.000000000000      13.049848134493       2.570500000000
        50    1        0.000000000000      11.185584115280       0.000000000000
        51    1        1.614500000000      15.846244163313       2.570500000000
        52    1        1.614500000000      13.981980144100       0.000000000000
        53    1        3.229000000000      13.049848134493       2.570500000000
        54    1        3.229000000000      11.185584115280       0.000000000000
        55    1        4.843500000000      15.846244163313       2.570500000000
        56    1        4.843500000000      13.981980144100       0.000000000000
        57    1        6.458000000000      13.049848134493       2.570500000000
        58    1        6.458000000000      11.185584115280       0.000000000000
        59    1        8.072500000000      15.846244163313       2.570500000000
        60    1        8.072500000000      13.981980144100       0.000000000000
        61    1        9.687000000000      13.049848134493       2.570500000000
        62    1        9.687000000000      11.185584115280       0.000000000000
        63    1       11.301500000000      15.846244163313       2.570500000000
        64    1       11.301500000000      13.981980144100       0.000000000000
        65    1       12.916000000000      13.049848134493       2.570500000000
        66    1       12.916000000000      11.185584115280       0.000000000000
        67    1       14.530500000000      15.846244163313       2.570500000000
        68    1       14.530500000000      13.981980144100       0.000000000000
        69    1       16.145000000000      13.049848134493       2.570500000000
        70    1       16.145000000000      11.185584115280       0.000000000000
        71    1       17.759500000000      15.846244163313       2.570500000000
        72    1       17.759500000000      13.981980144100       0.000000000000
        73    1        0.000000000000      18.642640192133       2.570500000000
        74    1        0.000000000000      16.778376172920       0.000000000000
        75    1        1.614500000000      21.439036220953       2.570500000000
        76    1        1.614500000000      19.574772201740       0.000000000000
        77    1        3.229000000000      18.642640192133       2.570500000000
        78    1        3.229000000000      16.778376172920       0.000000000000
        79    1        4.843500000000      21.439036220953       2.570500000000
        80    1        4.843500000000      19.574772201740       0.000000000000
        81    1        6.458000000000      18.642640192133       2.570500000000
        82    1        6.458000000000      16.778376172920       0.000000000000
        83    1        8.072500000000      21.439036220953       2.570500000000
        84    1        8.072500000000      19.574772201740       0.000000000000
        85    1        9.687000000000      18.642640192133       2.570500000000
        86    1        9.687000000000      16.778376172920       0.000000000000
        87    1       11.301500000000      21.439036220953       2.570500000000
        88    1       11.301500000000      19.574772201740       0.000000000000
        89    1       12.916000000000      18.642640192133       2.570500000000
        90    1       12.916000000000      16.778376172920       0.000000000000
        91    1       14.530500000000      21.439036220953       2.570500000000
        92    1       14.530500000000      19.574772201740       0.000000000000
        93    1       16.145000000000      18.642640192133       2.570500000000
        94    1       16.145000000000      16.778376172920       0.000000000000
        95    1       17.759500000000      21.439036220953       2.570500000000
        96    1       17.759500000000      19.574772201740       0.000000000000
        97    1        0.000000000000      24.235432249773       2.570500000000
        98    1        0.000000000000      22.371168230560       0.000000000000
        99    1        1.614500000000      27.031828278593       2.570500000000
       100    1        1.614500000000      25.167564259380       0.000000000000
       101    1        3.229000000000      24.235432249773       2.570500000000
       102    1        3.229000000000      22.371168230560       0.000000000000
       103    1        4.843500000000      27.031828278593       2.570500000000
       104    1        4.843500000000      25.167564259380       0.000000000000
       105    1        6.458000000000      24.235432249773       2.570500000000
       106    1        6.458000000000      22.371168230560       0.000000000000
       107    1        8.072500000000      27.031828278593       2.570500000000
       108    1        8.072500000000      25.167564259380       0.000000000000
       109    1        9.687000000000      24.235432249773       2.570500000000
       110    1        9.687000000000      22.371168230560       0.000000000000
       111    1       11.301500000000      27.031828278593       2.570500000000
       112    1       11.301500000000      25.167564259380       0.000000000000
       113    1       12.916000000000      24.235432249773       2.570500000000
       114    1       12.916000000000      22.371168230560       0.000000000000
       115    1       14.530500000000      27.031828278593       2.570500000000
       116    1       14.530500000000      25.167564259380       0.000000000000
       117    1       16.145000000000      24.235432249773       2.570500000000
       118    1       16.145000000000      22.371168230560       0.000000000000
       119    1       17.759500000000      27.031828278593       2.570500000000
       120    1       17.759500000000      25.167564259380       0.000000000000
       121    1        0.000000000000      29.828224307413       2.570500000000
       122    1        0.000000000000      27.963960288200       0.000000000000
       123    1        1.614500000000      32.624620336233       2.570500000000
       124    1        1.614500000000      30.760356317019       0.000000000000
       125    1        3.229000000000      29.828224307413       2.570500000000
       126    1        3.229000000000      27.963960288200       0.000000000000
       127    1        4.843500000000      32.624620336233       2.570500000000
       128    1        4.843500000000      30.760356317019       0.000000000000
       129    1        6.458000000000      29.828224307413       2.570500000000
       130    1        6.458000000000      27.963960288200       0.000000000000
       131    1        8.072500000000      32.624620336233       2.570500000000
       132    1        8.072500000000      30.760356317019       0.000000000000
       133    1        9.687000000000      29.828224307413       2.570500000000
       134    1        9.687000000000      27.963960288200       0.000000000000
       135    1       11.301500000000      32.624620336233       2.570500000000
       136    1       11.301500000000      30.760356317019       0.000000000000
       137    1       12.916000000000      29.828224307413       2.570500000000
       138    1       12.916000000000      27.963960288200       0.000000000000
       139    1       14.530500000000      32.624620336233       2.570500000000
       140    1       14.530500000000      30.760356317019       0.000000000000
       141    1       16.145000000000      29.828224307413       2.570500000000
       142    1       16.145000000000      27.963960288200       0.000000000000
       143    1       17.759500000000      32.624620336233       2.570500000000
       144    1       17.759500000000      30.760356317019       0.000000000000
       145    1        0.000000000000       1.864264019213       7.711500000000
       146    1        0.000000000000       0.000000000000       5.141000000000
       147    1        1.614500000000       4.660660048033       7.711500000000
       148    1        1.614500000000       2.796396028820       5.141000000000
       149    1        3.229000000000       1.864264019213       7.711500000000
       150    1        3.229000000000       0.000000000000       5.141000000000
       151    1        4.843500000000       4.660660048033       7.711500000000
       152    1        4.843500000000       2.796396028820       5.141000000000
       153    1        6.458000000000       1.864264019213       7.711500000000
       154    1        6.458000000000       0.000000000000       5.141000000000
       155    1        8.072500000000       4.660660048033       7.711500000000
       156    1        8.072500000000       2.796396028820       5.141000000000
       157    1        9.687000000000       1.864264019213       7.711500000000
       158    1        9.687000000000       0.000000000000       5.141000000000
       159    1       11.301500000000       4.660660048033       7.711500000000
       160    1       11.301500000000       2.796396028820       5.141000000000
       161    1       12.916000000000       1.864264019213       7.711500000000
       162    1       12.916000000000       0.000000000000       5.141000000000
       163    1       14.530500000000       4.660660048033       7.711500000000
       164    1       14.530500000000       2.796396028820       5.141000000000
       165    1       16.145000000000       1.864264019213       7.711500000000
       166    1       16.145000000000       0.000000000000       5.141000000000
       167    1       17.759500000000       4.660660048033       7.711500000000
       168    1       17.759500000000       2.796396028820       5.141000000000
       169    1        0.000000000000       7.457056076853       7.711500000000
       170    1        0.000000000000       5.592792057640       5.141000000000
       171    1        1.614500000000      10.253452105673       7.711500000000
       172    1        1.614500000000       8.389188086460       5.141000000000
       173    1        3.229000000000       7.457056076853       7.711500000000
       174    1        3.229000000000       5.592792057640       5.141000000000
       175    1        4.843500000000      10.253452105673       7.711500000000
       176    1        4.843500000000       8.389188086460       5.141000000000
       177    1        6.458000000000       7.457056076853       7.711500000000
       178    1        6.458000000000       5.592792057640       5.141000000000
       179    1        8.072500000000      10.253452105673       7.711500000000
       180    1        8.072500000000       8.389188086460       5.141000000000
       181    1        9.687000000000       7.457056076853       7.711500000000
       182    1        9.687000000000       5.592792057640       5.141000000000
       183    1       11.301500000000      10.253452105673       7.711500000000
       184    1       11.301500000000       8.389188086460       5.141000000000
       185    1       12.916000000000       7.457056076853       7.711500000000
       186    1       12.916000000000       5.592792057640       5.141000000000
       187    1       14.530500000000      10.253452105673       7.711500000000
       188    1       14.530500000000       8.389188086460       5.141000000000
       189    1       16.145000000000       7.457056076853       7.711500000000
       190    1       16.145000000000       5.592792057640       5.141000000000
       191    1       17.759500000000      10.253452105673       7.711500000000
       192    1       17.759500000000       8.389188086460       5.141000000000
       193    1        0.000000000000      13.049848134493       7.711500000000
       194    1        0.000000000000      11.185584115280       5.141000000000
       195    1        1.614500000000      15.846244163313       7.711500000000
       196    1        1.614500000000      13.981980144100       5.141000000000
       197    1        3.229000000000      13.049848134493       7.711500000000
       198    1        3.229000000000      11.185584115280       5.141000000000
       199    1        4.843500000000      15.846244163313       7.711500000000
       200    1        4.843500000000      13.981980144100       5.141000000000
       201    1        6.458000000000      13.049848134493       7.711500000000
       202    1        6.458000000000      11.185584115280       5.141000000000
       203    1        8.072500000000      15.846244163313       7.711500000000
       204    1        8.072500000000      13.981980144100       5.141000000000
       205    1        9.687000000000      13.049848134493       7.711500000000
       206    1        9.687000000000      11.185584115280       5.141000000000
       207    1       11.301500000000      15.846244163313       7.711500000000
       208    1       11.301500000000      13.981980144100       5.141000000000
       209    1       12.916000000000      13.049848134493       7.711500000000
       210    1       12.916000000000      11.185584115280       5.141000000000
       211    1       14.530500000000      15.846244163313       7.711500000000
       212    1       14.530500000000      13.981980144100       5.141000000000
       213    1       16.145000000000      13.049848134493       7.711500000000
       214    1       16.145000000000      11.185584115280       5.141000000000
       215    1       17.759500000000      15.846244163313       7.711500000000
       216    1       17.759500000000      13.981980144100       5.141000000000
       217    1        0.000000000000      18.642640192133       7.711500000000
       218    1        0.000000000000      16.778376172920       5.141000000000
       219    1        1.614500000000      21.439036220953       7.711500000000
       220    1        1.614500000000      19.574772201740       5.141000000000
       221    1        3.229000000000      18.642640192133       7.711500000000
       222    1        3.229000000000      16.778376172920       5.141000000000
       223    1        4.843500000000      21.439036220953       7.711500000000
       224    1        4.843500000000      19.574772201740       5.141000000000
       225    1        6.458000000000      18.642640192133       7.711500000000
       226    1        6.458000000000      16.778376172920       5.141000000000
       227    1        8.072500000000      21.439036220953       7.711500000000
       228    1        8.072500000000      19.574772201740       5.141000000000
       229    1        9.687000000000      18.642640192133       7.711500000000
       230    1        9.687000000000      16.778376172920       5.141000000000
       231    1       11.301500000000      21.439036220953       7.711500000000
       232    1       11.301500000000      19.574772201740       5.141000000000
       233    1       12.916000000000      18.642640192133       7.711500000000
       234    1       12.916000000000      16.778376172920       5.141000000000
       235    1       14.530500000000      21.439036220953       7.711500000000
       236    1       14.530500000000      19.574772201740       5.141000000000
       237    1       16.145000000000      18.642640192133       7.711500000000
       238    1       16.145000000000      16.778376172920       5.141000000000
       239    1       17.759500000000      21.439036220953       7.711500000000
       240    1       17.759500000000      19.574772201740       5.141000000000
       241    1        0.000000000000      24.235432249773       7.711500000000
       242    1        0.000000000000      22.371168230560       5.141000000000
       243    1        1.614500000000      27.031828278593       7.711500000000
       244    1        1.614500000000      25.167564259380       5.141000000000
       245    1        3.229000000000      24.235432249773       7.711500000000
       246    1        3.229000000000      22.371168230560       5.141000000000
       247    1        4.843500000000      27.031828278593       7.711500000000
       248    1        4.843500000000      25.167564259380       5.141000000000
       249    1        6.458000000000      24.235432249773       7.711500000000
       250    1        6.458000000000      22.371168230560       5.141000000000
       251    1        8.072500000000      27.031828278593       7.711500000000
       252    1        8.072500000000      25.167564259380       5.141000000000
       253    1        9.687000000000      24.235432249773       7.711500000000
       254    1        9.687000000000      22.371168230560       5.141000000000
       255    1       11.301500000000      27.031828278593       7.711500000000
       256    1       11.301500000000      25.167564259380       5.141000000000
       257    1       12.916000000000      24.235432249773       7.711500000000
       258    1       12.916000000000      22.371168230560       5.141000000000
       259    1       14.530500000000      27.031828278593       7.711500000000
       260    1       14.530500000000      25.167564259380       5.141000000000
       261    1       16.145000000000      24.235432249773       7.711500000000
       262    1       16.145000000000      22.371168230560       5.141000000000
       263    1       17.759500000000      27.031828278593       7.711500000000
       264    1       17.759500000000      25.167564259380       5.141000000000
       265    1        0.000000000000      29.828224307413       7.711500000000
       266    1        0.000000000000      27.963960288200       5.141000000000
       267    1        1.614500000000      32.624620336233       7.711500000000
       268    1        1.614500000000      30.760356317019       5.141000000000
       269    1        3.229000000000      29.828224307413       7.711500000000
       270    1        3.229000000000      27.963960288200       5.141000000000
       271    1        4.843500000000      32.624620336233       7.711500000000
       272    1        4.843500000000      30.760356317019       5.141000000000
       273    1        6.458000000000      29.828224307413       7.711500000000
       274    1        6.458000000000      27.963960288200       5.141000000000
       275    1        8.072500000000      32.624620336233       7.711500000000
       276    1        8.072500000000      30.760356317019       5.141000000000
       277    1        9.687000000000      29.828224307413       7.711500000000
       278    1        9.687000000000      27.963960288200       5.141000000000
       279    1       11.301500000000      32.624620336233       7.711500000000
       280    1       11.301500000000      30.760356317019       5.141000000000
       281    1       12.916000000000      29.828224307413       7.711500000000
       282    1       12.916000000000      27.963960288200       5.141000000000
       283    1       14.530500000000      32.624620336233       7.711500000000
       284    1       14.530500000000      30.760356317019       5.141000000000
       285    1       16.145000000000      29.828224307413       7.711500000000
       286    1       16.145000000000      27.963960288200       5.141000000000
       287    1       17.759500000000      32.624620336233       7.711500000000
       288    1       17.759500000000      30.760356317019       5.141000000000
       289    1        0.000000000000       1.864264019213      12.852500000000
       290    1        0.000000000000       0.000000000000      10.282000000000
       291    1        1.614500000000       4.660660048033      12.852500000000
       292    1        1.614500000000       2.796396028820      10.282000000000
       293    1        3.229000000000       1.864264019213      12.852500000000
       294    1        3.229000000000       0.000000000000      10.282000000000
       295    1        4.843500000000       4.660660048033      12.852500000000
       296    1        4.843500000000       2.796396028820      10.282000000000
       297    1        6.458000000000       1.864264019213      12.852500000000
       298    1        6.458000000000       0.000000000000      10.282000000000
       299    1        8.072500000000       4.660660048033      12.852500000000
       300    1        8.072500000000       2.796396028820      10.282000000000
       301    1        9.687000000000       1.864264019213      12.852500000000
       302    1        9.687000000000       0.000000000000      10.282000000000
       303    1       11.301500000000       4.660660048033      12.852500000000
       304    1       11.301500000000       2.796396028820      10.282000000000
       305    1       12.916000000000       1.864264019213      12.852500000000
       306    1       12.916000000000       0.000000000000      10.282000000000
       307    1       14.530500000000       4.660660048033      12.852500000000
       308    1       14.530500000000       2.796396028820      10.282000000000
       309    1       16.145000000000       1.864264019213      12.852500000000
       310    1       16.145000000000       0.000000000000      10.282000000000
       311    1       17.759500000000       4.660660048033      12.852500000000
       312    1       17.759500000000       2.796396028820      10.282000000000
       313    1        0.000000000000       7.457056076853      12.852500000000
       314    1        0.000000000000       5.592792057640      10.282000000000
       315    1        1.614500000000      10.253452105673      12.852500000000
       316    1        1.614500000000       8.389188086460      10.282000000000
       317    1        3.229000000000       7.457056076853      12.852500000000
       318    1        3.229000000000       5.592792057640      10.282000000000
       319    1        4.843500000000      10.253452105673      12.852500000000
       320    1        4.843500000000       8.389188086460      10.282000000000
       321    1        6.458000000000       7.457056076853      12.852500000000
       322    1        6.458000000000       5.592792057640      10.282000000000
       323    1        8.072500000000      10.253452105673      12.852500000000
       324    1        8.072500000000       8.389188086460      10.282000000000
       325    1        9.687000000000       7.457056076853      12.852500000000
       326    1        9.687000000000       5.592792057640      10.282000000000
       327    1       11.301500000000      10.253452105673      12.852500000000
       328    1       11.301500000000       8.389188086460      10.282000000000
       329    1       12.916000000000       7.457056076853      12.852500000000
       330    1       12.916000000000       5.592792057640      10.282000000000
       331    1       14.530500000000      10.253452105673      12.852500000000
       332    1       14.530500000000       8.389188086460      10.282000000000
       333    1       16.145000000000       7.457056076853      12.852500000000
       334    1       16.145000000000       5.592792057640      10.282000000000
       335    1       17.759500000000      10.253452105673      12.852500000000
       336    1       17.759500000000       8.389188086460      10.282000000000
       337    1        0.000000000000      13.049848134493      12.852500000000
       338    1        0.000000000000      11.185584115280      10.282000000000
       339    1        1.614500000000      15.846244163313      12.852500000000
       340    1        1.614500000000      13.981980144100      10.282000000000
       341    1        3.229000000000      13.049848134493      12.852500000000
       342    1        3.229000000000      11.185584115280      10.282000000000
       343    1        4.843500000000      15.846244163313      12.852500000000
       344    1        4.843500000000      13.981980144100      10.282000000000
       345    1        6.458000000000      13.049848134493      12.852500000000
       346    1        6.458000000000      11.185584115280      10.282000000000
       347    1        8.072500000000      15.846244163313      12.852500000000
       348    1        8.072500000000      13.981980144100      10.282000000000
       349    1        9.687000000000      13.049848134493      12.852500000000
       350    1        9.687000000000      11.185584115280      10.282000000000
       351    1       11.301500000000      15.846244163313      12.852500000000
       352    1       11.301500000000      13.981980144100      10.282000000000
       353    1       12.916000000000      13.049848134493      12.852500000000
       354    1       12.916000000000      11.185584115280      10.282000000000
       355    1       14.530500000000      15.846244163313      12.852500000000
       356    1       14.530500000000      13.981980144100      10.282000000000
       357    1       16.145000000000      13.049848134493      12.852500000000
       358    1       16.145000000000      11.185584115280      10.282000000000
       359    1       17.759500000000      15.846244163313      12.852500000000
       360    1       17.759500000000      13.981980144100      10.282000000000
       361    1        0.000000000000      18.642640192133      12.852500000000
       362    1        0.000000000000      16.778376172920      10.282000000000
       363    1        1.614500000000      21.439036220953      12.852500000000
       364    1        1.614500000000      19.574772201740      10.282000000000
       365    1        3.229000000000      18.642640192133      12.852500000000
       366    1        3.229000000000      16.778376172920      10.282000000000
       367    1        4.843500000000      21.439036220953      12.852500000000
       368    1        4.843500000000      19.574772201740      10.282000000000
       369    1        6.458000000000      18.642640192133      12.852500000000
       370    1        6.458000000000      16.778376172920      10.282000000000