LAMMPS data file. CGCMM style. atom_style full generated by VMD/TopoTools v1.7 on Fri Oct 16 20:02:01 CST 2020
 17496 atoms
 11664 bonds
 5832 angles
 0 dihedrals
 0 impropers
 2 atom types
 1 bond types
 1 angle types
 0 dihedral types
 0 improper types
 0.234001 56.195999  xlo xhi
 -0.000998 55.961000  ylo yhi
 -0.081000 55.880998  zlo zhi

 Masses

 1 15.999000 # 1
 2 1.008000 # 2

 Atoms # full

1 1 1 -0.847600 1.480000 1.480000 1.750000 # 1 SOL
2 1 2 0.423800 2.400000 1.110000 1.750000 # 2 SOL
3 1 2 0.423800 1.330000 1.990000 0.900000 # 2 SOL
4 2 1 -0.847600 1.480000 1.480000 4.860000 # 1 SOL
5 2 2 0.423800 2.400000 1.110000 4.860000 # 2 SOL
6 2 2 0.423800 1.330000 1.990000 4.010000 # 2 SOL
7 3 1 -0.847600 1.480000 1.480000 7.970000 # 1 SOL
8 3 2 0.423800 2.400000 1.110000 7.970000 # 2 SOL
9 3 2 0.423800 1.330000 1.990000 7.120000 # 2 SOL
10 4 1 -0.847600 1.480000 1.480000 11.080000 # 1 SOL
11 4 2 0.423800 2.400000 1.110000 11.080000 # 2 SOL
12 4 2 0.423800 1.330000 1.990000 10.230000 # 2 SOL
13 5 1 -0.847600 1.480000 1.480000 14.190001 # 1 SOL
14 5 2 0.423800 2.400000 1.110000 14.190001 # 2 SOL
15 5 2 0.423800 1.330000 1.990000 13.340000 # 2 SOL
16 6 1 -0.847600 1.480000 1.480000 17.299999 # 1 SOL
17 6 2 0.423800 2.400000 1.110000 17.299999 # 2 SOL
18 6 2 0.423800 1.330000 1.990000 16.450001 # 2 SOL
19 7 1 -0.847600 1.480000 1.480000 20.410000 # 1 SOL
20 7 2 0.423800 2.400000 1.110000 20.410000 # 2 SOL
21 7 2 0.423800 1.330000 1.990000 19.559999 # 2 SOL
22 8 1 -0.847600 1.480000 1.480000 23.510000 # 1 SOL
23 8 2 0.423800 2.400000 1.110000 23.510000 # 2 SOL
24 8 2 0.423800 1.330000 1.990000 22.660000 # 2 SOL
25 9 1 -0.847600 1.480000 1.480000 26.619999 # 1 SOL
26 9 2 0.423800 2.400000 1.110000 26.619999 # 2 SOL
27 9 2 0.423800 1.330000 1.990000 25.769999 # 2 SOL
28 10 1 -0.847600 1.480000 1.480000 29.730000 # 1 SOL
29 10 2 0.423800 2.400000 1.110000 29.730000 # 2 SOL
30 10 2 0.423800 1.330000 1.990000 28.880001 # 2 SOL
31 11 1 -0.847600 1.480000 1.480000 32.840000 # 1 SOL
32 11 2 0.423800 2.400000 1.110000 32.840000 # 2 SOL
33 11 2 0.423800 1.330000 1.990000 31.989998 # 2 SOL
34 12 1 -0.847600 1.480000 1.480000 35.950001 # 1 SOL
35 12 2 0.423800 2.400000 1.110000 35.950001 # 2 SOL
36 12 2 0.423800 1.330000 1.990000 35.099998 # 2 SOL
37 13 1 -0.847600 1.480000 1.480000 39.059998 # 1 SOL
38 13 2 0.423800 2.400000 1.110000 39.059998 # 2 SOL
39 13 2 0.423800 1.330000 1.990000 38.209999 # 2 SOL
40 14 1 -0.847600 1.480000 1.480000 42.169998 # 1 SOL
41 14 2 0.423800 2.400000 1.110000 42.169998 # 2 SOL
42 14 2 0.423800 1.330000 1.990000 41.320000 # 2 SOL
43 15 1 -0.847600 1.480000 1.480000 45.279999 # 1 SOL
44 15 2 0.423800 2.400000 1.110000 45.279999 # 2 SOL
45 15 2 0.423800 1.330000 1.990000 44.430000 # 2 SOL
46 16 1 -0.847600 1.480000 1.480000 48.390003 # 1 SOL
47 16 2 0.423800 2.400000 1.110000 48.390003 # 2 SOL
48 16 2 0.423800 1.330000 1.990000 47.540001 # 2 SOL
49 17 1 -0.847600 1.480000 1.480000 51.490002 # 1 SOL
50 17 2 0.423800 2.400000 1.110000 51.490002 # 2 SOL
51 17 2 0.423800 1.330000 1.990000 50.639999 # 2 SOL
52 18 1 -0.847600 1.480000 1.480000 54.599998 # 1 SOL
53 18 2 0.423800 2.400000 1.110000 54.599998 # 2 SOL
54 18 2 0.423800 1.330000 1.990000 53.750000 # 2 SOL
55 19 1 -0.847600 1.480000 4.590000 1.750000 # 1 SOL
56 19 2 0.423800 2.400000 4.220000 1.750000 # 2 SOL
57 19 2 0.423800 1.330000 5.100000 0.900000 # 2 SOL
58 20 1 -0.847600 1.480000 4.590000 4.860000 # 1 SOL
59 20 2 0.423800 2.400000 4.220000 4.860000 # 2 SOL
60 20 2 0.423800 1.330000 5.100000 4.010000 # 2 SOL
61 21 1 -0.847600 1.480000 4.590000 7.970000 # 1 SOL
62 21 2 0.423800 2.400000 4.220000 7.970000 # 2 SOL
63 21 2 0.423800 1.330000 5.100000 7.120000 # 2 SOL
64 22 1 -0.847600 1.480000 4.590000 11.080000 # 1 SOL
65 22 2 0.423800 2.400000 4.220000 11.080000 # 2 SOL
66 22 2 0.423800 1.330000 5.100000 10.230000 # 2 SOL
67 23 1 -0.847600 1.480000 4.590000 14.190001 # 1 SOL
68 23 2 0.423800 2.400000 4.220000 14.190001 # 2 SOL
69 23 2 0.423800 1.330000 5.100000 13.340000 # 2 SOL
70 24 1 -0.847600 1.480000 4.590000 17.299999 # 1 SOL
71 24 2 0.423800 2.400000 4.220000 17.299999 # 2 SOL
72 24 2 0.423800 1.330000 5.100000 16.450001 # 2 SOL
73 25 1 -0.847600 1.480000 4.590000 20.410000 # 1 SOL
74 25 2 0.423800 2.400000 4.220000 20.410000 # 2 SOL
75 25 2 0.423800 1.330000 5.100000 19.559999 # 2 SOL
76 26 1 -0.847600 1.480000 4.590000 23.510000 # 1 SOL
77 26 2 0.423800 2.400000 4.220000 23.510000 # 2 SOL
78 26 2 0.423800 1.330000 5.100000 22.660000 # 2 SOL
79 27 1 -0.847600 1.480000 4.590000 26.619999 # 1 SOL
80 27 2 0.423800 2.400000 4.220000 26.619999 # 2 SOL
81 27 2 0.423800 1.330000 5.100000 25.769999 # 2 SOL
82 28 1 -0.847600 1.480000 4.590000 29.730000 # 1 SOL
83 28 2 0.423800 2.400000 4.220000 29.730000 # 2 SOL
84 28 2 0.423800 1.330000 5.100000 28.880001 # 2 SOL
85 29 1 -0.847600 1.480000 4.590000 32.840000 # 1 SOL
86 29 2 0.423800 2.400000 4.220000 32.840000 # 2 SOL
87 29 2 0.423800 1.330000 5.100000 31.989998 # 2 SOL
88 30 1 -0.847600 1.480000 4.590000 35.950001 # 1 SOL
89 30 2 0.423800 2.400000 4.220000 35.950001 # 2 SOL
90 30 2 0.423800 1.330000 5.100000 35.099998 # 2 SOL
91 31 1 -0.847600 1.480000 4.590000 39.059998 # 1 SOL
92 31 2 0.423800 2.400000 4.220000 39.059998 # 2 SOL
93 31 2 0.423800 1.330000 5.100000 38.209999 # 2 SOL
94 32 1 -0.847600 1.480000 4.590000 42.169998 # 1 SOL
95 32 2 0.423800 2.400000 4.220000 42.169998 # 2 SOL
96 32 2 0.423800 1.330000 5.100000 41.320000 # 2 SOL
97 33 1 -0.847600 1.480000 4.590000 45.279999 # 1 SOL
98 33 2 0.423800 2.400000 4.220000 45.279999 # 2 SOL
99 33 2 0.423800 1.330000 5.100000 44.430000 # 2 SOL
100 34 1 -0.847600 1.480000 4.590000 48.390003 # 1 SOL
101 34 2 0.423800 2.400000 4.220000 48.390003 # 2 SOL
102 34 2 0.423800 1.330000 5.100000 47.540001 # 2 SOL
103 35 1 -0.847600 1.480000 4.590000 51.490002 # 1 SOL
104 35 2 0.423800 2.400000 4.220000 51.490002 # 2 SOL
105 35 2 0.423800 1.330000 5.100000 50.639999 # 2 SOL
106 36 1 -0.847600 1.480000 4.590000 54.599998 # 1 SOL
107 36 2 0.423800 2.400000 4.220000 54.599998 # 2 SOL
108 36 2 0.423800 1.330000 5.100000 53.750000 # 2 SOL
109 37 1 -0.847600 1.480000 7.700000 1.750000 # 1 SOL
110 37 2 0.423800 2.400000 7.330000 1.750000 # 2 SOL
111 37 2 0.423800 1.330000 8.210000 0.900000 # 2 SOL
112 38 1 -0.847600 1.480000 7.700000 4.860000 # 1 SOL
113 38 2 0.423800 2.400000 7.330000 4.860000 # 2 SOL
114 38 2 0.423800 1.330000 8.210000 4.010000 # 2 SOL
115 39 1 -0.847600 1.480000 7.700000 7.970000 # 1 SOL
116 39 2 0.423800 2.400000 7.330000 7.970000 # 2 SOL
117 39 2 0.423800 1.330000 8.210000 7.120000 # 2 SOL
118 40 1 -0.847600 1.480000 7.700000 11.080000 # 1 SOL
119 40 2 0.423800 2.400000 7.330000 11.080000 # 2 SOL
120 40 2 0.423800 1.330000 8.210000 10.230000 # 2 SOL
121 41 1 -0.847600 1.480000 7.700000 14.190001 # 1 SOL
122 41 2 0.423800 2.400000 7.330000 14.190001 # 2 SOL
123 41 2 0.423800 1.330000 8.210000 13.340000 # 2 SOL
124 42 1 -0.847600 1.480000 7.700000 17.299999 # 1 SOL
125 42 2 0.423800 2.400000 7.330000 17.299999 # 2 SOL
126 42 2 0.423800 1.330000 8.210000 16.450001 # 2 SOL
127 43 1 -0.847600 1.480000 7.700000 20.410000 # 1 SOL
128 43 2 0.423800 2.400000 7.330000 20.410000 # 2 SOL
129 43 2 0.423800 1.330000 8.210000 19.559999 # 2 SOL
130 44 1 -0.847600 1.480000 7.700000 23.510000 # 1 SOL
131 44 2 0.423800 2.400000 7.330000 23.510000 # 2 SOL
132 44 2 0.423800 1.330000 8.210000 22.660000 # 2 SOL
133 45 1 -0.847600 1.480000 7.700000 26.619999 # 1 SOL
134 45 2 0.423800 2.400000 7.330000 26.619999 # 2 SOL
135 45 2 0.423800 1.330000 8.210000 25.769999 # 2 SOL
136 46 1 -0.847600 1.480000 7.700000 29.730000 # 1 SOL
137 46 2 0.423800 2.400000 7.330000 29.730000 # 2 SOL
138 46 2 0.423800 1.330000 8.210000 28.880001 # 2 SOL
139 47 1 -0.847600 1.480000 7.700000 32.840000 # 1 SOL
140 47 2 0.423800 2.400000 7.330000 32.840000 # 2 SOL
141 47 2 0.423800 1.330000 8.210000 31.989998 # 2 SOL
142 48 1 -0.847600 1.480000 7.700000 35.950001 # 1 SOL
143 48 2 0.423800 2.400000 7.330000 35.950001 # 2 SOL
144 48 2 0.423800 1.330000 8.210000 35.099998 # 2 SOL
145 49 1 -0.847600 1.480000 7.700000 39.059998 # 1 SOL
146 49 2 0.423800 2.400000 7.330000 39.059998 # 2 SOL
147 49 2 0.423800 1.330000 8.210000 38.209999 # 2 SOL
148 50 1 -0.847600 1.480000 7.700000 42.169998 # 1 SOL
149 50 2 0.423800 2.400000 7.330000 42.169998 # 2 SOL
150 50 2 0.423800 1.330000 8.210000 41.320000 # 2 SOL
151 51 1 -0.847600 1.480000 7.700000 45.279999 # 1 SOL
152 51 2 0.423800 2.400000 7.330000 45.279999 # 2 SOL
153 51 2 0.423800 1.330000 8.210000 44.430000 # 2 SOL
154 52 1 -0.847600 1.480000 7.700000 48.390003 # 1 SOL
155 52 2 0.423800 2.400000 7.330000 48.390003 # 2 SOL
156 52 2 0.423800 1.330000 8.210000 47.540001 # 2 SOL
157 53 1 -0.847600 1.480000 7.700000 51.490002 # 1 SOL
158 53 2 0.423800 2.400000 7.330000 51.490002 # 2 SOL
159 53 2 0.423800 1.330000 8.210000 50.639999 # 2 SOL
160 54 1 -0.847600 1.480000 7.700000 54.599998 # 1 SOL
161 54 2 0.423800 2.400000 7.330000 54.599998 # 2 SOL
162 54 2 0.423800 1.330000 8.210000 53.750000 # 2 SOL
163 55 1 -0.847600 1.480000 10.809999 1.750000 # 1 SOL
164 55 2 0.423800 2.400000 10.440001 1.750000 # 2 SOL
165 55 2 0.423800 1.330000 11.320000 0.900000 # 2 SOL
166 56 1 -0.847600 1.480000 10.809999 4.860000 # 1 SOL
167 56 2 0.423800 2.400000 10.440001 4.860000 # 2 SOL
168 56 2 0.423800 1.330000 11.320000 4.010000 # 2 SOL
169 57 1 -0.847600 1.480000 10.809999 7.970000 # 1 SOL
170 57 2 0.423800 2.400000 10.440001 7.970000 # 2 SOL
171 57 2 0.423800 1.330000 11.320000 7.120000 # 2 SOL
172 58 1 -0.847600 1.480000 10.809999 11.080000 # 1 SOL
173 58 2 0.423800 2.400000 10.440001 11.080000 # 2 SOL
174 58 2 0.423800 1.330000 11.320000 10.230000 # 2 SOL
175 59 1 -0.847600 1.480000 10.809999 14.190001 # 1 SOL
176 59 2 0.423800 2.400000 10.440001 14.190001 # 2 SOL
177 59 2 0.423800 1.330000 11.320000 13.340000 # 2 SOL
178 60 1 -0.847600 1.480000 10.809999 17.299999 # 1 SOL
179 60 2 0.423800 2.400000 10.440001 17.299999 # 2 SOL
180 60 2 0.423800 1.330000 11.320000 16.450001 # 2 SOL
181 61 1 -0.847600 1.480000 10.809999 20.410000 # 1 SOL
182 61 2 0.423800 2.400000 10.440001 20.410000 # 2 SOL
183 61 2 0.423800 1.330000 11.320000 19.559999 # 2 SOL
184 62 1 -0.847600 1.480000 10.809999 23.510000 # 1 SOL
185 62 2 0.423800 2.400000 10.440001 23.510000 # 2 SOL
186 62 2 0.423800 1.330000 11.320000 22.660000 # 2 SOL
187 63 1 -0.847600 1.480000 10.809999 26.619999 # 1 SOL
188 63 2 0.423800 2.400000 10.440001 26.619999 # 2 SOL
189 63 2 0.423800 1.330000 11.320000 25.769999 # 2 SOL
190 64 1 -0.847600 1.480000 10.809999 29.730000 # 1 SOL
191 64 2 0.423800 2.400000 10.440001 29.730000 # 2 SOL
192 64 2 0.423800 1.330000 11.320000 28.880001 # 2 SOL
193 65 1 -0.847600 1.480000 10.809999 32.840000 # 1 SOL
194 65 2 0.423800 2.400000 10.440001 32.840000 # 2 SOL
195 65 2 0.423800 1.330000 11.320000 31.989998 # 2 SOL
196 66 1 -0.847600 1.480000 10.809999 35.950001 # 1 SOL
197 66 2 0.423800 2.400000 10.440001 35.950001 # 2 SOL
198 66 2 0.423800 1.330000 11.320000 35.099998 # 2 SOL
199 67 1 -0.847600 1.480000 10.809999 39.059998 # 1 SOL
200 67 2 0.423800 2.400000 10.440001 39.059998 # 2 SOL
201 67 2 0.423800 1.330000 11.320000 38.209999 # 2 SOL
202 68 1 -0.847600 1.480000 10.809999 42.169998 # 1 SOL
203 68 2 0.423800 2.400000 10.440001 42.169998 # 2 SOL
204 68 2 0.423800 1.330000 11.320000 41.320000 # 2 SOL
205 69 1 -0.847600 1.480000 10.809999 45.279999 # 1 SOL
206 69 2 0.423800 2.400000 10.440001 45.279999 # 2 SOL
207 69 2 0.423800 1.330000 11.320000 44.430000 # 2 SOL
208 70 1 -0.847600 1.480000 10.809999 48.390003 # 1 SOL
209 70 2 0.423800 2.400000 10.440001 48.390003 # 2 SOL
210 70 2 0.423800 1.330000 11.320000 47.540001 # 2 SOL
211 71 1 -0.847600 1.480000 10.809999 51.490002 # 1 SOL
212 71 2 0.423800 2.400000 10.440001 51.490002 # 2 SOL
213 71 2 0.423800 1.330000 11.320000 50.639999 # 2 SOL
214 72 1 -0.847600 1.480000 10.809999 54.599998 # 1 SOL
215 72 2 0.423800 2.400000 10.440001 54.599998 # 2 SOL
216 72 2 0.423800 1.330000 11.320000 53.750000 # 2 SOL
217 73 1 -0.847600 1.480000 13.920000 1.750000 # 1 SOL
218 73 2 0.423800 2.400000 13.550000 1.750000 # 2 SOL
219 73 2 0.423800 1.330000 14.429999 0.900000 # 2 SOL
220 74 1 -0.847600 1.480000 13.920000 4.860000 # 1 SOL
221 74 2 0.423800 2.400000 13.550000 4.860000 # 2 SOL
222 74 2 0.423800 1.330000 14.429999 4.010000 # 2 SOL
223 75 1 -0.847600 1.480000 13.920000 7.970000 # 1 SOL
224 75 2 0.423800 2.400000 13.550000 7.970000 # 2 SOL
225 75 2 0.423800 1.330000 14.429999 7.120000 # 2 SOL
226 76 1 -0.847600 1.480000 13.920000 11.080000 # 1 SOL
227 76 2 0.423800 2.400000 13.550000 11.080000 # 2 SOL
228 76 2 0.423800 1.330000 14.429999 10.230000 # 2 SOL
229 77 1 -0.847600 1.480000 13.920000 14.190001 # 1 SOL
230 77 2 0.423800 2.400000 13.550000 14.190001 # 2 SOL
231 77 2 0.423800 1.330000 14.429999 13.340000 # 2 SOL
232 78 1 -0.847600 1.480000 13.920000 17.299999 # 1 SOL
233 78 2 0.423800 2.400000 13.550000 17.299999 # 2 SOL
234 78 2 0.423800 1.330000 14.429999 16.450001 # 2 SOL
235 79 1 -0.847600 1.480000 13.920000 20.410000 # 1 SOL
236 79 2 0.423800 2.400000 13.550000 20.410000 # 2 SOL
237 79 2 0.423800 1.330000 14.429999 19.559999 # 2 SOL
238 80 1 -0.847600 1.480000 13.920000 23.510000 # 1 SOL
239 80 2 0.423800 2.400000 13.550000 23.510000 # 2 SOL
240 80 2 0.423800 1.330000 14.429999 22.660000 # 2 SOL
241 81 1 -0.847600 1.480000 13.920000 26.619999 # 1 SOL
242 81 2 0.423800 2.400000 13.550000 26.619999 # 2 SOL
243 81 2 0.423800 1.330000 14.429999 25.769999 # 2 SOL
244 82 1 -0.847600 1.480000 13.920000 29.730000 # 1 SOL
245 82 2 0.423800 2.400000 13.550000 29.730000 # 2 SOL
246 82 2 0.423800 1.330000 14.429999 28.880001 # 2 SOL
247 83 1 -0.847600 1.480000 13.920000 32.840000 # 1 SOL
248 83 2 0.423800 2.400000 13.550000 32.840000 # 2 SOL
249 83 2 0.423800 1.330000 14.429999 31.989998 # 2 SOL
250 84 1 -0.847600 1.480000 13.920000 35.950001 # 1 SOL
251 84 2 0.423800 2.400000 13.550000 35.950001 # 2 SOL
252 84 2 0.423800 1.330000 14.429999 35.099998 # 2 SOL
253 85 1 -0.847600 1.480000 13.920000 39.059998 # 1 SOL
254 85 2 0.423800 2.400000 13.550000 39.059998 # 2 SOL
255 85 2 0.423800 1.330000 14.429999 38.209999 # 2 SOL
256 86 1 -0.847600 1.480000 13.920000 42.169998 # 1 SOL
257 86 2 0.423800 2.400000 13.550000 42.169998 # 2 SOL
258 86 2 0.423800 1.330000 14.429999 41.320000 # 2 SOL
259 87 1 -0.847600 1.480000 13.920000 45.279999 # 1 SOL
260 87 2 0.423800 2.400000 13.550000 45.279999 # 2 SOL
261 87 2 0.423800 1.330000 14.429999 44.430000 # 2 SOL
262 88 1 -0.847600 1.480000 13.920000 48.390003 # 1 SOL
263 88 2 0.423800 2.400000 13.550000 48.390003 # 2 SOL
264 88 2 0.423800 1.330000 14.429999 47.540001 # 2 SOL
265 89 1 -0.847600 1.480000 13.920000 51.490002 # 1 SOL
266 89 2 0.423800 2.400000 13.550000 51.490002 # 2 SOL
267 89 2 0.423800 1.330000 14.429999 50.639999 # 2 SOL
268 90 1 -0.847600 1.480000 13.920000 54.599998 # 1 SOL
269 90 2 0.423800 2.400000 13.550000 54.599998 # 2 SOL
270 90 2 0.423800 1.330000 14.429999 53.750000 # 2 SOL
271 91 1 -0.847600 1.480000 17.029999 1.750000 # 1 SOL
272 91 2 0.423800 2.400000 16.660000 1.750000 # 2 SOL
273 91 2 0.423800 1.330000 17.539999 0.900000 # 2 SOL
274 92 1 -0.847600 1.480000 17.029999 4.860000 # 1 SOL
275 92 2 0.423800 2.400000 16.660000 4.860000 # 2 SOL
276 92 2 0.423800 1.330000 17.539999 4.010000 # 2 SOL
277 93 1 -0.847600 1.480000 17.029999 7.970000 # 1 SOL
278 93 2 0.423800 2.400000 16.660000 7.970000 # 2 SOL
279 93 2 0.423800 1.330000 17.539999 7.120000 # 2 SOL
280 94 1 -0.847600 1.480000 17.029999 11.080000 # 1 SOL
281 94 2 0.423800 2.400000 16.660000 11.080000 # 2 SOL
282 94 2 0.423800 1.330000 17.539999 10.230000 # 2 SOL
283 95 1 -0.847600 1.480000 17.029999 14.190001 # 1 SOL
284 95 2 0.423800 2.400000 16.660000 14.190001 # 2 SOL
285 95 2 0.423800 1.330000 17.539999 13.340000 # 2 SOL
286 96 1 -0.847600 1.480000 17.029999 17.299999 # 1 SOL
287 96 2 0.423800 2.400000 16.660000 17.299999 # 2 SOL
288 96 2 0.423800 1.330000 17.539999 16.450001 # 2 SOL
289 97 1 -0.847600 1.480000 17.029999 20.410000 # 1 SOL
290 97 2 0.423800 2.400000 16.660000 20.410000 # 2 SOL
291 97 2 0.423800 1.330000 17.539999 19.559999 # 2 SOL
292 98 1 -0.847600 1.480000 17.029999 23.510000 # 1 SOL
293 98 2 0.423800 2.400000 16.660000 23.510000 # 2 SOL
294 98 2 0.423800 1.330000 17.539999 22.660000 # 2 SOL
295 99 1 -0.847600 1.480000 17.029999 26.619999 # 1 SOL
296 99 2 0.423800 2.400000 16.660000 26.619999 # 2 SOL
297 99 2 0.423800 1.330000 17.539999 25.769999 # 2 SOL
298 100 1 -0.847600 1.480000 17.029999 29.730000 # 1 SOL
299 100 2 0.423800 2.400000 16.660000 29.730000 # 2 SOL
300 100 2 0.423800 1.330000 17.539999 28.880001 # 2 SOL
301 101 1 -0.847600 1.480000 17.029999 32.840000 # 1 SOL
302 101 2 0.423800 2.400000 16.660000 32.840000 # 2 SOL
303 101 2 0.423800 1.330000 17.539999 31.989998 # 2 SOL
304 102 1 -0.847600 1.480000 17.029999 35.950001 # 1 SOL
305 102 2 0.423800 2.400000 16.660000 35.950001 # 2 SOL
306 102 2 0.423800 1.330000 17.539999 35.099998 # 2 SOL
307 103 1 -0.847600 1.480000 17.029999 39.059998 # 1 SOL
308 103 2 0.423800 2.400000 16.660000 39.059998 # 2 SOL
309 103 2 0.423800 1.330000 17.539999 38.209999 # 2 SOL
310 104 1 -0.847600 1.480000 17.029999 42.169998 # 1 SOL
311 104 2 0.423800 2.400000 16.660000 42.169998 # 2 SOL
312 104 2 0.423800 1.330000 17.539999 41.320000 # 2 SOL
313 105 1 -0.847600 1.480000 17.029999 45.279999 # 1 SOL
314 105 2 0.423800 2.400000 16.660000 45.279999 # 2 SOL
315 105 2 0.423800 1.330000 17.539999 44.430000 # 2 SOL
316 106 1 -0.847600 1.480000 17.029999 48.390003 # 1 SOL
317 106 2 0.423800 2.400000 16.660000 48.390003 # 2 SOL
318 106 2 0.423800 1.330000 17.539999 47.540001 # 2 SOL
319 107 1 -0.847600 1.480000 17.029999 51.490002 # 1 SOL
320 107 2 0.423800 2.400000 16.660000 51.490002 # 2 SOL
321 107 2 0.423800 1.330000 17.539999 50.639999 # 2 SOL
322 108 1 -0.847600 1.480000 17.029999 54.599998 # 1 SOL
323 108 2 0.423800 2.400000 16.660000 54.599998 # 2 SOL
324 108 2 0.423800 1.330000 17.539999 53.750000 # 2 SOL
325 109 1 -0.847600 1.480000 20.139999 1.750000 # 1 SOL
326 109 2 0.423800 2.400000 19.770000 1.750000 # 2 SOL
327 109 2 0.423800 1.330000 20.650002 0.900000 # 2 SOL
328 110 1 -0.847600 1.480000 20.139999 4.860000 # 1 SOL
329 110 2 0.423800 2.400000 19.770000 4.860000 # 2 SOL
330 110 2 0.423800 1.330000 20.650002 4.010000 # 2 SOL
331 111 1 -0.847600 1.480000 20.139999 7.970000 # 1 SOL
332 111 2 0.423800 2.400000 19.770000 7.970000 # 2 SOL
333 111 2 0.423800 1.330000 20.650002 7.120000 # 2 SOL
334 112 1 -0.847600 1.480000 20.139999 11.080000 # 1 SOL
335 112 2 0.423800 2.400000 19.770000 11.080000 # 2 SOL
336 112 2 0.423800 1.330000 20.650002 10.230000 # 2 SOL
337 113 1 -0.847600 1.480000 20.139999 14.190001 # 1 SOL
338 113 2 0.423800 2.400000 19.770000 14.190001 # 2 SOL
339 113 2 0.423800 1.330000 20.650002 13.340000 # 2 SOL
340 114 1 -0.847600 1.480000 20.139999 17.299999 # 1 SOL
341 114 2 0.423800 2.400000 19.770000 17.299999 # 2 SOL
342 114 2 0.423800 1.330000 20.650002 16.450001 # 2 SOL
343 115 1 -0.847600 1.480000 20.139999 20.410000 # 1 SOL
344 115 2 0.423800 2.400000 19.770000 20.410000 # 2 SOL
345 115 2 0.423800 1.330000 20.650002 19.559999 # 2 SOL
346 116 1 -0.847600 1.480000 20.139999 23.510000 # 1 SOL
347 116 2 0.423800 2.400000 19.770000 23.510000 # 2 SOL
348 116 2 0.423800 1.330000 20.650002 22.660000 # 2 SOL
349 117 1 -0.847600 1.480000 20.139999 26.619999 # 1 SOL
350 117 2 0.423800 2.400000 19.770000 26.619999 # 2 SOL
351 117 2 0.423800 1.330000 20.650002 25.769999 # 2 SOL
352 118 1 -0.847600 1.480000 20.139999 29.730000 # 1 SOL
353 118 2 0.423800 2.400000 19.770000 29.730000 # 2 SOL
354 118 2 0.423800 1.330000 20.650002 28.880001 # 2 SOL
355 119 1 -0.847600 1.480000 20.139999 32.840000 # 1 SOL
356 119 2 0.423800 2.400000 19.770000 32.840000 # 2 SOL
357 119 2 0.423800 1.330000 20.650002 31.989998 # 2 SOL
358 120 1 -0.847600 1.480000 20.139999 35.950001 # 1 SOL
359 120 2 0.423800 2.400000 19.770000 35.950001 # 2 SOL
360 120 2 0.423800 1.330000 20.650002 35.099998 # 2 SOL
361 121 1 -0.847600 1.480000 20.139999 39.059998 # 1 SOL
362 121 2 0.423800 2.400000 19.770000 39.059998 # 2 SOL
363 121 2 0.423800 1.330000 20.650002 38.209999 # 2 SOL
364 122 1 -0.847600 1.480000 20.139999 42.169998 # 1 SOL
365 122 2 0.423800 2.400000 19.770000 42.169998 # 2 SOL
366 122 2 0.423800 1.330000 20.650002 41.320000 # 2 SOL
367 123 1 -0.847600 1.480000 20.139999 45.279999 # 1 SOL
368 123 2 0.423800 2.400000 19.770000 45.279999 # 2 SOL
369 123 2 0.423800 1.330000 20.650002 44.430000 # 2 SOL
370 124 1 -0.847600 1.480000 20.139999 48.390003 # 1 SOL
371 124 2 0.423800 2.400000 19.770000 48.390003 # 2 SOL
372 124 2 0.423800 1.330000 20.650002 47.540001 # 2 SOL
373 125 1 -0.847600 1.480000 20.139999 51.490002 # 1 SOL
374 125 2 0.423800 2.400000 19.770000 51.490002 # 2 SOL
375 125 2 0.423800 1.330000 20.650002 50.639999 # 2 SOL
376 126 1 -0.847600 1.480000 20.139999 54.599998 # 1 SOL
377 126 2 0.423800 2.400000 19.770000 54.599998 # 2 SOL
378 126 2 0.423800 1.330000 20.650002 53.750000 # 2 SOL
379 127 1 -0.847600 1.480000 23.250000 1.750000 # 1 SOL
380 127 2 0.423800 2.400000 22.880001 1.750000 # 2 SOL
381 127 2 0.423800 1.330000 23.750000 0.900000 # 2 SOL
382 128 1 -0.847600 1.480000 23.250000 4.860000 # 1 SOL
383 128 2 0.423800 2.400000 22.880001 4.860000 # 2 SOL
384 128 2 0.423800 1.330000 23.750000 4.010000 # 2 SOL
385 129 1 -0.847600 1.480000 23.250000 7.970000 # 1 SOL
386 129 2 0.423800 2.400000 22.880001 7.970000 # 2 SOL
387 129 2 0.423800 1.330000 23.750000 7.120000 # 2 SOL
388 130 1 -0.847600 1.480000 23.250000 11.080000 # 1 SOL
389 130 2 0.423800 2.400000 22.880001 11.080000 # 2 SOL
390 130 2 0.423800 1.330000 23.750000 10.230000 # 2 SOL
391 131 1 -0.847600 1.480000 23.250000 14.190001 # 1 SOL
392 131 2 0.423800 2.400000 22.880001 14.190001 # 2 SOL
393 131 2 0.423800 1.330000 23.750000 13.340000 # 2 SOL
394 132 1 -0.847600 1.480000 23.250000 17.299999 # 1 SOL
395 132 2 0.423800 2.400000 22.880001 17.299999 # 2 SOL
396 132 2 0.423800 1.330000 23.750000 16.450001 # 2 SOL
397 133 1 -0.847600 1.480000 23.250000 20.410000 # 1 SOL
398 133 2 0.423800 2.400000 22.880001 20.410000 # 2 SOL
399 133 2 0.423800 1.330000 23.750000 19.559999 # 2 SOL
400 134 1 -0.847600 1.480000 23.250000 23.510000 # 1 SOL
401 134 2 0.423800 2.400000 22.880001 23.510000 # 2 SOL
402 134 2 0.423800 1.330000 23.750000 22.660000 # 2 SOL
403 135 1 -0.847600 1.480000 23.250000 26.619999 # 1 SOL
404 135 2 0.423800 2.400000 22.880001 26.619999 # 2 SOL
405 135 2 0.423800 1.330000 23.750000 25.769999 # 2 SOL
406 136 1 -0.847600 1.480000 23.250000 29.730000 # 1 SOL
407 136 2 0.423800 2.400000 22.880001 29.730000 # 2 SOL
408 136 2 0.423800 1.330000 23.750000 28.880001 # 2 SOL
409 137 1 -0.847600 1.480000 23.250000 32.840000 # 1 SOL
410 137 2 0.423800 2.400000 22.880001 32.840000 # 2 SOL
411 137 2 0.423800 1.330000 23.750000 31.989998 # 2 SOL
412 138 1 -0.847600 1.480000 23.250000 35.950001 # 1 SOL
413 138 2 0.423800 2.400000 22.880001 35.950001 # 2 SOL
414 138 2 0.423800 1.330000 23.750000 35.099998 # 2 SOL
415 139 1 -0.847600 1.480000 23.250000 39.059998 # 1 SOL
416 139 2 0.423800 2.400000 22.880001 39.059998 # 2 SOL
417 139 2 0.423800 1.330000 23.750000 38.209999 # 2 SOL
418 140 1 -0.847600 1.480000 23.250000 42.169998 # 1 SOL
419 140 2 0.423800 2.400000 22.880001 42.169998 # 2 SOL
420 140 2 0.423800 1.330000 23.750000 41.320000 # 2 SOL
421 141 1 -0.847600 1.480000 23.250000 45.279999 # 1 SOL
422 141 2 0.423800 2.400000 22.880001 45.279999 # 2 SOL
423 141 2 0.423800 1.330000 23.750000 44.430000 # 2 SOL
424 142 1 -0.847600 1.480000 23.250000 48.390003 # 1 SOL
425 142 2 0.423800 2.400000 22.880001 48.390003 # 2 SOL
426 142 2 0.423800 1.330000 23.750000 47.540001 # 2 SOL
427 143 1 -0.847600 1.480000 23.250000 51.490002 # 1 SOL
428 143 2 0.423800 2.400000 22.880001 51.490002 # 2 SOL
429 143 2 0.423800 1.330000 23.750000 50.639999 # 2 SOL
430 144 1 -0.847600 1.480000 23.250000 54.599998 # 1 SOL
431 144 2 0.423800 2.400000 22.880001 54.599998 # 2 SOL
432 144 2 0.423800 1.330000 23.750000 53.750000 # 2 SOL
433 145 1 -0.847600 1.480000 26.350000 1.750000 # 1 SOL
434 145 2 0.423800 2.400000 25.980000 1.750000 # 2 SOL
435 145 2 0.423800 1.330000 26.860001 0.900000 # 2 SOL
436 146 1 -0.847600 1.480000 26.350000 4.860000 # 1 SOL
437 146 2 0.423800 2.400000 25.980000 4.860000 # 2 SOL
438 146 2 0.423800 1.330000 26.860001 4.010000 # 2 SOL
439 147 1 -0.847600 1.480000 26.350000 7.970000 # 1 SOL
440 147 2 0.423800 2.400000 25.980000 7.970000 # 2 SOL
441 147 2 0.423800 1.330000 26.860001 7.120000 # 2 SOL
442 148 1 -0.847600 1.480000 26.350000 11.080000 # 1 SOL
443 148 2 0.423800 2.400000 25.980000 11.080000 # 2 SOL
444 148 2 0.423800 1.330000 26.860001 10.230000 # 2 SOL
445 149 1 -0.847600 1.480000 26.350000 14.190001 # 1 SOL
446 149 2 0.423800 2.400000 25.980000 14.190001 # 2 SOL
447 149 2 0.423800 1.330000 26.860001 13.340000 # 2 SOL
448 150 1 -0.847600 1.480000 26.350000 17.299999 # 1 SOL
449 150 2 0.423800 2.400000 25.980000 17.299999 # 2 SOL
450 150 2 0.423800 1.330000 26.860001 16.450001 # 2 SOL
451 151 1 -0.847600 1.480000 26.350000 20.410000 # 1 SOL
452 151 2 0.423800 2.400000 25.980000 20.410000 # 2 SOL
453 151 2 0.423800 1.330000 26.860001 19.559999 # 2 SOL
454 152 1 -0.847600 1.480000 26.350000 23.510000 # 1 SOL
455 152 2 0.423800 2.400000 25.980000 23.510000 # 2 SOL
456 152 2 0.423800 1.330000 26.860001 22.660000 # 2 SOL
457 153 1 -0.847600 1.480000 26.350000 26.619999 # 1 SOL
458 153 2 0.423800 2.400000 25.980000 26.619999 # 2 SOL
459 153 2 0.423800 1.330000 26.860001 25.769999 # 2 SOL
460 154 1 -0.847600 1.480000 26.350000 29.730000 # 1 SOL
461 154 2 0.423800 2.400000 25.980000 29.730000 # 2 SOL
462 154 2 0.423800 1.330000 26.860001 28.880001 # 2 SOL
463 155 1 -0.847600 1.480000 26.350000 32.840000 # 1 SOL
464 155 2 0.423800 2.400000 25.980000 32.840000 # 2 SOL
465 155 2 0.423800 1.330000 26.860001 31.989998 # 2 SOL
466 156 1 -0.847600 1.480000 26.350000 35.950001 # 1 SOL
467 156 2 0.423800 2.400000 25.980000 35.950001 # 2 SOL
468 156 2 0.423800 1.330000 26.860001 35.099998 # 2 SOL
469 157 1 -0.847600 1.480000 26.350000 39.059998 # 1 SOL
470 157 2 0.423800 2.400000 25.980000 39.059998 # 2 SOL
471 157 2 0.423800 1.330000 26.860001 38.209999 # 2 SOL
472 158 1 -0.847600 1.480000 26.350000 42.169998 # 1 SOL
473 158 2 0.423800 2.400000 25.980000 42.169998 # 2 SOL
474 158 2 0.423800 1.330000 26.860001 41.320000 # 2 SOL
475 159 1 -0.847600 1.480000 26.350000 45.279999 # 1 SOL
476 159 2 0.423800 2.400000 25.980000 45.279999 # 2 SOL
477 159 2 0.423800 1.330000 26.860001 44.430000 # 2 SOL
478 160 1 -0.847600 1.480000 26.350000 48.390003 # 1 SOL
479 160 2 0.423800 2.400000 25.980000 48.390003 # 2 SOL
480 160 2 0.423800 1.330000 26.860001 47.540001 # 2 SOL
481 161 1 -0.847600 1.480000 26.350000 51.490002 # 1 SOL
482 161 2 0.423800 2.400000 25.980000 51.490002 # 2 SOL
483 161 2 0.423800 1.330000 26.860001 50.639999 # 2 SOL
484 162 1 -0.847600 1.480000 26.350000 54.599998 # 1 SOL
485 162 2 0.423800 2.400000 25.980000 54.599998 # 2 SOL
486 162 2 0.423800 1.330000 26.860001 53.750000 # 2 SOL
487 163 1 -0.847600 1.480000 29.460001 1.750000 # 1 SOL
488 163 2 0.423800 2.400000 29.090000 1.750000 # 2 SOL
489 163 2 0.423800 1.330000 29.969999 0.900000 # 2 SOL
490 164 1 -0.847600 1.480000 29.460001 4.860000 # 1 SOL
491 164 2 0.423800 2.400000 29.090000 4.860000 # 2 SOL
492 164 2 0.423800 1.330000 29.969999 4.010000 # 2 SOL
493 165 1 -0.847600 1.480000 29.460001 7.970000 # 1 SOL
494 165 2 0.423800 2.400000 29.090000 7.970000 # 2 SOL
495 165 2 0.423800 1.330000 29.969999 7.120000 # 2 SOL
496 166 1 -0.847600 1.480000 29.460001 11.080000 # 1 SOL
497 166 2 0.423800 2.400000 29.090000 11.080000 # 2 SOL
498 166 2 0.423800 1.330000 29.969999 10.230000 # 2 SOL
499 167 1 -0.847600 1.480000 29.460001 14.190001 # 1 SOL
500 167 2 0.423800 2.400000 29.090000 14.190001 # 2 SOL
501 167 2 0.423800 1.330000 29.969999 13.340000 # 2 SOL
502 168 1 -0.847600 1.480000 29.460001 17.299999 # 1 SOL
503 168 2 0.423800 2.400000 29.090000 17.299999 # 2 SOL
504 168 2 0.423800 1.330000 29.969999 16.450001 # 2 SOL
505 169 1 -0.847600 1.480000 29.460001 20.410000 # 1 SOL
506 169 2 0.423800 2.400000 29.090000 20.410000 # 2 SOL
507 169 2 0.423800 1.330000 29.969999 19.559999 # 2 SOL
508 170 1 -0.847600 1.480000 29.460001 23.510000 # 1 SOL
509 170 2 0.423800 2.400000 29.090000 23.510000 # 2 SOL
510 170 2 0.423800 1.330000 29.969999 22.660000 # 2 SOL
511 171 1 -0.847600 1.480000 29.460001 26.619999 # 1 SOL
512 171 2 0.423800 2.400000 29.090000 26.619999 # 2 SOL
513 171 2 0.423800 1.330000 29.969999 25.769999 # 2 SOL
514 172 1 -0.847600 1.480000 29.460001 29.730000 # 1 SOL
515 172 2 0.423800 2.400000 29.090000 29.730000 # 2 SOL
516 172 2 0.423800 1.330000 29.969999 28.880001 # 2 SOL
517 173 1 -0.847600 1.480000 29.460001 32.840000 # 1 SOL
518 173 2 0.423800 2.400000 29.090000 32.840000 # 2 SOL
519 173 2 0.423800 1.330000 29.969999 31.989998 # 2 SOL
520 174 1 -0.847600 1.480000 29.460001 35.950001 # 1 SOL
521 174 2 0.423800 2.400000 29.090000 35.950001 # 2 SOL
522 174 2 0.423800 1.330000 29.969999 35.099998 # 2 SOL
523 175 1 -0.847600 1.480000 29.460001 39.059998 # 1 SOL
524 175 2 0.423800 2.400000 29.090000 39.059998 # 2 SOL
525 175 2 0.423800 1.330000 29.969999 38.209999 # 2 SOL
526 176 1 -0.847600 1.480000 29.460001 42.169998 # 1 SOL
527 176 2 0.423800 2.400000 29.090000 42.169998 # 2 SOL