LAMMPS (12 Apr 2014)
# created by fftool

print "Methane in TIP4P water"
Methane in TIP4P water

units real
boundary p p p

atom_style full
bond_style harmonic
angle_style harmonic
special_bonds lj/coul 0.0 0.0 0.5

read_data data.lmp
  orthogonal box = (-13.4438 -13.4438 -13.4438) to (13.4438 13.4438 13.4438)
  1 by 2 by 3 MPI processor grid
  reading atoms ...
  1085 atoms
  scanning bonds ...
  1 = max bonds/atom
  scanning angles ...
  6 = max angles/atom
  reading bonds ...
  724 bonds
  reading angles ...
  366 angles
  4 = max # of 1-2 neighbors
  3 = max # of 1-3 neighbors
  3 = max # of 1-4 neighbors
  4 = max # of special neighbors

pair_style hybrid   lj/cut/coul/long 10.0 10.0   lj/cut/tip4p/long/soft 3 4 2 2 0.125 1 0.5 10.0 10.0 10.0
pair_modify tail no
kspace_style pppm/tip4p 1.0e-4

pair_coeff    1    1  lj/cut/coul/long    0.0660   3.5000  # C4H C4H
pair_coeff    1    2  lj/cut/coul/long    0.0445   2.9580  # C4H H
pair_coeff    2    2  lj/cut/coul/long    0.0300   2.5000  # H H
pair_coeff    3    3  lj/cut/tip4p/long/soft   0.1628   3.1644  1.0  # Ow Ow
pair_coeff    3    4  lj/cut/tip4p/long/soft   0.0000   1.0000  1.0  # Ow Hw
pair_coeff    4    4  lj/cut/tip4p/long/soft   0.0000   1.0000  1.0  # Hw Hw

pair_coeff    1    3  lj/cut/tip4p/long/soft   0.1036   3.3279  0.0  # C4H Ow
pair_coeff    1    4  lj/cut/tip4p/long/soft   0.0000   1.0000  0.0  # C4H Hw
pair_coeff    2    3  lj/cut/tip4p/long/soft   0.0699   2.8126  0.0  # H Ow
pair_coeff    2    4  lj/cut/tip4p/long/soft   0.0000   1.0000  0.0  # H Hw

variable nsteps equal 2500000
variable nprint equal ${nsteps}/500
variable nprint equal 2500000/500
variable ndump equal ${nsteps}/100
variable ndump equal 2500000/100

variable temp equal 300.0
variable press equal 1.0

fix fSHAKE all shake 0.0001 20 ${nprint} b 2 a 2
fix fSHAKE all shake 0.0001 20 5000 b 2 a 2
  0 = # of size 2 clusters
  0 = # of size 3 clusters
  0 = # of size 4 clusters
  360 = # of frozen angles

neighbor 2.0 bin

timestep 2.0

velocity all create ${temp} 12345
velocity all create 300 12345

thermo_style multi
thermo ${nprint}
thermo 5000

fix fNPT all npt temp ${temp} ${temp} 100 iso ${press} ${press} 1000
fix fNPT all npt temp 300 ${temp} 100 iso ${press} ${press} 1000
fix fNPT all npt temp 300 300 100 iso ${press} ${press} 1000
fix fNPT all npt temp 300 300 100 iso 1 ${press} 1000
fix fNPT all npt temp 300 300 100 iso 1 1 1000

run 250000
PPPM initialization ...
  G vector (1/distance) = 0.270215
  grid = 15 15 15
  stencil order = 5
  estimated absolute RMS force accuracy = 0.0258727
  estimated relative force accuracy = 7.7915e-05
  using double precision FFTs
  3d grid and FFT values/proc = 3696 675
SHAKE stats (type/ave/delta) on step 0
  2 0.9572 1.71599e-05
  2 104.52 0.00161974
Memory usage per processor = 5.49587 Mbytes
---------------- Step        0 ----- CPU =      0.0000 (sec) ----------------
TotEng   =       548.4796 KinEng   =       647.4319 Temp     =       300.0000 
PotEng   =       -98.9523 E_bond   =         0.0000 E_angle  =         0.1685 
E_dihed  =         0.0000 E_impro  =         0.0000 E_vdwl   =      -203.1677 
E_coul   =     29920.5812 E_long   =    -29816.5343 Press    =      1377.9650 
Volume   =     19438.0383 
SHAKE stats (type/ave/delta) on step 5000
  2 0.956968 4.77628e-06
  2 104.52 0.000366538
---------------- Step     5000 ----- CPU =     42.1518 (sec) ----------------
TotEng   =     -3261.6530 KinEng   =       675.4307 Temp     =       312.9738 
PotEng   =     -3937.0837 E_bond   =         0.0236 E_angle  =         0.3781 
E_dihed  =         0.0000 E_impro  =         0.0000 E_vdwl   =       701.8532 
E_coul   =     25375.4347 E_long   =    -30014.7734 Press    =      -888.2693 
Volume   =     11066.8588 
SHAKE stats (type/ave/delta) on step 10000
  2 0.957012 1.18919e-05
  2 104.52 0.00072573
---------------- Step    10000 ----- CPU =     88.2198 (sec) ----------------
TotEng   =     -3350.2405 KinEng   =       632.1568 Temp     =       292.9220 
PotEng   =     -3982.3973 E_bond   =         0.1222 E_angle  =         0.2802 
E_dihed  =         0.0000 E_impro  =         0.0000 E_vdwl   =       797.9283 
E_coul   =     25235.0410 E_long   =    -30015.7690 Press    =       860.1290 
Volume   =     10823.1490 
SHAKE stats (type/ave/delta) on step 15000
  2 0.957028 5.94589e-06
  2 104.52 0.000452914
---------------- Step    15000 ----- CPU =    133.8343 (sec) ----------------
TotEng   =     -3253.3514 KinEng   =       658.5546 Temp     =       305.1539 
PotEng   =     -3911.9059 E_bond   =         0.1628 E_angle  =         0.2740 
E_dihed  =         0.0000 E_impro  =         0.0000 E_vdwl   =       762.8094 
E_coul   =     25338.6631 E_long   =    -30013.8153 Press    =       965.2953 
Volume   =     10852.2681 
SHAKE stats (type/ave/delta) on step 20000
  2 0.95701 7.89244e-06
  2 104.52 0.000606133
---------------- Step    20000 ----- CPU =    180.0516 (sec) ----------------
TotEng   =     -3335.3868 KinEng   =       640.8566 Temp     =       296.9532 
PotEng   =     -3976.2434 E_bond   =         0.1646 E_angle  =         0.3530 
E_dihed  =         0.0000 E_impro  =         0.0000 E_vdwl   =       788.3216 
E_coul   =     25251.4611 E_long   =    -30016.5438 Press    =       991.0030 
Volume   =     10827.2117 
SHAKE stats (type/ave/delta) on step 25000
  2 0.956982 4.95943e-06
  2 104.52 0.000416774
---------------- Step    25000 ----- CPU =    225.7045 (sec) ----------------
TotEng   =     -3285.7314 KinEng   =       646.3870 Temp     =       299.5158 
PotEng   =     -3932.1184 E_bond   =         0.0967 E_angle  =         0.4742 
E_dihed  =         0.0000 E_impro  =         0.0000 E_vdwl   =       738.4949 
E_coul   =     25343.9098 E_long   =    -30015.0940 Press    =       241.6040 
Volume   =     10872.6141 
SHAKE stats (type/ave/delta) on step 30000
  2 0.957056 5.61182e-06
  2 104.52 0.000408936
---------------- Step    30000 ----- CPU =    271.2834 (sec) ----------------
TotEng   =     -3318.8395 KinEng   =       648.4176 Temp     =       300.4567 
PotEng   =     -3967.2570 E_bond   =         0.1351 E_angle  =         0.5602 
E_dihed  =         0.0000 E_impro  =         0.0000 E_vdwl   =       725.8163 
E_coul   =     25324.0564 E_long   =    -30017.8250 Press    =      -265.2656 
Volume   =     10781.4914 
SHAKE stats (type/ave/delta) on step 35000
  2 0.956985 8.2853e-06
  2 104.52 0.000556762
---------------- Step    35000 ----- CPU =    317.2246 (sec) ----------------
TotEng   =     -3299.5940 KinEng   =       660.3016 Temp     =       305.9634 
PotEng   =     -3959.8956 E_bond   =         0.3736 E_angle  =         1.7534 
E_dihed  =         0.0000 E_impro  =         0.0000 E_vdwl   =       729.1063 
E_coul   =     25324.1309 E_long   =    -30015.2598 Press    =      -158.5254 
Volume   =     10876.2249 
SHAKE stats (type/ave/delta) on step 40000
  2 0.957031 6.43591e-06
  2 104.52 0.000614817
---------------- Step    40000 ----- CPU =    363.1957 (sec) ----------------
TotEng   =     -3299.9588 KinEng   =       667.8986 Temp     =       309.4836 
PotEng   =     -3967.8574 E_bond   =         1.4133 E_angle  =         2.0654 
E_dihed  =         0.0000 E_impro  =         0.0000 E_vdwl   =       749.4264 
E_coul   =     25295.6354 E_long   =    -30016.3980 Press    =       589.5396 
Volume   =     10735.8951 
SHAKE stats (type/ave/delta) on step 45000
  2 0.956983 6.58241e-06
  2 104.52 0.000493721
---------------- Step    45000 ----- CPU =    409.6627 (sec) ----------------
TotEng   =     -3254.7978 KinEng   =       649.1467 Temp     =       300.7946 
PotEng   =     -3903.9444 E_bond   =         0.1729 E_angle  =         3.7133 
E_dihed  =         0.0000 E_impro  =         0.0000 E_vdwl   =       700.7228 
E_coul   =     25407.0641 E_long   =    -30015.6174 Press    =      -714.6113 
Volume   =     11080.9641 
SHAKE stats (type/ave/delta) on step 50000
  2 0.956917 7.18125e-06
  2 104.52 0.000555664
---------------- Step    50000 ----- CPU =    455.8146 (sec) ----------------
TotEng   =     -3219.8680 KinEng   =       652.5554 Temp     =       302.3740 
PotEng   =     -3872.4234 E_bond   =         0.7415 E_angle  =         3.6026 
E_dihed  =         0.0000 E_impro  =         0.0000 E_vdwl   =       685.7208 
E_coul   =     25451.5357 E_long   =    -30014.0240 Press    =      -283.5741 
Volume   =     11062.7961 
SHAKE stats (type/ave/delta) on step 55000
  2 0.95703 8.65925e-06
  2 104.52 0.000682672
---------------- Step    55000 ----- CPU =    502.5687 (sec) ----------------
TotEng   =     -3241.4708 KinEng   =       656.6128 Temp     =       304.2541 
PotEng   =     -3898.0836 E_bond   =         0.1563 E_angle  =         2.9743 
E_dihed  =         0.0000 E_impro  =         0.0000 E_vdwl   =       667.7689 
E_coul   =     25444.1233 E_long   =    -30013.1064 Press    =      -847.7078 
Volume   =     10862.9815 
SHAKE stats (type/ave/delta) on step 60000
  2 0.957024 6.999e-06
  2 104.52 0.000467865
---------------- Step    60000 ----- CPU =    547.6761 (sec) ----------------
TotEng   =     -3323.3213 KinEng   =       657.6342 Temp     =       304.7274 
PotEng   =     -3980.9555 E_bond   =         0.1265 E_angle  =         1.3334 
E_dihed  =         0.0000 E_impro  =         0.0000 E_vdwl   =       729.3079 
E_coul   =     25304.1427 E_long   =    -30015.8659 Press    =      -382.3928 
Volume   =     10833.4955 
SHAKE stats (type/ave/delta) on step 65000
  2 0.957017 6.16431e-06
  2 104.52 0.000698347
---------------- Step    65000 ----- CPU =    594.0854 (sec) ----------------
TotEng   =     -3269.5237 KinEng   =       652.6305 Temp     =       302.4089 
PotEng   =     -3922.1543 E_bond   =         0.5510 E_angle  =         2.3685 
E_dihed  =         0.0000 E_impro  =         0.0000 E_vdwl   =       650.1288 
E_coul   =     25437.7283 E_long   =    -30012.9309 Press    =     -1838.8479 
Volume   =     11019.4740 
SHAKE stats (type/ave/delta) on step 70000
  2 0.956962 8.47486e-06
  2 104.52 0.00072569
---------------- Step    70000 ----- CPU =    640.7091 (sec) ----------------
TotEng   =     -3250.4962 KinEng   =       679.0148 Temp     =       314.6345 
PotEng   =     -3929.5110 E_bond   =         0.6351 E_angle  =         2.1948 
E_dihed  =         0.0000 E_impro  =         0.0000 E_vdwl   =       741.9926 
E_coul   =     25342.1330 E_long   =    -30016.4665 Press    =       127.8404 
Volume   =     10892.6747 
SHAKE stats (type/ave/delta) on step 75000
  2 0.956984 5.3197e-06
  2 104.52 0.000491953
---------------- Step    75000 ----- CPU =    687.2848 (sec) ----------------
TotEng   =     -3245.1295 KinEng   =       647.0642 Temp     =       299.8296 
PotEng   =     -3892.1938 E_bond   =         0.9918 E_angle  =         2.0617 
E_dihed  =         0.0000 E_impro  =         0.0000 E_vdwl   =       775.2054 
E_coul   =     25344.9247 E_long   =    -30015.3773 Press    =       749.8880 
Volume   =     11036.5014 
SHAKE stats (type/ave/delta) on step 80000
  2 0.956989 1.10749e-05
  2 104.52 0.00095038
---------------- Step    80000 ----- CPU =    733.5927 (sec) ----------------
TotEng   =     -3277.7092 KinEng   =       659.0808 Temp     =       305.3977 
PotEng   =     -3936.7900 E_bond   =         0.0622 E_angle  =         1.2634 
E_dihed  =         0.0000 E_impro  =         0.0000 E_vdwl   =       753.1695 
E_coul   =     25324.8367 E_long   =    -30016.1219 Press    =       690.7946 
Volume   =     10661.6681 
SHAKE stats (type/ave/delta) on step 85000
  2 0.95696 1.4632e-05
  2 104.52 0.0014576
---------------- Step    85000 ----- CPU =    779.3722 (sec) ----------------
TotEng   =     -3350.1970 KinEng   =       644.9031 Temp     =       298.8282 
PotEng   =     -3995.1001 E_bond   =         0.2619 E_angle  =         1.7342 
E_dihed  =         0.0000 E_impro  =         0.0000 E_vdwl   =       726.6592 
E_coul   =     25291.9437 E_long   =    -30015.6990 Press    =      -603.0925 
Volume   =     10883.9729 
SHAKE stats (type/ave/delta) on step 90000
  2 0.957015 9.01738e-06
  2 104.52 0.000584204
---------------- Step    90000 ----- CPU =    825.4639 (sec) ----------------
TotEng   =     -3250.1864 KinEng   =       667.9152 Temp     =       309.4913 
PotEng   =     -3918.1017 E_bond   =         0.6827 E_angle  =         1.8989 
E_dihed  =         0.0000 E_impro  =         0.0000 E_vdwl   =       733.9144 
E_coul   =     25359.0232 E_long   =    -30013.6208 Press    =       -22.5886 
Volume   =     10875.0529 
SHAKE stats (type/ave/delta) on step 95000
  2 0.956966 4.45216e-06
  2 104.52 0.000468467
---------------- Step    95000 ----- CPU =    871.9788 (sec) ----------------
TotEng   =     -3226.5749 KinEng   =       686.4924 Temp     =       318.0994 
PotEng   =     -3913.0673 E_bond   =         0.4594 E_angle  =         2.3576 
E_dihed  =         0.0000 E_impro  =         0.0000 E_vdwl   =       707.7521 
E_coul   =     25394.0058 E_long   =    -30017.6422 Press    =      -590.0308 
Volume   =     11164.9080 
SHAKE stats (type/ave/delta) on step 100000
  2 0.956965 3.84316e-06
  2 104.52 0.000419589
---------------- Step   100000 ----- CPU =    917.8287 (sec) ----------------
TotEng   =     -3299.4886 KinEng   =       661.1259 Temp     =       306.3454 
PotEng   =     -3960.6145 E_bond   =         0.2970 E_angle  =         0.7014 
E_dihed  =         0.0000 E_impro  =         0.0000 E_vdwl   =       717.5829 
E_coul   =     25335.0081 E_long   =    -30014.2040 Press    =      -590.0463 
Volume   =     10966.0304 
SHAKE stats (type/ave/delta) on step 105000
  2 0.957028 7.13879e-06
  2 104.52 0.000586686
---------------- Step   105000 ----- CPU =    962.8296 (sec) ----------------
TotEng   =     -3289.9948 KinEng   =       651.9836 Temp     =       302.1091 
PotEng   =     -3941.9784 E_bond   =         0.2471 E_angle  =         1.3715 
E_dihed  =         0.0000 E_impro  =         0.0000 E_vdwl   =       700.8860 
E_coul   =     25369.5967 E_long   =    -30014.0797 Press    =      -995.6877 
Volume   =     11013.3668 
SHAKE stats (type/ave/delta) on step 110000
  2 0.956939 1.04553e-05
  2 104.52 0.000977278
---------------- Step   110000 ----- CPU =   1008.9450 (sec) ----------------
TotEng   =     -3276.5970 KinEng   =       618.5929 Temp     =       286.6369 
PotEng   =     -3895.1899 E_bond   =         0.5222 E_angle  =         1.5001 
E_dihed  =         0.0000 E_impro  =         0.0000 E_vdwl   =       669.2747 
E_coul   =     25446.0002 E_long   =    -30012.4870 Press    =     -1065.9462 
Volume   =     10924.4868 
SHAKE stats (type/ave/delta) on step 115000
  2 0.957031 6.35306e-06
  2 104.52 0.000479819
---------------- Step   115000 ----- CPU =   1055.6698 (sec) ----------------
TotEng   =     -3248.7233 KinEng   =       697.8955 Temp     =       323.3833 
PotEng   =     -3946.6188 E_bond   =         0.3911 E_angle  =         1.4356 
E_dihed  =         0.0000 E_impro  =         0.0000 E_vdwl   =       712.6401 
E_coul   =     25354.7831 E_long   =    -30015.8687 Press    =      -529.9856 
Volume   =     10997.6645 
SHAKE stats (type/ave/delta) on step 120000
  2 0.957048 9.35823e-06
  2 104.52 0.000786696
---------------- Step   120000 ----- CPU =   1101.3677 (sec) ----------------
TotEng   =     -3261.9928 KinEng   =       660.3334 Temp     =       305.9781 
PotEng   =     -3922.3262 E_bond   =         0.2038 E_angle  =         3.0592 
E_dihed  =         0.0000 E_impro  =         0.0000 E_vdwl   =       741.5641 
E_coul   =     25346.7929 E_long   =    -30013.9463 Press    =       366.9393 
Volume   =     10792.0763 
SHAKE stats (type/ave/delta) on step 125000
  2 0.95703 7.14548e-06
  2 104.52 0.00059386
---------------- Step   125000 ----- CPU =   1147.2581 (sec) ----------------
TotEng   =     -3210.8530 KinEng   =       637.6372 Temp     =       295.4614 
PotEng   =     -3848.4902 E_bond   =         0.2314 E_angle  =         0.9520 
E_dihed  =         0.0000 E_impro  =         0.0000 E_vdwl   =       683.7914 
E_coul   =     25481.9392 E_long   =    -30015.4041 Press    =      -753.9689 
Volume   =     11195.2292 
SHAKE stats (type/ave/delta) on step 130000
  2 0.956987 9.4431e-06
  2 104.52 0.00107295
---------------- Step   130000 ----- CPU =   1194.3133 (sec) ----------------
TotEng   =     -3237.1189 KinEng   =       656.3368 Temp     =       304.1262 
PotEng   =     -3893.4557 E_bond   =         0.2412 E_angle  =         1.0955 
E_dihed  =         0.0000 E_impro  =         0.0000 E_vdwl   =       658.1563 
E_coul   =     25458.0023 E_long   =    -30010.9510 Press    =     -1170.2654 
Volume   =     11004.7570 
SHAKE stats (type/ave/delta) on step 135000
  2 0.95709 1.22165e-05
  2 104.52 0.000883651
---------------- Step   135000 ----- CPU =   1240.1596 (sec) ----------------
TotEng   =     -3336.2683 KinEng   =       658.5569 Temp     =       305.1549 
PotEng   =     -3994.8251 E_bond   =         0.3943 E_angle  =         2.3077 
E_dihed  =         0.0000 E_impro  =         0.0000 E_vdwl   =       757.5759 
E_coul   =     25258.9883 E_long   =    -30014.0914 Press    =      -110.7044 
Volume   =     10907.1110 
SHAKE stats (type/ave/delta) on step 140000
  2 0.956975 4.83107e-06
  2 104.52 0.000488248
---------------- Step   140000 ----- CPU =   1285.8600 (sec) ----------------
TotEng   =     -3235.3660 KinEng   =       691.1155 Temp     =       320.2416 
PotEng   =     -3926.4815 E_bond   =         0.2526 E_angle  =         1.8747 
E_dihed  =         0.0000 E_impro  =         0.0000 E_vdwl   =       820.5012 
E_coul   =     25263.9340 E_long   =    -30013.0441 Press    =      1745.9023 
Volume   =     10890.7152 
SHAKE stats (type/ave/delta) on step 145000
  2 0.957001 5.22341e-06
  2 104.52 0.000565075
---------------- Step   145000 ----- CPU =   1331.0999 (sec) ----------------
TotEng   =     -3231.9934 KinEng   =       698.3624 Temp     =       323.5996 
PotEng   =     -3930.3558 E_bond   =         0.1289 E_angle  =         1.0878 
E_dihed  =         0.0000 E_impro  =         0.0000 E_vdwl   =       746.9974 
E_coul   =     25335.5893 E_long   =    -30014.1591 Press    =       217.9036 
Volume   =     10984.8547 
SHAKE stats (type/ave/delta) on step 150000
  2 0.95702 9.01208e-06
  2 104.52 0.000792029
---------------- Step   150000 ----- CPU =   1377.1755 (sec) ----------------
TotEng   =     -3284.2033 KinEng   =       640.6539 Temp     =       296.8593 
PotEng   =     -3924.8572 E_bond   =         0.6905 E_angle  =         1.6019 
E_dihed  =         0.0000 E_impro  =         0.0000 E_vdwl   =       719.3551 
E_coul   =     25366.9114 E_long   =    -30013.4161 Press    =      -634.8505 
Volume   =     11002.5408 
SHAKE stats (type/ave/delta) on step 155000
  2 0.956992 4.88837e-06
  2 104.52 0.000498395
---------------- Step   155000 ----- CPU =   1424.1113 (sec) ----------------
TotEng   =     -3285.0607 KinEng   =       645.7119 Temp     =       299.2030 
PotEng   =     -3930.7726 E_bond   =         0.3269 E_angle  =         0.8991 
E_dihed  =         0.0000 E_impro  =         0.0000 E_vdwl   =       717.0374 
E_coul   =     25364.1352 E_long   =    -30013.1713 Press    =      -319.9065 
Volume   =     11022.1151 
SHAKE stats (type/ave/delta) on step 160000
  2 0.957014 4.36225e-06
  2 104.52 0.000430434
---------------- Step   160000 ----- CPU =   1470.2902 (sec) ----------------
TotEng   =     -3284.8686 KinEng   =       669.9561 Temp     =       310.4370 
PotEng   =     -3954.8247 E_bond   =         0.0605 E_angle  =         1.0846 
E_dihed  =         0.0000 E_impro  =         0.0000 E_vdwl   =       734.3307 
E_coul   =     25322.8929 E_long   =    -30013.1935 Press    =      -177.1609 
Volume   =     10939.6940 
SHAKE stats (type/ave/delta) on step 165000
  2 0.957006 9.67824e-06
  2 104.52 0.000706776
---------------- Step   165000 ----- CPU =   1516.3087 (sec) ----------------
TotEng   =     -3255.4074 KinEng   =       675.8542 Temp     =       313.1700 
PotEng   =     -3931.2616 E_bond   =         0.7014 E_angle  =         0.7025 
E_dihed  =         0.0000 E_impro  =         0.0000 E_vdwl   =       722.6234 
E_coul   =     25358.6859 E_long   =    -30013.9748 Press    =       352.9565 
Volume   =     10747.7812 
SHAKE stats (type/ave/delta) on step 170000
  2 0.956965 4.77626e-06
  2 104.52 0.000401707
---------------- Step   170000 ----- CPU =   1561.5630 (sec) ----------------
TotEng   =     -3258.2644 KinEng   =       651.7962 Temp     =       302.0223 
PotEng   =     -3910.0606 E_bond   =         0.2779 E_angle  =         0.8190 
E_dihed  =         0.0000 E_impro  =         0.0000 E_vdwl   =       686.7077 
E_coul   =     25416.4394 E_long   =    -30014.3046 Press    =      -785.8779 
Volume   =     10943.2420 
SHAKE stats (type/ave/delta) on step 175000
  2 0.957002 6.06603e-06
  2 104.52 0.000487489
---------------- Step   175000 ----- CPU =   1607.9035 (sec) ----------------
TotEng   =     -3324.2215 KinEng   =       622.2995 Temp     =       288.3544 
PotEng   =     -3946.5210 E_bond   =         0.0541 E_angle  =         0.5692 
E_dihed  =         0.0000 E_impro  =         0.0000 E_vdwl   =       710.3517 
E_coul   =     25358.9376 E_long   =    -30016.4335 Press    =     -1174.3802 
Volume   =     11130.0495 
SHAKE stats (type/ave/delta) on step 180000
  2 0.956991 5.44625e-06
  2 104.52 0.000423557
---------------- Step   180000 ----- CPU =   1654.3561 (sec) ----------------
TotEng   =     -3279.6857 KinEng   =       612.0161 Temp     =       283.5894 
PotEng   =     -3891.7018 E_bond   =         0.3323 E_angle  =         1.2392 
E_dihed  =         0.0000 E_impro  =         0.0000 E_vdwl   =       678.1119 
E_coul   =     25443.6203 E_long   =    -30015.0055 Press    =      -862.1657 
Volume   =     10980.6252 
SHAKE stats (type/ave/delta) on step 185000
  2 0.957017 9.48599e-06
  2 104.52 0.000701994
---------------- Step   185000 ----- CPU =   1701.2287 (sec) ----------------
TotEng   =     -3308.2799 KinEng   =       595.0199 Temp     =       275.7139 
PotEng   =     -3903.2998 E_bond   =         0.0753 E_angle  =         0.6889 
E_dihed  =         0.0000 E_impro  =         0.0000 E_vdwl   =       750.2358 
E_coul   =     25359.3732 E_long   =    -30013.6730 Press    =       626.3829 
Volume   =     10787.3922 
SHAKE stats (type/ave/delta) on step 190000
  2 0.956959 7.6424e-06
  2 104.52 0.000681996
---------------- Step   190000 ----- CPU =   1747.5383 (sec) ----------------
TotEng   =     -3264.3621 KinEng   =       639.0031 Temp     =       296.0944 
PotEng   =     -3903.3653 E_bond   =         0.3424 E_angle  =         0.7981 
E_dihed  =         0.0000 E_impro  =         0.0000 E_vdwl   =       696.5881 
E_coul   =     25413.3057 E_long   =    -30014.3996 Press    =     -1002.1916 
Volume   =     11292.6496 
SHAKE stats (type/ave/delta) on step 195000
  2 0.956987 8.1644e-06
  2 104.52 0.000452502
---------------- Step   195000 ----- CPU =   1793.2064 (sec) ----------------
TotEng   =     -3354.7260 KinEng   =       612.9352 Temp     =       284.0153 
PotEng   =     -3967.6612 E_bond   =         0.1625 E_angle  =         0.9645 
E_dihed  =         0.0000 E_impro  =         0.0000 E_vdwl   =       699.8442 
E_coul   =     25345.5221 E_long   =    -30014.1546 Press    =      -973.5914 
Volume   =     10844.9906 
SHAKE stats (type/ave/delta) on step 200000
  2 0.957033 5.12299e-06
  2 104.52 0.000421499
---------------- Step   200000 ----- CPU =   1839.0222 (sec) ----------------
TotEng   =     -3281.1087 KinEng   =       623.0758 Temp     =       288.7141 
PotEng   =     -3904.1845 E_bond   =         0.0715 E_angle  =         1.0939 
E_dihed  =         0.0000 E_impro  =         0.0000 E_vdwl   =       698.0582 
E_coul   =     25408.0308 E_long   =    -30011.4389 Press    =      -776.5805 
Volume   =     11038.7545 
SHAKE stats (type/ave/delta) on step 205000
  2 0.956978 4.55978e-06
  2 104.52 0.000385713
---------------- Step   205000 ----- CPU =   1885.3538 (sec) ----------------
TotEng   =     -3246.6011 KinEng   =       653.5378 Temp     =       302.8293 
PotEng   =     -3900.1389 E_bond   =         0.1694 E_angle  =         0.3307 
E_dihed  =         0.0000 E_impro  =         0.0000 E_vdwl   =       697.5200 
E_coul   =     25418.0968 E_long   =    -30016.2558 Press    =      -887.2637 
Volume   =     11157.0520 
SHAKE stats (type/ave/delta) on step 210000
  2 0.956977 8.03622e-06
  2 104.52 0.000924772
---------------- Step   210000 ----- CPU =   1932.1321 (sec) ----------------
TotEng   =     -3281.4669 KinEng   =       656.1145 Temp     =       304.0232 
PotEng   =     -3937.5814 E_bond   =         0.0614 E_angle  =         0.8318 
E_dihed  =         0.0000 E_impro  =         0.0000 E_vdwl   =       717.7740 
E_coul   =     25361.3307 E_long   =    -30017.5793 Press    =      -207.5765 
Volume   =     10847.7256 
SHAKE stats (type/ave/delta) on step 215000
  2 0.956961 7.12639e-06
  2 104.52 0.000831357
---------------- Step   215000 ----- CPU =   1978.2927 (sec) ----------------
TotEng   =     -3274.7630 KinEng   =       668.5510 Temp     =       309.7859 
PotEng   =     -3943.3140 E_bond   =         0.0993 E_angle  =         0.7566 
E_dihed  =         0.0000 E_impro  =         0.0000 E_vdwl   =       711.4783 
E_coul   =     25360.1714 E_long   =    -30015.8195 Press    =      -695.5255 
Volume   =     11073.6289 
SHAKE stats (type/ave/delta) on step 220000
  2 0.956965 6.03075e-06
  2 104.52 0.000521382
---------------- Step   220000 ----- CPU =   2024.2877 (sec) ----------------
TotEng   =     -3306.4196 KinEng   =       630.5215 Temp     =       292.1642 
PotEng   =     -3936.9411 E_bond   =         0.0255 E_angle  =         0.8214 
E_dihed  =         0.0000 E_impro  =         0.0000 E_vdwl   =       699.3053 
E_coul   =     25378.5302 E_long   =    -30015.6236 Press    =      -520.5682 
Volume   =     10764.0966 
SHAKE stats (type/ave/delta) on step 225000
  2 0.957029 7.01426e-06
  2 104.52 0.000511497
---------------- Step   225000 ----- CPU =   2070.3525 (sec) ----------------
TotEng   =     -3278.6329 KinEng   =       639.6705 Temp     =       296.4036 
PotEng   =     -3918.3035 E_bond   =         0.0866 E_angle  =         1.1566 
E_dihed  =         0.0000 E_impro  =         0.0000 E_vdwl   =       745.0165 
E_coul   =     25347.6505 E_long   =    -30012.2136 Press    =       148.7011 
Volume   =     11048.8413 
SHAKE stats (type/ave/delta) on step 230000
  2 0.957002 5.67262e-06
  2 104.52 0.000425866
---------------- Step   230000 ----- CPU =   2115.5771 (sec) ----------------
TotEng   =     -3308.3905 KinEng   =       656.9594 Temp     =       304.4147 
PotEng   =     -3965.3499 E_bond   =         0.1041 E_angle  =         0.7477 
E_dihed  =         0.0000 E_impro  =         0.0000 E_vdwl   =       794.8971 
E_coul   =     25257.7179 E_long   =    -30018.8167 Press    =      1053.1112 
Volume   =     11021.7748 
SHAKE stats (type/ave/delta) on step 235000
  2 0.956992 8.51553e-06
  2 104.52 0.000522681
---------------- Step   235000 ----- CPU =   2161.4082 (sec) ----------------
TotEng   =     -3322.2716 KinEng   =       637.1935 Temp     =       295.2558 
PotEng   =     -3959.4651 E_bond   =         0.0684 E_angle  =         0.5009 
E_dihed  =         0.0000 E_impro  =         0.0000 E_vdwl   =       768.1126 
E_coul   =     25287.7069 E_long   =    -30015.8540 Press    =       715.3348 
Volume   =     10905.8659 
SHAKE stats (type/ave/delta) on step 240000
  2 0.956997 5.34547e-06
  2 104.52 0.000507774
---------------- Step   240000 ----- CPU =   2206.5145 (sec) ----------------
TotEng   =     -3322.1988 KinEng   =       680.2343 Temp     =       315.1996 
PotEng   =     -4002.4330 E_bond   =         0.1115 E_angle  =         1.4446 
E_dihed  =         0.0000 E_impro  =         0.0000 E_vdwl   =       741.1362 
E_coul   =     25270.8471 E_long   =    -30015.9723 Press    =      -480.3050 
Volume   =     10834.3737 
SHAKE stats (type/ave/delta) on step 245000
  2 0.957023 7.16271e-06
  2 104.52 0.000613841
---------------- Step   245000 ----- CPU =   2253.1810 (sec) ----------------
TotEng   =     -3216.6028 KinEng   =       660.4428 Temp     =       306.0288 
PotEng   =     -3877.0455 E_bond   =         0.3660 E_angle  =         1.1907 
E_dihed  =         0.0000 E_impro  =         0.0000 E_vdwl   =       695.8242 
E_coul   =     25439.8159 E_long   =    -30014.2423 Press    =      -192.2300 
Volume   =     10954.1892 
SHAKE stats (type/ave/delta) on step 250000
  2 0.956956 1.56888e-05
  2 104.52 0.00115842
---------------- Step   250000 ----- CPU =   2299.2720 (sec) ----------------
TotEng   =     -3317.8720 KinEng   =       637.0838 Temp     =       295.2050 
PotEng   =     -3954.9558 E_bond   =         0.0376 E_angle  =         0.9403 
E_dihed  =         0.0000 E_impro  =         0.0000 E_vdwl   =       713.4157 
E_coul   =     25346.8154 E_long   =    -30016.1649 Press    =      -587.3899 
Volume   =     10951.7519 
Loop time of 2299.27 on 6 procs for 250000 steps with 1085 atoms

Pair  time (%) = 1705.6 (74.1802)
Bond  time (%) = 0.273887 (0.0119119)
Kspce time (%) = 266.582 (11.5942)
Neigh time (%) = 66.0966 (2.87467)
Comm  time (%) = 91.7757 (3.99151)
Outpt time (%) = 0.00291359 (0.000126718)
Other time (%) = 168.937 (7.34742)

Nlocal:    180.833 ave 190 max 172 min
Histogram: 1 0 1 1 0 0 1 1 0 1
Nghost:    5066.83 ave 5116 max 5044 min
Histogram: 2 0 3 0 0 0 0 0 0 1
Neighs:    68886.7 ave 71528 max 66314 min
Histogram: 2 0 0 1 0 0 1 0 1 1

Total # of neighbors = 413320
Ave neighs/atom = 380.94
Ave special neighs/atom = 2.00922
Neighbor list builds = 19934
Dangerous builds = 2476

reset_timestep 0

variable lambda equal ramp(0.0,1.0)

fix fADAPT all adapt/fep 125000 pair lj/cut/tip4p/long/soft lambda 1*2 3*4 v_lambda after yes

variable dlambda equal 0.05

compute cFEP all fep ${temp} pair lj/cut/tip4p/long/soft lambda 1*2 3*4 v_dlambda
compute cFEP all fep 300 pair lj/cut/tip4p/long/soft lambda 1*2 3*4 v_dlambda

fix fFEP all ave/time 25 4000 125000 c_cFEP[1] c_cFEP[2] file fep01.lmp

# compute cRDF all rdf 100 3 3 3 4 4 4
# fix fRDF all ave/time 2000 500 ${nsteps} c_cRDF file rdf.lammps mode vector

group owater type 3
360 atoms in group owater
compute cMSD owater msd
fix fMSD owater ave/time 1 1 ${ndump} c_cMSD[1] c_cMSD[2] c_cMSD[3] c_cMSD[4] file msd.lammps
fix fMSD owater ave/time 1 1 25000 c_cMSD[1] c_cMSD[2] c_cMSD[3] c_cMSD[4] file msd.lammps

dump dCONF all custom ${ndump} dump.lammpstrj id mol type element x y z ix iy iz
dump dCONF all custom 25000 dump.lammpstrj id mol type element x y z ix iy iz
dump_modify dCONF element C H O H

run ${nsteps}
run 2500000
PPPM initialization ...
  G vector (1/distance) = 0.28573
  grid = 15 15 15
  stencil order = 5
  estimated absolute RMS force accuracy = 0.0145422
  estimated relative force accuracy = 4.37936e-05
  using double precision FFTs
  3d grid and FFT values/proc = 3696 675
FEP settings ...
  temperature = 300.000000
  tail no
  lj/cut/tip4p/long/soft lambda 1-2 3-4
SHAKE stats (type/ave/delta) on step 0
  2 0.956956 1.56888e-05
  2 104.52 0.00115842
Memory usage per processor = 7.2998 Mbytes
---------------- Step        0 ----- CPU =      0.0000 (sec) ----------------
TotEng   =     -3317.7893 KinEng   =       637.0838 Temp     =       295.2050 
PotEng   =     -3954.8731 E_bond   =         0.0376 E_angle  =         0.9403 
E_dihed  =         0.0000 E_impro  =         0.0000 E_vdwl   =       713.4157 
E_coul   =     27068.4151 E_long   =    -31737.6818 Press    =      -586.0302 
Volume   =     10951.7519 
SHAKE stats (type/ave/delta) on step 5000
  2 0.957022 5.18487e-06
  2 104.52 0.000397825
---------------- Step     5000 ----- CPU =     45.8029 (sec) ----------------
TotEng   =     -3210.1147 KinEng   =       657.0809 Temp     =       304.4710 
PotEng   =     -3867.1955 E_bond   =         0.0625 E_angle  =         1.1704 
E_dihed  =         0.0000 E_impro  =         0.0000 E_vdwl   =       770.6302 
E_coul   =     27096.0003 E_long   =    -31735.0590 Press    =      1070.3816 
Volume   =     11132.4310 
SHAKE stats (type/ave/delta) on step 10000
  2 0.957017 4.53181e-06
  2 104.52 0.000404742
---------------- Step    10000 ----- CPU =     91.8943 (sec) ----------------
TotEng   =     -3279.5294 KinEng   =       643.3725 Temp     =       298.1190 
PotEng   =     -3922.9019 E_bond   =         0.1620 E_angle  =         1.3446 
E_dihed  =         0.0000 E_impro  =         0.0000 E_vdwl   =       754.3192 
E_coul   =     27058.1261 E_long   =    -31736.8538 Press    =       654.9338 
Volume   =     10973.0228 
SHAKE stats (type/ave/delta) on step 15000
  2 0.957008 6.0649e-06
  2 104.52 0.000424725
---------------- Step    15000 ----- CPU =    137.8261 (sec) ----------------
TotEng   =     -3239.0235 KinEng   =       653.4613 Temp     =       302.7938 
PotEng   =     -3892.4848 E_bond   =         0.2169 E_angle  =         1.3733 
E_dihed  =         0.0000 E_impro  =         0.0000 E_vdwl   =       742.0443 
E_coul   =     27103.0568 E_long   =    -31739.1761 Press    =       577.7604 
Volume   =     10892.4178 
SHAKE stats (type/ave/delta) on step 20000
  2 0.956991 8.34477e-06
  2 104.52 0.000670139
---------------- Step    20000 ----- CPU =    183.6646 (sec) ----------------
TotEng   =     -3345.5191 KinEng   =       629.9077 Temp     =       291.8798 
PotEng   =     -3975.4268 E_bond   =         0.0933 E_angle  =         2.5915 
E_dihed  =         0.0000 E_impro  =         0.0000 E_vdwl   =       856.7924 
E_coul   =     26904.1424 E_long   =    -31739.0464 Press    =      2100.3988 
Volume   =     10886.1187 
SHAKE stats (type/ave/delta) on step 25000
  2 0.957021 4.23416e-06
  2 104.52 0.000422409
---------------- Step    25000 ----- CPU =    229.8620 (sec) ----------------
TotEng   =     -3306.8400 KinEng   =       650.5061 Temp     =       301.4245 
PotEng   =     -3957.3461 E_bond   =         0.1685 E_angle  =         1.1100 
E_dihed  =         0.0000 E_impro  =         0.0000 E_vdwl   =       780.8771 
E_coul   =     26996.1358 E_long   =    -31735.6375 Press    =      1059.3837 
Volume   =     10767.7219 
SHAKE stats (type/ave/delta) on step 30000
  2 0.957031 6.53054e-06
  2 104.52 0.000717541
---------------- Step    30000 ----- CPU =    278.5219 (sec) ----------------
TotEng   =     -3235.6639 KinEng   =       690.8332 Temp     =       320.1108 
PotEng   =     -3926.4971 E_bond   =         0.2780 E_angle  =         1.7477 
E_dihed  =         0.0000 E_impro  =         0.0000 E_vdwl   =       726.3939 
E_coul   =     27080.1784 E_long   =    -31735.0950 Press    =      -361.9679 
Volume   =     11132.1699 
SHAKE stats (type/ave/delta) on step 35000
  2 0.956977 6.73399e-06
  2 104.52 0.000555424
---------------- Step    35000 ----- CPU =    327.5849 (sec) ----------------
TotEng   =     -3271.9853 KinEng   =       644.1546 Temp     =       298.4814 
PotEng   =     -3916.1398 E_bond   =         0.2605 E_angle  =         1.3362 
E_dihed  =         0.0000 E_impro  =         0.0000 E_vdwl   =       731.3578 
E_coul   =     27089.0814 E_long   =    -31738.1758 Press    =       155.4860 
Volume   =     10834.2100 
SHAKE stats (type/ave/delta) on step 40000
  2 0.957033 1.10618e-05
  2 104.52 0.000971595
---------------- Step    40000 ----- CPU =    376.1343 (sec) ----------------
TotEng   =     -3276.8256 KinEng   =       641.3795 Temp     =       297.1955 
PotEng   =     -3918.2052 E_bond   =         0.4366 E_angle  =         1.2559 
E_dihed  =         0.0000 E_impro  =         0.0000 E_vdwl   =       723.8583 
E_coul   =     27094.7897 E_long   =    -31738.5456 Press    =      -333.6602 
Volume   =     11165.6815 
SHAKE stats (type/ave/delta) on step 45000
  2 0.956991 7.27808e-06
  2 104.52 0.000462359
---------------- Step    45000 ----- CPU =    423.0380 (sec) ----------------
TotEng   =     -3305.4768 KinEng   =       633.2454 Temp     =       293.4264 
PotEng   =     -3938.7223 E_bond   =         0.0892 E_angle  =         0.3176 
E_dihed  =         0.0000 E_impro  =         0.0000 E_vdwl   =       746.8690 
E_coul   =     27051.3895 E_long   =    -31737.3876 Press    =       528.0387 
Volume   =     10682.9279 
SHAKE stats (type/ave/delta) on step 50000
  2 0.957027 4.95492e-06
  2 104.52 0.000572622
---------------- Step    50000 ----- CPU =    471.6422 (sec) ----------------
TotEng   =     -3286.8480 KinEng   =       655.6879 Temp     =       303.8255 
PotEng   =     -3942.5359 E_bond   =         0.8049 E_angle  =         1.2430 
E_dihed  =         0.0000 E_impro  =         0.0000 E_vdwl   =       771.9839 
E_coul   =     27020.5102 E_long   =    -31737.0779 Press    =       713.1284 
Volume   =     10920.1944 
SHAKE stats (type/ave/delta) on step 55000
  2 0.957032 8.86739e-06
  2 104.52 0.000979198
---------------- Step    55000 ----- CPU =    520.4179 (sec) ----------------
TotEng   =     -3289.5937 KinEng   =       660.5791 Temp     =       306.0920 
PotEng   =     -3950.1728 E_bond   =         0.0604 E_angle  =         1.3416 
E_dihed  =         0.0000 E_impro  =         0.0000 E_vdwl   =       671.2528 
E_coul   =     27113.2838 E_long   =    -31736.1115 Press    =     -1018.0653 
Volume   =     10630.5483 
SHAKE stats (type/ave/delta) on step 60000
  2 0.957001 4.40006e-06
  2 104.52 0.000445069
---------------- Step    60000 ----- CPU =    569.3118 (sec) ----------------
TotEng   =     -3291.2307 KinEng   =       630.5979 Temp     =       292.1996 
PotEng   =     -3921.8286 E_bond   =         0.0866 E_angle  =         0.7558 
E_dihed  =         0.0000 E_impro  =         0.0000 E_vdwl   =       763.5626 
E_coul   =     27050.3718 E_long   =    -31736.6054 Press    =       850.8037 
Volume   =     10836.7407 
SHAKE stats (type/ave/delta) on step 65000
  2 0.956969 6.93331e-06
  2 104.52 0.000584579
---------------- Step    65000 ----- CPU =    618.2085 (sec) ----------------
TotEng   =     -3323.7501 KinEng   =       652.3679 Temp     =       302.2872 
PotEng   =     -3976.1180 E_bond   =         0.2765 E_angle  =         1.4066 
E_dihed  =         0.0000 E_impro  =         0.0000 E_vdwl   =       732.6808 
E_coul   =     27027.6008 E_long   =    -31738.0827 Press    =      -305.9971 
Volume   =     10874.4089 
SHAKE stats (type/ave/delta) on step 70000
  2 0.956991 2.20985e-05
  2 104.52 0.000944368
---------------- Step    70000 ----- CPU =    667.1622 (sec) ----------------
TotEng   =     -3335.3906 KinEng   =       642.7675 Temp     =       297.8386 
PotEng   =     -3978.1580 E_bond   =         0.7591 E_angle  =         1.7600 
E_dihed  =         0.0000 E_impro  =         0.0000 E_vdwl   =       747.0040 
E_coul   =     27012.3058 E_long   =    -31739.9870 Press    =       133.3509 
Volume   =     10784.1991 
SHAKE stats (type/ave/delta) on step 75000
  2 0.957006 1.81215e-05
  2 104.52 0.00109075
---------------- Step    75000 ----- CPU =    715.0514 (sec) ----------------
TotEng   =     -3282.0875 KinEng   =       640.0487 Temp     =       296.5788 
PotEng   =     -3922.1362 E_bond   =         0.1134 E_angle  =         2.1346 
E_dihed  =         0.0000 E_impro  =         0.0000 E_vdwl   =       777.1429 
E_coul   =     27036.0722 E_long   =    -31737.5992 Press    =       938.1891 
Volume   =     10914.6264 
SHAKE stats (type/ave/delta) on step 80000
  2 0.956994 8.25194e-06
  2 104.52 0.000479215
---------------- Step    80000 ----- CPU =    763.0254 (sec) ----------------
TotEng   =     -3338.7488 KinEng   =       622.8591 Temp     =       288.6137 
PotEng   =     -3961.6079 E_bond   =         0.0699 E_angle  =         2.6516 
E_dihed  =         0.0000 E_impro  =         0.0000 E_vdwl   =       745.9562 
E_coul   =     27027.0890 E_long   =    -31737.3747 Press    =       -71.8923 
Volume   =     10875.1683 
SHAKE stats (type/ave/delta) on step 85000
  2 0.956989 7.45287e-06
  2 104.52 0.000507058
---------------- Step    85000 ----- CPU =    811.2383 (sec) ----------------
TotEng   =     -3264.7654 KinEng   =       649.8485 Temp     =       301.1198 
PotEng   =     -3914.6139 E_bond   =         0.8795 E_angle  =         2.7008 
E_dihed  =         0.0000 E_impro  =         0.0000 E_vdwl   =       716.6112 
E_coul   =     27102.6178 E_long   =    -31737.4231 Press    =      -136.8185 
Volume   =     10933.7508 
SHAKE stats (type/ave/delta) on step 90000
  2 0.957052 5.98695e-06
  2 104.52 0.000367235
---------------- Step    90000 ----- CPU =    860.0198 (sec) ----------------
TotEng   =     -3270.7300 KinEng   =       644.8527 Temp     =       298.8049 
PotEng   =     -3915.5827 E_bond   =         0.0863 E_angle  =         2.5878 
E_dihed  =         0.0000 E_impro  =         0.0000 E_vdwl   =       772.7960 
E_coul   =     27044.4646 E_long   =    -31735.5175 Press    =       612.1084 
Volume   =     11191.2010 
SHAKE stats (type/ave/delta) on step 95000
  2 0.956995 5.63229e-06
  2 104.52 0.00054231
---------------- Step    95000 ----- CPU =    908.5084 (sec) ----------------
TotEng   =     -3281.0225 KinEng   =       630.3383 Temp     =       292.0793 
PotEng   =     -3911.3609 E_bond   =         0.2972 E_angle  =         0.6262 
E_dihed  =         0.0000 E_impro  =         0.0000 E_vdwl   =       757.1500 
E_coul   =     27068.5928 E_long   =    -31738.0270 Press    =       190.1640 
Volume   =     11036.8858 
SHAKE stats (type/ave/delta) on step 100000
  2 0.956979 7.37557e-06
  2 104.52 0.000610369
---------------- Step   100000 ----- CPU =    956.8882 (sec) ----------------
TotEng   =     -3321.8796 KinEng   =       626.4823 Temp     =       290.2926 
PotEng   =     -3948.3620 E_bond   =         0.0739 E_angle  =         0.5421 
E_dihed  =         0.0000 E_impro  =         0.0000 E_vdwl   =       759.2777 
E_coul   =     27025.9343 E_long   =    -31734.1899 Press    =       332.8049 
Volume   =     10882.5339 
SHAKE stats (type/ave/delta) on step 105000
  2 0.956949 1.14982e-05
  2 104.52 0.00145312
---------------- Step   105000 ----- CPU =   1005.5195 (sec) ----------------
TotEng   =     -3309.1607 KinEng   =       618.2082 Temp     =       286.4586 
PotEng   =     -3927.3689 E_bond   =         0.1354 E_angle  =         1.0053 
E_dihed  =         0.0000 E_impro  =         0.0000 E_vdwl   =       679.1024 
E_coul   =     27131.2253 E_long   =    -31738.8372 Press    =      -730.0264 
Volume   =     10737.1084 
SHAKE stats (type/ave/delta) on step 110000
  2 0.956957 9.17896e-06
  2 104.52 0.000800969
---------------- Step   110000 ----- CPU =   1054.4470 (sec) ----------------
TotEng   =     -3271.4493 KinEng   =       660.8804 Temp     =       306.2316 
PotEng   =     -3932.3298 E_bond   =         0.3002 E_angle  =         1.1945 
E_dihed  =         0.0000 E_impro  =         0.0000 E_vdwl   =       730.6492 
E_coul   =     27075.4525 E_long   =    -31739.9261 Press    =      -158.8395 
Volume   =     10955.4191 
SHAKE stats (type/ave/delta) on step 115000
  2 0.957021 7.42143e-06
  2 104.52 0.00055615
---------------- Step   115000 ----- CPU =   1103.2844 (sec) ----------------
TotEng   =     -3248.1267 KinEng   =       669.8718 Temp     =       310.3979 
PotEng   =     -3917.9985 E_bond   =         0.2315 E_angle  =         0.4127 
E_dihed  =         0.0000 E_impro  =         0.0000 E_vdwl   =       811.0717 
E_coul   =     27007.7960 E_long   =    -31737.5105 Press    =      1322.8682 
Volume   =     11048.4982 
SHAKE stats (type/ave/delta) on step 120000
  2 0.956999 7.96671e-06
  2 104.52 0.000579283
---------------- Step   120000 ----- CPU =   1151.4571 (sec) ----------------
TotEng   =     -3310.0145 KinEng   =       637.2246 Temp     =       295.2702 
PotEng   =     -3947.2391 E_bond   =         0.1451 E_angle  =         0.5016 
E_dihed  =         0.0000 E_impro  =         0.0000 E_vdwl   =       782.4019 
E_coul   =     27008.4440 E_long   =    -31738.7316 Press    =       646.2746 
Volume   =     10934.9299 
SHAKE stats (type/ave/delta) on step 125000
  2 0.956952 6.01232e-06
  2 104.52 0.000654633
---------------- Step   125000 ----- CPU =   1199.7230 (sec) ----------------
TotEng   =     -3281.0934 KinEng   =       619.3915 Temp     =       287.0069 
PotEng   =     -3900.4849 E_bond   =         0.1590 E_angle  =         1.1067 
E_dihed  =         0.0000 E_impro  =         0.0000 E_vdwl   =       755.7803 
E_coul   =     27079.9763 E_long   =    -31737.5072 Press    =       717.9892 
Volume   =     10972.8750 
SHAKE stats (type/ave/delta) on step 130000
  2 0.957033 5.59519e-06
  2 104.52 0.000531758
---------------- Step   130000 ----- CPU =   1245.8974 (sec) ----------------
TotEng   =     -3344.7481 KinEng   =       653.8682 Temp     =       302.9823 
PotEng   =     -3998.6163 E_bond   =         0.1029 E_angle  =         0.7229 
E_dihed  =         0.0000 E_impro  =         0.0000 E_vdwl   =       754.3354 
E_coul   =     26984.0494 E_long   =    -31737.8269 Press    =      -172.3705 
Volume   =     10862.9715 
SHAKE stats (type/ave/delta) on step 135000
  2 0.957036 9.73056e-06
  2 104.52 0.000871463
---------------- Step   135000 ----- CPU =   1292.2272 (sec) ----------------
TotEng   =     -3302.2800 KinEng   =       641.2780 Temp     =       297.1485 
PotEng   =     -3943.5580 E_bond   =         0.0789 E_angle  =         1.3995 
E_dihed  =         0.0000 E_impro  =         0.0000 E_vdwl   =       672.5185 
E_coul   =     27118.2677 E_long   =    -31735.8225 Press    =     -1578.2513 
Volume   =     11143.2818 
SHAKE stats (type/ave/delta) on step 140000
  2 0.956975 4.22525e-06
  2 104.52 0.000410356
---------------- Step   140000 ----- CPU =   1338.5107 (sec) ----------------
TotEng   =     -3334.9250 KinEng   =       645.6175 Temp     =       299.1593 
PotEng   =     -3980.5425 E_bond   =         0.1562 E_angle  =         1.4451 
E_dihed  =         0.0000 E_impro  =         0.0000 E_vdwl   =       809.6984 
E_coul   =     26944.0599 E_long   =    -31735.9020 Press    =       851.2756 
Volume   =     10953.8988 
SHAKE stats (type/ave/delta) on step 145000
  2 0.957007 4.22112e-06
  2 104.52 0.000396806
---------------- Step   145000 ----- CPU =   1384.3878 (sec) ----------------
TotEng   =     -3255.6490 KinEng   =       660.9967 Temp     =       306.2855 
PotEng   =     -3916.6456 E_bond   =         0.1446 E_angle  =         2.0249 
E_dihed  =         0.0000 E_impro  =         0.0000 E_vdwl   =       701.4165 
E_coul   =     27115.4315 E_long   =    -31735.6630 Press    =      -962.4281 
Volume   =     11180.1163 
SHAKE stats (type/ave/delta) on step 150000
  2 0.956991 6.00102e-06
  2 104.52 0.00041542
---------------- Step   150000 ----- CPU =   1429.9937 (sec) ----------------
TotEng   =     -3256.5165 KinEng   =       675.1656 Temp     =       312.8509 
PotEng   =     -3931.6821 E_bond   =         0.1526 E_angle  =         1.2645 
E_dihed  =         0.0000 E_impro  =         0.0000 E_vdwl   =       733.0012 
E_coul   =     27072.4564 E_long   =    -31738.5568 Press    =       360.2344 
Volume   =     10894.4303 
SHAKE stats (type/ave/delta) on step 155000
  2 0.956996 1.48218e-05
  2 104.52 0.00162271
---------------- Step   155000 ----- CPU =   1479.6437 (sec) ----------------
TotEng   =     -3330.1959 KinEng   =       628.5222 Temp     =       291.2378 
PotEng   =     -3958.7180 E_bond   =         0.3135 E_angle  =         1.3609 
E_dihed  =         0.0000 E_impro  =         0.0000 E_vdwl   =       703.6052 
E_coul   =     27072.4567 E_long   =    -31736.4543 Press    =     -1082.9832 
Volume   =     10950.8913 
SHAKE stats (type/ave/delta) on step 160000
  2 0.956989 7.69648e-06
  2 104.52 0.000486252
---------------- Step   160000 ----- CPU =   1528.1290 (sec) ----------------
TotEng   =     -3279.3656 KinEng   =       645.6459 Temp     =       299.1724 
PotEng   =     -3925.0115 E_bond   =         0.1590 E_angle  =         1.2673 
E_dihed  =         0.0000 E_impro  =         0.0000 E_vdwl   =       684.3269 
E_coul   =     27126.1725 E_long   =    -31736.9373 Press    =      -934.8837 
Volume   =     11041.3554 
SHAKE stats (type/ave/delta) on step 165000
  2 0.956971 7.32989e-06
  2 104.52 0.000623346
---------------- Step   165000 ----- CPU =   1579.0451 (sec) ----------------
TotEng   =     -3324.7703 KinEng   =       641.5662 Temp     =       297.2820 
PotEng   =     -3966.3365 E_bond   =         0.1759 E_angle  =         1.4368 
E_dihed  =         0.0000 E_impro  =         0.0000 E_vdwl   =       818.2663 
E_coul   =     26949.2926 E_long   =    -31735.5081 Press    =      1152.8597 
Volume   =     11010.1541 
SHAKE stats (type/ave/delta) on step 170000
  2 0.956987 1.08119e-05
  2 104.52 0.00101441
---------------- Step   170000 ----- CPU =   1627.4934 (sec) ----------------
TotEng   =     -3303.6805 KinEng   =       609.3868 Temp     =       282.3711 
PotEng   =     -3913.0673 E_bond   =         0.1110 E_angle  =         1.7140 
E_dihed  =         0.0000 E_impro  =         0.0000 E_vdwl   =       777.5629 
E_coul   =     27045.4702 E_long   =    -31737.9255 Press    =       993.1652 
Volume   =     10911.0550 
SHAKE stats (type/ave/delta) on step 175000
  2 0.95701 6.37324e-06
  2 104.52 0.000424177
---------------- Step   175000 ----- CPU =   1676.0626 (sec) ----------------
TotEng   =     -3295.3168 KinEng   =       655.6687 Temp     =       303.8167 
PotEng   =     -3950.9855 E_bond   =         0.2930 E_angle  =         1.4714 
E_dihed  =         0.0000 E_impro  =         0.0000 E_vdwl   =       740.4532 
E_coul   =     27042.4572 E_long   =    -31735.6603 Press    =       157.7193 
Volume   =     10842.1940 
SHAKE stats (type/ave/delta) on step 180000
  2 0.956998 7.31707e-06
  2 104.52 0.000507804
---------------- Step   180000 ----- CPU =   1724.7364 (sec) ----------------
TotEng   =     -3301.6028 KinEng   =       626.9665 Temp     =       290.5169 
PotEng   =     -3928.5693 E_bond   =         0.2745 E_angle  =         1.3952 
E_dihed  =         0.0000 E_impro  =         0.0000 E_vdwl   =       735.0397 
E_coul   =     27073.7844 E_long   =    -31739.0631 Press    =      -281.8689 
Volume   =     11090.4114 
SHAKE stats (type/ave/delta) on step 185000
  2 0.957004 6.8476e-06
  2 104.52 0.000545233
---------------- Step   185000 ----- CPU =   1772.8910 (sec) ----------------
TotEng   =     -3269.9581 KinEng   =       624.6795 Temp     =       289.4572 
PotEng   =     -3894.6376 E_bond   =         0.3021 E_angle  =         0.7232 
E_dihed  =         0.0000 E_impro  =         0.0000 E_vdwl   =       668.4709 
E_coul   =     27174.8301 E_long   =    -31738.9639 Press    =      -775.6738 
Volume   =     10824.9363 
SHAKE stats (type/ave/delta) on step 190000
  2 0.957008 5.36452e-06
  2 104.52 0.000403318
---------------- Step   190000 ----- CPU =   1821.6679 (sec) ----------------
TotEng   =     -3268.0362 KinEng   =       663.4869 Temp     =       307.4394 
PotEng   =     -3931.5231 E_bond   =         0.4297 E_angle  =         2.4843 
E_dihed  =         0.0000 E_impro  =         0.0000 E_vdwl   =       713.6304 
E_coul   =     27090.7899 E_long   =    -31738.8573 Press    =      -323.8265 
Volume   =     10926.3099 
SHAKE stats (type/ave/delta) on step 195000
  2 0.95702 4.5176e-06
  2 104.52 0.000374218
---------------- Step   195000 ----- CPU =   1870.2531 (sec) ----------------
TotEng   =     -3316.5254 KinEng   =       648.8663 Temp     =       300.6646 
PotEng   =     -3965.3917 E_bond   =         0.3019 E_angle  =         0.5383 
E_dihed  =         0.0000 E_impro  =         0.0000 E_vdwl   =       779.8806 
E_coul   =     26988.4798 E_long   =    -31734.5923 Press    =       508.1798 
Volume   =     10877.3384 
SHAKE stats (type/ave/delta) on step 200000
  2 0.956979 4.63919e-06
  2 104.52 0.000456019
---------------- Step   200000 ----- CPU =   1918.3164 (sec) ----------------
TotEng   =     -3215.7558 KinEng   =       651.2190 Temp     =       301.7548 
PotEng   =     -3866.9748 E_bond   =         0.5678 E_angle  =         0.6661 
E_dihed  =         0.0000 E_impro  =         0.0000 E_vdwl   =       688.9384 
E_coul   =     27179.3935 E_long   =    -31736.5406 Press    =       -58.5989 
Volume   =     10907.5369 
SHAKE stats (type/ave/delta) on step 205000
  2 0.956997 4.74452e-06
  2 104.52 0.000435271
---------------- Step   205000 ----- CPU =   1967.1018 (sec) ----------------
TotEng   =     -3257.2505 KinEng   =       654.3610 Temp     =       303.2107 
PotEng   =     -3911.6115 E_bond   =         0.4324 E_angle  =         1.6873 
E_dihed  =         0.0000 E_impro  =         0.0000 E_vdwl   =       748.8104 
E_coul   =     27073.3703 E_long   =    -31735.9119 Press    =       478.4983 
Volume   =     10892.6503 
SHAKE stats (type/ave/delta) on step 210000
  2 0.957028 9.2755e-06
  2 104.52 0.000720092
---------------- Step   210000 ----- CPU =   2015.0436 (sec) ----------------
TotEng   =     -3305.9432 KinEng   =       642.4308 Temp     =       297.6826 
PotEng   =     -3948.3740 E_bond   =         0.3480 E_angle  =         2.2906 
E_dihed  =         0.0000 E_impro  =         0.0000 E_vdwl   =       731.8035 
E_coul   =     27055.5524 E_long   =    -31738.3684 Press    =      -515.1509 
Volume   =     11010.5221 
SHAKE stats (type/ave/delta) on step 215000
  2 0.957046 5.03518e-06
  2 104.52 0.000416955
---------------- Step   215000 ----- CPU =   2063.1522 (sec) ----------------
TotEng   =     -3337.3438 KinEng   =       615.9450 Temp     =       285.4099 
PotEng   =     -3953.2888 E_bond   =         0.1704 E_angle  =         1.1270 
E_dihed  =         0.0000 E_impro  =         0.0000 E_vdwl   =       782.3993 
E_coul   =     27003.0680 E_long   =    -31740.0535 Press    =       523.0144 
Volume   =     11077.4546 
SHAKE stats (type/ave/delta) on step 220000
  2 0.957005 9.18316e-06
  2 104.52 0.000703892
---------------- Step   220000 ----- CPU =   2112.5526 (sec) ----------------
TotEng   =     -3254.3749 KinEng   =       654.6940 Temp     =       303.3650 
PotEng   =     -3909.0689 E_bond   =         0.1050 E_angle  =         0.8757 
E_dihed  =         0.0000 E_impro  =         0.0000 E_vdwl   =       730.2038 
E_coul   =     27095.2404 E_long   =    -31735.4938 Press    =       157.6413 
Volume   =     10943.4521 
SHAKE stats (type/ave/delta) on step 225000
  2 0.957037 5.0528e-06
  2 104.52 0.000437055
---------------- Step   225000 ----- CPU =   2161.4006 (sec) ----------------
TotEng   =     -3274.5456 KinEng   =       651.9825 Temp     =       302.1086 
PotEng   =     -3926.5281 E_bond   =         0.1621 E_angle  =         2.0057 
E_dihed  =         0.0000 E_impro  =         0.0000 E_vdwl   =       710.5170 
E_coul   =     27096.2166 E_long   =    -31735.4296 Press    =      -276.1525 
Volume   =     10992.1723 
SHAKE stats (type/ave/delta) on step 230000
  2 0.956981 6.52626e-06
  2 104.52 0.000617088
---------------- Step   230000 ----- CPU =   2210.8946 (sec) ----------------
TotEng   =     -3319.4746 KinEng   =       637.2571 Temp     =       295.2853 
PotEng   =     -3956.7317 E_bond   =         0.1287 E_angle  =         1.5557 
E_dihed  =         0.0000 E_impro  =         0.0000 E_vdwl   =       761.8887 
E_coul   =     27017.2480 E_long   =    -31737.5527 Press    =       557.0290 
Volume   =     10820.0249 
SHAKE stats (type/ave/delta) on step 235000
  2 0.956989 4.93138e-06
  2 104.52 0.000424092
---------------- Step   235000 ----- CPU =   2259.6382 (sec) ----------------
TotEng   =     -3330.1533 KinEng   =       641.9484 Temp     =       297.4591 
PotEng   =     -3972.1016 E_bond   =         0.2895 E_angle  =         1.1706 
E_dihed  =         0.0000 E_impro  =         0.0000 E_vdwl   =       720.4588 
E_coul   =     27044.9563 E_long   =    -31738.9769 Press    =      -473.2057 
Volume   =     10949.6219 
SHAKE stats (type/ave/delta) on step 240000
  2 0.956926 1.05216e-05
  2 104.52 0.000603143
---------------- Step   240000 ----- CPU =   2306.9306 (sec) ----------------
TotEng   =     -3279.8020 KinEng   =       659.6524 Temp     =       305.6626 
PotEng   =     -3939.4544 E_bond   =         0.5262 E_angle  =         1.5705 
E_dihed  =         0.0000 E_impro  =         0.0000 E_vdwl   =       739.1027 
E_coul   =     27056.9445 E_long   =    -31737.5982 Press    =       139.0912 
Volume   =     10791.9755 
SHAKE stats (type/ave/delta) on step 245000
  2 0.957031 7.35633e-06
  2 104.52 0.000475889
---------------- Step   245000 ----- CPU =   2355.4588 (sec) ----------------
TotEng   =     -3323.0349 KinEng   =       650.2333 Temp     =       301.2981 
PotEng   =     -3973.2682 E_bond   =         0.0816 E_angle  =         2.0098 
E_dihed  =         0.0000 E_impro  =         0.0000 E_vdwl   =       767.5445 
E_coul   =     26994.0226 E_long   =    -31736.9268 Press    =       380.5477 
Volume   =     10862.3053 
SHAKE stats (type/ave/delta) on step 250000
  2 0.95702 1.06199e-05
  2 104.52 0.00076307
---------------- Step   250000 ----- CPU =   2404.1439 (sec) ----------------
TotEng   =     -3239.8790 KinEng   =       672.0422 Temp     =       311.4036 
PotEng   =     -3911.9212 E_bond   =         0.4667 E_angle  =         1.7991 
E_dihed  =         0.0000 E_impro  =         0.0000 E_vdwl   =       729.3129 
E_coul   =     27091.8170 E_long   =    -31735.3169 Press    =      -227.2628 
Volume   =     11198.9187 
SHAKE stats (type/ave/delta) on step 255000
  2 0.957043 5.36448e-06
  2 104.52 0.000440738
---------------- Step   255000 ----- CPU =   2450.7723 (sec) ----------------
TotEng   =     -3346.9799 KinEng   =       617.0453 Temp     =       285.9198 
PotEng   =     -3964.0253 E_bond   =         0.0600 E_angle  =         1.5093 
E_dihed  =         0.0000 E_impro  =         0.0000 E_vdwl   =       775.7734 
E_coul   =     26996.2741 E_long   =    -31737.6421 Press    =       215.4162 
Volume   =     11079.9573 
SHAKE stats (type/ave/delta) on step 260000
  2 0.957015 8.82266e-06
  2 104.52 0.000495981
---------------- Step   260000 ----- CPU =   2497.1211 (sec) ----------------
TotEng   =     -3263.1994 KinEng   =       641.1428 Temp     =       297.0858 
PotEng   =     -3904.3422 E_bond   =         0.3283 E_angle  =         1.7844 
E_dihed  =         0.0000 E_impro  =         0.0000 E_vdwl   =       754.7976 
E_coul   =     27073.8903 E_long   =    -31735.1427 Press    =       840.3867 
Volume   =     10880.2420 
SHAKE stats (type/ave/delta) on step 265000
  2 0.956968 4.74335e-06
  2 104.52 0.000545374
---------------- Step   265000 ----- CPU =   2543.9868 (sec) ----------------
TotEng   =     -3322.4925 KinEng   =       671.4653 Temp     =       311.1363 
PotEng   =     -3993.9578 E_bond   =         0.0586 E_angle  =         2.1809 
E_dihed  =         0.0000 E_impro  =         0.0000 E_vdwl   =       802.2043 
E_coul   =     26939.6660 E_long   =    -31738.0676 Press    =       711.1618 
Volume   =     10885.0947 
SHAKE stats (type/ave/delta) on step 270000
  2 0.957003 2.44894e-05
  2 104.52 0.00188634
---------------- Step   270000 ----- CPU =   2588.8727 (sec) ----------------
TotEng   =     -3287.7174 KinEng   =       625.0631 Temp     =       289.6350 
PotEng   =     -3912.7805 E_bond   =         1.0394 E_angle  =         2.0713 
E_dihed  =         0.0000 E_impro  =         0.0000 E_vdwl   =       721.2081 
E_coul   =     27101.0123 E_long   =    -31738.1116 Press    =      -425.3938 
Volume   =     11072.2340 
SHAKE stats (type/ave/delta) on step 275000
  2 0.957052 2.3755e-05
  2 104.52 0.00160034
---------------- Step   275000 ----- CPU =   2633.9923 (sec) ----------------
TotEng   =     -3224.8200 KinEng   =       659.5250 Temp     =       305.6035 
PotEng   =     -3884.3450 E_bond   =         0.7360 E_angle  =         1.9736 
E_dihed  =         0.0000 E_impro  =         0.0000 E_vdwl   =       672.7089 
E_coul   =     27175.5178 E_long   =    -31735.2813 Press    =      -679.0213 
Volume   =     10776.0378 
SHAKE stats (type/ave/delta) on step 280000
  2 0.95695 5.08589e-06
  2 104.52 0.000415969
---------------- Step   280000 ----- CPU =   2681.5578 (sec) ----------------
TotEng   =     -3241.9796 KinEng   =       670.3438 Temp     =       310.6167 
PotEng   =     -3912.3234 E_bond   =         0.0242 E_angle  =         1.3693 
E_dihed  =         0.0000 E_impro  =         0.0000 E_vdwl   =       757.7806 
E_coul   =     27065.2858 E_long   =    -31736.7833 Press    =       534.9253 
Volume   =     11017.9459 
SHAKE stats (type/ave/delta) on step 285000
  2 0.956993 8.21309e-06
  2 104.52 0.000554261
---------------- Step   285000 ----- CPU =   2730.5537 (sec) ----------------
TotEng   =     -3279.3795 KinEng   =       618.2746 Temp     =       286.4894 
PotEng   =     -3897.6541 E_bond   =         0.2725 E_angle  =         1.6627 
E_dihed  =         0.0000 E_impro  =         0.0000 E_vdwl   =       703.8973 
E_coul   =     27131.1861 E_long   =    -31734.6726 Press    =      -782.1150 
Volume   =     11152.8461 
SHAKE stats (type/ave/delta) on step 290000
  2 0.957073 4.84517e-06
  2 104.52 0.000410716
---------------- Step   290000 ----- CPU =   2778.7927 (sec) ----------------
TotEng   =     -3261.2564 KinEng   =       652.6837 Temp     =       302.4335 
PotEng   =     -3913.9401 E_bond   =         0.6450 E_angle  =         1.3389 
E_dihed  =         0.0000 E_impro  =         0.0000 E_vdwl   =       761.5574 
E_coul   =     27061.4251 E_long   =    -31738.9064 Press    =       769.6580 
Volume   =     11016.7445 
SHAKE stats (type/ave/delta) on step 295000
  2 0.95705 1.46144e-05
  2 104.52 0.000867214
---------------- Step   295000 ----- CPU =   2827.4477 (sec) ----------------
TotEng   =     -3315.2966 KinEng   =       638.5570 Temp     =       295.8876 
PotEng   =     -3953.8535 E_bond   =         0.0947 E_angle  =         1.0339 
E_dihed  =         0.0000 E_impro  =         0.0000 E_vdwl   =       751.4254 
E_coul   =     27029.5394 E_long   =    -31735.9470 Press    =         3.5273 
Volume   =     11046.1634 
SHAKE stats (type/ave/delta) on step 300000
  2 0.956986 5.34253e-06
  2 104.52 0.000519314
---------------- Step   300000 ----- CPU =   2875.8749 (sec) ----------------
TotEng   =     -3297.3479 KinEng   =       647.9223 Temp     =       300.2272 
PotEng   =     -3945.2702 E_bond   =         0.2073 E_angle  =         1.3663 
E_dihed  =         0.0000 E_impro  =         0.0000 E_vdwl   =       721.6468 
E_coul   =     27067.4893 E_long   =    -31735.9798 Press    =      -400.3429 
Volume   =     11021.9097 
SHAKE stats (type/ave/delta) on step 305000
  2 0.95697 5.68212e-06
  2 104.52 0.000705387
---------------- Step   305000 ----- CPU =   2924.5348 (sec) ----------------
TotEng   =     -3337.9919 KinEng   =       626.2299 Temp     =       290.1756 
PotEng   =     -3964.2219 E_bond   =         0.0603 E_angle  =         0.6009 
E_dihed  =         0.0000 E_impro  =         0.0000 E_vdwl   =       756.2801 
E_coul   =     27018.5038 E_long   =    -31739.6669 Press    =       465.0449 
Volume   =     10712.5280 
SHAKE stats (type/ave/delta) on step 310000
  2 0.956978 4.927e-06
  2 104.52 0.000490676
---------------- Step   310000 ----- CPU =   2972.8929 (sec) ----------------
TotEng   =     -3300.1638 KinEng   =       637.0428 Temp     =       295.1860 
PotEng   =     -3937.2066 E_bond   =         0.2224 E_angle  =         0.4649 
E_dihed  =         0.0000 E_impro  =         0.0000 E_vdwl   =       728.3123 
E_coul   =     27070.4963 E_long   =    -31736.7025 Press    =      -438.4283 
Volume   =     11178.1311 
SHAKE stats (type/ave/delta) on step 315000
  2 0.956975 6.44445e-06
  2 104.52 0.000435982
---------------- Step   315000 ----- CPU =   3021.1348 (sec) ----------------
TotEng   =     -3296.0732 KinEng   =       647.2876 Temp     =       299.9331 
PotEng   =     -3943.3608 E_bond   =         0.0955 E_angle  =         0.9996 
E_dihed  =         0.0000 E_impro  =         0.0000 E_vdwl   =       736.7871 
E_coul   =     27058.3446 E_long   =    -31739.5875 Press    =        -9.4694 
Volume   =     10784.6470 
SHAKE stats (type/ave/delta) on step 320000
  2 0.956966 6.75268e-06
  2 104.52 0.000790104
---------------- Step   320000 ----- CPU =   3069.7838 (sec) ----------------
TotEng   =     -3299.7223 KinEng   =       647.2103 Temp     =       299.8973 
PotEng   =     -3946.9326 E_bond   =         0.1039 E_angle  =         0.7728 
E_dihed  =         0.0000 E_impro  =         0.0000 E_vdwl   =       711.6184 
E_coul   =     27080.2903 E_long   =    -31739.7180 Press    =      -646.8601 
Volume   =     10880.1876 
SHAKE stats (type/ave/delta) on step 325000
  2 0.957028 1.73251e-05
  2 104.52 0.00151343
---------------- Step   325000 ----- CPU =   3118.2999 (sec) ----------------
TotEng   =     -3332.6281 KinEng   =       617.1541 Temp     =       285.9702 
PotEng   =     -3949.7822 E_bond   =         0.1253 E_angle  =         0.5746 
E_dihed  =         0.0000 E_impro  =         0.0000 E_vdwl   =       725.6613 
E_coul   =     27061.1063 E_long   =    -31737.2497 Press    =      -548.1481 
Volume   =     11023.1265 
SHAKE stats (type/ave/delta) on step 330000
  2 0.956978 4.87571e-06
  2 104.52 0.000452563
---------------- Step   330000 ----- CPU =   3166.5937 (sec) ----------------
TotEng   =     -3295.5778 KinEng   =       641.4928 Temp     =       297.2480 
PotEng   =     -3937.0706 E_bond   =         0.0800 E_angle  =         0.9159 
E_dihed  =         0.0000 E_impro  =         0.0000 E_vdwl   =       778.0867 
E_coul   =     27020.1922 E_long   =    -31736.3453 Press    =       736.6243 
Volume   =     11053.4988 
SHAKE stats (type/ave/delta) on step 335000
  2 0.957005 8.99351e-06
  2 104.52 0.000633111
---------------- Step   335000 ----- CPU =   3215.4436 (sec) ----------------
TotEng   =     -3295.7008 KinEng   =       649.1201 Temp     =       300.7822 
PotEng   =     -3944.8209 E_bond   =         0.0264 E_angle  =         0.4985 
E_dihed  =         0.0000 E_impro  =         0.0000 E_vdwl   =       766.1730 
E_coul   =     27024.8422 E_long   =    -31736.3610 Press    =      1132.1319 
Volume   =     10634.5882 
SHAKE stats (type/ave/delta) on step 340000
  2 0.957066 7.36676e-06
  2 104.52 0.000820825
---------------- Step   340000 ----- CPU =   3263.8025 (sec) ----------------
TotEng   =     -3219.7995 KinEng   =       629.8161 Temp     =       291.8374 
PotEng   =     -3849.6157 E_bond   =         0.2511 E_angle  =         0.7575 
E_dihed  =         0.0000 E_impro  =         0.0000 E_vdwl   =       633.5587 
E_coul   =     27251.1910 E_long   =    -31735.3739 Press    =     -1284.0219 
Volume   =     10943.5708 
SHAKE stats (type/ave/delta) on step 345000
  2 0.957086 5.70767e-06
  2 104.52 0.000480085
---------------- Step   345000 ----- CPU =   3312.6746 (sec) ----------------
TotEng   =     -3272.5718 KinEng   =       643.5958 Temp     =       298.2224 
PotEng   =     -3916.1676 E_bond   =         0.4005 E_angle  =         0.4802 
E_dihed  =         0.0000 E_impro  =         0.0000 E_vdwl   =       752.7537 
E_coul   =     27068.3347 E_long   =    -31738.1366 Press    =       630.5407 
Volume   =     10866.4505 
SHAKE stats (type/ave/delta) on step 350000
  2 0.957034 8.1037e-06
  2 104.52 0.000678895
---------------- Step   350000 ----- CPU =   3361.1880 (sec) ----------------
TotEng   =     -3246.4503 KinEng   =       666.0288 Temp     =       308.6172 
PotEng   =     -3912.4791 E_bond   =         0.6735 E_angle  =         2.2950 
E_dihed  =         0.0000 E_impro  =         0.0000 E_vdwl   =       705.7094 
E_coul   =     27115.7893 E_long   =    -31736.9463 Press    =      -130.0815 
Volume   =     10784.4104 
SHAKE stats (type/ave/delta) on step 355000
  2 0.956992 8.32623e-06
  2 104.52 0.000461083
---------------- Step   355000 ----- CPU =   3410.1952 (sec) ----------------
TotEng   =     -3260.4531 KinEng   =       648.6160 Temp     =       300.5486 
PotEng   =     -3909.0691 E_bond   =         1.2653 E_angle  =         1.9640 
E_dihed  =         0.0000 E_impro  =         0.0000 E_vdwl   =       747.9928 
E_coul   =     27073.3959 E_long   =    -31733.6870 Press    =       772.6068 
Volume   =     10712.4453 
SHAKE stats (type/ave/delta) on step 360000
  2 0.957014 6.15488e-06
  2 104.52 0.000565192
---------------- Step   360000 ----- CPU =   3459.6268 (sec) ----------------
TotEng   =     -3313.4922 KinEng   =       635.8635 Temp     =       294.6396 
PotEng   =     -3949.3558 E_bond   =         0.2244 E_angle  =         0.9055 
E_dihed  =         0.0000 E_impro  =         0.0000 E_vdwl   =       781.4359 
E_coul   =     27003.4670 E_long   =    -31735.3884 Press    =       779.8066 
Volume   =     10811.8121 
SHAKE stats (type/ave/delta) on step 365000
  2 0.956992 5.51843e-06
  2 104.52 0.000478838
---------------- Step   365000 ----- CPU =   3508.1300 (sec) ----------------
TotEng   =     -3285.0488 KinEng   =       620.2425 Temp     =       287.4012 
PotEng   =     -3905.2913 E_bond   =         0.1308 E_angle  =         2.0353 
E_dihed  =         0.0000 E_impro  =         0.0000 E_vdwl   =       693.5250 
E_coul   =     27135.1094 E_long   =    -31736.0918 Press    =      -714.0830 
Volume   =     10899.2186 
SHAKE stats (type/ave/delta) on step 370000
  2 0.957001 9.6802e-06
  2 104.52 0.000959553
---------------- Step   370000 ----- CPU =   3556.3942 (sec) ----------------
TotEng   =     -3292.7576 KinEng   =       629.1651 Temp     =       291.5357 
PotEng   =     -3921.9227 E_bond   =         0.3077 E_angle  =         0.7828 
E_dihed  =         0.0000 E_impro  =         0.0000 E_vdwl   =       702.8487 
E_coul   =     27110.7535 E_long   =    -31736.6154 Press    =      -348.4454 
Volume   =     10891.9770 
SHAKE stats (type/ave/delta) on step 375000
  2 0.957019 5.03595e-06
  2 104.52 0.000408806
---------------- Step   375000 ----- CPU =   3604.9668 (sec) ----------------
TotEng   =     -3346.2108 KinEng   =       644.3284 Temp     =       298.5619 
PotEng   =     -3990.5392 E_bond   =         1.4167 E_angle  =         1.8446 
E_dihed  =         0.0000 E_impro  =         0.0000 E_vdwl   =       712.9027 
E_coul   =     27032.4492 E_long   =    -31739.1523 Press    =     -1078.4956 
Volume   =     10872.8716 
SHAKE stats (type/ave/delta) on step 380000
  2 0.957014 6.59509e-06
  2 104.52 0.000653493
---------------- Step   380000 ----- CPU =   3653.7141 (sec) ----------------
TotEng   =     -3318.2089 KinEng   =       659.8605 Temp     =       305.7590 
PotEng   =     -3978.0694 E_bond   =         0.9925 E_angle  =         2.4501 
E_dihed  =         0.0000 E_impro  =         0.0000 E_vdwl   =       717.2163 
E_coul   =     27039.5104 E_long   =    -31738.2388 Press    =      -581.8468 
Volume   =     10952.4952 
SHAKE stats (type/ave/delta) on step 385000
  2 0.957046 8.61881e-06
  2 104.52 0.000865287
---------------- Step   385000 ----- CPU =   3704.0470 (sec) ----------------
TotEng   =     -3288.0682 KinEng   =       669.5886 Temp     =       310.2667 
PotEng   =     -3957.6568 E_bond   =         0.1384 E_angle  =         2.4553 
E_dihed  =         0.0000 E_impro  =         0.0000 E_vdwl   =       751.9085 
E_coul   =     27026.2168 E_long   =    -31738.3757 Press    =       428.5714 
Volume   =     10783.1475 
SHAKE stats (type/ave/delta) on step 390000
  2 0.956979 8.28436e-06
  2 104.52 0.000851922
---------------- Step   390000 ----- CPU =   3749.2460 (sec) ----------------
TotEng   =     -3290.8859 KinEng   =       626.2016 Temp     =       290.1625 
PotEng   =     -3917.0875 E_bond   =         0.6045 E_angle  =         2.9547 
E_dihed  =         0.0000 E_impro  =         0.0000 E_vdwl   =       756.1380 
E_coul   =     27058.7904 E_long   =    -31735.5751 Press    =       107.5843 
Volume   =     11233.7445 
SHAKE stats (type/ave/delta) on step 395000
  2 0.956969 5.49049e-06
  2 104.52 0.000458352
---------------- Step   395000 ----- CPU =   3793.8793 (sec) ----------------
TotEng   =     -3280.4823 KinEng   =       661.6336 Temp     =       306.5806 
PotEng   =     -3942.1159 E_bond   =         1.1661 E_angle  =         0.7305 
E_dihed  =         0.0000 E_impro  =         0.0000 E_vdwl   =       688.7926 
E_coul   =     27104.5220 E_long   =    -31737.3270 Press    =      -969.3715 
Volume   =     10738.9832 
SHAKE stats (type/ave/delta) on step 400000
  2 0.956951 5.86779e-06
  2 104.52 0.000541001
---------------- Step   400000 ----- CPU =   3839.3049 (sec) ----------------
TotEng   =     -3273.3258 KinEng   =       631.2917 Temp     =       292.5211 
PotEng   =     -3904.6175 E_bond   =         0.1001 E_angle  =         4.5799 
E_dihed  =         0.0000 E_impro  =         0.0000 E_vdwl   =       674.7905 
E_coul   =     27150.8030 E_long   =    -31734.8910 Press    =     -1089.0884 
Volume   =     11052.8720 
SHAKE stats (type/ave/delta) on step 405000
  2 0.956975 4.63424e-06
  2 104.52 0.000459991
---------------- Step   405000 ----- CPU =   3888.5501 (sec) ----------------
TotEng   =     -3259.8100 KinEng   =       630.1482 Temp     =       291.9912 
PotEng   =     -3889.9582 E_bond   =         0.1335 E_angle  =         1.8416 
E_dihed  =         0.0000 E_impro  =         0.0000 E_vdwl   =       705.1188 
E_coul   =     27137.9658 E_long   =    -31735.0178 Press    =      -260.3248 
Volume   =     10941.1107 
SHAKE stats (type/ave/delta) on step 410000
  2 0.957016 6.98333e-06
  2 104.52 0.000692676
---------------- Step   410000 ----- CPU =   3937.0589 (sec) ----------------
TotEng   =     -3271.0420 KinEng   =       632.0459 Temp     =       292.8706 
PotEng   =     -3903.0879 E_bond   =         0.1187 E_angle  =         2.1870 
E_dihed  =         0.0000 E_impro  =         0.0000 E_vdwl   =       728.2430 
E_coul   =     27105.3953 E_long   =    -31739.0320 Press    =       472.1840 
Volume   =     10781.3268 
SHAKE stats (type/ave/delta) on step 415000
  2 0.956951 4.05832e-06
  2 104.52 0.000370053
---------------- Step   415000 ----- CPU =   3986.0853 (sec) ----------------
TotEng   =     -3252.1724 KinEng   =       657.9258 Temp     =       304.8625 
PotEng   =     -3910.0983 E_bond   =         0.5271 E_angle  =         0.7096 
E_dihed  =         0.0000 E_impro  =         0.0000 E_vdwl   =       713.0186 
E_coul   =     27112.2423 E_long   =    -31736.5959 Press    =         2.9874 
Volume   =     10855.6127 
SHAKE stats (type/ave/delta) on step 420000
  2 0.956953 8.05814e-06
  2 104.52 0.000738544
---------------- Step   420000 ----- CPU =   4035.6343 (sec) ----------------
TotEng   =     -3373.4114 KinEng   =       633.8190 Temp     =       293.6922 
PotEng   =     -4007.2305 E_bond   =         1.6560 E_angle  =         1.4362 
E_dihed  =         0.0000 E_impro  =         0.0000 E_vdwl   =       782.0746 
E_coul   =     26946.6800 E_long   =    -31739.0772 Press    =       167.4820 
Volume   =     10677.2101 
SHAKE stats (type/ave/delta) on step 425000
  2 0.956984 9.73831e-06
  2 104.52 0.000870894
---------------- Step   425000 ----- CPU =   4084.8431 (sec) ----------------
TotEng   =     -3249.3321 KinEng   =       679.6507 Temp     =       314.9292 
PotEng   =     -3928.9828 E_bond   =         0.2302 E_angle  =         2.2612 
E_dihed  =         0.0000 E_impro  =         0.0000 E_vdwl   =       698.7510 
E_coul   =     27107.7834 E_long   =    -31738.0086 Press    =      -498.9518 
Volume   =     10931.1166 
SHAKE stats (type/ave/delta) on step 430000
  2 0.957043 8.44971e-06
  2 104.52 0.000573258
---------------- Step   430000 ----- CPU =   4137.4861 (sec) ----------------
TotEng   =     -3281.3727 KinEng   =       656.4370 Temp     =       304.1727 
PotEng   =     -3937.8097 E_bond   =         1.4310 E_angle  =         1.7355 
E_dihed  =         0.0000 E_impro  =         0.0000 E_vdwl   =       747.8292 
E_coul   =     27049.2344 E_long   =    -31738.0398 Press    =        78.5216 
Volume   =     10809.6204 
SHAKE stats (type/ave/delta) on step 435000
  2 0.957017 4.6223e-06
  2 104.52 0.000495876
---------------- Step   435000 ----- CPU =   4186.5830 (sec) ----------------
TotEng   =     -3242.8309 KinEng   =       675.9029 Temp     =       313.1926 
PotEng   =     -3918.7338 E_bond   =         0.1696 E_angle  =         2.3928 
E_dihed  =         0.0000 E_impro  =         0.0000 E_vdwl   =       697.4822 
E_coul   =     27118.7188 E_long   =    -31737.4971 Press    =      -768.2445 
Volume   =     10998.1783 
SHAKE stats (type/ave/delta) on step 440000
  2 0.957011 6.29869e-06
  2 104.52 0.000457296
---------------- Step   440000 ----- CPU =   4235.8324 (sec) ----------------
TotEng   =     -3246.3175 KinEng   =       652.7857 Temp     =       302.4808 
PotEng   =     -3899.1032 E_bond   =         0.4741 E_angle  =         1.2318 
E_dihed  =         0.0000 E_impro  =         0.0000 E_vdwl   =       718.6523 
E_coul   =     27114.0300 E_long   =    -31733.4915 Press    =        54.4052 
Volume   =     10767.6215 
SHAKE stats (type/ave/delta) on step 445000
  2 0.957047 7.49404e-06
  2 104.52 0.000623454
---------------- Step   445000 ----- CPU =   4285.1727 (sec) ----------------
TotEng   =     -3262.0602 KinEng   =       660.4567 Temp     =       306.0353 
PotEng   =     -3922.5169 E_bond   =         0.3623 E_angle  =         2.4148 
E_dihed  =         0.0000 E_impro  =         0.0000 E_vdwl   =       751.6630 
E_coul   =     27061.2358 E_long   =    -31738.1928 Press    =       478.0984 
Volume   =     10882.2957 
SHAKE stats (type/ave/delta) on step 450000
  2 0.956994 1.2224e-05
  2 104.52 0.00105909
---------------- Step   450000 ----- CPU =   4333.5508 (sec) ----------------
TotEng   =     -3299.0142 KinEng   =       613.2751 Temp     =       284.1728 
PotEng   =     -3912.2892 E_bond   =         0.3207 E_angle  =         2.1195 
E_dihed  =         0.0000 E_impro  =         0.0000 E_vdwl   =       755.8265 
E_coul   =     27063.7890 E_long   =    -31734.3449 Press    =        61.4815 
Volume   =     11258.0807 
SHAKE stats (type/ave/delta) on step 455000
  2 0.956987 6.02372e-06
  2 104.52 0.0005195
---------------- Step   455000 ----- CPU =   4382.2615 (sec) ----------------
TotEng   =     -3307.7741 KinEng   =       648.7607 Temp     =       300.6157 
PotEng   =     -3956.5348 E_bond   =         0.9182 E_angle  =         2.1642 
E_dihed  =         0.0000 E_impro  =         0.0000 E_vdwl   =       735.1109 
E_coul   =     27042.5420 E_long   =    -31737.2702 Press    =      -483.1812 
Volume   =     11020.0782 
SHAKE stats (type/ave/delta) on step 460000
  2 0.956987 8.9005e-06
  2 104.52 0.000669093
---------------- Step   460000 ----- CPU =   4430.8527 (sec) ----------------
TotEng   =     -3343.5339 KinEng   =       651.1486 Temp     =       301.7222 
PotEng   =     -3994.6825 E_bond   =         0.3370 E_angle  =         2.5204 
E_dihed  =         0.0000 E_impro  =         0.0000 E_vdwl   =       750.8258 
E_coul   =     26988.3442 E_long   =    -31736.7100 Press    =      -390.0611 
Volume   =     11142.5047 
SHAKE stats (type/ave/delta) on step 465000
  2 0.95698 9.78183e-06
  2 104.52 0.000726445
---------------- Step   465000 ----- CPU =   4477.9168 (sec) ----------------
TotEng   =     -3336.9544 KinEng   =       661.8629 Temp     =       306.6869 
PotEng   =     -3998.8173 E_bond   =         0.2092 E_angle  =         2.4254 
E_dihed  =         0.0000 E_impro  =         0.0000 E_vdwl   =       743.4747 
E_coul   =     26990.0166 E_long   =    -31734.9433 Press    =      -615.1866 
Volume   =     11060.8749 
SHAKE stats (type/ave/delta) on step 470000
  2 0.956982 5.50053e-06
  2 104.52 0.000458926
---------------- Step   470000 ----- CPU =   4524.7762 (sec) ----------------
TotEng   =     -3241.6498 KinEng   =       637.9878 Temp     =       295.6239 
PotEng   =     -3879.6377 E_bond   =         0.3390 E_angle  =         0.6506 
E_dihed  =         0.0000 E_impro  =         0.0000 E_vdwl   =       690.2331 
E_coul   =     27165.7496 E_long   =    -31736.6100 Press    =      -457.2133 
Volume   =     11156.7255 
SHAKE stats (type/ave/delta) on step 475000
  2 0.956975 6.09678e-06
  2 104.52 0.00060886
---------------- Step   475000 ----- CPU =   4571.3627 (sec) ----------------
TotEng   =     -3322.1178 KinEng   =       631.2789 Temp     =       292.5152 
PotEng   =     -3953.3967 E_bond   =         0.1151 E_angle  =         1.0275 
[...]
  2 0.957083 8.13305e-06
  2 104.52 0.000781041
---------------- Step  2320000 ----- CPU =  22090.4636 (sec) ----------------
TotEng   =     -3256.3365 KinEng   =       682.7237 Temp     =       316.3531 
PotEng   =     -3939.0603 E_bond   =         0.6076 E_angle  =         0.9394 
E_dihed  =         0.0000 E_impro  =         0.0000 E_vdwl   =       708.0266 
E_coul   =     27084.1947 E_long   =    -31732.8285 Press    =      -694.4769 
Volume   =     11143.2988 
SHAKE stats (type/ave/delta) on step 2325000
  2 0.957039 5.90568e-06
  2 104.52 0.000460353
---------------- Step  2325000 ----- CPU =  22138.3115 (sec) ----------------
TotEng   =     -3265.9504 KinEng   =       688.0735 Temp     =       318.8321 
PotEng   =     -3954.0239 E_bond   =         0.5792 E_angle  =         1.3432 
E_dihed  =         0.0000 E_impro  =         0.0000 E_vdwl   =       740.0357 
E_coul   =     27040.2447 E_long   =    -31736.2267 Press    =       157.0943 
Volume   =     10865.7861 
SHAKE stats (type/ave/delta) on step 2330000
  2 0.956974 7.36079e-06
  2 104.52 0.000704208
---------------- Step  2330000 ----- CPU =  22186.9769 (sec) ----------------
TotEng   =     -3310.4298 KinEng   =       640.3671 Temp     =       296.7264 
PotEng   =     -3950.7968 E_bond   =         0.3421 E_angle  =         0.3403 
E_dihed  =         0.0000 E_impro  =         0.0000 E_vdwl   =       754.5687 
E_coul   =     27031.8932 E_long   =    -31737.9412 Press    =        62.4059 
Volume   =     11092.6754 
SHAKE stats (type/ave/delta) on step 2335000
  2 0.957011 1.51794e-05
  2 104.52 0.000898295
---------------- Step  2335000 ----- CPU =  22234.4596 (sec) ----------------
TotEng   =     -3338.1237 KinEng   =       638.7919 Temp     =       295.9965 
PotEng   =     -3976.9156 E_bond   =         0.2284 E_angle  =         2.0150 
E_dihed  =         0.0000 E_impro  =         0.0000 E_vdwl   =       811.0607 
E_coul   =     26947.6788 E_long   =    -31737.8985 Press    =      1257.9914 
Volume   =     11012.4863 
SHAKE stats (type/ave/delta) on step 2340000
  2 0.956991 7.73991e-06
  2 104.52 0.00068234
---------------- Step  2340000 ----- CPU =  22282.4872 (sec) ----------------
TotEng   =     -3323.6928 KinEng   =       651.1610 Temp     =       301.7279 
PotEng   =     -3974.8539 E_bond   =         0.4296 E_angle  =         0.6769 
E_dihed  =         0.0000 E_impro  =         0.0000 E_vdwl   =       716.2428 
E_coul   =     27047.3574 E_long   =    -31739.5605 Press    =      -703.6167 
Volume   =     11067.8711 
SHAKE stats (type/ave/delta) on step 2345000
  2 0.956998 1.061e-05
  2 104.52 0.00097183
---------------- Step  2345000 ----- CPU =  22330.9147 (sec) ----------------
TotEng   =     -3260.1623 KinEng   =       662.8055 Temp     =       307.1236 
PotEng   =     -3922.9679 E_bond   =         0.7603 E_angle  =         0.3585 
E_dihed  =         0.0000 E_impro  =         0.0000 E_vdwl   =       739.7727 
E_coul   =     27073.0117 E_long   =    -31736.8711 Press    =       436.6507 
Volume   =     10889.4035 
SHAKE stats (type/ave/delta) on step 2350000
  2 0.956986 5.322e-06
  2 104.52 0.00047669
---------------- Step  2350000 ----- CPU =  22379.5571 (sec) ----------------
TotEng   =     -3292.7564 KinEng   =       659.7433 Temp     =       305.7047 
PotEng   =     -3952.4997 E_bond   =         1.2559 E_angle  =         1.1423 
E_dihed  =         0.0000 E_impro  =         0.0000 E_vdwl   =       701.5067 
E_coul   =     27082.1582 E_long   =    -31738.5629 Press    =      -722.0537 
Volume   =     11047.0488 
SHAKE stats (type/ave/delta) on step 2355000
  2 0.957027 1.00096e-05
  2 104.52 0.00079093
---------------- Step  2355000 ----- CPU =  22428.4056 (sec) ----------------
TotEng   =     -3271.7967 KinEng   =       626.9596 Temp     =       290.5138 
PotEng   =     -3898.7563 E_bond   =         0.4841 E_angle  =         0.9237 
E_dihed  =         0.0000 E_impro  =         0.0000 E_vdwl   =       678.6767 
E_coul   =     27158.6282 E_long   =    -31737.4691 Press    =      -616.5026 
Volume   =     10935.6520 
SHAKE stats (type/ave/delta) on step 2360000
  2 0.957049 6.37222e-06
  2 104.52 0.000598784
---------------- Step  2360000 ----- CPU =  22476.3229 (sec) ----------------
TotEng   =     -3232.0727 KinEng   =       652.8128 Temp     =       302.4933 
PotEng   =     -3884.8855 E_bond   =         0.3219 E_angle  =         1.2355 
E_dihed  =         0.0000 E_impro  =         0.0000 E_vdwl   =       749.3735 
E_coul   =     27096.7828 E_long   =    -31732.5991 Press    =       206.7949 
Volume   =     11220.4551 
SHAKE stats (type/ave/delta) on step 2365000
  2 0.957025 7.81676e-06
  2 104.52 0.000802034
---------------- Step  2365000 ----- CPU =  22524.6237 (sec) ----------------
TotEng   =     -3305.9959 KinEng   =       635.3891 Temp     =       294.4197 
PotEng   =     -3941.3850 E_bond   =         1.8138 E_angle  =         1.7082 
E_dihed  =         0.0000 E_impro  =         0.0000 E_vdwl   =       708.6704 
E_coul   =     27081.7315 E_long   =    -31735.3089 Press    =      -655.8621 
Volume   =     10889.7435 
SHAKE stats (type/ave/delta) on step 2370000
  2 0.957031 8.42076e-06
  2 104.52 0.00074654
---------------- Step  2370000 ----- CPU =  22573.2528 (sec) ----------------
TotEng   =     -3258.4836 KinEng   =       662.9366 Temp     =       307.1844 
PotEng   =     -3921.4202 E_bond   =         1.0788 E_angle  =         1.1015 
E_dihed  =         0.0000 E_impro  =         0.0000 E_vdwl   =       746.1128 
E_coul   =     27067.5799 E_long   =    -31737.2932 Press    =       620.0008 
Volume   =     10898.1046 
SHAKE stats (type/ave/delta) on step 2375000
  2 0.957004 9.31263e-06
  2 104.52 0.000745407
---------------- Step  2375000 ----- CPU =  22622.1485 (sec) ----------------
TotEng   =     -3291.1810 KinEng   =       653.3217 Temp     =       302.7291 
PotEng   =     -3944.5027 E_bond   =         0.4784 E_angle  =         0.9291 
E_dihed  =         0.0000 E_impro  =         0.0000 E_vdwl   =       782.5623 
E_coul   =     27008.4684 E_long   =    -31736.9408 Press    =       821.0804 
Volume   =     11036.5725 
SHAKE stats (type/ave/delta) on step 2380000
  2 0.957006 5.80047e-06
  2 104.52 0.000427083
---------------- Step  2380000 ----- CPU =  22667.9325 (sec) ----------------
TotEng   =     -3312.9291 KinEng   =       640.2586 Temp     =       296.6761 
PotEng   =     -3953.1877 E_bond   =         0.5018 E_angle  =         0.9992 
E_dihed  =         0.0000 E_impro  =         0.0000 E_vdwl   =       720.1945 
E_coul   =     27063.3208 E_long   =    -31738.2041 Press    =      -100.4428 
Volume   =     10858.0229 
SHAKE stats (type/ave/delta) on step 2385000
  2 0.956992 6.22943e-06
  2 104.52 0.000529974
---------------- Step  2385000 ----- CPU =  22713.5112 (sec) ----------------
TotEng   =     -3211.0516 KinEng   =       654.5269 Temp     =       303.2876 
PotEng   =     -3865.5785 E_bond   =         1.1576 E_angle  =         0.3608 
E_dihed  =         0.0000 E_impro  =         0.0000 E_vdwl   =       716.7400 
E_coul   =     27151.3674 E_long   =    -31735.2043 Press    =       111.7950 
Volume   =     10978.4139 
SHAKE stats (type/ave/delta) on step 2390000
  2 0.956987 8.87829e-06
  2 104.52 0.000960968
---------------- Step  2390000 ----- CPU =  22758.8902 (sec) ----------------
TotEng   =     -3290.5629 KinEng   =       637.5816 Temp     =       295.4356 
PotEng   =     -3928.1445 E_bond   =         0.8223 E_angle  =         0.4640 
E_dihed  =         0.0000 E_impro  =         0.0000 E_vdwl   =       708.8649 
E_coul   =     27099.6337 E_long   =    -31737.9294 Press    =      -442.4594 
Volume   =     10998.0330 
SHAKE stats (type/ave/delta) on step 2395000
  2 0.956981 5.37462e-06
  2 104.52 0.000422199
---------------- Step  2395000 ----- CPU =  22804.3851 (sec) ----------------
TotEng   =     -3330.9780 KinEng   =       642.1436 Temp     =       297.5495 
PotEng   =     -3973.1216 E_bond   =         0.3166 E_angle  =         0.7222 
E_dihed  =         0.0000 E_impro  =         0.0000 E_vdwl   =       690.2425 
E_coul   =     27073.6498 E_long   =    -31738.0526 Press    =      -609.1824 
Volume   =     10762.8302 
SHAKE stats (type/ave/delta) on step 2400000
  2 0.957058 6.00919e-06
  2 104.52 0.000559939
---------------- Step  2400000 ----- CPU =  22850.3838 (sec) ----------------
TotEng   =     -3283.3067 KinEng   =       630.0904 Temp     =       291.9645 
PotEng   =     -3913.3971 E_bond   =         1.8366 E_angle  =         0.3685 
E_dihed  =         0.0000 E_impro  =         0.0000 E_vdwl   =       731.4341 
E_coul   =     27088.6158 E_long   =    -31735.6523 Press    =       691.2850 
Volume   =     10657.9516 
SHAKE stats (type/ave/delta) on step 2405000
  2 0.957024 1.0217e-05
  2 104.52 0.000880325
---------------- Step  2405000 ----- CPU =  22899.3818 (sec) ----------------
TotEng   =     -3313.0232 KinEng   =       658.5880 Temp     =       305.1694 
PotEng   =     -3971.6111 E_bond   =         0.5531 E_angle  =         1.2528 
E_dihed  =         0.0000 E_impro  =         0.0000 E_vdwl   =       771.1064 
E_coul   =     26994.6667 E_long   =    -31739.1901 Press    =       681.5777 
Volume   =     10881.5470 
SHAKE stats (type/ave/delta) on step 2410000
  2 0.956972 1.20061e-05
  2 104.52 0.000871859
---------------- Step  2410000 ----- CPU =  22947.3318 (sec) ----------------
TotEng   =     -3250.8072 KinEng   =       656.7202 Temp     =       304.3039 
PotEng   =     -3907.5274 E_bond   =         1.4756 E_angle  =         2.4054 
E_dihed  =         0.0000 E_impro  =         0.0000 E_vdwl   =       733.6381 
E_coul   =     27093.4890 E_long   =    -31738.5355 Press    =       310.3525 
Volume   =     11025.9670 
SHAKE stats (type/ave/delta) on step 2415000
  2 0.957072 6.57319e-06
  2 104.52 0.000480464
---------------- Step  2415000 ----- CPU =  22996.1754 (sec) ----------------
TotEng   =     -3281.6683 KinEng   =       652.8339 Temp     =       302.5031 
PotEng   =     -3934.5022 E_bond   =         1.0796 E_angle  =         0.5642 
E_dihed  =         0.0000 E_impro  =         0.0000 E_vdwl   =       746.3112 
E_coul   =     27054.6553 E_long   =    -31737.1125 Press    =       397.2494 
Volume   =     10824.4866 
SHAKE stats (type/ave/delta) on step 2420000
  2 0.957014 9.57495e-06
  2 104.52 0.000936738
---------------- Step  2420000 ----- CPU =  23043.9590 (sec) ----------------
TotEng   =     -3301.3862 KinEng   =       637.7079 Temp     =       295.4942 
PotEng   =     -3939.0941 E_bond   =         0.7404 E_angle  =         0.8948 
E_dihed  =         0.0000 E_impro  =         0.0000 E_vdwl   =       804.6206 
E_coul   =     26989.5455 E_long   =    -31734.8954 Press    =      1143.0496 
Volume   =     11283.2803 
SHAKE stats (type/ave/delta) on step 2425000
  2 0.956948 8.48438e-06
  2 104.52 0.000891214
---------------- Step  2425000 ----- CPU =  23090.3385 (sec) ----------------
TotEng   =     -3294.0387 KinEng   =       644.7298 Temp     =       298.7479 
PotEng   =     -3938.7685 E_bond   =         2.0097 E_angle  =         1.8725 
E_dihed  =         0.0000 E_impro  =         0.0000 E_vdwl   =       730.1022 
E_coul   =     27063.8039 E_long   =    -31736.5568 Press    =      -202.9443 
Volume   =     10914.9118 
SHAKE stats (type/ave/delta) on step 2430000
  2 0.956974 5.27285e-06
  2 104.52 0.000387484
---------------- Step  2430000 ----- CPU =  23136.3577 (sec) ----------------
TotEng   =     -3215.7629 KinEng   =       687.6763 Temp     =       318.6480 
PotEng   =     -3903.4392 E_bond   =         4.4661 E_angle  =         1.3994 
E_dihed  =         0.0000 E_impro  =         0.0000 E_vdwl   =       695.9760 
E_coul   =     27131.0483 E_long   =    -31736.3290 Press    =      -246.5748 
Volume   =     11055.6696 
SHAKE stats (type/ave/delta) on step 2435000
  2 0.956947 6.6191e-06
  2 104.52 0.000554268
---------------- Step  2435000 ----- CPU =  23184.9855 (sec) ----------------
TotEng   =     -3308.5729 KinEng   =       633.9095 Temp     =       293.7341 
PotEng   =     -3942.4825 E_bond   =         3.2837 E_angle  =         2.2051 
E_dihed  =         0.0000 E_impro  =         0.0000 E_vdwl   =       767.6248 
E_coul   =     27021.1130 E_long   =    -31736.7090 Press    =       606.4568 
Volume   =     11106.8656 
SHAKE stats (type/ave/delta) on step 2440000
  2 0.956962 6.98849e-06
  2 104.52 0.000429454
---------------- Step  2440000 ----- CPU =  23233.2712 (sec) ----------------
TotEng   =     -3318.5274 KinEng   =       646.5790 Temp     =       299.6048 
PotEng   =     -3965.1064 E_bond   =         2.5543 E_angle  =         1.5975 
E_dihed  =         0.0000 E_impro  =         0.0000 E_vdwl   =       795.7592 
E_coul   =     26973.2443 E_long   =    -31738.2616 Press    =       889.2526 
Volume   =     11096.2893 
SHAKE stats (type/ave/delta) on step 2445000
  2 0.95699 1.70064e-05
  2 104.52 0.00115672
---------------- Step  2445000 ----- CPU =  23281.0742 (sec) ----------------
TotEng   =     -3270.6260 KinEng   =       662.8960 Temp     =       307.1656 
PotEng   =     -3933.5219 E_bond   =         1.3193 E_angle  =         1.6240 
E_dihed  =         0.0000 E_impro  =         0.0000 E_vdwl   =       776.9404 
E_coul   =     27019.3799 E_long   =    -31732.7856 Press    =       846.2894 
Volume   =     11015.8973 
SHAKE stats (type/ave/delta) on step 2450000
  2 0.957005 4.01474e-06
  2 104.52 0.000377848
---------------- Step  2450000 ----- CPU =  23329.5558 (sec) ----------------
TotEng   =     -3222.0469 KinEng   =       658.8555 Temp     =       305.2933 
PotEng   =     -3880.9024 E_bond   =         5.0192 E_angle  =         1.3392 
E_dihed  =         0.0000 E_impro  =         0.0000 E_vdwl   =       691.4939 
E_coul   =     27159.7051 E_long   =    -31738.4599 Press    =      -270.4907 
Volume   =     11035.3301 
SHAKE stats (type/ave/delta) on step 2455000
  2 0.957037 1.25674e-05
  2 104.52 0.000952326
---------------- Step  2455000 ----- CPU =  23376.8204 (sec) ----------------
TotEng   =     -3390.5689 KinEng   =       630.9475 Temp     =       292.3616 
PotEng   =     -4021.5164 E_bond   =         2.8574 E_angle  =         1.7839 
E_dihed  =         0.0000 E_impro  =         0.0000 E_vdwl   =       785.7788 
E_coul   =     26925.7261 E_long   =    -31737.6626 Press    =       197.1428 
Volume   =     10996.2520 
SHAKE stats (type/ave/delta) on step 2460000
  2 0.956998 6.37274e-06
  2 104.52 0.00050904
---------------- Step  2460000 ----- CPU =  23424.0897 (sec) ----------------
TotEng   =     -3325.3592 KinEng   =       677.7436 Temp     =       314.0455 
PotEng   =     -4003.1029 E_bond   =         0.4546 E_angle  =         1.1532 
E_dihed  =         0.0000 E_impro  =         0.0000 E_vdwl   =       738.9940 
E_coul   =     26995.1870 E_long   =    -31738.8918 Press    =      -399.9313 
Volume   =     10952.6515 
SHAKE stats (type/ave/delta) on step 2465000
  2 0.957012 4.67415e-06
  2 104.52 0.000383605
---------------- Step  2465000 ----- CPU =  23472.9091 (sec) ----------------
TotEng   =     -3232.4121 KinEng   =       661.6677 Temp     =       306.5964 
PotEng   =     -3894.0798 E_bond   =         5.0292 E_angle  =         1.0085 
E_dihed  =         0.0000 E_impro  =         0.0000 E_vdwl   =       723.1479 
E_coul   =     27113.7909 E_long   =    -31737.0563 Press    =       129.1084 
Volume   =     10887.3271 
SHAKE stats (type/ave/delta) on step 2470000
  2 0.956992 6.2081e-06
  2 104.52 0.000440472
---------------- Step  2470000 ----- CPU =  23520.4628 (sec) ----------------
TotEng   =     -3341.3691 KinEng   =       626.6821 Temp     =       290.3852 
PotEng   =     -3968.0512 E_bond   =         1.0364 E_angle  =         1.5383 
E_dihed  =         0.0000 E_impro  =         0.0000 E_vdwl   =       774.5976 
E_coul   =     26991.9249 E_long   =    -31737.1484 Press    =       606.4567 
Volume   =     11002.3112 
SHAKE stats (type/ave/delta) on step 2475000
  2 0.957002 6.71265e-06
  2 104.52 0.000653129
---------------- Step  2475000 ----- CPU =  23569.2412 (sec) ----------------
TotEng   =     -3261.3067 KinEng   =       652.1356 Temp     =       302.1795 
PotEng   =     -3913.4424 E_bond   =         2.2628 E_angle  =         2.7389 
E_dihed  =         0.0000 E_impro  =         0.0000 E_vdwl   =       746.1057 
E_coul   =     27072.9833 E_long   =    -31737.5331 Press    =       737.7716 
Volume   =     10814.0567 
SHAKE stats (type/ave/delta) on step 2480000
  2 0.956942 7.10203e-06
  2 104.52 0.000523597
---------------- Step  2480000 ----- CPU =  23617.4682 (sec) ----------------
TotEng   =     -3347.1738 KinEng   =       648.4591 Temp     =       300.4760 
PotEng   =     -3995.6330 E_bond   =         1.7456 E_angle  =         1.2782 
E_dihed  =         0.0000 E_impro  =         0.0000 E_vdwl   =       795.3207 
E_coul   =     26944.0738 E_long   =    -31738.0513 Press    =       684.6647 
Volume   =     11035.1005 
SHAKE stats (type/ave/delta) on step 2485000
  2 0.957032 2.32183e-05
  2 104.52 0.00221894
---------------- Step  2485000 ----- CPU =  23665.3357 (sec) ----------------
TotEng   =     -3335.2406 KinEng   =       631.3934 Temp     =       292.5682 
PotEng   =     -3966.6340 E_bond   =         0.8727 E_angle  =         0.9169 
E_dihed  =         0.0000 E_impro  =         0.0000 E_vdwl   =       767.5871 
E_coul   =     27001.5163 E_long   =    -31737.5269 Press    =       604.4127 
Volume   =     10844.8004 
SHAKE stats (type/ave/delta) on step 2490000
  2 0.957031 9.01483e-06
  2 104.52 0.00056211
---------------- Step  2490000 ----- CPU =  23713.0950 (sec) ----------------
TotEng   =     -3182.4998 KinEng   =       679.9973 Temp     =       315.0898 
PotEng   =     -3862.4971 E_bond   =         1.8181 E_angle  =         1.8949 
E_dihed  =         0.0000 E_impro  =         0.0000 E_vdwl   =       716.7172 
E_coul   =     27146.0785 E_long   =    -31729.0057 Press    =       366.7564 
Volume   =     11144.9440 
SHAKE stats (type/ave/delta) on step 2495000
  2 0.957008 5.61385e-06
  2 104.52 0.000448944
---------------- Step  2495000 ----- CPU =  23760.9919 (sec) ----------------
TotEng   =     -3334.8737 KinEng   =       631.1025 Temp     =       292.4334 
PotEng   =     -3965.9762 E_bond   =         1.1228 E_angle  =         0.5136 
E_dihed  =         0.0000 E_impro  =         0.0000 E_vdwl   =       717.3161 
E_coul   =     27049.4572 E_long   =    -31734.3859 Press    =      -662.4177 
Volume   =     10987.0137 
SHAKE stats (type/ave/delta) on step 2500000
  2 0.957014 7.43193e-06
  2 104.52 0.000522625
---------------- Step  2500000 ----- CPU =  23807.2816 (sec) ----------------
TotEng   =     -3293.3859 KinEng   =       664.3974 Temp     =       307.8613 
PotEng   =     -3957.7833 E_bond   =         0.2598 E_angle  =         2.1941 
E_dihed  =         0.0000 E_impro  =         0.0000 E_vdwl   =       745.8770 
E_coul   =     27031.6851 E_long   =    -31737.7992 Press    =       -84.5382 
Volume   =     11136.5856 
Loop time of 23807.3 on 6 procs for 2500000 steps with 1085 atoms

Pair  time (%) = 17749.2 (74.5537)
Bond  time (%) = 2.75278 (0.0115628)
Kspce time (%) = 2814.73 (11.823)
Neigh time (%) = 656.268 (2.75659)
Comm  time (%) = 887.689 (3.72864)
Outpt time (%) = 0.0963221 (0.000404591)
Other time (%) = 1696.54 (7.12613)

Nlocal:    180.833 ave 189 max 168 min
Histogram: 1 0 0 1 0 1 0 0 2 1
Nghost:    5074.67 ave 5150 max 5007 min
Histogram: 1 1 0 1 0 0 1 1 0 1
Neighs:    67782.8 ave 74311 max 59390 min
Histogram: 1 0 0 1 0 1 0 2 0 1

Total # of neighbors = 406697
Ave neighs/atom = 374.836
Ave special neighs/atom = 2.00922
Neighbor list builds = 198473
Dangerous builds = 23398

# write_restart restart.*.lmp
write_data data.*.lmp
PPPM initialization ...
  G vector (1/distance) = 0.28529
  grid = 15 15 15
  stencil order = 5
  estimated absolute RMS force accuracy = 0.0147887
  estimated relative force accuracy = 4.45358e-05
  using double precision FFTs
  3d grid and FFT values/proc = 3696 675
