LAMMPS (11 Nov 2013)
# created by fftool

print "Methane in TIP4P water"
Methane in TIP4P water

units real
boundary p p p

atom_style full
bond_style harmonic
angle_style harmonic
special_bonds lj/coul 0.0 0.0 0.5

read_data data.lmp
  1 = max bonds/atom
  6 = max angles/atom
  orthogonal box = (-13.4438 -13.4438 -13.4438) to (13.4438 13.4438 13.4438)
  2 by 2 by 2 MPI processor grid
  1085 atoms
  724 bonds
  366 angles
  4 = max # of 1-2 neighbors
  3 = max # of 1-3 neighbors
  3 = max # of 1-4 neighbors
  4 = max # of special neighbors

pair_style hybrid   lj/cut/coul/long 10.0 10.0   lj/cut/tip4p/long/soft 3 4 2 2 0.125 1 0.5 10.0 10.0 10.0
pair_modify tail no
kspace_style pppm/tip4p 1.0e-4

pair_coeff    1    1  lj/cut/coul/long    0.0660   3.5000  # C4H C4H
pair_coeff    1    2  lj/cut/coul/long    0.0445   2.9580  # C4H H
pair_coeff    2    2  lj/cut/coul/long    0.0300   2.5000  # H H
pair_coeff    3    3  lj/cut/tip4p/long/soft   0.1628   3.1644  1.0  # Ow Ow
pair_coeff    3    4  lj/cut/tip4p/long/soft   0.0000   1.0000  1.0  # Ow Hw
pair_coeff    4    4  lj/cut/tip4p/long/soft   0.0000   1.0000  1.0  # Hw Hw

pair_coeff    1    3  lj/cut/tip4p/long/soft   0.1036   3.3279  0.0  # C4H Ow
pair_coeff    1    4  lj/cut/tip4p/long/soft   0.0000   1.0000  0.0  # C4H Hw
pair_coeff    2    3  lj/cut/tip4p/long/soft   0.0699   2.8126  0.0  # H Ow
pair_coeff    2    4  lj/cut/tip4p/long/soft   0.0000   1.0000  0.0  # H Hw

variable nsteps equal 2500000
variable nprint equal ${nsteps}/500
variable nprint equal 2500000/500
variable ndump equal ${nsteps}/100
variable ndump equal 2500000/100

variable temp equal 300.0
variable press equal 1.0

fix fSHAKE all shake 0.0001 20 ${nprint} b 2 a 2
fix fSHAKE all shake 0.0001 20 5000 b 2 a 2
  0 = # of size 2 clusters
  0 = # of size 3 clusters
  0 = # of size 4 clusters
  360 = # of frozen angles

neighbor 2.0 bin

timestep 2.0

# velocity all create ${temp} 12345

thermo_style multi
thermo ${nprint}
thermo 5000

fix fNPT all npt temp ${temp} ${temp} 100 iso ${press} ${press} 1000
fix fNPT all npt temp 300 ${temp} 100 iso ${press} ${press} 1000
fix fNPT all npt temp 300 300 100 iso ${press} ${press} 1000
fix fNPT all npt temp 300 300 100 iso 1 ${press} 1000
fix fNPT all npt temp 300 300 100 iso 1 1 1000

run 250000
PPPM initialization ...
  G vector (1/distance) = 0.270215
  grid = 15 15 15
  stencil order = 5
  estimated absolute RMS force accuracy = 0.0258727
  estimated relative force accuracy = 7.7915e-05
  using double precision FFTs
  3d grid and FFT values/proc = 2744 512
SHAKE stats (type/ave/delta) on step 0
  2 0.9572 1.71599e-05
  2 104.52 0.00161974
Memory usage per processor = 6.56628 Mbytes
---------------- Step        0 ----- CPU =      0.0000 (sec) ----------------
TotEng   =       -98.9523 KinEng   =         0.0000 Temp     =         0.0000 
PotEng   =       -98.9523 E_bond   =         0.0000 E_angle  =         0.1685 
E_dihed  =         0.0000 E_impro  =         0.0000 E_vdwl   =      -203.1677 
E_coul   =     29920.5812 E_long   =    -29816.5343 Press    =       611.7168 
Volume   =     19438.0383 
SHAKE stats (type/ave/delta) on step 5000
  2 0.956987 5.37085e-06
  2 104.52 0.000387558
---------------- Step     5000 ----- CPU =     33.3942 (sec) ----------------
TotEng   =     -3321.0930 KinEng   =       654.3650 Temp     =       303.2126 
PotEng   =     -3975.4580 E_bond   =         0.0175 E_angle  =         0.3281 
E_dihed  =         0.0000 E_impro  =         0.0000 E_vdwl   =       711.5550 
E_coul   =     25326.8455 E_long   =    -30014.2042 Press    =     -1123.1167 
Volume   =     11193.6494 
SHAKE stats (type/ave/delta) on step 10000
  2 0.956999 1.06148e-05
  2 104.52 0.000564695
---------------- Step    10000 ----- CPU =     69.4186 (sec) ----------------
TotEng   =     -3323.2836 KinEng   =       665.3609 Temp     =       308.3077 
PotEng   =     -3988.6445 E_bond   =         0.0175 E_angle  =         0.3707 
E_dihed  =         0.0000 E_impro  =         0.0000 E_vdwl   =       754.5231 
E_coul   =     25273.5699 E_long   =    -30017.1257 Press    =        -0.4711 
Volume   =     10868.1037 
SHAKE stats (type/ave/delta) on step 15000
  2 0.957057 5.23147e-06
  2 104.52 0.000487776
---------------- Step    15000 ----- CPU =    104.3177 (sec) ----------------
TotEng   =     -3292.6905 KinEng   =       636.7244 Temp     =       295.0384 
PotEng   =     -3929.4149 E_bond   =         0.1256 E_angle  =         0.6451 
E_dihed  =         0.0000 E_impro  =         0.0000 E_vdwl   =       795.4625 
E_coul   =     25289.9690 E_long   =    -30015.6171 Press    =      1608.2695 
Volume   =     10777.5871 
SHAKE stats (type/ave/delta) on step 20000
  2 0.956946 5.06315e-06
  2 104.52 0.000667151
---------------- Step    20000 ----- CPU =    139.5349 (sec) ----------------
TotEng   =     -3312.4517 KinEng   =       655.2283 Temp     =       303.6126 
PotEng   =     -3967.6800 E_bond   =         0.0891 E_angle  =         0.3940 
E_dihed  =         0.0000 E_impro  =         0.0000 E_vdwl   =       743.4789 
E_coul   =     25304.9920 E_long   =    -30016.6340 Press    =      -295.2331 
Volume   =     10998.9236 
SHAKE stats (type/ave/delta) on step 25000
  2 0.956974 4.91803e-06
  2 104.52 0.000413447
---------------- Step    25000 ----- CPU =    174.5128 (sec) ----------------
TotEng   =     -3285.1685 KinEng   =       653.9823 Temp     =       303.0352 
PotEng   =     -3939.1508 E_bond   =         0.0095 E_angle  =         0.6281 
E_dihed  =         0.0000 E_impro  =         0.0000 E_vdwl   =       753.4554 
E_coul   =     25324.7126 E_long   =    -30017.9564 Press    =       458.2755 
Volume   =     10832.2240 
SHAKE stats (type/ave/delta) on step 30000
  2 0.956986 4.38048e-06
  2 104.52 0.000463748
---------------- Step    30000 ----- CPU =    210.0259 (sec) ----------------
TotEng   =     -3329.5401 KinEng   =       612.6747 Temp     =       283.8946 
PotEng   =     -3942.2148 E_bond   =         0.0361 E_angle  =         0.8512 
E_dihed  =         0.0000 E_impro  =         0.0000 E_vdwl   =       808.7621 
E_coul   =     25266.2828 E_long   =    -30018.1470 Press    =      1120.4110 
Volume   =     10942.2168 
SHAKE stats (type/ave/delta) on step 35000
  2 0.957013 5.39331e-06
  2 104.52 0.000443648
---------------- Step    35000 ----- CPU =    246.2302 (sec) ----------------
TotEng   =     -3289.1737 KinEng   =       625.1830 Temp     =       289.6905 
PotEng   =     -3914.3567 E_bond   =         0.1647 E_angle  =         0.6418 
E_dihed  =         0.0000 E_impro  =         0.0000 E_vdwl   =       726.4284 
E_coul   =     25374.3324 E_long   =    -30015.9239 Press    =      -453.9890 
Volume   =     11128.8792 
SHAKE stats (type/ave/delta) on step 40000
  2 0.957025 1.00258e-05
  2 104.52 0.000806246
---------------- Step    40000 ----- CPU =    281.2248 (sec) ----------------
TotEng   =     -3280.9689 KinEng   =       622.8619 Temp     =       288.6150 
PotEng   =     -3903.8308 E_bond   =         0.2205 E_angle  =         0.8322 
E_dihed  =         0.0000 E_impro  =         0.0000 E_vdwl   =       709.9427 
E_coul   =     25401.3636 E_long   =    -30016.1898 Press    =        33.4460 
Volume   =     10622.4300 
SHAKE stats (type/ave/delta) on step 45000
  2 0.956962 5.77182e-06
  2 104.52 0.000401965
---------------- Step    45000 ----- CPU =    315.6451 (sec) ----------------
TotEng   =     -3297.1391 KinEng   =       630.2999 Temp     =       292.0615 
PotEng   =     -3927.4390 E_bond   =         0.0429 E_angle  =         0.4918 
E_dihed  =         0.0000 E_impro  =         0.0000 E_vdwl   =       818.9164 
E_coul   =     25268.6946 E_long   =    -30015.5848 Press    =      1777.4549 
Volume   =     10862.7933 
SHAKE stats (type/ave/delta) on step 50000
  2 0.956971 1.28489e-05
  2 104.52 0.00146058
---------------- Step    50000 ----- CPU =    351.4811 (sec) ----------------
TotEng   =     -3269.6316 KinEng   =       643.8576 Temp     =       298.3438 
PotEng   =     -3913.4892 E_bond   =         0.0342 E_angle  =         1.0292 
E_dihed  =         0.0000 E_impro  =         0.0000 E_vdwl   =       731.3247 
E_coul   =     25369.2684 E_long   =    -30015.1456 Press    =        73.8082 
Volume   =     11054.7566 
SHAKE stats (type/ave/delta) on step 55000
  2 0.956956 6.96602e-06
  2 104.52 0.000922153
---------------- Step    55000 ----- CPU =    387.4509 (sec) ----------------
TotEng   =     -3313.1083 KinEng   =       664.3501 Temp     =       307.8393 
PotEng   =     -3977.4584 E_bond   =         0.0964 E_angle  =         1.3494 
E_dihed  =         0.0000 E_impro  =         0.0000 E_vdwl   =       764.5982 
E_coul   =     25270.6552 E_long   =    -30014.1575 Press    =        32.9960 
Volume   =     11034.4010 
SHAKE stats (type/ave/delta) on step 60000
  2 0.957016 6.40034e-06
  2 104.52 0.000426619
---------------- Step    60000 ----- CPU =    422.7408 (sec) ----------------
TotEng   =     -3304.8708 KinEng   =       613.0629 Temp     =       284.0745 
PotEng   =     -3917.9337 E_bond   =         0.0857 E_angle  =         0.9546 
E_dihed  =         0.0000 E_impro  =         0.0000 E_vdwl   =       747.4278 
E_coul   =     25348.7100 E_long   =    -30015.1118 Press    =       596.2364 
Volume   =     10702.7572 
SHAKE stats (type/ave/delta) on step 65000
  2 0.956913 9.47821e-06
  2 104.52 0.000742874
---------------- Step    65000 ----- CPU =    457.7098 (sec) ----------------
TotEng   =     -3295.3881 KinEng   =       666.9274 Temp     =       309.0336 
PotEng   =     -3962.3155 E_bond   =         0.0190 E_angle  =         0.8209 
E_dihed  =         0.0000 E_impro  =         0.0000 E_vdwl   =       733.1342 
E_coul   =     25318.9664 E_long   =    -30015.2559 Press    =      -415.9335 
Volume   =     11088.3504 
SHAKE stats (type/ave/delta) on step 70000
  2 0.956933 5.11801e-06
  2 104.52 0.000368852
---------------- Step    70000 ----- CPU =    493.0029 (sec) ----------------
TotEng   =     -3303.6965 KinEng   =       652.2978 Temp     =       302.2547 
PotEng   =     -3955.9943 E_bond   =         0.0410 E_angle  =         0.8692 
E_dihed  =         0.0000 E_impro  =         0.0000 E_vdwl   =       698.5821 
E_coul   =     25357.9079 E_long   =    -30013.3946 Press    =      -912.1836 
Volume   =     10894.5099 
SHAKE stats (type/ave/delta) on step 75000
  2 0.95698 8.65804e-06
  2 104.52 0.00060091
---------------- Step    75000 ----- CPU =    529.2123 (sec) ----------------
TotEng   =     -3296.2419 KinEng   =       650.8715 Temp     =       301.5938 
PotEng   =     -3947.1134 E_bond   =         0.4759 E_angle  =         0.4847 
E_dihed  =         0.0000 E_impro  =         0.0000 E_vdwl   =       792.7404 
E_coul   =     25272.7158 E_long   =    -30013.5302 Press    =      1193.3856 
Volume   =     10860.2470 
SHAKE stats (type/ave/delta) on step 80000
  2 0.957031 7.64961e-06
  2 104.52 0.000848638
---------------- Step    80000 ----- CPU =    563.8906 (sec) ----------------
TotEng   =     -3321.2666 KinEng   =       649.2675 Temp     =       300.8505 
PotEng   =     -3970.5340 E_bond   =         0.1435 E_angle  =         1.2143 
E_dihed  =         0.0000 E_impro  =         0.0000 E_vdwl   =       758.8089 
E_coul   =     25285.7249 E_long   =    -30016.4256 Press    =       644.5683 
Volume   =     10815.5293 
SHAKE stats (type/ave/delta) on step 85000
  2 0.957056 7.65295e-06
  2 104.52 0.000501964
---------------- Step    85000 ----- CPU =    599.2373 (sec) ----------------
TotEng   =     -3325.5128 KinEng   =       628.6907 Temp     =       291.3159 
PotEng   =     -3954.2035 E_bond   =         0.0578 E_angle  =         2.4138 
E_dihed  =         0.0000 E_impro  =         0.0000 E_vdwl   =       694.1837 
E_coul   =     25364.8688 E_long   =    -30015.7276 Press    =      -550.7286 
Volume   =     10698.6660 
SHAKE stats (type/ave/delta) on step 90000
  2 0.956985 1.09039e-05
  2 104.52 0.000700237
---------------- Step    90000 ----- CPU =    635.0742 (sec) ----------------
TotEng   =     -3272.0785 KinEng   =       654.4513 Temp     =       303.2526 
PotEng   =     -3926.5298 E_bond   =         0.3010 E_angle  =         0.7387 
E_dihed  =         0.0000 E_impro  =         0.0000 E_vdwl   =       716.3088 
E_coul   =     25371.1076 E_long   =    -30014.9859 Press    =      -298.9365 
Volume   =     11026.8870 
SHAKE stats (type/ave/delta) on step 95000
  2 0.957021 5.20533e-06
  2 104.52 0.000467483
---------------- Step    95000 ----- CPU =    670.6975 (sec) ----------------
TotEng   =     -3316.3547 KinEng   =       642.7476 Temp     =       297.8294 
PotEng   =     -3959.1023 E_bond   =         0.1090 E_angle  =         1.2767 
E_dihed  =         0.0000 E_impro  =         0.0000 E_vdwl   =       752.6015 
E_coul   =     25302.6967 E_long   =    -30015.7863 Press    =       -48.1992 
Volume   =     11138.7042 
SHAKE stats (type/ave/delta) on step 100000
  2 0.957049 6.21884e-06
  2 104.52 0.000391837
---------------- Step   100000 ----- CPU =    706.7933 (sec) ----------------
TotEng   =     -3287.6838 KinEng   =       642.8174 Temp     =       297.8618 
PotEng   =     -3930.5012 E_bond   =         0.0314 E_angle  =         0.7328 
E_dihed  =         0.0000 E_impro  =         0.0000 E_vdwl   =       729.9754 
E_coul   =     25356.4586 E_long   =    -30017.6994 Press    =        98.4266 
Volume   =     10945.9705 
SHAKE stats (type/ave/delta) on step 105000
  2 0.956983 6.50003e-06
  2 104.52 0.000460308
---------------- Step   105000 ----- CPU =    742.9946 (sec) ----------------
TotEng   =     -3265.7663 KinEng   =       656.8284 Temp     =       304.3540 
PotEng   =     -3922.5947 E_bond   =         0.1619 E_angle  =         2.4248 
E_dihed  =         0.0000 E_impro  =         0.0000 E_vdwl   =       720.0974 
E_coul   =     25367.5101 E_long   =    -30012.7887 Press    =      -132.4058 
Volume   =     11048.5441 
SHAKE stats (type/ave/delta) on step 110000
  2 0.957015 5.34272e-06
  2 104.52 0.000388389
---------------- Step   110000 ----- CPU =    778.2267 (sec) ----------------
TotEng   =     -3300.5217 KinEng   =       634.0027 Temp     =       293.7773 
PotEng   =     -3934.5244 E_bond   =         1.1968 E_angle  =         2.2535 
E_dihed  =         0.0000 E_impro  =         0.0000 E_vdwl   =       761.3522 
E_coul   =     25315.6083 E_long   =    -30014.9352 Press    =       172.9116 
Volume   =     11144.5741 
SHAKE stats (type/ave/delta) on step 115000
  2 0.956972 7.40784e-06
  2 104.52 0.000621655
---------------- Step   115000 ----- CPU =    813.8283 (sec) ----------------
TotEng   =     -3377.3421 KinEng   =       632.8593 Temp     =       293.2475 
PotEng   =     -4010.2014 E_bond   =         0.1255 E_angle  =         1.9448 
E_dihed  =         0.0000 E_impro  =         0.0000 E_vdwl   =       819.4285 
E_coul   =     25181.4077 E_long   =    -30013.1079 Press    =       915.6223 
Volume   =     10850.1741 
SHAKE stats (type/ave/delta) on step 120000
  2 0.95708 8.53639e-06
  2 104.52 0.000908162
---------------- Step   120000 ----- CPU =    849.4162 (sec) ----------------
TotEng   =     -3318.8403 KinEng   =       645.3431 Temp     =       299.0321 
PotEng   =     -3964.1834 E_bond   =         1.2281 E_angle  =         1.0882 
E_dihed  =         0.0000 E_impro  =         0.0000 E_vdwl   =       780.0178 
E_coul   =     25270.1264 E_long   =    -30016.6440 Press    =       575.9664 
Volume   =     10861.2764 
SHAKE stats (type/ave/delta) on step 125000
  2 0.956997 7.85869e-06
  2 104.52 0.000428012
---------------- Step   125000 ----- CPU =    884.6548 (sec) ----------------
TotEng   =     -3369.1174 KinEng   =       634.5236 Temp     =       294.0187 
PotEng   =     -4003.6410 E_bond   =         0.3523 E_angle  =         1.0441 
E_dihed  =         0.0000 E_impro  =         0.0000 E_vdwl   =       772.9079 
E_coul   =     25233.9892 E_long   =    -30011.9345 Press    =       440.1733 
Volume   =     10747.6562 
SHAKE stats (type/ave/delta) on step 130000
  2 0.956962 1.47689e-05
  2 104.52 0.00107839
---------------- Step   130000 ----- CPU =    920.8110 (sec) ----------------
TotEng   =     -3270.2202 KinEng   =       636.2568 Temp     =       294.8218 
PotEng   =     -3906.4770 E_bond   =         0.1685 E_angle  =         0.8491 
E_dihed  =         0.0000 E_impro  =         0.0000 E_vdwl   =       741.9679 
E_coul   =     25367.5245 E_long   =    -30016.9871 Press    =       373.3991 
Volume   =     10921.8057 
SHAKE stats (type/ave/delta) on step 135000
  2 0.956982 1.29356e-05
  2 104.52 0.000645994
---------------- Step   135000 ----- CPU =    955.6721 (sec) ----------------
TotEng   =     -3295.6630 KinEng   =       637.2490 Temp     =       295.2815 
PotEng   =     -3932.9120 E_bond   =         0.1253 E_angle  =         2.0641 
E_dihed  =         0.0000 E_impro  =         0.0000 E_vdwl   =       716.9900 
E_coul   =     25362.4641 E_long   =    -30014.5555 Press    =      -277.0959 
Volume   =     10890.8155 
SHAKE stats (type/ave/delta) on step 140000
  2 0.95702 5.67939e-06
  2 104.52 0.000421875
---------------- Step   140000 ----- CPU =    990.6725 (sec) ----------------
TotEng   =     -3242.2456 KinEng   =       665.4806 Temp     =       308.3632 
PotEng   =     -3907.7263 E_bond   =         0.0346 E_angle  =         1.0790 
E_dihed  =         0.0000 E_impro  =         0.0000 E_vdwl   =       792.8019 
E_coul   =     25314.9154 E_long   =    -30016.5573 Press    =      1467.1199 
Volume   =     10976.0762 
SHAKE stats (type/ave/delta) on step 145000
  2 0.957005 5.41232e-06
  2 104.52 0.000656356
---------------- Step   145000 ----- CPU =   1027.2839 (sec) ----------------
TotEng   =     -3308.6030 KinEng   =       628.0534 Temp     =       291.0206 
PotEng   =     -3936.6564 E_bond   =         0.0604 E_angle  =         3.4892 
E_dihed  =         0.0000 E_impro  =         0.0000 E_vdwl   =       754.1069 
E_coul   =     25323.1733 E_long   =    -30017.4863 Press    =       489.2142 
Volume   =     10767.7390 
SHAKE stats (type/ave/delta) on step 150000
  2 0.957019 6.337e-06
  2 104.52 0.000779717
---------------- Step   150000 ----- CPU =   1062.7448 (sec) ----------------
TotEng   =     -3328.8040 KinEng   =       641.5697 Temp     =       297.2836 
PotEng   =     -3970.3736 E_bond   =         0.0949 E_angle  =         2.3048 
E_dihed  =         0.0000 E_impro  =         0.0000 E_vdwl   =       765.0890 
E_coul   =     25279.5789 E_long   =    -30017.4412 Press    =       259.6486 
Volume   =     10896.9100 
SHAKE stats (type/ave/delta) on step 155000
  2 0.956956 7.66661e-06
  2 104.52 0.000628036
---------------- Step   155000 ----- CPU =   1097.6469 (sec) ----------------
TotEng   =     -3257.8907 KinEng   =       667.7115 Temp     =       309.3969 
PotEng   =     -3925.6022 E_bond   =         0.0495 E_angle  =         1.8602 
E_dihed  =         0.0000 E_impro  =         0.0000 E_vdwl   =       726.0619 
E_coul   =     25361.2808 E_long   =    -30014.8544 Press    =       -64.2985 
Volume   =     10942.5976 
SHAKE stats (type/ave/delta) on step 160000
  2 0.956978 5.02647e-06
  2 104.52 0.000420771
---------------- Step   160000 ----- CPU =   1132.8401 (sec) ----------------
TotEng   =     -3299.9008 KinEng   =       661.2584 Temp     =       306.4068 
PotEng   =     -3961.1592 E_bond   =         0.2951 E_angle  =         2.2763 
E_dihed  =         0.0000 E_impro  =         0.0000 E_vdwl   =       738.9766 
E_coul   =     25313.3798 E_long   =    -30016.0869 Press    =      -679.6140 
Volume   =     11133.1350 
SHAKE stats (type/ave/delta) on step 165000
  2 0.95702 8.53339e-06
  2 104.52 0.00071382
---------------- Step   165000 ----- CPU =   1169.3718 (sec) ----------------
TotEng   =     -3356.7435 KinEng   =       635.0370 Temp     =       294.2565 
PotEng   =     -3991.7804 E_bond   =         0.1010 E_angle  =         1.6490 
E_dihed  =         0.0000 E_impro  =         0.0000 E_vdwl   =       780.4994 
E_coul   =     25241.6785 E_long   =    -30015.7084 Press    =       413.5533 
Volume   =     10916.6760 
SHAKE stats (type/ave/delta) on step 170000
  2 0.956983 8.47911e-06
  2 104.52 0.000687827
---------------- Step   170000 ----- CPU =   1204.3524 (sec) ----------------
TotEng   =     -3303.0066 KinEng   =       651.7339 Temp     =       301.9934 
PotEng   =     -3954.7405 E_bond   =         0.2832 E_angle  =         1.9595 
E_dihed  =         0.0000 E_impro  =         0.0000 E_vdwl   =       753.5596 
E_coul   =     25308.8340 E_long   =    -30019.3768 Press    =        45.1602 
Volume   =     11010.1763 
SHAKE stats (type/ave/delta) on step 175000
  2 0.957041 8.0816e-06
  2 104.52 0.00073782
---------------- Step   175000 ----- CPU =   1240.4033 (sec) ----------------
TotEng   =     -3328.1277 KinEng   =       644.2535 Temp     =       298.5272 
PotEng   =     -3972.3812 E_bond   =         0.8114 E_angle  =         2.1331 
E_dihed  =         0.0000 E_impro  =         0.0000 E_vdwl   =       784.1247 
E_coul   =     25257.5092 E_long   =    -30016.9597 Press    =       593.5895 
Volume   =     10867.1608 
SHAKE stats (type/ave/delta) on step 180000
  2 0.956971 6.01507e-06
  2 104.52 0.000481586
---------------- Step   180000 ----- CPU =   1275.4359 (sec) ----------------
TotEng   =     -3266.9978 KinEng   =       650.5932 Temp     =       301.4649 
PotEng   =     -3917.5910 E_bond   =         0.6986 E_angle  =         0.8360 
E_dihed  =         0.0000 E_impro  =         0.0000 E_vdwl   =       717.4166 
E_coul   =     25378.6515 E_long   =    -30015.1937 Press    =       393.0343 
Volume   =     10551.2958 
SHAKE stats (type/ave/delta) on step 185000
  2 0.956927 5.55239e-06
  2 104.52 0.000501055
---------------- Step   185000 ----- CPU =   1310.9290 (sec) ----------------
TotEng   =     -3295.3799 KinEng   =       642.5523 Temp     =       297.7389 
PotEng   =     -3937.9321 E_bond   =         0.1945 E_angle  =         0.8638 
E_dihed  =         0.0000 E_impro  =         0.0000 E_vdwl   =       763.3910 
E_coul   =     25315.9476 E_long   =    -30018.3290 Press    =       604.0445 
Volume   =     10862.6852 
SHAKE stats (type/ave/delta) on step 190000
  2 0.957007 4.34816e-06
  2 104.52 0.000412193
---------------- Step   190000 ----- CPU =   1346.4650 (sec) ----------------
TotEng   =     -3328.0436 KinEng   =       627.7979 Temp     =       290.9022 
PotEng   =     -3955.8415 E_bond   =         0.0127 E_angle  =         0.8741 
E_dihed  =         0.0000 E_impro  =         0.0000 E_vdwl   =       683.7361 
E_coul   =     25373.9612 E_long   =    -30014.4256 Press    =     -1429.6623 
Volume   =     10858.2114 
SHAKE stats (type/ave/delta) on step 195000
  2 0.957018 6.16031e-06
  2 104.52 0.000446439
---------------- Step   195000 ----- CPU =   1382.0136 (sec) ----------------
TotEng   =     -3291.0901 KinEng   =       676.1613 Temp     =       313.3123 
PotEng   =     -3967.2513 E_bond   =         0.0646 E_angle  =         0.3474 
E_dihed  =         0.0000 E_impro  =         0.0000 E_vdwl   =       757.6364 
E_coul   =     25290.9563 E_long   =    -30016.2560 Press    =       174.6383 
Volume   =     10832.5321 
SHAKE stats (type/ave/delta) on step 200000
  2 0.956984 9.80354e-06
  2 104.52 0.000676548
---------------- Step   200000 ----- CPU =   1417.8660 (sec) ----------------
TotEng   =     -3306.5756 KinEng   =       665.1536 Temp     =       308.2117 
PotEng   =     -3971.7293 E_bond   =         0.0116 E_angle  =         0.6262 
E_dihed  =         0.0000 E_impro  =         0.0000 E_vdwl   =       751.6659 
E_coul   =     25291.9318 E_long   =    -30015.9648 Press    =      -143.2013 
Volume   =     11076.2383 
SHAKE stats (type/ave/delta) on step 205000
  2 0.956998 4.87739e-06
  2 104.52 0.000453763
---------------- Step   205000 ----- CPU =   1453.3047 (sec) ----------------
TotEng   =     -3286.9331 KinEng   =       655.0435 Temp     =       303.5269 
PotEng   =     -3941.9765 E_bond   =         0.0181 E_angle  =         0.7340 
E_dihed  =         0.0000 E_impro  =         0.0000 E_vdwl   =       728.1092 
E_coul   =     25340.4826 E_long   =    -30011.3203 Press    =        43.7754 
Volume   =     10750.0464 
SHAKE stats (type/ave/delta) on step 210000
  2 0.956995 6.17744e-06
  2 104.52 0.000368971
---------------- Step   210000 ----- CPU =   1488.2112 (sec) ----------------
TotEng   =     -3308.6248 KinEng   =       605.2526 Temp     =       280.4554 
PotEng   =     -3913.8773 E_bond   =         0.2568 E_angle  =         0.7976 
E_dihed  =         0.0000 E_impro  =         0.0000 E_vdwl   =       651.4060 
E_coul   =     25450.0475 E_long   =    -30016.3853 Press    =     -1755.9884 
Volume   =     11030.1159 
SHAKE stats (type/ave/delta) on step 215000
  2 0.956965 9.5115e-06
  2 104.52 0.000752626
---------------- Step   215000 ----- CPU =   1524.2098 (sec) ----------------
TotEng   =     -3217.6058 KinEng   =       680.6052 Temp     =       315.3715 
PotEng   =     -3898.2111 E_bond   =         0.1573 E_angle  =         1.1605 
E_dihed  =         0.0000 E_impro  =         0.0000 E_vdwl   =       744.3949 
E_coul   =     25371.6057 E_long   =    -30015.5295 Press    =       317.7564 
Volume   =     11042.1637 
SHAKE stats (type/ave/delta) on step 220000
  2 0.956959 4.64464e-06
  2 104.52 0.000403395
---------------- Step   220000 ----- CPU =   1559.6204 (sec) ----------------
TotEng   =     -3276.2119 KinEng   =       634.8841 Temp     =       294.1857 
PotEng   =     -3911.0960 E_bond   =         0.3911 E_angle  =         1.1077 
E_dihed  =         0.0000 E_impro  =         0.0000 E_vdwl   =       682.6338 
E_coul   =     25421.2680 E_long   =    -30016.4966 Press    =      -744.1995 
Volume   =     10807.5658 
SHAKE stats (type/ave/delta) on step 225000
  2 0.957039 4.95019e-06
  2 104.52 0.000462171
---------------- Step   225000 ----- CPU =   1594.0402 (sec) ----------------
TotEng   =     -3312.3561 KinEng   =       630.7460 Temp     =       292.2682 
PotEng   =     -3943.1021 E_bond   =         0.0554 E_angle  =         1.2107 
E_dihed  =         0.0000 E_impro  =         0.0000 E_vdwl   =       703.1155 
E_coul   =     25368.0828 E_long   =    -30015.5665 Press    =     -1003.4435 
Volume   =     11064.3044 
SHAKE stats (type/ave/delta) on step 230000
  2 0.956965 5.57468e-06
  2 104.52 0.000470281
---------------- Step   230000 ----- CPU =   1628.5597 (sec) ----------------
TotEng   =     -3299.8556 KinEng   =       663.0156 Temp     =       307.2210 
PotEng   =     -3962.8712 E_bond   =         0.0489 E_angle  =         0.9690 
E_dihed  =         0.0000 E_impro  =         0.0000 E_vdwl   =       699.5858 
E_coul   =     25353.9259 E_long   =    -30017.4008 Press    =     -1089.7603 
Volume   =     11037.6013 
SHAKE stats (type/ave/delta) on step 235000
  2 0.957072 4.35942e-06
  2 104.52 0.000363771
---------------- Step   235000 ----- CPU =   1664.3185 (sec) ----------------
TotEng   =     -3276.3344 KinEng   =       646.8033 Temp     =       299.7087 
PotEng   =     -3923.1378 E_bond   =         0.5091 E_angle  =         0.8708 
E_dihed  =         0.0000 E_impro  =         0.0000 E_vdwl   =       742.3578 
E_coul   =     25346.2405 E_long   =    -30013.1160 Press    =      -428.6228 
Volume   =     11205.2117 
SHAKE stats (type/ave/delta) on step 240000
  2 0.957021 1.79745e-05
  2 104.52 0.00137981
---------------- Step   240000 ----- CPU =   1699.5062 (sec) ----------------
TotEng   =     -3259.1012 KinEng   =       629.0270 Temp     =       291.4717 
PotEng   =     -3888.1282 E_bond   =         1.2064 E_angle  =         1.3018 
E_dihed  =         0.0000 E_impro  =         0.0000 E_vdwl   =       728.8631 
E_coul   =     25398.9276 E_long   =    -30018.4271 Press    =       702.9426 
Volume   =     10798.9411 
SHAKE stats (type/ave/delta) on step 245000
  2 0.956993 4.84234e-06
  2 104.52 0.000408242
---------------- Step   245000 ----- CPU =   1734.6772 (sec) ----------------
TotEng   =     -3272.8561 KinEng   =       655.3895 Temp     =       303.6873 
PotEng   =     -3928.2456 E_bond   =         0.1025 E_angle  =         2.3063 
E_dihed  =         0.0000 E_impro  =         0.0000 E_vdwl   =       751.4398 
E_coul   =     25331.0106 E_long   =    -30013.1047 Press    =       458.8298 
Volume   =     10923.8697 
SHAKE stats (type/ave/delta) on step 250000
  2 0.957036 7.43246e-06
  2 104.52 0.000699317
---------------- Step   250000 ----- CPU =   1770.5658 (sec) ----------------
TotEng   =     -3345.6791 KinEng   =       634.5097 Temp     =       294.0123 
PotEng   =     -3980.1888 E_bond   =         3.0173 E_angle  =         0.8906 
E_dihed  =         0.0000 E_impro  =         0.0000 E_vdwl   =       738.6682 
E_coul   =     25293.0290 E_long   =    -30015.7939 Press    =       -99.6022 
Volume   =     10884.7897 
Loop time of 1770.57 on 8 procs for 250000 steps with 1085 atoms

Pair  time (%) = 1260.21 (71.1753)
Bond  time (%) = 0.164648 (0.00929919)
Kspce time (%) = 275.862 (15.5804)
Neigh time (%) = 46.855 (2.64633)
Comm  time (%) = 64.2984 (3.63152)
Outpt time (%) = 0.00271428 (0.0001533)
Other time (%) = 123.178 (6.95696)

FFT time (% of Kspce) = 31.8628 (11.5503)
FFT Gflps 3d (1d only) = 4.30266 35.2873

Nlocal:    135.625 ave 146 max 127 min
Histogram: 1 0 1 2 1 1 0 1 0 1
Nghost:    4335.25 ave 4378 max 4295 min
Histogram: 2 0 1 0 1 1 0 2 0 1
Neighs:    52038.6 ave 60233 max 45497 min
Histogram: 2 0 1 2 0 0 0 1 1 1

Total # of neighbors = 416309
Ave neighs/atom = 383.695
Ave special neighs/atom = 2.00922
Neighbor list builds = 19924
Dangerous builds = 2441

reset_timestep 0

variable lambda equal ramp(0.0,1.0)

fix fADAPT all adapt 125000 pair lj/cut/tip4p/long/soft lambda 1*2 3*4 v_lambda after yes

variable dlambda equal 0.05

compute cFEP all fep ${temp} pair lj/cut/tip4p/long/soft lambda 1*2 3*4 v_dlambda
compute cFEP all fep 300 pair lj/cut/tip4p/long/soft lambda 1*2 3*4 v_dlambda

fix fFEP all ave/time 25 4000 125000 c_cFEP[1] c_cFEP[2] file fep01.lmp

# compute cRDF all rdf 100 3 3 3 4 4 4
# fix fRDF all ave/time 2000 500 ${nsteps} c_cRDF file rdf.lammps mode vector

group owater type 3
360 atoms in group owater
compute cMSD owater msd
fix fMSD owater ave/time 1 1 ${ndump} c_cMSD[1] c_cMSD[2] c_cMSD[3] c_cMSD[4] file msd.lammps
fix fMSD owater ave/time 1 1 25000 c_cMSD[1] c_cMSD[2] c_cMSD[3] c_cMSD[4] file msd.lammps

dump dCONF all custom ${ndump} dump.lammpstrj id mol type element x y z ix iy iz
dump dCONF all custom 25000 dump.lammpstrj id mol type element x y z ix iy iz
dump_modify dCONF element C H O H

run ${nsteps}
run 2500000
PPPM initialization ...
  G vector (1/distance) = 0.285891
  grid = 15 15 15
  stencil order = 5
  estimated absolute RMS force accuracy = 0.014453
  estimated relative force accuracy = 4.35247e-05
  using double precision FFTs
  3d grid and FFT values/proc = 2744 512
FEP settings ...
  temperature = 300.000000
  tail no
  lj/cut/tip4p/long/soft lambda 1-2 3-4
SHAKE stats (type/ave/delta) on step 0
  2 0.957036 7.43246e-06
  2 104.52 0.000699317
Memory usage per processor = 7.76436 Mbytes
---------------- Step        0 ----- CPU =      0.0000 (sec) ----------------
TotEng   =     -3345.5968 KinEng   =       634.5097 Temp     =       294.0123 
PotEng   =     -3980.1066 E_bond   =         3.0173 E_angle  =         0.8906 
E_dihed  =         0.0000 E_impro  =         0.0000 E_vdwl   =       738.6682 
E_coul   =     27032.2818 E_long   =    -31754.9645 Press    =       -99.4004 
Volume   =     10884.7897 
SHAKE stats (type/ave/delta) on step 5000
  2 0.957035 1.06351e-05
  2 104.52 0.00110046
---------------- Step     5000 ----- CPU =     35.1559 (sec) ----------------
TotEng   =     -3373.4275 KinEng   =       655.2010 Temp     =       303.5999 
PotEng   =     -4028.6286 E_bond   =         0.4478 E_angle  =         3.3169 
E_dihed  =         0.0000 E_impro  =         0.0000 E_vdwl   =       778.0701 
E_coul   =     26946.6793 E_long   =    -31757.1427 Press    =       607.1653 
Volume   =     10519.8141 
SHAKE stats (type/ave/delta) on step 10000
  2 0.956959 6.41312e-06
  2 104.52 0.000391357
---------------- Step    10000 ----- CPU =     71.1188 (sec) ----------------
TotEng   =     -3342.8342 KinEng   =       630.1650 Temp     =       291.9990 
PotEng   =     -3972.9992 E_bond   =         0.2626 E_angle  =         1.4918 
E_dihed  =         0.0000 E_impro  =         0.0000 E_vdwl   =       755.9109 
E_coul   =     27025.9028 E_long   =    -31756.5673 Press    =       -54.6542 
Volume   =     11089.6701 
SHAKE stats (type/ave/delta) on step 15000
  2 0.957037 1.03248e-05
  2 104.52 0.000597708
---------------- Step    15000 ----- CPU =    105.7705 (sec) ----------------
TotEng   =     -3313.6670 KinEng   =       619.7544 Temp     =       287.1751 
PotEng   =     -3933.4214 E_bond   =         0.0427 E_angle  =         1.1115 
E_dihed  =         0.0000 E_impro  =         0.0000 E_vdwl   =       736.3008 
E_coul   =     27085.4484 E_long   =    -31756.3248 Press    =      -346.0555 
Volume   =     11097.9361 
SHAKE stats (type/ave/delta) on step 20000
  2 0.956964 1.11917e-05
  2 104.52 0.000982033
---------------- Step    20000 ----- CPU =    141.1655 (sec) ----------------
TotEng   =     -3375.7199 KinEng   =       639.5846 Temp     =       296.3638 
PotEng   =     -4015.3045 E_bond   =         0.5330 E_angle  =         0.6737 
E_dihed  =         0.0000 E_impro  =         0.0000 E_vdwl   =       794.7771 
E_coul   =     26943.7643 E_long   =    -31755.0526 Press    =       653.7652 
Volume   =     10741.0465 
SHAKE stats (type/ave/delta) on step 25000
  2 0.957027 7.52904e-06
  2 104.52 0.00070436
---------------- Step    25000 ----- CPU =    176.8494 (sec) ----------------
TotEng   =     -3335.8982 KinEng   =       638.2406 Temp     =       295.7410 
PotEng   =     -3974.1387 E_bond   =         0.1049 E_angle  =         1.2994 
E_dihed  =         0.0000 E_impro  =         0.0000 E_vdwl   =       723.8334 
E_coul   =     27056.4116 E_long   =    -31755.7881 Press    =      -508.2948 
Volume   =     10935.7210 
SHAKE stats (type/ave/delta) on step 30000
  2 0.956953 1.04379e-05
  2 104.52 0.00080146
---------------- Step    30000 ----- CPU =    214.5402 (sec) ----------------
TotEng   =     -3257.5219 KinEng   =       672.5896 Temp     =       311.6573 
PotEng   =     -3930.1115 E_bond   =         0.2243 E_angle  =         1.2136 
E_dihed  =         0.0000 E_impro  =         0.0000 E_vdwl   =       766.4041 
E_coul   =     27057.3338 E_long   =    -31755.2873 Press    =       324.9498 
Volume   =     11066.3228 
SHAKE stats (type/ave/delta) on step 35000
  2 0.957016 5.20126e-06
  2 104.52 0.000479532
---------------- Step    35000 ----- CPU =    250.8970 (sec) ----------------
TotEng   =     -3207.3771 KinEng   =       682.1105 Temp     =       316.0690 
PotEng   =     -3889.4876 E_bond   =         0.1290 E_angle  =         2.0899 
E_dihed  =         0.0000 E_impro  =         0.0000 E_vdwl   =       682.0853 
E_coul   =     27181.3415 E_long   =    -31755.1333 Press    =      -725.8747 
Volume   =     10998.3317 
SHAKE stats (type/ave/delta) on step 40000
  2 0.956974 5.49337e-06
  2 104.52 0.000473278
---------------- Step    40000 ----- CPU =    287.6608 (sec) ----------------
TotEng   =     -3289.1783 KinEng   =       662.6674 Temp     =       307.0596 
PotEng   =     -3951.8456 E_bond   =         0.6738 E_angle  =         3.5457 
E_dihed  =         0.0000 E_impro  =         0.0000 E_vdwl   =       737.3900 
E_coul   =     27061.6039 E_long   =    -31755.0591 Press    =       -74.1515 
Volume   =     10977.8622 
SHAKE stats (type/ave/delta) on step 45000
  2 0.956998 9.60295e-06
  2 104.52 0.00132903
---------------- Step    45000 ----- CPU =    324.9974 (sec) ----------------
TotEng   =     -3311.0184 KinEng   =       663.6963 Temp     =       307.5364 
PotEng   =     -3974.7147 E_bond   =         2.1927 E_angle  =         1.4684 
E_dihed  =         0.0000 E_impro  =         0.0000 E_vdwl   =       759.5145 
E_coul   =     27018.4692 E_long   =    -31756.3596 Press    =        52.4469 
Volume   =     11076.7143 
SHAKE stats (type/ave/delta) on step 50000
  2 0.957036 5.35383e-06
  2 104.52 0.000568066
---------------- Step    50000 ----- CPU =    362.5080 (sec) ----------------
TotEng   =     -3364.0808 KinEng   =       639.3230 Temp     =       296.2426 
PotEng   =     -4003.4038 E_bond   =         0.0561 E_angle  =         2.7202 
E_dihed  =         0.0000 E_impro  =         0.0000 E_vdwl   =       708.3542 
E_coul   =     27044.4007 E_long   =    -31758.9350 Press    =      -564.2494 
Volume   =     10807.8653 
SHAKE stats (type/ave/delta) on step 55000
  2 0.956996 4.71829e-06
  2 104.52 0.00036844
---------------- Step    55000 ----- CPU =    399.2996 (sec) ----------------
TotEng   =     -3338.3060 KinEng   =       620.6648 Temp     =       287.5970 
PotEng   =     -3958.9709 E_bond   =         0.7375 E_angle  =         1.5729 
E_dihed  =         0.0000 E_impro  =         0.0000 E_vdwl   =       752.5929 
E_coul   =     27041.9142 E_long   =    -31755.7883 Press    =       -10.0578 
Volume   =     10983.4255 
SHAKE stats (type/ave/delta) on step 60000
  2 0.957001 6.83696e-06
  2 104.52 0.000640195
---------------- Step    60000 ----- CPU =    436.1191 (sec) ----------------
TotEng   =     -3301.4770 KinEng   =       671.2000 Temp     =       311.0134 
PotEng   =     -3972.6770 E_bond   =         0.3103 E_angle  =         0.5551 
E_dihed  =         0.0000 E_impro  =         0.0000 E_vdwl   =       845.1214 
E_coul   =     26937.1935 E_long   =    -31755.8573 Press    =      1886.9914 
Volume   =     10955.2176 
SHAKE stats (type/ave/delta) on step 65000
  2 0.957021 1.82913e-05
  2 104.52 0.00119104
---------------- Step    65000 ----- CPU =    473.1803 (sec) ----------------
TotEng   =     -3285.0176 KinEng   =       652.8720 Temp     =       302.5208 
PotEng   =     -3937.8897 E_bond   =         0.5604 E_angle  =         1.0215 
E_dihed  =         0.0000 E_impro  =         0.0000 E_vdwl   =       708.2896 
E_coul   =     27103.8656 E_long   =    -31751.6268 Press    =       -41.3831 
Volume   =     10662.6410 
SHAKE stats (type/ave/delta) on step 70000
  2 0.956992 4.35102e-06
  2 104.52 0.000460112
---------------- Step    70000 ----- CPU =    509.8912 (sec) ----------------
TotEng   =     -3269.9962 KinEng   =       648.7933 Temp     =       300.6308 
PotEng   =     -3918.7895 E_bond   =         0.3729 E_angle  =         1.6479 
E_dihed  =         0.0000 E_impro  =         0.0000 E_vdwl   =       710.5090 
E_coul   =     27121.9925 E_long   =    -31753.3118 Press    =      -870.0823 
Volume   =     11257.7335 
SHAKE stats (type/ave/delta) on step 75000
  2 0.957019 8.22886e-06
  2 104.52 0.000554664
---------------- Step    75000 ----- CPU =    546.6825 (sec) ----------------
TotEng   =     -3273.9195 KinEng   =       650.7403 Temp     =       301.5330 
PotEng   =     -3924.6598 E_bond   =         0.2456 E_angle  =         1.5451 
E_dihed  =         0.0000 E_impro  =         0.0000 E_vdwl   =       739.4593 
E_coul   =     27086.8695 E_long   =    -31752.7793 Press    =       193.3401 
Volume   =     10838.9496 
SHAKE stats (type/ave/delta) on step 80000
  2 0.957012 6.55464e-06
  2 104.52 0.000521488
---------------- Step    80000 ----- CPU =    584.4374 (sec) ----------------
TotEng   =     -3309.5504 KinEng   =       633.8361 Temp     =       293.7001 
PotEng   =     -3943.3866 E_bond   =         0.6912 E_angle  =         1.3969 
E_dihed  =         0.0000 E_impro  =         0.0000 E_vdwl   =       696.8230 
E_coul   =     27112.8074 E_long   =    -31755.1051 Press    =     -1070.6775 
Volume   =     11047.9153 
SHAKE stats (type/ave/delta) on step 85000
  2 0.957027 6.39994e-06
  2 104.52 0.000541753
---------------- Step    85000 ----- CPU =    622.2561 (sec) ----------------
TotEng   =     -3321.7675 KinEng   =       694.9106 Temp     =       322.0002 
PotEng   =     -4016.6781 E_bond   =         0.0297 E_angle  =         0.6410 
E_dihed  =         0.0000 E_impro  =         0.0000 E_vdwl   =       819.5481 
E_coul   =     26920.7074 E_long   =    -31757.6042 Press    =      1311.9034 
Volume   =     10719.8095 
SHAKE stats (type/ave/delta) on step 90000
  2 0.957011 5.11653e-06
  2 104.52 0.000480074
---------------- Step    90000 ----- CPU =    658.8841 (sec) ----------------
TotEng   =     -3270.3617 KinEng   =       675.6234 Temp     =       313.0630 
PotEng   =     -3945.9851 E_bond   =         0.5409 E_angle  =         0.6956 
E_dihed  =         0.0000 E_impro  =         0.0000 E_vdwl   =       744.1338 
E_coul   =     27061.5606 E_long   =    -31752.9159 Press    =        52.2547 
Volume   =     11099.2468 
SHAKE stats (type/ave/delta) on step 95000
  2 0.956998 6.19258e-06
  2 104.52 0.000491002
---------------- Step    95000 ----- CPU =    696.3341 (sec) ----------------
TotEng   =     -3327.9192 KinEng   =       624.1813 Temp     =       289.2264 
PotEng   =     -3952.1005 E_bond   =         0.1482 E_angle  =         0.4404 
E_dihed  =         0.0000 E_impro  =         0.0000 E_vdwl   =       743.0960 
E_coul   =     27058.5809 E_long   =    -31754.3660 Press    =       153.6659 
Volume   =     10821.2584 
SHAKE stats (type/ave/delta) on step 100000
  2 0.957036 7.20936e-06
  2 104.52 0.000603089
---------------- Step   100000 ----- CPU =    733.9854 (sec) ----------------
TotEng   =     -3345.0405 KinEng   =       634.8043 Temp     =       294.1488 
PotEng   =     -3979.8448 E_bond   =         0.1928 E_angle  =         1.1775 
E_dihed  =         0.0000 E_impro  =         0.0000 E_vdwl   =       746.2169 
E_coul   =     27024.8951 E_long   =    -31752.3271 Press    =      -298.1814 
Volume   =     11012.9674 
SHAKE stats (type/ave/delta) on step 105000
  2 0.957046 6.27201e-06
  2 104.52 0.000475596
---------------- Step   105000 ----- CPU =    771.6108 (sec) ----------------
TotEng   =     -3222.1540 KinEng   =       657.1505 Temp     =       304.5033 
PotEng   =     -3879.3045 E_bond   =         0.2734 E_angle  =         0.3950 
E_dihed  =         0.0000 E_impro  =         0.0000 E_vdwl   =       744.9349 
E_coul   =     27130.9544 E_long   =    -31755.8621 Press    =       949.3860 
Volume   =     10760.8802 
SHAKE stats (type/ave/delta) on step 110000
  2 0.957037 7.67487e-06
  2 104.52 0.000712219
---------------- Step   110000 ----- CPU =    808.7991 (sec) ----------------
TotEng   =     -3248.1232 KinEng   =       664.6307 Temp     =       307.9694 
PotEng   =     -3912.7539 E_bond   =         0.1746 E_angle  =         1.2020 
E_dihed  =         0.0000 E_impro  =         0.0000 E_vdwl   =       697.1030 
E_coul   =     27143.6714 E_long   =    -31754.9050 Press    =      -299.1119 
Volume   =     10749.2399 
SHAKE stats (type/ave/delta) on step 115000
  2 0.956999 7.99482e-06
  2 104.52 0.000541692
---------------- Step   115000 ----- CPU =    846.0540 (sec) ----------------
TotEng   =     -3317.7499 KinEng   =       652.7459 Temp     =       302.4623 
PotEng   =     -3970.4958 E_bond   =         0.0896 E_angle  =         0.6252 
E_dihed  =         0.0000 E_impro  =         0.0000 E_vdwl   =       690.8921 
E_coul   =     27093.9936 E_long   =    -31756.0963 Press    =     -1274.4692 
Volume   =     10963.3920 
SHAKE stats (type/ave/delta) on step 120000
  2 0.95698 4.94282e-06
  2 104.52 0.000367987
---------------- Step   120000 ----- CPU =    884.1949 (sec) ----------------
TotEng   =     -3290.8484 KinEng   =       614.6950 Temp     =       284.8307 
PotEng   =     -3905.5434 E_bond   =         0.0622 E_angle  =         0.3499 
E_dihed  =         0.0000 E_impro  =         0.0000 E_vdwl   =       740.5604 
E_coul   =     27109.3412 E_long   =    -31755.8572 Press    =       -28.8018 
Volume   =     11217.1631 
SHAKE stats (type/ave/delta) on step 125000
  2 0.956926 9.03909e-06
  2 104.52 0.000818826
---------------- Step   125000 ----- CPU =    921.8696 (sec) ----------------
TotEng   =     -3344.3205 KinEng   =       633.7563 Temp     =       293.6631 
PotEng   =     -3978.0768 E_bond   =         0.2753 E_angle  =         0.5039 
E_dihed  =         0.0000 E_impro  =         0.0000 E_vdwl   =       796.5887 
E_coul   =     26975.2670 E_long   =    -31750.7116 Press    =      1117.2886 
Volume   =     10802.2517 
SHAKE stats (type/ave/delta) on step 130000
  2 0.957055 9.39943e-06
  2 104.52 0.00128167
---------------- Step   130000 ----- CPU =    958.2221 (sec) ----------------
TotEng   =     -3224.1055 KinEng   =       680.8672 Temp     =       315.4929 
PotEng   =     -3904.9726 E_bond   =         0.1316 E_angle  =         0.4640 
E_dihed  =         0.0000 E_impro  =         0.0000 E_vdwl   =       750.4596 
E_coul   =     27097.8361 E_long   =    -31753.8639 Press    =       645.9379 
Volume   =     10837.8102 
SHAKE stats (type/ave/delta) on step 135000
  2 0.956947 5.7033e-06
  2 104.52 0.000440605
---------------- Step   135000 ----- CPU =    992.9544 (sec) ----------------
TotEng   =     -3299.9416 KinEng   =       651.5205 Temp     =       301.8945 
PotEng   =     -3951.4621 E_bond   =         0.1543 E_angle  =         0.7856 
E_dihed  =         0.0000 E_impro  =         0.0000 E_vdwl   =       791.9887 
E_coul   =     27010.1605 E_long   =    -31754.5513 Press    =       713.9874 
Volume   =     11027.7801 
SHAKE stats (type/ave/delta) on step 140000
  2 0.956957 8.96436e-06
  2 104.52 0.000819386
---------------- Step   140000 ----- CPU =   1028.6553 (sec) ----------------
TotEng   =     -3296.4551 KinEng   =       658.2221 Temp     =       304.9998 
PotEng   =     -3954.6772 E_bond   =         0.2258 E_angle  =         0.4525 
E_dihed  =         0.0000 E_impro  =         0.0000 E_vdwl   =       789.0292 
E_coul   =     27011.3348 E_long   =    -31755.7196 Press    =      1310.2198 
Volume   =     10714.0769 
SHAKE stats (type/ave/delta) on step 145000
  2 0.957026 8.42463e-06
  2 104.52 0.000915283
---------------- Step   145000 ----- CPU =   1064.1359 (sec) ----------------
TotEng   =     -3239.4001 KinEng   =       659.2183 Temp     =       305.4614 
PotEng   =     -3898.6184 E_bond   =         0.0464 E_angle  =         0.6919 
E_dihed  =         0.0000 E_impro  =         0.0000 E_vdwl   =       771.6705 
E_coul   =     27084.9956 E_long   =    -31756.0228 Press    =       669.3812 
Volume   =     11233.9461 
SHAKE stats (type/ave/delta) on step 150000
  2 0.956912 5.76326e-06
  2 104.52 0.000394202
---------------- Step   150000 ----- CPU =   1099.3320 (sec) ----------------
TotEng   =     -3235.7834 KinEng   =       662.8851 Temp     =       307.1605 
PotEng   =     -3898.6685 E_bond   =         0.1454 E_angle  =         0.2200 
E_dihed  =         0.0000 E_impro  =         0.0000 E_vdwl   =       755.6138 
E_coul   =     27095.9143 E_long   =    -31750.5620 Press    =       362.9073 
Volume   =     11106.2303 
SHAKE stats (type/ave/delta) on step 155000
  2 0.957035 6.37815e-06
  2 104.52 0.000484661
---------------- Step   155000 ----- CPU =   1136.3985 (sec) ----------------
TotEng   =     -3250.9429 KinEng   =       659.4950 Temp     =       305.5896 
PotEng   =     -3910.4379 E_bond   =         0.1896 E_angle  =         0.8373 
E_dihed  =         0.0000 E_impro  =         0.0000 E_vdwl   =       721.8586 
E_coul   =     27119.6280 E_long   =    -31752.9514 Press    =       281.1638 
Volume   =     10814.3993 
SHAKE stats (type/ave/delta) on step 160000
  2 0.95697 1.1736e-05
  2 104.52 0.000897769
---------------- Step   160000 ----- CPU =   1173.9616 (sec) ----------------
TotEng   =     -3256.9985 KinEng   =       680.9644 Temp     =       315.5379 
PotEng   =     -3937.9629 E_bond   =         0.1579 E_angle  =         0.6208 
E_dihed  =         0.0000 E_impro  =         0.0000 E_vdwl   =       766.3606 
E_coul   =     27050.8054 E_long   =    -31755.9077 Press    =       968.9642 
Volume   =     10809.4414 
SHAKE stats (type/ave/delta) on step 165000
  2 0.957036 6.69082e-06
  2 104.52 0.000602494
---------------- Step   165000 ----- CPU =   1211.0662 (sec) ----------------
TotEng   =     -3372.9586 KinEng   =       626.5421 Temp     =       290.3203 
PotEng   =     -3999.5007 E_bond   =         0.2565 E_angle  =         0.8353 
E_dihed  =         0.0000 E_impro  =         0.0000 E_vdwl   =       820.1224 
E_coul   =     26936.2607 E_long   =    -31756.9755 Press    =      1388.5102 
Volume   =     10675.9772 
SHAKE stats (type/ave/delta) on step 170000
  2 0.957027 6.84127e-06
  2 104.52 0.00045702
---------------- Step   170000 ----- CPU =   1248.7001 (sec) ----------------
TotEng   =     -3297.3852 KinEng   =       624.7697 Temp     =       289.4990 
PotEng   =     -3922.1549 E_bond   =         0.6897 E_angle  =         0.2545 
E_dihed  =         0.0000 E_impro  =         0.0000 E_vdwl   =       772.2586 
E_coul   =     27055.2423 E_long   =    -31750.6000 Press    =       511.8138 
Volume   =     10969.4345 
SHAKE stats (type/ave/delta) on step 175000
  2 0.956999 9.31045e-06
  2 104.52 0.000614795
---------------- Step   175000 ----- CPU =   1285.4888 (sec) ----------------
TotEng   =     -3276.2853 KinEng   =       670.2306 Temp     =       310.5642 
PotEng   =     -3946.5159 E_bond   =         0.0502 E_angle  =         0.4579 
E_dihed  =         0.0000 E_impro  =         0.0000 E_vdwl   =       711.5711 
E_coul   =     27097.6544 E_long   =    -31756.2495 Press    =        37.4428 
Volume   =     10664.7118 
SHAKE stats (type/ave/delta) on step 180000
  2 0.956951 5.88317e-06
  2 104.52 0.000410065
---------------- Step   180000 ----- CPU =   1322.5432 (sec) ----------------
TotEng   =     -3292.3889 KinEng   =       646.3648 Temp     =       299.5055 
PotEng   =     -3938.7536 E_bond   =         0.0404 E_angle  =         0.5643 
E_dihed  =         0.0000 E_impro  =         0.0000 E_vdwl   =       701.6474 
E_coul   =     27113.8406 E_long   =    -31754.8463 Press    =      -956.4392 
Volume   =     10979.8544 
SHAKE stats (type/ave/delta) on step 185000
  2 0.957015 6.97098e-06
  2 104.52 0.000490276
---------------- Step   185000 ----- CPU =   1359.3735 (sec) ----------------
TotEng   =     -3281.3472 KinEng   =       656.6730 Temp     =       304.2820 
PotEng   =     -3938.0202 E_bond   =         0.1660 E_angle  =         1.1341 
E_dihed  =         0.0000 E_impro  =         0.0000 E_vdwl   =       675.7282 
E_coul   =     27139.5129 E_long   =    -31754.5613 Press    =     -1349.0983 
Volume   =     11028.2488 
SHAKE stats (type/ave/delta) on step 190000
  2 0.957004 1.27682e-05
  2 104.52 0.00111759
---------------- Step   190000 ----- CPU =   1396.5047 (sec) ----------------
TotEng   =     -3281.5167 KinEng   =       665.6638 Temp     =       308.4481 
PotEng   =     -3947.1805 E_bond   =         0.8677 E_angle  =         0.5931 
E_dihed  =         0.0000 E_impro  =         0.0000 E_vdwl   =       683.8913 
E_coul   =     27124.5120 E_long   =    -31757.0447 Press    =     -1428.6849 
Volume   =     11038.4047 
SHAKE stats (type/ave/delta) on step 195000
  2 0.957063 6.6879e-06
  2 104.52 0.00054468
---------------- Step   195000 ----- CPU =   1433.4816 (sec) ----------------
TotEng   =     -3272.1505 KinEng   =       634.1184 Temp     =       293.8309 
PotEng   =     -3906.2689 E_bond   =         0.7423 E_angle  =         0.4523 
E_dihed  =         0.0000 E_impro  =         0.0000 E_vdwl   =       737.4670 
E_coul   =     27110.9946 E_long   =    -31755.9252 Press    =       -38.6727 
Volume   =     11034.0839 
SHAKE stats (type/ave/delta) on step 200000
  2 0.957003 7.95576e-06
  2 104.52 0.00060582
---------------- Step   200000 ----- CPU =   1470.5434 (sec) ----------------
TotEng   =     -3318.2753 KinEng   =       650.6262 Temp     =       301.4801 
PotEng   =     -3968.9014 E_bond   =         0.0599 E_angle  =         1.1765 
E_dihed  =         0.0000 E_impro  =         0.0000 E_vdwl   =       767.7339 
E_coul   =     27018.1133 E_long   =    -31755.9851 Press    =       934.7004 
Volume   =     10607.3969 
SHAKE stats (type/ave/delta) on step 205000
  2 0.957048 7.86634e-06
  2 104.52 0.000747955
---------------- Step   205000 ----- CPU =   1507.6294 (sec) ----------------
TotEng   =     -3223.1472 KinEng   =       659.4777 Temp     =       305.5816 
PotEng   =     -3882.6249 E_bond   =         0.1804 E_angle  =         0.8518 
E_dihed  =         0.0000 E_impro  =         0.0000 E_vdwl   =       730.8040 
E_coul   =     27139.9603 E_long   =    -31754.4215 Press    =       209.1044 
Volume   =     11070.3201 
SHAKE stats (type/ave/delta) on step 210000
  2 0.957002 7.06501e-06
  2 104.52 0.000567752
---------------- Step   210000 ----- CPU =   1544.7055 (sec) ----------------
TotEng   =     -3328.3582 KinEng   =       600.0114 Temp     =       278.0268 
PotEng   =     -3928.3696 E_bond   =         0.2261 E_angle  =         1.0349 
E_dihed  =         0.0000 E_impro  =         0.0000 E_vdwl   =       734.7034 
E_coul   =     27090.6511 E_long   =    -31754.9850 Press    =      -415.4182 
Volume   =     11095.1353 
SHAKE stats (type/ave/delta) on step 215000
  2 0.956914 1.07841e-05
  2 104.52 0.00112523
---------------- Step   215000 ----- CPU =   1581.5388 (sec) ----------------
TotEng   =     -3231.9396 KinEng   =       669.7623 Temp     =       310.3472 
PotEng   =     -3901.7020 E_bond   =         0.3352 E_angle  =         1.9901 
E_dihed  =         0.0000 E_impro  =         0.0000 E_vdwl   =       695.2527 
E_coul   =     27158.2538 E_long   =    -31757.5338 Press    =      -690.8166 
Volume   =     11052.4190 
SHAKE stats (type/ave/delta) on step 220000
  2 0.956969 1.08128e-05
  2 104.52 0.000991737
---------------- Step   220000 ----- CPU =   1618.7920 (sec) ----------------
TotEng   =     -3309.1450 KinEng   =       600.7728 Temp     =       278.3796 
PotEng   =     -3909.9178 E_bond   =         0.4102 E_angle  =         0.5776 
E_dihed  =         0.0000 E_impro  =         0.0000 E_vdwl   =       689.5430 
E_coul   =     27154.6280 E_long   =    -31755.0766 Press    =      -278.7119 
Volume   =     10730.6143 
SHAKE stats (type/ave/delta) on step 225000
  2 0.957002 6.4187e-06
  2 104.52 0.000728572
---------------- Step   225000 ----- CPU =   1657.2821 (sec) ----------------
TotEng   =     -3286.8830 KinEng   =       655.0016 Temp     =       303.5075 
PotEng   =     -3941.8846 E_bond   =         1.6047 E_angle  =         0.4874 
E_dihed  =         0.0000 E_impro  =         0.0000 E_vdwl   =       798.8825 
E_coul   =     27013.1402 E_long   =    -31755.9993 Press    =      1462.0425 
Volume   =     10964.7348 
SHAKE stats (type/ave/delta) on step 230000
  2 0.957032 9.8083e-06
  2 104.52 0.000900054
---------------- Step   230000 ----- CPU =   1694.6533 (sec) ----------------
TotEng   =     -3272.5167 KinEng   =       658.3227 Temp     =       305.0464 
PotEng   =     -3930.8394 E_bond   =         0.2027 E_angle  =         0.9528 
E_dihed  =         0.0000 E_impro  =         0.0000 E_vdwl   =       669.7378 
E_coul   =     27154.4833 E_long   =    -31756.2160 Press    =     -1358.6137 
Volume   =     11153.9547 
SHAKE stats (type/ave/delta) on step 235000
  2 0.95703 1.0663e-05
  2 104.52 0.000843597
---------------- Step   235000 ----- CPU =   1732.9490 (sec) ----------------
TotEng   =     -3257.6790 KinEng   =       664.6456 Temp     =       307.9763 
PotEng   =     -3922.3246 E_bond   =         1.6006 E_angle  =         2.4657 
E_dihed  =         0.0000 E_impro  =         0.0000 E_vdwl   =       714.5623 
E_coul   =     27114.7910 E_long   =    -31755.7442 Press    =      -453.6384 
Volume   =     10947.0387 
SHAKE stats (type/ave/delta) on step 240000
  2 0.956984 6.41239e-06
  2 104.52 0.000446604
---------------- Step   240000 ----- CPU =   1770.5982 (sec) ----------------
TotEng   =     -3289.0391 KinEng   =       645.4923 Temp     =       299.1012 
PotEng   =     -3934.5314 E_bond   =         0.2137 E_angle  =         1.5733 
E_dihed  =         0.0000 E_impro  =         0.0000 E_vdwl   =       771.1569 
E_coul   =     27048.9316 E_long   =    -31756.4069 Press    =      1067.4345 
Volume   =     10805.9160 
SHAKE stats (type/ave/delta) on step 245000
  2 0.957027 6.95741e-06
  2 104.52 0.000628862
---------------- Step   245000 ----- CPU =   1807.8509 (sec) ----------------
TotEng   =     -3281.4937 KinEng   =       650.7572 Temp     =       301.5408 
PotEng   =     -3932.2509 E_bond   =         0.1863 E_angle  =         2.8305 
E_dihed  =         0.0000 E_impro  =         0.0000 E_vdwl   =       677.4175 
E_coul   =     27142.3644 E_long   =    -31755.0497 Press    =      -971.5541 
Volume   =     10804.0315 
SHAKE stats (type/ave/delta) on step 250000
  2 0.956992 6.64265e-06
  2 104.52 0.000497286
---------------- Step   250000 ----- CPU =   1845.8602 (sec) ----------------
TotEng   =     -3251.8617 KinEng   =       704.7978 Temp     =       326.5816 
PotEng   =     -3956.6595 E_bond   =         0.0850 E_angle  =         0.4374 
E_dihed  =         0.0000 E_impro  =         0.0000 E_vdwl   =       783.2403 
E_coul   =     27014.6587 E_long   =    -31755.0809 Press    =      1672.1613 
Volume   =     10644.4361 
SHAKE stats (type/ave/delta) on step 255000
  2 0.957009 7.37457e-06
  2 104.52 0.000562899
---------------- Step   255000 ----- CPU =   1881.4007 (sec) ----------------
TotEng   =     -3253.4309 KinEng   =       657.5137 Temp     =       304.6716 
PotEng   =     -3910.9446 E_bond   =         0.5064 E_angle  =         2.9708 
E_dihed  =         0.0000 E_impro  =         0.0000 E_vdwl   =       757.8105 
E_coul   =     27084.0486 E_long   =    -31756.2808 Press    =       107.3078 
Volume   =     11082.8625 
SHAKE stats (type/ave/delta) on step 260000
  2 0.956981 7.83399e-06
  2 104.52 0.000638555
---------------- Step   260000 ----- CPU =   1916.0000 (sec) ----------------
TotEng   =     -3368.5809 KinEng   =       633.9222 Temp     =       293.7400 
PotEng   =     -4002.5031 E_bond   =         1.8621 E_angle  =         0.4176 
E_dihed  =         0.0000 E_impro  =         0.0000 E_vdwl   =       799.0112 
E_coul   =     26950.8846 E_long   =    -31754.6786 Press    =      1286.2100 
Volume   =     10650.8198 
SHAKE stats (type/ave/delta) on step 265000
  2 0.957009 1.23323e-05
  2 104.52 0.00123759
---------------- Step   265000 ----- CPU =   1951.1245 (sec) ----------------
TotEng   =     -3245.3247 KinEng   =       652.8495 Temp     =       302.5103 
PotEng   =     -3898.1742 E_bond   =         1.1429 E_angle  =         0.6410 
E_dihed  =         0.0000 E_impro  =         0.0000 E_vdwl   =       698.2880 
E_coul   =     27156.0623 E_long   =    -31754.3085 Press    =      -741.4143 
Volume   =     11044.8354 
SHAKE stats (type/ave/delta) on step 270000
  2 0.956941 1.05175e-05
  2 104.52 0.000790426
---------------- Step   270000 ----- CPU =   1987.0351 (sec) ----------------
TotEng   =     -3339.0090 KinEng   =       651.7011 Temp     =       301.9782 
PotEng   =     -3990.7102 E_bond   =         0.5503 E_angle  =         1.0491 
E_dihed  =         0.0000 E_impro  =         0.0000 E_vdwl   =       749.4959 
E_coul   =     27014.6171 E_long   =    -31756.4225 Press    =       327.7677 
Volume   =     10676.5274 
SHAKE stats (type/ave/delta) on step 275000
  2 0.956969 6.36107e-06
  2 104.52 0.000496851
---------------- Step   275000 ----- CPU =   2022.8774 (sec) ----------------
TotEng   =     -3191.1691 KinEng   =       682.8632 Temp     =       316.4178 
PotEng   =     -3874.0324 E_bond   =         0.1274 E_angle  =         1.3258 
E_dihed  =         0.0000 E_impro  =         0.0000 E_vdwl   =       718.3020 
E_coul   =     27159.4279 E_long   =    -31753.2155 Press    =        81.5427 
Volume   =     11012.4366 
SHAKE stats (type/ave/delta) on step 280000
  2 0.956941 7.29639e-06
  2 104.52 0.000618725
---------------- Step   280000 ----- CPU =   2059.5119 (sec) ----------------
TotEng   =     -3286.5146 KinEng   =       643.7120 Temp     =       298.2763 
PotEng   =     -3930.2265 E_bond   =         0.1859 E_angle  =         0.5131 
E_dihed  =         0.0000 E_impro  =         0.0000 E_vdwl   =       741.4471 
E_coul   =     27083.0602 E_long   =    -31755.4329 Press    =       212.4922 
Volume   =     10947.0556 
SHAKE stats (type/ave/delta) on step 285000
  2 0.956992 1.32612e-05
  2 104.52 0.00128521
---------------- Step   285000 ----- CPU =   2095.7009 (sec) ----------------
TotEng   =     -3267.9347 KinEng   =       678.5590 Temp     =       314.4233 
PotEng   =     -3946.4938 E_bond   =         0.9092 E_angle  =         2.3498 
E_dihed  =         0.0000 E_impro  =         0.0000 E_vdwl   =       744.5681 
E_coul   =     27060.7370 E_long   =    -31755.0578 Press    =      -230.6505 
Volume   =     10864.6161 
SHAKE stats (type/ave/delta) on step 290000
  2 0.957 7.34904e-06
  2 104.52 0.0006288
---------------- Step   290000 ----- CPU =   2132.5167 (sec) ----------------
TotEng   =     -3327.1341 KinEng   =       663.4495 Temp     =       307.4221 
PotEng   =     -3990.5836 E_bond   =         0.9322 E_angle  =         2.1934 
E_dihed  =         0.0000 E_impro  =         0.0000 E_vdwl   =       719.9000 
E_coul   =     27042.0037 E_long   =    -31755.6130 Press    =      -704.8737 
Volume   =     10890.1497 
SHAKE stats (type/ave/delta) on step 295000
  2 0.956961 6.7013e-06
  2 104.52 0.000476552
---------------- Step   295000 ----- CPU =   2169.8111 (sec) ----------------
TotEng   =     -3259.4176 KinEng   =       673.1532 Temp     =       311.9184 
PotEng   =     -3932.5708 E_bond   =         0.6785 E_angle  =         1.5483 
E_dihed  =         0.0000 E_impro  =         0.0000 E_vdwl   =       757.1186 
E_coul   =     27060.0803 E_long   =    -31751.9964 Press    =       497.1994 
Volume   =     10976.3824 
SHAKE stats (type/ave/delta) on step 300000
  2 0.957035 5.51843e-06
  2 104.52 0.000400482
---------------- Step   300000 ----- CPU =   2206.9554 (sec) ----------------
TotEng   =     -3292.2869 KinEng   =       638.5293 Temp     =       295.8748 
PotEng   =     -3930.8162 E_bond   =         0.7303 E_angle  =         2.0932 
E_dihed  =         0.0000 E_impro  =         0.0000 E_vdwl   =       746.7513 
E_coul   =     27072.7522 E_long   =    -31753.1434 Press    =       152.8524 
Volume   =     10928.3909 
SHAKE stats (type/ave/delta) on step 305000
  2 0.956963 7.68067e-06
  2 104.52 0.000527373
---------------- Step   305000 ----- CPU =   2243.7893 (sec) ----------------
TotEng   =     -3265.2564 KinEng   =       638.6136 Temp     =       295.9138 
PotEng   =     -3903.8700 E_bond   =         0.4387 E_angle  =         3.0254 
E_dihed  =         0.0000 E_impro  =         0.0000 E_vdwl   =       705.4278 
E_coul   =     27138.0179 E_long   =    -31750.7797 Press    =      -388.9045 
Volume   =     10872.1949 
SHAKE stats (type/ave/delta) on step 310000
  2 0.957007 4.3603e-06
  2 104.52 0.000368987
---------------- Step   310000 ----- CPU =   2281.6976 (sec) ----------------
TotEng   =     -3315.0306 KinEng   =       627.5720 Temp     =       290.7975 
PotEng   =     -3942.6026 E_bond   =         1.2414 E_angle  =         1.4635 
E_dihed  =         0.0000 E_impro  =         0.0000 E_vdwl   =       729.4978 
E_coul   =     27082.4137 E_long   =    -31757.2190 Press    =        41.5919 
Volume   =     10932.8463 
SHAKE stats (type/ave/delta) on step 315000
  2 0.957011 6.87948e-06
  2 104.52 0.000565791
---------------- Step   315000 ----- CPU =   2319.7319 (sec) ----------------
TotEng   =     -3268.0024 KinEng   =       663.7468 Temp     =       307.5598 
PotEng   =     -3931.7492 E_bond   =         1.4139 E_angle  =         1.6233 
E_dihed  =         0.0000 E_impro  =         0.0000 E_vdwl   =       693.5102 
E_coul   =     27126.1144 E_long   =    -31754.4111 Press    =      -962.6660 
Volume   =     10835.1411 
SHAKE stats (type/ave/delta) on step 320000
  2 0.957034 8.86598e-06
  2 104.52 0.000540087
---------------- Step   320000 ----- CPU =   2358.3476 (sec) ----------------
TotEng   =     -3272.7785 KinEng   =       642.4857 Temp     =       297.7081 
PotEng   =     -3915.2642 E_bond   =         1.0749 E_angle  =         2.3072 
E_dihed  =         0.0000 E_impro  =         0.0000 E_vdwl   =       722.3632 
E_coul   =     27111.7672 E_long   =    -31752.7767 Press    =      -189.9988 
Volume   =     10841.6254 
SHAKE stats (type/ave/delta) on step 325000
  2 0.957034 6.33131e-06
  2 104.52 0.000476344
---------------- Step   325000 ----- CPU =   2395.8814 (sec) ----------------
TotEng   =     -3253.0187 KinEng   =       685.1925 Temp     =       317.4971 
PotEng   =     -3938.2112 E_bond   =         0.0323 E_angle  =         0.8394 
E_dihed  =         0.0000 E_impro  =         0.0000 E_vdwl   =       748.2118 
E_coul   =     27066.8236 E_long   =    -31754.1183 Press    =       250.2347 
Volume   =     10864.3579 
SHAKE stats (type/ave/delta) on step 330000
  2 0.956991 1.30061e-05
  2 104.52 0.000883522
---------------- Step   330000 ----- CPU =   2432.9388 (sec) ----------------
TotEng   =     -3299.9474 KinEng   =       625.7634 Temp     =       289.9595 
PotEng   =     -3925.7108 E_bond   =         0.1322 E_angle  =         2.1484 
E_dihed  =         0.0000 E_impro  =         0.0000 E_vdwl   =       707.9125 
E_coul   =     27120.3761 E_long   =    -31756.2800 Press    =      -840.2011 
Volume   =     11158.3077 
SHAKE stats (type/ave/delta) on step 335000
  2 0.956989 5.40212e-06
  2 104.52 0.000528757
---------------- Step   335000 ----- CPU =   2469.8521 (sec) ----------------
TotEng   =     -3233.9035 KinEng   =       649.4241 Temp     =       300.9231 
PotEng   =     -3883.3276 E_bond   =         0.1519 E_angle  =         2.1837 
E_dihed  =         0.0000 E_impro  =         0.0000 E_vdwl   =       709.9938 
E_coul   =     27158.2407 E_long   =    -31753.8976 Press    =      -347.6210 
Volume   =     11134.2615 
SHAKE stats (type/ave/delta) on step 340000
  2 0.95704 7.889e-06
  2 104.52 0.000737009
---------------- Step   340000 ----- CPU =   2507.5290 (sec) ----------------
TotEng   =     -3260.0596 KinEng   =       640.4235 Temp     =       296.7525 
PotEng   =     -3900.4831 E_bond   =         0.8906 E_angle  =         0.9042 
E_dihed  =         0.0000 E_impro  =         0.0000 E_vdwl   =       671.0949 
E_coul   =     27181.7504 E_long   =    -31755.1233 Press    =     -1890.1168 
Volume   =     11412.4797 
SHAKE stats (type/ave/delta) on step 345000
  2 0.957001 5.77507e-06
  2 104.52 0.000612977
---------------- Step   345000 ----- CPU =   2544.3990 (sec) ----------------
TotEng   =     -3221.5756 KinEng   =       644.8079 Temp     =       298.7841 
PotEng   =     -3866.3835 E_bond   =         0.8934 E_angle  =         2.2053 
E_dihed  =         0.0000 E_impro  =         0.0000 E_vdwl   =       755.6717 
E_coul   =     27130.5491 E_long   =    -31755.7029 Press    =       947.8585 
Volume   =     10936.3032 
SHAKE stats (type/ave/delta) on step 350000
  2 0.957046 1.69115e-05
  2 104.52 0.0015373
---------------- Step   350000 ----- CPU =   2582.1424 (sec) ----------------
TotEng   =     -3265.0765 KinEng   =       621.7133 Temp     =       288.0828 
PotEng   =     -3886.7898 E_bond   =         0.2209 E_angle  =         1.7520 
E_dihed  =         0.0000 E_impro  =         0.0000 E_vdwl   =       697.9111 
E_coul   =     27167.1471 E_long   =    -31753.8209 Press    =      -699.9738 
Volume   =     11090.2713 
SHAKE stats (type/ave/delta) on step 355000
  2 0.957019 1.31918e-05
  2 104.52 0.000894607
---------------- Step   355000 ----- CPU =   2620.2450 (sec) ----------------
TotEng   =     -3344.8691 KinEng   =       635.3526 Temp     =       294.4028 
PotEng   =     -3980.2217 E_bond   =         0.3820 E_angle  =         1.4445 
E_dihed  =         0.0000 E_impro  =         0.0000 E_vdwl   =       803.5289 
E_coul   =     26971.8138 E_long   =    -31757.3910 Press    =       827.4641 
Volume   =     10847.8930 
SHAKE stats (type/ave/delta) on step 360000
  2 0.956939 9.08239e-06
  2 104.52 0.000707613
---------------- Step   360000 ----- CPU =   2658.0132 (sec) ----------------
TotEng   =     -3281.2924 KinEng   =       652.7750 Temp     =       302.4758 
PotEng   =     -3934.0674 E_bond   =         0.1885 E_angle  =         2.5209 
E_dihed  =         0.0000 E_impro  =         0.0000 E_vdwl   =       737.7404 
E_coul   =     27082.7950 E_long   =    -31757.3122 Press    =       495.4396 
Volume   =     10586.9446 
SHAKE stats (type/ave/delta) on step 365000
  2 0.957026 4.91604e-06
  2 104.52 0.000393085
---------------- Step   365000 ----- CPU =   2695.5536 (sec) ----------------
TotEng   =     -3315.5025 KinEng   =       608.6533 Temp     =       282.0312 
PotEng   =     -3924.1559 E_bond   =         0.1287 E_angle  =         1.3119 
E_dihed  =         0.0000 E_impro  =         0.0000 E_vdwl   =       730.8385 
E_coul   =     27100.3319 E_long   =    -31756.7669 Press    =       144.4068 
Volume   =     10837.5768 
SHAKE stats (type/ave/delta) on step 370000
  2 0.957048 4.38705e-06
  2 104.52 0.000412479
---------------- Step   370000 ----- CPU =   2733.1316 (sec) ----------------
TotEng   =     -3239.8134 KinEng   =       665.0482 Temp     =       308.1628 
PotEng   =     -3904.8616 E_bond   =         0.1964 E_angle  =         2.2608 
E_dihed  =         0.0000 E_impro  =         0.0000 E_vdwl   =       701.3439 
E_coul   =     27145.4873 E_long   =    -31754.1500 Press    =        72.8942 
Volume   =     10898.2036 
SHAKE stats (type/ave/delta) on step 375000
  2 0.956999 5.49959e-06
  2 104.52 0.00039719
---------------- Step   375000 ----- CPU =   2771.5908 (sec) ----------------
TotEng   =     -3308.9660 KinEng   =       640.9494 Temp     =       296.9962 
PotEng   =     -3949.9154 E_bond   =         0.3292 E_angle  =         2.0163 
E_dihed  =         0.0000 E_impro  =         0.0000 E_vdwl   =       741.0293 
E_coul   =     27061.1640 E_long   =    -31754.4542 Press    =      -226.8278 
Volume   =     10844.2446 
SHAKE stats (type/ave/delta) on step 380000
  2 0.95701 5.59882e-06
  2 104.52 0.000376056
---------------- Step   380000 ----- CPU =   2806.0379 (sec) ----------------
TotEng   =     -3310.4065 KinEng   =       650.4894 Temp     =       301.4167 
PotEng   =     -3960.8959 E_bond   =         0.4555 E_angle  =         3.2900 
E_dihed  =         0.0000 E_impro  =         0.0000 E_vdwl   =       719.8671 
E_coul   =     27069.4615 E_long   =    -31753.9700 Press    =      -746.2601 
Volume   =     10977.2385 
SHAKE stats (type/ave/delta) on step 385000
  2 0.956985 1.40328e-05
  2 104.52 0.0014466
---------------- Step   385000 ----- CPU =   2841.4311 (sec) ----------------
TotEng   =     -3270.1202 KinEng   =       628.4852 Temp     =       291.2207 
PotEng   =     -3898.6053 E_bond   =         0.1003 E_angle  =         1.6097 
E_dihed  =         0.0000 E_impro  =         0.0000 E_vdwl   =       762.8191 
E_coul   =     27092.8749 E_long   =    -31756.0094 Press    =       808.7149 
Volume   =     10884.6424 
SHAKE stats (type/ave/delta) on step 390000
  2 0.957061 5.33183e-06
  2 104.52 0.000449785
---------------- Step   390000 ----- CPU =   2875.8744 (sec) ----------------
TotEng   =     -3291.3178 KinEng   =       630.9140 Temp     =       292.3461 
PotEng   =     -3922.2318 E_bond   =         0.3651 E_angle  =         3.5064 
E_dihed  =         0.0000 E_impro  =         0.0000 E_vdwl   =       709.3364 
E_coul   =     27118.2804 E_long   =    -31753.7200 Press    =      -744.6425 
Volume   =     10940.1509 
SHAKE stats (type/ave/delta) on step 395000
  2 0.956933 6.94951e-06
  2 104.52 0.00062437
---------------- Step   395000 ----- CPU =   2909.8306 (sec) ----------------
TotEng   =     -3239.3631 KinEng   =       656.0951 Temp     =       304.0142 
PotEng   =     -3895.4582 E_bond   =         0.9763 E_angle  =         2.6058 
E_dihed  =         0.0000 E_impro  =         0.0000 E_vdwl   =       743.9154 
E_coul   =     27109.6672 E_long   =    -31752.6229 Press    =       476.3878 
Volume   =     11094.2319 
SHAKE stats (type/ave/delta) on step 400000
  2 0.956964 6.48954e-06
  2 104.52 0.000679646
---------------- Step   400000 ----- CPU =   2944.6725 (sec) ----------------
TotEng   =     -3273.8645 KinEng   =       662.4783 Temp     =       306.9720 
PotEng   =     -3936.3429 E_bond   =         2.4472 E_angle  =         2.6844 
E_dihed  =         0.0000 E_impro  =         0.0000 E_vdwl   =       736.2863 
E_coul   =     27078.9607 E_long   =    -31756.7214 Press    =      -496.6572 
Volume   =     11054.3882 
SHAKE stats (type/ave/delta) on step 405000
  2 0.957013 9.64337e-06
  2 104.52 0.00088894
---------------- Step   405000 ----- CPU =   2982.2235 (sec) ----------------
TotEng   =     -3295.5771 KinEng   =       646.4911 Temp     =       299.5641 
PotEng   =     -3942.0682 E_bond   =         0.0959 E_angle  =         3.4096 
E_dihed  =         0.0000 E_impro  =         0.0000 E_vdwl   =       743.4504 
E_coul   =     27064.1636 E_long   =    -31753.1877 Press    =      -441.7510 
Volume   =     11206.3161 
SHAKE stats (type/ave/delta) on step 410000
  2 0.957003 1.21235e-05
  2 104.52 0.00103386
---------------- Step   410000 ----- CPU =   3019.9551 (sec) ----------------
TotEng   =     -3294.1964 KinEng   =       644.4048 Temp     =       298.5973 
PotEng   =     -3938.6012 E_bond   =         0.1395 E_angle  =         3.9530 
E_dihed  =         0.0000 E_impro  =         0.0000 E_vdwl   =       699.9301 
E_coul   =     27112.6097 E_long   =    -31755.2336 Press    =      -536.2042 
Volume   =     10876.7630 
SHAKE stats (type/ave/delta) on step 415000
  2 0.957025 2.13824e-05
  2 104.52 0.00122296
---------------- Step   415000 ----- CPU =   3057.5729 (sec) ----------------
TotEng   =     -3287.0296 KinEng   =       673.9773 Temp     =       312.3003 
PotEng   =     -3961.0069 E_bond   =         2.2910 E_angle  =         0.5738 
E_dihed  =         0.0000 E_impro  =         0.0000 E_vdwl   =       741.4687 
E_coul   =     27047.0802 E_long   =    -31752.4205 Press    =      -236.3499 
Volume   =     10912.6309 
SHAKE stats (type/ave/delta) on step 420000
  2 0.957061 5.65152e-06
  2 104.52 0.000417754
---------------- Step   420000 ----- CPU =   3095.3297 (sec) ----------------
TotEng   =     -3310.9551 KinEng   =       638.5243 Temp     =       295.8725 
PotEng   =     -3949.4794 E_bond   =         0.2913 E_angle  =         3.5387 
E_dihed  =         0.0000 E_impro  =         0.0000 E_vdwl   =       776.9894 
E_coul   =     27024.7000 E_long   =    -31754.9988 Press    =       810.1937 
Volume   =     10899.4817 
SHAKE stats (type/ave/delta) on step 425000
  2 0.957008 1.50661e-05
  2 104.52 0.00168786
---------------- Step   425000 ----- CPU =   3132.1489 (sec) ----------------
TotEng   =     -3259.8078 KinEng   =       657.0989 Temp     =       304.4794 
PotEng   =     -3916.9067 E_bond   =         1.0409 E_angle  =         1.5936 
E_dihed  =         0.0000 E_impro  =         0.0000 E_vdwl   =       736.9751 
E_coul   =     27096.5895 E_long   =    -31753.1058 Press    =         8.5201 
Volume   =     11064.5286 
SHAKE stats (type/ave/delta) on step 430000
  2 0.957045 1.0328e-05
  2 104.52 0.000819243
---------------- Step   430000 ----- CPU =   3169.5030 (sec) ----------------
TotEng   =     -3374.2163 KinEng   =       623.6124 Temp     =       288.9628 
PotEng   =     -3997.8288 E_bond   =         0.8000 E_angle  =         1.5563 
E_dihed  =         0.0000 E_impro  =         0.0000 E_vdwl   =       786.6500 
E_coul   =     26970.6736 E_long   =    -31757.5087 Press    =       186.0473 
Volume   =     11012.2383 
SHAKE stats (type/ave/delta) on step 435000
  2 0.95706 1.44997e-05
  2 104.52 0.00105059
---------------- Step   435000 ----- CPU =   3206.5570 (sec) ----------------
TotEng   =     -3249.6145 KinEng   =       661.9297 Temp     =       306.7178 
PotEng   =     -3911.5442 E_bond   =         0.1966 E_angle  =         3.2883 
E_dihed  =         0.0000 E_impro  =         0.0000 E_vdwl   =       770.8639 
E_coul   =     27068.5757 E_long   =    -31754.4687 Press    =       729.0619 
Volume   =     11076.5627 
SHAKE stats (type/ave/delta) on step 440000
  2 0.957049 7.72251e-06
  2 104.52 0.0005877
---------------- Step   440000 ----- CPU =   3244.2234 (sec) ----------------
TotEng   =     -3316.8821 KinEng   =       637.4715 Temp     =       295.3847 
PotEng   =     -3954.3537 E_bond   =         0.5487 E_angle  =         1.9022 
E_dihed  =         0.0000 E_impro  =         0.0000 E_vdwl   =       660.0852 
E_coul   =     27136.2837 E_long   =    -31753.1736 Press    =     -1633.9263 
Volume   =     10859.9282 
SHAKE stats (type/ave/delta) on step 445000
  2 0.956982 5.83494e-06
  2 104.52 0.000554757
---------------- Step   445000 ----- CPU =   3282.0313 (sec) ----------------
TotEng   =     -3300.8642 KinEng   =       641.6951 Temp     =       297.3417 
PotEng   =     -3942.5594 E_bond   =         0.9115 E_angle  =         1.7748 
E_dihed  =         0.0000 E_impro  =         0.0000 E_vdwl   =       747.7516 
E_coul   =     27063.6769 E_long   =    -31756.6741 Press    =        -9.1130 
Volume   =     10956.0576 
SHAKE stats (type/ave/delta) on step 450000
  2 0.956999 8.58267e-06
  2 104.52 0.00055926
---------------- Step   450000 ----- CPU =   3319.4446 (sec) ----------------
TotEng   =     -3365.4658 KinEng   =       622.1934 Temp     =       288.3052 
PotEng   =     -3987.6592 E_bond   =         0.0890 E_angle  =         2.8150 
E_dihed  =         0.0000 E_impro  =         0.0000 E_vdwl   =       748.4202 
E_coul   =     27012.4099 E_long   =    -31751.3933 Press    =      -601.8770 
Volume   =     11033.6580 
SHAKE stats (type/ave/delta) on step 455000
  2 0.956993 9.41419e-06
  2 104.52 0.000941463
---------------- Step   455000 ----- CPU =   3355.8686 (sec) ----------------
TotEng   =     -3310.1548 KinEng   =       620.5790 Temp     =       287.5572 
PotEng   =     -3930.7338 E_bond   =         0.4508 E_angle  =         0.8597 
E_dihed  =         0.0000 E_impro  =         0.0000 E_vdwl   =       742.3596 
E_coul   =     27080.5271 E_long   =    -31754.9310 Press    =       484.0022 
Volume   =     10720.7273 
SHAKE stats (type/ave/delta) on step 460000
  2 0.956944 1.02414e-05
  2 104.52 0.000960727
---------------- Step   460000 ----- CPU =   3393.6682 (sec) ----------------
TotEng   =     -3280.7426 KinEng   =       683.7074 Temp     =       316.8089 
PotEng   =     -3964.4500 E_bond   =         0.3660 E_angle  =         1.4106 
E_dihed  =         0.0000 E_impro  =         0.0000 E_vdwl   =       760.2781 
E_coul   =     27028.3895 E_long   =    -31754.8942 Press    =       208.6524 
Volume   =     10900.5548 
SHAKE stats (type/ave/delta) on step 465000
  2 0.957021 4.92406e-06
  2 104.52 0.000425909
---------------- Step   465000 ----- CPU =   3431.2279 (sec) ----------------
TotEng   =     -3290.2139 KinEng   =       647.5458 Temp     =       300.0528 
PotEng   =     -3937.7597 E_bond   =         0.2444 E_angle  =         1.4438 
E_dihed  =         0.0000 E_impro  =         0.0000 E_vdwl   =       711.1262 
E_coul   =     27107.1800 E_long   =    -31757.7540 Press    =      -520.6114 
Volume   =     10853.6268 
SHAKE stats (type/ave/delta) on step 470000
  2 0.957025 6.31015e-06
  2 104.52 0.000617619
---------------- Step   470000 ----- CPU =   3467.5353 (sec) ----------------
TotEng   =     -3295.0274 KinEng   =       658.1751 Temp     =       304.9781 
PotEng   =     -3953.2026 E_bond   =         0.6146 E_angle  =         0.5716 
E_dihed  =         0.0000 E_impro  =         0.0000 E_vdwl   =       737.1083 
E_coul   =     27062.1870 E_long   =    -31753.6841 Press    =      -739.2895 
Volume   =     11231.4084 
SHAKE stats (type/ave/delta) on step 475000
  2 0.957041 5.04267e-06
  2 104.52 0.000424294
---------------- Step   475000 ----- CPU =   3504.6093 (sec) ----------------
TotEng   =     -3333.4993 KinEng   =       668.6974 Temp     =       309.8537 
PotEng   =     -4002.1967 E_bond   =         0.6935 E_angle  =         1.8488 
E_dihed  =         0.0000 E_impro  =         0.0000 E_vdwl   =       745.7205 
[...]
---------------- Step  2320000 ----- CPU =  17005.8879 (sec) ----------------
TotEng   =     -3267.0210 KinEng   =       671.0233 Temp     =       310.9315 
PotEng   =     -3938.0443 E_bond   =         0.6039 E_angle  =         2.8275 
E_dihed  =         0.0000 E_impro  =         0.0000 E_vdwl   =       708.9556 
E_coul   =     27106.5750 E_long   =    -31757.0062 Press    =      -452.7964 
Volume   =     11024.1166 
SHAKE stats (type/ave/delta) on step 2325000
  2 0.956971 7.15163e-06
  2 104.52 0.000583737
---------------- Step  2325000 ----- CPU =  17042.8984 (sec) ----------------
TotEng   =     -3300.0417 KinEng   =       641.6074 Temp     =       297.3011 
PotEng   =     -3941.6491 E_bond   =         0.4798 E_angle  =         1.3295 
E_dihed  =         0.0000 E_impro  =         0.0000 E_vdwl   =       710.1704 
E_coul   =     27101.9993 E_long   =    -31755.6280 Press    =      -647.3657 
Volume   =     11120.9525 
SHAKE stats (type/ave/delta) on step 2330000
  2 0.957018 7.25683e-06
  2 104.52 0.000541511
---------------- Step  2330000 ----- CPU =  17080.4897 (sec) ----------------
TotEng   =     -3297.6348 KinEng   =       654.0949 Temp     =       303.0874 
PotEng   =     -3951.7297 E_bond   =         0.9322 E_angle  =         1.5075 
E_dihed  =         0.0000 E_impro  =         0.0000 E_vdwl   =       808.7829 
E_coul   =     26992.1884 E_long   =    -31755.1409 Press    =      1341.3034 
Volume   =     10901.0517 
SHAKE stats (type/ave/delta) on step 2335000
  2 0.957032 5.81499e-06
  2 104.52 0.000496703
---------------- Step  2335000 ----- CPU =  17117.0827 (sec) ----------------
TotEng   =     -3284.1019 KinEng   =       687.7898 Temp     =       318.7006 
PotEng   =     -3971.8917 E_bond   =         1.2600 E_angle  =         0.6549 
E_dihed  =         0.0000 E_impro  =         0.0000 E_vdwl   =       786.3369 
E_coul   =     26992.7454 E_long   =    -31752.8889 Press    =       669.4095 
Volume   =     11153.6869 
SHAKE stats (type/ave/delta) on step 2340000
  2 0.957071 6.16209e-06
  2 104.52 0.000388707
---------------- Step  2340000 ----- CPU =  17154.5810 (sec) ----------------
TotEng   =     -3227.5658 KinEng   =       661.9791 Temp     =       306.7407 
PotEng   =     -3889.5449 E_bond   =         0.5378 E_angle  =         4.1378 
E_dihed  =         0.0000 E_impro  =         0.0000 E_vdwl   =       767.3850 
E_coul   =     27092.7628 E_long   =    -31754.3683 Press    =      1192.9370 
Volume   =     10950.9414 
SHAKE stats (type/ave/delta) on step 2345000
  2 0.956971 7.41062e-06
  2 104.52 0.000895912
---------------- Step  2345000 ----- CPU =  17192.1264 (sec) ----------------
TotEng   =     -3216.1448 KinEng   =       715.2018 Temp     =       331.4025 
PotEng   =     -3931.3466 E_bond   =         1.8694 E_angle  =         1.7221 
E_dihed  =         0.0000 E_impro  =         0.0000 E_vdwl   =       726.5928 
E_coul   =     27094.2216 E_long   =    -31755.7526 Press    =       487.8116 
Volume   =     10950.3068 
SHAKE stats (type/ave/delta) on step 2350000
  2 0.957003 1.13555e-05
  2 104.52 0.00105093
---------------- Step  2350000 ----- CPU =  17228.9098 (sec) ----------------
TotEng   =     -3272.0232 KinEng   =       644.7651 Temp     =       298.7642 
PotEng   =     -3916.7882 E_bond   =         1.3040 E_angle  =         0.6576 
E_dihed  =         0.0000 E_impro  =         0.0000 E_vdwl   =       772.3071 
E_coul   =     27062.0442 E_long   =    -31753.1011 Press    =      1025.4407 
Volume   =     10846.4143 
SHAKE stats (type/ave/delta) on step 2355000
  2 0.956979 6.16749e-06
  2 104.52 0.000391359
---------------- Step  2355000 ----- CPU =  17265.5041 (sec) ----------------
TotEng   =     -3278.9371 KinEng   =       633.7571 Temp     =       293.6635 
PotEng   =     -3912.6943 E_bond   =         1.3682 E_angle  =         0.9428 
E_dihed  =         0.0000 E_impro  =         0.0000 E_vdwl   =       738.7683 
E_coul   =     27103.3373 E_long   =    -31757.1108 Press    =        -5.0551 
Volume   =     10965.8515 
SHAKE stats (type/ave/delta) on step 2360000
  2 0.956983 5.17511e-06
  2 104.52 0.000502859
---------------- Step  2360000 ----- CPU =  17302.7038 (sec) ----------------
TotEng   =     -3312.2819 KinEng   =       634.9203 Temp     =       294.2025 
PotEng   =     -3947.2022 E_bond   =         0.6191 E_angle  =         1.4829 
E_dihed  =         0.0000 E_impro  =         0.0000 E_vdwl   =       668.8311 
E_coul   =     27136.8517 E_long   =    -31754.9870 Press    =     -1517.0964 
Volume   =     11092.9298 
SHAKE stats (type/ave/delta) on step 2365000
  2 0.957058 1.38365e-05
  2 104.52 0.000865518
---------------- Step  2365000 ----- CPU =  17340.0571 (sec) ----------------
TotEng   =     -3313.3363 KinEng   =       628.6852 Temp     =       291.3133 
PotEng   =     -3942.0214 E_bond   =         0.9371 E_angle  =         2.3912 
E_dihed  =         0.0000 E_impro  =         0.0000 E_vdwl   =       754.2992 
E_coul   =     27056.7310 E_long   =    -31756.3800 Press    =       730.6482 
Volume   =     10772.2900 
SHAKE stats (type/ave/delta) on step 2370000
  2 0.957031 6.01569e-06
  2 104.52 0.00049421
---------------- Step  2370000 ----- CPU =  17377.1594 (sec) ----------------
TotEng   =     -3254.9121 KinEng   =       660.6933 Temp     =       306.1449 
PotEng   =     -3915.6054 E_bond   =         0.1745 E_angle  =         2.3924 
E_dihed  =         0.0000 E_impro  =         0.0000 E_vdwl   =       781.7860 
E_coul   =     27056.7692 E_long   =    -31756.7275 Press    =       769.6691 
Volume   =     11175.1078 
SHAKE stats (type/ave/delta) on step 2375000
  2 0.957064 8.33964e-06
  2 104.52 0.000550952
---------------- Step  2375000 ----- CPU =  17413.9917 (sec) ----------------
TotEng   =     -3278.8848 KinEng   =       646.1933 Temp     =       299.4260 
PotEng   =     -3925.0781 E_bond   =         2.6480 E_angle  =         2.9393 
E_dihed  =         0.0000 E_impro  =         0.0000 E_vdwl   =       784.7275 
E_coul   =     27038.2029 E_long   =    -31753.5959 Press    =       562.5028 
Volume   =     11137.8237 
SHAKE stats (type/ave/delta) on step 2380000
  2 0.956959 9.2171e-06
  2 104.52 0.000749303
---------------- Step  2380000 ----- CPU =  17449.6068 (sec) ----------------
TotEng   =     -3314.6820 KinEng   =       645.3048 Temp     =       299.0144 
PotEng   =     -3959.9868 E_bond   =         1.0402 E_angle  =         2.0349 
E_dihed  =         0.0000 E_impro  =         0.0000 E_vdwl   =       736.1243 
E_coul   =     27057.9688 E_long   =    -31757.1550 Press    =       200.5042 
Volume   =     10823.6612 
SHAKE stats (type/ave/delta) on step 2385000
  2 0.957036 4.59906e-06
  2 104.52 0.000438288
---------------- Step  2385000 ----- CPU =  17484.7790 (sec) ----------------
TotEng   =     -3287.6079 KinEng   =       659.2027 Temp     =       305.4542 
PotEng   =     -3946.8106 E_bond   =         1.5011 E_angle  =         0.9876 
E_dihed  =         0.0000 E_impro  =         0.0000 E_vdwl   =       718.7296 
E_coul   =     27086.4945 E_long   =    -31754.5234 Press    =      -561.6225 
Volume   =     11128.9842 
SHAKE stats (type/ave/delta) on step 2390000
  2 0.957027 4.44073e-06
  2 104.52 0.000382238
---------------- Step  2390000 ----- CPU =  17520.0820 (sec) ----------------
TotEng   =     -3329.5378 KinEng   =       646.1932 Temp     =       299.4260 
PotEng   =     -3975.7310 E_bond   =         1.6375 E_angle  =         2.0491 
E_dihed  =         0.0000 E_impro  =         0.0000 E_vdwl   =       736.8690 
E_coul   =     27037.5131 E_long   =    -31753.7997 Press    =      -510.9483 
Volume   =     11155.8643 
SHAKE stats (type/ave/delta) on step 2395000
  2 0.956967 5.18414e-06
  2 104.52 0.000406089
---------------- Step  2395000 ----- CPU =  17555.3893 (sec) ----------------
TotEng   =     -3316.1886 KinEng   =       634.9852 Temp     =       294.2326 
PotEng   =     -3951.1738 E_bond   =         1.6096 E_angle  =         0.8421 
E_dihed  =         0.0000 E_impro  =         0.0000 E_vdwl   =       740.8114 
E_coul   =     27062.2047 E_long   =    -31756.6415 Press    =      -255.7929 
Volume   =     11086.3422 
SHAKE stats (type/ave/delta) on step 2400000
  2 0.957077 1.7324e-05
  2 104.52 0.00119618
---------------- Step  2400000 ----- CPU =  17590.8338 (sec) ----------------
TotEng   =     -3336.6757 KinEng   =       651.8918 Temp     =       302.0665 
PotEng   =     -3988.5674 E_bond   =         0.4849 E_angle  =         3.6515 
E_dihed  =         0.0000 E_impro  =         0.0000 E_vdwl   =       814.6279 
E_coul   =     26949.7378 E_long   =    -31757.0695 Press    =      1111.8412 
Volume   =     11035.2939 
SHAKE stats (type/ave/delta) on step 2405000
  2 0.956995 1.0063e-05
  2 104.52 0.0012262
---------------- Step  2405000 ----- CPU =  17627.8078 (sec) ----------------
TotEng   =     -3291.6145 KinEng   =       640.0227 Temp     =       296.5668 
PotEng   =     -3931.6372 E_bond   =         1.5124 E_angle  =         3.9511 
E_dihed  =         0.0000 E_impro  =         0.0000 E_vdwl   =       762.7287 
E_coul   =     27056.8211 E_long   =    -31756.6505 Press    =       852.9643 
Volume   =     10830.2260 
SHAKE stats (type/ave/delta) on step 2410000
  2 0.956967 9.68637e-06
  2 104.52 0.000565533
---------------- Step  2410000 ----- CPU =  17664.3454 (sec) ----------------
TotEng   =     -3304.3420 KinEng   =       629.9481 Temp     =       291.8985 
PotEng   =     -3934.2901 E_bond   =         1.8095 E_angle  =         1.1905 
E_dihed  =         0.0000 E_impro  =         0.0000 E_vdwl   =       744.8549 
E_coul   =     27073.5135 E_long   =    -31755.6586 Press    =       363.8164 
Volume   =     11015.6063 
SHAKE stats (type/ave/delta) on step 2415000
  2 0.957013 7.18076e-06
  2 104.52 0.000481579
---------------- Step  2415000 ----- CPU =  17701.6914 (sec) ----------------
TotEng   =     -3320.9934 KinEng   =       644.0365 Temp     =       298.4267 
PotEng   =     -3965.0299 E_bond   =         1.1145 E_angle  =         0.3344 
E_dihed  =         0.0000 E_impro  =         0.0000 E_vdwl   =       736.7664 
E_coul   =     27052.5948 E_long   =    -31755.8401 Press    =       271.1774 
Volume   =     10771.1104 
SHAKE stats (type/ave/delta) on step 2420000
  2 0.957016 1.12365e-05
  2 104.52 0.00074442
---------------- Step  2420000 ----- CPU =  17739.3594 (sec) ----------------
TotEng   =     -3269.9457 KinEng   =       654.5210 Temp     =       303.2849 
PotEng   =     -3924.4667 E_bond   =         2.0133 E_angle  =         1.1066 
E_dihed  =         0.0000 E_impro  =         0.0000 E_vdwl   =       734.6172 
E_coul   =     27092.9592 E_long   =    -31755.1630 Press    =       125.4985 
Volume   =     10991.5952 
SHAKE stats (type/ave/delta) on step 2425000
  2 0.957031 8.26098e-06
  2 104.52 0.000960941
---------------- Step  2425000 ----- CPU =  17776.1784 (sec) ----------------
TotEng   =     -3289.8888 KinEng   =       649.0706 Temp     =       300.7593 
PotEng   =     -3938.9594 E_bond   =         0.4420 E_angle  =         0.9809 
E_dihed  =         0.0000 E_impro  =         0.0000 E_vdwl   =       733.5651 
E_coul   =     27082.5245 E_long   =    -31756.4719 Press    =      -127.6014 
Volume   =     11001.4792 
SHAKE stats (type/ave/delta) on step 2430000
  2 0.957069 6.54077e-06
  2 104.52 0.000635221
---------------- Step  2430000 ----- CPU =  17813.2346 (sec) ----------------
TotEng   =     -3375.6882 KinEng   =       614.2462 Temp     =       284.6228 
PotEng   =     -3989.9345 E_bond   =         1.7345 E_angle  =         1.3767 
E_dihed  =         0.0000 E_impro  =         0.0000 E_vdwl   =       753.8788 
E_coul   =     27010.4213 E_long   =    -31757.3457 Press    =      -317.2642 
Volume   =     11182.5650 
SHAKE stats (type/ave/delta) on step 2435000
  2 0.957036 8.29188e-06
  2 104.52 0.000783133
---------------- Step  2435000 ----- CPU =  17849.9758 (sec) ----------------
TotEng   =     -3256.8411 KinEng   =       642.3678 Temp     =       297.6534 
PotEng   =     -3899.2090 E_bond   =         2.1097 E_angle  =         3.6376 
E_dihed  =         0.0000 E_impro  =         0.0000 E_vdwl   =       750.3519 
E_coul   =     27100.2173 E_long   =    -31755.5254 Press    =       757.8504 
Volume   =     10960.1965 
SHAKE stats (type/ave/delta) on step 2440000
  2 0.956955 6.66836e-06
  2 104.52 0.000628789
---------------- Step  2440000 ----- CPU =  17886.8250 (sec) ----------------
TotEng   =     -3298.9207 KinEng   =       618.6352 Temp     =       286.6565 
PotEng   =     -3917.5559 E_bond   =         1.2148 E_angle  =         0.2885 
E_dihed  =         0.0000 E_impro  =         0.0000 E_vdwl   =       695.7810 
E_coul   =     27143.5021 E_long   =    -31758.3423 Press    =      -539.3120 
Volume   =     10832.3824 
SHAKE stats (type/ave/delta) on step 2445000
  2 0.956983 7.05987e-06
  2 104.52 0.000615397
---------------- Step  2445000 ----- CPU =  17923.7715 (sec) ----------------
TotEng   =     -3302.7731 KinEng   =       641.2545 Temp     =       297.1376 
PotEng   =     -3944.0276 E_bond   =         1.8376 E_angle  =         2.4154 
E_dihed  =         0.0000 E_impro  =         0.0000 E_vdwl   =       734.1987 
E_coul   =     27073.1446 E_long   =    -31755.6238 Press    =       -70.0833 
Volume   =     10964.6100 
SHAKE stats (type/ave/delta) on step 2450000
  2 0.956991 6.45523e-06
  2 104.52 0.000431349
---------------- Step  2450000 ----- CPU =  17961.0318 (sec) ----------------
TotEng   =     -3292.2046 KinEng   =       663.7393 Temp     =       307.5563 
PotEng   =     -3955.9439 E_bond   =         0.1610 E_angle  =         0.5535 
E_dihed  =         0.0000 E_impro  =         0.0000 E_vdwl   =       749.7179 
E_coul   =     27050.7053 E_long   =    -31757.0816 Press    =        11.1369 
Volume   =     11053.5069 
SHAKE stats (type/ave/delta) on step 2455000
  2 0.95701 4.87863e-06
  2 104.52 0.000450445
---------------- Step  2455000 ----- CPU =  17998.1034 (sec) ----------------
TotEng   =     -3228.2635 KinEng   =       656.3952 Temp     =       304.1533 
PotEng   =     -3884.6586 E_bond   =         0.7688 E_angle  =         1.5207 
E_dihed  =         0.0000 E_impro  =         0.0000 E_vdwl   =       686.0263 
E_coul   =     27184.1883 E_long   =    -31757.1628 Press    =      -868.2458 
Volume   =     11272.2674 
SHAKE stats (type/ave/delta) on step 2460000
  2 0.956986 9.52038e-06
  2 104.52 0.000628016
---------------- Step  2460000 ----- CPU =  18035.3515 (sec) ----------------
TotEng   =     -3211.9723 KinEng   =       673.8889 Temp     =       312.2593 
PotEng   =     -3885.8612 E_bond   =         2.3878 E_angle  =         1.8314 
E_dihed  =         0.0000 E_impro  =         0.0000 E_vdwl   =       723.2160 
E_coul   =     27138.9915 E_long   =    -31752.2878 Press    =       267.0656 
Volume   =     11133.9068 
SHAKE stats (type/ave/delta) on step 2465000
  2 0.957046 6.02766e-06
  2 104.52 0.000563475
---------------- Step  2465000 ----- CPU =  18072.4700 (sec) ----------------
TotEng   =     -3324.9607 KinEng   =       644.5420 Temp     =       298.6609 
PotEng   =     -3969.5027 E_bond   =         1.8504 E_angle  =         1.0963 
E_dihed  =         0.0000 E_impro  =         0.0000 E_vdwl   =       670.6383 
E_coul   =     27111.3632 E_long   =    -31754.4510 Press    =     -1750.5410 
Volume   =     11181.3388 
SHAKE stats (type/ave/delta) on step 2470000
  2 0.956967 9.23585e-06
  2 104.52 0.00105818
---------------- Step  2470000 ----- CPU =  18109.7063 (sec) ----------------
TotEng   =     -3205.8703 KinEng   =       667.6868 Temp     =       309.3855 
PotEng   =     -3873.5570 E_bond   =         0.3508 E_angle  =         2.1927 
E_dihed  =         0.0000 E_impro  =         0.0000 E_vdwl   =       725.8219 
E_coul   =     27151.9680 E_long   =    -31753.8904 Press    =       228.0720 
Volume   =     11080.5050 
SHAKE stats (type/ave/delta) on step 2475000
  2 0.956983 7.68194e-06
  2 104.52 0.000822367
---------------- Step  2475000 ----- CPU =  18147.6653 (sec) ----------------
TotEng   =     -3247.9556 KinEng   =       629.8476 Temp     =       291.8520 
PotEng   =     -3877.8032 E_bond   =         2.5179 E_angle  =         0.5941 
E_dihed  =         0.0000 E_impro  =         0.0000 E_vdwl   =       652.9449 
E_coul   =     27221.5279 E_long   =    -31755.3880 Press    =      -651.2600 
Volume   =     10898.7033 
SHAKE stats (type/ave/delta) on step 2480000
  2 0.957015 9.10458e-06
  2 104.52 0.000735105
---------------- Step  2480000 ----- CPU =  18185.5059 (sec) ----------------
TotEng   =     -3363.0962 KinEng   =       630.2784 Temp     =       292.0516 
PotEng   =     -3993.3746 E_bond   =         0.2417 E_angle  =         1.2929 
E_dihed  =         0.0000 E_impro  =         0.0000 E_vdwl   =       749.7491 
E_coul   =     27009.0713 E_long   =    -31753.7295 Press    =      -371.8656 
Volume   =     11123.8360 
SHAKE stats (type/ave/delta) on step 2485000
  2 0.956994 1.17081e-05
  2 104.52 0.00138469
---------------- Step  2485000 ----- CPU =  18223.0410 (sec) ----------------
TotEng   =     -3276.1555 KinEng   =       646.5463 Temp     =       299.5896 
PotEng   =     -3922.7018 E_bond   =         2.3741 E_angle  =         1.4627 
E_dihed  =         0.0000 E_impro  =         0.0000 E_vdwl   =       759.9737 
E_coul   =     27065.5787 E_long   =    -31752.0910 Press    =       648.7328 
Volume   =     10808.4761 
SHAKE stats (type/ave/delta) on step 2490000
  2 0.957023 7.43651e-06
  2 104.52 0.000622679
---------------- Step  2490000 ----- CPU =  18260.3878 (sec) ----------------
TotEng   =     -3269.7259 KinEng   =       656.5498 Temp     =       304.2249 
PotEng   =     -3926.2757 E_bond   =         2.3467 E_angle  =         0.7837 
E_dihed  =         0.0000 E_impro  =         0.0000 E_vdwl   =       735.3895 
E_coul   =     27087.8405 E_long   =    -31752.6361 Press    =      -423.6451 
Volume   =     11248.0782 
SHAKE stats (type/ave/delta) on step 2495000
  2 0.95701 5.69351e-06
  2 104.52 0.000381599
---------------- Step  2495000 ----- CPU =  18297.8413 (sec) ----------------
TotEng   =     -3347.0273 KinEng   =       653.2860 Temp     =       302.7126 
PotEng   =     -4000.3133 E_bond   =         2.4332 E_angle  =         1.1562 
E_dihed  =         0.0000 E_impro  =         0.0000 E_vdwl   =       771.7087 
E_coul   =     26980.8534 E_long   =    -31756.4648 Press    =       -96.2390 
Volume   =     11154.6346 
SHAKE stats (type/ave/delta) on step 2500000
  2 0.957071 6.74269e-06
  2 104.52 0.000507974
---------------- Step  2500000 ----- CPU =  18334.3530 (sec) ----------------
TotEng   =     -3384.2414 KinEng   =       631.7686 Temp     =       292.7421 
PotEng   =     -4016.0099 E_bond   =         0.9330 E_angle  =         1.8732 
E_dihed  =         0.0000 E_impro  =         0.0000 E_vdwl   =       756.8359 
E_coul   =     26979.4349 E_long   =    -31755.0869 Press    =       -82.2684 
Volume   =     10917.5853 
Loop time of 18334.4 on 8 procs for 2500000 steps with 1085 atoms

Pair  time (%) = 13118.5 (71.5517)
Bond  time (%) = 1.64181 (0.00895485)
Kspce time (%) = 2890.31 (15.7645)
Neigh time (%) = 464.994 (2.53619)
Comm  time (%) = 629.26 (3.43213)
Outpt time (%) = 0.22705 (0.00123838)
Other time (%) = 1229.37 (6.7053)

FFT time (% of Kspce) = 250.707 (8.67404)
FFT Gflps 3d (1d only) = 5.46834 35.5792

Nlocal:    135.625 ave 146 max 123 min
Histogram: 1 0 0 1 2 1 1 0 1 1
Nghost:    4337.88 ave 4365 max 4303 min
Histogram: 2 0 0 0 1 1 0 2 0 2
Neighs:    51859.8 ave 55884 max 43285 min
Histogram: 1 0 0 0 2 0 1 0 0 4

Total # of neighbors = 414878
Ave neighs/atom = 382.376
Ave special neighs/atom = 2.00922
Neighbor list builds = 198584
Dangerous builds = 23872

# write_restart restart.*.lmp
write_data data.*.lmp
PPPM initialization ...
  G vector (1/distance) = 0.285812
  grid = 15 15 15
  stencil order = 5
  estimated absolute RMS force accuracy = 0.0144967
  estimated relative force accuracy = 4.36564e-05
  using double precision FFTs
  3d grid and FFT values/proc = 2744 512
