LAMMPS description

     512      atoms    
       0      bonds    
       0      angles   
       0      dihedrals
       0      impropers

       1      atom types    
       0      bond types    
       0      angle types   
       0      dihedral types
       0      improper types


  0.0000000      21.724000     xlo xhi
  0.0000000      21.724000     ylo yhi
  0.0000000      21.724000     zlo zhi

 Atoms

      1      1      1      0.0000000      0.0000000      0.0000000      0.0000000
      2      2      1      0.0000000      0.0000000      2.7150000      2.7150000
      3      3      1      0.0000000      2.7150000      2.7150000      0.0000000
      4      4      1      0.0000000      2.7150000      0.0000000      2.7150000
      5      5      1      0.0000000      4.0730000      1.3580000      4.0730000
      6      6      1      0.0000000      1.3580000      1.3580000      1.3580000
      7      7      1      0.0000000      1.3580000      4.0730000      4.0730000
      8      8      1      0.0000000      4.0730000      4.0730000      1.3580000
      9      9      1      0.0000000      0.0000000      0.0000000      5.4310000
     10     10      1      0.0000000      0.0000000      2.7150000      8.1460000
     11     11      1      0.0000000      2.7150000      2.7150000      5.4310000
     12     12      1      0.0000000      2.7150000      0.0000000      8.1460000
     13     13      1      0.0000000      4.0730000      1.3580000      9.5040000
     14     14      1      0.0000000      1.3580000      1.3580000      6.7890000
     15     15      1      0.0000000      1.3580000      4.0730000      9.5040000
     16     16      1      0.0000000      4.0730000      4.0730000      6.7890000
     17     17      1      0.0000000      0.0000000      0.0000000     10.8620000
     18     18      1      0.0000000      0.0000000      2.7150000     13.5770000
     19     19      1      0.0000000      2.7150000      2.7150000     10.8620000
     20     20      1      0.0000000      2.7150000      0.0000000     13.5770000
     21     21      1      0.0000000      4.0730000      1.3580000     14.9350000
     22     22      1      0.0000000      1.3580000      1.3580000     12.2200000
     23     23      1      0.0000000      1.3580000      4.0730000     14.9350000
     24     24      1      0.0000000      4.0730000      4.0730000     12.2200000
     25     25      1      0.0000000      0.0000000      0.0000000     16.2930000
     26     26      1      0.0000000      0.0000000      2.7150000     19.0080000
     27     27      1      0.0000000      2.7150000      2.7150000     16.2930000
     28     28      1      0.0000000      2.7150000      0.0000000     19.0080000
     29     29      1      0.0000000      4.0730000      1.3580000     20.3660000
     30     30      1      0.0000000      1.3580000      1.3580000     17.6510000
     31     31      1      0.0000000      1.3580000      4.0730000     20.3660000
     32     32      1      0.0000000      4.0730000      4.0730000     17.6510000
     33     33      1      0.0000000      0.0000000      5.4310000      0.0000000
     34     34      1      0.0000000      0.0000000      8.1460000      2.7150000
     35     35      1      0.0000000      2.7150000      8.1460000      0.0000000
     36     36      1      0.0000000      2.7150000      5.4310000      2.7150000
     37     37      1      0.0000000      4.0730000      6.7890000      4.0730000
     38     38      1      0.0000000      1.3580000      6.7890000      1.3580000
     39     39      1      0.0000000      1.3580000      9.5040000      4.0730000
     40     40      1      0.0000000      4.0730000      9.5040000      1.3580000
     41     41      1      0.0000000      0.0000000      5.4310000      5.4310000
     42     42      1      0.0000000      0.0000000      8.1460000      8.1460000
     43     43      1      0.0000000      2.7150000      8.1460000      5.4310000
     44     44      1      0.0000000      2.7150000      5.4310000      8.1460000
     45     45      1      0.0000000      4.0730000      6.7890000      9.5040000
     46     46      1      0.0000000      1.3580000      6.7890000      6.7890000
     47     47      1      0.0000000      1.3580000      9.5040000      9.5040000
     48     48      1      0.0000000      4.0730000      9.5040000      6.7890000
     49     49      1      0.0000000      0.0000000      5.4310000     10.8620000
     50     50      1      0.0000000      0.0000000      8.1460000     13.5770000
     51     51      1      0.0000000      2.7150000      8.1460000     10.8620000
     52     52      1      0.0000000      2.7150000      5.4310000     13.5770000
     53     53      1      0.0000000      4.0730000      6.7890000     14.9350000
     54     54      1      0.0000000      1.3580000      6.7890000     12.2200000
     55     55      1      0.0000000      1.3580000      9.5040000     14.9350000
     56     56      1      0.0000000      4.0730000      9.5040000     12.2200000
     57     57      1      0.0000000      0.0000000      5.4310000     16.2930000
     58     58      1      0.0000000      0.0000000      8.1460000     19.0080000
     59     59      1      0.0000000      2.7150000      8.1460000     16.2930000
     60     60      1      0.0000000      2.7150000      5.4310000     19.0080000
     61     61      1      0.0000000      4.0730000      6.7890000     20.3660000
     62     62      1      0.0000000      1.3580000      6.7890000     17.6510000
     63     63      1      0.0000000      1.3580000      9.5040000     20.3660000
     64     64      1      0.0000000      4.0730000      9.5040000     17.6510000
     65     65      1      0.0000000      0.0000000     10.8620000      0.0000000
     66     66      1      0.0000000      0.0000000     13.5770000      2.7150000
     67     67      1      0.0000000      2.7150000     13.5770000      0.0000000
     68     68      1      0.0000000      2.7150000     10.8620000      2.7150000
     69     69      1      0.0000000      4.0730000     12.2200000      4.0730000
     70     70      1      0.0000000      1.3580000     12.2200000      1.3580000
     71     71      1      0.0000000      1.3580000     14.9350000      4.0730000
     72     72      1      0.0000000      4.0730000     14.9350000      1.3580000
     73     73      1      0.0000000      0.0000000     10.8620000      5.4310000
     74     74      1      0.0000000      0.0000000     13.5770000      8.1460000
     75     75      1      0.0000000      2.7150000     13.5770000      5.4310000
     76     76      1      0.0000000      2.7150000     10.8620000      8.1460000
     77     77      1      0.0000000      4.0730000     12.2200000      9.5040000
     78     78      1      0.0000000      1.3580000     12.2200000      6.7890000
     79     79      1      0.0000000      1.3580000     14.9350000      9.5040000
     80     80      1      0.0000000      4.0730000     14.9350000      6.7890000
     81     81      1      0.0000000      0.0000000     10.8620000     10.8620000
     82     82      1      0.0000000      0.0000000     13.5770000     13.5770000
     83     83      1      0.0000000      2.7150000     13.5770000     10.8620000
     84     84      1      0.0000000      2.7150000     10.8620000     13.5770000
     85     85      1      0.0000000      4.0730000     12.2200000     14.9350000
     86     86      1      0.0000000      1.3580000     12.2200000     12.2200000
     87     87      1      0.0000000      1.3580000     14.9350000     14.9350000
     88     88      1      0.0000000      4.0730000     14.9350000     12.2200000
     89     89      1      0.0000000      0.0000000     10.8620000     16.2930000
     90     90      1      0.0000000      0.0000000     13.5770000     19.0080000
     91     91      1      0.0000000      2.7150000     13.5770000     16.2930000
     92     92      1      0.0000000      2.7150000     10.8620000     19.0080000
     93     93      1      0.0000000      4.0730000     12.2200000     20.3660000
     94     94      1      0.0000000      1.3580000     12.2200000     17.6510000
     95     95      1      0.0000000      1.3580000     14.9350000     20.3660000
     96     96      1      0.0000000      4.0730000     14.9350000     17.6510000
     97     97      1      0.0000000      0.0000000     16.2930000      0.0000000
     98     98      1      0.0000000      0.0000000     19.0080000      2.7150000
     99     99      1      0.0000000      2.7150000     19.0080000      0.0000000
    100    100      1      0.0000000      2.7150000     16.2930000      2.7150000
    101    101      1      0.0000000      4.0730000     17.6510000      4.0730000
    102    102      1      0.0000000      1.3580000     17.6510000      1.3580000
    103    103      1      0.0000000      1.3580000     20.3660000      4.0730000
    104    104      1      0.0000000      4.0730000     20.3660000      1.3580000
    105    105      1      0.0000000      0.0000000     16.2930000      5.4310000
    106    106      1      0.0000000      0.0000000     19.0080000      8.1460000
    107    107      1      0.0000000      2.7150000     19.0080000      5.4310000
    108    108      1      0.0000000      2.7150000     16.2930000      8.1460000
    109    109      1      0.0000000      4.0730000     17.6510000      9.5040000
    110    110      1      0.0000000      1.3580000     17.6510000      6.7890000
    111    111      1      0.0000000      1.3580000     20.3660000      9.5040000
    112    112      1      0.0000000      4.0730000     20.3660000      6.7890000
    113    113      1      0.0000000      0.0000000     16.2930000     10.8620000
    114    114      1      0.0000000      0.0000000     19.0080000     13.5770000
    115    115      1      0.0000000      2.7150000     19.0080000     10.8620000
    116    116      1      0.0000000      2.7150000     16.2930000     13.5770000
    117    117      1      0.0000000      4.0730000     17.6510000     14.9350000
    118    118      1      0.0000000      1.3580000     17.6510000     12.2200000
    119    119      1      0.0000000      1.3580000     20.3660000     14.9350000
    120    120      1      0.0000000      4.0730000     20.3660000     12.2200000
    121    121      1      0.0000000      0.0000000     16.2930000     16.2930000
    122    122      1      0.0000000      0.0000000     19.0080000     19.0080000
    123    123      1      0.0000000      2.7150000     19.0080000     16.2930000
    124    124      1      0.0000000      2.7150000     16.2930000     19.0080000
    125    125      1      0.0000000      4.0730000     17.6510000     20.3660000
    126    126      1      0.0000000      1.3580000     17.6510000     17.6510000
    127    127      1      0.0000000      1.3580000     20.3660000     20.3660000
    128    128      1      0.0000000      4.0730000     20.3660000     17.6510000
    129    129      1      0.0000000      5.4310000      0.0000000      0.0000000
    130    130      1      0.0000000      5.4310000      2.7150000      2.7150000
    131    131      1      0.0000000      8.1460000      2.7150000      0.0000000
    132    132      1      0.0000000      8.1460000      0.0000000      2.7150000
    133    133      1      0.0000000      9.5040000      1.3580000      4.0730000
    134    134      1      0.0000000      6.7890000      1.3580000      1.3580000
    135    135      1      0.0000000      6.7890000      4.0730000      4.0730000
    136    136      1      0.0000000      9.5040000      4.0730000      1.3580000
    137    137      1      0.0000000      5.4310000      0.0000000      5.4310000
    138    138      1      0.0000000      5.4310000      2.7150000      8.1460000
    139    139      1      0.0000000      8.1460000      2.7150000      5.4310000
    140    140      1      0.0000000      8.1460000      0.0000000      8.1460000
    141    141      1      0.0000000      9.5040000      1.3580000      9.5040000
    142    142      1      0.0000000      6.7890000      1.3580000      6.7890000
    143    143      1      0.0000000      6.7890000      4.0730000      9.5040000
    144    144      1      0.0000000      9.5040000      4.0730000      6.7890000
    145    145      1      0.0000000      5.4310000      0.0000000     10.8620000
    146    146      1      0.0000000      5.4310000      2.7150000     13.5770000
    147    147      1      0.0000000      8.1460000      2.7150000     10.8620000
    148    148      1      0.0000000      8.1460000      0.0000000     13.5770000
    149    149      1      0.0000000      9.5040000      1.3580000     14.9350000
    150    150      1      0.0000000      6.7890000      1.3580000     12.2200000
    151    151      1      0.0000000      6.7890000      4.0730000     14.9350000
    152    152      1      0.0000000      9.5040000      4.0730000     12.2200000
    153    153      1      0.0000000      5.4310000      0.0000000     16.2930000
    154    154      1      0.0000000      5.4310000      2.7150000     19.0080000
    155    155      1      0.0000000      8.1460000      2.7150000     16.2930000
    156    156      1      0.0000000      8.1460000      0.0000000     19.0080000
    157    157      1      0.0000000      9.5040000      1.3580000     20.3660000
    158    158      1      0.0000000      6.7890000      1.3580000     17.6510000
    159    159      1      0.0000000      6.7890000      4.0730000     20.3660000
    160    160      1      0.0000000      9.5040000      4.0730000     17.6510000
    161    161      1      0.0000000      5.4310000      5.4310000      0.0000000
    162    162      1      0.0000000      5.4310000      8.1460000      2.7150000
    163    163      1      0.0000000      8.1460000      8.1460000      0.0000000
    164    164      1      0.0000000      8.1460000      5.4310000      2.7150000
    165    165      1      0.0000000      9.5040000      6.7890000      4.0730000
    166    166      1      0.0000000      6.7890000      6.7890000      1.3580000
    167    167      1      0.0000000      6.7890000      9.5040000      4.0730000
    168    168      1      0.0000000      9.5040000      9.5040000      1.3580000
    169    169      1      0.0000000      5.4310000      5.4310000      5.4310000
    170    170      1      0.0000000      5.4310000      8.1460000      8.1460000
    171    171      1      0.0000000      8.1460000      8.1460000      5.4310000
    172    172      1      0.0000000      8.1460000      5.4310000      8.1460000
    173    173      1      0.0000000      9.5040000      6.7890000      9.5040000
    174    174      1      0.0000000      6.7890000      6.7890000      6.7890000
    175    175      1      0.0000000      6.7890000      9.5040000      9.5040000
    176    176      1      0.0000000      9.5040000      9.5040000      6.7890000
    177    177      1      0.0000000      5.4310000      5.4310000     10.8620000
    178    178      1      0.0000000      5.4310000      8.1460000     13.5770000
    179    179      1      0.0000000      8.1460000      8.1460000     10.8620000
    180    180      1      0.0000000      8.1460000      5.4310000     13.5770000
    181    181      1      0.0000000      9.5040000      6.7890000     14.9350000
    182    182      1      0.0000000      6.7890000      6.7890000     12.2200000
    183    183      1      0.0000000      6.7890000      9.5040000     14.9350000
    184    184      1      0.0000000      9.5040000      9.5040000     12.2200000
    185    185      1      0.0000000      5.4310000      5.4310000     16.2930000
    186    186      1      0.0000000      5.4310000      8.1460000     19.0080000
    187    187      1      0.0000000      8.1460000      8.1460000     16.2930000
    188    188      1      0.0000000      8.1460000      5.4310000     19.0080000
    189    189      1      0.0000000      9.5040000      6.7890000     20.3660000
    190    190      1      0.0000000      6.7890000      6.7890000     17.6510000
    191    191      1      0.0000000      6.7890000      9.5040000     20.3660000
    192    192      1      0.0000000      9.5040000      9.5040000     17.6510000
    193    193      1      0.0000000      5.4310000     10.8620000      0.0000000
    194    194      1      0.0000000      5.4310000     13.5770000      2.7150000
    195    195      1      0.0000000      8.1460000     13.5770000      0.0000000
    196    196      1      0.0000000      8.1460000     10.8620000      2.7150000
    197    197      1      0.0000000      9.5040000     12.2200000      4.0730000
    198    198      1      0.0000000      6.7890000     12.2200000      1.3580000
    199    199      1      0.0000000      6.7890000     14.9350000      4.0730000
    200    200      1      0.0000000      9.5040000     14.9350000      1.3580000
    201    201      1      0.0000000      5.4310000     10.8620000      5.4310000
    202    202      1      0.0000000      5.4310000     13.5770000      8.1460000
    203    203      1      0.0000000      8.1460000     13.5770000      5.4310000
    204    204      1      0.0000000      8.1460000     10.8620000      8.1460000
    205    205      1      0.0000000      9.5040000     12.2200000      9.5040000
    206    206      1      0.0000000      6.7890000     12.2200000      6.7890000
    207    207      1      0.0000000      6.7890000     14.9350000      9.5040000
    208    208      1      0.0000000      9.5040000     14.9350000      6.7890000
    209    209      1      0.0000000      5.4310000     10.8620000     10.8620000
    210    210      1      0.0000000      5.4310000     13.5770000     13.5770000
    211    211      1      0.0000000      8.1460000     13.5770000     10.8620000
    212    212      1      0.0000000      8.1460000     10.8620000     13.5770000
    213    213      1      0.0000000      9.5040000     12.2200000     14.9350000
    214    214      1      0.0000000      6.7890000     12.2200000     12.2200000
    215    215      1      0.0000000      6.7890000     14.9350000     14.9350000
    216    216      1      0.0000000      9.5040000     14.9350000     12.2200000
    217    217      1      0.0000000      5.4310000     10.8620000     16.2930000
    218    218      1      0.0000000      5.4310000     13.5770000     19.0080000
    219    219      1      0.0000000      8.1460000     13.5770000     16.2930000
    220    220      1      0.0000000      8.1460000     10.8620000     19.0080000
    221    221      1      0.0000000      9.5040000     12.2200000     20.3660000
    222    222      1      0.0000000      6.7890000     12.2200000     17.6510000
    223    223      1      0.0000000      6.7890000     14.9350000     20.3660000
    224    224      1      0.0000000      9.5040000     14.9350000     17.6510000
    225    225      1      0.0000000      5.4310000     16.2930000      0.0000000
    226    226      1      0.0000000      5.4310000     19.0080000      2.7150000
    227    227      1      0.0000000      8.1460000     19.0080000      0.0000000
    228    228      1      0.0000000      8.1460000     16.2930000      2.7150000
    229    229      1      0.0000000      9.5040000     17.6510000      4.0730000
    230    230      1      0.0000000      6.7890000     17.6510000      1.3580000
    231    231      1      0.0000000      6.7890000     20.3660000      4.0730000
    232    232      1      0.0000000      9.5040000     20.3660000      1.3580000
    233    233      1      0.0000000      5.4310000     16.2930000      5.4310000
    234    234      1      0.0000000      5.4310000     19.0080000      8.1460000
    235    235      1      0.0000000      8.1460000     19.0080000      5.4310000
    236    236      1      0.0000000      8.1460000     16.2930000      8.1460000
    237    237      1      0.0000000      9.5040000     17.6510000      9.5040000
    238    238      1      0.0000000      6.7890000     17.6510000      6.7890000
    239    239      1      0.0000000      6.7890000     20.3660000      9.5040000
    240    240      1      0.0000000      9.5040000     20.3660000      6.7890000
    241    241      1      0.0000000      5.4310000     16.2930000     10.8620000
    242    242      1      0.0000000      5.4310000     19.0080000     13.5770000
    243    243      1      0.0000000      8.1460000     19.0080000     10.8620000
    244    244      1      0.0000000      8.1460000     16.2930000     13.5770000
    245    245      1      0.0000000      9.5040000     17.6510000     14.9350000
    246    246      1      0.0000000      6.7890000     17.6510000     12.2200000
    247    247      1      0.0000000      6.7890000     20.3660000     14.9350000
    248    248      1      0.0000000      9.5040000     20.3660000     12.2200000
    249    249      1      0.0000000      5.4310000     16.2930000     16.2930000
    250    250      1      0.0000000      5.4310000     19.0080000     19.0080000
    251    251      1      0.0000000      8.1460000     19.0080000     16.2930000
    252    252      1      0.0000000      8.1460000     16.2930000     19.0080000
    253    253      1      0.0000000      9.5040000     17.6510000     20.3660000
    254    254      1      0.0000000      6.7890000     17.6510000     17.6510000
    255    255      1      0.0000000      6.7890000     20.3660000     20.3660000
    256    256      1      0.0000000      9.5040000     20.3660000     17.6510000
    257    257      1      0.0000000     10.8620000      0.0000000      0.0000000
    258    258      1      0.0000000     10.8620000      2.7150000      2.7150000
    259    259      1      0.0000000     13.5770000      2.7150000      0.0000000
    260    260      1      0.0000000     13.5770000      0.0000000      2.7150000
    261    261      1      0.0000000     14.9350000      1.3580000      4.0730000
    262    262      1      0.0000000     12.2200000      1.3580000      1.3580000
    263    263      1      0.0000000     12.2200000      4.0730000      4.0730000
    264    264      1      0.0000000     14.9350000      4.0730000      1.3580000
    265    265      1      0.0000000     10.8620000      0.0000000      5.4310000
    266    266      1      0.0000000     10.8620000      2.7150000      8.1460000
    267    267      1      0.0000000     13.5770000      2.7150000      5.4310000
    268    268      1      0.0000000     13.5770000      0.0000000      8.1460000
    269    269      1      0.0000000     14.9350000      1.3580000      9.5040000
    270    270      1      0.0000000     12.2200000      1.3580000      6.7890000
    271    271      1      0.0000000     12.2200000      4.0730000      9.5040000
    272    272      1      0.0000000     14.9350000      4.0730000      6.7890000
    273    273      1      0.0000000     10.8620000      0.0000000     10.8620000
    274    274      1      0.0000000     10.8620000      2.7150000     13.5770000
    275    275      1      0.0000000     13.5770000      2.7150000     10.8620000
    276    276      1      0.0000000     13.5770000      0.0000000     13.5770000
    277    277      1      0.0000000     14.9350000      1.3580000     14.9350000
    278    278      1      0.0000000     12.2200000      1.3580000     12.2200000
    279    279      1      0.0000000     12.2200000      4.0730000     14.9350000
    280    280      1      0.0000000     14.9350000      4.0730000     12.2200000
    281    281      1      0.0000000     10.8620000      0.0000000     16.2930000
    282    282      1      0.0000000     10.8620000      2.7150000     19.0080000
    283    283      1      0.0000000     13.5770000      2.7150000     16.2930000
    284    284      1      0.0000000     13.5770000      0.0000000     19.0080000
    285    285      1      0.0000000     14.9350000      1.3580000     20.3660000
    286    286      1      0.0000000     12.2200000      1.3580000     17.6510000
    287    287      1      0.0000000     12.2200000      4.0730000     20.3660000
    288    288      1      0.0000000     14.9350000      4.0730000     17.6510000
    289    289      1      0.0000000     10.8620000      5.4310000      0.0000000
    290    290      1      0.0000000     10.8620000      8.1460000      2.7150000
    291    291      1      0.0000000     13.5770000      8.1460000      0.0000000
    292    292      1      0.0000000     13.5770000      5.4310000      2.7150000
    293    293      1      0.0000000     14.9350000      6.7890000      4.0730000
    294    294      1      0.0000000     12.2200000      6.7890000      1.3580000
    295    295      1      0.0000000     12.2200000      9.5040000      4.0730000
    296    296      1      0.0000000     14.9350000      9.5040000      1.3580000
    297    297      1      0.0000000     10.8620000      5.4310000      5.4310000
    298    298      1      0.0000000     10.8620000      8.1460000      8.1460000
    299    299      1      0.0000000     13.5770000      8.1460000      5.4310000
    300    300      1      0.0000000     13.5770000      5.4310000      8.1460000
    301    301      1      0.0000000     14.9350000      6.7890000      9.5040000
    302    302      1      0.0000000     12.2200000      6.7890000      6.7890000
    303    303      1      0.0000000     12.2200000      9.5040000      9.5040000
    304    304      1      0.0000000     14.9350000      9.5040000      6.7890000
    305    305      1      0.0000000     10.8620000      5.4310000     10.8620000
    306    306      1      0.0000000     10.8620000      8.1460000     13.5770000
    307    307      1      0.0000000     13.5770000      8.1460000     10.8620000
    308    308      1      0.0000000     13.5770000      5.4310000     13.5770000
    309    309      1      0.0000000     14.9350000      6.7890000     14.9350000
    310    310      1      0.0000000     12.2200000      6.7890000     12.2200000
    311    311      1      0.0000000     12.2200000      9.5040000     14.9350000
    312    312      1      0.0000000     14.9350000      9.5040000     12.2200000
    313    313      1      0.0000000     10.8620000      5.4310000     16.2930000
    314    314      1      0.0000000     10.8620000      8.1460000     19.0080000
    315    315      1      0.0000000     13.5770000      8.1460000     16.2930000
    316    316      1      0.0000000     13.5770000      5.4310000     19.0080000
    317    317      1      0.0000000     14.9350000      6.7890000     20.3660000
    318    318      1      0.0000000     12.2200000      6.7890000     17.6510000
    319    319      1      0.0000000     12.2200000      9.5040000     20.3660000
    320    320      1      0.0000000     14.9350000      9.5040000     17.6510000
    321    321      1      0.0000000     10.8620000     10.8620000      0.0000000
    322    322      1      0.0000000     10.8620000     13.5770000      2.7150000
    323    323      1      0.0000000     13.5770000     13.5770000      0.0000000
    324    324      1      0.0000000     13.5770000     10.8620000      2.7150000
    325    325      1      0.0000000     14.9350000     12.2200000      4.0730000
    326    326      1      0.0000000     12.2200000     12.2200000      1.3580000
    327    327      1      0.0000000     12.2200000     14.9350000      4.0730000
    328    328      1      0.0000000     14.9350000     14.9350000      1.3580000
    329    329      1      0.0000000     10.8620000     10.8620000      5.4310000
    330    330      1      0.0000000     10.8620000     13.5770000      8.1460000
    331    331      1      0.0000000     13.5770000     13.5770000      5.4310000
    332    332      1      0.0000000     13.5770000     10.8620000      8.1460000
    333    333      1      0.0000000     14.9350000     12.2200000      9.5040000
    334    334      1      0.0000000     12.2200000     12.2200000      6.7890000
    335    335      1      0.0000000     12.2200000     14.9350000      9.5040000
    336    336      1      0.0000000     14.9350000     14.9350000      6.7890000
    337    337      1      0.0000000     10.8620000     10.8620000     10.8620000
    338    338      1      0.0000000     10.8620000     13.5770000     13.5770000
    339    339      1      0.0000000     13.5770000     13.5770000     10.8620000
    340    340      1      0.0000000     13.5770000     10.8620000     13.5770000
    341    341      1      0.0000000     14.9350000     12.2200000     14.9350000
    342    342      1      0.0000000     12.2200000     12.2200000     12.2200000
    343    343      1      0.0000000     12.2200000     14.9350000     14.9350000
    344    344      1      0.0000000     14.9350000     14.9350000     12.2200000
    345    345      1      0.0000000     10.8620000     10.8620000     16.2930000
    346    346      1      0.0000000     10.8620000     13.5770000     19.0080000
    347    347      1      0.0000000     13.5770000     13.5770000     16.2930000
    348    348      1      0.0000000     13.5770000     10.8620000     19.0080000
    349    349      1      0.0000000     14.9350000     12.2200000     20.3660000
    350    350      1      0.0000000     12.2200000     12.2200000     17.6510000
    351    351      1      0.0000000     12.2200000     14.9350000     20.3660000
    352    352      1      0.0000000     14.9350000     14.9350000     17.6510000
    353    353      1      0.0000000     10.8620000     16.2930000      0.0000000
    354    354      1      0.0000000     10.8620000     19.0080000      2.7150000
    355    355      1      0.0000000     13.5770000     19.0080000      0.0000000
    356    356      1      0.0000000     13.5770000     16.2930000      2.7150000
    357    357      1      0.0000000     14.9350000     17.6510000      4.0730000
    358    358      1      0.0000000     12.2200000     17.6510000      1.3580000
    359    359      1      0.0000000     12.2200000     20.3660000      4.0730000
    360    360      1      0.0000000     14.9350000     20.3660000      1.3580000