##A Weak PE Chain of N=80

160 atoms
79 bonds

5 atom types
1 bond types

-50 50 xlo xhi
-50 50 ylo yhi
-50 50 zlo zhi

Masses

1 1.0
2 1.0
3 1.0
4 1.0
5 1.0

Atoms
# atom_id molecule_id atom_type charge x y z 
1 1 1 -1 0 0 -48.37753795169063
2 1 1 -1 0 0 -47.255075903381254
3 1 1 -1 0 0 -46.13261385507188
4 1 1 -1 0 0 -45.01015180676251
5 1 1 -1 0 0 -43.887689758453135
6 1 1 -1 0 0 -42.76522771014376
7 1 1 -1 0 0 -41.64276566183439
8 1 1 -1 0 0 -40.520303613525016
9 1 1 -1 0 0 -39.39784156521564
10 1 1 -1 0 0 -38.27537951690627
11 1 1 -1 0 0 -37.1529174685969
12 1 1 -1 0 0 -36.030455420287524
13 1 1 -1 0 0 -34.90799337197815
14 1 1 -1 0 0 -33.78553132366878
15 1 1 -1 0 0 -32.663069275359405
16 1 1 -1 0 0 -31.54060722705003
17 1 1 -1 0 0 -30.41814517874066
18 1 1 -1 0 0 -29.295683130431286
19 1 1 -1 0 0 -28.173221082121913
20 1 1 -1 0 0 -27.05075903381254
21 1 1 -1 0 0 -25.928296985503167
22 1 1 -1 0 0 -24.805834937193794
23 1 1 -1 0 0 -23.68337288888442
24 1 1 -1 0 0 -22.560910840575048
25 1 1 -1 0 0 -21.438448792265675
26 1 1 -1 0 0 -20.3159867439563
27 1 1 -1 0 0 -19.19352469564693
28 1 1 -1 0 0 -18.071062647337556
29 1 1 -1 0 0 -16.948600599028183
30 1 1 -1 0 0 -15.82613855071881
31 1 1 -1 0 0 -14.703676502409436
32 1 1 -1 0 0 -13.581214454100063
33 1 1 -1 0 0 -12.45875240579069
34 1 1 -1 0 0 -11.336290357481317
35 1 1 -1 0 0 -10.213828309171944
36 1 1 -1 0 0 -9.091366260862571
37 1 1 -1 0 0 -7.968904212553198
38 1 1 -1 0 0 -6.846442164243825
39 1 1 -1 0 0 -5.723980115934452
40 1 1 -1 0 0 -4.601518067625079
41 1 1 -1 0 0 -3.4790560193157063
42 1 1 -1 0 0 -2.3565939710063333
43 1 1 -1 0 0 -1.2341319226969603
44 1 1 -1 0 0 -0.11166987438758724
45 1 1 -1 0 0 1.0107921739217858
46 1 1 -1 0 0 2.133254222231159
47 1 1 -1 0 0 3.255716270540532
48 1 1 -1 0 0 4.378178318849905
49 1 1 -1 0 0 5.500640367159278
50 1 1 -1 0 0 6.623102415468651
51 1 1 -1 0 0 7.745564463778024
52 1 1 -1 0 0 8.868026512087397
53 1 1 -1 0 0 9.99048856039677
54 1 1 -1 0 0 11.112950608706143
55 1 1 -1 0 0 12.235412657015516
56 1 1 -1 0 0 13.357874705324889
57 1 1 -1 0 0 14.480336753634262
58 1 1 -1 0 0 15.602798801943635
59 1 1 -1 0 0 16.725260850253008
60 1 1 -1 0 0 17.84772289856238
61 1 1 -1 0 0 18.970184946871754
62 1 1 -1 0 0 20.092646995181127
63 1 1 -1 0 0 21.2151090434905
64 1 1 -1 0 0 22.337571091799873
65 1 1 -1 0 0 23.460033140109246
66 1 1 -1 0 0 24.58249518841862
67 1 1 -1 0 0 25.704957236727992
68 1 1 -1 0 0 26.827419285037365
69 1 1 -1 0 0 27.949881333346738
70 1 1 -1 0 0 29.07234338165611
71 1 1 -1 0 0 30.194805429965484
72 1 1 -1 0 0 31.317267478274857
73 1 1 -1 0 0 32.43972952658423
74 1 1 -1 0 0 33.5621915748936
75 1 1 -1 0 0 34.684653623202976
76 1 1 -1 0 0 35.80711567151235
77 1 1 -1 0 0 36.92957771982172
78 1 1 -1 0 0 38.052039768131095
79 1 1 -1 0 0 39.17450181644047
80 1 1 -1 0 0 40.29696386474984
81 0 2 1 -27.886422274724097 27.72001798427955 38.68169635811057
82 0 2 1 29.812255760623188 17.871838747003693 -29.094648426460257
83 0 2 1 -13.23881351410531 13.28123966828678 -24.422176415560116
84 0 2 1 4.9465650593939685 -37.7521903558826 -15.115417767729575
85 0 2 1 34.82527943387106 29.457664434004897 -25.565595338061254
86 0 2 1 46.35660570786446 -7.161776614070412 -20.2471250527001
87 0 2 1 39.20854546781531 34.96815569014278 13.893531822586723
88 0 2 1 -7.797240698180197 0.07861219105048889 48.686453603015224
89 0 2 1 43.92391845355516 -39.42362941705827 22.448930565867585
90 0 2 1 -40.371744364329984 -17.743039071967246 -15.08153047835009
91 0 2 1 -21.573165497710058 -0.5844447399891948 -45.73596994149077
92 0 2 1 -19.882394451769102 -7.392447895357577 30.733607063808876
93 0 2 1 -17.393031309514107 26.882975097407467 -47.64059480000892
94 0 2 1 25.652222561671735 1.0229206994719107 -14.959030208952043
95 0 2 1 26.075045766879313 19.902341017250052 46.70284805469666
96 0 2 1 39.91980369168496 0.753749460187592 -26.203575929573407
97 0 2 1 13.777613371273958 7.112171629839359 -33.5270487721399
98 0 2 1 18.944534687271826 20.090215089875286 -34.381335468790574
99 0 2 1 -23.801856387842435 -42.275962146864586 -8.322936238250279
100 0 2 1 -31.386991395893826 29.83894468611787 8.937114269513422
101 0 2 1 -41.07090001085809 49.59339931450579 6.666864232174753
102 0 2 1 -46.58911504232167 -32.46068937927039 19.40424197066872
103 0 2 1 -39.94659416571965 -36.28203465180086 5.841020764632312
104 0 2 1 -26.027467090120137 -41.05522015175137 -1.1145958296128313
105 0 2 1 37.09602855959457 23.76087951027276 45.09142423198867
106 0 2 1 -27.78138413517528 -48.97344929918942 45.91491289356401
107 0 2 1 4.468912883622387 -5.217782298407556 6.381420595433383
108 0 2 1 36.758686966564525 48.425582881586166 -25.909273336802997
109 0 2 1 -27.045102667146036 -19.713951008254117 4.339232870380627
110 0 2 1 -5.984280016624311 -49.45311479123866 36.35727783065221
111 0 2 1 27.833389147163018 -47.80144978082761 -47.71458334276804
112 0 2 1 -23.628507668044364 -30.353876765128685 36.174277933133254
113 0 2 1 -40.93360714431151 40.1336490864843 -27.035347797435495
114 0 2 1 6.3523980881104976 -28.636485436097082 -10.671354350535445
115 0 2 1 42.765716958607086 -32.85779663523676 -1.9682360265562124
116 0 2 1 -33.68069757415453 16.800769050458484 -6.273374390373085
117 0 2 1 13.909148568042937 4.921040289518388 12.111069913598996
118 0 2 1 6.728324076730296 -48.44092815223126 -35.92436883370601
119 0 2 1 -18.121173967321912 -15.76903395165283 2.2495451015454933
120 0 2 1 -11.75253233489407 -45.82569982175387 -12.477142440015896
121 0 2 1 1.9713864197144133 17.961034900064007 32.97992150691711
122 0 2 1 -3.993384770632943 -47.63120435620297 27.75490859098018
123 0 2 1 -0.32208279553454844 -47.30616152402566 -22.751109302380367
124 0 2 1 -0.135777029397957 23.88599790464609 -31.87440560354473
125 0 2 1 -6.123924906817393 -2.038519565120424 45.4809181974626
126 0 2 1 -29.622588299895046 42.40404115712096 6.640479709229595
127 0 2 1 -11.694512971272673 19.983258641775762 -38.152427411711145
128 0 2 1 -20.93721440637313 39.46397829322392 -45.52708262202337
129 0 2 1 34.13340147809369 36.14268504987945 -23.978137043267044
130 0 2 1 -37.422309952611485 29.181841318883087 27.55677757161692
131 0 2 1 30.11314373799594 18.721794400471353 1.5553303682670574
132 0 2 1 -7.3563467211571805 46.84253369205935 -39.84708490437832
133 0 2 1 -3.695927445484358 2.494403998274727 -7.634369981832755
134 0 2 1 44.09701173592077 17.717328437831043 31.54108326477207
135 0 2 1 48.070189931616795 10.601166369398662 -28.28574863896286
136 0 2 1 -7.044858382811761 -42.080663380241766 -1.4369925734636553
137 0 2 1 -12.485032488076918 23.87106169116919 6.178803347562642
138 0 2 1 -15.613232443702309 10.103630885941392 -20.447182948810916
139 0 2 1 28.610332347774147 37.08335835592116 -19.90280831362493
140 0 2 1 25.853920233242505 -27.768648181803655 24.971357611943475
141 0 2 1 9.256159541363296 -23.562096053197934 -4.722701100419371
142 0 2 1 39.96929397877305 -11.88228547846326 -28.70638149104603
143 0 2 1 -37.98545134633291 -23.50528193202669 -10.939982626098441
144 0 2 1 25.40017763114089 -47.49220127581256 15.1783064865064
145 0 2 1 28.073596076651768 3.6631266774864386 31.54355751177208
146 0 2 1 -19.596457173068703 46.79824882013442 -12.302655772327597
147 0 2 1 -36.46192411958321 -2.785830672302666 -25.1901381125736
148 0 2 1 -27.377389198969894 11.295792272951147 39.32842550184691
149 0 2 1 32.24967019136358 -20.517755791016402 31.20590722085157
150 0 2 1 47.70698618147787 9.75462874031868 -28.267447889542563
151 0 2 1 17.157803106328345 -27.48141290657965 7.7670687016760525
152 0 2 1 15.089833959419678 5.342811012118396 27.35336620165029
153 0 2 1 9.836963929211372 -11.047378229392443 -20.960811370690678
154 0 2 1 44.66600586278604 14.949733274456321 -29.328965994323575
155 0 2 1 -21.006260382140685 8.492712712433658 -46.31580169190271
156 0 2 1 -29.970979487850748 -36.46250489415931 26.914372830947457
157 0 2 1 -1.0821372755756329 -8.453379951300242 -19.95665062432509
158 0 2 1 -24.033653425909772 -39.51330620205049 20.067656167683793
159 0 2 1 27.747287624384626 -21.904990435351312 -10.819345241055956
160 0 2 1 -40.86737066410612 -25.609300376714796 -21.128139356809783

Bonds
 # bond_id bond_type atom1_id atom2_id
1 1 1 2
2 1 2 3
3 1 3 4
4 1 4 5
5 1 5 6
6 1 6 7
7 1 7 8
8 1 8 9
9 1 9 10
10 1 10 11
11 1 11 12
12 1 12 13
13 1 13 14
14 1 14 15
15 1 15 16
16 1 16 17
17 1 17 18
18 1 18 19
19 1 19 20
20 1 20 21
21 1 21 22
22 1 22 23
23 1 23 24
24 1 24 25
25 1 25 26
26 1 26 27
27 1 27 28
28 1 28 29
29 1 29 30
30 1 30 31
31 1 31 32
32 1 32 33
33 1 33 34
34 1 34 35
35 1 35 36
36 1 36 37
37 1 37 38
38 1 38 39
39 1 39 40
40 1 40 41
41 1 41 42
42 1 42 43
43 1 43 44
44 1 44 45
45 1 45 46
46 1 46 47
47 1 47 48
48 1 48 49
49 1 49 50
50 1 50 51
51 1 51 52
52 1 52 53
53 1 53 54
54 1 54 55
55 1 55 56
56 1 56 57
57 1 57 58
58 1 58 59
59 1 59 60
60 1 60 61
61 1 61 62
62 1 62 63
63 1 63 64
64 1 64 65
65 1 65 66
66 1 66 67
67 1 67 68
68 1 68 69
69 1 69 70
70 1 70 71
71 1 71 72
72 1 72 73
73 1 73 74
74 1 74 75
75 1 75 76
76 1 76 77
77 1 77 78
78 1 78 79
79 1 79 80
