flourographene-graphane data file

17280 atoms

2 atom types

    -82.62      82.62          xlo xhi
   -79.5011    79.5011          ylo yhi
   -50         50             zlo zhi
Masses

       1      12.000
       2      18.99

Atoms 

1	1	0	-81.854998	-78.838621	0
2	2	0	-81.854998	-78.838621	1.37
3	1	0	-78.794999	-78.838621	0
4	2	0	-78.794999	-78.838621	-1.37
5	1	0	-77.264999	-78.838621	0
6	2	0	-77.264999	-78.838621	1.37
7	1	0	-74.204999	-78.838621	0
8	2	0	-74.204999	-78.838621	-1.37
9	1	0	-72.674999	-78.838621	0
10	2	0	-72.674999	-78.838621	1.37
11	1	0	-69.614999	-78.838621	0
12	2	0	-69.614999	-78.838621	-1.37
13	1	0	-68.084999	-78.838621	0
14	2	0	-68.084999	-78.838621	1.37
15	1	0	-65.024999	-78.838621	0
16	2	0	-65.024999	-78.838621	-1.37
17	1	0	-63.494999	-78.838621	0
18	2	0	-63.494999	-78.838621	1.37
19	1	0	-60.434999	-78.838621	0
20	2	0	-60.434999	-78.838621	-1.37
21	1	0	-58.904999	-78.838621	0
22	2	0	-58.904999	-78.838621	1.37
23	1	0	-55.844999	-78.838621	0
24	2	0	-55.844999	-78.838621	-1.37
25	1	0	-54.314999	-78.838621	0
26	2	0	-54.314999	-78.838621	1.37
27	1	0	-51.254999	-78.838621	0
28	2	0	-51.254999	-78.838621	-1.37
29	1	0	-49.724999	-78.838621	0
30	2	0	-49.724999	-78.838621	1.37
31	1	0	-46.664999	-78.838621	0
32	2	0	-46.664999	-78.838621	-1.37
33	1	0	-45.134999	-78.838621	0
34	2	0	-45.134999	-78.838621	1.37
35	1	0	-42.074999	-78.838621	0
36	2	0	-42.074999	-78.838621	-1.37
37	1	0	-40.544999	-78.838621	0
38	2	0	-40.544999	-78.838621	1.37
39	1	0	-37.484999	-78.838621	0
40	2	0	-37.484999	-78.838621	-1.37
41	1	0	-35.954999	-78.838621	0
42	2	0	-35.954999	-78.838621	1.37
43	1	0	-32.894999	-78.838621	0
44	2	0	-32.894999	-78.838621	-1.37
45	1	0	-31.364999	-78.838621	0
46	2	0	-31.364999	-78.838621	1.37
47	1	0	-28.304999	-78.838621	0
48	2	0	-28.304999	-78.838621	-1.37
49	1	0	-26.774999	-78.838621	0
50	2	0	-26.774999	-78.838621	1.37
51	1	0	-23.715	-78.838621	0
52	2	0	-23.715	-78.838621	-1.37
53	1	0	-22.185	-78.838621	0
54	2	0	-22.185	-78.838621	1.37
55	1	0	-19.125	-78.838621	0
56	2	0	-19.125	-78.838621	-1.37
57	1	0	-17.595	-78.838621	0
58	2	0	-17.595	-78.838621	1.37
59	1	0	-14.535	-78.838621	0
60	2	0	-14.535	-78.838621	-1.37
61	1	0	-13.005	-78.838621	0
62	2	0	-13.005	-78.838621	1.37
63	1	0	-9.945	-78.838621	0
64	2	0	-9.945	-78.838621	-1.37
65	1	0	-8.415	-78.838621	0
66	2	0	-8.415	-78.838621	1.37
67	1	0	-5.355	-78.838621	0
68	2	0	-5.355	-78.838621	-1.37
69	1	0	-3.825	-78.838621	0
70	2	0	-3.825	-78.838621	1.37
71	1	0	-0.765	-78.838621	0
72	2	0	-0.765	-78.838621	-1.37
73	1	0	0.765	-78.838621	0
74	2	0	0.765	-78.838621	1.37
75	1	0	3.825	-78.838621	0
76	2	0	3.825	-78.838621	-1.37
77	1	0	5.355	-78.838621	0
78	2	0	5.355	-78.838621	1.37
79	1	0	8.415	-78.838621	0
80	2	0	8.415	-78.838621	-1.37
81	1	0	9.945	-78.838621	0
82	2	0	9.945	-78.838621	1.37
83	1	0	13.005	-78.838621	0
84	2	0	13.005	-78.838621	-1.37
85	1	0	14.535	-78.838621	0
86	2	0	14.535	-78.838621	1.37
87	1	0	17.595	-78.838621	0
88	2	0	17.595	-78.838621	-1.37
89	1	0	19.125	-78.838621	0
90	2	0	19.125	-78.838621	1.37
91	1	0	22.185	-78.838621	0
92	2	0	22.185	-78.838621	-1.37
93	1	0	23.715	-78.838621	0
94	2	0	23.715	-78.838621	1.37
95	1	0	26.774999	-78.838621	0
96	2	0	26.774999	-78.838621	-1.37
97	1	0	28.304999	-78.838621	0
98	2	0	28.304999	-78.838621	1.37
99	1	0	31.364999	-78.838621	0
100	2	0	31.364999	-78.838621	-1.37
101	1	0	32.894999	-78.838621	0
102	2	0	32.894999	-78.838621	1.37
103	1	0	35.954999	-78.838621	0
104	2	0	35.954999	-78.838621	-1.37
105	1	0	37.484999	-78.838621	0
106	2	0	37.484999	-78.838621	1.37
107	1	0	40.544999	-78.838621	0
108	2	0	40.544999	-78.838621	-1.37
109	1	0	42.074999	-78.838621	0
110	2	0	42.074999	-78.838621	1.37
111	1	0	45.134999	-78.838621	0
112	2	0	45.134999	-78.838621	-1.37
113	1	0	46.664999	-78.838621	0
114	2	0	46.664999	-78.838621	1.37
115	1	0	49.724999	-78.838621	0
116	2	0	49.724999	-78.838621	-1.37
117	1	0	51.254999	-78.838621	0
118	2	0	51.254999	-78.838621	1.37
119	1	0	54.314999	-78.838621	0
120	2	0	54.314999	-78.838621	-1.37
121	1	0	55.844999	-78.838621	0
122	2	0	55.844999	-78.838621	1.37
123	1	0	58.904999	-78.838621	0
124	2	0	58.904999	-78.838621	-1.37
125	1	0	60.434999	-78.838621	0
126	2	0	60.434999	-78.838621	1.37
127	1	0	63.494999	-78.838621	0
128	2	0	63.494999	-78.838621	-1.37
129	1	0	65.024999	-78.838621	0
130	2	0	65.024999	-78.838621	1.37
131	1	0	68.084999	-78.838621	0
132	2	0	68.084999	-78.838621	-1.37
133	1	0	69.614999	-78.838621	0
134	2	0	69.614999	-78.838621	1.37
135	1	0	72.674999	-78.838621	0
136	2	0	72.674999	-78.838621	-1.37
137	1	0	74.204999	-78.838621	0
138	2	0	74.204999	-78.838621	1.37
139	1	0	77.264999	-78.838621	0
140	2	0	77.264999	-78.838621	-1.37
141	1	0	78.794999	-78.838621	0
142	2	0	78.794999	-78.838621	1.37
143	1	0	81.854998	-78.838621	0
144	2	0	81.854998	-78.838621	-1.37
145	1	0	-81.089998	-77.513602	0
146	2	0	-81.089998	-77.513602	-1.37
147	1	0	-79.559999	-77.513602	0
148	2	0	-79.559999	-77.513602	1.37
149	1	0	-76.499999	-77.513602	0
150	2	0	-76.499999	-77.513602	-1.37
151	1	0	-74.969999	-77.513602	0
152	2	0	-74.969999	-77.513602	1.37
153	1	0	-71.909999	-77.513602	0
154	2	0	-71.909999	-77.513602	-1.37
155	1	0	-70.379999	-77.513602	0
156	2	0	-70.379999	-77.513602	1.37
157	1	0	-67.319999	-77.513602	0
158	2	0	-67.319999	-77.513602	-1.37
159	1	0	-65.789999	-77.513602	0
160	2	0	-65.789999	-77.513602	1.37
161	1	0	-62.729999	-77.513602	0
162	2	0	-62.729999	-77.513602	-1.37
163	1	0	-61.199999	-77.513602	0
164	2	0	-61.199999	-77.513602	1.37
165	1	0	-58.139999	-77.513602	0
166	2	0	-58.139999	-77.513602	-1.37
167	1	0	-56.609999	-77.513602	0
168	2	0	-56.609999	-77.513602	1.37
169	1	0	-53.549999	-77.513602	0
170	2	0	-53.549999	-77.513602	-1.37
171	1	0	-52.019999	-77.513602	0
172	2	0	-52.019999	-77.513602	1.37
173	1	0	-48.959999	-77.513602	0
174	2	0	-48.959999	-77.513602	-1.37
175	1	0	-47.429999	-77.513602	0
176	2	0	-47.429999	-77.513602	1.37
177	1	0	-44.369999	-77.513602	0
178	2	0	-44.369999	-77.513602	-1.37
179	1	0	-42.839999	-77.513602	0
180	2	0	-42.839999	-77.513602	1.37
181	1	0	-39.779999	-77.513602	0
182	2	0	-39.779999	-77.513602	-1.37
183	1	0	-38.249999	-77.513602	0
184	2	0	-38.249999	-77.513602	1.37
185	1	0	-35.189999	-77.513602	0
186	2	0	-35.189999	-77.513602	-1.37
187	1	0	-33.659999	-77.513602	0
188	2	0	-33.659999	-77.513602	1.37
189	1	0	-30.599999	-77.513602	0
190	2	0	-30.599999	-77.513602	-1.37
191	1	0	-29.069999	-77.513602	0
192	2	0	-29.069999	-77.513602	1.37
193	1	0	-26.01	-77.513602	0
194	2	0	-26.01	-77.513602	-1.37
195	1	0	-24.48	-77.513602	0
196	2	0	-24.48	-77.513602	1.37
197	1	0	-21.42	-77.513602	0
198	2	0	-21.42	-77.513602	-1.37
199	1	0	-19.89	-77.513602	0
200	2	0	-19.89	-77.513602	1.37
201	1	0	-16.83	-77.513602	0
202	2	0	-16.83	-77.513602	-1.37
203	1	0	-15.3	-77.513602	0
204	2	0	-15.3	-77.513602	1.37
205	1	0	-12.24	-77.513602	0
206	2	0	-12.24	-77.513602	-1.37
207	1	0	-10.71	-77.513602	0
208	2	0	-10.71	-77.513602	1.37
209	1	0	-7.65	-77.513602	0
210	2	0	-7.65	-77.513602	-1.37
211	1	0	-6.12	-77.513602	0
212	2	0	-6.12	-77.513602	1.37
213	1	0	-3.06	-77.513602	0
214	2	0	-3.06	-77.513602	-1.37
215	1	0	-1.53	-77.513602	0
216	2	0	-1.53	-77.513602	1.37
217	1	0	1.53	-77.513602	0
218	2	0	1.53	-77.513602	-1.37
219	1	0	3.06	-77.513602	0
220	2	0	3.06	-77.513602	1.37
221	1	0	6.12	-77.513602	0
222	2	0	6.12	-77.513602	-1.37
223	1	0	7.65	-77.513602	0
224	2	0	7.65	-77.513602	1.37
225	1	0	10.71	-77.513602	0
226	2	0	10.71	-77.513602	-1.37
227	1	0	12.24	-77.513602	0
228	2	0	12.24	-77.513602	1.37
229	1	0	15.3	-77.513602	0
230	2	0	15.3	-77.513602	-1.37
231	1	0	16.83	-77.513602	0
232	2	0	16.83	-77.513602	1.37
233	1	0	19.89	-77.513602	0
234	2	0	19.89	-77.513602	-1.37
235	1	0	21.42	-77.513602	0
236	2	0	21.42	-77.513602	1.37
237	1	0	24.48	-77.513602	0
238	2	0	24.48	-77.513602	-1.37
239	1	0	26.01	-77.513602	0
240	2	0	26.01	-77.513602	1.37
241	1	0	29.069999	-77.513602	0
242	2	0	29.069999	-77.513602	-1.37
243	1	0	30.599999	-77.513602	0
244	2	0	30.599999	-77.513602	1.37
245	1	0	33.659999	-77.513602	0
246	2	0	33.659999	-77.513602	-1.37
247	1	0	35.189999	-77.513602	0
248	2	0	35.189999	-77.513602	1.37
249	1	0	38.249999	-77.513602	0
250	2	0	38.249999	-77.513602	-1.37
251	1	0	39.779999	-77.513602	0
252	2	0	39.779999	-77.513602	1.37
253	1	0	42.839999	-77.513602	0
254	2	0	42.839999	-77.513602	-1.37
255	1	0	44.369999	-77.513602	0
256	2	0	44.369999	-77.513602	1.37
257	1	0	47.429999	-77.513602	0
258	2	0	47.429999	-77.513602	-1.37
259	1	0	48.959999	-77.513602	0
260	2	0	48.959999	-77.513602	1.37
261	1	0	52.019999	-77.513602	0
262	2	0	52.019999	-77.513602	-1.37
263	1	0	53.549999	-77.513602	0
264	2	0	53.549999	-77.513602	1.37
265	1	0	56.609999	-77.513602	0
266	2	0	56.609999	-77.513602	-1.37
267	1	0	58.139999	-77.513602	0
268	2	0	58.139999	-77.513602	1.37
269	1	0	61.199999	-77.513602	0
270	2	0	61.199999	-77.513602	-1.37
271	1	0	62.729999	-77.513602	0
272	2	0	62.729999	-77.513602	1.37
273	1	0	65.789999	-77.513602	0
274	2	0	65.789999	-77.513602	-1.37
275	1	0	67.319999	-77.513602	0
276	2	0	67.319999	-77.513602	1.37
277	1	0	70.379999	-77.513602	0
278	2	0	70.379999	-77.513602	-1.37
279	1	0	71.909999	-77.513602	0
280	2	0	71.909999	-77.513602	1.37
281	1	0	74.969999	-77.513602	0
282	2	0	74.969999	-77.513602	-1.37
283	1	0	76.499999	-77.513602	0
284	2	0	76.499999	-77.513602	1.37
285	1	0	79.559999	-77.513602	0
286	2	0	79.559999	-77.513602	-1.37
287	1	0	81.089998	-77.513602	0
288	2	0	81.089998	-77.513602	1.37
289	1	0	-81.854998	-76.188583	0
290	2	0	-81.854998	-76.188583	1.37
291	1	0	-78.794999	-76.188583	0
292	2	0	-78.794999	-76.188583	-1.37
293	1	0	-77.264999	-76.188583	0
294	2	0	-77.264999	-76.188583	1.37
295	1	0	-74.204999	-76.188583	0
296	2	0	-74.204999	-76.188583	-1.37
297	1	0	-72.674999	-76.188583	0
298	2	0	-72.674999	-76.188583	1.37
299	1	0	-69.614999	-76.188583	0
300	2	0	-69.614999	-76.188583	-1.37
301	1	0	-68.084999	-76.188583	0
302	2	0	-68.084999	-76.188583	1.37
303	1	0	-65.024999	-76.188583	0
304	2	0	-65.024999	-76.188583	-1.37
305	1	0	-63.494999	-76.188583	0
306	2	0	-63.494999	-76.188583	1.37
307	1	0	-60.434999	-76.188583	0
308	2	0	-60.434999	-76.188583	-1.37
309	1	0	-58.904999	-76.188583	0
310	2	0	-58.904999	-76.188583	1.37
311	1	0	-55.844999	-76.188583	0
312	2	0	-55.844999	-76.188583	-1.37
313	1	0	-54.314999	-76.188583	0
314	2	0	-54.314999	-76.188583	1.37
315	1	0	-51.254999	-76.188583	0
316	2	0	-51.254999	-76.188583	-1.37
317	1	0	-49.724999	-76.188583	0
318	2	0	-49.724999	-76.188583	1.37
319	1	0	-46.664999	-76.188583	0
320	2	0	-46.664999	-76.188583	-1.37
321	1	0	-45.134999	-76.188583	0
322	2	0	-45.134999	-76.188583	1.37
323	1	0	-42.074999	-76.188583	0
324	2	0	-42.074999	-76.188583	-1.37
325	1	0	-40.544999	-76.188583	0
326	2	0	-40.544999	-76.188583	1.37
327	1	0	-37.484999	-76.188583	0
328	2	0	-37.484999	-76.188583	-1.37
329	1	0	-35.954999	-76.188583	0
330	2	0	-35.954999	-76.188583	1.37
331	1	0	-32.894999	-76.188583	0
332	2	0	-32.894999	-76.188583	-1.37
333	1	0	-31.364999	-76.188583	0
334	2	0	-31.364999	-76.188583	1.37
335	1	0	-28.304999	-76.188583	0
336	2	0	-28.304999	-76.188583	-1.37
337	1	0	-26.774999	-76.188583	0
338	2	0	-26.774999	-76.188583	1.37
339	1	0	-23.715	-76.188583	0
340	2	0	-23.715	-76.188583	-1.37
341	1	0	-22.185	-76.188583	0
342	2	0	-22.185	-76.188583	1.37
343	1	0	-19.125	-76.188583	0
344	2	0	-19.125	-76.188583	-1.37
345	1	0	-17.595	-76.188583	0
346	2	0	-17.595	-76.188583	1.37
347	1	0	-14.535	-76.188583	0
348	2	0	-14.535	-76.188583	-1.37
349	1	0	-13.005	-76.188583	0
350	2	0	-13.005	-76.188583	1.37
351	1	0	-9.945	-76.188583	0
352	2	0	-9.945	-76.188583	-1.37
353	1	0	-8.415	-76.188583	0
354	2	0	-8.415	-76.188583	1.37
355	1	0	-5.355	-76.188583	0
356	2	0	-5.355	-76.188583	-1.37
357	1	0	-3.825	-76.188583	0
358	2	0	-3.825	-76.188583	1.37
359	1	0	-0.765	-76.188583	0
360	2	0	-0.765	-76.188583	-1.37
361	1	0	0.765	-76.188583	0
362	2	0	0.765	-76.188583	1.37
363	1	0	3.825	-76.188583	0
364	2	0	3.825	-76.188583	-1.37
365	1	0	5.355	-76.188583	0
366	2	0	5.355	-76.188583	1.37
367	1	0	8.415	-76.188583	0
368	2	0	8.415	-76.188583	-1.37
369	1	0	9.945	-76.188583	0
370	2	0	9.945	-76.188583	1.37
371	1	0	13.005	-76.188583	0
372	2	0	13.005	-76.188583	-1.37
373	1	0	14.535	-76.188583	0
374	2	0	14.535	-76.188583	1.37
375	1	0	17.595	-76.188583	0
376	2	0	17.595	-76.188583	-1.37
377	1	0	19.125	-76.188583	0
378	2	0	19.125	-76.188583	1.37
379	1	0	22.185	-76.188583	0
380	2	0	22.185	-76.188583	-1.37
381	1	0	23.715	-76.188583	0
382	2	0	23.715	-76.188583	1.37
383	1	0	26.774999	-76.188583	0
384	2	0	26.774999	-76.188583	-1.37
385	1	0	28.304999	-76.188583	0
386	2	0	28.304999	-76.188583	1.37
387	1	0	31.364999	-76.188583	0
388	2	0	31.364999	-76.188583	-1.37
389	1	0	32.894999	-76.188583	0
390	2	0	32.894999	-76.188583	1.37
391	1	0	35.954999	-76.188583	0
392	2	0	35.954999	-76.188583	-1.37
393	1	0	37.484999	-76.188583	0
394	2	0	37.484999	-76.188583	1.37
395	1	0	40.544999	-76.188583	0
396	2	0	40.544999	-76.188583	-1.37
397	1	0	42.074999	-76.188583	0
398	2	0	42.074999	-76.188583	1.37
399	1	0	45.134999	-76.188583	0
400	2	0	45.134999	-76.188583	-1.37
401	1	0	46.664999	-76.188583	0
402	2	0	46.664999	-76.188583	1.37
403	1	0	49.724999	-76.188583	0
404	2	0	49.724999	-76.188583	-1.37
405	1	0	51.254999	-76.188583	0
406	2	0	51.254999	-76.188583	1.37
407	1	0	54.314999	-76.188583	0
408	2	0	54.314999	-76.188583	-1.37
409	1	0	55.844999	-76.188583	0
410	2	0	55.844999	-76.188583	1.37
411	1	0	58.904999	-76.188583	0
412	2	0	58.904999	-76.188583	-1.37
413	1	0	60.434999	-76.188583	0
414	2	0	60.434999	-76.188583	1.37
415	1	0	63.494999	-76.188583	0
416	2	0	63.494999	-76.188583	-1.37
417	1	0	65.024999	-76.188583	0
418	2	0	65.024999	-76.188583	1.37
419	1	0	68.084999	-76.188583	0
420	2	0	68.084999	-76.188583	-1.37
421	1	0	69.614999	-76.188583	0
422	2	0	69.614999	-76.188583	1.37
423	1	0	72.674999	-76.188583	0
424	2	0	72.674999	-76.188583	-1.37
425	1	0	74.204999	-76.188583	0
426	2	0	74.204999	-76.188583	1.37
427	1	0	77.264999	-76.188583	0
428	2	0	77.264999	-76.188583	-1.37
429	1	0	78.794999	-76.188583	0
430	2	0	78.794999	-76.188583	1.37
431	1	0	81.854998	-76.188583	0
432	2	0	81.854998	-76.188583	-1.37
433	1	0	-81.089998	-74.863565	0
434	2	0	-81.089998	-74.863565	-1.37
435	1	0	-79.559999	-74.863565	0
436	2	0	-79.559999	-74.863565	1.37
437	1	0	-76.499999	-74.863565	0
438	2	0	-76.499999	-74.863565	-1.37
439	1	0	-74.969999	-74.863565	0
440	2	0	-74.969999	-74.863565	1.37
441	1	0	-71.909999	-74.863565	0
442	2	0	-71.909999	-74.863565	-1.37
443	1	0	-70.379999	-74.863565	0
444	2	0	-70.379999	-74.863565	1.37
445	1	0	-67.319999	-74.863565	0
446	2	0	-67.319999	-74.863565	-1.37
447	1	0	-65.789999	-74.863565	0
448	2	0	-65.789999	-74.863565	1.37
449	1	0	-62.729999	-74.863565	0
450	2	0	-62.729999	-74.863565	-1.37
451	1	0	-61.199999	-74.863565	0
452	2	0	-61.199999	-74.863565	1.37
453	1	0	-58.139999	-74.863565	0
454	2	0	-58.139999	-74.863565	-1.37
455	1	0	-56.609999	-74.863565	0
456	2	0	-56.609999	-74.863565	1.37
457	1	0	-53.549999	-74.863565	0
458	2	0	-53.549999	-74.863565	-1.37
459	1	0	-52.019999	-74.863565	0
460	2	0	-52.019999	-74.863565	1.37
461	1	0	-48.959999	-74.863565	0
462	2	0	-48.959999	-74.863565	-1.37
463	1	0	-47.429999	-74.863565	0
464	2	0	-47.429999	-74.863565	1.37
465	1	0	-44.369999	-74.863565	0
466	2	0	-44.369999	-74.863565	-1.37
467	1	0	-42.839999	-74.863565	0
468	2	0	-42.839999	-74.863565	1.37
469	1	0	-39.779999	-74.863565	0
470	2	0	-39.779999	-74.863565	-1.37
471	1	0	-38.249999	-74.863565	0
472	2	0	-38.249999	-74.863565	1.37
473	1	0	-35.189999	-74.863565	0
474	2	0	-35.189999	-74.863565	-1.37
475	1	0	-33.659999	-74.863565	0
476	2	0	-33.659999	-74.863565	1.37
477	1	0	-30.599999	-74.863565	0
478	2	0	-30.599999	-74.863565	-1.37
479	1	0	-29.069999	-74.863565	0
480	2	0	-29.069999	-74.863565	1.37
481	1	0	-26.01	-74.863565	0
482	2	0	-26.01	-74.863565	-1.37
483	1	0	-24.48	-74.863565	0
484	2	0	-24.48	-74.863565	1.37
485	1	0	-21.42	-74.863565	0
486	2	0	-21.42	-74.863565	-1.37
487	1	0	-19.89	-74.863565	0
488	2	0	-19.89	-74.863565	1.37
489	1	0	-16.83	-74.863565	0
490	2	0	-16.83	-74.863565	-1.37
491	1	0	-15.3	-74.863565	0
492	2	0	-15.3	-74.863565	1.37
493	1	0	-12.24	-74.863565	0
494	2	0	-12.24	-74.863565	-1.37
495	1	0	-10.71	-74.863565	0
496	2	0	-10.71	-74.863565	1.37
497	1	0	-7.65	-74.863565	0
498	2	0	-7.65	-74.863565	-1.37
499	1	0	-6.12	-74.863565	0
500	2	0	-6.12	-74.863565	1.37
501	1	0	-3.06	-74.863565	0
502	2	0	-3.06	-74.863565	-1.37
503	1	0	-1.53	-74.863565	0
504	2	0	-1.53	-74.863565	1.37
505	1	0	1.53	-74.863565	0
506	2	0	1.53	-74.863565	-1.37
507	1	0	3.06	-74.863565	0
508	2	0	3.06	-74.863565	1.37
509	1	0	6.12	-74.863565	0
510	2	0	6.12	-74.863565	-1.37
511	1	0	7.65	-74.863565	0
512	2	0	7.65	-74.863565	1.37
513	1	0	10.71	-74.863565	0
514	2	0	10.71	-74.863565	-1.37
515	1	0	12.24	-74.863565	0
516	2	0	12.24	-74.863565	1.37
517	1	0	15.3	-74.863565	0
518	2	0	15.3	-74.863565	-1.37
519	1	0	16.83	-74.863565	0
520	2	0	16.83	-74.863565	1.37
521	1	0	19.89	-74.863565	0
522	2	0	19.89	-74.863565	-1.37
523	1	0	21.42	-74.863565	0
524	2	0	21.42	-74.863565	1.37
525	1	0	24.48	-74.863565	0
526	2	0	24.48	-74.863565	-1.37
527	1	0	26.01	-74.863565	0
528	2	0	26.01	-74.863565	1.37
529	1	0	29.069999	-74.863565	0
530	2	0	29.069999	-74.863565	-1.37
531	1	0	30.599999	-74.863565	0
532	2	0	30.599999	-74.863565	1.37
533	1	0	33.659999	-74.863565	0
534	2	0	33.659999	-74.863565	-1.37
535	1	0	35.189999	-74.863565	0
536	2	0	35.189999	-74.863565	1.37
537	1	0	38.249999	-74.863565	0
538	2	0	38.249999	-74.863565	-1.37
539	1	0	39.779999	-74.863565	0
540	2	0	39.779999	-74.863565	1.37
541	1	0	42.839999	-74.863565	0
542	2	0	42.839999	-74.863565	-1.37
543	1	0	44.369999	-74.863565	0
544	2	0	44.369999	-74.863565	1.37
545	1	0	47.429999	-74.863565	0
546	2	0	47.429999	-74.863565	-1.37
547	1	0	48.959999	-74.863565	0
548	2	0	48.959999	-74.863565	1.37
549	1	0	52.019999	-74.863565	0
550	2	0	52.019999	-74.863565	-1.37
551	1	0	53.549999	-74.863565	0
552	2	0	53.549999	-74.863565	1.37
553	1	0	56.609999	-74.863565	0
554	2	0	56.609999	-74.863565	-1.37
555	1	0	58.139999	-74.863565	0
556	2	0	58.139999	-74.863565	1.37
557	1	0	61.199999	-74.863565	0
558	2	0	61.199999	-74.863565	-1.37
559	1	0	62.729999	-74.863565	0
560	2	0	62.729999	-74.863565	1.37
561	1	0	65.789999	-74.863565	0
562	2	0	65.789999	-74.863565	-1.37
563	1	0	67.319999	-74.863565	0
564	2	0	67.319999	-74.863565	1.37
565	1	0	70.379999	-74.863565	0
566	2	0	70.379999	-74.863565	-1.37
567	1	0	71.909999	-74.863565	0
568	2	0	71.909999	-74.863565	1.37
569	1	0	74.969999	-74.863565	0
570	2	0	74.969999	-74.863565	-1.37
571	1	0	76.499999	-74.863565	0
572	2	0	76.499999	-74.863565	1.37
573	1	0	79.559999	-74.863565	0
574	2	0	79.559999	-74.863565	-1.37
575	1	0	81.089998	-74.863565	0
576	2	0	81.089998	-74.863565	1.37
577	1	0	-81.854998	-73.538546	0
578	2	0	-81.854998	-73.538546	1.37
579	1	0	-78.794999	-73.538546	0
580	2	0	-78.794999	-73.538546	-1.37
581	1	0	-77.264999	-73.538546	0
582	2	0	-77.264999	-73.538546	1.37
583	1	0	-74.204999	-73.538546	0
584	2	0	-74.204999	-73.538546	-1.37
585	1	0	-72.674999	-73.538546	0
586	2	0	-72.674999	-73.538546	1.37
587	1	0	-69.614999	-73.538546	0
588	2	0	-69.614999	-73.538546	-1.37
589	1	0	-68.084999	-73.538546	0
590	2	0	-68.084999	-73.538546	1.37
591	1	0	-65.024999	-73.538546	0
592	2	0	-65.024999	-73.538546	-1.37
593	1	0	-63.494999	-73.538546	0
594	2	0	-63.494999	-73.538546	1.37
595	1	0	-60.434999	-73.538546	0
596	2	0	-60.434999	-73.538546	-1.37
597	1	0	-58.904999	-73.538546	0
598	2	0	-58.904999	-73.538546	1.37
599	1	0	-55.844999	-73.538546	0
600	2	0	-55.844999	-73.538546	-1.37
601	1	0	-54.314999	-73.538546	0
602	2	0	-54.314999	-73.538546	1.37
603	1	0	-51.254999	-73.538546	0
604	2	0	-51.254999	-73.538546	-1.37
605	1	0	-49.724999	-73.538546	0
606	2	0	-49.724999	-73.538546	1.37
607	1	0	-46.664999	-73.538546	0
608	2	0	-46.664999	-73.538546	-1.37
609	1	0	-45.134999	-73.538546	0
610	2	0	-45.134999	-73.538546	1.37
611	1	0	-42.074999	-73.538546	0
612	2	0	-42.074999	-73.538546	-1.37
613	1	0	-40.544999	-73.538546	0
614	2	0	-40.544999	-73.538546	1.37
615	1	0	-37.484999	-73.538546	0
616	2	0	-37.484999	-73.538546	-1.37
617	1	0	-35.954999	-73.538546	0
618	2	0	-35.954999	-73.538546	1.37
619	1	0	-32.894999	-73.538546	0
620	2	0	-32.894999	-73.538546	-1.37
621	1	0	-31.364999	-73.538546	0
622	2	0	-31.364999	-73.538546	1.37
623	1	0	-28.304999	-73.538546	0
624	2	0	-28.304999	-73.538546	-1.37
625	1	0	-26.774999	-73.538546	0
626	2	0	-26.774999	-73.538546	1.37
627	1	0	-23.715	-73.538546	0
628	2	0	-23.715	-73.538546	-1.37
629	1	0	-22.185	-73.538546	0
630	2	0	-22.185	-73.538546	1.37
631	1	0	-19.125	-73.538546	0
632	2	0	-19.125	-73.538546	-1.37
633	1	0	-17.595	-73.538546	0
634	2	0	-17.595	-73.538546	1.37
635	1	0	-14.535	-73.538546	0
636	2	0	-14.535	-73.538546	-1.37
637	1	0	-13.005	-73.538546	0
638	2	0	-13.005	-73.538546	1.37
639	1	0	-9.945	-73.538546	0
640	2	0	-9.945	-73.538546	-1.37
641	1	0	-8.415	-73.538546	0
642	2	0	-8.415	-73.538546	1.37
643	1	0	-5.355	-73.538546	0
644	2	0	-5.355	-73.538546	-1.37
645	1	0	-3.825	-73.538546	0
646	2	0	-3.825	-73.538546	1.37
647	1	0	-0.765	-73.538546	0
648	2	0	-0.765	-73.538546	-1.37
649	1	0	0.765	-73.538546	0
650	2	0	0.765	-73.538546	1.37
651	1	0	3.825	-73.538546	0
652	2	0	3.825	-73.538546	-1.37
653	1	0	5.355	-73.538546	0
654	2	0	5.355	-73.538546	1.37
655	1	0	8.415	-73.538546	0
656	2	0	8.415	-73.538546	-1.37
657	1	0	9.945	-73.538546	0
658	2	0	9.945	-73.538546	1.37
659	1	0	13.005	-73.538546	0
660	2	0	13.005	-73.538546	-1.37
661	1	0	14.535	-73.538546	0
662	2	0	14.535	-73.538546	1.37
663	1	0	17.595	-73.538546	0
664	2	0	17.595	-73.538546	-1.37
665	1	0	19.125	-73.538546	0
666	2	0	19.125	-73.538546	1.37
667	1	0	22.185	-73.538546	0
668	2	0	22.185	-73.538546	-1.37
669	1	0	23.715	-73.538546	0
670	2	0	23.715	-73.538546	1.37
671	1	0	26.774999	-73.538546	0
672	2	0	26.774999	-73.538546	-1.37
673	1	0	28.304999	-73.538546	0
674	2	0	28.304999	-73.538546	1.37
675	1	0	31.364999	-73.538546	0
676	2	0	31.364999	-73.538546	-1.37
677	1	0	32.894999	-73.538546	0
678	2	0	32.894999	-73.538546	1.37
679	1	0	35.954999	-73.538546	0
680	2	0	35.954999	-73.538546	-1.37
681	1	0	37.484999	-73.538546	0
682	2	0	37.484999	-73.538546	1.37
683	1	0	40.544999	-73.538546	0
684	2	0	40.544999	-73.538546	-1.37
685	1	0	42.074999	-73.538546	0
686	2	0	42.074999	-73.538546	1.37
687	1	0	45.134999	-73.538546	0
688	2	0	45.134999	-73.538546	-1.37
689	1	0	46.664999	-73.538546	0
690	2	0	46.664999	-73.538546	1.37
691	1	0	49.724999	-73.538546	0
692	2	0	49.724999	-73.538546	-1.37
693	1	0	51.254999	-73.538546	0
694	2	0	51.254999	-73.538546	1.37
695	1	0	54.314999	-73.538546	0
696	2	0	54.314999	-73.538546	-1.37
697	1	0	55.844999	-73.538546	0
698	2	0	55.844999	-73.538546	1.37
699	1	0	58.904999	-73.538546	0
700	2	0	58.904999	-73.538546	-1.37
701	1	0	60.434999	-73.538546	0
702	2	0	60.434999	-73.538546	1.37
703	1	0	63.494999	-73.538546	0
704	2	0	63.494999	-73.538546	-1.37
705	1	0	65.024999	-73.538546	0
706	2	0	65.024999	-73.538546	1.37
707	1	0	68.084999	-73.538546	0
708	2	0	68.084999	-73.538546	-1.37
709	1	0	69.614999	-73.538546	0
710	2	0	69.614999	-73.538546	1.37
711	1	0	72.674999	-73.538546	0
712	2	0	72.674999	-73.538546	-1.37
713	1	0	74.204999	-73.538546	0
714	2	0	74.204999	-73.538546	1.37
715	1	0	77.264999	-73.538546	0
716	2	0	77.264999	-73.538546	-1.37
717	1	0	78.794999	-73.538546	0
718	2	0	78.794999	-73.538546	1.37
719	1	0	81.854998	-73.538546	0
720	2	0	81.854998	-73.538546	-1.37
721	1	0	-81.089998	-72.213527	0
722	2	0	-81.089998	-72.213527	-1.37
723	1	0	-79.559999	-72.213527	0
724	2	0	-79.559999	-72.213527	1.37
725	1	0	-76.499999	-72.213527	0
726	2	0	-76.499999	-72.213527	-1.37
727	1	0	-74.969999	-72.213527	0
728	2	0	-74.969999	-72.213527	1.37
729	1	0	-71.909999	-72.213527	0
730	2	0	-71.909999	-72.213527	-1.37
731	1	0	-70.379999	-72.213527	0
732	2	0	-70.379999	-72.213527	1.37
733	1	0	-67.319999	-72.213527	0
734	2	0	-67.319999	-72.213527	-1.37
735	1	0	-65.789999	-72.213527	0
736	2	0	-65.789999	-72.213527	1.37
737	1	0	-62.729999	-72.213527	0
738	2	0	-62.729999	-72.213527	-1.37
739	1	0	-61.199999	-72.213527	0
740	2	0	-61.199999	-72.213527	1.37
741	1	0	-58.139999	-72.213527	0
742	2	0	-58.139999	-72.213527	-1.37
743	1	0	-56.609999	-72.213527	0
744	2	0	-56.609999	-72.213527	1.37
745	1	0	-53.549999	-72.213527	0
746	2	0	-53.549999	-72.213527	-1.37
747	1	0	-52.019999	-72.213527	0
748	2	0	-52.019999	-72.213527	1.37
749	1	0	-48.959999	-72.213527	0
750	2	0	-48.959999	-72.213527	-1.37
751	1	0	-47.429999	-72.213527	0
752	2	0	-47.429999	-72.213527	1.37
753	1	0	-44.369999	-72.213527	0
754	2	0	-44.369999	-72.213527	-1.37
755	1	0	-42.839999	-72.213527	0
756	2	0	-42.839999	-72.213527	1.37
757	1	0	-39.779999	-72.213527	0
758	2	0	-39.779999	-72.213527	-1.37
759	1	0	-38.249999	-72.213527	0
760	2	0	-38.249999	-72.213527	1.37
761	1	0	-35.189999	-72.213527	0
762	2	0	-35.189999	-72.213527	-1.37
763	1	0	-33.659999	-72.213527	0
764	2	0	-33.659999	-72.213527	1.37
765	1	0	-30.599999	-72.213527	0
766	2	0	-30.599999	-72.213527	-1.37
767	1	0	-29.069999	-72.213527	0
768	2	0	-29.069999	-72.213527	1.37
769	1	0	-26.01	-72.213527	0
770	2	0	-26.01	-72.213527	-1.37
771	1	0	-24.48	-72.213527	0
772	2	0	-24.48	-72.213527	1.37
773	1	0	-21.42	-72.213527	0
774	2	0	-21.42	-72.213527	-1.37
775	1	0	-19.89	-72.213527	0
776	2	0	-19.89	-72.213527	1.37
777	1	0	-16.83	-72.213527	0
778	2	0	-16.83	-72.213527	-1.37
779	1	0	-15.3	-72.213527	0
780	2	0	-15.3	-72.213527	1.37
781	1	0	-12.24	-72.213527	0
782	2	0	-12.24	-72.213527	-1.37
783	1	0	-10.71	-72.213527	0
784	2	0	-10.71	-72.213527	1.37
785	1	0	-7.65	-72.213527	0
786	2	0	-7.65	-72.213527	-1.37
787	1	0	-6.12	-72.213527	0
788	2	0	-6.12	-72.213527	1.37
789	1	0	-3.06	-72.213527	0
790	2	0	-3.06	-72.213527	-1.37
791	1	0	-1.53	-72.213527	0
792	2	0	-1.53	-72.213527	1.37
793	1	0	1.53	-72.213527	0
794	2	0	1.53	-72.213527	-1.37
795	1	0	3.06	-72.213527	0
796	2	0	3.06	-72.213527	1.37
797	1	0	6.12	-72.213527	0
798	2	0	6.12	-72.213527	-1.37
799	1	0	7.65	-72.213527	0
800	2	0	7.65	-72.213527	1.37
801	1	0	10.71	-72.213527	0
802	2	0	10.71	-72.213527	-1.37
803	1	0	12.24	-72.213527	0
804	2	0	12.24	-72.213527	1.37
805	1	0	15.3	-72.213527	0
806	2	0	15.3	-72.213527	-1.37
807	1	0	16.83	-72.213527	0
808	2	0	16.83	-72.213527	1.37
809	1	0	19.89	-72.213527	0
810	2	0	19.89	-72.213527	-1.37
811	1	0	21.42	-72.213527	0
812	2	0	21.42	-72.213527	1.37
813	1	0	24.48	-72.213527	0
814	2	0	24.48	-72.213527	-1.37
815	1	0	26.01	-72.213527	0
816	2	0	26.01	-72.213527	1.37
817	1	0	29.069999	-72.213527	0
818	2	0	29.069999	-72.213527	-1.37
819	1	0	30.599999	-72.213527	0
820	2	0	30.599999	-72.213527	1.37
821	1	0	33.659999	-72.213527	0
822	2	0	33.659999	-72.213527	-1.37
823	1	0	35.189999	-72.213527	0
824	2	0	35.189999	-72.213527	1.37
825	1	0	38.249999	-72.213527	0
826	2	0	38.249999	-72.213527	-1.37
827	1	0	39.779999	-72.213527	0
828	2	0	39.779999	-72.213527	1.37
829	1	0	42.839999	-72.213527	0
830	2	0	42.839999	-72.213527	-1.37
831	1	0	44.369999	-72.213527	0
832	2	0	44.369999	-72.213527	1.37
833	1	0	47.429999	-72.213527	0
834	2	0	47.429999	-72.213527	-1.37
835	1	0	48.959999	-72.213527	0
836	2	0	48.959999	-72.213527	1.37
837	1	0	52.019999	-72.213527	0
838	2	0	52.019999	-72.213527	-1.37
839	1	0	53.549999	-72.213527	0
840	2	0	53.549999	-72.213527	1.37
841	1	0	56.609999	-72.213527	0
842	2	0	56.609999	-72.213527	-1.37
843	1	0	58.139999	-72.213527	0
844	2	0	58.139999	-72.213527	1.37
845	1	0	61.199999	-72.213527	0
846	2	0	61.199999	-72.213527	-1.37
847	1	0	62.729999	-72.213527	0
848	2	0	62.729999	-72.213527	1.37
849	1	0	65.789999	-72.213527	0
850	2	0	65.789999	-72.213527	-1.37
851	1	0	67.319999	-72.213527	0
852	2	0	67.319999	-72.213527	1.37
853	1	0	70.379999	-72.213527	0
854	2	0	70.379999	-72.213527	-1.37
855	1	0	71.909999	-72.213527	0
856	2	0	71.909999	-72.213527	1.37
857	1	0	74.969999	-72.213527	0
858	2	0	74.969999	-72.213527	-1.37
859	1	0	76.499999	-72.213527	0
860	2	0	76.499999	-72.213527	1.37
861	1	0	79.559999	-72.213527	0
862	2	0	79.559999	-72.213527	-1.37
863	1	0	81.089998	-72.213527	0
864	2	0	81.089998	-72.213527	1.37
865	1	0	-81.854998	-70.888508	0
866	2	0	-81.854998	-70.888508	1.37
867	1	0	-78.794999	-70.888508	0
868	2	0	-78.794999	-70.888508	-1.37
869	1	0	-77.264999	-70.888508	0
870	2	0	-77.264999	-70.888508	1.37
871	1	0	-74.204999	-70.888508	0
872	2	0	-74.204999	-70.888508	-1.37
873	1	0	-72.674999	-70.888508	0
874	2	0	-72.674999	-70.888508	1.37
875	1	0	-69.614999	-70.888508	0
876	2	0	-69.614999	-70.888508	-1.37
877	1	0	-68.084999	-70.888508	0
878	2	0	-68.084999	-70.888508	1.37
879	1	0	-65.024999	-70.888508	0
880	2	0	-65.024999	-70.888508	-1.37
881	1	0	-63.494999	-70.888508	0
882	2	0	-63.494999	-70.888508	1.37
883	1	0	-60.434999	-70.888508	0
884	2	0	-60.434999	-70.888508	-1.37
885	1	0	-58.904999	-70.888508	0
886	2	0	-58.904999	-70.888508	1.37
887	1	0	-55.844999	-70.888508	0
888	2	0	-55.844999	-70.888508	-1.37
889	1	0	-54.314999	-70.888508	0
890	2	0	-54.314999	-70.888508	1.37
891	1	0	-51.254999	-70.888508	0
892	2	0	-51.254999	-70.888508	-1.37
893	1	0	-49.724999	-70.888508	0
894	2	0	-49.724999	-70.888508	1.37
895	1	0	-46.664999	-70.888508	0
896	2	0	-46.664999	-70.888508	-1.37
897	1	0	-45.134999	-70.888508	0
898	2	0	-45.134999	-70.888508	1.37
899	1	0	-42.074999	-70.888508	0
900	2	0	-42.074999	-70.888508	-1.37
901	1	0	-40.544999	-70.888508	0
902	2	0	-40.544999	-70.888508	1.37
903	1	0	-37.484999	-70.888508	0
904	2	0	-37.484999	-70.888508	-1.37
905	1	0	-35.954999	-70.888508	0
906	2	0	-35.954999	-70.888508	1.37
907	1	0	-32.894999	-70.888508	0
908	2	0	-32.894999	-70.888508	-1.37
909	1	0	-31.364999	-70.888508	0
910	2	0	-31.364999	-70.888508	1.37
911	1	0	-28.304999	-70.888508	0
912	2	0	-28.304999	-70.888508	-1.37
913	1	0	-26.774999	-70.888508	0
914	2	0	-26.774999	-70.888508	1.37
915	1	0	-23.715	-70.888508	0
916	2	0	-23.715	-70.888508	-1.37
917	1	0	-22.185	-70.888508	0
918	2	0	-22.185	-70.888508	1.37
919	1	0	-19.125	-70.888508	0
920	2	0	-19.125	-70.888508	-1.37
921	1	0	-17.595	-70.888508	0
922	2	0	-17.595	-70.888508	1.37
923	1	0	-14.535	-70.888508	0
924	2	0	-14.535	-70.888508	-1.37
925	1	0	-13.005	-70.888508	0
926	2	0	-13.005	-70.888508	1.37
927	1	0	-9.945	-70.888508	0
928	2	0	-9.945	-70.888508	-1.37
929	1	0	-8.415	-70.888508	0
930	2	0	-8.415	-70.888508	1.37
931	1	0	-5.355	-70.888508	0
932	2	0	-5.355	-70.888508	-1.37