LAMMPS description

4200    atoms
3600    bonds
3300    angles
3000    dihedrals

4       atom types
12      bond types
11      angle types
10      dihedral types

-35.0 35.0 xlo xhi
-35.0 35.0 ylo yhi
-35.0 35.0 zlo zhi

Masses

1     4.1350 # HG
2     0.6101 # CM
3     0.6540 # CT
4     1.0000 # CI

Atoms

1 1 1 -1.0000  8.5190 -20.7750 18.1210 # HG
2 1 2  0.0000  7.9450 -20.3870 17.8340 # CM
3 1 2  0.0000  8.0320 -19.8950 17.8200 # CM
4 1 2  0.0000  7.6570 -19.6100 17.6530 # CM
5 1 2  0.0000  7.7880 -19.1280 17.6270 # CM
6 1 2  0.0000  7.3690 -18.8690 17.5420 # CM
7 1 2  0.0000  7.4550 -18.3770 17.5650 # CM
8 1 2  0.0000  7.0340 -18.1170 17.5010 # CM
9 1 2  0.0000  7.1420 -17.6490 17.3610 # CM
10 1 2  0.0000  6.7300 -17.3680 17.3220 # CM
11 1 2  0.0000  6.8490 -16.9150 17.1500 # CM
12 1 2  0.0000  6.4650 -16.6830 16.9290 # CM
13 1 3  0.0000  6.5600 -16.1930 16.9110 # CT
14 2 1 -1.0000 -9.4680  5.2210 14.8150 # HG
15 2 2  0.0000 -8.7410  5.2730 14.6380 # CM
16 2 2  0.0000 -8.5250  4.8270 14.5720 # CM
17 2 2  0.0000 -8.0350  4.8310 14.4750 # CM
18 2 2  0.0000 -7.8590  4.3710 14.3890 # CM
19 2 2  0.0000 -7.3610  4.4060 14.3820 # CM
20 2 2  0.0000 -7.1500  3.9530 14.3540 # CM
21 2 2  0.0000 -6.6520  3.9850 14.3680 # CM
22 2 2  0.0000 -6.4490  3.5700 14.1770 # CM
23 2 2  0.0000 -5.9500  3.5750 14.2130 # CM
24 2 2  0.0000 -5.7600  3.1710 13.9890 # CM
25 2 2  0.0000 -5.2860  3.2340 13.8450 # CM
26 2 3  0.0000 -5.0770  2.7850 13.7730 # CT
27 3 1 -1.0000 -13.5180  3.5030 -2.9670 # HG
28 3 2  0.0000 -13.7410  3.1060 -2.3720 # CM
29 3 2  0.0000 -14.0460  3.3640 -2.0710 # CM
30 3 2  0.0000 -14.1920  3.1300 -1.6540 # CM
31 3 2  0.0000 -14.5170  3.4060 -1.3910 # CM
32 3 2  0.0000 -14.5720  3.1810 -0.9480 # CM
33 3 2  0.0000 -14.8470  3.4610 -0.6390 # CM
34 3 2  0.0000 -14.8860  3.2480 -0.1890 # CM
35 3 2  0.0000 -15.2820  3.4330  0.0540 # CM
36 3 2  0.0000 -15.3150  3.2510  0.5190 # CM
37 3 2  0.0000 -15.7320  3.4180  0.7370 # CM
38 3 2  0.0000 -15.8880  3.1230  1.1090 # CM
39 3 3  0.0000 -16.1980  3.3830  1.4030 # CT
40 4 1 -1.0000 -0.1290 -30.9680 26.4790 # HG
41 4 2  0.0000 -0.5600 -31.4860 26.1490 # CM
42 4 2  0.0000 -0.7390 -31.3350 25.7070 # CM
43 4 2  0.0000 -1.0490 -31.6520 25.4760 # CM
44 4 2  0.0000 -1.1860 -31.4810 25.0260 # CM
45 4 2  0.0000 -1.5550 -31.7780 24.8670 # CM
46 4 2  0.0000 -1.7560 -31.6020 24.4440 # CM
47 4 2  0.0000 -2.1380 -31.8850 24.2930 # CM
48 4 2  0.0000 -2.2230 -31.8120 23.8060 # CM
49 4 2  0.0000 -2.6240 -32.0670 23.6490 # CM
50 4 2  0.0000 -2.6770 -32.0110 23.1550 # CM
51 4 2  0.0000 -2.9370 -32.3820 22.9440 # CM
52 4 3  0.0000 -3.1080 -32.2300 22.5000 # CT
53 5 1 -1.0000 11.4610 33.8840 24.5110 # HG
54 5 2  0.0000 11.9630 33.4980 24.9130 # CM
55 5 2  0.0000 12.4350 33.5990 24.7820 # CM
56 5 2  0.0000 12.7900 33.3380 25.0180 # CM
57 5 2  0.0000 13.2490 33.4840 24.8820 # CM
58 5 2  0.0000 13.5680 33.1490 25.0700 # CM
59 5 2  0.0000 14.0320 33.2330 24.9050 # CM
60 5 2  0.0000 14.3500 32.8870 25.0750 # CM
61 5 2  0.0000 14.8180 33.0600 25.0530 # CM
62 5 2  0.0000 15.1500 32.7120 25.1910 # CM
63 5 2  0.0000 15.6100 32.9070 25.1970 # CM
64 5 2  0.0000 15.9230 32.6590 25.4960 # CM
65 5 3  0.0000 16.3930 32.7700 25.3660 # CT
66 6 1 -1.0000 -4.5200 -30.0620 28.1240 # HG
67 6 2  0.0000 -5.2470 -30.2270 28.0430 # CM
68 6 2  0.0000 -5.4120 -30.5490 28.3880 # CM
69 6 2  0.0000 -5.8880 -30.6950 28.3440 # CM
70 6 2  0.0000 -6.0260 -30.9950 28.7200 # CM
71 6 2  0.0000 -6.4710 -31.1840 28.5960 # CM
72 6 2  0.0000 -6.6140 -31.5330 28.9260 # CM
73 6 2  0.0000 -7.0490 -31.7390 28.7930 # CM
74 6 2  0.0000 -7.2640 -31.9530 29.1910 # CM
75 6 2  0.0000 -7.6870 -32.1900 29.0660 # CM
76 6 2  0.0000 -7.9080 -32.3700 29.4760 # CM
77 6 2  0.0000 -8.3980 -32.4420 29.4170 # CM
78 6 3  0.0000 -8.5600 -32.7580 29.7690 # CT
79 7 1 -1.0000 19.4590 25.3990 -17.9710 # HG
80 7 2  0.0000 19.1430 25.8320 -17.4480 # CM
81 7 2  0.0000 18.9690 25.5700 -17.0590 # CM
82 7 2  0.0000 18.7330 25.8320 -16.7050 # CM
83 7 2  0.0000 18.5970 25.5430 -16.3200 # CM
84 7 2  0.0000 18.2940 25.8180 -16.0330 # CM
85 7 2  0.0000 18.0950 25.5400 -15.6680 # CM
86 7 2  0.0000 17.7750 25.8080 -15.3920 # CM
87 7 2  0.0000 17.7110 25.5900 -14.9470 # CM
88 7 2  0.0000 17.3690 25.8310 -14.6720 # CM
89 7 2  0.0000 17.3390 25.6230 -14.2180 # CM
90 7 2  0.0000 17.1590 25.9360 -13.8730 # CM
91 7 3  0.0000 16.9940 25.6700 -13.4840 # CT
92 8 1 -1.0000 -10.9050 -34.3740 -25.5530 # HG
93 8 2  0.0000 -11.0100 -33.6870 -25.8340 # CM
94 8 2  0.0000 -10.5810 -33.4610 -25.9560 # CM
95 8 2  0.0000 -10.6210 -32.9920 -26.1250 # CM
96 8 2  0.0000 -10.1760 -32.8070 -26.2630 # CM
97 8 2  0.0000 -10.2430 -32.3180 -26.3420 # CM
98 8 2  0.0000 -9.8050 -32.0910 -26.4280 # CM
99 8 2  0.0000 -9.8660 -31.5990 -26.4870 # CM
100 8 2  0.0000 -9.4740 -31.4070 -26.7300 # CM
101 8 2  0.0000 -9.5070 -30.9090 -26.7690 # CM
102 8 2  0.0000 -9.1270 -30.7340 -27.0420 # CM
103 8 2  0.0000 -9.2250 -30.2910 -27.2510 # CM
104 8 3  0.0000 -8.7950 -30.0730 -27.3780 # CT
105 9 1 -1.0000 13.1740 -32.8000 33.2740 # HG
106 9 2  0.0000 12.4340 -32.8820 33.1800 # CM
107 9 2  0.0000 12.2240 -32.4890 32.9530 # CM
108 9 2  0.0000 11.7270 -32.5070 32.8980 # CM
109 9 2  0.0000 11.5550 -32.1120 32.6440 # CM
110 9 2  0.0000 11.0570 -32.1220 32.6840 # CM
111 9 2  0.0000 10.8540 -31.7090 32.4880 # CM
112 9 2  0.0000 10.3580 -31.7060 32.5460 # CM
113 9 2  0.0000 10.1500 -31.3930 32.2150 # CM
114 9 2  0.0000  9.6550 -31.3570 32.2830 # CM
115 9 2  0.0000  9.4570 -31.0690 31.9260 # CM
116 9 2  0.0000  8.9710 -31.1600 31.8510 # CM
117 9 3  0.0000  8.7670 -30.7680 31.6170 # CT
118 10 1 -1.0000  8.6280 33.1820 -10.7210 # HG
119 10 2  0.0000  9.2240 32.7890 -10.4920 # CM
120 10 2  0.0000  9.4230 32.5090 -10.8560 # CM
121 10 2  0.0000  9.8090 32.2190 -10.7250 # CM
122 10 2  0.0000  9.9980 31.9750 -11.1190 # CM
123 10 2  0.0000 10.3190 31.6380 -10.9370 # CM
124 10 2  0.0000 10.4860 31.3370 -11.3000 # CM
125 10 2  0.0000 10.7900 30.9850 -11.1180 # CM
126 10 2  0.0000 11.0760 30.8020 -11.4840 # CM
127 10 2  0.0000 11.3650 30.4260 -11.3220 # CM
128 10 2  0.0000 11.6690 30.2750 -11.6880 # CM
129 10 2  0.0000 12.0790 30.0460 -11.5190 # CM
130 10 3  0.0000 12.2780 29.7740 -11.8880 # CT
131 11 1 -1.0000 -26.3600 -23.8490 27.3190 # HG
132 11 2  0.0000 -26.0320 -24.5210 27.2670 # CM
133 11 2  0.0000 -26.3220 -24.8600 27.0400 # CM
134 11 2  0.0000 -26.1370 -25.3240 27.0120 # CM
135 11 2  0.0000 -26.4400 -25.6290 26.7550 # CM
136 11 2  0.0000 -26.2670 -26.0930 26.8220 # CM
137 11 2  0.0000 -26.5800 -26.4290 26.6250 # CM
138 11 2  0.0000 -26.4200 -26.8950 26.7080 # CM
139 11 2  0.0000 -26.6300 -27.2090 26.3810 # CM
140 11 2  0.0000 -26.5020 -27.6840 26.4730 # CM
141 11 2  0.0000 -26.6910 -27.9820 26.1190 # CM
142 11 2  0.0000 -26.4410 -28.4110 26.0720 # CM
143 11 3  0.0000 -26.7310 -28.7440 25.8380 # CT
144 12 1 -1.0000  9.7960 13.1570 21.1370 # HG
145 12 2  0.0000  9.9010 12.4230 21.0250 # CM
146 12 2  0.0000 10.3450 12.2640 21.1940 # CM
147 12 2  0.0000 10.4510 11.7830 21.1120 # CM
148 12 2  0.0000 10.8890 11.6530 21.3170 # CM
149 12 2  0.0000 10.9990 11.1970 21.1430 # CM
150 12 2  0.0000 11.4580 11.0590 21.2840 # CM
151 12 2  0.0000 11.5790 10.6140 21.0950 # CM
152 12 2  0.0000 11.9490 10.4090 21.3620 # CM
153 12 2  0.0000 12.1020  9.9750 21.1640 # CM
154 12 2  0.0000 12.4470  9.7670 21.4580 # CM
155 12 2  0.0000 12.4820  9.2720 21.3970 # CM
156 12 3  0.0000 12.9230  9.1170 21.5740 # CT
157 13 1 -1.0000 31.7720 25.7400  5.8580 # HG
158 13 2  0.0000 31.2900 26.2440  5.5840 # CM
159 13 2  0.0000 31.5140 26.6670  5.4390 # CM
160 13 2  0.0000 31.2120 27.0300  5.2730 # CM
161 13 2  0.0000 31.4710 27.4260  5.1110 # CM
162 13 2  0.0000 31.1400 27.7930  5.0360 # CM
163 13 2  0.0000 31.3720 28.2230  4.9270 # CM
164 13 2  0.0000 31.0450 28.5950  4.8720 # CM
165 13 2  0.0000 31.2520 28.9670  4.6090 # CM
166 13 2  0.0000 30.9450 29.3600  4.5720 # CM
167 13 2  0.0000 31.1510 29.7090  4.2790 # CM
168 13 2  0.0000 30.8130 30.0150  4.0760 # CM
169 13 3  0.0000 31.0420 30.4330  3.9260 # CT
170 14 1 -1.0000 -8.0340 -0.2300  1.1720 # HG
171 14 2  0.0000 -7.7380 -0.5830  1.7630 # CM
172 14 2  0.0000 -7.6240 -1.0610  1.6650 # CM
173 14 2  0.0000 -7.4450 -1.3270  2.0490 # CM
174 14 2  0.0000 -7.3170 -1.7900  1.9090 # CM
175 14 2  0.0000 -7.2260 -2.0470  2.3280 # CM
176 14 2  0.0000 -7.1500 -2.5310  2.2270 # CM
177 14 2  0.0000 -7.0800 -2.7930  2.6460 # CM
178 14 2  0.0000 -6.8450 -3.2220  2.5410 # CM
179 14 2  0.0000 -6.7960 -3.5090  2.9480 # CM
180 14 2  0.0000 -6.5310 -3.9180  2.8360 # CM
181 14 2  0.0000 -6.3110 -4.1220  3.2350 # CM
182 14 3  0.0000 -6.1920 -4.5960  3.1300 # CT
183 15 1 -1.0000 18.7940 33.1570 -25.3840 # HG
184 15 2  0.0000 19.1390 32.4980 -25.2940 # CM
185 15 2  0.0000 18.8180 32.1180 -25.2420 # CM
186 15 2  0.0000 19.0210 31.6690 -25.1570 # CM
187 15 2  0.0000 18.6730 31.3090 -25.1370 # CM
188 15 2  0.0000 18.9010 30.8980 -24.9680 # CM
189 15 2  0.0000 18.5700 30.5330 -24.8830 # CM
190 15 2  0.0000 18.7920 30.1280 -24.6940 # CM
191 15 2  0.0000 18.5040 29.7260 -24.7660 # CM
192 15 2  0.0000 18.7010 29.3170 -24.5550 # CM
193 15 2  0.0000 18.4200 28.9180 -24.6630 # CM
194 15 2  0.0000 18.6740 28.4890 -24.6320 # CM
195 15 3  0.0000 18.3490 28.1120 -24.5880 # CT
196 16 1 -1.0000 -15.1000 30.3850  2.2020 # HG
197 16 2  0.0000 -14.3910 30.4230  1.9600 # CM
198 16 2  0.0000 -14.2440 30.0040  1.7300 # CM
199 16 2  0.0000 -13.7670 29.9920  1.5780 # CM
200 16 2  0.0000 -13.6620 29.5710  1.3290 # CM
201 16 2  0.0000 -13.1660 29.5590  1.2710 # CM
202 16 2  0.0000 -13.0210 29.1220  1.0750 # CM
203 16 2  0.0000 -12.5240 29.0990  1.0350 # CM
204 16 2  0.0000 -12.3950 28.7530  0.6980 # CM
205 16 2  0.0000 -11.8990 28.6970  0.6700 # CM
206 16 2  0.0000 -11.7840 28.3730  0.3080 # CM
207 16 2  0.0000 -11.3210 28.4340  0.1320 # CM
208 16 3  0.0000 -11.1800 28.0160 -0.1030 # CT
209 17 1 -1.0000 -30.4840 -25.1510 25.9280 # HG
210 17 2  0.0000 -30.4950 -25.3340 26.6550 # CM
211 17 2  0.0000 -30.0490 -25.4830 26.8240 # CM
212 17 2  0.0000 -30.0330 -25.6320 27.3010 # CM
213 17 2  0.0000 -29.5670 -25.7480 27.4430 # CM
214 17 2  0.0000 -29.6040 -25.9700 27.8890 # CM
215 17 2  0.0000 -29.1600 -26.1500 28.0360 # CM
216 17 2  0.0000 -29.1990 -26.3910 28.4710 # CM
217 17 2  0.0000 -28.7500 -26.4190 28.6900 # CM
218 17 2  0.0000 -28.7680 -26.6860 29.1130 # CM
219 17 2  0.0000 -28.3220 -26.6780 29.3380 # CM
220 17 2  0.0000 -28.3500 -26.7670 29.8290 # CM
221 17 3  0.0000 -27.9000 -26.9070 29.9940 # CT
222 18 1 -1.0000 -27.3350 -7.5350 -34.2720 # HG
223 18 2  0.0000 -27.5580 -8.2210 -34.4780 # CM
224 18 2  0.0000 -27.2310 -8.5770 -34.3480 # CM
225 18 2  0.0000 -27.3440 -9.0420 -34.4930 # CM
226 18 2  0.0000 -27.0110 -9.3740 -34.3230 # CM
227 18 2  0.0000 -27.1070 -9.8060 -34.5560 # CM
228 18 2  0.0000 -26.7560 -10.1470 -34.4520 # CM
229 18 2  0.0000 -26.8390 -10.5720 -34.7000 # CM
230 18 2  0.0000 -26.5990 -10.9500 -34.4750 # CM
231 18 2  0.0000 -26.6480 -11.3770 -34.7310 # CM
232 18 2  0.0000 -26.4330 -11.7510 -34.4790 # CM
233 18 2  0.0000 -26.6170 -12.1990 -34.6020 # CM
234 18 3  0.0000 -26.2910 -12.5510 -34.4630 # CT
235 19 1 -1.0000 -0.4070 17.6680 -5.9150 # HG
236 19 2  0.0000  0.0520 18.2510 -5.8110 # CM
237 19 2  0.0000  0.5120 18.1690 -5.9890 # CM
238 19 2  0.0000  0.8460 18.5340 -5.9130 # CM
239 19 2  0.0000  1.2860 18.4300 -6.1280 # CM
240 19 2  0.0000  1.6110 18.7690 -5.9600 # CM
241 19 2  0.0000  2.0760 18.6610 -6.1110 # CM
242 19 2  0.0000  2.4060 18.9870 -5.9270 # CM
243 19 2  0.0000  2.8230 18.9810 -6.2030 # CM
244 19 2  0.0000  3.1750 19.2810 -6.0110 # CM
245 19 2  0.0000  3.5730 19.2910 -6.3140 # CM
246 19 2  0.0000  3.8500 19.7030 -6.2570 # CM
247 19 3  0.0000  4.3050 19.6190 -6.4440 # CT
248 20 1 -1.0000 18.0940  3.2440  7.7860 # HG
249 20 2  0.0000 18.6660  2.7730  7.8980 # CM
250 20 2  0.0000 19.0960  2.9430  7.7080 # CM
251 20 2  0.0000 19.4900  2.6380  7.7490 # CM
252 20 2  0.0000 19.9080  2.8500  7.5720 # CM
253 20 2  0.0000 20.2540  2.4900  7.5510 # CM
254 20 2  0.0000 20.6690  2.6560  7.3260 # CM
255 20 2  0.0000 21.0090  2.2920  7.2850 # CM
256 20 2  0.0000 21.4630  2.4900  7.2190 # CM
257 20 2  0.0000 21.8100  2.1370  7.1460 # CM
258 20 2  0.0000 22.2620  2.3460  7.1150 # CM
259 20 2  0.0000 22.6310  2.0290  7.2270 # CM
260 20 3  0.0000 23.0600  2.2060  7.0420 # CT
261 21 1 -1.0000 14.2400 25.0380 32.2930 # HG
262 21 2  0.0000 14.3570 25.6040 31.8140 # CM
263 21 2  0.0000 13.9370 25.7560 31.5890 # CM
264 21 2  0.0000 13.9890 26.1170 31.2470 # CM
265 21 2  0.0000 13.5470 26.2630 31.0630 # CM
266 21 2  0.0000 13.6450 26.5570 30.6710 # CM
267 21 2  0.0000 13.2240 26.6750 30.4280 # CM
268 21 2  0.0000 13.3210 26.9520 30.0240 # CM
269 21 2  0.0000 12.9100 27.2010 29.8860 # CM
270 21 2  0.0000 12.9840 27.4590 29.4630 # CM
271 21 2  0.0000 12.5780 27.7290 29.3550 # CM
272 21 2  0.0000 12.6770 28.1220 29.0640 # CM
273 21 3  0.0000 12.2540 28.2750 28.8470 # CT
274 22 1 -1.0000 -0.3720 -22.5100 10.7880 # HG
275 22 2  0.0000  0.2670 -22.7140 11.1220 # CM
276 22 2  0.0000  0.5490 -22.3220 11.2550 # CM
277 22 2  0.0000  0.9920 -22.4290 11.4600 # CM
278 22 2  0.0000  1.2330 -22.0150 11.6050 # CM
279 22 2  0.0000  1.6990 -22.1550 11.7230 # CM
280 22 2  0.0000  1.9850 -21.7560 11.8190 # CM
281 22 2  0.0000  2.4560 -21.8910 11.9160 # CM
282 22 2  0.0000  2.6890 -21.5280 12.1680 # CM
283 22 2  0.0000  3.1710 -21.6370 12.2450 # CM
284 22 2  0.0000  3.3830 -21.2820 12.5250 # CM
285 22 2  0.0000  3.7880 -21.4420 12.7690 # CM
286 22 3  0.0000  4.0620 -21.0480 12.9070 # CT
287 23 1 -1.0000 28.7790 18.7360 17.2860 # HG
288 23 2  0.0000 29.2940 19.1580 17.6310 # CM
289 23 2  0.0000 29.4930 18.9320 18.0310 # CM
290 23 2  0.0000 29.8230 19.2000 18.2930 # CM
291 23 2  0.0000 30.0210 18.9340 18.6680 # CM
292 23 2  0.0000 30.2750 19.2560 18.9540 # CM
293 23 2  0.0000 30.4400 19.0320 19.3700 # CM
294 23 2  0.0000 30.6760 19.3560 19.6670 # CM
295 23 2  0.0000 30.9750 19.1100 19.9840 # CM
296 23 2  0.0000 31.1950 19.4210 20.3090 # CM
297 23 2  0.0000 31.5140 19.1670 20.5970 # CM
298 23 2  0.0000 31.8720 19.4560 20.7920 # CM
299 23 3  0.0000 32.0730 19.2230 21.1850 # CT
300 24 1 -1.0000 -30.9720 11.3670 31.0680 # HG
301 24 2  0.0000 -31.2450 11.9220 30.6430 # CM
302 24 2  0.0000 -31.0080 12.3560 30.7170 # CM
303 24 2  0.0000 -31.1840 12.7490 30.4630 # CM
304 24 2  0.0000 -30.9070 13.1580 30.5400 # CM
305 24 2  0.0000 -31.1590 13.5410 30.3420 # CM
306 24 2  0.0000 -30.9370 13.9760 30.4510 # CM
307 24 2  0.0000 -31.1980 14.3620 30.2730 # CM
308 24 2  0.0000 -30.9040 14.7640 30.2340 # CM
309 24 2  0.0000 -31.1610 15.1670 30.0860 # CM
310 24 2  0.0000 -30.8490 15.5520 30.0190 # CM
311 24 2  0.0000 -31.0300 15.8970 29.7060 # CM
312 24 3  0.0000 -30.7850 16.3260 29.7780 # CT
313 25 1 -1.0000 12.7510 -20.4140 -12.4460 # HG
314 25 2  0.0000 12.6780 -20.5810 -13.1730 # CM
315 25 2  0.0000 12.6240 -21.0720 -13.2540 # CM
316 25 2  0.0000 12.5960 -21.2140 -13.7330 # CM
317 25 2  0.0000 12.5150 -21.7060 -13.7750 # CM
318 25 2  0.0000 12.5780 -21.8200 -14.2580 # CM
319 25 2  0.0000 12.5590 -22.3150 -14.3270 # CM
320 25 2  0.0000 12.6430 -22.4340 -14.8040 # CM
321 25 2  0.0000 12.4640 -22.8910 -14.9010 # CM
322 25 2  0.0000 12.5690 -23.0350 -15.3680 # CM
323 25 2  0.0000 12.3550 -23.4770 -15.4610 # CM
324 25 2  0.0000 12.2810 -23.5590 -15.9480 # CM
325 25 3  0.0000 12.2200 -24.0490 -16.0230 # CT
326 26 1 -1.0000 29.1690  3.3770 -0.8320 # HG
327 26 2  0.0000 29.8140  3.0710 -1.0610 # CM
328 26 2  0.0000 29.7920  2.5720 -1.0870 # CM
329 26 2  0.0000 30.2160  2.3390 -1.2150 # CM
330 26 2  0.0000 30.1500  1.8450 -1.2570 # CM
331 26 2  0.0000 30.6060  1.6430 -1.3000 # CM
332 26 2  0.0000 30.5810  1.1440 -1.2880 # CM
333 26 2  0.0000 31.0360  0.9400 -1.3100 # CM
334 26 2  0.0000 31.0030  0.4650 -1.4630 # CM
335 26 2  0.0000 31.4490  0.2390 -1.4600 # CM
336 26 2  0.0000 31.4070 -0.2230 -1.6470 # CM
337 26 2  0.0000 31.8380 -0.3990 -1.8270 # CM
338 26 3  0.0000 31.8090 -0.8970 -1.8580 # CT
339 27 1 -1.0000 31.2220 19.3390 -21.3530 # HG
340 27 2  0.0000 30.9210 18.6550 -21.3050 # CM
341 27 2  0.0000 31.2310 18.2950 -21.4620 # CM
342 27 2  0.0000 31.0480 17.8300 -21.4630 # CM
343 27 2  0.0000 31.3930 17.4950 -21.5980 # CM
344 27 2  0.0000 31.1530 17.0620 -21.6690 # CM
345 27 2  0.0000 31.4610 16.7170 -21.8610 # CM
346 27 2  0.0000 31.2190 16.2910 -21.9520 # CM
347 27 2  0.0000 31.5450 15.9120 -21.9800 # CM
348 27 2  0.0000 31.3190 15.4830 -22.1020 # CM
349 27 2  0.0000 31.6500 15.1090 -22.0940 # CM
350 27 2  0.0000 31.4360 14.6620 -22.0270 # CM
351 27 3  0.0000 31.7530 14.3060 -22.1770 # CT
352 28 1 -1.0000 -7.8460 29.3350 -4.9140 # HG
353 28 2  0.0000 -7.2360 29.7580 -5.0180 # CM
354 28 2  0.0000 -6.8540 29.6210 -4.7260 # CM
355 28 2  0.0000 -6.4410 29.9000 -4.7580 # CM
356 28 2  0.0000 -6.0710 29.7190 -4.4730 # CM
357 28 2  0.0000 -5.7120 30.0660 -4.4650 # CM
358 28 2  0.0000 -5.3510 29.9410 -4.1430 # CM
359 28 2  0.0000 -5.0010 30.2960 -4.1180 # CM
360 28 2  0.0000 -4.5760 30.1050 -3.9360 # CM
361 28 2  0.0000 -4.2260 30.4570 -3.8760 # CM
362 28 2  0.0000 -3.7980 30.2470 -3.7260 # CM
363 28 2  0.0000 -3.3970 30.5250 -3.8340 # CM
364 28 3  0.0000 -3.0160 30.3790 -3.5450 # CT
365 29 1 -1.0000 -9.4900 -9.1250 -16.2900 # HG
366 29 2  0.0000 -8.9220 -9.2470 -16.7640 # CM
367 29 2  0.0000 -9.0400 -9.5670 -17.1300 # CM
368 29 2  0.0000 -8.6720 -9.6840 -17.4470 # CM
369 29 2  0.0000 -8.8330 -9.9840 -17.8140 # CM
370 29 2  0.0000 -8.4270 -10.1450 -18.0560 # CM
371 29 2  0.0000 -8.5480 -10.4930 -18.3950 # CM
372 29 2  0.0000 -8.1410 -10.6710 -18.6240 # CM
373 29 2  0.0000 -8.2690 -10.8820 -19.0590 # CM
374 29 2  0.0000 -7.8750 -11.0910 -19.2850 # CM
375 29 2  0.0000 -8.0100 -11.2680 -19.7320 # CM
376 29 2  0.0000 -7.6260 -11.3100 -20.0490 # CM
377 29 3  0.0000 -7.7520 -11.6250 -20.4160 # CT
378 30 1 -1.0000 21.8090 20.0230 31.1610 # HG
379 30 2  0.0000 21.4830 20.2140 31.8090 # CM
380 30 2  0.0000 21.3670 20.7000 31.8300 # CM
381 30 2  0.0000 21.1690 20.8590 32.2610 # CM
382 30 2  0.0000 21.0400 21.3420 32.2380 # CM
383 30 2  0.0000 20.9290 21.4840 32.7040 # CM
384 30 2  0.0000 20.8490 21.9770 32.7260 # CM
385 30 2  0.0000 20.7580 22.1250 33.1940 # CM
386 30 2  0.0000 20.5220 22.5650 33.1920 # CM
387 30 2  0.0000 20.4520 22.7400 33.6550 # CM
388 30 2  0.0000 20.1860 23.1620 33.6400 # CM
389 30 2  0.0000 19.9470 23.2570 34.0670 # CM
390 30 3  0.0000 19.8250 23.7420 34.0810 # CT
391 31 1 -1.0000 -19.5940 -20.9190  3.0420 # HG
392 31 2  0.0000 -20.1100 -20.3750  3.0180 # CM
393 31 2  0.0000 -20.5550 -20.5380  2.8570 # CM
394 31 2  0.0000 -20.9110 -20.1910  2.8090 # CM
395 31 2  0.0000 -21.3490 -20.3920  2.6720 # CM
396 31 2  0.0000 -21.6510 -20.0130  2.5530 # CM
397 31 2  0.0000 -22.0800 -20.1810  2.3580 # CM
398 31 2  0.0000 -22.3750 -19.8030  2.2190 # CM
399 31 2  0.0000 -22.8480 -19.9600  2.1840 # CM
400 31 2  0.0000 -23.1510 -19.5990  2.0160 # CM
401 31 2  0.0000 -23.6240 -19.7590  2.0180 # CM
402 31 2  0.0000 -23.9550 -19.3860  2.0380 # CM
403 31 3  0.0000 -24.3990 -19.5550  1.8830 # CT
404 32 1 -1.0000  8.9790 10.0570  7.9020 # HG
405 32 2  0.0000  9.5790  9.7410  7.5820 # CM
406 32 2  0.0000  9.6970  9.3000  7.7860 # CM
407 32 2  0.0000 10.1070  9.0780  7.6070 # CM
408 32 2  0.0000 10.1790  8.6280  7.8150 # CM
409 32 2  0.0000 10.6360  8.4780  7.6770 # CM
410 32 2  0.0000 10.7630  8.0560  7.9130 # CM
411 32 2  0.0000 11.2270  7.9150  7.7940 # CM
412 32 2  0.0000 11.2880  7.4280  7.8900 # CM
413 32 2  0.0000 11.7580  7.2810  7.8040 # CM
414 32 2  0.0000 11.7960  6.7870  7.8720 # CM
415 32 2  0.0000 12.1800  6.5860  7.6240 # CM
416 32 3  0.0000 12.2900  6.1420  7.8270 # CT
417 33 1 -1.0000 17.6460 -1.2550 -20.2560 # HG
418 33 2  0.0000 17.7700 -1.5490 -20.9350 # CM
419 33 2  0.0000 17.8180 -1.2000 -21.2900 # CM
420 33 2  0.0000 17.8790 -1.3680 -21.7570 # CM
421 33 2  0.0000 17.9510 -0.9940 -22.0810 # CM
422 33 2  0.0000 17.9220 -1.1920 -22.5380 # CM
423 33 2  0.0000 17.9330 -0.8350 -22.8880 # CM
424 33 2  0.0000 17.8830 -1.0290 -23.3460 # CM
425 33 2  0.0000 18.0580 -0.7080 -23.6870 # CM
426 33 2  0.0000 17.9860 -0.8770 -24.1530 # CM
427 33 2  0.0000 18.1940 -0.5640 -24.4810 # CM
428 33 2  0.0000 18.3040 -0.7830 -24.9160 # CM
429 33 3  0.0000 18.3580 -0.4300 -25.2660 # CT
430 34 1 -1.0000 22.4520 -27.9790 -19.8930 # HG
431 34 2  0.0000 23.1550 -27.8000 -19.7020 # CM
432 34 2  0.0000 23.4590 -27.7650 -20.0980 # CM
433 34 2  0.0000 23.9400 -27.6690 -19.9980 # CM
434 34 2  0.0000 24.2080 -27.6140 -20.4170 # CM
435 34 2  0.0000 24.6880 -27.6060 -20.2790 # CM
436 34 2  0.0000 24.9880 -27.6080 -20.6790 # CM
437 34 2  0.0000 25.4690 -27.6210 -20.5450 # CM
438 34 2  0.0000 25.7560 -27.4580 -20.9200 # CM
439 34 2  0.0000 26.2430 -27.4940 -20.8100 # CM
440 34 2  0.0000 26.5160 -27.2980 -21.1790 # CM
441 34 2  0.0000 26.9690 -27.1510 -21.0290 # CM
442 34 3  0.0000 27.2670 -27.1100 -21.4280 # CT
443 35 1 -1.0000 -21.7320 -7.7100 -28.0790 # HG
444 35 2  0.0000 -21.5610 -6.9800 -28.1070 # CM
445 35 2  0.0000 -21.0690 -6.8960 -28.0710 # CM
446 35 2  0.0000 -20.9290 -6.4160 -28.0640 # CM
447 35 2  0.0000 -20.4300 -6.3700 -28.0540 # CM
448 35 2  0.0000 -20.3330 -5.8880 -27.9620 # CM
449 35 2  0.0000 -19.8430 -5.8160 -27.8900 # CM
450 35 2  0.0000 -19.7450 -5.3400 -27.7770 # CM
451 35 2  0.0000 -19.2650 -5.2380 -27.8690 # CM
452 35 2  0.0000 -19.1460 -4.7720 -27.7310 # CM
453 35 2  0.0000 -18.6730 -4.6730 -27.8600 # CM
454 35 2  0.0000 -18.5830 -4.1840 -27.9090 # CM
455 35 3  0.0000 -18.0910 -4.1050 -27.8790 # CT
456 36 1 -1.0000  9.4810 -29.0890 -32.6680 # HG
457 36 2  0.0000  9.0550 -28.9030 -32.0790 # CM
458 36 2  0.0000  9.1530 -28.4440 -31.9070 # CM
459 36 2  0.0000  8.8990 -28.3030 -31.5000 # CM
460 36 2  0.0000  9.0020 -27.8300 -31.3720 # CM
461 36 2  0.0000  8.8000 -27.7560 -30.9210 # CM
462 36 2  0.0000  8.9320 -27.3100 -30.7380 # CM
463 36 2  0.0000  8.7480 -27.2420 -30.2780 # CM
464 36 2  0.0000  8.7370 -26.7540 -30.1700 # CM
465 36 2  0.0000  8.5830 -26.6740 -29.7000 # CM
466 36 2  0.0000  8.5450 -26.1830 -29.6170 # CM
467 36 2  0.0000  8.2300 -26.0730 -29.2450 # CM
468 36 3  0.0000  8.3270 -25.6110 -29.0810 # CT
469 37 1 -1.0000 15.5970 22.5170 -30.4500 # HG
470 37 2  0.0000 15.1520 23.0740 -30.2180 # CM
471 37 2  0.0000 15.4030 23.4960 -30.1260 # CM
472 37 2  0.0000 15.1340 23.8780 -29.9480 # CM
473 37 2  0.0000 15.4110 24.2900 -29.8930 # CM
474 37 2  0.0000 15.1330 24.6170 -29.6370 # CM
475 37 2  0.0000 15.4010 25.0220 -29.5150 # CM
476 37 2  0.0000 15.1320 25.3410 -29.2420 # CM
477 37 2  0.0000 15.3330 25.7980 -29.2650 # CM
478 37 2  0.0000 15.0910 26.1220 -28.9700 # CM
479 37 2  0.0000 15.2810 26.5800 -29.0280 # CM
480 37 2  0.0000 14.9600 26.9410 -28.9030 # CM
481 37 3  0.0000 15.2150 27.3630 -28.8180 # CT
482 38 1 -1.0000 33.6820 -10.8500 -8.3900 # HG
483 38 2  0.0000 33.1490 -11.1760 -8.8050 # CM
484 38 2  0.0000 33.0730 -11.6540 -8.6790 # CM
485 38 2  0.0000 32.7380 -11.9030 -8.9550 # CM
486 38 2  0.0000 32.6680 -12.3680 -8.7850 # CM
487 38 2  0.0000 32.3980 -12.6080 -9.1300 # CM
488 38 2  0.0000 32.3560 -13.0940 -9.0180 # CM
489 38 2  0.0000 32.1050 -13.3400 -9.3720 # CM
490 38 2  0.0000 31.9240 -13.7680 -9.1870 # CM
491 38 2  0.0000 31.6960 -14.0390 -9.5400 # CM
492 38 2  0.0000 31.4910 -14.4470 -9.3350 # CM
493 38 2  0.0000 31.1140 -14.6320 -9.6060 # CM
494 38 3  0.0000 31.0360 -15.1070 -9.4710 # CT
495 39 1 -1.0000  6.8690 -9.3550 -17.5090 # HG
496 39 2  0.0000  7.0150 -9.5150 -18.2270 # CM
497 39 2  0.0000  7.1800 -9.9830 -18.2910 # CM
498 39 2  0.0000  7.3070 -10.1090 -18.7570 # CM
499 39 2  0.0000  7.4410 -10.5900 -18.7890 # CM
500 39 2  0.0000  7.6400 -10.6540 -19.2430 # CM
501 39 2  0.0000  7.8360 -11.1120 -19.2880 # CM
502 39 2  0.0000  8.0540 -11.1720 -19.7340 # CM
503 39 2  0.0000  8.0960 -11.6590 -19.8390 # CM
504 39 2  0.0000  8.3410 -11.7340 -20.2690 # CM
505 39 2  0.0000  8.3460 -12.2220 -20.3780 # CM
506 39 2  0.0000  8.4090 -12.3110 -20.8650 # CM
507 39 3  0.0000  8.5670 -12.7820 -20.9250 # CT
508 40 1 -1.0000 -21.1810  4.2870 17.5290 # HG
509 40 2  0.0000 -20.8610  4.4620 18.1840 # CM
510 40 2  0.0000 -20.6860  4.9300 18.1950 # CM
511 40 2  0.0000 -20.4470  5.0670 18.6120 # CM
512 40 2  0.0000 -20.3100  5.5480 18.5980 # CM
513 40 2  0.0000 -20.0060  5.6210 18.9870 # CM
514 40 2  0.0000 -19.8050  6.0790 18.9720 # CM
515 40 2  0.0000 -19.4840  6.1480 19.3480 # CM
516 40 2  0.0000 -19.4170  6.6370 19.4280 # CM
517 40 2  0.0000 -19.0740  6.7210 19.7820 # CM
518 40 2  0.0000 -19.0420  7.2110 19.8750 # CM
519 40 2  0.0000 -18.8600  7.3110 20.3290 # CM
520 40 3  0.0000 -18.6930  7.7820 20.3370 # CT
521 41 1 -1.0000 -18.2790 -16.1240 30.8390 # HG
522 41 2  0.0000 -18.6040 -15.7620 31.4100 # CM
523 41 2  0.0000 -19.0860 -15.6610 31.3250 # CM
524 41 2  0.0000 -19.3220 -15.4000 31.6800 # CM
525 41 2  0.0000 -19.8080 -15.3410 31.5750 # CM
526 41 2  0.0000 -19.9860 -15.0090 31.9020 # CM
527 41 2  0.0000 -20.4580 -14.8840 31.7900 # CM
528 41 2  0.0000 -20.6310 -14.5360 32.1030 # CM
529 41 2  0.0000 -21.1310 -14.5370 32.0980 # CM
530 41 2  0.0000 -21.3190 -14.1720 32.3850 # CM
531 41 2  0.0000 -21.8180 -14.2050 32.3970 # CM
532 41 2  0.0000 -22.0170 -13.9900 32.8010 # CM
533 41 3  0.0000 -22.5000 -13.8980 32.7140 # CT
534 42 1 -1.0000  1.3230 13.6250 -5.1740 # HG
535 42 2  0.0000  2.0180 13.5660 -4.8970 # CM
536 42 2  0.0000  2.2140 14.0090 -4.7730 # CM
537 42 2  0.0000  2.6860 14.0010 -4.6060 # CM
538 42 2  0.0000  2.8400 14.4560 -4.4660 # CM
539 42 2  0.0000  3.3330 14.4230 -4.3890 # CM
540 42 2  0.0000  3.5290 14.8750 -4.3020 # CM
541 42 2  0.0000  4.0250 14.8480 -4.2460 # CM
542 42 2  0.0000  4.1910 15.2510 -4.0010 # CM
543 42 2  0.0000  4.6900 15.2520 -3.9640 # CM
544 42 2  0.0000  4.8390 15.6420 -3.6890 # CM
545 42 2  0.0000  5.2890 15.5730 -3.4830 # CM
546 42 3  0.0000  5.4780 16.0170 -3.3530 # CT
547 43 1 -1.0000  3.2190 11.4660 -5.7300 # HG
548 43 2  0.0000  2.8470 11.2350 -6.3390 # CM
549 43 2  0.0000  2.5450 11.5880 -6.5250 # CM
550 43 2  0.0000  2.2670 11.4530 -6.9180 # CM
551 43 2  0.0000  1.9980 11.8370 -7.0950 # CM
552 43 2  0.0000  1.6760 11.6460 -7.4250 # CM
553 43 2  0.0000  1.3530 11.9950 -7.5810 # CM
554 43 2  0.0000  1.0160 11.8020 -7.8950 # CM
555 43 2  0.0000  0.8100 12.1660 -8.1690 # CM
556 43 2  0.0000  0.4490 11.9910 -8.4670 # CM
557 43 2  0.0000  0.2750 12.3580 -8.7580 # CM
558 43 2  0.0000  0.0620 12.1900 -9.1770 # CM
559 43 3  0.0000 -0.2330 12.5480 -9.3630 # CT
560 44 1 -1.0000 20.2710 16.5490 -21.3160 # HG
561 44 2  0.0000 19.9240 17.2090 -21.3920 # CM
562 44 2  0.0000 19.4680 17.1650 -21.5940 # CM
563 44 2  0.0000 19.2220 17.5920 -21.6770 # CM
564 44 2  0.0000 18.7610 17.5090 -21.8530 # CM
565 44 2  0.0000 18.5830 17.9520 -22.0020 # CM
566 44 2  0.0000 18.1440 17.8970 -22.2360 # CM
567 44 2  0.0000 17.9730 18.3350 -22.4050 # CM
568 44 2  0.0000 17.4800 18.3080 -22.4820 # CM
569 44 2  0.0000 17.3010 18.7310 -22.6810 # CM
570 44 2  0.0000 16.8040 18.7020 -22.7210 # CM
571 44 2  0.0000 16.5840 19.1500 -22.7360 # CM
572 44 3  0.0000 16.1260 19.1000 -22.9300 # CT
573 45 1 -1.0000 -2.3430 -17.3740 -23.0650 # HG
574 45 2  0.0000 -2.6620 -18.0140 -22.8390 # CM
575 45 2  0.0000 -2.3330 -18.3870 -22.7900 # CM
576 45 2  0.0000 -2.5230 -18.8320 -22.6630 # CM
577 45 2  0.0000 -2.1640 -19.1740 -22.5960 # CM
578 45 2  0.0000 -2.3930 -19.6160 -22.5560 # CM
579 45 2  0.0000 -2.0590 -19.9890 -22.5440 # CM
580 45 2  0.0000 -2.2860 -20.4330 -22.5250 # CM
581 45 2  0.0000 -1.9700 -20.7790 -22.3490 # CM
582 45 2  0.0000 -2.1740 -21.2350 -22.3540 # CM
583 45 2  0.0000 -1.8610 -21.5640 -22.1450 # CM
584 45 2  0.0000 -2.0930 -21.9690 -21.9680 # CM
585 45 3  0.0000 -1.7600 -22.3370 -21.9140 # CT
586 46 1 -1.0000 24.4550  5.3630 -9.1820 # HG
587 46 2  0.0000 23.7530  5.2820 -8.9300 # CM
588 46 2  0.0000 23.4510  5.0700 -9.2680 # CM
589 46 2  0.0000 22.9710  5.0250 -9.1350 # CM
590 46 2  0.0000 22.7040  4.7850 -9.4840 # CM
591 46 2  0.0000 22.2240  4.8350 -9.3560 # CM
592 46 2  0.0000 21.9250  4.6540 -9.7140 # CM
593 46 2  0.0000 21.4440  4.7220 -9.5990 # CM
594 46 2  0.0000 21.1600  4.4050 -9.8610 # CM
595 46 2  0.0000 20.6720  4.4830 -9.7780 # CM
596 46 2  0.0000 20.4020  4.1390 -10.0200 # CM
597 46 2  0.0000 19.9500  4.0700 -9.8190 # CM
598 46 3  0.0000 19.6530  3.8520 -10.1570 # CT
599 47 1 -1.0000 -33.6610 -24.3180 -18.5060 # HG
600 47 2  0.0000 -33.9420 -23.6280 -18.5950 # CM
601 47 2  0.0000 -33.7350 -23.3840 -18.9790 # CM
602 47 2  0.0000 -33.8880 -22.9130 -19.0480 # CM
603 47 2  0.0000 -33.6810 -22.7090 -19.4560 # CM
604 47 2  0.0000 -33.7880 -22.2210 -19.4420 # CM
605 47 2  0.0000 -33.5480 -21.9760 -19.8060 # CM
606 47 2  0.0000 -33.6370 -21.4850 -19.7820 # CM
607 47 2  0.0000 -33.5420 -21.2730 -20.2250 # CM
608 47 2  0.0000 -33.5970 -20.7750 -20.2060 # CM
609 47 2  0.0000 -33.5320 -20.5800 -20.6620 # CM
610 47 2  0.0000 -33.7550 -20.1370 -20.7170 # CM
611 47 3  0.0000 -33.5500 -19.9000 -21.1060 # CT
612 48 1 -1.0000 23.4460 -8.6790 22.9010 # HG
613 48 2  0.0000 23.8580 -8.3940 22.3430 # CM
614 48 2  0.0000 23.9210 -8.7160 21.9650 # CM
615 48 2  0.0000 24.2110 -8.5600 21.5890 # CM
616 48 2  0.0000 24.2310 -8.8960 21.2190 # CM
617 48 2  0.0000 24.5910 -8.7450 20.9070 # CM
618 48 2  0.0000 24.6760 -9.0880 20.5530 # CM
619 48 2  0.0000 25.0500 -8.9490 20.2530 # CM
620 48 2  0.0000 25.0220 -9.1970 19.8200 # CM
621 48 2  0.0000 25.4080 -9.0900 19.5210 # CM
622 48 2  0.0000 25.3500 -9.3190 19.0800 # CM
623 48 2  0.0000 25.6030 -9.0960 18.7110 # CM
624 48 3  0.0000 25.6570 -9.4190 18.3340 # CT
625 49 1 -1.0000 34.6230  2.6960 -21.7750 # HG
626 49 2  0.0000 34.1220  2.7040 -21.2170 # CM
627 49 2  0.0000 33.6550  2.6260 -21.3760 # CM
628 49 2  0.0000 33.2970  2.6490 -21.0280 # CM
629 49 2  0.0000 32.8470  2.5400 -21.2180 # CM
630 49 2  0.0000 32.5110  2.6560 -20.8660 # CM
631 49 2  0.0000 32.0450  2.6110 -21.0430 # CM
632 49 2  0.0000 31.7080  2.7470 -20.7010 # CM
633 49 2  0.0000 31.2630  2.5490 -20.8130 # CM
634 49 2  0.0000 30.9080  2.7020 -20.4940 # CM
635 49 2  0.0000 30.4770  2.4720 -20.5970 # CM
636 49 2  0.0000 30.1670  2.4540 -20.2050 # CM