LAMMPS data file via write_data, version 24 Apr 2013, timestep = 0

32000 atoms
1 atom types

-49.1972 49.1972 xlo xhi
-49.1972 49.1972 ylo yhi
-49.1972 49.1972 zlo zhi

Masses

1 18.015

Atoms

15528 1 -39.0868 -41.7021 -46.7359 -512 -512 -512
52 1 -31.2812 -46.5899 -48.7536 -512 -512 -512
92 1 -37.8688 -38.2481 -45.9743 -512 -512 -512
9 1 -42.7511 -42.2771 -44.9734 -512 -512 -512
8326 1 -44.0416 -48.7257 -42.9278 -512 -512 -512
7642 1 -47.2476 -46.8529 -47.9382 -512 -512 -512
10 1 -39.1698 -43.2427 -43.8496 -512 -512 -512
8288 1 -47.5724 -47.0512 -42.4644 -512 -512 -512
7650 1 -34.9181 -45.9367 -45.6581 -512 -512 -512
15970 1 -40.3099 -44.2964 -45.9111 -512 -512 -512
407 1 -33.2897 -40.5309 -37.8231 -512 -512 -512
19 1 -33.6095 -38.1597 -44.6269 -512 -512 -512
47 1 -27.5222 -46.3382 -48.4733 -512 -512 -512
7607 1 -42.793 -44.0485 -47.5124 -512 -512 -512
448 1 -44.8161 -46.4363 -37.4545 -512 -512 -512
412 1 -37.6179 -47.1397 -43.3703 -512 -512 -512
7644 1 -44.2477 -44.3145 -44.1815 -512 -512 -512
402 1 -45.0774 -41.3876 -46.2588 -512 -512 -512
88 1 -33.5523 -43.5371 -43.6678 -512 -512 -512
15566 1 -32.4962 -48.5638 -43.705 -512 -512 -512
7625 1 -24.7267 -42.496 -49.0477 -512 -512 -512
7683 1 -49.0545 -43.4057 -48.3703 -512 -512 -512
7687 1 -29.2094 -48.0476 -42.784 -512 -512 -512
414 1 -27.6628 -45.2957 -42.9563 -512 -512 -512
922 1 -46.0161 -39.5013 -37.4632 -512 -512 -512
7 1 -40.1864 -46.9249 -38.1627 -512 -512 -512
422 1 -27.7492 -42.4972 -46.2872 -512 -512 -512
470 1 -25.9972 -40.9067 -44.7788 -512 -512 -512
7655 1 -40.5447 -42.1282 -49.0855 -512 -512 -512
842 1 -42.7148 -43.3001 -40.4852 -512 -512 -512
104 1 -27.7394 -41.4116 -48.8147 -512 -512 -512
58 1 -36.109 -40.2827 -45.0317 -512 -512 -512
7648 1 -40.8112 -39.6727 -46.3491 -512 -512 -512
9168 1 -40.64 -44.3658 -38.5659 -512 -512 -512
9176 1 -36.5412 -42.6447 -36.9054 -512 -512 -512
7248 1 -29.579 -43.2072 -44.1187 -512 -512 -512
87 1 -32.3928 -41.8022 -47.8738 -512 -512 -512
569 1 -28.94 -40.1694 -43.5073 -512 -512 -512
62 1 -32.0548 -40.7012 -44.1312 -512 -512 -512
862 1 -25.4372 -38.2022 -44.2432 -512 -512 -512
1369 1 -42.7811 -40.0747 -37.1189 -512 -512 -512
155 1 -26.3996 -39.4019 -41.7013 -512 -512 -512
133 1 -30.0542 -40.6368 -46.6523 -512 -512 -512
7247 1 -41.5521 -46.6278 -48.3254 -512 -512 -512
446 1 -46.4631 -40.8619 -43.2245 -512 -512 -512
858 1 -25.4762 -39.7098 -38.8174 -512 -512 -512
7699 1 -32.2053 -46.5791 -46.1499 -512 -512 -512
810 1 -35.7413 -43.1139 -45.8815 -512 -512 -512
53 1 -34.027 -45.1318 -41.1156 -512 -512 -512
9581 1 -27.0961 -46.3557 -40.3851 -512 -512 -512
8378 1 -26.8483 -45.0847 -46.0216 -512 -512 -512
9126 1 -46.7383 -47.657 -38.8024 -512 -512 -512
925 1 -37.5076 -37.691 -48.7753 -512 -512 -512
42 1 -48.0115 -42.4782 -45.9896 -512 -512 -512
805 1 -46.6285 -39.0031 -45.6894 -512 -512 -512
15965 1 -45.5444 -43.3477 -40.5276 -512 -512 -512
489 1 -43.5407 -40.6541 -42.0444 -512 -512 -512
445 1 -46.9384 -45.7354 -40.3945 -512 -512 -512
1285 1 -42.6445 -45.8446 -42.2833 -512 -512 -512
55 1 -30.2937 -37.6957 -45.0159 -512 -512 -512
488 1 -36.7103 -44.3021 -43.3096 -512 -512 -512
850 1 -36.8949 -44.8525 -40.1788 -512 -512 -512
85 1 -48.7259 -39.2171 -47.6719 -512 -512 -512
453 1 -31.5942 -42.6299 -37.3623 -512 -512 -512
91 1 -29.0633 -41.7503 -38.2513 -512 -512 -512
2 1 -46.6286 -43.6164 -43.5317 -512 -512 -512
493 1 -28.2205 -43.2282 -40.3153 -512 -512 -512
889 1 -34.0344 -43.9725 -38.1693 -512 -512 -512
105 1 -25.3995 -37.2741 -47.9502 -512 -512 -512
525 1 -39.8536 -38.4223 -37.1012 -512 -512 -512
526 1 -43.4813 -38.7864 -44.7133 -512 -512 -512
127 1 -43.8872 -38.1388 -40.545 -512 -512 -512
565 1 -39.9341 -38.6761 -44.1984 -512 -512 -512
527 1 -40.6861 -40.8431 -42.8745 -512 -512 -512
129 1 -36.926 -43.358 -48.4908 -512 -512 -512
49 1 -36.1101 -39.9227 -42.1132 -512 -512 -512
929 1 -31.8008 -43.6467 -45.6303 -512 -512 -512
890 1 -30.5684 -41.5686 -41.5717 -512 -512 -512
16 1 -31.597 -39.5884 -39.7904 -512 -512 -512
415 1 -43.2619 -42.4861 -38.1062 -512 -512 -512
7212 1 -35.1189 -48.8593 -45.9999 -512 -512 -512
130 1 -28.709 -37.8559 -41.3152 -512 -512 -512
15526 1 -46.7159 -47.3263 -45.2124 -512 -512 -512
7251 1 -39.0542 -45.9477 -49.1116 -512 -512 -512
8778 1 -26.1765 -42.3507 -42.4782 -512 -512 -512
94 1 -34.7624 -37.2899 -47.23 -512 -512 -512
845 1 -42.777 -47.337 -39.5136 -512 -512 -512
8245 1 -41.8492 -48.833 -46.4333 -512 -512 -512
406 1 -37.9776 -47.4734 -40.6161 -512 -512 -512
9173 1 -31.3457 -46.1105 -42.7275 -512 -512 -512
1209 1 -34.2202 -48.5803 -39.1152 -512 -512 -512
846 1 -34.6182 -47.7326 -41.7672 -512 -512 -512
893 1 -34.3358 -37.615 -42.0825 -512 -512 -512
8376 1 -25.5327 -48.4249 -41.0398 -512 -512 -512
570 1 -38.6032 -37.62 -41.5337 -512 -512 -512
815 1 -25.3066 -44.2249 -38.7067 -512 -512 -512
1287 1 -39.2001 -40.3544 -40.4656 -512 -512 -512
849 1 -35.4967 -38.0557 -38.7089 -512 -512 -512
8770 1 -29.2401 -47.458 -45.7613 -512 -512 -512
7611 1 -37.5004 -48.6417 -47.6926 -512 -512 -512
1251 1 -38.4094 -42.9291 -39.1794 -512 -512 -512
501 1 -26.4634 -42.0893 -37.1018 -512 -512 -512
7690 1 -35.8476 -46.1323 -48.5442 -512 -512 -512
816 1 -33.9461 -41.8577 -41.1064 -512 -512 -512
442 1 -48.3983 -39.1409 -41.8417 -512 -512 -512
7645 1 -44.1656 -46.9523 -45.4014 -512 -512 -512
818 1 -30.5205 -37.0766 -37.0763 -512 -512 -512
8340 1 -28.5025 -47.2435 -38.2277 -512 -512 -512
884 1 -37.7838 -40.1328 -37.9527 -512 -512 -512
859 1 -31.5672 -45.7799 -39.6256 -512 -512 -512
15563 1 -39.2099 -47.0642 -45.8389 -512 -512 -512
967 1 -46.506 -41.9777 -38.187 -512 -512 -512
48 1 -41.1914 -38.8688 -39.343 -512 -512 -512
896 1 -28.8759 -38.8527 -38.5782 -512 -512 -512
83 1 -47.2669 -37.6966 -38.8552 -512 -512 -512
96 1 -30.9681 -37.2258 -48.1439 -512 -512 -512
7741 1 -28.959 -38.712 -48.399 -512 -512 -512
9170 1 -31.2355 -48.4731 -39.047 -512 -512 -512
418 1 -25.0598 -46.9932 -37.1542 -512 -512 -512
7283 1 -41.6865 -39.3661 -49.1355 -512 -512 -512
7286 1 -35.8242 -39.9517 -49.0146 -512 -512 -512
1207 1 -43.42 -47.3019 -34.066 -512 -512 -512
491 1 -32.6537 -38.7151 -35.6959 -512 -512 -512
1212 1 -43.2119 -44.7435 -34.5447 -512 -512 -512
1336 1 -43.8614 -37.4397 -25.127 -512 -512 -512
452 1 -37.1787 -38.264 -34.7719 -512 -512 -512
17634 1 -48.809 -40.2404 -27.7241 -512 -512 -504
10773 1 -34.5843 -45.7409 -26.5943 -512 -512 -512
1243 1 -32.1619 -46.3367 -36.6206 -512 -512 -512
9174 1 -30.2506 -46.5284 -34.658 -512 -512 -512
1701 1 -29.959 -44.9248 -32.157 -512 -512 -512
1725 1 -48.6576 -41.4238 -25.2967 -512 -512 -512
809 1 -35.2071 -46.3034 -36.8413 -512 -512 -512
1254 1 -25.1329 -46.4476 -30.7871 -512 -512 -512
9973 1 -30.8023 -48.5311 -33.1659 -512 -512 -512
10782 1 -25.6149 -47.1507 -27.1161 -512 -512 -512
1329 1 -40.4238 -41.2008 -35.3668 -512 -512 -512
1293 1 -30.6509 -38.072 -33.4128 -512 -512 -512
9134 1 -38.1721 -47.2896 -36.7119 -512 -512 -512
416 1 -33.4545 -44.1952 -34.6404 -512 -512 -512
854 1 -37.7477 -40.6367 -34.3959 -512 -512 -512
1253 1 -36.5953 -44.653 -32.7657 -512 -512 -512
1296 1 -28.4911 -42.768 -30.6638 -512 -512 -512
1660 1 -34.1935 -46.3573 -32.4977 -512 -512 -512
892 1 -29.4903 -40.7322 -33.1286 -512 -512 -512
1248 1 -48.736 -45.6347 -26.7984 -512 -512 -512
812 1 -41.592 -48.6874 -36.2577 -512 -512 -512
17677 1 -48.2149 -45.6012 -32.532 -512 -512 -504
1654 1 -32.4151 -37.5839 -29.9239 -512 -512 -512
1242 1 -48.3886 -40.5036 -32.171 -512 -512 -512
888 1 -43.6872 -37.9624 -35.1483 -512 -512 -512
2883 1 -46.0095 -45.684 -25.8273 -512 -512 -512
1204 1 -48.7497 -48.3732 -29.1995 -512 -512 -512
2413 1 -40.0263 -44.3967 -25.0154 -512 -512 -512
456 1 -35.4924 -42.5169 -34.1696 -512 -512 -512
410 1 -34.8893 -36.9326 -36.1871 -512 -512 -512
945 1 -26.7061 -40.223 -33.4606 -512 -512 -512
1332 1 -36.9818 -37.4353 -32.2501 -512 -512 -512
1723 1 -46.0036 -37.0464 -26.9374 -512 -512 -512
16878 1 -47.4971 -42.1565 -34.9243 -512 -512 -504
1283 1 -44.688 -43.8758 -36.5537 -512 -512 -512
9966 1 -43.0466 -43.9927 -31.7248 -512 -512 -512
1650 1 -46.9717 -44.7977 -34.8813 -512 -512 -512
1365 1 -47.2489 -39.2507 -34.7373 -512 -512 -512
2503 1 -31.4866 -38.3348 -25.3437 -512 -512 -512
1249 1 -41.0544 -45.55 -31.1002 -512 -512 -512
1649 1 -41.7915 -48.0152 -30.723 -512 -512 -512
9974 1 -38.3167 -46.8566 -31.4633 -512 -512 -512
1220 1 -34.2317 -45.466 -29.3803 -512 -512 -512
9579 1 -35.2382 -47.8769 -34.4885 -512 -512 -512
9978 1 -31.9185 -47.3428 -30.312 -512 -512 -512
2087 1 -37.3486 -49.0134 -32.0273 -512 -512 -512
9138 1 -29.6779 -46.2895 -29.0681 -512 -512 -512
1601 1 -40.7514 -44.018 -36.0611 -512 -512 -512
1208 1 -45.0229 -38.7861 -32.5468 -512 -512 -512
881 1 -43.6312 -41.1393 -31.6788 -512 -512 -512
887 1 -37.9621 -44.9186 -35.5767 -512 -512 -512
487 1 -37.7543 -40.9567 -31.5604 -512 -512 -512
1216 1 -39.627 -43.7692 -32.9745 -512 -512 -512
2014 1 -37.0817 -45.4079 -29.0115 -512 -512 -512
814 1 -33.4459 -43.2423 -29.3283 -512 -512 -512
1259 1 -31.8771 -42.6984 -31.4793 -512 -512 -512
1301 1 -29.4086 -43.378 -28.0308 -512 -512 -512
1335 1 -25.6579 -42.4338 -32.0801 -512 -512 -512
417 1 -30.9676 -42.5729 -34.9185 -512 -512 -512
1265 1 -27.7877 -47.3185 -31.8661 -512 -512 -512
2058 1 -35.4313 -37.391 -25.0405 -512 -512 -512
17318 1 -46.9081 -38.5956 -30.5919 -512 -512 -504
1290 1 -41.2482 -40.9449 -32.4628 -512 -512 -512
1284 1 -45.5265 -39.1115 -28.5855 -512 -512 -512
1255 1 -39.6408 -38.8654 -31.5483 -512 -512 -512
856 1 -33.324 -40.8127 -33.9667 -512 -512 -512
1645 1 -40.836 -39.6357 -28.8744 -512 -512 -512
1260 1 -35.3946 -39.6842 -31.8382 -512 -512 -512
1215 1 -34.658 -40.7131 -29.1474 -512 -512 -512
1256 1 -27.3092 -37.5455 -32.4076 -512 -512 -512
1657 1 -31.9352 -39.8038 -31.5135 -512 -512 -512
853 1 -25.2654 -43.8795 -28.5595 -512 -512 -512
1624 1 -32.5513 -48.0269 -26.5945 -512 -512 -512
9573 1 -28.007 -46.4249 -35.5344 -512 -512 -512
10378 1 -36.1045 -48.3226 -25.8566 -512 -512 -512
2859 1 -25.4363 -37.4328 -28.4303 -512 -512 -512
2043 1 -45.208 -45.3483 -31.1991 -512 -512 -512
1610 1 -48.2172 -44.8194 -29.657 -512 -512 -512
1247 1 -42.6309 -47.5193 -28.2433 -512 -512 -512
1698 1 -32.1028 -40.2168 -27.6918 -512 -512 -512
1322 1 -43.2684 -40.0535 -25.938 -512 -512 -512
2012 1 -33.9069 -40.6161 -25.622 -512 -512 -512
1612 1 -44.6206 -47.9377 -31.5167 -512 -512 -512
1655 1 -40.3473 -47.0784 -26.6101 -512 -512 -512
1605 1 -46.6297 -47.0974 -28.8602 -512 -512 -512
10374 1 -37.7236 -47.7624 -27.8799 -512 -512 -512
2015 1 -30.6973 -45.7511 -24.7081 -512 -512 -512
2020 1 -29.5736 -48.0216 -27.094 -512 -512 -512
2486 1 -44.2502 -45.1553 -27.8511 -512 -512 -512
9562 1 -45.9242 -47.8818 -35.2129 -512 -512 -512
2016 1 -29.0592 -38.8775 -27.0018 -512 -512 -512
848 1 -39.6766 -38.0159 -26.9883 -512 -512 -512
459 1 -26.326 -38.359 -35.8794 -512 -512 -512
1656 1 -35.1431 -37.2371 -29.8101 -512 -512 -512
18438 1 -45.8606 -43.1897 -29.0478 -512 -512 -504
18114 1 -42.4526 -43.2974 -27.3314 -512 -512 -504
852 1 -43.5845 -41.1271 -28.9997 -512 -512 -512
1250 1 -36.9199 -41.6181 -27.446 -512 -512 -512
9976 1 -37.4008 -43.9792 -26.2878 -512 -512 -512
1693 1 -39.2306 -42.0484 -28.891 -512 -512 -512
1614 1 -32.1959 -43.353 -26.8685 -512 -512 -512
2450 1 -28.8283 -39.3807 -30.3037 -512 -512 -512
1299 1 -26.8903 -40.788 -28.4314 -512 -512 -512
1664 1 -27.118 -44.6593 -26.4923 -512 -512 -512
841 1 -48.7144 -48.4968 -34.8851 -512 -512 -512
2459 1 -28.2953 -41.2978 -25.9347 -512 -512 -512
813 1 -41.2837 -42.0255 -25.0549 -512 -512 -512
1685 1 -45.8411 -41.1065 -26.5919 -512 -512 -512
1252 1 -39.9664 -44.666 -28.9742 -512 -512 -512
10780 1 -25.6862 -48.8269 -29.4806 -512 -512 -512
2056 1 -37.0221 -38.3036 -27.4174 -512 -512 -512
8694 1 -26.2675 -48.5838 -33.9645 -512 -512 -512
1294 1 -26.8948 -43.986 -34.9977 -512 -512 -512
1681 1 -42.664 -37.4705 -29.307 -512 -512 -512
2047 1 -39.9444 -39.4814 -24.6718 -512 -512 -512
2052 1 -37.0173 -39.8779 -24.7589 -512 -512 -512
2088 1 -46.6513 -43.4811 -24.6175 -512 -512 -512
2893 1 -30.5704 -45.6228 -20.9262 -512 -512 -512
2402 1 -45.8575 -48.8732 -20.6479 -512 -512 -512
10372 1 -42.3987 -45.7895 -21.0991 -512 -512 -512
2536 1 -25.2217 -38.1467 -24.5936 -512 -512 -512
2406 1 -35.9353 -42.7803 -13.7551 -512 -512 -512
2493 1 -35.3825 -39.2939 -17.8542 -512 -512 -512
2814 1 -32.9346 -45.6743 -22.9901 -512 -512 -512
2458 1 -32.8229 -39.6193 -19.5894 -512 -512 -512
11582 1 -25.7465 -46.7064 -12.7513 -512 -512 -512
27198 1 -44.4613 -42.6656 -18.291 -512 -512 -504
2004 1 -45.1011 -42.746 -22.456 -512 -512 -512
2492 1 -34.6312 -48.6097 -19.3974 -512 -512 -512
18118 1 -44.9276 -38.9691 -23.0502 -512 -512 -504
1646 1 -42.9154 -41.279 -22.6433 -512 -512 -512
10744 1 -34.7744 -48.1595 -21.9335 -512 -512 -512
2445 1 -38.7094 -41.0899 -22.1838 -512 -512 -512
2452 1 -38.3601 -37.5856 -15.9196 -512 -512 -512
2048 1 -38.9554 -45.5921 -22.4033 -512 -512 -512
2412 1 -41.195 -40.0541 -20.6062 -512 -512 -512
2861 1 -27.384 -48.991 -23.6821 -512 -512 -512
2809 1 -32.1088 -42.9186 -16.3072 -512 -512 -512
2055 1 -32.0578 -42.1689 -23.9234 -512 -512 -512
2462 1 -25.5116 -45.0856 -23.203 -512 -512 -512
2455 1 -24.7261 -39.5666 -20.5779 -512 -512 -512
10371 1 -28.7845 -48.6119 -16.815 -512 -512 -512
2017 1 -30.758 -48.5022 -23.928 -512 -512 -512
3250 1 -24.7643 -40.4671 -12.4504 -512 -512 -512
2044 1 -48.8473 -45.0299 -23.0941 -512 -512 -512
18959 1 -48.2414 -40.0205 -15.6878 -512 -512 -504
18160 1 -47.7247 -39.5419 -23.4557 -512 -512 -504
1604 1 -46.5765 -46.8191 -22.3565 -512 -512 -512
10740 1 -29.1155 -47.6405 -21.2968 -512 -512 -512
10366 1 -41.8069 -46.8575 -23.3465 -512 -512 -512
2489 1 -36.6537 -40.8008 -20.3681 -512 -512 -512
2444 1 -45.6747 -40.1499 -13.2764 -512 -512 -512
2534 1 -29.7508 -42.6073 -19.8146 -512 -512 -512
18919 1 -47.9896 -37.2747 -14.8275 -512 -512 -504
10764 1 -47.2042 -44.2918 -19.0551 -512 -512 -512
3218 1 -24.6852 -42.8973 -14.8889 -512 -512 -512
11163 1 -46.0412 -45.6263 -16.9715 -512 -512 -512
26398 1 -47.7581 -46.7478 -14.8929 -512 -512 -504
2854 1 -34.272 -39.9205 -13.0211 -512 -512 -512
2805 1 -37.5688 -47.5534 -18.8275 -512 -512 -512
2408 1 -31.5306 -48.9306 -14.9922 -512 -512 -512
3341 1 -29.4761 -40.9296 -13.2592 -512 -512 -512
10765 1 -45.0813 -47.4682 -18.3346 -512 -512 -512
2817 1 -37.1409 -43.0725 -18.3311 -512 -512 -512
1687 1 -36.0224 -37.5305 -21.4995 -512 -512 -512
2811 1 -30.4841 -46.3351 -17.9261 -512 -512 -512
2855 1 -33.0592 -46.668 -17.2455 -512 -512 -512
10730 1 -29.0564 -43.625 -23.0027 -512 -512 -512
2057 1 -30.4416 -38.4966 -22.8836 -512 -512 -512
2941 1 -28.5439 -37.231 -21.0232 -512 -512 -512
18116 1 -48.0528 -40.526 -21.0792 -512 -512 -504
18834 1 -45.1779 -45.1393 -20.6766 -512 -512 -504
18440 1 -45.6666 -40.918 -19.9241 -512 -512 -504
18838 1 -42.2685 -44.2434 -14.4008 -512 -512 -504
2845 1 -41.8858 -42.3258 -19.3425 -512 -512 -512
2008 1 -40.7967 -43.4822 -21.6775 -512 -512 -512
2488 1 -42.5337 -47.6665 -17.5387 -512 -512 -512
1372 1 -41.9435 -37.1663 -17.3818 -512 -512 -512
2441 1 -36.6789 -44.9037 -20.2899 -512 -512 -512
2416 1 -34.3122 -42.5624 -21.7585 -512 -512 -512
2451 1 -33.8664 -45.4808 -20.0647 -512 -512 -512
2853 1 -31.6718 -40.4623 -15.0733 -512 -512 -512
2849 1 -32.6321 -42.6243 -19.1583 -512 -512 -512
2858 1 -25.2965 -42.5726 -21.6074 -512 -512 -512
3618 1 -26.5194 -39.1926 -14.141 -512 -512 -512
3381 1 -25.5275 -38.5348 -16.8025 -512 -512 -512
2904 1 -27.4018 -41.8941 -14.9505 -512 -512 -512
2808 1 -31.5231 -46.2769 -14.1217 -512 -512 -512
18479 1 -46.7373 -42.375 -14.3246 -512 -512 -504
2171 1 -46.2003 -38.1103 -17.9307 -512 -512 -512
2130 1 -44.9935 -40.4679 -16.664 -512 -512 -512
1683 1 -44.2824 -38.6645 -20.0489 -512 -512 -512
1727 1 -42.3294 -39.7572 -15.747 -512 -512 -512
2446 1 -40.5924 -37.2007 -22.8109 -512 -512 -512
2532 1 -40.0803 -39.6829 -17.6284 -512 -512 -512
2049 1 -41.5657 -47.3529 -14.6507 -512 -512 -512
2456 1 -26.1598 -42.076 -18.48 -512 -512 -512
2571 1 -28.8068 -40.9152 -17.5711 -512 -512 -512
2841 1 -37.3029 -43.5197 -22.9132 -512 -512 -512
2415 1 -29.4712 -40.812 -23.296 -512 -512 -512
2050 1 -33.0978 -37.2555 -21.6069 -512 -512 -512
3652 1 -41.973 -38.27 -13.4278 -512 -512 -512
2864 1 -26.5918 -44.1511 -13.0553 -512 -512 -512
2524 1 -48.9078 -39.0423 -18.4895 -512 -512 -512
10772 1 -44.6297 -43.7125 -15.629 -512 -512 -512
2481 1 -44.5504 -46.8817 -24.1087 -512 -512 -512
2447 1 -46.5467 -49.1249 -14.791 -512 -512 -512
2938 1 -30.911 -39.4355 -17.5246 -512 -512 -512
2485 1 -38.7602 -38.1916 -12.6535 -512 -512 -512
2053 1 -39.8558 -46.3847 -17.2913 -512 -512 -512
3212 1 -36.5496 -45.3935 -16.3316 -512 -512 -512
10380 1 -33.9954 -44.912 -15.2365 -512 -512 -512
2495 1 -25.3276 -36.9564 -22.1284 -512 -512 -512
2819 1 -25.4365 -44.5865 -17.2738 -512 -512 -512
2977 1 -35.8653 -38.7623 -15.0044 -512 -512 -512
2806 1 -36.7019 -47.6765 -15.1154 -512 -512 -512
2428 1 -27.2934 -45.915 -15.7518 -512 -512 -512
2803 1 -43.6954 -47.7649 -13.1242 -512 -512 -512
2007 1 -39.814 -43.1283 -17.6461 -512 -512 -512
11164 1 -38.3425 -38.0342 -20.7532 -512 -512 -512
2411 1 -35.5015 -41.994 -16.4862 -512 -512 -512
3741 1 -29.7101 -37.9715 -13.8037 -512 -512 -512
2813 1 -34.902 -48.0817 -12.7905 -512 -512 -512
2453 1 -26.6831 -47.1672 -20.3813 -512 -512 -512
3307 1 -29.6241 -43.9551 -15.0975 -512 -512 -512
2089 1 -34.926 -39.702 -22.7424 -512 -512 -512
2899 1 -27.4147 -44.7112 -19.9842 -512 -512 -512
2011 1 -39.1467 -48.1908 -21.241 -512 -512 -512
3261 1 -26.6008 -48.4044 -14.6147 -512 -512 -512
2887 1 -40.9313 -41.97 -14.7644 -512 -512 -512
2818 1 -39.1389 -44.787 -14.8066 -512 -512 -512
18835 1 -39.1698 -47.8049 -13.2731 -512 -512 -504
2947 1 -27.1012 -38.9396 -19.2137 -512 -512 -512
11172 1 -41.6762 -48.4028 -19.7735 -512 -512 -512
2934 1 -31.3255 -37.0556 -16.1469 -512 -512 -512
3210 1 -38.2632 -43.21 -12.3188 -512 -512 -512
2846 1 -48.106 -38.316 -12.3234 -512 -512 -512
10783 1 -28.0449 -46.2832 -24.5119 -512 -512 -512
2054 1 -34.9371 -43.9065 -24.3432 -512 -512 -512
2847 1 -26.1074 -41.6126 -23.9869 -512 -512 -512
11566 1 -43.0402 -44.2801 -11.6976 -512 -512 -512
4063 1 -28.7457 -46.3125 -4.00091 -512 -512 -512
3207 1 -46.0277 -44.9713 -9.00605 -512 -512 -512
3657 1 -32.2628 -45.5385 -9.73786 -512 -512 -512
3205 1 -46.5264 -46.1697 -5.79002 -512 -512 -512
2843 1 -48.6035 -45.1083 -7.87175 -512 -512 -512
11924 1 -47.4127 -47.5065 -0.276342 -512 -512 -512
18879 1 -48.0002 -40.3017 -8.53649 -512 -512 -504
2932 1 -40.2884 -47.123 -10.5447 -512 -512 -512
2812 1 -35.3283 -43.276 -8.89426 -512 -512 -512
11973 1 -37.7844 -45.7491 -10.762 -512 -512 -512
3285 1 -49.022 -41.7348 -10.7666 -512 -512 -512
4046 1 -41.1885 -41.8503 -0.313357 -512 -512 -512
3665 1 -27.0587 -41.9481 -8.13298 -512 -512 -512
19238 1 -49.0686 -47.1481 -4.8958 -512 -512 -504
4093 1 -35.379 -40.1994 -2.31389 -512 -512 -512
3621 1 -27.161 -49.1757 -1.41313 -512 -512 -512
3699 1 -26.0542 -37.8239 -1.05367 -512 -512 -512
3661 1 -26.27 -42.6241 -0.923299 -512 -512 -512
2003 1 -44.6278 -42.5109 -10.9443 -512 -512 -512
3693 1 -28.6979 -42.9046 -2.55386 -512 -512 -512
3663 1 -33.2581 -48.1264 -0.0867898 -512 -512 -512
3692 1 -43.0662 -38.8483 -2.75035 -512 -512 -512
2491 1 -32.1571 -47.4803 -7.77864 -512 -512 -512
3290 1 -34.3446 -43.9791 -6.1939 -512 -512 -512
2850 1 -32.065 -42.7647 -8.55295 -512 -512 -512
3337 1 -27.4708 -41.5011 -11.1246 -512 -512 -512
2051 1 -33.932 -42.9434 -11.8084 -512 -512 -512
3666 1 -30.3521 -47.4398 -12.0029 -512 -512 -512
3331 1 -44.7445 -38.413 -0.656476 -512 -512 -512
11976 1 -44.042 -40.6255 -4.40175 -512 -512 -512
27998 1 -42.0301 -48.8604 -7.13088 -512 -512 -504
3291 1 -38.2347 -48.1097 -3.83314 -512 -512 -512
27598 1 -44.9883 -48.5892 -5.72106 -512 -512 -504
2890 1 -31.0192 -39.2891 -11.0672 -512 -512 -512
12373 1 -34.5621 -47.3979 -2.54214 -512 -512 -512
3286 1 -40.4792 -37.2867 -8.17334 -512 -512 -512
3329 1 -37.697 -38.0514 -8.632 -512 -512 -512
3208 1 -40.4531 -43.0499 -2.94134 -512 -512 -512
2923 1 -36.5698 -41.4347 -10.6096 -512 -512 -512
3253 1 -30.9699 -42.2096 -10.8899 -512 -512 -512
3209 1 -44.6832 -49.1593 -3.01634 -512 -512 -512
3259 1 -33.8196 -46.4897 -5.34365 -512 -512 -512
4057 1 -28.7709 -38.1033 -10.5284 -512 -512 -512
3662 1 -26.1013 -39.8027 -2.89061 -512 -512 -512
3254 1 -29.2256 -47.0288 -7.19327 -512 -512 -512
4098 1 -32.5274 -38.8194 -1.77785 -512 -512 -512
4135 1 -29.8303 -38.7827 -1.55193 -512 -512 -512
3645 1 -43.7085 -46.8853 -8.62177 -512 -512 -512
2889 1 -40.3732 -43.3724 -7.08915 -512 -512 -512
11966 1 -42.5811 -48.3632 -10.8557 -512 -512 -512
3367 1 -46.4192 -38.3478 -10.0395 -512 -512 -512
4053 1 -31.2527 -45.1041 -5.01055 -512 -512 -512
11575 1 -38.1702 -47.3358 -6.49272 -512 -512 -512
3219 1 -30.177 -40.5364 -5.90937 -512 -512 -512
3224 1 -27.5946 -47.2202 -10.6179 -512 -512 -512
4048 1 -48.896 -42.529 -3.07036 -512 -512 -512
3723 1 -37.8527 -41.853 -2.42617 -512 -512 -512
3242 1 -41.3337 -41.4934 -10.1402 -512 -512 -512
3687 1 -43.6163 -44.402 -2.58993 -512 -512 -512
2881 1 -43.7758 -39.7542 -11.213 -512 -512 -512
3292 1 -45.8596 -42.3014 -3.67474 -512 -512 -512
3611 1 -37.4731 -44.7313 -8.20454 -512 -512 -512
3251 1 -43.3747 -43.6028 -6.88103 -512 -512 -512
4010 1 -45.3966 -42.4506 -7.89561 -512 -512 -512
3255 1 -41.8708 -44.9165 -9.36832 -512 -512 -512
19319 1 -48.2767 -48.8332 -9.7886 -512 -512 -504
4054 1 -38.6806 -41.9559 -9.14904 -512 -512 -512
3697 1 -37.6748 -40.1767 -7.13609 -512 -512 -512
3651 1 -36.8926 -43.3886 -4.34715 -512 -512 -512
4060 1 -27.3262 -45.7334 -8.41757 -512 -512 -512
3653 1 -32.356 -39.5221 -4.47748 -512 -512 -512
4463 1 -28.8698 -40.4415 -3.44677 -512 -512 -512
3619 1 -27.2457 -48.6854 -4.20172 -512 -512 -512
4086 1 -48.9927 -37.673 -7.79212 -512 -512 -512
3300 1 -29.0038 -44.274 -12.2164 -512 -512 -512
19718 1 -47.7515 -42.9899 -6.11688 -512 -512 -504
11162 1 -48.5277 -46.328 -12.2902 -512 -512 -512
3206 1 -39.6472 -48.7452 -8.3218 -512 -512 -512
3283 1 -38.9147 -39.7857 -3.96496 -512 -512 -512
12728 1 -45.7188 -46.2588 -11.6148 -512 -512 -512
3654 1 -41.5124 -39.8691 -7.95582 -512 -512 -512
4055 1 -34.0251 -41.7522 -4.2313 -512 -512 -512
4410 1 -32.1448 -39.6082 -8.25685 -512 -512 -512
3293 1 -36.4274 -38.3037 -4.3952 -512 -512 -512
3707 1 -29.2406 -38.2737 -7.57328 -512 -512 -512
19719 1 -49.1785 -45.2255 -2.87538 -512 -512 -504
2500 1 -34.0623 -37.5244 -5.74255 -512 -512 -512
3298 1 -26.4585 -39.4251 -8.42758 -512 -512 -512
3335 1 -25.5236 -38.7058 -5.66744 -512 -512 -512
11969 1 -44.7603 -47.7129 -0.934618 -512 -512 -512
3246 1 -46.3637 -45.3622 -2.90453 -512 -512 -512
3248 1 -43.5943 -45.7789 -5.31197 -512 -512 -512
11570 1 -41.5009 -47.309 -4.76317 -512 -512 -512
3602 1 -41.8315 -47.2593 -2.20065 -512 -512 -512
11174 1 -34.4135 -40.575 -7.04686 -512 -512 -512
3252 1 -39.3947 -44.9198 -4.94677 -512 -512 -512
11971 1 -30.9725 -43.2079 -0.871409 -512 -512 -512
4418 1 -25.0033 -45.3221 -0.861625 -512 -512 -512
11580 1 -31.2216 -47.9376 -3.2339 -512 -512 -512
3683 1 -40.2322 -38.241 -2.42048 -512 -512 -512
3664 1 -24.6163 -46.5434 -6.16542 -512 -512 -512
20478 1 -47.1342 -39.6238 -2.46226 -512 -512 -504
4018 1 -26.8666 -44.6725 -5.36334 -512 -512 -512
3622 1 -29.484 -42.7565 -6.80302 -512 -512 -512
11970 1 -35.7172 -48.3836 -6.68532 -512 -512 -512
3249 1 -32.8226 -37.5291 -12.1219 -512 -512 -512
4091 1 -40.4172 -45.2435 -1.26516 -512 -512 -512
3211 1 -44.6462 -39.8698 -7.9498 -512 -512 -512
3247 1 -48.7379 -39.647 -5.48213 -512 -512 -512
4009 1 -35.6465 -44.7444 -2.35817 -512 -512 -512
4096 1 -41.3349 -41.0918 -5.46925 -512 -512 -512
4417 1 -32.9556 -44.2619 -2.878 -512 -512 -512
2820 1 -35.4941 -47.1092 -9.63155 -512 -512 -512
12763 1 -37.8447 -46.1884 -1.66381 -512 -512 -512
4100 1 -29.7235 -36.9939 -3.72745 -512 -512 -512
2483 1 -47.1238 -43.495 -11.9467 -512 -512 -512
4081 1 -45.8366 -38.5351 -5.15075 -512 -512 -512
2092 1 -36.6147 -38.7308 -10.8628 -512 -512 -512
3264 1 -27.894 -45.676 -1.40073 -512 -512 -512
12766 1 -40.1923 -39.3999 -0.236741 -512 -512 -512
10766 1 -40.0383 -40.6083 -12.0713 -512 -512 -512
3257 1 -33.664 -45.869 -11.7883 -512 -512 -512
4006 1 -44.4911 -44.512 2.94761 -512 -512 -512
4450 1 -40.6791 -45.1954 1.44275 -512 -512 -512
3643 1 -43.679 -47.4318 5.9622 -512 -512 -512
4899 1 -37.7496 -40.7401 11.6124 -512 -512 -512
4406 1 -42.4604 -41.5821 4.50106 -512 -512 -512
11963 1 -39.7878 -47.6494 2.22901 -512 -512 -512
3216 1 -35.0382 -44.4242 0.221763 -512 -512 -512
4894 1 -28.9792 -38.2308 5.32854 -512 -512 -512
4807 1 -47.4374 -45.3082 9.27641 -512 -512 -512
4487 1 -45.6283 -40.6863 10.4689 -512 -512 -512
4014 1 -32.6407 -44.0562 1.6558 -512 -512 -512
4095 1 -41.0886 -37.9718 1.85734 -512 -512 -512
12382 1 -29.0098 -44.2705 7.55496 -512 -512 -512
5281 1 -47.3997 -47.8432 10.2947 -512 -512 -512
5257 1 -29.6764 -43.796 4.38792 -512 -512 -512
4850 1 -34.1604 -44.3252 11.8596 -512 -512 -512
12786 1 -27.5452 -42.6347 1.96394 -512 -512 -512
4449 1 -37.7411 -47.9237 0.493716 -512 -512 -512
4016 1 -32.3466 -40.7477 0.325499 -512 -512 -512
13139 1 -26.8592 -46.1069 8.97322 -512 -512 -512
4124 1 -47.5871 -38.788 7.63615 -512 -512 -512
4456 1 -44.811 -41.2764 2.81432 -512 -512 -512
4929 1 -39.6864 -44.5253 11.4271 -512 -512 -512
4811 1 -38.8901 -49.0262 10.1463 -512 -512 -512
4049 1 -35.2312 -41.4806 0.0877149 -512 -512 -512
4415 1 -29.9853 -40.6717 3.8524 -512 -512 -512
4453 1 -26.9083 -38.3223 3.98454 -512 -512 -512
5330 1 -31.5637 -38.1198 11.9809 -512 -512 -512
4414 1 -27.0167 -43.6185 4.89811 -512 -512 -512
11536 1 -25.237 -48.7048 1.00381 -512 -512 -512
13180 1 -32.7157 -47.5505 3.37588 -512 -512 -512
5250 1 -34.0096 -43.3281 9.2778 -512 -512 -512
4024 1 -29.099 -44.4974 1.01864 -512 -512 -512
4099 1 -27.8861 -37.9961 1.08191 -512 -512 -512
13500 1 -31.4 -47.3808 9.57111 -512 -512 -512
12776 1 -34.8593 -46.9225 11.1324 -512 -512 -512
4089 1 -49.1469 -40.2526 3.12211 -512 -512 -512
4893 1 -33.4346 -39.2357 9.07631 -512 -512 -512
4860 1 -25.2 -42.4023 11.3491 -512 -512 -512
3656 1 -36.4956 -39.3514 2.46123 -512 -512 -512
4094 1 -29.5981 -40.3635 1.29998 -512 -512 -512
4136 1 -32.8519 -37.0406 4.0199 -512 -512 -512
4050 1 -40.4789 -39.6712 3.71095 -512 -512 -512
13140 1 -26.0542 -47.7125 4.12986 -512 -512 -512
4528 1 -44.0911 -37.0868 5.09505 -512 -512 -512
4083 1 -48.2289 -40.2841 10.9353 -512 -512 -512
4488 1 -41.1165 -48.1937 6.50567 -512 -512 -512
20438 1 -41.1076 -45.7592 8.05187 -512 -512 -504
4052 1 -38.8002 -47.4619 5.26863 -512 -512 -512
4886 1 -44.3351 -37.9097 10.14 -512 -512 -512
4019 1 -28.7878 -47.9643 0.798532 -512 -512 -512
3615 1 -35.0076 -42.2689 3.27191 -512 -512 -512
4044 1 -43.578 -45.8986 11.3147 -512 -512 -512
5221 1 -33.0753 -45.1405 6.60471 -512 -512 -512
13134 1 -28.0422 -47.3733 6.19607 -512 -512 -512
12344 1 -25.1797 -45.1722 5.71495 -512 -512 -512
4409 1 -48.8444 -43.4872 3.74273 -512 -512 -512
4521 1 -48.7194 -37.8039 10.8381 -512 -512 -512
3648 1 -43.2325 -41.0538 6.75958 -512 -512 -512
4848 1 -37.5288 -48.6519 7.56177 -512 -512 -512
13170 1 -36.3352 -47.6647 4.2247 -512 -512 -512
5242 1 -39.8786 -42.4082 2.2759 -512 -512 -512
4407 1 -39.0951 -44.5007 4.08483 -512 -512 -512
4446 1 -36.8327 -40.9966 6.42459 -512 -512 -512
4452 1 -36.6899 -43.5069 4.84949 -512 -512 -512
4496 1 -34.4482 -39.8975 4.76097 -512 -512 -512
4454 1 -32.2764 -42.492 4.9916 -512 -512 -512
12784 1 -28.8028 -41.647 6.96386 -512 -512 -512
4051 1 -25.4445 -41.3212 6.09949 -512 -512 -512
20119 1 -47.5802 -41.2478 0.84445 -512 -512 -504
11974 1 -31.4098 -46.8767 1.29387 -512 -512 -512
21279 1 -47.5964 -48.3885 2.34347 -512 -512 -504
3650 1 -46.6823 -39.5491 3.46487 -512 -512 -512
4442 1 -45.3896 -39.5457 5.93915 -512 -512 -512
4131 1 -37.9145 -39.0663 4.69256 -512 -512 -512
5282 1 -41.3037 -38.0498 5.58338 -512 -512 -512
12725 1 -30.7055 -46.4541 5.61317 -512 -512 -512
4130 1 -34.4979 -37.9006 6.53107 -512 -512 -512
4404 1 -46.7911 -45.3632 3.17011 -512 -512 -512
4891 1 -30.0776 -40.283 8.842 -512 -512 -512
4898 1 -36.8141 -45.5634 1.97216 -512 -512 -512
4498 1 -26.8176 -36.9884 8.43226 -512 -512 -512
3245 1 -49.1197 -43.5228 1.19158 -512 -512 -512
4966 1 -42.4459 -39.2189 11.5909 -512 -512 -512
20919 1 -46.0684 -47.4647 6.9796 -512 -512 -504
4846 1 -47.9018 -47.2852 4.99365 -512 -512 -512
12724 1 -46.9421 -44.6678 0.0224333 -512 -512 -512
4443 1 -41.1535 -47.2757 10.6933 -512 -512 -512
13966 1 -38.4882 -44.7168 8.74922 -512 -512 -512
4975 1 -29.8387 -42.5388 10.6284 -512 -512 -512
3649 1 -43.6308 -45.1452 0.2815 -512 -512 -512
5286 1 -42.3568 -42.9267 9.19849 -512 -512 -512
13173 1 -36.019 -44.5735 7.54613 -512 -512 -512
3736 1 -37.641 -37.4019 1.3394 -512 -512 -512
4813 1 -35.1507 -47.1272 8.33105 -512 -512 -512
20839 1 -40.9777 -43.5652 5.92109 -512 -512 -504
4413 1 -29.3246 -46.2069 11.2669 -512 -512 -512
4459 1 -24.8658 -48.6796 6.73286 -512 -512 -512
4504 1 -25.5637 -43.8884 8.65134 -512 -512 -512
4444 1 -44.0484 -45.2299 8.47988 -512 -512 -512
5698 1 -27.1505 -45.1639 11.9275 -512 -512 -512
4940 1 -28.6388 -38.5791 11.1914 -512 -512 -512
4494 1 -26.0122 -39.4584 10.978 -512 -512 -512
4008 1 -43.3419 -44.8736 5.13882 -512 -512 -512
5254 1 -41.5901 -39.7736 8.12556 -512 -512 -512
4805 1 -45.1436 -42.7108 7.97984 -512 -512 -512
4845 1 -35.7037 -41.285 9.2548 -512 -512 -512
4847 1 -39.7776 -42.0083 8.71794 -512 -512 -512
4812 1 -38.2986 -39.3967 8.7757 -512 -512 -512
4455 1 -32.3911 -41.4844 7.63993 -512 -512 -512
13178 1 -34.015 -45.447 4.10876 -512 -512 -512
4457 1 -33.8356 -38.2214 1.49641 -512 -512 -512
4458 1 -31.2468 -44.518 9.24498 -512 -512 -512
12774 1 -35.4759 -49.1605 1.68228 -512 -512 -512
4883 1 -39.635 -37.9803 11.0597 -512 -512 -512
13494 1 -25.3334 -48.1319 10.0393 -512 -512 -512
4097 1 -26.015 -40.2647 1.51992 -512 -512 -512
13578 1 -32.6356 -48.1738 11.7332 -512 -512 -512
5293 1 -37.2113 -37.1095 6.75085 -512 -512 -512
4895 1 -29.3247 -37.4298 8.09544 -512 -512 -512
4084 1 -48.3573 -42.1532 8.29899 -512 -512 -512
3642 1 -43.9505 -37.6898 2.20895 -512 -512 -512
4802 1 -40.5021 -41.8969 11.9382 -512 -512 -512
4490 1 -36.0931 -38.0852 10.537 -512 -512 -512
4467 1 -24.9234 -38.9441 8.05429 -512 -512 -512
4451 1 -37.8916 -40.8033 0.611404 -512 -512 -512