LAMMPS data file from restart file: timestep = 0, procs = 1

256 atoms

1 atom types

0.0000000000000000e+00 2.1024909948000001e+01 xlo xhi
0.0000000000000000e+00 2.1024909948000001e+01 ylo yhi
0.0000000000000000e+00 2.1024909948000001e+01 zlo zhi

Masses

1 39.95

Pair Coeffs

1 0.238 3.405

Atoms

1 1 1.3140568717500001e+00 1.3140568717500001e+00 1.3140568717500001e+00 0 0 0
2 1 3.9421706152500002e+00 3.9421706152500002e+00 1.3140568717500001e+00 0 0 0
3 1 3.9421706152500002e+00 1.3140568717500001e+00 3.9421706152500002e+00 0 0 0
4 1 1.3140568717500001e+00 3.9421706152500002e+00 3.9421706152500002e+00 0 0 0
5 1 6.5702843587500004e+00 1.3140568717500001e+00 1.3140568717500001e+00 0 0 0
6 1 9.1983981022499997e+00 3.9421706152500002e+00 1.3140568717500001e+00 0 0 0
7 1 9.1983981022499997e+00 1.3140568717500001e+00 3.9421706152500002e+00 0 0 0
8 1 6.5702843587500004e+00 3.9421706152500002e+00 3.9421706152500002e+00 0 0 0
9 1 1.1826511845750002e+01 1.3140568717500001e+00 1.3140568717500001e+00 0 0 0
10 1 1.4454625589250000e+01 3.9421706152500002e+00 1.3140568717500001e+00 0 0 0
11 1 1.4454625589250000e+01 1.3140568717500001e+00 3.9421706152500002e+00 0 0 0
12 1 1.1826511845750002e+01 3.9421706152500002e+00 3.9421706152500002e+00 0 0 0
13 1 1.7082739332750002e+01 1.3140568717500001e+00 1.3140568717500001e+00 0 0 0
14 1 1.9710853076250000e+01 3.9421706152500002e+00 1.3140568717500001e+00 0 0 0
15 1 1.9710853076250000e+01 1.3140568717500001e+00 3.9421706152500002e+00 0 0 0
16 1 1.7082739332750002e+01 3.9421706152500002e+00 3.9421706152500002e+00 0 0 0
17 1 1.3140568717500001e+00 6.5702843587500004e+00 1.3140568717500001e+00 0 0 0
18 1 3.9421706152500002e+00 9.1983981022499997e+00 1.3140568717500001e+00 0 0 0
19 1 3.9421706152500002e+00 6.5702843587500004e+00 3.9421706152500002e+00 0 0 0
20 1 1.3140568717500001e+00 9.1983981022499997e+00 3.9421706152500002e+00 0 0 0
21 1 6.5702843587500004e+00 6.5702843587500004e+00 1.3140568717500001e+00 0 0 0
22 1 9.1983981022499997e+00 9.1983981022499997e+00 1.3140568717500001e+00 0 0 0
23 1 9.1983981022499997e+00 6.5702843587500004e+00 3.9421706152500002e+00 0 0 0
24 1 6.5702843587500004e+00 9.1983981022499997e+00 3.9421706152500002e+00 0 0 0
25 1 1.1826511845750002e+01 6.5702843587500004e+00 1.3140568717500001e+00 0 0 0
26 1 1.4454625589250000e+01 9.1983981022499997e+00 1.3140568717500001e+00 0 0 0
27 1 1.4454625589250000e+01 6.5702843587500004e+00 3.9421706152500002e+00 0 0 0
28 1 1.1826511845750002e+01 9.1983981022499997e+00 3.9421706152500002e+00 0 0 0
29 1 1.7082739332750002e+01 6.5702843587500004e+00 1.3140568717500001e+00 0 0 0
30 1 1.9710853076250000e+01 9.1983981022499997e+00 1.3140568717500001e+00 0 0 0
31 1 1.9710853076250000e+01 6.5702843587500004e+00 3.9421706152500002e+00 0 0 0
32 1 1.7082739332750002e+01 9.1983981022499997e+00 3.9421706152500002e+00 0 0 0
33 1 1.3140568717500001e+00 1.1826511845750002e+01 1.3140568717500001e+00 0 0 0
34 1 3.9421706152500002e+00 1.4454625589250000e+01 1.3140568717500001e+00 0 0 0
35 1 3.9421706152500002e+00 1.1826511845750002e+01 3.9421706152500002e+00 0 0 0
36 1 1.3140568717500001e+00 1.4454625589250000e+01 3.9421706152500002e+00 0 0 0
37 1 6.5702843587500004e+00 1.1826511845750002e+01 1.3140568717500001e+00 0 0 0
38 1 9.1983981022499997e+00 1.4454625589250000e+01 1.3140568717500001e+00 0 0 0
39 1 9.1983981022499997e+00 1.1826511845750002e+01 3.9421706152500002e+00 0 0 0
40 1 6.5702843587500004e+00 1.4454625589250000e+01 3.9421706152500002e+00 0 0 0
41 1 1.1826511845750002e+01 1.1826511845750002e+01 1.3140568717500001e+00 0 0 0
42 1 1.4454625589250000e+01 1.4454625589250000e+01 1.3140568717500001e+00 0 0 0
43 1 1.4454625589250000e+01 1.1826511845750002e+01 3.9421706152500002e+00 0 0 0
44 1 1.1826511845750002e+01 1.4454625589250000e+01 3.9421706152500002e+00 0 0 0
45 1 1.7082739332750002e+01 1.1826511845750002e+01 1.3140568717500001e+00 0 0 0
46 1 1.9710853076250000e+01 1.4454625589250000e+01 1.3140568717500001e+00 0 0 0
47 1 1.9710853076250000e+01 1.1826511845750002e+01 3.9421706152500002e+00 0 0 0
48 1 1.7082739332750002e+01 1.4454625589250000e+01 3.9421706152500002e+00 0 0 0
49 1 1.3140568717500001e+00 1.7082739332750002e+01 1.3140568717500001e+00 0 0 0
50 1 3.9421706152500002e+00 1.9710853076250000e+01 1.3140568717500001e+00 0 0 0
51 1 3.9421706152500002e+00 1.7082739332750002e+01 3.9421706152500002e+00 0 0 0
52 1 1.3140568717500001e+00 1.9710853076250000e+01 3.9421706152500002e+00 0 0 0
53 1 6.5702843587500004e+00 1.7082739332750002e+01 1.3140568717500001e+00 0 0 0
54 1 9.1983981022499997e+00 1.9710853076250000e+01 1.3140568717500001e+00 0 0 0
55 1 9.1983981022499997e+00 1.7082739332750002e+01 3.9421706152500002e+00 0 0 0
56 1 6.5702843587500004e+00 1.9710853076250000e+01 3.9421706152500002e+00 0 0 0
57 1 1.1826511845750002e+01 1.7082739332750002e+01 1.3140568717500001e+00 0 0 0
58 1 1.4454625589250000e+01 1.9710853076250000e+01 1.3140568717500001e+00 0 0 0
59 1 1.4454625589250000e+01 1.7082739332750002e+01 3.9421706152500002e+00 0 0 0
60 1 1.1826511845750002e+01 1.9710853076250000e+01 3.9421706152500002e+00 0 0 0
61 1 1.7082739332750002e+01 1.7082739332750002e+01 1.3140568717500001e+00 0 0 0
62 1 1.9710853076250000e+01 1.9710853076250000e+01 1.3140568717500001e+00 0 0 0
63 1 1.9710853076250000e+01 1.7082739332750002e+01 3.9421706152500002e+00 0 0 0
64 1 1.7082739332750002e+01 1.9710853076250000e+01 3.9421706152500002e+00 0 0 0
65 1 1.3140568717500001e+00 1.3140568717500001e+00 6.5702843587500004e+00 0 0 0
66 1 3.9421706152500002e+00 3.9421706152500002e+00 6.5702843587500004e+00 0 0 0
67 1 3.9421706152500002e+00 1.3140568717500001e+00 9.1983981022499997e+00 0 0 0
68 1 1.3140568717500001e+00 3.9421706152500002e+00 9.1983981022499997e+00 0 0 0
69 1 6.5702843587500004e+00 1.3140568717500001e+00 6.5702843587500004e+00 0 0 0
70 1 9.1983981022499997e+00 3.9421706152500002e+00 6.5702843587500004e+00 0 0 0
71 1 9.1983981022499997e+00 1.3140568717500001e+00 9.1983981022499997e+00 0 0 0
72 1 6.5702843587500004e+00 3.9421706152500002e+00 9.1983981022499997e+00 0 0 0
73 1 1.1826511845750002e+01 1.3140568717500001e+00 6.5702843587500004e+00 0 0 0
74 1 1.4454625589250000e+01 3.9421706152500002e+00 6.5702843587500004e+00 0 0 0
75 1 1.4454625589250000e+01 1.3140568717500001e+00 9.1983981022499997e+00 0 0 0
76 1 1.1826511845750002e+01 3.9421706152500002e+00 9.1983981022499997e+00 0 0 0
77 1 1.7082739332750002e+01 1.3140568717500001e+00 6.5702843587500004e+00 0 0 0
78 1 1.9710853076250000e+01 3.9421706152500002e+00 6.5702843587500004e+00 0 0 0
79 1 1.9710853076250000e+01 1.3140568717500001e+00 9.1983981022499997e+00 0 0 0
80 1 1.7082739332750002e+01 3.9421706152500002e+00 9.1983981022499997e+00 0 0 0
81 1 1.3140568717500001e+00 6.5702843587500004e+00 6.5702843587500004e+00 0 0 0
82 1 3.9421706152500002e+00 9.1983981022499997e+00 6.5702843587500004e+00 0 0 0
83 1 3.9421706152500002e+00 6.5702843587500004e+00 9.1983981022499997e+00 0 0 0
84 1 1.3140568717500001e+00 9.1983981022499997e+00 9.1983981022499997e+00 0 0 0
85 1 6.5702843587500004e+00 6.5702843587500004e+00 6.5702843587500004e+00 0 0 0
86 1 9.1983981022499997e+00 9.1983981022499997e+00 6.5702843587500004e+00 0 0 0
87 1 9.1983981022499997e+00 6.5702843587500004e+00 9.1983981022499997e+00 0 0 0
88 1 6.5702843587500004e+00 9.1983981022499997e+00 9.1983981022499997e+00 0 0 0
89 1 1.1826511845750002e+01 6.5702843587500004e+00 6.5702843587500004e+00 0 0 0
90 1 1.4454625589250000e+01 9.1983981022499997e+00 6.5702843587500004e+00 0 0 0
91 1 1.4454625589250000e+01 6.5702843587500004e+00 9.1983981022499997e+00 0 0 0
92 1 1.1826511845750002e+01 9.1983981022499997e+00 9.1983981022499997e+00 0 0 0
93 1 1.7082739332750002e+01 6.5702843587500004e+00 6.5702843587500004e+00 0 0 0
94 1 1.9710853076250000e+01 9.1983981022499997e+00 6.5702843587500004e+00 0 0 0
95 1 1.9710853076250000e+01 6.5702843587500004e+00 9.1983981022499997e+00 0 0 0
96 1 1.7082739332750002e+01 9.1983981022499997e+00 9.1983981022499997e+00 0 0 0
97 1 1.3140568717500001e+00 1.1826511845750002e+01 6.5702843587500004e+00 0 0 0
98 1 3.9421706152500002e+00 1.4454625589250000e+01 6.5702843587500004e+00 0 0 0
99 1 3.9421706152500002e+00 1.1826511845750002e+01 9.1983981022499997e+00 0 0 0
100 1 1.3140568717500001e+00 1.4454625589250000e+01 9.1983981022499997e+00 0 0 0
101 1 6.5702843587500004e+00 1.1826511845750002e+01 6.5702843587500004e+00 0 0 0
102 1 9.1983981022499997e+00 1.4454625589250000e+01 6.5702843587500004e+00 0 0 0
103 1 9.1983981022499997e+00 1.1826511845750002e+01 9.1983981022499997e+00 0 0 0
104 1 6.5702843587500004e+00 1.4454625589250000e+01 9.1983981022499997e+00 0 0 0
105 1 1.1826511845750002e+01 1.1826511845750002e+01 6.5702843587500004e+00 0 0 0
106 1 1.4454625589250000e+01 1.4454625589250000e+01 6.5702843587500004e+00 0 0 0
107 1 1.4454625589250000e+01 1.1826511845750002e+01 9.1983981022499997e+00 0 0 0
108 1 1.1826511845750002e+01 1.4454625589250000e+01 9.1983981022499997e+00 0 0 0
109 1 1.7082739332750002e+01 1.1826511845750002e+01 6.5702843587500004e+00 0 0 0
110 1 1.9710853076250000e+01 1.4454625589250000e+01 6.5702843587500004e+00 0 0 0
111 1 1.9710853076250000e+01 1.1826511845750002e+01 9.1983981022499997e+00 0 0 0
112 1 1.7082739332750002e+01 1.4454625589250000e+01 9.1983981022499997e+00 0 0 0
113 1 1.3140568717500001e+00 1.7082739332750002e+01 6.5702843587500004e+00 0 0 0
114 1 3.9421706152500002e+00 1.9710853076250000e+01 6.5702843587500004e+00 0 0 0
115 1 3.9421706152500002e+00 1.7082739332750002e+01 9.1983981022499997e+00 0 0 0
116 1 1.3140568717500001e+00 1.9710853076250000e+01 9.1983981022499997e+00 0 0 0
117 1 6.5702843587500004e+00 1.7082739332750002e+01 6.5702843587500004e+00 0 0 0
118 1 9.1983981022499997e+00 1.9710853076250000e+01 6.5702843587500004e+00 0 0 0
119 1 9.1983981022499997e+00 1.7082739332750002e+01 9.1983981022499997e+00 0 0 0
120 1 6.5702843587500004e+00 1.9710853076250000e+01 9.1983981022499997e+00 0 0 0
121 1 1.1826511845750002e+01 1.7082739332750002e+01 6.5702843587500004e+00 0 0 0
122 1 1.4454625589250000e+01 1.9710853076250000e+01 6.5702843587500004e+00 0 0 0
123 1 1.4454625589250000e+01 1.7082739332750002e+01 9.1983981022499997e+00 0 0 0
124 1 1.1826511845750002e+01 1.9710853076250000e+01 9.1983981022499997e+00 0 0 0
125 1 1.7082739332750002e+01 1.7082739332750002e+01 6.5702843587500004e+00 0 0 0
126 1 1.9710853076250000e+01 1.9710853076250000e+01 6.5702843587500004e+00 0 0 0
127 1 1.9710853076250000e+01 1.7082739332750002e+01 9.1983981022499997e+00 0 0 0
128 1 1.7082739332750002e+01 1.9710853076250000e+01 9.1983981022499997e+00 0 0 0
129 1 1.3140568717500001e+00 1.3140568717500001e+00 1.1826511845750002e+01 0 0 0
130 1 3.9421706152500002e+00 3.9421706152500002e+00 1.1826511845750002e+01 0 0 0
131 1 3.9421706152500002e+00 1.3140568717500001e+00 1.4454625589250000e+01 0 0 0
132 1 1.3140568717500001e+00 3.9421706152500002e+00 1.4454625589250000e+01 0 0 0
133 1 6.5702843587500004e+00 1.3140568717500001e+00 1.1826511845750002e+01 0 0 0
134 1 9.1983981022499997e+00 3.9421706152500002e+00 1.1826511845750002e+01 0 0 0
135 1 9.1983981022499997e+00 1.3140568717500001e+00 1.4454625589250000e+01 0 0 0
136 1 6.5702843587500004e+00 3.9421706152500002e+00 1.4454625589250000e+01 0 0 0
137 1 1.1826511845750002e+01 1.3140568717500001e+00 1.1826511845750002e+01 0 0 0
138 1 1.4454625589250000e+01 3.9421706152500002e+00 1.1826511845750002e+01 0 0 0
139 1 1.4454625589250000e+01 1.3140568717500001e+00 1.4454625589250000e+01 0 0 0
140 1 1.1826511845750002e+01 3.9421706152500002e+00 1.4454625589250000e+01 0 0 0
141 1 1.7082739332750002e+01 1.3140568717500001e+00 1.1826511845750002e+01 0 0 0
142 1 1.9710853076250000e+01 3.9421706152500002e+00 1.1826511845750002e+01 0 0 0
143 1 1.9710853076250000e+01 1.3140568717500001e+00 1.4454625589250000e+01 0 0 0
144 1 1.7082739332750002e+01 3.9421706152500002e+00 1.4454625589250000e+01 0 0 0
145 1 1.3140568717500001e+00 6.5702843587500004e+00 1.1826511845750002e+01 0 0 0
146 1 3.9421706152500002e+00 9.1983981022499997e+00 1.1826511845750002e+01 0 0 0
147 1 3.9421706152500002e+00 6.5702843587500004e+00 1.4454625589250000e+01 0 0 0
148 1 1.3140568717500001e+00 9.1983981022499997e+00 1.4454625589250000e+01 0 0 0
149 1 6.5702843587500004e+00 6.5702843587500004e+00 1.1826511845750002e+01 0 0 0
150 1 9.1983981022499997e+00 9.1983981022499997e+00 1.1826511845750002e+01 0 0 0
151 1 9.1983981022499997e+00 6.5702843587500004e+00 1.4454625589250000e+01 0 0 0
152 1 6.5702843587500004e+00 9.1983981022499997e+00 1.4454625589250000e+01 0 0 0
153 1 1.1826511845750002e+01 6.5702843587500004e+00 1.1826511845750002e+01 0 0 0
154 1 1.4454625589250000e+01 9.1983981022499997e+00 1.1826511845750002e+01 0 0 0
155 1 1.4454625589250000e+01 6.5702843587500004e+00 1.4454625589250000e+01 0 0 0
156 1 1.1826511845750002e+01 9.1983981022499997e+00 1.4454625589250000e+01 0 0 0
157 1 1.7082739332750002e+01 6.5702843587500004e+00 1.1826511845750002e+01 0 0 0
158 1 1.9710853076250000e+01 9.1983981022499997e+00 1.1826511845750002e+01 0 0 0
159 1 1.9710853076250000e+01 6.5702843587500004e+00 1.4454625589250000e+01 0 0 0
160 1 1.7082739332750002e+01 9.1983981022499997e+00 1.4454625589250000e+01 0 0 0
161 1 1.3140568717500001e+00 1.1826511845750002e+01 1.1826511845750002e+01 0 0 0
162 1 3.9421706152500002e+00 1.4454625589250000e+01 1.1826511845750002e+01 0 0 0
163 1 3.9421706152500002e+00 1.1826511845750002e+01 1.4454625589250000e+01 0 0 0
164 1 1.3140568717500001e+00 1.4454625589250000e+01 1.4454625589250000e+01 0 0 0
165 1 6.5702843587500004e+00 1.1826511845750002e+01 1.1826511845750002e+01 0 0 0
166 1 9.1983981022499997e+00 1.4454625589250000e+01 1.1826511845750002e+01 0 0 0
167 1 9.1983981022499997e+00 1.1826511845750002e+01 1.4454625589250000e+01 0 0 0
168 1 6.5702843587500004e+00 1.4454625589250000e+01 1.4454625589250000e+01 0 0 0
169 1 1.1826511845750002e+01 1.1826511845750002e+01 1.1826511845750002e+01 0 0 0
170 1 1.4454625589250000e+01 1.4454625589250000e+01 1.1826511845750002e+01 0 0 0
171 1 1.4454625589250000e+01 1.1826511845750002e+01 1.4454625589250000e+01 0 0 0
172 1 1.1826511845750002e+01 1.4454625589250000e+01 1.4454625589250000e+01 0 0 0
173 1 1.7082739332750002e+01 1.1826511845750002e+01 1.1826511845750002e+01 0 0 0
174 1 1.9710853076250000e+01 1.4454625589250000e+01 1.1826511845750002e+01 0 0 0
175 1 1.9710853076250000e+01 1.1826511845750002e+01 1.4454625589250000e+01 0 0 0
176 1 1.7082739332750002e+01 1.4454625589250000e+01 1.4454625589250000e+01 0 0 0
177 1 1.3140568717500001e+00 1.7082739332750002e+01 1.1826511845750002e+01 0 0 0
178 1 3.9421706152500002e+00 1.9710853076250000e+01 1.1826511845750002e+01 0 0 0
179 1 3.9421706152500002e+00 1.7082739332750002e+01 1.4454625589250000e+01 0 0 0
180 1 1.3140568717500001e+00 1.9710853076250000e+01 1.4454625589250000e+01 0 0 0
181 1 6.5702843587500004e+00 1.7082739332750002e+01 1.1826511845750002e+01 0 0 0
182 1 9.1983981022499997e+00 1.9710853076250000e+01 1.1826511845750002e+01 0 0 0
183 1 9.1983981022499997e+00 1.7082739332750002e+01 1.4454625589250000e+01 0 0 0
184 1 6.5702843587500004e+00 1.9710853076250000e+01 1.4454625589250000e+01 0 0 0
185 1 1.1826511845750002e+01 1.7082739332750002e+01 1.1826511845750002e+01 0 0 0
186 1 1.4454625589250000e+01 1.9710853076250000e+01 1.1826511845750002e+01 0 0 0
187 1 1.4454625589250000e+01 1.7082739332750002e+01 1.4454625589250000e+01 0 0 0
188 1 1.1826511845750002e+01 1.9710853076250000e+01 1.4454625589250000e+01 0 0 0
189 1 1.7082739332750002e+01 1.7082739332750002e+01 1.1826511845750002e+01 0 0 0
190 1 1.9710853076250000e+01 1.9710853076250000e+01 1.1826511845750002e+01 0 0 0
191 1 1.9710853076250000e+01 1.7082739332750002e+01 1.4454625589250000e+01 0 0 0
192 1 1.7082739332750002e+01 1.9710853076250000e+01 1.4454625589250000e+01 0 0 0
193 1 1.3140568717500001e+00 1.3140568717500001e+00 1.7082739332750002e+01 0 0 0
194 1 3.9421706152500002e+00 3.9421706152500002e+00 1.7082739332750002e+01 0 0 0
195 1 3.9421706152500002e+00 1.3140568717500001e+00 1.9710853076250000e+01 0 0 0
196 1 1.3140568717500001e+00 3.9421706152500002e+00 1.9710853076250000e+01 0 0 0
197 1 6.5702843587500004e+00 1.3140568717500001e+00 1.7082739332750002e+01 0 0 0
198 1 9.1983981022499997e+00 3.9421706152500002e+00 1.7082739332750002e+01 0 0 0
199 1 9.1983981022499997e+00 1.3140568717500001e+00 1.9710853076250000e+01 0 0 0
200 1 6.5702843587500004e+00 3.9421706152500002e+00 1.9710853076250000e+01 0 0 0
201 1 1.1826511845750002e+01 1.3140568717500001e+00 1.7082739332750002e+01 0 0 0
202 1 1.4454625589250000e+01 3.9421706152500002e+00 1.7082739332750002e+01 0 0 0
203 1 1.4454625589250000e+01 1.3140568717500001e+00 1.9710853076250000e+01 0 0 0
204 1 1.1826511845750002e+01 3.9421706152500002e+00 1.9710853076250000e+01 0 0 0
205 1 1.7082739332750002e+01 1.3140568717500001e+00 1.7082739332750002e+01 0 0 0
206 1 1.9710853076250000e+01 3.9421706152500002e+00 1.7082739332750002e+01 0 0 0
207 1 1.9710853076250000e+01 1.3140568717500001e+00 1.9710853076250000e+01 0 0 0
208 1 1.7082739332750002e+01 3.9421706152500002e+00 1.9710853076250000e+01 0 0 0
209 1 1.3140568717500001e+00 6.5702843587500004e+00 1.7082739332750002e+01 0 0 0
210 1 3.9421706152500002e+00 9.1983981022499997e+00 1.7082739332750002e+01 0 0 0
211 1 3.9421706152500002e+00 6.5702843587500004e+00 1.9710853076250000e+01 0 0 0
212 1 1.3140568717500001e+00 9.1983981022499997e+00 1.9710853076250000e+01 0 0 0
213 1 6.5702843587500004e+00 6.5702843587500004e+00 1.7082739332750002e+01 0 0 0
214 1 9.1983981022499997e+00 9.1983981022499997e+00 1.7082739332750002e+01 0 0 0
215 1 9.1983981022499997e+00 6.5702843587500004e+00 1.9710853076250000e+01 0 0 0
216 1 6.5702843587500004e+00 9.1983981022499997e+00 1.9710853076250000e+01 0 0 0
217 1 1.1826511845750002e+01 6.5702843587500004e+00 1.7082739332750002e+01 0 0 0
218 1 1.4454625589250000e+01 9.1983981022499997e+00 1.7082739332750002e+01 0 0 0
219 1 1.4454625589250000e+01 6.5702843587500004e+00 1.9710853076250000e+01 0 0 0
220 1 1.1826511845750002e+01 9.1983981022499997e+00 1.9710853076250000e+01 0 0 0
221 1 1.7082739332750002e+01 6.5702843587500004e+00 1.7082739332750002e+01 0 0 0
222 1 1.9710853076250000e+01 9.1983981022499997e+00 1.7082739332750002e+01 0 0 0
223 1 1.9710853076250000e+01 6.5702843587500004e+00 1.9710853076250000e+01 0 0 0
224 1 1.7082739332750002e+01 9.1983981022499997e+00 1.9710853076250000e+01 0 0 0
225 1 1.3140568717500001e+00 1.1826511845750002e+01 1.7082739332750002e+01 0 0 0
226 1 3.9421706152500002e+00 1.4454625589250000e+01 1.7082739332750002e+01 0 0 0
227 1 3.9421706152500002e+00 1.1826511845750002e+01 1.9710853076250000e+01 0 0 0
228 1 1.3140568717500001e+00 1.4454625589250000e+01 1.9710853076250000e+01 0 0 0
229 1 6.5702843587500004e+00 1.1826511845750002e+01 1.7082739332750002e+01 0 0 0
230 1 9.1983981022499997e+00 1.4454625589250000e+01 1.7082739332750002e+01 0 0 0
231 1 9.1983981022499997e+00 1.1826511845750002e+01 1.9710853076250000e+01 0 0 0
232 1 6.5702843587500004e+00 1.4454625589250000e+01 1.9710853076250000e+01 0 0 0
233 1 1.1826511845750002e+01 1.1826511845750002e+01 1.7082739332750002e+01 0 0 0
234 1 1.4454625589250000e+01 1.4454625589250000e+01 1.7082739332750002e+01 0 0 0
235 1 1.4454625589250000e+01 1.1826511845750002e+01 1.9710853076250000e+01 0 0 0
236 1 1.1826511845750002e+01 1.4454625589250000e+01 1.9710853076250000e+01 0 0 0
237 1 1.7082739332750002e+01 1.1826511845750002e+01 1.7082739332750002e+01 0 0 0
238 1 1.9710853076250000e+01 1.4454625589250000e+01 1.7082739332750002e+01 0 0 0
239 1 1.9710853076250000e+01 1.1826511845750002e+01 1.9710853076250000e+01 0 0 0
240 1 1.7082739332750002e+01 1.4454625589250000e+01 1.9710853076250000e+01 0 0 0
241 1 1.3140568717500001e+00 1.7082739332750002e+01 1.7082739332750002e+01 0 0 0
242 1 3.9421706152500002e+00 1.9710853076250000e+01 1.7082739332750002e+01 0 0 0
243 1 3.9421706152500002e+00 1.7082739332750002e+01 1.9710853076250000e+01 0 0 0
244 1 1.3140568717500001e+00 1.9710853076250000e+01 1.9710853076250000e+01 0 0 0
245 1 6.5702843587500004e+00 1.7082739332750002e+01 1.7082739332750002e+01 0 0 0
246 1 9.1983981022499997e+00 1.9710853076250000e+01 1.7082739332750002e+01 0 0 0
247 1 9.1983981022499997e+00 1.7082739332750002e+01 1.9710853076250000e+01 0 0 0
248 1 6.5702843587500004e+00 1.9710853076250000e+01 1.9710853076250000e+01 0 0 0
249 1 1.1826511845750002e+01 1.7082739332750002e+01 1.7082739332750002e+01 0 0 0
250 1 1.4454625589250000e+01 1.9710853076250000e+01 1.7082739332750002e+01 0 0 0
251 1 1.4454625589250000e+01 1.7082739332750002e+01 1.9710853076250000e+01 0 0 0
252 1 1.1826511845750002e+01 1.9710853076250000e+01 1.9710853076250000e+01 0 0 0
253 1 1.7082739332750002e+01 1.7082739332750002e+01 1.7082739332750002e+01 0 0 0
254 1 1.9710853076250000e+01 1.9710853076250000e+01 1.7082739332750002e+01 0 0 0
255 1 1.9710853076250000e+01 1.7082739332750002e+01 1.9710853076250000e+01 0 0 0
256 1 1.7082739332750002e+01 1.9710853076250000e+01 1.9710853076250000e+01 0 0 0

Velocities

1 0.0000000000000000e+00 0.0000000000000000e+00 0.0000000000000000e+00
2 0.0000000000000000e+00 0.0000000000000000e+00 0.0000000000000000e+00
3 0.0000000000000000e+00 0.0000000000000000e+00 0.0000000000000000e+00
4 0.0000000000000000e+00 0.0000000000000000e+00 0.0000000000000000e+00
5 0.0000000000000000e+00 0.0000000000000000e+00 0.0000000000000000e+00
6 0.0000000000000000e+00 0.0000000000000000e+00 0.0000000000000000e+00
7 0.0000000000000000e+00 0.0000000000000000e+00 0.0000000000000000e+00
8 0.0000000000000000e+00 0.0000000000000000e+00 0.0000000000000000e+00
9 0.0000000000000000e+00 0.0000000000000000e+00 0.0000000000000000e+00
10 0.0000000000000000e+00 0.0000000000000000e+00 0.0000000000000000e+00
11 0.0000000000000000e+00 0.0000000000000000e+00 0.0000000000000000e+00
12 0.0000000000000000e+00 0.0000000000000000e+00 0.0000000000000000e+00
13 0.0000000000000000e+00 0.0000000000000000e+00 0.0000000000000000e+00
14 0.0000000000000000e+00 0.0000000000000000e+00 0.0000000000000000e+00
15 0.0000000000000000e+00 0.0000000000000000e+00 0.0000000000000000e+00
16 0.0000000000000000e+00 0.0000000000000000e+00 0.0000000000000000e+00
17 0.0000000000000000e+00 0.0000000000000000e+00 0.0000000000000000e+00
18 0.0000000000000000e+00 0.0000000000000000e+00 0.0000000000000000e+00
19 0.0000000000000000e+00 0.0000000000000000e+00 0.0000000000000000e+00
20 0.0000000000000000e+00 0.0000000000000000e+00 0.0000000000000000e+00
21 0.0000000000000000e+00 0.0000000000000000e+00 0.0000000000000000e+00
22 0.0000000000000000e+00 0.0000000000000000e+00 0.0000000000000000e+00
23 0.0000000000000000e+00 0.0000000000000000e+00 0.0000000000000000e+00
24 0.0000000000000000e+00 0.0000000000000000e+00 0.0000000000000000e+00
25 0.0000000000000000e+00 0.0000000000000000e+00 0.0000000000000000e+00
26 0.0000000000000000e+00 0.0000000000000000e+00 0.0000000000000000e+00
27 0.0000000000000000e+00 0.0000000000000000e+00 0.0000000000000000e+00
28 0.0000000000000000e+00 0.0000000000000000e+00 0.0000000000000000e+00
29 0.0000000000000000e+00 0.0000000000000000e+00 0.0000000000000000e+00
30 0.0000000000000000e+00 0.0000000000000000e+00 0.0000000000000000e+00
31 0.0000000000000000e+00 0.0000000000000000e+00 0.0000000000000000e+00
32 0.0000000000000000e+00 0.0000000000000000e+00 0.0000000000000000e+00
33 0.0000000000000000e+00 0.0000000000000000e+00 0.0000000000000000e+00
34 0.0000000000000000e+00 0.0000000000000000e+00 0.0000000000000000e+00
35 0.0000000000000000e+00 0.0000000000000000e+00 0.0000000000000000e+00
36 0.0000000000000000e+00 0.0000000000000000e+00 0.0000000000000000e+00
37 0.0000000000000000e+00 0.0000000000000000e+00 0.0000000000000000e+00
38 0.0000000000000000e+00 0.0000000000000000e+00 0.0000000000000000e+00
39 0.0000000000000000e+00 0.0000000000000000e+00 0.0000000000000000e+00
40 0.0000000000000000e+00 0.0000000000000000e+00 0.0000000000000000e+00
41 0.0000000000000000e+00 0.0000000000000000e+00 0.0000000000000000e+00
42 0.0000000000000000e+00 0.0000000000000000e+00 0.0000000000000000e+00
43 0.0000000000000000e+00 0.0000000000000000e+00 0.0000000000000000e+00
44 0.0000000000000000e+00 0.0000000000000000e+00 0.0000000000000000e+00
45 0.0000000000000000e+00 0.0000000000000000e+00 0.0000000000000000e+00
46 0.0000000000000000e+00 0.0000000000000000e+00 0.0000000000000000e+00
47 0.0000000000000000e+00 0.0000000000000000e+00 0.0000000000000000e+00
48 0.0000000000000000e+00 0.0000000000000000e+00 0.0000000000000000e+00
49 0.0000000000000000e+00 0.0000000000000000e+00 0.0000000000000000e+00
50 0.0000000000000000e+00 0.0000000000000000e+00 0.0000000000000000e+00
51 0.0000000000000000e+00 0.0000000000000000e+00 0.0000000000000000e+00
52 0.0000000000000000e+00 0.0000000000000000e+00 0.0000000000000000e+00
53 0.0000000000000000e+00 0.0000000000000000e+00 0.0000000000000000e+00
54 0.0000000000000000e+00 0.0000000000000000e+00 0.0000000000000000e+00
55 0.0000000000000000e+00 0.0000000000000000e+00 0.0000000000000000e+00
56 0.0000000000000000e+00 0.0000000000000000e+00 0.0000000000000000e+00
57 0.0000000000000000e+00 0.0000000000000000e+00 0.0000000000000000e+00
58 0.0000000000000000e+00 0.0000000000000000e+00 0.0000000000000000e+00
59 0.0000000000000000e+00 0.0000000000000000e+00 0.0000000000000000e+00
60 0.0000000000000000e+00 0.0000000000000000e+00 0.0000000000000000e+00
61 0.0000000000000000e+00 0.0000000000000000e+00 0.0000000000000000e+00
62 0.0000000000000000e+00 0.0000000000000000e+00 0.0000000000000000e+00
63 0.0000000000000000e+00 0.0000000000000000e+00 0.0000000000000000e+00
64 0.0000000000000000e+00 0.0000000000000000e+00 0.0000000000000000e+00
65 0.0000000000000000e+00 0.0000000000000000e+00 0.0000000000000000e+00
66 0.0000000000000000e+00 0.0000000000000000e+00 0.0000000000000000e+00
67 0.0000000000000000e+00 0.0000000000000000e+00 0.0000000000000000e+00
68 0.0000000000000000e+00 0.0000000000000000e+00 0.0000000000000000e+00
69 0.0000000000000000e+00 0.0000000000000000e+00 0.0000000000000000e+00
70 0.0000000000000000e+00 0.0000000000000000e+00 0.0000000000000000e+00
71 0.0000000000000000e+00 0.0000000000000000e+00 0.0000000000000000e+00
72 0.0000000000000000e+00 0.0000000000000000e+00 0.0000000000000000e+00
73 0.0000000000000000e+00 0.0000000000000000e+00 0.0000000000000000e+00
74 0.0000000000000000e+00 0.0000000000000000e+00 0.0000000000000000e+00
75 0.0000000000000000e+00 0.0000000000000000e+00 0.0000000000000000e+00
76 0.0000000000000000e+00 0.0000000000000000e+00 0.0000000000000000e+00
77 0.0000000000000000e+00 0.0000000000000000e+00 0.0000000000000000e+00
78 0.0000000000000000e+00 0.0000000000000000e+00 0.0000000000000000e+00
79 0.0000000000000000e+00 0.0000000000000000e+00 0.0000000000000000e+00
80 0.0000000000000000e+00 0.0000000000000000e+00 0.0000000000000000e+00
81 0.0000000000000000e+00 0.0000000000000000e+00 0.0000000000000000e+00
82 0.0000000000000000e+00 0.0000000000000000e+00 0.0000000000000000e+00
83 0.0000000000000000e+00 0.0000000000000000e+00 0.0000000000000000e+00
84 0.0000000000000000e+00 0.0000000000000000e+00 0.0000000000000000e+00
85 0.0000000000000000e+00 0.0000000000000000e+00 0.0000000000000000e+00
86 0.0000000000000000e+00 0.0000000000000000e+00 0.0000000000000000e+00
87 0.0000000000000000e+00 0.0000000000000000e+00 0.0000000000000000e+00
88 0.0000000000000000e+00 0.0000000000000000e+00 0.0000000000000000e+00
89 0.0000000000000000e+00 0.0000000000000000e+00 0.0000000000000000e+00
90 0.0000000000000000e+00 0.0000000000000000e+00 0.0000000000000000e+00
91 0.0000000000000000e+00 0.0000000000000000e+00 0.0000000000000000e+00
92 0.0000000000000000e+00 0.0000000000000000e+00 0.0000000000000000e+00
93 0.0000000000000000e+00 0.0000000000000000e+00 0.0000000000000000e+00
94 0.0000000000000000e+00 0.0000000000000000e+00 0.0000000000000000e+00
95 0.0000000000000000e+00 0.0000000000000000e+00 0.0000000000000000e+00
96 0.0000000000000000e+00 0.0000000000000000e+00 0.0000000000000000e+00
97 0.0000000000000000e+00 0.0000000000000000e+00 0.0000000000000000e+00
98 0.0000000000000000e+00 0.0000000000000000e+00 0.0000000000000000e+00
99 0.0000000000000000e+00 0.0000000000000000e+00 0.0000000000000000e+00
100 0.0000000000000000e+00 0.0000000000000000e+00 0.0000000000000000e+00
101 0.0000000000000000e+00 0.0000000000000000e+00 0.0000000000000000e+00
102 0.0000000000000000e+00 0.0000000000000000e+00 0.0000000000000000e+00
103 0.0000000000000000e+00 0.0000000000000000e+00 0.0000000000000000e+00
104 0.0000000000000000e+00 0.0000000000000000e+00 0.0000000000000000e+00
105 0.0000000000000000e+00 0.0000000000000000e+00 0.0000000000000000e+00
106 0.0000000000000000e+00 0.0000000000000000e+00 0.0000000000000000e+00
107 0.0000000000000000e+00 0.0000000000000000e+00 0.0000000000000000e+00
108 0.0000000000000000e+00 0.0000000000000000e+00 0.0000000000000000e+00
109 0.0000000000000000e+00 0.0000000000000000e+00 0.0000000000000000e+00
110 0.0000000000000000e+00 0.0000000000000000e+00 0.0000000000000000e+00
111 0.0000000000000000e+00 0.0000000000000000e+00 0.0000000000000000e+00
112 0.0000000000000000e+00 0.0000000000000000e+00 0.0000000000000000e+00
113 0.0000000000000000e+00 0.0000000000000000e+00 0.0000000000000000e+00
114 0.0000000000000000e+00 0.0000000000000000e+00 0.0000000000000000e+00
115 0.0000000000000000e+00 0.0000000000000000e+00 0.0000000000000000e+00
116 0.0000000000000000e+00 0.0000000000000000e+00 0.0000000000000000e+00
117 0.0000000000000000e+00 0.0000000000000000e+00 0.0000000000000000e+00
118 0.0000000000000000e+00 0.0000000000000000e+00 0.0000000000000000e+00
119 0.0000000000000000e+00 0.0000000000000000e+00 0.0000000000000000e+00
120 0.0000000000000000e+00 0.0000000000000000e+00 0.0000000000000000e+00
121 0.0000000000000000e+00 0.0000000000000000e+00 0.0000000000000000e+00
122 0.0000000000000000e+00 0.0000000000000000e+00 0.0000000000000000e+00
123 0.0000000000000000e+00 0.0000000000000000e+00 0.0000000000000000e+00
124 0.0000000000000000e+00 0.0000000000000000e+00 0.0000000000000000e+00
125 0.0000000000000000e+00 0.0000000000000000e+00 0.0000000000000000e+00