# vtk DataFile Version 3.0 c_SAED
Image data set
ASCII
DATASET STRUCTURED_POINTS
DIMENSIONS 4 67 67
ASPECT_RATIO 0.025 0.025 0.025
ORIGIN -0.025 -0.825 -0.825
POINT_DATA 17956
SCALARS intensity float
LOOKUP_TABLE default
-1
-1
-1
-1
-1
-1
-1
-1
-1
-1
-1
-1
-1
-1
-1
-1
-1
-1
-1
-1
-1
-1
-1
-1
-1
-1
-1
-1
-1
-1
-1
-1
-1
-1
-1
-1
-1
-1
-1
-1
-1
-1
-1
-1
-1
-1
-1
-1
-1
-1
-1
-1
-1
-1
-1
-1
-1
-1
-1
-1
-1
-1
-1
-1
-1
-1
-1
-1
-1
-1
-1
-1
-1
-1
-1
-1
-1
-1
-1
-1
-1
-1
-1
-1
-1
-1
-1
-1
-1
-1
-1
-1
-1
-1
-1
-1
-1
-1
-1
-1
1.24121e-05
0.000185957
1.24121e-05
-1
0.000109211
0.00256143
0.000109211
0.000177995
0.000134889
0.00437707
0.000134889
0.00018793
5.14269e-05
0.00212056
5.14269e-05
5.97668e-05
2.91307e-06
0.000143285
2.91307e-06
2.77623e-06
0.000165959
0.00926415
0.000165959
0.000129206
0.000559862
0.034033
0.000559862
0.000362761
0.000986851
0.0630146
0.000986851
0.000559862
0.0630146
4.08903
0.0630146
0.034033
0.000986851
0.0630146
0.000986851
0.000559862
0.000559862
0.034033
0.000559862
0.000362761
0.000165959
0.00926415
0.000165959
0.000129206
2.91307e-06
0.000143285
2.91307e-06
2.77623e-06
5.14269e-05
0.00212056
5.14269e-05
5.97668e-05
0.000134889
0.00437707
0.000134889
0.00018793
0.000109211
0.00256143
0.000109211
0.000177995
1.24121e-05
0.000185957
1.24121e-05
-1
-1
-1
-1
-1
-1
-1
-1
-1
-1
-1
-1
-1
-1
-1
-1
-1
-1
-1
-1
-1
-1
-1
-1
-1
-1
-1
-1
-1
-1
-1
-1
-1
-1
-1
-1
-1
-1
-1
-1
-1
-1
-1
-1
-1
-1
-1
-1
-1
-1
-1
-1
-1
-1
-1
-1
-1
-1
-1
-1
-1
-1
-1
-1
-1
-1
-1
-1
-1
-1
-1
-1
-1
-1
-1
-1
-1
-1
-1
-1
-1
-1
-1
-1
-1
-1
-1
-1
-1
-1
-1
-1
-1
-1
-1
-1
-1
-1
-1
-1
-1
-1
-1
-1
-1
-1
-1
-1
-1
-1
-1
-1
-1
-1
-1
-1
-1
-1
-1
-1
-1
-1
-1
-1
-1
-1
-1
-1
-1
-1
-1
-1
-1
-1
-1
-1
-1
-1
-1
-1
-1
-1
-1
-1
-1
-1
-1
-1
-1
-1
-1
-1
-1
-1
-1
-1
-1
-1
-1
-1
-1
-1
-1
-1
-1
-1
-1
-1
-1
-1
-1
-1
-1
-1
-1
-1
-1
-1
-1
-1
-1
-1
-1
-1
-1
-1
-1
-1
-1
0.0328483
0.0243634
0.0328483
0.0731583
0.0030694
0.0283916
0.0030694
0.006149
0.000357491
0.00798226
0.000357491
0.000593194
6.99743e-05
0.00242836
6.99743e-05
9.33363e-05
0.000753714
0.0334692
0.000753714
0.000813046
0.00111205
0.0572242
0.00111205
0.000993348
0.000491452
0.0277363
0.000491452
0.000374648
3.13004e-05
0.00187486
3.13004e-05
2.10124e-05
0.00194784
0.121257
0.00194784
0.0011871
0.00698693
0.445552
0.00698693
0.00397944
0.0127684
0.825084
0.0127684
0.00698693
0.825084
53.5423
0.825084
0.445552
0.0127684
0.825084
0.0127684
0.00698693
0.00698693
0.445552
0.00698693
0.00397944
0.00194784
0.121257
0.00194784
0.0011871
3.13004e-05
0.00187486
3.13004e-05
2.10124e-05
0.000491452
0.0277363
0.000491452
0.000374648
0.00111205
0.0572242
0.00111205
0.000993348
0.000753714
0.0334692
0.000753714
0.000813046
6.99743e-05
0.00242836
6.99743e-05
9.33363e-05
0.000357491
0.00798226
0.000357491
0.000593194
0.0030694
0.0283916
0.0030694
0.006149
0.0328483
0.0243634
0.0328483
0.0731583
-1
-1
-1
-1
-1
-1
-1
-1
-1
-1
-1
-1
-1
-1
-1
-1
-1
-1
-1
-1
-1
-1
-1
-1
-1
-1
-1
-1
-1
-1
-1
-1
-1
-1
-1
-1
-1
-1
-1
-1
-1
-1
-1
-1
-1
-1
-1
-1
-1
-1
-1
-1
-1
-1
-1
-1
-1
-1
-1
-1
-1
-1
-1
-1
-1
-1
-1
-1
-1
-1
-1
-1
-1
-1
-1
-1
-1
-1
-1
-1
-1
-1
-1
-1
-1
-1
-1
-1
-1
-1
-1
-1
-1
-1
-1
-1
-1
-1
-1
-1
-1
-1
-1
-1
-1
-1
-1
-1
-1
-1
-1
-1
-1
-1
-1
-1
-1
-1
-1
-1
-1
-1
-1
-1
-1
-1
-1
-1
-1
-1
-1
-1
-1
-1
-1
-1
-1
-1
-1
-1
-1
-1
-1
-1
-1
-1
-1
-1
-1
-1
-1
-1
-1
-1
-1
-1
-1
-1
-1
-1
-1
-1
-1
-1
-1
-1
-1
-1
0.000274663
0.0064509
0.000274663
0.000447409
0.00126757
0.0063255
0.00126757
0.00268125
0.022705
0.0388867
0.022705
0.0499821
0.00249205
0.045354
0.00249205
0.00440536
0.000356532
0.0127613
0.000356532
0.000465321
8.20804e-05
0.00388507
8.20804e-05
8.222e-05
0.000988155
0.0535822
0.000988155
0.000810771
0.00156983
0.0916671
0.00156983
0.00111599
0.000728776
0.0444537
0.000728776
0.000468176
4.79706e-05
0.00300619
4.79706e-05
2.87115e-05
0.00305121
0.194492
0.00305121
0.00173997
0.0110977
0.714827
0.0110977
0.00613323
0.0204376
1.32393
0.0204376
0.0110977
1.32393
85.9185
1.32393
0.714827
0.0204376
1.32393
0.0204376
0.0110977
0.0110977
0.714827
0.0110977
0.00613323
0.00305121
0.194492
0.00305121
0.00173997
4.79706e-05
0.00300619
4.79706e-05
2.87115e-05
0.000728776
0.0444537
0.000728776
0.000468176
0.00156983
0.0916671
0.00156983
0.00111599
0.000988155
0.0535822
0.000988155
0.000810771
8.20804e-05
0.00388507
8.20804e-05
8.222e-05
0.000356532
0.0127613
0.000356532
0.000465321
0.00249205
0.045354
0.00249205
0.00440536
0.022705
0.0388867
0.022705
0.0499821
0.00126757
0.0063255
0.00126757
0.00268125
0.000274663
0.0064509
0.000274663
0.000447409
-1
-1
-1
-1
-1
-1
-1
-1
-1
-1
-1
-1
-1
-1
-1
-1
-1
-1
-1
-1
-1
-1
-1
-1
-1
-1
-1
-1
-1
-1
-1
-1
-1
-1
-1
-1
-1
-1
-1
-1
-1
-1
-1
-1
-1
-1
-1
-1
-1
-1
-1
-1
-1
-1
-1
-1
-1
-1
-1
-1
-1
-1
-1
-1
-1
-1
-1
-1
-1
-1
-1
-1
-1
-1
-1
-1
-1
-1
-1
-1
-1
-1
-1
-1
-1
-1
-1
-1
-1
-1
-1
-1
-1
-1
-1
-1
-1
-1
-1
-1
-1
-1
-1
-1
-1
-1
-1
-1
-1
-1
-1
-1
-1
-1
-1
-1
-1
-1
-1
-1
-1
-1
-1
-1
-1
-1
-1
-1
-1
-1
-1
-1
-1
-1
-1
-1
-1
-1
-1
-1
-1
-1
-1
-1
-1
-1
-1
-1
-1
-1
-1
-1
0.0003976
0.0222604
0.0003976
0.000307831
0.000373746
0.0182315
0.000373746
0.000360182
8.37463e-05
0.00284917
8.37463e-05
0.000113205
0.000309357
0.00279657
0.000309357
0.000621358
0.00530034
0.0172087
0.00530034
0.0114528
0.000718374
0.0200892
0.000718374
0.00108534
0.000123659
0.00565743
0.000123659
0.000129006
3.16341e-05
0.00172375
3.16341e-05
2.57331e-05
0.000403729
0.0237913
0.000403729
0.000281313
0.000663546
0.0407285
0.000663546
0.000419594
0.000314529
0.0197625
0.000314529
0.000186888
2.09796e-05
0.00133709
2.09796e-05
1.19692e-05
0.00134585
0.0865387
0.00134585
0.000747736
0.00492111
0.318148
0.00492111
0.00268897
0.00908921
0.589341
0.00908921
0.00492111
0.589341
38.2483
0.589341
0.318148
0.00908921
0.589341
0.00908921
0.00492111
0.00492111
0.318148
0.00492111
0.00268897
0.00134585
0.0865387
0.00134585
0.000747736
2.09796e-05
0.00133709
2.09796e-05
1.19692e-05
0.000314529
0.0197625
0.000314529
0.000186888
0.000663546
0.0407285
0.000663546
0.000419594
0.000403729
0.0237913
0.000403729
0.000281313
3.16341e-05
0.00172375
3.16341e-05
2.57331e-05
0.000123659
0.00565743
0.000123659
0.000129006
0.000718374
0.0200892
0.000718374
0.00108534
0.00530034
0.0172087
0.00530034
0.0114528
0.000309357
0.00279657
0.000309357
0.000621358
8.37463e-05
0.00284917
8.37463e-05
0.000113205
0.000373746
0.0182315
0.000373746
0.000360182
0.0003976
0.0222604
0.0003976
0.000307831
-1
-1
-1
-1
-1
-1
-1
-1
-1
-1
-1
-1
-1
-1
-1
-1
-1
-1
-1
-1
-1
-1
-1
-1
-1
-1
-1
-1
-1
-1
-1
-1
-1
-1
-1
-1
-1
-1
-1
-1
-1
-1
-1
-1
-1
-1
-1
-1
-1
-1
-1
-1
-1
-1
-1
-1
-1
-1
-1
-1
-1
-1
-1
-1
-1
-1
-1
-1
-1
-1
-1
-1
-1
-1
-1
-1
-1
-1
-1
-1
-1
-1
-1
-1
-1
-1
-1
-1
-1
-1
-1
-1
-1
-1
-1
-1
-1
-1
-1
-1
-1
-1
-1
-1
-1
-1
-1
-1
-1
-1
-1
-1
-1
-1
-1
-1
-1
-1
-1
-1
-1
-1
-1
-1
-1
-1
-1
-1
-1
-1
-1
-1
-1
-1
-1
-1
2.02863e-06
0.000128105
2.02863e-06
1.18854e-06
6.31897e-06
0.000391146
6.31897e-06
3.90956e-06
2.20715e-05
0.0013153
2.20715e-05
1.49948e-05
1.96883e-05
0.00107847
1.96883e-05
1.58684e-05
3.91929e-06
0.000168728
3.91929e-06
4.36707e-06
1.13813e-05
0.000165794
1.13813e-05
2.12032e-05
0.000182828
0.00102129
0.000182828
0.000383749
3.19697e-05
0.00119345
3.19697e-05
4.04246e-05
6.39675e-06
0.000336417
6.39675e-06
5.52246e-06
1.74962e-06
0.000102594
1.74962e-06
1.23245e-06
2.30726e-05
0.00141717
2.30726e-05
1.45642e-05
3.86069e-05
0.00242784
3.86069e-05
2.28846e-05
1.84968e-05
0.0011788
1.84968e-05
1.05538e-05
1.24208e-06
7.97978e-05
1.24208e-06
6.91888e-07
8.0023e-05
0.00516686
8.0023e-05
4.38996e-05
0.000293391
0.0190011
0.000293391
0.000159436
0.00054269
0.0352044
0.00054269
0.000293391
0.0352044
2.28491
0.0352044
0.0190011
0.00054269
0.0352044
0.00054269
0.000293391
0.000293391
0.0190011
0.000293391
0.000159436
8.0023e-05
0.00516686
8.0023e-05
4.38996e-05
1.24208e-06
7.97978e-05
1.24208e-06
6.91888e-07
1.84968e-05
0.0011788
1.84968e-05
1.05538e-05
3.86069e-05
0.00242784
3.86069e-05
2.28846e-05
2.30726e-05
0.00141717
2.30726e-05
1.45642e-05
1.74962e-06
0.000102594
1.74962e-06
1.23245e-06
6.39675e-06
0.000336417
6.39675e-06
5.52246e-06
3.19697e-05
0.00119345
3.19697e-05
4.04246e-05
0.000182828
0.00102129
0.000182828
0.000383749
1.13813e-05
0.000165794
1.13813e-05
2.12032e-05
3.91929e-06
0.000168728
3.91929e-06
4.36707e-06
1.96883e-05
0.00107847
1.96883e-05
1.58684e-05
2.20715e-05
0.0013153
2.20715e-05
1.49948e-05
6.31897e-06
0.000391146
6.31897e-06
3.90956e-06
2.02863e-06
0.000128105
2.02863e-06
1.18854e-06
-1
-1
-1
-1
-1
-1
-1
-1
-1
-1
-1
-1
-1
-1
-1
-1
-1
-1
-1
-1
-1
-1
-1
-1
-1
-1
-1
-1
-1
-1
-1
-1
-1
-1
-1
-1
-1
-1
-1
-1
-1
-1
-1
-1
-1
-1
-1
-1
-1
-1
-1
-1
-1
-1
-1
-1
-1
-1
-1
-1
-1
-1
-1
-1
-1
-1
-1
-1
-1
-1
-1
-1
-1
-1
-1
-1
-1
-1
-1
-1
-1
-1
-1
-1
-1
-1
-1
-1
-1
-1
-1
-1
-1
-1
-1
-1
-1
-1
-1
-1
-1
-1
-1
-1
-1
-1
-1
-1
-1
-1
-1
-1
-1
-1
-1
-1
-1
-1
-1
-1
0.00315159
0.203494
0.00315159
0.00172876
0.00159156
0.10235
0.00159156
0.000883947
0.000105031
0.00670943
0.000105031
5.95148e-05
0.000324847
0.0205113
0.000324847
0.00019038
0.0011185
0.0690584
0.0011185
0.000696658
0.000966244
0.0566937
0.000966244
0.000679741
0.000176707
0.00888065
0.000176707
0.000163408
0.000401657
0.00873668
0.000401657
0.000672335
0.00589123
0.0538809
0.00589123
0.0118124
0.00138301
0.0630341
0.00138301
0.00144886
0.000310883
0.0177872
0.000310883
0.000230603
8.87887e-05
0.00542979
8.87887e-05
5.66705e-05
0.00119426
0.0750717
0.00119426
0.000708698
0.00201959
0.128715
0.00201959
0.00115219
0.000973712
0.0625399
0.000973712
0.000542835
6.56472e-05
0.00423609
6.56472e-05
3.60809e-05
0.00424038
0.274413
0.00424038
0.00230984
0.015572
1.0095
0.015572
0.00843611
0.0288299
1.87074
0.0288299
0.015572
1.87074
121.427
1.87074
1.0095
0.0288299
1.87074
0.0288299
0.015572
0.015572
1.0095
0.015572
0.00843611
0.00424038
0.274413
0.00424038
0.00230984
6.56472e-05
0.00423609
6.56472e-05
3.60809e-05
0.000973712
0.0625399
0.000973712
0.000542835
0.00201959
0.128715
0.00201959
0.00115219
0.00119426
0.0750717
0.00119426
0.000708698
8.87887e-05
0.00542979
8.87887e-05
5.66705e-05
0.000310883
0.0177872
0.000310883
0.000230603
0.00138301
0.0630341
0.00138301
0.00144886
0.00589123
0.0538809
0.00589123
0.0118124
0.000401657
0.00873668
0.000401657
0.000672335
0.000176707
0.00888065
0.000176707
0.000163408
0.000966244
0.0566937
0.000966244
0.000679741
0.0011185
0.0690584
0.0011185
0.000696658
0.000324847
0.0205113
0.000324847
0.00019038
0.000105031
0.00670943
0.000105031
5.95148e-05
0.00159156
0.10235
0.00159156
0.000883947
0.00315159
0.203494
0.00315159
0.00172876
-1
-1
-1
-1
-1
-1
-1
-1
-1
-1
-1
-1
-1
-1
-1
-1
-1
-1
-1
-1
-1
-1
-1
-1
-1
-1
-1
-1
-1
-1
-1
-1
-1
-1
-1
-1
-1
-1
-1
-1
-1
-1
-1
-1
-1
-1
-1
-1
-1
-1
-1
-1
-1
-1
-1
-1
-1
-1
-1
-1
-1
-1
-1
-1
-1
-1
-1
-1
-1
-1
-1
-1
-1
-1
-1
-1
-1
-1
-1
-1
-1
-1
-1
-1
-1
-1
-1
-1
-1
-1
-1
-1
-1
-1
-1
-1
-1
-1
-1
-1
-1
-1
-1
-1
-1
-1
-1
-1
0.00490888
0.318097
0.00490888
0.0026628
0.00795985
0.515079
0.00795985
0.00433675
0.00401784
0.259402
0.00401784
0.00220459
0.000264729
0.0170273
0.000264729
0.000146947
0.000815755
0.0521235
0.000815755
0.000461899
0.00278576
0.175728
0.00278576
0.00163704
0.00235901
0.144459
0.00235901
0.00150056
0.000406483
0.0226588
0.000406483
0.000317247
0.000728588
0.0223207
0.000728588
0.00104932
0.0094235
0.137833
0.0094235
0.0175349
0.0030821
0.161447
0.0030821
0.00267748
0.000755958
0.0456111
0.000755958
0.000498747
0.000222169
0.0139386
0.000222169
0.00013255
0.00302646
0.192908
0.00302646
0.00172601
0.00515303
0.33105
0.00515303
0.0028707
0.00249472
0.160977
0.00249472
0.00137122
0.000168643
0.0109108
0.000168643
9.19389e-05
0.0109126
0.707173
0.0109126
0.00591888
0.0401201
2.6025
0.0401201
0.0216931
0.0743255
4.82392
0.0743255
0.0401201
4.82392
313.138
4.82392
2.6025
0.0743255
4.82392
0.0743255
0.0401201
0.0401201
2.6025
0.0401201
0.0216931
0.0109126
0.707173
0.0109126
0.00591888
0.000168643
0.0109108
0.000168643
9.19389e-05
0.00249472
0.160977
0.00249472
0.00137122
0.00515303
0.33105
0.00515303
0.0028707
0.00302646
0.192908
0.00302646
0.00172601
0.000222169
0.0139386
0.000222169
0.00013255
0.000755958
0.0456111
0.000755958
0.000498747
0.0030821
0.161447
0.0030821
0.00267748
0.0094235
0.137833
0.0094235
0.0175349
0.000728588
0.0223207
0.000728588
0.00104932
0.000406483
0.0226588
0.000406483
0.000317247
0.00235901
0.144459
0.00235901
0.00150056
0.00278576
0.175728
0.00278576
0.00163704
0.000815755
0.0521235
0.000815755
0.000461899
0.000264729
0.0170273
0.000264729
0.000146947
0.00401784
0.259402
0.00401784
0.00220459
0.00795985
0.515079
0.00795985
0.00433675
0.00490888
0.318097
0.00490888
0.0026628
-1
-1
-1
-1
-1
-1
-1
-1
-1
-1
-1
-1
-1
-1
-1
-1
-1
-1
-1
-1
-1
-1
-1
-1
-1
-1
-1
-1
-1
-1
-1
-1
-1
-1
-1
-1
-1
-1
-1
-1
-1
-1
-1
-1
-1
-1
-1
-1
-1
-1
-1
-1
-1
-1
-1
-1
-1
-1
-1
-1
-1
-1
-1
-1
-1
-1
-1
-1
-1
-1
-1
-1
-1
-1
-1
-1
-1
-1
-1
-1
-1
-1
-1
-1
-1
-1
-1
-1
-1
-1
-1
-1
-1
-1
-1
-1
-1
-1
-1
-1
0.000417263
0.0270685
0.000417263
0.00022556
0.0039451
0.255817
0.0039451
0.00213544
0.00640142
0.414796
0.00640142
0.0034729
0.00323219
0.20919
0.00323219
0.00176005
0.000212885
0.0137509
0.000212885
0.000116638
0.000654898
0.0421552
0.000654898
0.000362673
0.00222624
0.14233
0.00222624
0.00125838
0.00186215
0.117176
0.00186215
0.0011019
0.00030807
0.0184062
0.00030807
0.000208021
0.00044418
0.0181578
0.00044418
0.000520088
0.00485451
0.112284
0.00485451
0.00794719
0.00228385
0.131699
0.00228385
0.00166693
0.000596786
0.0372549
0.000596786
0.000360954
0.000178792
0.0113988
0.000178792
0.000101901
0.00245637
0.157931
0.00245637
0.00136514
0.00420203
0.271297
0.00420203
0.00230565
0.0020403
0.132036
0.0020403
0.00111145
0.000138197
0.0089558
0.000138197
7.49537e-05
0.00895453
0.580797
0.00895453
0.00484347
0.0329506
2.13832
0.0329506
0.0177933
0.0610743
3.96453
0.0610743
0.0329506
3.96453
257.374
3.96453
2.13832
0.0610743
3.96453
0.0610743
0.0329506
0.0329506
2.13832
0.0329506
0.0177933
0.00895453
0.580797
0.00895453
0.00484347
0.000138197
0.0089558
0.000138197
7.49537e-05
0.0020403
0.132036
0.0020403
0.00111145
0.00420203
0.271297
0.00420203
0.00230565
0.00245637
0.157931
0.00245637
0.00136514
0.000178792
0.0113988
0.000178792
0.000101901
0.000596786
0.0372549
0.000596786
0.000360954
0.00228385
0.131699
0.00228385
0.00166693
0.00485451
0.112284
0.00485451
0.00794719
0.00044418
0.0181578
0.00044418
0.000520088
0.00030807
0.0184062
0.00030807
0.000208021
0.00186215
0.117176
0.00186215
0.0011019
0.00222624
0.14233
0.00222624
0.00125838
0.000654898
0.0421552
0.000654898
0.000362673
0.000212885
0.0137509
0.000212885
0.000116638
0.00323219
0.20919
0.00323219
0.00176005
0.00640142
0.414796
0.00640142
0.0034729
0.0039451
0.255817
0.0039451
0.00213544
0.000417263
0.0270685
0.000417263
0.00022556
-1
-1
-1
-1
-1
-1
-1
-1
-1
-1
-1
-1
-1
-1
-1
-1
-1
-1
-1
-1
-1
-1
-1
-1
-1
-1
-1
-1
-1
-1
-1
-1
-1
-1
-1
-1
-1
-1
-1
-1
-1
-1
-1
-1
-1
-1
-1
-1
-1
-1
-1
-1
-1
-1
-1
-1
-1
-1
-1
-1
-1
-1
-1
-1
-1
-1
-1
-1
-1
-1
-1
-1
-1
-1
-1
-1
-1
-1
-1
-1
-1
-1
-1
-1
-1
-1
-1
-1
3.84006e-27
3.24321e-25
8.80357e-27
-1
1.63013e-27
2.38515e-26
5.52612e-28
9.94485e-28
1.099e-26
2.24526e-26
9.99845e-27
9.46266e-28
3.63922e-27
1.07043e-26
1.44181e-27
3.80653e-27
1.29083e-26
2.09316e-26
1.64314e-26
5.18939e-28
1.0702e-27
3.46248e-27
2.55644e-29
9.3183e-28
2.11563e-26
1.32731e-27
9.50299e-27
5.32316e-29
1.35003e-27
3.33861e-26
3.68336e-28
3.12667e-27
3.25658e-26
9.57684e-26
2.32903e-26
2.5119e-27
9.4145e-28
6.83278e-27
1.82366e-28
1.6582e-27
2.44515e-26
9.29825e-26
1.93994e-26
6.48502e-28
2.39937e-28
2.35722e-26
6.18561e-28
2.38145e-28
2.15581e-26
1.03712e-26
1.60967e-26
2.78934e-28
1.32194e-27
5.80484e-26
9.16183e-28
1.62184e-27
1.46797e-26
5.83166e-27
1.00575e-26
1.41741e-27
8.48257e-28
1.1323e-26
6.97148e-28
9.4211e-28
6.11206e-27
5.0165e-27
8.18379e-27
5.31609e-28
4.42308e-28
1.41962e-26
2.67318e-28
9.12048e-29
1.1812e-26
1.01797e-25
3.93475e-27
7.04489e-28
2.7259e-27
5.38328e-27
9.04131e-28
3.99081e-29
3.88691e-27
1.06141e-27
2.30119e-27
1.76897e-28
9.81985e-28
4.8671e-27
4.65156e-28
1.76877e-27
2.70525e-27
4.74312e-27
3.29491e-27
2.03777e-28
1.35917e-26
3.76256e-24
6.4052e-27
1.21844e-26
3.77451e-27
1.09509e-26
3.90785e-28
7.88624e-28
1.70014e-28
1.28208e-26
7.1894e-28
2.84305e-27
7.68157e-28
1.04442e-27
2.66738e-28
3.24666e-28
9.15349e-29
6.28963e-27
2.21027e-28
3.51927e-28
5.89243e-28
9.7812e-27
1.27988e-27
4.23891e-28
3.86828e-29
3.54926e-27
3.38603e-28
1.99208e-29
3.84264e-28
3.15859e-27
6.89908e-28
3.70347e-28
2.97944e-28
3.90822e-27
5.41701e-28
5.83948e-29
1.86776e-28
1.63267e-27
7.3432e-28
2.48879e-29
3.47201e-29
1.7887e-26
1.53594e-28
1.42429e-28
3.7212e-28
4.9093e-28
9.71004e-29
2.15023e-28
3.37613e-29
2.61782e-27
8.47601e-29
2.14148e-29
2.60774e-28
9.94616e-28
1.0398e-28
1.00394e-28
1.66325e-29
5.87168e-28
6.92009e-29
9.00293e-29
4.39261e-28
1.04692e-26
1.13496e-29
1.23331e-29
1.73488e-28
3.11291e-27
1.27253e-28
1.27243e-28
1.61891e-28
4.04096e-27
3.35562e-29
6.5109e-29
1.8535e-28
3.65522e-28
8.08911e-29
8.79199e-29
7.1631e-29
3.08697e-27
4.16751e-29
1.32605e-29
7.36271e-29
2.8589e-27
1.70179e-29
7.60859e-30
1.37068e-28
1.45836e-26
1.72504e-29
7.84054e-29
5.61551e-30
4.53314e-26
2.04374e-28
9.72619e-29
1.47621e-27
5.81821e-27
9.9393e-28
-1
-1
-1
-1
-1
-1
-1
-1
-1
-1
-1
-1
-1
-1
-1
-1
-1
-1
-1
-1
-1
-1
-1
-1
-1
-1
-1
-1
-1
-1
-1
-1
-1
-1
-1
-1
-1
-1
-1
-1
-1
-1
-1
-1
-1
-1
-1
-1
-1
-1
-1
-1
-1
-1
-1
-1
-1
-1
-1
-1
-1
-1
-1
-1
-1
-1
-1
-1
-1
-1
-1
-1
-1
-1
-1
-1
-1
0.13705
8.89268
0.13705
-1
6.5723
426.473
6.5723
3.54969
0.577669
37.4855
0.577669
0.311976
0.00287614
0.186636
0.00287614
0.00155329
0.0272617
1.769
0.0272617
0.0147244
0.0443406
2.87704
0.0443406
0.023954
0.0224346
1.45548
0.0224346
0.0121247
0.0014798
0.0959823
0.0014798
0.000800347
0.00455336
0.29521
0.00455336
0.00246606
0.0154384
1.00004
0.0154384
0.00838465
0.0127798
0.826057
0.0127798
0.00698713
0.00202882
0.130192
0.00202882
0.00113411
0.00214114
0.128858
0.00214114
0.00142114
0.0152901
0.799404
0.0152901
0.0133193
0.0147316
0.940552
0.0147316
0.00836059
0.00413231
0.266853
0.00413231
0.00226589
0.00126418
0.081876
0.00126418
0.000686942
0.0175399
1.13732
0.0175399
0.00949616
0.0301823
1.95822
0.0301823
0.0163108
0.014714
0.95496
0.014714
0.00794327
0.000999521
0.0648835
0.000999521
0.000539237
0.0648995
4.21347
0.0648995
0.0349988
0.239156
15.528
0.239156
0.128938
0.443649
28.8066
0.443649
0.239156
28.8066
1870.47
28.8066
15.528
0.443649
28.8066
0.443649
0.239156
0.239156
15.528
0.239156
0.128938
0.0648995
4.21347
0.0648995
0.0349988
0.000999521
0.0648835
0.000999521
0.000539237
0.014714
0.95496
0.014714
0.00794327
0.0301823
1.95822
0.0301823
0.0163108
0.0175399
1.13732
0.0175399
0.00949616
0.00126418
0.081876
0.00126418
0.000686942
0.00413231
0.266853
0.00413231
0.00226589
0.0147316
0.940552
0.0147316
0.00836059
0.0152901
0.799404
0.0152901
0.0133193
0.00214114
0.128858
0.00214114
0.00142114
0.00202882
0.130192
0.00202882
0.00113411
0.0127798
0.826057
0.0127798
0.00698713
0.0154384
1.00004
0.0154384
0.00838465
0.00455336
0.29521
0.00455336
0.00246606
0.0014798
0.0959823
0.0014798
0.000800347
0.0224346
1.45548
0.0224346
0.0121247
0.0443406
2.87704
0.0443406
0.023954
0.0272617
1.769
0.0272617
0.0147244
0.00287614
0.186636
0.00287614
0.00155329
0.577669
37.4855
0.577669
0.311976
6.5723
426.473
6.5723
3.54969
0.13705
8.89268
0.13705
-1
-1
-1
-1
-1
-1
-1
-1
-1
-1
-1
-1
-1
-1
-1
-1
-1
-1
-1
-1
-1
-1
-1
-1
-1
-1
-1
-1
-1
-1
-1
-1
-1
-1
-1
-1
-1
-1
-1
-1
-1
-1
-1
-1
-1
-1
-1
-1
-1
-1
-1
-1
-1
-1
-1
-1
-1
-1
-1
-1
-1
-1
-1
-1
-1
-1
-1
-1
-1
1.10549e-26
1.07254e-25
7.57831e-27
-1
6.5723
426.473
6.5723
3.54969
315.621
20481.1
315.621
170.45
27.7817
1802.86
27.7817
15.002
0.13853
8.98999
0.13853
0.0747979
1.3151
85.3471
1.3151
0.710006
2.14234
139.038
2.14234
1.15651
1.08565
70.4611
1.08565
0.586019
0.0717198
4.6549
0.0717198
0.0387101
0.220987
14.3432
0.220987
0.119269
0.750003
48.6792
0.750003
0.404787
0.620722
40.2859
0.620722
0.335074
0.0980423
6.36128
0.0980423
0.052973
0.0975088
6.30789
0.0975088
0.0531779
0.610435
39.2043
0.610435
0.340393
0.71226
46.2083
0.71226
0.384984
0.202313
13.1325
0.202313
0.109162
0.0621624
4.03574
0.0621624
0.0335235
0.86468
56.142
0.86468
0.46619
1.49069
96.7929
1.49069
0.803566
0.72778
47.2578
0.72778
0.392266
0.0494951
3.21402
0.0494951
0.0266749
3.2166
208.879
3.2166
1.73343
11.8607
770.221
11.8607
6.39146
22.0107
1429.36
22.0107
11.8607
1429.36
92822.3
1429.36
770.221
22.0107
1429.36
22.0107
11.8607
11.8607
770.221
11.8607
6.39146
3.2166
208.879
3.2166
1.73343
0.0494951
3.21402
0.0494951
0.0266749
0.72778
47.2578
0.72778
0.392266
1.49069
96.7929
1.49069
0.803566
0.86468
56.142
0.86468
0.46619
0.0621624
4.03574
0.0621624
0.0335235
0.202313
13.1325
0.202313
0.109162
0.71226
46.2083
0.71226
0.384984
0.610435
39.2043
0.610435
0.340393
0.0975088
6.30789
0.0975088
0.0531779
0.0980423
6.36128
0.0980423
0.052973
0.620722
40.2859
0.620722
0.335074
0.750003
48.6792
0.750003
0.404787
0.220987
14.3432
0.220987
0.119269
0.0717198
4.6549
0.0717198
0.0387101
1.08565
70.4611
1.08565
0.586019
2.14234
139.038
2.14234
1.15651
1.3151
85.3471
1.3151
0.710006
0.13853
8.98999
0.13853
0.0747979
27.7817
1802.86
27.7817
15.002
315.621
20481.1
315.621
170.45
6.5723
426.473
6.5723
3.54969
5.09526e-28
5.8237e-26
1.37741e-27
-1
-1
-1
-1
-1
-1
-1
-1
-1
-1
-1
-1
-1
-1
-1
-1
-1
-1
-1
-1
-1
-1
-1
-1
-1
-1
-1
-1
-1
-1
-1
-1
-1
-1
-1
-1
-1
-1
-1
-1
-1
-1
-1
-1
-1
-1
-1
-1
-1
-1
-1
-1
-1
-1
-1
-1
-1
-1
-1
-1
-1
-1
-1
-1
-1
6.1044e-28
1.13333e-26
8.56112e-28
1.81603e-27
0.577669
37.4855
0.577669
0.311976
27.7817
1802.86
27.7817
15.002
2.44919
158.942
2.44919
1.32242
0.0122325
0.79386
0.0122325
0.00660426
0.116326
7.54945
0.116326
0.0628002
0.189843
12.3207
0.189843
0.102487
0.096387
6.25543
0.096387
0.0520365
0.00638014
0.414048
0.00638014
0.00344493
0.0197001
1.27833
0.0197001
0.0106406
0.0670108
4.34721
0.0670108
0.0362234
0.0556058
3.60498
0.0556058
0.0301204
0.00881859
0.570398
0.00881859
0.0048115
0.00895042
0.566756
0.00895042
0.00520277
0.0585892
3.52946
0.0585892
0.0387927
0.0645395
4.16805
0.0645395
0.035383
0.0183078
1.18676
0.0183078
0.00992128
0.0056305
0.365339
0.0056305
0.00304196
0.0784216
5.0905
0.0784216
0.0423146
0.135373
8.7892
0.135373
0.0729952
0.0661699
4.2967
0.0661699
0.0356654
0.00450472
0.292536
0.00450472
0.00242739
0.292997
19.0283
0.292997
0.157854
1.08104
70.209
1.08104
0.58235
2.00689
130.342
2.00689
1.08104
130.342
8465.47
130.342
70.209
2.00689
130.342
2.00689
1.08104
1.08104
70.209
1.08104
0.58235
0.292997
19.0283
0.292997
0.157854
0.00450472
0.292536
0.00450472
0.00242739
0.0661699
4.2967
0.0661699
0.0356654
0.135373
8.7892
0.135373
0.0729952
0.0784216
5.0905
0.0784216
0.0423146
0.0056305
0.365339
0.0056305
0.00304196
0.0183078
1.18676
0.0183078
0.00992128
0.0645395
4.16805
0.0645395
0.035383
0.0585892
3.52946
0.0585892
0.0387927
0.00895042
0.566756
0.00895042
0.00520277
0.00881859
0.570398
0.00881859
0.0048115
0.0556058
3.60498
0.0556058
0.0301204
0.0670108
4.34721
0.0670108
0.0362234
0.0197001
1.27833
0.0197001
0.0106406
0.00638014
0.414048
0.00638014
0.00344493
0.096387
6.25543
0.096387
0.0520365
0.189843
12.3207
0.189843
0.102487
0.116326
7.54945
0.116326
0.0628002
0.0122325
0.79386
0.0122325
0.00660426
2.44919
158.942
2.44919
1.32242
27.7817
1802.86
27.7817
15.002
0.577669
37.4855
0.577669
0.311976
8.91016e-29
5.09045e-28
6.28029e-29
2.30954e-28
-1
-1
-1
-1
-1
-1
-1
-1
-1
-1
-1
-1
-1
-1
-1
-1
-1
-1
-1
-1
-1
-1
-1
-1
-1
-1
-1
-1
-1
-1
-1
-1
-1
-1
-1
-1
-1
-1
-1
-1
-1
-1
-1
-1
-1
-1
-1
-1
-1
-1
-1
-1
-1
-1
-1
-1
-1
-1
-1
-1
0.000417263
0.0270685
0.000417263
0.00022556
1.40485e-26
2.67931e-26
1.23547e-26
3.54254e-27
0.00287614
0.186636
0.00287614
0.00155329
0.13853
8.98999
0.13853
0.0747979
0.0122325
0.79386
0.0122325
0.00660426
6.12029e-05
0.00397187
6.12029e-05
3.30449e-05
0.000583121
0.0378401
0.000583121
0.00031491
0.000953596
0.0618724
0.000953596
0.000515216
0.000485238
0.0314758
0.000485238
0.000262382
3.21984e-05
0.00208766
3.21984e-05
1.74356e-05
9.97016e-05
0.006459
9.97016e-05
5.41304e-05
0.000340355
0.0220124
0.000340355
0.000185757
0.000283996
0.0182939
0.000283996
0.000156927
4.56468e-05
0.00290091
4.56468e-05
2.62587e-05
5.10473e-05
0.00288869
5.10473e-05
3.86886e-05
0.000403417
0.018028
0.000403417
0.000431632
0.00033889
0.0213344
0.00033889
0.000200255
9.46632e-05
0.00608673
9.46632e-05
5.26002e-05
2.90388e-05
0.00187734
2.90388e-05
1.58689e-05
0.00040445
0.0262044
0.00040445
0.000219528
0.000698678
0.0453167
0.000698678
0.000377942
0.000341827
0.0221848
0.000341827
0.00018455
2.32919e-05
0.00151223
2.32919e-05
1.25602e-05
0.00151612
0.0984579
0.00151612
0.000816964
0.00559713
0.363535
0.00559713
0.00301463
0.0103946
0.675184
0.0103946
0.00559713
0.675184
43.858
0.675184
0.363535
0.0103946
0.675184
0.0103946
0.00559713
0.00559713
0.363535
0.00559713
0.00301463
0.00151612
0.0984579
0.00151612
0.000816964
2.32919e-05
0.00151223
2.32919e-05
1.25602e-05
0.000341827
0.0221848
0.000341827
0.00018455
0.000698678
0.0453167
0.000698678
0.000377942
0.00040445
0.0262044
0.00040445
0.000219528
2.90388e-05
0.00187734
2.90388e-05
1.58689e-05
9.46632e-05
0.00608673
9.46632e-05
5.26002e-05
0.00033889
0.0213344
0.00033889
0.000200255
0.000403417
0.018028
0.000403417
0.000431632
5.10473e-05
0.00288869
5.10473e-05
3.86886e-05
4.56468e-05
0.00290091
4.56468e-05
2.62587e-05
0.000283996
0.0182939
0.000283996
0.000156927
0.000340355
0.0220124
0.000340355
0.000185757
9.97016e-05
0.006459
9.97016e-05
5.41304e-05
3.21984e-05
0.00208766
3.21984e-05
1.74356e-05
0.000485238
0.0314758
0.000485238
0.000262382
0.000953596
0.0618724
0.000953596
0.000515216
0.000583121
0.0378401
0.000583121
0.00031491
6.12029e-05
0.00397187
6.12029e-05
3.30449e-05
0.0122325
0.79386
0.0122325
0.00660426
0.13853
8.98999
0.13853
0.0747979
0.00287614
0.186636
0.00287614
0.00155329
3.59287e-29
5.47846e-27
2.29095e-28
9.03674e-29
0.000417263
0.0270685
0.000417263
0.00022556
-1
-1
-1
-1
-1
-1
-1
-1
-1
-1
-1
-1
-1
-1
-1
-1
-1
-1
-1
-1
-1
-1
-1
-1
-1
-1
-1
-1
-1
-1
-1
-1
-1
-1
-1
-1
-1
-1
-1
-1
-1
-1
-1
-1
-1
-1
-1
-1
-1
-1
-1
-1
0.00490888
0.318097
0.00490888
0.0026628
0.0039451
0.255817
0.0039451
0.00213544
1.41565e-27
1.42054e-26
1.42842e-27
3.55985e-27
0.0272617
1.769
0.0272617
0.0147244
1.3151
85.3471
1.3151
0.710006
0.116326
7.54945
0.116326
0.0628002
0.000583121
0.0378401
0.000583121
0.00031491
0.00556741
0.361193
0.00556741
0.003009
0.00912561
0.591773
0.00912561
0.00493906
0.00465562
0.301679
0.00465562
0.00252574
0.000309855
0.0200527
0.000309855
0.000168773
0.000963
0.0621803
0.000963
0.000528249
0.00330428
0.212399
0.00330428
0.00183765
0.00278181
0.176932
0.00278181
0.00159648
0.00045791
0.0281225
0.00045791
0.000289072
0.000600872
0.0280699
0.000600872
0.000610909
0.00594496
0.175588
0.00594496
0.00872092
0.00347414
0.208264
0.00347414
0.00232667
0.000941071
0.0595479
0.000941071
0.000548116
0.000286774
0.0184046
0.000286774
0.000160254
0.00398796
0.257393
0.00398796
0.00219049
0.00688936
0.445907
0.00688936
0.00375144
0.0033726
0.218633
0.0033726
0.00182745
0.000229977
0.0149228
0.000229977
0.000124242
0.0149802
0.972616
0.0149802
0.00807774
0.0553337
3.59395
0.0553337
0.0298034
0.102798
6.67809
0.102798
0.0553337
6.67809
433.858
6.67809
3.59395
0.102798
6.67809
0.102798
0.0553337
0.0553337
3.59395
0.0553337
0.0298034
0.0149802
0.972616
0.0149802
0.00807774
0.000229977
0.0149228
0.000229977
0.000124242
0.0033726
0.218633
0.0033726
0.00182745
0.00688936
0.445907
0.00688936
0.00375144
0.00398796
0.257393
0.00398796
0.00219049
0.000286774
0.0184046
0.000286774
0.000160254
0.000941071
0.0595479
0.000941071
0.000548116
0.00347414
0.208264
0.00347414
0.00232667
0.00594496
0.175588
0.00594496
0.00872092
0.000600872
0.0280699
0.000600872
0.000610909
0.00045791
0.0281225
0.00045791
0.000289072
0.00278181
0.176932
0.00278181
0.00159648
0.00330428
0.212399
0.00330428
0.00183765
0.000963
0.0621803
0.000963
0.000528249
0.000309855
0.0200527
0.000309855
0.000168773
0.00465562
0.301679
0.00465562
0.00252574
0.00912561
0.591773
0.00912561
0.00493906
0.00556741
0.361193
0.00556741
0.003009
0.000583121
0.0378401
0.000583121
0.00031491
0.116326
7.54945
0.116326
0.0628002
1.3151
85.3471
1.3151
0.710006
0.0272617
1.769
0.0272617
0.0147244
3.08923e-29
1.66862e-27
1.08559e-28
7.63739e-29
0.0039451
0.255817
0.0039451
0.00213544
0.00490888
0.318097
0.00490888
0.0026628
-1
-1
-1
-1
-1
-1
-1
-1
-1
-1
-1
-1
-1
-1
-1
-1
-1
-1
-1
-1
-1
-1
-1
-1
-1
-1
-1
-1
-1
-1
-1
-1
-1
-1
-1
-1
-1
-1
-1
-1
-1
-1
-1
-1
0.00315159
0.203494
0.00315159
0.00172876
0.00795985
0.515079
0.00795985
0.00433675
0.00640142
0.414796
0.00640142
0.0034729
1.28951e-26
2.07318e-26
1.61368e-26
6.73424e-28
0.0443406
2.87704
0.0443406
0.023954
2.14234
139.038
2.14234
1.15651
0.189843
12.3207
0.189843
0.102487
0.000953596
0.0618724
0.000953596
0.000515216
0.00912561
0.591773
0.00912561
0.00493906
0.0149972
0.971601
0.0149972
0.0081415
0.00767446
0.496406
0.00767446
0.00418691
0.000512655
0.0330722
0.000512655
0.000281991
0.00160093
0.102796
0.00160093
0.000893275
0.0055324
0.351995
0.0055324
0.00317196
0.00471983
0.293948
0.00471983
0.00287256
0.000805786
0.0468394
0.000805786
0.000578081
0.00129746
0.0468697
0.00129746
0.00167905
0.015621
0.293922
0.015621
0.0272964
0.00629797
0.349477
0.00629797
0.00495273
0.0016253
0.100162
0.0016253
0.00101685
0.000489412
0.0310275
0.000489412
0.000283497
0.00678114
0.434848
0.00678114
0.00379871
0.0117038
0.754789
0.0117038
0.00644458
0.00573009
0.370717
0.00573009
0.00312441
0.000390928
0.0253402
0.000390928
0.00021189
0.0254789
1.65353
0.0254789
0.0137586
0.0941603
6.11525
0.0941603
0.0507305
0.174987
11.369
0.174987
0.0941603
11.369
738.744
11.369
6.11525
0.174987
11.369
0.174987
0.0941603
0.0941603
6.11525
0.0941603
0.0507305
0.0254789
1.65353
0.0254789
0.0137586
0.000390928
0.0253402
0.000390928
0.00021189
0.00573009
0.370717
0.00573009
0.00312441
0.0117038
0.754789
0.0117038
0.00644458
0.00678114
0.434848
0.00678114
0.00379871
0.000489412
0.0310275
0.000489412
0.000283497
0.0016253
0.100162
0.0016253
0.00101685
0.00629797
0.349477
0.00629797
0.00495273
0.015621
0.293922
0.015621
0.0272964
0.00129746
0.0468697
0.00129746
0.00167905
0.000805786
0.0468394