LAMMPS (7 Aug 2019)
variable number	equal 1
variable ofreq	equal 1000
variable efreq	equal 1000
variable T      equal 0.1

units lj

dimension 3

newton off

boundary  p p p

atom_style hybrid bond ellipsoid
atom_modify sort 0 1.0

# Pair interactions require lists of neighbours to be calculated
neighbor 1.0 bin
neigh_modify every 1 delay 0 check yes

read_data data.duplex3
  orthogonal box = (-20 -20 -20) to (20 20 20)
  1 by 1 by 1 MPI processor grid
  reading atoms ...
  10 atoms
  reading velocities ...
  10 velocities
  10 ellipsoids
  scanning bonds ...
  2 = max bonds/atom
  reading bonds ...
  8 bonds
  2 = max # of 1-2 neighbors
  2 = max # of 1-3 neighbors
  2 = max # of 1-4 neighbors
  4 = max # of special neighbors
  special bonds CPU = 0.000145 secs
  read_data CPU = 0.001965 secs

set atom * mass 1.0
  10 settings made for mass

group all type 1 4
10 atoms in group all

# oxDNA2 bond interactions - FENE backbone
bond_style oxdna2/fene
bond_coeff * 2.0 0.25 0.7564

# oxDNA2 pair interactions
pair_style hybrid/overlay oxdna2/excv oxdna2/stk oxdna2/hbond oxdna2/xstk oxdna2/coaxstk oxdna2/dh
pair_coeff * * oxdna2/excv    2.0 0.7 0.675 2.0 0.515 0.5 2.0 0.33 0.32
pair_coeff * * oxdna2/stk     seqdep ${T} 1.3523 2.6717 6.0 0.4 0.9 0.32 0.75 1.3 0 0.8 0.9 0 0.95 0.9 0 0.95 2.0 0.65 2.0 0.65
pair_coeff * * oxdna2/stk     seqdep 0.1 1.3523 2.6717 6.0 0.4 0.9 0.32 0.75 1.3 0 0.8 0.9 0 0.95 0.9 0 0.95 2.0 0.65 2.0 0.65
pair_coeff * * oxdna2/hbond   seqdep 0.0 8.0 0.4 0.75 0.34 0.7 1.5 0 0.7 1.5 0 0.7 1.5 0 0.7 0.46 3.141592653589793 0.7 4.0 1.5707963267948966 0.45 4.0 1.5707963267948966 0.45
pair_coeff 1 4 oxdna2/hbond   seqdep 1.0678 8.0 0.4 0.75 0.34 0.7 1.5 0 0.7 1.5 0 0.7 1.5 0 0.7 0.46 3.141592653589793 0.7 4.0 1.5707963267948966 0.45 4.0 1.5707963267948966 0.45
pair_coeff 2 3 oxdna2/hbond   seqdep 1.0678 8.0 0.4 0.75 0.34 0.7 1.5 0 0.7 1.5 0 0.7 1.5 0 0.7 0.46 3.141592653589793 0.7 4.0 1.5707963267948966 0.45 4.0 1.5707963267948966 0.45
pair_coeff * * oxdna2/xstk    47.5 0.575 0.675 0.495 0.655 2.25 0.791592653589793 0.58 1.7 1.0 0.68 1.7 1.0 0.68 1.5 0 0.65 1.7 0.875 0.68 1.7 0.875 0.68
pair_coeff * * oxdna2/coaxstk 58.5 0.4 0.6 0.22 0.58 2.0 2.891592653589793 0.65 1.3 0 0.8 0.9 0 0.95 0.9 0 0.95 40.0 3.116592653589793
pair_coeff * * oxdna2/dh      ${T} 1.0 0.815
pair_coeff * * oxdna2/dh      0.1 1.0 0.815

# NVE ensemble
fix 1 all nve/dot
#fix 1 all nve/dotc/langevin ${T} ${T} 0.03 457145 angmom 10
#fix 1 all nve/asphere
#fix 2 all langevin ${T} ${T} 0.03 457145 angmom 10

timestep 1e-5

#comm_style tiled
#fix 3 all balance 10000 1.1 rcb

#compute mol all chunk/atom molecule
#compute mychunk all vcm/chunk mol
#fix 4 all ave/time 10000 1 10000 c_mychunk[1] c_mychunk[2] c_mychunk[3] file vcm.txt mode vector

#dump pos all xyz ${ofreq} traj.${number}.xyz

#compute quat all property/atom quatw quati quatj quatk
#dump quat all custom ${ofreq} quat.${number}.txt id c_quat[1] c_quat[2] c_quat[3] c_quat[4]
#dump_modify quat sort id
#dump_modify quat format line "%d  %13.6le  %13.6le  %13.6le  %13.6le"

compute erot all erotate/asphere
compute ekin all ke
compute epot all pe
variable erot equal c_erot
variable ekin equal c_ekin
variable epot equal c_epot
variable etot equal c_erot+c_ekin+c_epot
fix 5 all print ${efreq} "$(step)  ekin = ${ekin} |  erot = ${erot} | epot = ${epot} | etot = ${etot}" screen yes
fix 5 all print 1000 "$(step)  ekin = ${ekin} |  erot = ${erot} | epot = ${epot} | etot = ${etot}" screen yes

#dump out all custom ${ofreq} out.${number}.txt id x y z vx vy vz fx fy fz tqx tqy tqz
#dump_modify out sort id
#dump_modify out format line "%d   %13.6le %13.6le %13.6le  %13.6le %13.6le %13.6le  %13.6le %13.6le %13.6le  %13.6le %13.6le %13.6le"

run 1000000
Neighbor list info ...
  update every 1 steps, delay 0 steps, check yes
  max neighbors/atom: 2000, page size: 100000
  master list distance cutoff = 2.6274
  ghost atom cutoff = 2.6274
  binsize = 1.3137, bins = 31 31 31
  6 neighbor lists, perpetual/occasional/extra = 6 0 0
  (1) pair oxdna2/excv, perpetual
      attributes: half, newton off
      pair build: half/bin/newtoff
      stencil: half/bin/3d/newtoff
      bin: standard
  (2) pair oxdna2/stk, perpetual, copy from (1)
      attributes: half, newton off
      pair build: copy
      stencil: none
      bin: none
  (3) pair oxdna2/hbond, perpetual, copy from (1)
      attributes: half, newton off
      pair build: copy
      stencil: none
      bin: none
  (4) pair oxdna2/xstk, perpetual, copy from (1)
      attributes: half, newton off
      pair build: copy
      stencil: none
      bin: none
  (5) pair oxdna2/coaxstk, perpetual, copy from (1)
      attributes: half, newton off
      pair build: copy
      stencil: none
      bin: none
  (6) pair oxdna2/dh, perpetual, copy from (1)
      attributes: half, newton off
      pair build: copy
      stencil: none
      bin: none
Per MPI rank memory allocation (min/avg/max) = 3.024 | 3.024 | 3.024 Mbytes
Step Temp E_pair E_mol TotEng Press 
       0            0   -1.4720158  0.009525411   -1.4624904 3.1370518e-06 
1000  ekin = 0.00366431201929618 |  erot = 0.00193726360267488 | epot = -14.630505317301 | etot = -14.624903741679
2000  ekin = 0.0144775076075466 |  erot = 0.00770914672938582 | epot = -14.6470903960565 | etot = -14.6249037417196
3000  ekin = 0.0319122186081549 |  erot = 0.0171972328649101 | epot = -14.6740131932573 | etot = -14.6249037417842
4000  ekin = 0.0551283043509704 |  erot = 0.0302085305548002 | epot = -14.7102405767754 | etot = -14.6249037418696
5000  ekin = 0.0830285165715823 |  erot = 0.0464820547541705 | epot = -14.7544143132963 | etot = -14.6249037419705
6000  ekin = 0.114331121546757 |  erot = 0.0656980211282096 | epot = -14.8049328847556 | etot = -14.6249037420806
7000  ekin = 0.147653866561892 |  erot = 0.0874894888755386 | epot = -14.860047097631 | etot = -14.6249037421936
8000  ekin = 0.181602099560207 |  erot = 0.111456095727703 | epot = -14.9179619375911 | etot = -14.6249037423032
9000  ekin = 0.214852894725919 |  erot = 0.137179311245174 | epot = -14.9769359483746 | etot = -14.6249037424035
10000  ekin = 0.246227151956033 |  erot = 0.164238435218395 | epot = -15.0353693296648 | etot = -14.6249037424904
11000  ekin = 0.274743080419051 |  erot = 0.192226420003239 | epot = -15.0918732429829 | etot = -14.6249037425607
12000  ekin = 0.2996471417657 |  erot = 0.220764512146651 | epot = -15.1453153965252 | etot = -14.6249037426128
13000  ekin = 0.320421918860966 |  erot = 0.249514690530541 | epot = -15.1948403520385 | etot = -14.624903742647
14000  ekin = 0.33677373488436 |  erot = 0.27818893373049 | epot = -15.2398664112793 | etot = -14.6249037426645
15000  ekin = 0.348605413762901 |  erot = 0.306554508009418 | epot = -15.2800636644399 | etot = -14.6249037426675
16000  ekin = 0.355980829097854 |  erot = 0.334434770083744 | epot = -15.3153193418402 | etot = -14.6249037426586
17000  ekin = 0.35908770105941 |  erot = 0.361705441666512 | epot = -15.3456968853664 | etot = -14.6249037426405
18000  ekin = 0.358203710992239 |  erot = 0.388286889516313 | epot = -15.3713943431242 | etot = -14.6249037426156
19000  ekin = 0.353668912555234 |  erot = 0.414133518537107 | epot = -15.3927061736788 | etot = -14.6249037425864
20000  ekin = 0.345865220775291 |  erot = 0.439221805285432 | epot = -15.4099907686153 | etot = -14.6249037425546
21000  ekin = 0.335201981146472 |  erot = 0.463538642606515 | epot = -15.4236443662748 | etot = -14.6249037425218
22000  ekin = 0.322105588834903 |  erot = 0.487071492273063 | epot = -15.4340808235971 | etot = -14.6249037424892
23000  ekin = 0.307010918596165 |  erot = 0.509801406229371 | epot = -15.4417160672832 | etot = -14.6249037424577
24000  ekin = 0.290352786033169 |  erot = 0.531699400501692 | epot = -15.446955928963 | etot = -14.6249037424281
25000  ekin = 0.272556500902037 |  erot = 0.552726088759198 | epot = -15.4501863320622 | etot = -14.624903742401
26000  ekin = 0.254027484079049 |  erot = 0.572834017299018 | epot = -15.4517652437547 | etot = -14.6249037423766
27000  ekin = 0.23514066521633 |  erot = 0.591971851501221 | epot = -15.4520162590729 | etot = -14.6249037423553
28000  ekin = 0.216230835846198 |  erot = 0.610089455964333 | epot = -15.4512240341478 | etot = -14.6249037423373
29000  ekin = 0.197585285158555 |  erot = 0.627142960082633 | epot = -15.4496319875635 | etot = -14.6249037423223
30000  ekin = 0.179439940173318 |  erot = 0.643099062793407 | epot = -15.4474427452769 | etot = -14.6249037423102
31000  ekin = 0.161979935826124 |  erot = 0.657938056392308 | epot = -15.4448217345186 | etot = -14.6249037423001
32000  ekin = 0.145345108983022 |  erot = 0.671655297433962 | epot = -15.4419041487086 | etot = -14.6249037422916
33000  ekin = 0.12964040034519 |  erot = 0.684261083518556 | epot = -15.4388052261475 | etot = -14.6249037422838
34000  ekin = 0.114950474500008 |  erot = 0.695779112936504 | epot = -15.4356333297121 | etot = -14.6249037422756
35000  ekin = 0.10135710346033 |  erot = 0.706243888527894 | epot = -15.4325047342544 | etot = -14.6249037422662
36000  ekin = 0.088957633457107 |  erot = 0.715697403164625 | epot = -15.4295587788764 | etot = -14.6249037422546
37000  ekin = 0.0778817390290652 |  erot = 0.72418563863568 | epot = -15.4269711199052 | etot = -14.6249037422404
38000  ekin = 0.068303709154812 |  erot = 0.731755309647473 | epot = -15.4249627610255 | etot = -14.6249037422232
39000  ekin = 0.0604476327394706 |  erot = 0.738451228922909 | epot = -15.4238026038659 | etot = -14.6249037422035
40000  ekin = 0.0545835914676979 |  erot = 0.7443145576821 | epot = -15.4238018913318 | etot = -14.624903742182
41000  ekin = 0.0510142787133839 |  erot = 0.749382063190735 | epot = -15.4253000840641 | etot = -14.6249037421599
42000  ekin = 0.0500531571157636 |  erot = 0.753686350478931 | epot = -15.428643249734 | etot = -14.6249037421393
43000  ekin = 0.0519969858278391 |  erot = 0.757256889238991 | epot = -15.4341576171885 | etot = -14.6249037421217
44000  ekin = 0.0570968352184469 |  erot = 0.760121540481399 | epot = -15.4421221178085 | etot = -14.6249037421087
45000  ekin = 0.065532155346979 |  erot = 0.762308219230476 | epot = -15.4527441166789 | etot = -14.6249037421014
46000  ekin = 0.077391880036746 |  erot = 0.763846321567568 | epot = -15.4661419437049 | etot = -14.6249037421006
47000  ekin = 0.0926650518887463 |  erot = 0.764767599959976 | epot = -15.4823363939546 | etot = -14.6249037421059
48000  ekin = 0.111241466891021 |  erot = 0.76510628368957 | epot = -15.5012514926977 | etot = -14.6249037421171
49000  ekin = 0.132920935183101 |  erot = 0.764898395951945 | epot = -15.5227230732685 | etot = -14.6249037421334
50000  ekin = 0.157428432862297 |  erot = 0.764180392178817 | epot = -15.5465125671951 | etot = -14.624903742154
51000  ekin = 0.184431879186394 |  erot = 0.762987403181186 | epot = -15.5723230245453 | etot = -14.6249037421777
52000  ekin = 0.213559336999611 |  erot = 0.761351471408957 | epot = -15.5998145506125 | etot = -14.6249037422039
53000  ekin = 0.244412677541745 |  erot = 0.759300175100897 | epot = -15.6286165948748 | etot = -14.6249037422322
54000  ekin = 0.276574826726797 |  erot = 0.756855909736049 | epot = -15.6583344787255 | etot = -14.6249037422626
55000  ekin = 0.30960770869724 |  erot = 0.754035838659133 | epot = -15.6885472896526 | etot = -14.6249037422962
56000  ekin = 0.343038597242155 |  erot = 0.750852192167397 | epot = -15.7187945317444 | etot = -14.6249037423348
57000  ekin = 0.376334705011604 |  erot = 0.747312289063754 | epot = -15.7485507364561 | etot = -14.6249037423808
58000  ekin = 0.408870193943412 |  erot = 0.743417624903535 | epot = -15.7771915612832 | etot = -14.6249037424363
59000  ekin = 0.439895666476021 |  erot = 0.739161690570186 | epot = -15.803961099549 | etot = -14.6249037425028
60000  ekin = 0.468524372325726 |  erot = 0.734526514748657 | epot = -15.8279546296536 | etot = -14.6249037425792
61000  ekin = 0.493750804630799 |  erot = 0.729479048550173 | epot = -15.8481335958428 | etot = -14.6249037426618
62000  ekin = 0.514511417905549 |  erot = 0.723968952963015 | epot = -15.8633841136119 | etot = -14.6249037427433
63000  ekin = 0.529785687820656 |  erot = 0.717929490923262 | epot = -15.8726189215586 | etot = -14.6249037428146
64000  ekin = 0.538722043349821 |  erot = 0.711282639870032 | epot = -15.874908426086 | etot = -14.6249037428661
65000  ekin = 0.540763046401741 |  erot = 0.703948378732647 | epot = -15.8696151680245 | etot = -14.6249037428901
66000  ekin = 0.535742115226795 |  erot = 0.69585678068686 | epot = -15.856502638796 | etot = -14.6249037428824
67000  ekin = 0.523930969354056 |  erot = 0.686960578434575 | epot = -15.8357952906315 | etot = -14.6249037428429
68000  ekin = 0.506029704478054 |  erot = 0.677245632040232 | epot = -15.8081790792936 | etot = -14.6249037427753
69000  ekin = 0.483104826199992 |  erot = 0.666737270644537 | epot = -15.774745839531 | etot = -14.6249037426865
70000  ekin = 0.456490218293252 |  erot = 0.655501536743317 | epot = -15.7368954976212 | etot = -14.6249037425847
71000  ekin = 0.427669918862549 |  erot = 0.643641521526345 | epot = -15.6962151828672 | etot = -14.6249037424783
72000  ekin = 0.398160338931557 |  erot = 0.631289876691081 | epot = -15.654353957998 | etot = -14.6249037423754
73000  ekin = 0.369405258276815 |  erot = 0.618599034382849 | epot = -15.6129080349415 | etot = -14.6249037422819
74000  ekin = 0.342691749042209 |  erot = 0.605730669564501 | epot = -15.5733261608092 | etot = -14.6249037422025
75000  ekin = 0.31909052680686 |  erot = 0.59284563490598 | epot = -15.5368399038529 | etot = -14.62490374214
76000  ekin = 0.299420611427412 |  erot = 0.580095163563671 | epot = -15.5044195170868 | etot = -14.6249037420957
77000  ekin = 0.284235504574989 |  erot = 0.567613716752661 | epot = -15.4767529633973 | etot = -14.6249037420697
78000  ekin = 0.273826140866561 |  erot = 0.555513536864305 | epot = -15.454243419792 | etot = -14.6249037420611
79000  ekin = 0.268234635497613 |  erot = 0.54388078034572 | epot = -15.4370191579124 | etot = -14.624903742069
80000  ekin = 0.267272602906451 |  erot = 0.532773036269929 | epot = -15.4249493812687 | etot = -14.6249037420923
81000  ekin = 0.270538934182559 |  erot = 0.522218059775773 | epot = -15.4176607360884 | etot = -14.6249037421301
82000  ekin = 0.277434574359295 |  erot = 0.512213638248342 | epot = -15.4145519547894 | etot = -14.6249037421818
83000  ekin = 0.287175732620333 |  erot = 0.50272864056942 | epot = -15.414808115436 | etot = -14.6249037422462
84000  ekin = 0.298811175848678 |  erot = 0.493705451301681 | epot = -15.4174203694717 | etot = -14.6249037423214
85000  ekin = 0.311252369949697 |  erot = 0.485064122067565 | epot = -15.4212202344211 | etot = -14.6249037424038
86000  ekin = 0.323325626375984 |  erot = 0.476708618161036 | epot = -15.424937987025 | etot = -14.624903742488
87000  ekin = 0.333851795518747 |  erot = 0.468535420697862 | epot = -15.4272909587828 | etot = -14.6249037425662
88000  ekin = 0.341751109758396 |  erot = 0.460444399763919 | epot = -15.427099252152 | etot = -14.6249037426296
89000  ekin = 0.346159825920001 |  erot = 0.452351304178873 | epot = -15.4234148727693 | etot = -14.6249037426704
90000  ekin = 0.346534667470265 |  erot = 0.444200535918399 | epot = -15.4156389460718 | etot = -14.6249037426831
91000  ekin = 0.342715665475867 |  erot = 0.435976333753397 | epot = -15.4035957418967 | etot = -14.6249037426674
92000  ekin = 0.3349227158513 |  erot = 0.427710377227648 | epot = -15.3875368357071 | etot = -14.6249037426282
93000  ekin = 0.323677844433752 |  erot = 0.419484336039963 | epot = -15.3680659230484 | etot = -14.6249037425747
94000  ekin = 0.30966978292125 |  erot = 0.411426964072553 | epot = -15.3460004895119 | etot = -14.6249037425181
95000  ekin = 0.293600014861622 |  erot = 0.403706586473099 | epot = -15.3222103438021 | etot = -14.6249037424674
96000  ekin = 0.276058284884091 |  erot = 0.396520701306161 | epot = -15.2974827286175 | etot = -14.6249037424272
97000  ekin = 0.25746445629565 |  erot = 0.390084510982946 | epot = -15.2724527096753 | etot = -14.6249037423967
98000  ekin = 0.238086767082953 |  erot = 0.384619533405539 | epot = -15.2476100428595 | etot = -14.624903742371
99000  ekin = 0.218116994125883 |  erot = 0.380342481668092 | epot = -15.2233632181382 | etot = -14.6249037423442
100000  ekin = 0.197764845956536 |  erot = 0.377453964065333 | epot = -15.2001225523339 | etot = -14.624903742312
101000  ekin = 0.177333852671335 |  erot = 0.376126621697227 | epot = -15.1783642166414 | etot = -14.6249037422728
102000  ekin = 0.157255732179445 |  erot = 0.376493003927733 | epot = -15.1586524783356 | etot = -14.6249037422284
103000  ekin = 0.138079925448889 |  erot = 0.378634329970018 | epot = -15.1416179976015 | etot = -14.6249037421826
104000  ekin = 0.120430234291316 |  erot = 0.382571791335251 | epot = -15.1279057677665 | etot = -14.6249037421399
105000  ekin = 0.10494672239352 |  erot = 0.388261944551333 | epot = -15.118112409049 | etot = -14.6249037421041
106000  ekin = 0.0922291289493497 |  erot = 0.395597086392468 | epot = -15.11272995742 | etot = -14.6249037420782
107000  ekin = 0.0827918191991084 |  erot = 0.404410579138465 | epot = -15.112106140401 | etot = -14.6249037420634
108000  ekin = 0.0770336430609741 |  erot = 0.414486225075992 | epot = -15.116423610197 | etot = -14.62490374206
109000  ekin = 0.075221312117861 |  erot = 0.425570202879186 | epot = -15.1256952570646 | etot = -14.6249037420675
110000  ekin = 0.0774826364247882 |  erot = 0.437383858086522 | epot = -15.1397702365965 | etot = -14.6249037420852
111000  ekin = 0.0838057148048547 |  erot = 0.449635759436015 | epot = -15.1583452163526 | etot = -14.6249037421117
112000  ekin = 0.0940411317710077 |  erot = 0.462031808376879 | epot = -15.1809766822946 | etot = -14.6249037421467
113000  ekin = 0.107905661684195 |  erot = 0.474282718869093 | epot = -15.2070921227426 | etot = -14.6249037421893
114000  ekin = 0.124987416380568 |  erot = 0.486108767327343 | epot = -15.2359999259468 | etot = -14.6249037422389
115000  ekin = 0.14475347442169 |  erot = 0.497242253023055 | epot = -15.2668994697394 | etot = -14.6249037422947
116000  ekin = 0.166561593123301 |  erot = 0.507428522971045 | epot = -15.2988938584499 | etot = -14.6249037423555
117000  ekin = 0.189677527330859 |  erot = 0.516426638198687 | epot = -15.3310079079495 | etot = -14.6249037424199
118000  ekin = 0.213298790897302 |  erot = 0.524010758771369 | epot = -15.3622132921543 | etot = -14.6249037424857
119000  ekin = 0.23658457696156 |  erot = 0.529973112381439 | epot = -15.3914614318934 | etot = -14.6249037425504
120000  ekin = 0.25869030185824 |  erot = 0.534129034925715 | epot = -15.4177230793952 | etot = -14.6249037426113
121000  ekin = 0.278804196532859 |  erot = 0.536324108799716 | epot = -15.4400320479982 | etot = -14.6249037426656
122000  ekin = 0.296182819519396 |  erot = 0.536442962870823 | epot = -15.4575295251008 | etot = -14.6249037427106
123000  ekin = 0.310182446405815 |  erot = 0.534418915104236 | epot = -15.4695051042542 | etot = -14.6249037427442
124000  ekin = 0.320283972930007 |  erot = 0.530243389137678 | epot = -15.4754311048322 | etot = -14.6249037427645
125000  ekin = 0.326110081462184 |  erot = 0.523973945236141 | epot = -15.474987769469 | etot = -14.6249037427707
126000  ekin = 0.327434709614433 |  erot = 0.515739832556637 | epot = -15.4680782849335 | etot = -14.6249037427625
127000  ekin = 0.324186046690112 |  erot = 0.505744172152634 | epot = -15.4548339615826 | etot = -14.6249037427399
128000  ekin = 0.316445106703942 |  erot = 0.49426218578474 | epot = -15.4356110351922 | etot = -14.6249037427035
129000  ekin = 0.304442167762443 |  erot = 0.481635256753056 | epot = -15.4109811671698 | etot = -14.6249037426543
130000  ekin = 0.288552887156219 |  erot = 0.468261006625427 | epot = -15.381717636375 | etot = -14.6249037425933
131000  ekin = 0.269294696165104 |  erot = 0.454579955598623 | epot = -15.3487783942857 | etot = -14.624903742522
132000  ekin = 0.247322351785515 |  erot = 0.44105966132284 | epot = -15.3132857555502 | etot = -14.6249037424419
133000  ekin = 0.223419723871429 |  erot = 0.428177456066543 | epot = -15.276500922293 | etot = -14.6249037423551
134000  ekin = 0.198483666316777 |  erot = 0.416402982921072 | epot = -15.2397903915022 | etot = -14.6249037422644
135000  ekin = 0.173495806295108 |  erot = 0.40618164100245 | epot = -15.2045811894712 | etot = -14.6249037421736
136000  ekin = 0.149479658252647 |  erot = 0.397919790440824 | epot = -15.1723031907806 | etot = -14.6249037420871
137000  ekin = 0.127443476996608 |  erot = 0.391972186713592 | epot = -15.1443194057199 | etot = -14.6249037420097
138000  ekin = 0.10831297052536 |  erot = 0.388631700836367 | epot = -15.1218484133082 | etot = -14.6249037419464
139000  ekin = 0.0928612988418002 |  erot = 0.388121053034821 | epot = -15.1058860937783 | etot = -14.6249037419017
140000  ekin = 0.0816456573910084 |  erot = 0.390586148388801 | epot = -15.0971355476587 | etot = -14.6249037418789
141000  ekin = 0.0749596349872437 |  erot = 0.396090706683564 | epot = -15.0959540835505 | etot = -14.6249037418797
142000  ekin = 0.0728085537690405 |  erot = 0.404612196534891 | epot = -15.1023244922084 | etot = -14.6249037419044
143000  ekin = 0.0749117535383842 |  erot = 0.416039504837645 | epot = -15.1158550003269 | etot = -14.6249037419509
144000  ekin = 0.0807320498020964 |  erot = 0.43017313668478 | epot = -15.1358089285024 | etot = -14.6249037420156
145000  ekin = 0.08952902558338 |  erot = 0.446728893938156 | epot = -15.1611616616151 | etot = -14.6249037420935
146000  ekin = 0.100429851263191 |  erot = 0.465345829669622 | epot = -15.1906794231115 | etot = -14.6249037421787
147000  ekin = 0.112509264558581 |  erot = 0.485598823528122 | epot = -15.2230118303515 | etot = -14.6249037422648
148000  ekin = 0.124869425792591 |  erot = 0.507015469189552 | epot = -15.2567886373282 | etot = -14.6249037423461
149000  ekin = 0.136710750658436 |  erot = 0.529096273051187 | epot = -15.290710766127 | etot = -14.6249037424174
150000  ekin = 0.147386480806171 |  erot = 0.551336607352345 | epot = -15.323626830634 | etot = -14.6249037424755
151000  ekin = 0.156436378416032 |  erot = 0.573248570645276 | epot = -15.3545886915794 | etot = -14.6249037425181
152000  ekin = 0.163597998371653 |  erot = 0.594380933602923 | epot = -15.3828826745196 | etot = -14.624903742545
153000  ekin = 0.168796920199611 |  erot = 0.614335653334474 | epot = -15.4080363160912 | etot = -14.6249037425571
154000  ekin = 0.172119667637745 |  erot = 0.63277992909172 | epot = -15.4298033392862 | etot = -14.6249037425567
155000  ekin = 0.173774602206285 |  erot = 0.649453329865168 | epot = -15.448131674618 | etot = -14.6249037425466
156000  ekin = 0.174046854480021 |  erot = 0.664170048550552 | epot = -15.4631206455605 | etot = -14.62490374253
157000  ekin = 0.173253451016122 |  erot = 0.676816762702534 | epot = -15.4749739562284 | etot = -14.6249037425097
158000  ekin = 0.171704281293749 |  erot = 0.687346881268012 | epot = -15.48395490505 | etot = -14.6249037424883
159000  ekin = 0.169673443699862 |  erot = 0.695772131173121 | epot = -15.4903493173403 | etot = -14.6249037424673
160000  ekin = 0.167383826014546 |  erot = 0.702152502586509 | epot = -15.4944400710487 | etot = -14.6249037424476
161000  ekin = 0.165005624031702 |  erot = 0.706585545944493 | epot = -15.4964949124054 | etot = -14.6249037424292
162000  ekin = 0.162667154471752 |  erot = 0.709195914790859 | epot = -15.4967668116741 | etot = -14.6249037424115
163000  ekin = 0.160474189581485 |  erot = 0.710125892129829 | epot = -15.4955038241048 | etot = -14.6249037423935
164000  ekin = 0.158532578972596 |  erot = 0.709527441008927 | epot = -15.4929637623557 | etot = -14.6249037423742
165000  ekin = 0.156968465370669 |  erot = 0.707556101121189 | epot = -15.4894283088449 | etot = -14.624903742353
166000  ekin = 0.155941053191124 |  erot = 0.704366832058078 | epot = -15.4852116275794 | etot = -14.6249037423302
167000  ekin = 0.155644496809548 |  erot = 0.700111698658369 | epot = -15.4806599377741 | etot = -14.6249037423062
168000  ekin = 0.156297672988182 |  erot = 0.694939119112873 | epot = -15.4761405343834 | etot = -14.6249037422823
169000  ekin = 0.158122923325456 |  erot = 0.688994262094025 | epot = -15.4720209276801 | etot = -14.6249037422606
170000  ekin = 0.161316852937676 |  erot = 0.682420091513849 | epot = -15.4686406866943 | etot = -14.6249037422428
171000  ekin = 0.166017619146822 |  erot = 0.675358520304806 | epot = -15.4662798816825 | etot = -14.6249037422309
172000  ekin = 0.172273671159511 |  erot = 0.667951149520835 | epot = -15.4651285629069 | etot = -14.6249037422266
173000  ekin = 0.180018623556049 |  erot = 0.660339136127854 | epot = -15.4652615019149 | etot = -14.624903742231
174000  ekin = 0.189056055744924 |  erot = 0.65266185183192 | epot = -15.4666216498214 | etot = -14.6249037422445
175000  ekin = 0.199056860650113 |  erot = 0.645054167286172 | epot = -15.4690147702031 | etot = -14.6249037422668
176000  ekin = 0.209570701317552 |  erot = 0.637642422787005 | epot = -15.4721168664013 | etot = -14.6249037422967
177000  ekin = 0.220052442974625 |  erot = 0.630539423737628 | epot = -15.4754956090443 | etot = -14.6249037423321
178000  ekin = 0.229904071991194 |  erot = 0.623839102439311 | epot = -15.4786469168001 | etot = -14.6249037423696
179000  ekin = 0.238532114427982 |  erot = 0.617611757777875 | epot = -15.4810476146108 | etot = -14.624903742405
180000  ekin = 0.245419064060292 |  erot = 0.611900922402653 | epot = -15.4822237288957 | etot = -14.6249037424328
181000  ekin = 0.250203926055771 |  erot = 0.606722796615248 | epot = -15.4818304651186 | etot = -14.6249037424476
182000  ekin = 0.252761402919565 |  erot = 0.602068750131856 | epot = -15.4797338954959 | etot = -14.6249037424445
183000  ekin = 0.253262634974054 |  erot = 0.597910660168588 | epot = -15.4760770375641 | etot = -14.6249037424214
184000  ekin = 0.252195762131878 |  erot = 0.594208023726969 | epot = -15.4713075282387 | etot = -14.6249037423799
185000  ekin = 0.250326113306321 |  erot = 0.59091517967259 | epot = -15.4661450353052 | etot = -14.6249037423263
186000  ekin = 0.248586758541649 |  erot = 0.587986907734566 | epot = -15.4614774085478 | etot = -14.6249037422716
187000  ekin = 0.247909630265846 |  erot = 0.585381224303701 | epot = -15.4581945967982 | etot = -14.6249037422286
188000  ekin = 0.2490290523945 |  erot = 0.583059148733781 | epot = -15.4569919433378 | etot = -14.6249037422095
189000  ekin = 0.252303803181127 |  erot = 0.580982165409763 | epot = -15.4581897108128 | etot = -14.6249037422219
190000  ekin = 0.25760376351551 |  erot = 0.579108718145144 | epot = -15.4616162239281 | etot = -14.6249037422675
191000  ekin = 0.264292655598098 |  erot = 0.577391223758838 | epot = -15.4665876216975 | etot = -14.6249037423406
192000  ekin = 0.271315385056409 |  erot = 0.575774831089113 | epot = -15.4719939585751 | etot = -14.6249037424296
193000  ekin = 0.277374539132748 |  erot = 0.574198584868256 | epot = -15.4764768665202 | etot = -14.6249037425192
194000  ekin = 0.281161076019677 |  erot = 0.572598913484698 | epot = -15.478663732098 | etot = -14.6249037425936
195000  ekin = 0.281592637347121 |  erot = 0.570914645865623 | epot = -15.4774110258523 | etot = -14.6249037426396
196000  ekin = 0.278011867235596 |  erot = 0.569092314484759 | epot = -15.4720079243693 | etot = -14.624903742649
197000  ekin = 0.270307527592762 |  erot = 0.567090473639989 | epot = -15.4623017438531 | etot = -14.6249037426204
198000  ekin = 0.258940359975855 |  erot = 0.564882125458807 | epot = -15.4487262279927 | etot = -14.6249037425581
199000  ekin = 0.244877476699234 |  erot = 0.562454912721902 | epot = -15.4322361318925 | etot = -14.6249037424713
200000  ekin = 0.229456931018641 |  erot = 0.559809284042077 | epot = -15.4141699574324 | etot = -14.6249037423716
201000  ekin = 0.214214012278847 |  erot = 0.556955381706859 | epot = -15.3960731362566 | etot = -14.6249037422709
202000  ekin = 0.200701376135036 |  erot = 0.553909032488863 | epot = -15.3795141508034 | etot = -14.6249037421795
203000  ekin = 0.190329688710817 |  erot = 0.550687503827512 | epot = -15.3659209346435 | etot = -14.6249037421052
204000  ekin = 0.184246973275337 |  erot = 0.547306655840007 | epot = -15.356457371168 | etot = -14.6249037420527
205000  ekin = 0.183262973705813 |  erot = 0.543779043729278 | epot = -15.3519457594592 | etot = -14.6249037420241
206000  ekin = 0.187816949073515 |  erot = 0.540113432736619 | epot = -15.3528341238291 | etot = -14.624903742019
207000  ekin = 0.197980929490512 |  erot = 0.536315658388676 | epot = -15.3592003299145 | etot = -14.6249037420353
208000  ekin = 0.213487612677366 |  erot = 0.53239049820727 | epot = -15.3707818529549 | etot = -14.6249037420703
209000  ekin = 0.233772362712521 |  erot = 0.528344018725095 | epot = -15.3870201235584 | etot = -14.6249037421208
210000  ekin = 0.258021408692355 |  erot = 0.524185756556833 | epot = -15.4071109074329 | etot = -14.6249037421837
211000  ekin = 0.285222208429996 |  erot = 0.519930104708342 | epot = -15.4300560553942 | etot = -14.6249037422558
212000  ekin = 0.314215813604987 |  erot = 0.515596398128489 | epot = -15.454715954067 | etot = -14.6249037423335
213000  ekin = 0.343753634043937 |  erot = 0.511207450608882 | epot = -15.4798648270658 | etot = -14.624903742413
214000  ekin = 0.372561594270316 |  erot = 0.506786560075337 | epot = -15.5042518968352 | etot = -14.6249037424895
215000  ekin = 0.399412456462858 |  erot = 0.502353347158712 | epot = -15.5266695461799 | etot = -14.6249037425583
216000  ekin = 0.423202666203616 |  erot = 0.497919155944113 | epot = -15.5460255647623 | etot = -14.6249037426146
217000  ekin = 0.443025226540025 |  erot = 0.493483013679004 | epot = -15.5614119828738 | etot = -14.6249037426548
218000  ekin = 0.458227302378849 |  erot = 0.489029294856436 | epot = -15.5721603399122 | etot = -14.6249037426769
219000  ekin = 0.46844301918404 |  erot = 0.484528125251435 | epot = -15.5778748871159 | etot = -14.6249037426804
220000  ekin = 0.473598483116685 |  erot = 0.479939108990801 | epot = -15.5784413347739 | etot = -14.6249037426664
221000  ekin = 0.473894168318713 |  erot = 0.475218183432529 | epot = -15.5740160943878 | etot = -14.6249037426366
222000  ekin = 0.46977401404952 |  erot = 0.470326483973494 | epot = -15.565004240616 | etot = -14.624903742593
223000  ekin = 0.461887320397438 |  erot = 0.465239349169368 | epot = -15.552030412105 | etot = -14.6249037425382
224000  ekin = 0.45104133642262 |  erot = 0.459953336121611 | epot = -15.5358984150202 | etot = -14.624903742476
225000  ekin = 0.438137198422833 |  erot = 0.454489515561399 | epot = -15.5175304563959 | etot = -14.6249037424116
226000  ekin = 0.424086332826247 |  erot = 0.448892294163513 | epot = -15.4978823693413 | etot = -14.6249037423516
227000  ekin = 0.409717105195145 |  erot = 0.443224250669953 | epot = -15.4778450981665 | etot = -14.6249037423014
228000  ekin = 0.395692916861505 |  erot = 0.437558473222737 | epot = -15.4581551323492 | etot = -14.6249037422649
229000  ekin = 0.382463318564619 |  erot = 0.431970318931211 | epot = -15.4393373797385 | etot = -14.6249037422426
230000  ekin = 0.370258116730603 |  erot = 0.426530223272752 | epot = -15.421692082236 | etot = -14.6249037422326
231000  ekin = 0.359118625017489 |  erot = 0.421298440292615 | epot = -15.4053208075415 | etot = -14.6249037422314
232000  ekin = 0.348949729121418 |  erot = 0.416321816462733 | epot = -15.3901752878198 | etot = -14.6249037422357
233000  ekin = 0.339575284188205 |  erot = 0.411632247273789 | epot = -15.3761112737045 | etot = -14.6249037422425
234000  ekin = 0.330784909163314 |  erot = 0.407246384303571 | epot = -15.362935035717 | etot = -14.6249037422501
235000  ekin = 0.322367248495157 |  erot = 0.403166248673602 | epot = -15.350437239426 | etot = -14.6249037422572
236000  ekin = 0.314129851889501 |  erot = 0.399380677843556 | epot = -15.3384142719966 | etot = -14.6249037422635
237000  ekin = 0.305908300164827 |  erot = 0.395867600047935 | epot = -15.3266796424818 | etot = -14.624903742269
238000  ekin = 0.297568064657773 |  erot = 0.39259715720464 | epot = -15.3150689641361 | etot = -14.6249037422737
239000  ekin = 0.289002756414808 |  erot = 0.389535643317172 | epot = -15.3034421420093 | etot = -14.6249037422773
240000  ekin = 0.280132201614557 |  erot = 0.386650129641611 | epot = -15.291686073536 | etot = -14.6249037422798
241000  ekin = 0.270903172980175 |  erot = 0.383913574227223 | epot = -15.2797204894877 | etot = -14.6249037422803
242000  ekin = 0.261294311101929 |  erot = 0.381310019034114 | epot = -15.2675080724141 | etot = -14.624903742278
243000  ekin = 0.251325265433967 |  erot = 0.378839435319614 | epot = -15.255068443025 | etot = -14.6249037422714
244000  ekin = 0.241068460184099 |  erot = 0.376521662813181 | epot = -15.2424938652571 | etot = -14.6249037422598
245000  ekin = 0.230660579660543 |  erot = 0.374398842117411 | epot = -15.2299631640205 | etot = -14.6249037422425
246000  ekin = 0.220310176855077 |  erot = 0.372535772164605 | epot = -15.2177496912391 | etot = -14.6249037422194
247000  ekin = 0.21029792040831 |  erot = 0.371017759432739 | epot = -15.2062194220324 | etot = -14.6249037421913
248000  ekin = 0.200966973970282 |  erot = 0.369945779906298 | epot = -15.1958164960366 | etot = -14.62490374216
249000  ekin = 0.19270275205643 |  erot = 0.369429135338942 | epot = -15.1870356295232 | etot = -14.6249037421279
250000  ekin = 0.18590352409262 |  erot = 0.369576201101644 | epot = -15.1803834672921 | etot = -14.6249037420978
251000  ekin = 0.180945546219597 |  erot = 0.370484246994953 | epot = -15.1763335352872 | etot = -14.6249037420727
252000  ekin = 0.178147956309677 |  erot = 0.372229589272508 | epot = -15.1752812876371 | etot = -14.624903742055
253000  ekin = 0.177743031465493 |  erot = 0.374859230993345 | epot = -15.1775060045052 | etot = -14.6249037420463
254000  ekin = 0.179856300055144 |  erot = 0.378385037101541 | epot = -15.1831450792041 | etot = -14.6249037420475
255000  ekin = 0.184498455786623 |  erot = 0.382781080046676 | epot = -15.1921832778916 | etot = -14.6249037420583
256000  ekin = 0.191568141873245 |  erot = 0.387983970946509 | epot = -15.2044558548979 | etot = -14.6249037420781
257000  ekin = 0.200862084874684 |  erot = 0.39389562099413 | epot = -15.2196614479746 | etot = -14.6249037421058
258000  ekin = 0.212087875567067 |  erot = 0.400387498987617 | epot = -15.2373791166953 | etot = -14.6249037421406
259000  ekin = 0.22487530619229 |  erot = 0.407305396776974 | epot = -15.2570844451511 | etot = -14.6249037421818
260000  ekin = 0.238784314763371 |  erot = 0.414473950040919 | epot = -15.2781620070334 | etot = -14.6249037422291
261000  ekin = 0.253310397642053 |  erot = 0.42170059668304 | epot = -15.2999147366073 | etot = -14.6249037422822
262000  ekin = 0.267890750412286 |  erot = 0.428779149459046 | epot = -15.3215736422117 | etot = -14.6249037423403
263000  ekin = 0.281915541777785 |  erot = 0.435493571930371 | epot = -15.3423128561102 | etot = -14.6249037424021
264000  ekin = 0.294748319449044 |  erot = 0.441622773940652 | epot = -15.3612748358547 | etot = -14.624903742465
265000  ekin = 0.305757851305137 |  erot = 0.446947232466447 | epot = -15.3776088262971 | etot = -14.6249037425255
266000  ekin = 0.314361275702132 |  erot = 0.451257984268096 | epot = -15.3905230025497 | etot = -14.6249037425794
267000  ekin = 0.320075758813841 |  erot = 0.454368036195507 | epot = -15.3993475376314 | etot = -14.624903742622
268000  ekin = 0.322573111285627 |  erot = 0.456125517716869 | epot = -15.403602371651 | etot = -14.6249037426485
269000  ekin = 0.321728949456794 |  erot = 0.456427019949868 | epot = -15.403059712062 | etot = -14.6249037426553
270000  ekin = 0.31765519820333 |  erot = 0.45522869606994 | epot = -15.3977876369143 | etot = -14.624903742641
271000  ekin = 0.310703151367432 |  erot = 0.452552178355822 | epot = -15.3881590723309 | etot = -14.6249037426077
272000  ekin = 0.301426233536413 |  erot = 0.448482664562071 | epot = -15.3748126406594 | etot = -14.6249037425609
273000  ekin = 0.290499502093209 |  erot = 0.443158007811074 | epot = -15.3585612524138 | etot = -14.6249037425095
274000  ekin = 0.278606962226069 |  erot = 0.436750209657617 | epot = -15.3402609143468 | etot = -14.6249037424631
275000  ekin = 0.26632348034077 |  erot = 0.429443553158618 | epot = -15.3206707759287 | etot = -14.6249037424293
276000  ekin = 0.254026977158081 |  erot = 0.421415402004818 | epot = -15.3003461215739 | etot = -14.624903742411
277000  ekin = 0.241871064453538 |  erot = 0.412825312322111 | epot = -15.2796001191811 | etot = -14.6249037424054
278000  ekin = 0.229828041579721 |  erot = 0.403815416629946 | epot = -15.2585472006151 | etot = -14.6249037424054
279000  ekin = 0.217786141146189 |  erot = 0.394521119096963 | epot = -15.2372110026452 | etot = -14.624903742402
280000  ekin = 0.205666064593732 |  erot = 0.38508770303191 | epot = -15.2156575100133 | etot = -14.6249037423876
281000  ekin = 0.19351860427424 |  erot = 0.375686870762611 | epot = -15.194109217395 | etot = -14.6249037423581
282000  ekin = 0.181576720747694 |  erot = 0.366527860021383 | epot = -15.1730083230829 | etot = -14.6249037423139
283000  ekin = 0.170254050626048 |  erot = 0.357859944223912 | epot = -15.1530177371086 | etot = -14.6249037422586
284000  ekin = 0.16009863107041 |  erot = 0.349965713705531 | epot = -15.1349680869742 | etot = -14.6249037421982
285000  ekin = 0.151720356670754 |  erot = 0.343146625519695 | epot = -15.1197707243297 | etot = -14.6249037421393
286000  ekin = 0.145712559183906 |  erot = 0.337703485420487 | epot = -15.1083197866921 | etot = -14.6249037420877
287000  ekin = 0.142584250545045 |  erot = 0.33391483609244 | epot = -15.1014028286853 | etot = -14.6249037420479
288000  ekin = 0.14271294134083 |  erot = 0.33201595204223 | epot = -15.0996326354053 | etot = -14.6249037420222
289000  ekin = 0.146320998448773 |  erot = 0.332180585089635 | epot = -15.1034053255502 | etot = -14.6249037420118
290000  ekin = 0.153472816921521 |  erot = 0.334506983378674 | epot = -15.1128835423164 | etot = -14.6249037420162
291000  ekin = 0.16408646566307 |  erot = 0.339009144348004 | epot = -15.1279993520452 | etot = -14.6249037420341
292000  ekin = 0.177952173600894 |  erot = 0.345613807734655 | epot = -15.1484697233998 | etot = -14.6249037420642
293000  ekin = 0.194750859969321 |  erot = 0.354163344443058 | epot = -15.1738179465174 | etot = -14.624903742105
294000  ekin = 0.214068309159694 |  erot = 0.364424408222029 | epot = -15.2033964595369 | etot = -14.6249037421551
295000  ekin = 0.23540371040359 |  erot = 0.376101928511103 | epot = -15.2364093811279 | etot = -14.6249037422133
296000  ekin = 0.258174229753498 |  erot = 0.388857685536646 | epot = -15.2719356575678 | etot = -14.6249037422776
297000  ekin = 0.281719360135706 |  erot = 0.402332315571764 | epot = -15.3089554180538 | etot = -14.6249037423463
298000  ekin = 0.305309684523697 |  erot = 0.416169191335652 | epot = -15.3463826182759 | etot = -14.6249037424165
299000  ekin = 0.328164426016654 |  erot = 0.430038291827268 | epot = -15.3831064603292 | etot = -14.6249037424853
300000  ekin = 0.349480947255048 |  erot = 0.443657997414315 | epot = -15.4180426872181 | etot = -14.6249037425488
301000  ekin = 0.368477349759193 |  erot = 0.456812763608568 | epot = -15.4501938559701 | etot = -14.6249037426023
302000  ekin = 0.384446573101124 |  erot = 0.469364841860938 | epot = -15.4787151576043 | etot = -14.6249037426422
303000  ekin = 0.396817065634558 |  erot = 0.481258609604811 | epot = -15.5029794179039 | etot = -14.6249037426646
304000  ekin = 0.405211709647007 |  erot = 0.492516637287636 | epot = -15.5226320896017 | etot = -14.624903742667
305000  ekin = 0.409494186865868 |  erot = 0.503227368870062 | epot = -15.5376252983853 | etot = -14.6249037426493
306000  ekin = 0.409791521882642 |  erot = 0.513525227982917 | epot = -15.5482204924792 | etot = -14.6249037426137
307000  ekin = 0.406484029567507 |  erot = 0.523565033268454 | epot = -15.5549528054007 | etot = -14.6249037425647
308000  ekin = 0.400159443093576 |  erot = 0.533493670193517 | epot = -15.5585568557963 | etot = -14.6249037425092
309000  ekin = 0.391535685673409 |  erot = 0.543422788904487 | epot = -15.5598622170328 | etot = -14.6249037424549
310000  ekin = 0.381364662749467 |  erot = 0.553406603763533 | epot = -15.559675008922 | etot = -14.624903742409
311000  ekin = 0.370335174700701 |  erot = 0.563428434509133 | epot = -15.5586673515868 | etot = -14.624903742377
312000  ekin = 0.358994462073939 |  erot = 0.573398378860855 | epot = -15.5572965832959 | etot = -14.6249037423611
313000  ekin = 0.347704062021925 |  erot = 0.583162598674903 | epot = -15.5557704030573 | etot = -14.6249037423605
314000  ekin = 0.33663740290675 |  erot = 0.592522528333923 | epot = -15.5540636736116 | etot = -14.6249037423709
315000  ekin = 0.325816357219143 |  erot = 0.601260411441213 | epot = -15.5519805110473 | etot = -14.6249037423869
316000  ekin = 0.31517501281672 |  erot = 0.60916645196768 | epot = -15.5492452071863 | etot = -14.6249037424019
317000  ekin = 0.304633856553889 |  erot = 0.616062831072119 | epot = -15.5456004300365 | etot = -14.6249037424105
318000  ekin = 0.294167456686821 |  erot = 0.621820866636781 | epot = -15.5408920657325 | etot = -14.6249037424089
319000  ekin = 0.283852816310689 |  erot = 0.626369338624031 | epot = -15.5351258973307 | etot = -14.6249037423959
320000  ekin = 0.273891844373646 |  erot = 0.62969394858388 | epot = -15.5284895353295 | etot = -14.624903742372
321000  ekin = 0.264607615830763 |  erot = 0.631829520445007 | epot = -15.5213408786157 | etot = -14.6249037423399
322000  ekin = 0.256418665980724 |  erot = 0.632847556381818 | epot = -15.5141699646656 | etot = -14.6249037423031
323000  ekin = 0.249797892887888 |  erot = 0.632842055921319 | epot = -15.5075436910747 | etot = -14.6249037422655
324000  ekin = 0.245223011939643 |  erot = 0.631916211662829 | epot = -15.5020429658332 | etot = -14.6249037422308
325000  ekin = 0.243124676660885 |  erot = 0.630171930979599 | epot = -15.4982003498433 | etot = -14.6249037422029
326000  ekin = 0.243837159968202 |  erot = 0.62770331019607 | epot = -15.4964442123487 | etot = -14.6249037421844
327000  ekin = 0.247555458534598 |  erot = 0.624594349329564 | epot = -15.4970535500418 | etot = -14.6249037421777
328000  ekin = 0.254302069317208 |  erot = 0.620920422826662 | epot = -15.5001262343276 | etot = -14.6249037421837
329000  ekin = 0.263906382978448 |  erot = 0.616752378549749 | epot = -15.5055625037309 | etot = -14.6249037422027
330000  ekin = 0.275999298196581 |  erot = 0.612161709808553 | epot = -15.513064750239 | etot = -14.6249037422339
331000  ekin = 0.290024872454518 |  erot = 0.6072251384784 | epot = -15.5221537532081 | etot = -14.6249037422752
332000  ekin = 0.305269328205317 |  erot = 0.602027230533175 | epot = -15.5322003010622 | etot = -14.6249037423237
333000  ekin = 0.32090561137506 |  erot = 0.59666030333851 | epot = -15.5424696570894 | etot = -14.6249037423759
334000  ekin = 0.336049438962957 |  erot = 0.59122171045733 | epot = -15.5521748918481 | etot = -14.6249037424278
335000  ekin = 0.349821102707528 |  erot = 0.585809355783074 | epot = -15.5605342009664 | etot = -14.6249037424758
336000  ekin = 0.361406827299004 |  erot = 0.580516763971273 | epot = -15.5668273337865 | etot = -14.6249037425162
337000  ekin = 0.370114335989199 |  erot = 0.575429096256477 | epot = -15.570447174792 | etot = -14.6249037425463
338000  ekin = 0.375418963131835 |  erot = 0.570621177508979 | epot = -15.5709438832047 | etot = -14.6249037425639
339000  ekin = 0.376998306684161 |  erot = 0.566157982091391 | epot = -15.5680600313428 | etot = -14.6249037425673
340000  ekin = 0.374754278532076 |  erot = 0.562097189039027 | epot = -15.561755210127 | etot = -14.6249037425559
341000  ekin = 0.368821588409674 |  erot = 0.558493134368603 | epot = -15.5522184653082 | etot = -14.6249037425299
342000  ekin = 0.359561251230654 |  erot = 0.555400700218385 | epot = -15.5398656939398 | etot = -14.6249037424907
343000  ekin = 0.347537853254552 |  erot = 0.552877785918206 | epot = -15.5253193816135 | etot = -14.6249037424408
344000  ekin = 0.333480374963866 |  erot = 0.5509852684009 | epot = -15.5093693857484 | etot = -14.6249037423837
345000  ekin = 0.318228359784356 |  erot = 0.549783918348281 | epot = -15.4929160204566 | etot = -14.6249037423239
346000  ekin = 0.302667555547469 |  erot = 0.549328430110417 | epot = -15.4768997279243 | etot = -14.6249037422664
347000  ekin = 0.28766105744341 |  erot = 0.549659363310447 | epot = -15.4622241629696 | etot = -14.6249037422157
348000  ekin = 0.273982878354205 |  erot = 0.550794243902763 | epot = -15.4496808644331 | etot = -14.6249037421761
349000  ekin = 0.262260631617843 |  erot = 0.552719272009514 | epot = -15.439883645778 | etot = -14.6249037421507
350000  ekin = 0.252932884528192 |  erot = 0.555383042233133 | epot = -15.4332196689026 | etot = -14.6249037421413
351000  ekin = 0.246225113234617 |  erot = 0.55869341876511 | epot = -15.4298222741477 | etot = -14.624903742148
352000  ekin = 0.242146418558379 |  erot = 0.562518344425243 | epot = -15.4295685051533 | etot = -14.6249037421697
353000  ekin = 0.240507191582831 |  erot = 0.566690733134613 | epot = -15.4321016669209 | etot = -14.6249037422035
354000  ekin = 0.240955911174275 |  erot = 0.571016874087082 | epot = -15.4368765275071 | etot = -14.6249037422458
355000  ekin = 0.243030568944454 |  erot = 0.575286990707861 | epot = -15.4432213019444 | etot = -14.624903742292
356000  ekin = 0.246218336341954 |  erot = 0.579286102670435 | epot = -15.4504081813504 | etot = -14.6249037423381
357000  ekin = 0.250015504867581 |  erot = 0.58280308408374 | epot = -15.4577223313315 | etot = -14.6249037423802
358000  ekin = 0.253980003728839 |  erot = 0.585636256510467 | epot = -15.4645200026551 | etot = -14.6249037424158
359000  ekin = 0.257771924238821 |  erot = 0.587595069854197 | epot = -15.4702707365363 | etot = -14.6249037424433
360000  ekin = 0.261178006692924 |  erot = 0.588498175296143 | epot = -15.4745799244512 | etot = -14.6249037424621
361000  ekin = 0.264121303804436 |  erot = 0.588169931158563 | epot = -15.4771949774355 | etot = -14.6249037424725
362000  ekin = 0.26665626894814 |  erot = 0.586437607933123 | epot = -15.4779976193568 | etot = -14.6249037424755
363000  ekin = 0.268947338174106 |  erot = 0.583131261384995 | epot = -15.4769823420322 | etot = -14.6249037424731
364000  ekin = 0.271226723299596 |  erot = 0.578087502910441 | epot = -15.4742179686788 | etot = -14.6249037424688
365000  ekin = 0.273728224388818 |  erot = 0.571157191000725 | epot = -15.469789157857 | etot = -14.6249037424674
366000  ekin = 0.27660157052003 |  erot = 0.562216266683608 | epot = -15.4637215796777 | etot = -14.624903742474
367000  ekin = 0.279824898676208 |  erot = 0.551178529879214 | epot = -15.4559071710475 | etot = -14.6249037424921
368000  ekin = 0.283144751011421 |  erot = 0.538009090150606 | epot = -15.446057583683 | etot = -14.624903742521
369000  ekin = 0.286073979195429 |  erot = 0.522737270878628 | epot = -15.43371499263 | etot = -14.6249037425559
370000  ekin = 0.287962637923178 |  erot = 0.50546765170011 | epot = -15.4183340322108 | etot = -14.6249037425875
371000  ekin = 0.288129562576893 |  erot = 0.486387667907303 | epot = -15.3994209730894 | etot = -14.6249037426052
372000  ekin = 0.286016270828215 |  erot = 0.465769998081936 | epot = -15.3766900115109 | etot = -14.6249037426008
373000  ekin = 0.281314492917267 |  erot = 0.443968246943336 | epot = -15.3501864824312 | etot = -14.6249037425706
374000  ekin = 0.274029637541304 |  erot = 0.421405384813941 | epot = -15.3203387648723 | etot = -14.6249037425171
375000  ekin = 0.264468317323927 |  erot = 0.398555847613352 | epot = -15.2879279073837 | etot = -14.6249037424464
376000  ekin = 0.253165169267974 |  erot = 0.375923572596667 | epot = -15.2539924842319 | etot = -14.6249037423673
377000  ekin = 0.240780733674519 |  erot = 0.354018931407049 | epot = -15.2197034073693 | etot = -14.6249037422878
378000  ekin = 0.228003530692849 |  erot = 0.333337224177657 | epot = -15.1862444970844 | etot = -14.6249037422138
379000  ekin = 0.215478669427367 |  erot = 0.314340303318035 | epot = -15.1547227148943 | etot = -14.6249037421489
380000  ekin = 0.203769466320298 |  erot = 0.297441561967809 | epot = -15.1261147703827 | etot = -14.6249037420946
381000  ekin = 0.193344913038602 |  erot = 0.282993579610754 | epot = -15.1012422347007 | etot = -14.6249037420513
382000  ekin = 0.1845790971167 |  erot = 0.271277560103436 | epot = -15.0807603992401 | etot = -14.62490374202
383000  ekin = 0.177749902922622 |  erot = 0.26249431847454 | epot = -15.0651479633984 | etot = -14.6249037420012
384000  ekin = 0.173031383434508 |  erot = 0.256757595375745 | epot = -15.0546927208059 | etot = -14.6249037419956
385000  ekin = 0.170483112154869 |  erot = 0.254091341095724 | epot = -15.049478195254 | etot = -14.6249037420034
386000  ekin = 0.170046361592442 |  erot = 0.254432809989109 | epot = -15.0493829136049 | etot = -14.6249037420233
387000  ekin = 0.171558026227206 |  erot = 0.257642587604648 | epot = -15.0541043558835 | etot = -14.6249037420517
388000  ekin = 0.174787865439128 |  erot = 0.263521131370077 | epot = -15.0632127388927 | etot = -14.6249037420835
389000  ekin = 0.179494526901848 |  erot = 0.271829477565643 | epot = -15.0762277465811 | etot = -14.6249037421136
390000  ekin = 0.185484901052496 |  erot = 0.282310127810724 | epot = -15.0926987710012 | etot = -14.624903742138
391000  ekin = 0.192654775276086 |  erot = 0.294703495236184 | epot = -15.1122620126683 | etot = -14.624903742156
392000  ekin = 0.200990711955861 |  erot = 0.308756153372879 | epot = -15.1346506074993 | etot = -14.6249037421705
393000  ekin = 0.210524629688573 |  erot = 0.324219483681282 | epot = -15.1596478555577 | etot = -14.6249037421878
394000  ekin = 0.22125039811835 |  erot = 0.340840530849664 | epot = -15.1869946711827 | etot = -14.6249037422146
395000  ekin = 0.233028912153826 |  erot = 0.358349828151301 | epot = -15.2162824825616 | etot = -14.6249037422565
396000  ekin = 0.2455168348482 |  erot = 0.376452447324096 | epot = -15.2468730244869 | etot = -14.6249037423146
397000  ekin = 0.25814964628924 |  erot = 0.394827815017667 | epot = -15.2778812036919 | etot = -14.624903742385
398000  ekin = 0.270192540270399 |  erot = 0.4131410333725 | epot = -15.3082373161018 | etot = -14.6249037424589
399000  ekin = 0.280849396853854 |  erot = 0.431064534842813 | epot = -15.3368176742223 | etot = -14.6249037425256
400000  ekin = 0.289399657315509 |  erot = 0.448305349545533 | epot = -15.3626087494363 | etot = -14.6249037425752
401000  ekin = 0.295323233787914 |  erot = 0.464631356382232 | epot = -15.3848583327717 | etot = -14.6249037426015
402000  ekin = 0.298377750401429 |  erot = 0.479890206670972 | epot = -15.4031716996757 | etot = -14.6249037426033
403000  ekin = 0.298608046776847 |  erot = 0.494016844836358 | epot = -15.4175286341982 | etot = -14.624903742585
404000  ekin = 0.296288720276099 |  erot = 0.507028747324982 | epot = -15.4282212101551 | etot = -14.624903742554
405000  ekin = 0.29181945089068 |  erot = 0.519011022290344 | epot = -15.4357342157007 | etot = -14.6249037425197
406000  ekin = 0.285604695316787 |  erot = 0.530095491696252 | epot = -15.440603929503 | etot = -14.62490374249
407000  ekin = 0.27795179501284 |  erot = 0.540438449781457 | epot = -15.4432939872644 | etot = -14.6249037424701
408000  ekin = 0.269015012492725 |  erot = 0.550201084797105 | epot = -15.4441198397503 | etot = -14.6249037424605
409000  ekin = 0.258799683406998 |  erot = 0.559535019811799 | epot = -15.4432384456764 | etot = -14.6249037424576
410000  ekin = 0.247223943172304 |  erot = 0.568573648692186 | epot = -15.4407013343195 | etot = -14.624903742455
411000  ekin = 0.234219542826644 |  erot = 0.577428429926533 | epot = -15.4365517151989 | etot = -14.6249037424457
412000  ekin = 0.219842320368382 |  erot = 0.5861883861288 | epot = -15.4309344489209 | etot = -14.6249037424237
413000  ekin = 0.204359948374925 |  erot = 0.594920843620856 | epot = -15.4241845343826 | etot = -14.6249037423868
414000  ekin = 0.188290368309528 |  erot = 0.603671832826723 | epot = -15.4168659434726 | etot = -14.6249037423363
415000  ekin = 0.17237708181679 |  erot = 0.612465324291743 | epot = -15.4097461483867 | etot = -14.6249037422781
416000  ekin = 0.157503657630917 |  erot = 0.621301324615619 | epot = -15.4037087244673 | etot = -14.6249037422208
417000  ekin = 0.144565276806003 |  erot = 0.630153567596961 | epot = -15.3996225865765 | etot = -14.6249037421735
418000  ekin = 0.134326161306162 |  erot = 0.638967960411851 | epot = -15.3981978638625 | etot = -14.6249037421445
419000  ekin = 0.127295713866961 |  erot = 0.647663024756136 | epot = -15.3998624807615 | etot = -14.6249037421384
420000  ekin = 0.123652074078926 |  erot = 0.656133267678405 | epot = -15.404689083913 | etot = -14.6249037421557
421000  ekin = 0.123230332545423 |  erot = 0.664256043547052 | epot = -15.4123901182846 | etot = -14.6249037421921
422000  ekin = 0.125576493084645 |  erot = 0.671901405101299 | epot = -15.4223816404261 | etot = -14.6249037422401
423000  ekin = 0.130051930466291 |  erot = 0.678943694027994 | epot = -15.4338993667851 | etot = -14.6249037422908
424000  ekin = 0.135961143238941 |  erot = 0.68527308622734 | epot = -15.4461379718019 | etot = -14.6249037423356
425000  ekin = 0.142671659965653 |  erot = 0.690804983811737 | epot = -15.4583803861463 | etot = -14.6249037423689
426000  ekin = 0.149699767318955 |  erot = 0.69548556134855 | epot = -15.4700890710557 | etot = -14.6249037423882
427000  ekin = 0.156747049208564 |  erot = 0.699292628464386 | epot = -15.4809434200676 | etot = -14.6249037423947
428000  ekin = 0.163686553654653 |  erot = 0.702231990285693 | epot = -15.4908222863327 | etot = -14.6249037423924
429000  ekin = 0.170509683514881 |  erot = 0.704330315301697 | epot = -15.4997437412031 | etot = -14.6249037423865
430000  ekin = 0.177252892951705 |  erot = 0.705626025883602 | epot = -15.5077826612176 | etot = -14.6249037423823
431000  ekin = 0.183925691222895 |  erot = 0.706159951516283 | epot = -15.5149893851227 | etot = -14.6249037423835
432000  ekin = 0.19045785108011 |  erot = 0.705966883793978 | epot = -15.5213284772661 | etot = -14.624903742392
433000  ekin = 0.196676887389506 |  erot = 0.705069371776843 | epot = -15.5266500015735 | etot = -14.6249037424072
434000  ekin = 0.202317433899842 |  erot = 0.703474477741428 | epot = -15.5306956540681 | etot = -14.6249037424269
435000  ekin = 0.207056046506956 |  erot = 0.701173837003811 | epot = -15.5331336259585 | etot = -14.6249037424477
436000  ekin = 0.210560164857125 |  erot = 0.698146912242933 | epot = -15.5336108195661 | etot = -14.6249037424661
437000  ekin = 0.212539330538931 |  erot = 0.694366864819831 | epot = -15.5318099378377 | etot = -14.624903742479
438000  ekin = 0.212789433625871 |  erot = 0.689808070113593 | epot = -15.5275012462235 | etot = -14.624903742484
439000  ekin = 0.211224885327214 |  erot = 0.684454087056214 | epot = -15.5205827148631 | etot = -14.6249037424797
440000  ekin = 0.207897417438809 |  erot = 0.678304934040255 | epot = -15.5111060939441 | etot = -14.624903742465
441000  ekin = 0.203002684917561 |  erot = 0.671382822496918 | epot = -15.4992892498548 | etot = -14.6249037424403
442000  ekin = 0.196876783893415 |  erot = 0.66373594678721 | epot = -15.4855164730867 | etot = -14.6249037424061
443000  ekin = 0.189984458135294 |  erot = 0.655440346227568 | epot = -15.4703285467262 | etot = -14.6249037423634
444000  ekin = 0.182899715135625 |  erot = 0.646600090308741 | epot = -15.4544035477581 | etot = -14.6249037423138
445000  ekin = 0.176278659807151 |  erot = 0.637346059016373 | epot = -15.4385284610832 | etot = -14.6249037422597
446000  ekin = 0.170824489262207 |  erot = 0.627833490901199 | epot = -15.4235617223673 | etot = -14.6249037422039
447000  ekin = 0.16724611578148 |  erot = 0.618238375507256 | epot = -15.4103882334382 | etot = -14.6249037421495
448000  ekin = 0.166214016011086 |  erot = 0.608752709243579 | epot = -15.3998704673542 | etot = -14.6249037420995
449000  ekin = 0.1683180025474 |  erot = 0.599578546514547 | epot = -15.3928002911186 | etot = -14.6249037420567
450000  ekin = 0.174030350885976 |  erot = 0.590920601688637 | epot = -15.3898546945984 | etot = -14.6249037420238
451000  ekin = 0.183674309612486 |  erot = 0.582976972209394 | epot = -15.3915550238252 | etot = -14.6249037420033
452000  ekin = 0.197394458885248 |  erot = 0.575927582956616 | epot = -15.39822578384 | etot = -14.6249037419981
453000  ekin = 0.215124290963754 |  erot = 0.569920414705972 | epot = -15.4099484476811 | etot = -14.6249037420114
454000  ekin = 0.236549344238332 |  erot = 0.565056494271021 | epot = -15.4265095805559 | etot = -14.6249037420465
455000  ekin = 0.261070666492934 |  erot = 0.561375729612865 | epot = -15.4473501382115 | etot = -14.6249037421057
456000  ekin = 0.287780783019101 |  erot = 0.558846520705115 | epot = -15.4715310459133 | etot = -14.6249037421891
457000  ekin = 0.315469350479039 |  erot = 0.557362227354604 | epot = -15.4977353201268 | etot = -14.6249037422931
458000  ekin = 0.342675461161211 |  erot = 0.556746783054113 | epot = -15.5243259866255 | etot = -14.6249037424101
459000  ekin = 0.367796771324328 |  erot = 0.556770049266128 | epot = -15.5494705631189 | etot = -14.6249037425284
460000  ekin = 0.3892528364295 |  erot = 0.557171234683844 | epot = -15.5713278137471 | etot = -14.6249037426338
461000  ekin = 0.405683830372718 |  erot = 0.557686417732241 | epot = -15.5882739908163 | etot = -14.6249037427113
462000  ekin = 0.416150509763905 |  erot = 0.558074591842708 | epot = -15.5991288443566 | etot = -14.6249037427499
463000  ekin = 0.420292029665246 |  erot = 0.558136338549459 | epot = -15.6033321109587 | etot = -14.624903742744
464000  ekin = 0.418399545178514 |  erot = 0.557720582601952 | epot = -15.6010238704768 | etot = -14.6249037426963
465000  ekin = 0.411377435968826 |  erot = 0.55671776612672 | epot = -15.5929989447132 | etot = -14.6249037426177
466000  ekin = 0.400588481170777 |  erot = 0.555041504869193 | epot = -15.5805337285653 | etot = -14.6249037425253
467000  ekin = 0.387608315925912 |  erot = 0.552604267015981 | epot = -15.5651163253807 | etot = -14.6249037424389
468000  ekin = 0.373939506071419 |  erot = 0.549294716065778 | epot = -15.5481379645134 | etot = -14.6249037423762
469000  ekin = 0.360748545285941 |  erot = 0.544964338611031 | epot = -15.5306166262458 | etot = -14.6249037423488
470000  ekin = 0.348685397522481 |  erot = 0.539428754142283 | epot = -15.5130178940239 | etot = -14.6249037423591
471000  ekin = 0.33782542530965 |  erot = 0.53248528288589 | epot = -15.495214450596 | etot = -14.6249037424005
472000  ekin = 0.327743216876187 |  erot = 0.523944004295118 | epot = -15.4765909636299 | etot = -14.6249037424586
473000  ekin = 0.317695625905249 |  erot = 0.513665869846711 | epot = -15.4562652382675 | etot = -14.6249037425155
474000  ekin = 0.306866206292903 |  erot = 0.501599410558902 | epot = -15.4333693594053 | etot = -14.6249037425535
475000  ekin = 0.294611572516014 |  erot = 0.487807694339925 | epot = -15.4073230094157 | etot = -14.6249037425598
476000  ekin = 0.280654133645735 |  erot = 0.472479343853221 | epot = -15.3780372200274 | etot = -14.6249037425284
477000  ekin = 0.265182667318346 |  erot = 0.455920989277164 | epot = -15.3460073990571 | etot = -14.6249037424615
478000  ekin = 0.248846579355896 |  erot = 0.438532535944716 | epot = -15.3122828576688 | etot = -14.6249037423682
479000  ekin = 0.232654569020801 |  erot = 0.420770062233786 | epot = -15.2783283735167 | etot = -14.6249037422621
480000  ekin = 0.217807844646274 |  erot = 0.403103245642895 | epot = -15.2458148324472 | etot = -14.624903742158
481000  ekin = 0.205508255202274 |  erot = 0.385974572360121 | epot = -15.2163865696318 | etot = -14.6249037420694
482000  ekin = 0.196781566941766 |  erot = 0.36976631024765 | epot = -15.1914516191951 | etot = -14.6249037420057
483000  ekin = 0.19234694356787 |  erot = 0.354778814406374 | epot = -15.1720294999463 | etot = -14.6249037419721
484000  ekin = 0.192548846646396 |  erot = 0.341220938396507 | epot = -15.1586735270111 | etot = -14.6249037419682
485000  ekin = 0.197351634264796 |  erot = 0.329210924265182 | epot = -15.1514663005207 | etot = -14.6249037419907
486000  ekin = 0.206384571112674 |  erot = 0.318784712513058 | epot = -15.1500730256597 | etot = -14.624903742034
487000  ekin = 0.219018661981128 |  erot = 0.309908337315953 | epot = -15.1538307413883 | etot = -14.6249037420912
488000  ekin = 0.234457053485615 |  erot = 0.302491737711597 | epot = -15.1618525333532 | etot = -14.6249037421559
489000  ekin = 0.251825722282228 |  erot = 0.296402451840807 | epot = -15.1731319163449 | etot = -14.6249037422219
490000  ekin = 0.270257579252373 |  erot = 0.291478772534408 | epot = -15.1866400940707 | etot = -14.6249037422839
491000  ekin = 0.288968023940477 |  erot = 0.287542686829702 | epot = -15.2014144531066 | etot = -14.6249037423364
492000  ekin = 0.307321746939982 |  erot = 0.28441316533236 | epot = -15.2166386546473 | etot = -14.624903742375
493000  ekin = 0.32488919226749 |  erot = 0.281920128741024 | epot = -15.2317130634052 | etot = -14.6249037423967
494000  ekin = 0.341487883386483 |  erot = 0.279918789013753 | epot = -15.2463104147992 | etot = -14.624903742399
495000  ekin = 0.35720080106069 |  erot = 0.278303167954071 | epot = -15.2604077113969 | etot = -14.6249037423821
496000  ekin = 0.372363075866133 |  erot = 0.277016625443694 | epot = -15.274283443659 | etot = -14.6249037423491
497000  ekin = 0.387510424729673 |  erot = 0.276056483801325 | epot = -15.288470650837 | etot = -14.624903742306
498000  ekin = 0.403287744735438 |  erot = 0.275469725413168 | epot = -15.3036612124104 | etot = -14.6249037422618
499000  ekin = 0.42032292393259 |  erot = 0.275337682298044 | epot = -15.320564348458 | etot = -14.6249037422274
500000  ekin = 0.43907820686993 |  erot = 0.275749832423184 | epot = -15.3397317815074 | etot = -14.6249037422143
501000  ekin = 0.459699055393576 |  erot = 0.27677002458897 | epot = -15.3613728222153 | etot = -14.6249037422327
502000  ekin = 0.481887975238202 |  erot = 0.278401857022776 | epot = -15.3851935745495 | etot = -14.6249037422885
503000  ekin = 0.504836001700849 |  erot = 0.28056227342693 | epot = -15.410302017509 | etot = -14.6249037423813
504000  ekin = 0.527242963721984 |  erot = 0.283072520273731 | epot = -15.4352192264977 | etot = -14.624903742502
505000  ekin = 0.547444055756082 |  erot = 0.285672032586838 | epot = -15.458019830977 | etot = -14.6249037426341
506000  ekin = 0.563636138784674 |  erot = 0.288055811209927 | epot = -15.47659569275 | etot = -14.6249037427554
507000  ekin = 0.574166796919909 |  erot = 0.289928574131153 | epot = -15.4889991138946 | etot = -14.6249037428436
508000  ekin = 0.577825151301095 |  erot = 0.29106332686132 | epot = -15.4937922210437 | etot = -14.6249037428812
509000  ekin = 0.574066827021787 |  erot = 0.291350176078735 | epot = -15.4903207459605 | etot = -14.6249037428599
510000  ekin = 0.563118031118052 |  erot = 0.290823209378379 | epot = -15.478844983279 | etot = -14.6249037427826
511000  ekin = 0.545937816053849 |  erot = 0.289659846600108 | epot = -15.4605014053159 | etot = -14.624903742662
512000  ekin = 0.524051924661522 |  erot = 0.288153919329358 | epot = -15.4371095865082 | etot = -14.6249037425174
513000  ekin = 0.49930007419802 |  erot = 0.286670443869403 | epot = -15.4108742604374 | etot = -14.6249037423699
514000  ekin = 0.473556830410389 |  erot = 0.285593013544029 | epot = -15.3840535861934 | etot = -14.624903742239
515000  ekin = 0.448481344234872 |  erot = 0.285274677057468 | epot = -15.3586597634305 | etot = -14.6249037421382
516000  ekin = 0.425336124988155 |  erot = 0.286000471485139 | epot = -15.3362403385481 | etot = -14.6249037420748
517000  ekin = 0.404895133580943 |  erot = 0.2879658116616 | epot = -15.3177646872915 | etot = -14.6249037420489
518000  ekin = 0.38744137195972 |  erot = 0.291271247088022 | epot = -15.303616361103 | etot = -14.6249037420552
519000  ekin = 0.372839035852851 |  erot = 0.295931281214127 | epot = -15.2936740591517 | etot = -14.6249037420847
520000  ekin = 0.360656186943069 |  erot = 0.301893194868317 | epot = -15.2874531239377 | etot = -14.6249037421263
521000  ekin = 0.350310207443456 |  erot = 0.30906098360489 | epot = -15.284274933218 | etot = -14.6249037421697
522000  ekin = 0.341208800539667 |  erot = 0.3173194084493 | epot = -15.2834319511953 | etot = -14.6249037422063
523000  ekin = 0.332862997936835 |  erot = 0.326553653087588 | epot = -15.284320393256 | etot = -14.6249037422315
524000  ekin = 0.324955020060083 |  erot = 0.336661144000867 | epot = -15.2865199063051 | etot = -14.6249037422441
525000  ekin = 0.317352570821523 |  erot = 0.347553686772997 | epot = -15.2898099998415 | etot = -14.624903742247
526000  ekin = 0.310071537936527 |  erot = 0.359150063852877 | epot = -15.2941253440357 | etot = -14.6249037422463
527000  ekin = 0.30319969763022 |  erot = 0.371361343285068 | epot = -15.2994647831647 | etot = -14.6249037422494
528000  ekin = 0.296802852838113 |  erot = 0.38407297047912 | epot = -15.3057795655799 | etot = -14.6249037422627
529000  ekin = 0.290839689447243 |  erot = 0.397128838352394 | epot = -15.31287227009 | etot = -14.6249037422904
530000  ekin = 0.285110822260533 |  erot = 0.410322608856898 | epot = -15.3203371734496 | etot = -14.6249037423322
531000  ekin = 0.279260366287321 |  erot = 0.423400398731777 | epot = -15.3275645074024 | etot = -14.6249037423833
532000  ekin = 0.2728357059054 |  erot = 0.436076588369062 | epot = -15.3338160367096 | etot = -14.6249037424351
533000  ekin = 0.265395406955423 |  erot = 0.448061330488706 | epot = -15.3383604799205 | etot = -14.6249037424763
534000  ekin = 0.25664035180014 |  erot = 0.45909504502717 | epot = -15.3406391393241 | etot = -14.6249037424968
535000  ekin = 0.24653363369425 |  erot = 0.468982742180589 | epot = -15.3404201183648 | etot = -14.62490374249
536000  ekin = 0.235373881374767 |  erot = 0.477620282696299 | epot = -15.3378979065254 | etot = -14.6249037424543
537000  ekin = 0.223795203401825 |  erot = 0.485006039595742 | epot = -15.3337049853926 | etot = -14.624903742395
538000  ekin = 0.212682661997717 |  erot = 0.491234540507922 | epot = -15.32882094483 | etot = -14.6249037423243
539000  ekin = 0.203011536568094 |  erot = 0.496472671628212 | epot = -15.324387950454 | etot = -14.6249037422577
540000  ekin = 0.195638496925756 |  erot = 0.500922912276288 | epot = -15.3214651514142 | etot = -14.6249037422122
541000  ekin = 0.191090437373868 |  erot = 0.504781043299473 | epot = -15.3207752228743 | etot = -14.624903742201
542000  ekin = 0.189407567632351 |  erot = 0.508197267609666 | epot = -15.3225085774711 | etot = -14.6249037422291
543000  ekin = 0.190094034780963 |  erot = 0.511249275631094 | epot = -15.3262470527038 | etot = -14.6249037422917
544000  ekin = 0.192205662500001 |  erot = 0.513933300996131 | epot = -15.3310427058706 | etot = -14.6249037423745
545000  ekin = 0.194562943958398 |  erot = 0.516174993404786 | epot = -15.3356416798198 | etot = -14.6249037424566
546000  ekin = 0.196033343259865 |  erot = 0.517857026727595 | epot = -15.3387941125054 | etot = -14.624903742518
547000  ekin = 0.195801439086576 |  erot = 0.518856237019659 | epot = -15.3395614186507 | etot = -14.6249037425445
548000  ekin = 0.193552178457624 |  erot = 0.519081068513043 | epot = -15.3375369895016 | etot = -14.6249037425309
549000  ekin = 0.189527872077782 |  erot = 0.518500763845595 | epot = -15.3329323784042 | etot = -14.6249037424808
550000  ekin = 0.18446469719282 |  erot = 0.517160608016848 | epot = -15.326529047614 | etot = -14.6249037424043
551000  ekin = 0.17944751961377 |  erot = 0.515181377053922 | epot = -15.3195326389815 | etot = -14.6249037423138
552000  ekin = 0.175731062295071 |  erot = 0.512744588095586 | epot = -15.3133793926126 | etot = -14.6249037422219
553000  ekin = 0.174564310046339 |  erot = 0.510067400325356 | epot = -15.3095354525118 | etot = -14.6249037421401
554000  ekin = 0.177036897101121 |  erot = 0.507372062614127 | epot = -15.309312701793 | etot = -14.6249037420777
555000  ekin = 0.183953653121541 |  erot = 0.50485506124058 | epot = -15.3137124564044 | etot = -14.6249037420423
556000  ekin = 0.195740677804154 |  erot = 0.502660902828886 | epot = -15.3233053226714 | etot = -14.6249037420384
557000  ekin = 0.212389174813395 |  erot = 0.500864749566249 | epot = -15.3381576664467 | etot = -14.6249037420671
558000  ekin = 0.233445020972978 |  erot = 0.499466731744177 | epot = -15.3578154948427 | etot = -14.6249037421256
559000  ekin = 0.258048678278145 |  erot = 0.498398734229532 | epot = -15.381351154715 | etot = -14.6249037422073
560000  ekin = 0.285022157939727 |  erot = 0.497541950864641 | epot = -15.4074678511075 | etot = -14.6249037423031
561000  ekin = 0.312990622171893 |  erot = 0.496751658908829 | epot = -15.4346460234834 | etot = -14.6249037424027
562000  ekin = 0.340519848730057 |  erot = 0.495884310852853 | epot = -15.461307902079 | etot = -14.6249037424961
563000  ekin = 0.366249237356341 |  erot = 0.494821962715706 | epot = -15.4859749426471 | etot = -14.6249037425751
564000  ekin = 0.389003340228864 |  erot = 0.493490109026347 | epot = -15.5073971918896 | etot = -14.6249037426344
565000  ekin = 0.407871381975787 |  erot = 0.491866632343088 | epot = -15.5246417569901 | etot = -14.6249037426712
566000  ekin = 0.422251605413063 |  erot = 0.489981232303539 | epot = -15.537136580402 | etot = -14.6249037426854
567000  ekin = 0.431863045464991 |  erot = 0.487906470955931 | epot = -15.5446732590994 | etot = -14.6249037426785
568000  ekin = 0.436733840918529 |  erot = 0.485743252286281 | epot = -15.5473808358582 | etot = -14.6249037426534
569000  ekin = 0.437172173179269 |  erot = 0.483603786385196 | epot = -15.5456797021777 | etot = -14.6249037426133
570000  ekin = 0.43372713864672 |  erot = 0.48159597879343 | epot = -15.5402268600018 | etot = -14.6249037425617
571000  ekin = 0.42714180814445 |  erot = 0.479812578148079 | epot = -15.5318581287948 | etot = -14.6249037425023
572000  ekin = 0.418294466662065 |  erot = 0.478326721683348 | epot = -15.5215249307851 | etot = -14.6249037424397
573000  ekin = 0.408121101336508 |  erot = 0.477193277919927 | epot = -15.5102181216365 | etot = -14.6249037423801
574000  ekin = 0.397514818218918 |  erot = 0.476453234966625 | epot = -15.4988717955165 | etot = -14.624903742331
575000  ekin = 0.387207144490505 |  erot = 0.476137354469736 | epot = -15.4882482412605 | etot = -14.6249037423002
576000  ekin = 0.377649119218454 |  erot = 0.476266044932873 | epot = -15.4788189064457 | etot = -14.6249037422944
577000  ekin = 0.368920817133122 |  erot = 0.476844730976094 | epot = -15.4706692904255 | etot = -14.6249037423163
578000  ekin = 0.360700785231361 |  erot = 0.47785688313413 | epot = -15.4634614107286 | etot = -14.6249037423631
579000  ekin = 0.352319179858645 |  erot = 0.479258927576455 | epot = -15.4564818498607 | etot = -14.6249037424256
580000  ekin = 0.342901425190256 |  erot = 0.480981430412058 | epot = -15.4487865980916 | etot = -14.6249037424893
581000  ekin = 0.331586894252413 |  erot = 0.482939076923234 | epot = -15.4394297137118 | etot = -14.6249037425361
582000  ekin = 0.317784488003658 |  erot = 0.485048781538909 | epot = -15.427737012092 | etot = -14.6249037425495
583000  ekin = 0.301409490235786 |  erot = 0.487252029394123 | epot = -15.4135652621474 | etot = -14.6249037425175
584000  ekin = 0.283039202393456 |  erot = 0.489535511255409 | epot = -15.3974784560865 | etot = -14.6249037424376
585000  ekin = 0.263933313486932 |  erot = 0.491944128119358 | epot = -15.3807811839248 | etot = -14.6249037423185
586000  ekin = 0.245890887800014 |  erot = 0.494582820570716 | epot = -15.36537745055 | etot = -14.6249037421793
587000  ekin = 0.230956405619767 |  erot = 0.497607010278002 | epot = -15.3534671579441 | etot = -14.6249037420464
588000  ekin = 0.221033841917334 |  erot = 0.501205839010304 | epot = -15.3471434228726 | etot = -14.6249037419449
589000  ekin = 0.217504428503198 |  erot = 0.505584588307916 | epot = -15.3479927587054 | etot = -14.6249037418943
590000  ekin = 0.220953423088802 |  erot = 0.510952138425678 | epot = -15.3568093034149 | etot = -14.6249037419004
591000  ekin = 0.231083134064877 |  erot = 0.517515644130037 | epot = -15.3735025201503 | etot = -14.6249037419554
592000  ekin = 0.246829245753809 |  erot = 0.525479282586983 | epot = -15.3972122703829 | etot = -14.6249037420421
593000  ekin = 0.266628949730648 |  erot = 0.535039778666154 | epot = -15.4265724705373 | etot = -14.6249037421405
594000  ekin = 0.288743434935948 |  erot = 0.546371032865159 | epot = -15.4600182100359 | etot = -14.6249037422348
595000  ekin = 0.311533695301854 |  erot = 0.559594229359111 | epot = -15.4960316669784 | etot = -14.6249037423174
596000  ekin = 0.333624348261494 |  erot = 0.574736425374244 | epot = -15.5332645160249 | etot = -14.6249037423892
597000  ekin = 0.353943370598259 |  erot = 0.591686591895167 | epot = -15.5705337049495 | etot = -14.6249037424561
598000  ekin = 0.371670846224399 |  erot = 0.610160828223706 | epot = -15.6067354169733 | etot = -14.6249037425252
599000  ekin = 0.386151688530232 |  erot = 0.629687420924543 | epot = -15.6407428520551 | etot = -14.6249037426004
600000  ekin = 0.396824670884392 |  erot = 0.649618644309618 | epot = -15.6713470578743 | etot = -14.6249037426803
601000  ekin = 0.403202067553724 |  erot = 0.669171693344937 | epot = -15.6972775036568 | etot = -14.6249037427581
602000  ekin = 0.404908528299605 |  erot = 0.687495721385225 | epot = -15.7173079925077 | etot = -14.6249037428229
603000  ekin = 0.401765041348441 |  erot = 0.703757265562351 | epot = -15.7304260497729 | etot = -14.6249037428621
604000  ekin = 0.393886240081566 |  erot = 0.717231476889447 | epot = -15.7360214598369 | etot = -14.6249037428659
605000  ekin = 0.381750384954784 |  erot = 0.727382711583162 | epot = -15.7340368393681 | etot = -14.6249037428302
606000  ekin = 0.366205114567235 |  erot = 0.733917584159895 | epot = -15.725026441486 | etot = -14.6249037427589
607000  ekin = 0.348389460815329 |  erot = 0.736798185090343 | epot = -15.7100913885696 | etot = -14.624903742664
608000  ekin = 0.329579787369629 |  erot = 0.73621262347853 | epot = -15.6906961534103 | etot = -14.6249037425622
609000  ekin = 0.310994196072014 |  erot = 0.732511274794253 | epot = -15.6684092133371 | etot = -14.6249037424709
610000  ekin = 0.29360483588481 |  erot = 0.726125549058504 | epot = -15.644634127347 | etot = -14.6249037424037
611000  ekin = 0.278004208602607 |  erot = 0.717488389874772 | epot = -15.6203963408453 | etot = -14.624903742368
612000  ekin = 0.264353214553523 |  erot = 0.706972008379557 | epot = -15.5962289652967 | etot = -14.6249037423637
613000  ekin = 0.252415280668682 |  erot = 0.694851301360247 | epot = -15.5721703244136 | etot = -14.6249037423847
614000  ekin = 0.241662201717183 |  erot = 0.681294462599197 | epot = -15.5478604067366 | etot = -14.6249037424202
615000  ekin = 0.231427318529533 |  erot = 0.666377599991891 | epot = -15.5227086609789 | etot = -14.6249037424574
616000  ekin = 0.221078258759054 |  erot = 0.650117838828839 | epot = -15.496099840071 | etot = -14.6249037424831
617000  ekin = 0.21018039046722 |  erot = 0.632518274251072 | epot = -15.4676024072045 | etot = -14.6249037424862
618000  ekin = 0.198621509656023 |  erot = 0.613617132100535 | epot = -15.4371423842165 | etot = -14.6249037424599
619000  ekin = 0.18667044221321 |  erot = 0.593532504056809 | epot = -15.405106688674 | etot = -14.624903742404
620000  ekin = 0.174951539061334 |  erot = 0.572493952083576 | epot = -15.3723492334691 | etot = -14.6249037423242
621000  ekin = 0.164335257151748 |  erot = 0.550854196820334 | epot = -15.3400931962044 | etot = -14.6249037422324
622000  ekin = 0.155768039681223 |  erot = 0.529078173717901 | epot = -15.3097499555421 | etot = -14.6249037421429
623000  ekin = 0.150083571178067 |  erot = 0.507711807337581 | epot = -15.2826991205843 | etot = -14.6249037420687
624000  ekin = 0.147843467415026 |  erot = 0.487337070698877 | epot = -15.2600842801327 | etot = -14.6249037420188
625000  ekin = 0.149245521580685 |  erot = 0.468521842126521 | epot = -15.2426711057039 | etot = -14.6249037419967
626000  ekin = 0.154116108891011 |  erot = 0.451772481731706 | epot = -15.230792332623 | etot = -14.6249037420003
627000  ekin = 0.161979086426243 |  erot = 0.437494698740521 | epot = -15.2243775271906 | etot = -14.6249037420239
628000  ekin = 0.172174902879429 |  erot = 0.425965324893993 | epot = -15.2230439698331 | etot = -14.6249037420597
629000  ekin = 0.183995029152745 |  erot = 0.417314987668754 | epot = -15.2262137589225 | etot = -14.624903742101
630000  ekin = 0.196798066695247 |  erot = 0.411519917957055 | epot = -15.2332217267955 | etot = -14.6249037421432
631000  ekin = 0.210082131922237 |  erot = 0.408400457424511 | epot = -15.2433863315318 | etot = -14.6249037421851
632000  ekin = 0.223500184826661 |  erot = 0.407624312389748 | epot = -15.2560282394451 | etot = -14.6249037422287
633000  ekin = 0.236818662197368 |  erot = 0.40871410814115 | epot = -15.2704365126172 | etot = -14.6249037422787
634000  ekin = 0.249833574953511 |  erot = 0.411060882467202 | epot = -15.2857981997609 | etot = -14.6249037423402
635000  ekin = 0.262270239999869 |  erot = 0.413946987960319 | epot = -15.3011209703766 | etot = -14.6249037424164
636000  ekin = 0.273700147362094 |  erot = 0.41658241201687 | epot = -15.3151863018853 | etot = -14.6249037425063
637000  ekin = 0.283507856899951 |  erot = 0.418156955202178 | epot = -15.3265685547055 | etot = -14.6249037426034
638000  ekin = 0.290930324554581 |  erot = 0.417906927432974 | epot = -15.3337409946828 | etot = -14.6249037426952
639000  ekin = 0.295171730169445 |  erot = 0.415189912095163 | epot = -15.3352653850311 | etot = -14.6249037427665
640000  ekin = 0.295573453214757 |  erot = 0.409556450349425 | epot = -15.330033646366 | etot = -14.6249037428018
641000  ekin = 0.291798784614159 |  erot = 0.400805216305592 | epot = -15.3175077437094 | etot = -14.6249037427896
642000  ekin = 0.283982821763191 |  erot = 0.389009767281871 | epot = -15.2978963317709 | etot = -14.6249037427259
643000  ekin = 0.272803834295014 |  erot = 0.374510198235057 | epot = -15.2722177751454 | etot = -14.6249037426153
644000  ekin = 0.259451287281783 |  erot = 0.357870303235152 | epot = -15.242225332988 | etot = -14.6249037424711
645000  ekin = 0.245490538509252 |  erot = 0.339807577758131 | epot = -15.2102018585797 | etot = -14.6249037423123
646000  ekin = 0.232646751226996 |  erot = 0.321107525182603 | epot = -15.1786580185706 | etot = -14.624903742161
647000  ekin = 0.22254581022401 |  erot = 0.302534738054871 | epot = -15.1499842903174 | etot = -14.6249037420385
648000  ekin = 0.216457466201459 |  erot = 0.284752019408104 | epot = -15.1261132275716 | etot = -14.624903741962
649000  ekin = 0.215087078764693 |  erot = 0.268256849270417 | epot = -15.1082476699768 | etot = -14.6249037419417
650000  ekin = 0.218457489209268 |  erot = 0.253342374384922 | epot = -15.0967036055725 | etot = -14.6249037419783
651000  ekin = 0.225910420497663 |  erot = 0.240087663214968 | epot = -15.090901825775 | etot = -14.6249037420623
652000  ekin = 0.236236377394858 |  erot = 0.228379019530766 | epot = -15.0895191391013 | etot = -14.6249037421757
653000  ekin = 0.247915496412395 |  erot = 0.217959688822015 | epot = -15.0907789275287 | etot = -14.6249037422943
654000  ekin = 0.259425494352476 |  erot = 0.208500305716241 | epot = -15.0928295424619 | etot = -14.6249037423932
[...]
838000  ekin = 0.268023056778799 |  erot = 0.575686784519135 | epot = -15.468613583716 | etot = -14.6249037424181
839000  ekin = 0.274018270323247 |  erot = 0.582582979366575 | epot = -15.481504992079 | etot = -14.6249037423892
840000  ekin = 0.279983100774044 |  erot = 0.588834754839254 | epot = -15.493721597963 | etot = -14.6249037423497
841000  ekin = 0.286398274628748 |  erot = 0.594637024330571 | epot = -15.5059390412695 | etot = -14.6249037423102
842000  ekin = 0.293816650983671 |  erot = 0.600098453280244 | epot = -15.5188188465455 | etot = -14.6249037422816
843000  ekin = 0.302726774569864 |  erot = 0.605208920748267 | epot = -15.5328394375906 | etot = -14.6249037422725
844000  ekin = 0.313421069061913 |  erot = 0.609833296484503 | epot = -15.5481581078352 | etot = -14.6249037422888
845000  ekin = 0.325887895395929 |  erot = 0.613733577818103 | epot = -15.5645252155455 | etot = -14.6249037423314
846000  ekin = 0.33975240096389 |  erot = 0.616615984720062 | epot = -15.5812721280797 | etot = -14.6249037423957
847000  ekin = 0.354292335350613 |  erot = 0.618194079532099 | epot = -15.5973901573538 | etot = -14.624903742471
848000  ekin = 0.368542667425734 |  erot = 0.618254639141467 | epot = -15.6117010491094 | etot = -14.6249037425422
849000  ekin = 0.381474241846711 |  erot = 0.616711095272622 | epot = -15.6230890797133 | etot = -14.624903742594
850000  ekin = 0.392198266664605 |  erot = 0.613631554978577 | epot = -15.6307335642585 | etot = -14.6249037426153
851000  ekin = 0.400129367739792 |  erot = 0.609234588534973 | epot = -15.6342676988789 | etot = -14.6249037426041
852000  ekin = 0.405049998800082 |  erot = 0.603854451145949 | epot = -15.6338081925133 | etot = -14.6249037425673
853000  ekin = 0.407056563943438 |  erot = 0.597885334647268 | epot = -15.6298456411094 | etot = -14.6249037425187
854000  ekin = 0.406415158940066 |  erot = 0.591718979209663 | epot = -15.623037880623 | etot = -14.6249037424732
855000  ekin = 0.403390043513582 |  erot = 0.585690332508252 | epot = -15.6139841184641 | etot = -14.6249037424422
856000  ekin = 0.398116166002876 |  erot = 0.580042463524147 | epot = -15.6030623719562 | etot = -14.6249037424292
857000  ekin = 0.39056801615961 |  erot = 0.574915889724005 | epot = -15.5903876483121 | etot = -14.6249037424285
858000  ekin = 0.380638245095305 |  erot = 0.570361176879803 | epot = -15.5759031644036 | etot = -14.6249037424285
859000  ekin = 0.368297168913566 |  erot = 0.566367903414504 | epot = -15.5595688147431 | etot = -14.624903742415
860000  ekin = 0.353771484485059 |  erot = 0.56289933566622 | epot = -15.5415745625294 | etot = -14.6249037423781
861000  ekin = 0.33766818907467 |  erot = 0.559921190515333 | epot = -15.5224931219057 | etot = -14.6249037423157
862000  ekin = 0.320982687533336 |  erot = 0.557415114411014 | epot = -15.5033015441806 | etot = -14.6249037422363
863000  ekin = 0.304965814690107 |  erot = 0.555372641471618 | epot = -15.485242198319 | etot = -14.6249037421573
864000  ekin = 0.290872653002407 |  erot = 0.5537720825734 | epot = -15.4695484776756 | etot = -14.6249037420998
865000  ekin = 0.27966077424891 |  erot = 0.552546988654679 | epot = -15.4571115049861 | etot = -14.6249037420825
866000  ekin = 0.271730646598884 |  erot = 0.551558423385933 | epot = -15.4481928120997 | etot = -14.6249037421148
867000  ekin = 0.266795961580335 |  erot = 0.550582916185739 | epot = -15.442282619959 | etot = -14.6249037421929
868000  ekin = 0.263936467175558 |  erot = 0.549323573879739 | epot = -15.4381637833552 | etot = -14.6249037422999
869000  ekin = 0.261831470221842 |  erot = 0.547444696243082 | epot = -15.4341799088743 | etot = -14.6249037424094
870000  ekin = 0.259116433169414 |  erot = 0.544622620095275 | epot = -15.4286427957584 | etot = -14.6249037424937
871000  ekin = 0.254766113418661 |  erot = 0.540599894777671 | epot = -15.4202697507265 | etot = -14.6249037425302
872000  ekin = 0.248397230691804 |  erot = 0.535228153627548 | epot = -15.4085291268285 | etot = -14.6249037425092
873000  ekin = 0.240403953826285 |  erot = 0.528487826572583 | epot = -15.3937955228344 | etot = -14.6249037424355
874000  ekin = 0.231884125783745 |  erot = 0.520479317821078 | epot = -15.3772671859334 | etot = -14.6249037423285
875000  ekin = 0.224371090313998 |  erot = 0.511388489700788 | epot = -15.3606633222313 | etot = -14.6249037422165
876000  ekin = 0.219440883380304 |  erot = 0.501436812694108 | epot = -15.3457814382033 | etot = -14.6249037421289
877000  ekin = 0.218302972736541 |  erot = 0.490831150818269 | epot = -15.3340378656425 | etot = -14.6249037420877
878000  ekin = 0.221492456263516 |  erot = 0.479728387736696 | epot = -15.3261245861012 | etot = -14.624903742101
879000  ekin = 0.228756262275047 |  erot = 0.468225594693746 | epot = -15.3218855991288 | etot = -14.62490374216
880000  ekin = 0.23916916008879 |  erot = 0.456378166082174 | epot = -15.3204510684128 | etot = -14.6249037422418
881000  ekin = 0.251443176614632 |  erot = 0.444238659513065 | epot = -15.3205855784454 | etot = -14.6249037423177
882000  ekin = 0.264330844663881 |  erot = 0.43190128969608 | epot = -15.3211358767216 | etot = -14.6249037423616
883000  ekin = 0.276992343361879 |  erot = 0.419534292632584 | epot = -15.3214303783539 | etot = -14.6249037423594
884000  ekin = 0.289210952362963 |  erot = 0.407386172192775 | epot = -15.3215008668683 | etot = -14.6249037423126
885000  ekin = 0.301394205511005 |  erot = 0.395760928443894 | epot = -15.3220588761927 | etot = -14.6249037422378
886000  ekin = 0.31436859920589 |  erot = 0.384968165379889 | epot = -15.3242405067469 | etot = -14.6249037421611
887000  ekin = 0.329038341775477 |  erot = 0.375262338090619 | epot = -15.3292044219764 | etot = -14.6249037421103
888000  ekin = 0.346015111155314 |  erot = 0.366788650328168 | epot = -15.3377075035892 | etot = -14.6249037421057
889000  ekin = 0.365329693883282 |  erot = 0.35955094737734 | epot = -15.3497843834164 | etot = -14.6249037421558
890000  ekin = 0.386310696216818 |  erot = 0.353410826838142 | epot = -15.3646252653079 | etot = -14.6249037422529
891000  ekin = 0.407668087054666 |  erot = 0.348119126036796 | epot = -15.3806909554674 | etot = -14.6249037423759
892000  ekin = 0.427761236102702 |  erot = 0.343372786942168 | epot = -15.396037765541 | etot = -14.6249037424962
893000  ekin = 0.444977236018704 |  erot = 0.338883525692821 | epot = -15.4087645042964 | etot = -14.6249037425849
894000  ekin = 0.458112158679596 |  erot = 0.334441343917346 | epot = -15.4174572452184 | etot = -14.6249037426214
895000  ekin = 0.466648008330968 |  erot = 0.329956933565266 | epot = -15.4215086844955 | etot = -14.6249037425992
896000  ekin = 0.470850232518833 |  erot = 0.325472374552695 | epot = -15.421226349598 | etot = -14.6249037425264
897000  ekin = 0.471664510487189 |  erot = 0.321137893833246 | epot = -15.4177061467443 | etot = -14.6249037424239
898000  ekin = 0.470447771985121 |  erot = 0.31716128210791 | epot = -15.4125127964118 | etot = -14.6249037423187
899000  ekin = 0.468609320535131 |  erot = 0.31374324783162 | epot = -15.4072563106044 | etot = -14.6249037422377
900000  ekin = 0.467255363896452 |  erot = 0.311015004595572 | epot = -15.4031741106926 | etot = -14.6249037422006
901000  ekin = 0.466923299456765 |  erot = 0.308993431077939 | epot = -15.4008204727507 | etot = -14.624903742216
902000  ekin = 0.467466399705909 |  erot = 0.307564919774022 | epot = -15.3999350617589 | etot = -14.624903742279
903000  ekin = 0.468112799245423 |  erot = 0.30650258938551 | epot = -15.3995191310034 | etot = -14.6249037423724
904000  ekin = 0.467682260081114 |  erot = 0.305513914729626 | epot = -15.3980999172821 | etot = -14.6249037424714
905000  ekin = 0.464906903208319 |  erot = 0.304308207539406 | epot = -15.3941188532968 | etot = -14.6249037425491
906000  ekin = 0.458775313350499 |  erot = 0.302667437698498 | epot = -15.3863464936332 | etot = -14.6249037425842
907000  ekin = 0.448811106797387 |  erot = 0.300501710925559 | epot = -15.3742165602889 | etot = -14.624903742566
908000  ekin = 0.435212888278633 |  erot = 0.297873922704189 | epot = -15.3579905534804 | etot = -14.6249037424975
909000  ekin = 0.418821166579361 |  erot = 0.294986492955396 | epot = -15.3387114019291 | etot = -14.6249037423944
910000  ekin = 0.400928155652502 |  erot = 0.292134043124591 | epot = -15.3179659410567 | etot = -14.6249037422796
911000  ekin = 0.38299073131904 |  erot = 0.289635345607532 | epot = -15.2975298191036 | etot = -14.624903742177
912000  ekin = 0.366329155570265 |  erot = 0.287762457046 | epot = -15.2789953547218 | etot = -14.6249037421055
913000  ekin = 0.351888443631644 |  erot = 0.286683662572436 | epot = -15.263475848279 | etot = -14.6249037420749
914000  ekin = 0.340111462795988 |  erot = 0.286431278414276 | epot = -15.2514464832956 | etot = -14.6249037420854
915000  ekin = 0.330936398540546 |  erot = 0.286898247266849 | epot = -15.2427383879358 | etot = -14.6249037421284
916000  ekin = 0.32389927160205 |  erot = 0.287861143478129 | epot = -15.2366641572708 | etot = -14.6249037421907
917000  ekin = 0.318302399047882 |  erot = 0.289022784864801 | epot = -15.2322289261694 | etot = -14.6249037422567
918000  ekin = 0.313403328232211 |  erot = 0.290065205370544 | epot = -15.2283722759156 | etot = -14.6249037423128
919000  ekin = 0.308582994047746 |  erot = 0.290702987753655 | epot = -15.2241897241503 | etot = -14.6249037423489
920000  ekin = 0.303462620955297 |  erot = 0.290727692024701 | epot = -15.2190940553404 | etot = -14.6249037423604
921000  ekin = 0.297952758523176 |  erot = 0.290036267627134 | epot = -15.2128927684984 | etot = -14.624903742348
922000  ekin = 0.292232329167479 |  erot = 0.288639696922892 | epot = -15.2057757684081 | etot = -14.6249037423177
923000  ekin = 0.286668877938219 |  erot = 0.286652137103033 | epot = -15.1982247573198 | etot = -14.6249037422785
924000  ekin = 0.281701868658443 |  erot = 0.284264668755385 | epot = -15.1908702796542 | etot = -14.6249037422404
925000  ekin = 0.277717553237889 |  erot = 0.281710557644916 | epot = -15.1843318530949 | etot = -14.6249037422121
926000  ekin = 0.274945509179126 |  erot = 0.279230091666523 | epot = -15.1790793430443 | etot = -14.6249037421987
927000  ekin = 0.273402631519641 |  erot = 0.277042382113033 | epot = -15.1753487558335 | etot = -14.6249037422009
928000  ekin = 0.272900230271313 |  erot = 0.27532923254522 | epot = -15.1731332050308 | etot = -14.6249037422143
929000  ekin = 0.273115271900815 |  erot = 0.274232799537056 | epot = -15.1722518136686 | etot = -14.6249037422307
930000  ekin = 0.273710515355576 |  erot = 0.273865029643896 | epot = -15.1724792872395 | etot = -14.6249037422401
931000  ekin = 0.274474107139751 |  erot = 0.274323617228769 | epot = -15.1737014666023 | etot = -14.6249037422338
932000  ekin = 0.275440857683152 |  erot = 0.275707340216854 | epot = -15.176051940107 | etot = -14.624903742207
933000  ekin = 0.276957575781874 |  erot = 0.278123705988361 | epot = -15.1799850239313 | etot = -14.6249037421611
934000  ekin = 0.279664435383878 |  erot = 0.281683992543418 | epot = -15.1862521700318 | etot = -14.6249037421045
935000  ekin = 0.284382433296915 |  erot = 0.286484503522641 | epot = -15.1957706788708 | etot = -14.6249037420512
936000  ekin = 0.291920557579979 |  erot = 0.292577187598074 | epot = -15.2094014871964 | etot = -14.6249037420184
937000  ekin = 0.302840159169775 |  erot = 0.299936553990588 | epot = -15.2276804551825 | etot = -14.6249037420221
938000  ekin = 0.317231541763407 |  erot = 0.308432066638773 | epot = -15.2505673504752 | etot = -14.6249037420731
939000  ekin = 0.334562734704664 |  erot = 0.317815317270636 | epot = -15.2772817941479 | etot = -14.6249037421726
940000  ekin = 0.353649521805238 |  erot = 0.327729086105133 | epot = -15.3062823502217 | etot = -14.6249037423114
941000  ekin = 0.372770367646981 |  erot = 0.337741122003566 | epot = -15.3354152321204 | etot = -14.6249037424699
942000  ekin = 0.389915662531947 |  erot = 0.347399749799135 | epot = -15.3622191549531 | etot = -14.6249037426221
943000  ekin = 0.403126345739486 |  erot = 0.356302369934052 | epot = -15.3843324584141 | etot = -14.6249037427406
944000  ekin = 0.410851754406517 |  erot = 0.364163156178947 | epot = -15.3999186533885 | etot = -14.624903742803
945000  ekin = 0.412247920960694 |  erot = 0.370864511414574 | epot = -15.4080161751724 | etot = -14.6249037427972
946000  ekin = 0.407348747780355 |  erot = 0.376479254457633 | epot = -15.4087317449614 | etot = -14.6249037427235
947000  ekin = 0.397071124217177 |  erot = 0.381256899558804 | epot = -15.4032317663713 | etot = -14.6249037425953
948000  ekin = 0.383053455726579 |  erot = 0.385576026491136 | epot = -15.3935332246539 | etot = -14.6249037424362
949000  ekin = 0.367364810070546 |  erot = 0.389872987609663 | epot = -15.382141539954 | etot = -14.6249037422738
950000  ekin = 0.352149150211141 |  erot = 0.394562514443112 | epot = -15.371615406789 | etot = -14.6249037421348
951000  ekin = 0.339280178143099 |  erot = 0.399966938641359 | epot = -15.3641508588234 | etot = -14.6249037420389
952000  ekin = 0.330096120379237 |  erot = 0.406268489131811 | epot = -15.3612683515071 | etot = -14.6249037419961
953000  ekin = 0.325261831669684 |  erot = 0.413492937870729 | epot = -15.3636585115451 | etot = -14.6249037420047
954000  ekin = 0.324774911929383 |  erot = 0.421526046053159 | epot = -15.3712047000361 | etot = -14.6249037420535
955000  ekin = 0.328098170459405 |  erot = 0.43015685816017 | epot = -15.3831587707447 | etot = -14.6249037421252
956000  ekin = 0.334370903123805 |  erot = 0.439135698166764 | epot = -15.3984103434923 | etot = -14.6249037422018
957000  ekin = 0.342633913360331 |  erot = 0.448231239799098 | epot = -15.415768895429 | etot = -14.6249037422696
958000  ekin = 0.352004139469646 |  erot = 0.457271615167415 | epot = -15.4341794969597 | etot = -14.6249037423226
959000  ekin = 0.361755395785228 |  erot = 0.466159587643494 | epot = -15.4528187257923 | etot = -14.6249037423635
960000  ekin = 0.371296348402955 |  erot = 0.474860087932416 | epot = -15.4710601787363 | etot = -14.6249037424009
961000  ekin = 0.380073790912418 |  erot = 0.483367158174937 | epot = -15.4883446915324 | etot = -14.624903742445
962000  ekin = 0.387455548950117 |  erot = 0.491663490520803 | epot = -15.5040227819739 | etot = -14.624903742503
963000  ekin = 0.392654097311874 |  erot = 0.49968729563245 | epot = -15.5172451355191 | etot = -14.6249037425748
964000  ekin = 0.394737939559185 |  erot = 0.507318071995981 | epot = -15.5269597542072 | etot = -14.624903742652
965000  ekin = 0.392748486467115 |  erot = 0.514386334667554 | epot = -15.5320385638537 | etot = -14.6249037427191
966000  ekin = 0.38590547325284 |  erot = 0.520705106527849 | epot = -15.5315143225377 | etot = -14.624903742757
967000  ekin = 0.373852021645421 |  erot = 0.526114369234909 | epot = -15.5248701336288 | etot = -14.6249037427485
968000  ekin = 0.356869417135994 |  erot = 0.530525868585158 | epot = -15.5122990284054 | etot = -14.6249037426842
969000  ekin = 0.335986889834556 |  erot = 0.533955228284217 | epot = -15.4948458606857 | etot = -14.624903742567
970000  ekin = 0.312927788672648 |  erot = 0.536531428461786 | epot = -15.4743629595477 | etot = -14.6249037424133
971000  ekin = 0.289872105907182 |  erot = 0.538479668129509 | epot = -15.4532555162878 | etot = -14.6249037422511
972000  ekin = 0.269070232407033 |  erot = 0.540080898361602 | epot = -15.4340548728818 | etot = -14.6249037421131
973000  ekin = 0.252397022945933 |  erot = 0.54161782723094 | epot = -15.4189185922051 | etot = -14.6249037420282
974000  ekin = 0.240964852823081 |  erot = 0.543321042152107 | epot = -15.4091896369882 | etot = -14.624903742013
975000  ekin = 0.23490216482483 |  erot = 0.545328986458791 | epot = -15.4051348933517 | etot = -14.6249037420681
976000  ekin = 0.233353466622718 |  erot = 0.547671994180028 | epot = -15.4059292029808 | etot = -14.624903742178
977000  ekin = 0.23469220109011 |  erot = 0.550284513867316 | epot = -15.4098804572738 | etot = -14.6249037423163
978000  ekin = 0.236887903181319 |  erot = 0.553043053342949 | epot = -15.4148346989756 | etot = -14.6249037424513
979000  ekin = 0.237945797132614 |  erot = 0.555821040963938 | epot = -15.4186705806485 | etot = -14.624903742552
980000  ekin = 0.236334546964098 |  erot = 0.558547250125554 | epot = -15.4197855396836 | etot = -14.624903742594
981000  ekin = 0.231322843924842 |  erot = 0.561252158433111 | epot = -15.4174787449233 | etot = -14.6249037425653
982000  ekin = 0.223154169545187 |  erot = 0.564087592075058 | epot = -15.4121455040898 | etot = -14.6249037424696
983000  ekin = 0.213008719539848 |  erot = 0.567310103887051 | epot = -15.405222565754 | etot = -14.6249037423271
984000  ekin = 0.202740628548823 |  erot = 0.571227590062905 | epot = -15.3988719607832 | etot = -14.6249037421715
985000  ekin = 0.19443566515497 |  erot = 0.576119771488149 | epot = -15.395459178685 | etot = -14.6249037420419
986000  ekin = 0.189894304519326 |  erot = 0.582152858152867 | epot = -15.3969509046438 | etot = -14.6249037419716
987000  ekin = 0.190182835425093 |  erot = 0.589313613953994 | epot = -15.4044001913574 | etot = -14.6249037419783
988000  ekin = 0.195390213187501 |  erot = 0.597385005524193 | epot = -15.4176789607687 | etot = -14.624903742057
989000  ekin = 0.204671362362471 |  erot = 0.605974905403898 | epot = -15.4355500099488 | etot = -14.6249037421824
990000  ekin = 0.216563394578787 |  erot = 0.614593273597699 | epot = -15.4560604104926 | etot = -14.6249037423161
991000  ekin = 0.229465191862139 |  erot = 0.622757127490779 | epot = -15.4771260617733 | etot = -14.6249037424204
992000  ekin = 0.242114271128949 |  erot = 0.630092599917091 | epot = -15.4971106135164 | etot = -14.6249037424704
993000  ekin = 0.253902581480084 |  erot = 0.636403793831659 | epot = -15.5152101177729 | etot = -14.6249037424612
994000  ekin = 0.264939510335902 |  erot = 0.641689105048086 | epot = -15.5315323577919 | etot = -14.6249037424079
995000  ekin = 0.275864888579236 |  erot = 0.646102898208602 | epot = -15.5468715291263 | etot = -14.6249037423384
996000  ekin = 0.287497820770256 |  erot = 0.649877086441226 | epot = -15.5622786494954 | etot = -14.6249037422839
997000  ekin = 0.300450307467438 |  erot = 0.65322742357329 | epot = -15.5785814733092 | etot = -14.6249037422685
998000  ekin = 0.314829914377602 |  erot = 0.656270894957618 | epot = -15.5960045516385 | etot = -14.6249037423033
999000  ekin = 0.330110494517114 |  erot = 0.658973630822449 | epot = -15.6139878677246 | etot = -14.624903742385
1000000  ekin = 0.345190458650495 |  erot = 0.661138339466907 | epot = -15.6312325406154 | etot = -14.624903742498
 1000000  0.025569664   -1.5839232  0.020799898   -1.5286042 -3.5789082e-06 
Loop time of 25.9663 on 1 procs for 1000000 steps with 10 atoms

Performance: 33273.840 tau/day, 38511.388 timesteps/s
99.6% CPU use with 1 MPI tasks x no OpenMP threads

MPI task timing breakdown:
Section |  min time  |  avg time  |  max time  |%varavg| %total
---------------------------------------------------------------
Pair    | 21.428     | 21.428     | 21.428     |   0.0 | 82.52
Bond    | 0.76981    | 0.76981    | 0.76981    |   0.0 |  2.96
Neigh   | 0          | 0          | 0          |   0.0 |  0.00
Comm    | 0.25709    | 0.25709    | 0.25709    |   0.0 |  0.99
Output  | 9e-06      | 9e-06      | 9e-06      |   0.0 |  0.00
Modify  | 3.1584     | 3.1584     | 3.1584     |   0.0 | 12.16
Other   |            | 0.3534     |            |       |  1.36

Nlocal:    10 ave 10 max 10 min
Histogram: 1 0 0 0 0 0 0 0 0 0
Nghost:    0 ave 0 max 0 min
Histogram: 1 0 0 0 0 0 0 0 0 0
Neighs:    45 ave 45 max 45 min
Histogram: 1 0 0 0 0 0 0 0 0 0

Total # of neighbors = 45
Ave neighs/atom = 4.5
Ave special neighs/atom = 3.6
Neighbor list builds = 0
Dangerous builds = 0

#write_restart config.${number}.*
Total wall time: 0:00:25
