LAMMPS (18 Jun 2019)
variable number	equal 1
variable ofreq	equal 1000
variable efreq	equal 1000
variable T      equal 0.1

units lj

dimension 3

newton off

boundary  p p p

atom_style hybrid bond ellipsoid
atom_modify sort 0 1.0

# Pair interactions require lists of neighbours to be calculated
neighbor 1.0 bin
neigh_modify every 1 delay 0 check yes

read_data data.duplex3
  orthogonal box = (-20 -20 -20) to (20 20 20)
  1 by 2 by 2 MPI processor grid
  reading atoms ...
  10 atoms
  reading velocities ...
  10 velocities
  10 ellipsoids
  scanning bonds ...
  2 = max bonds/atom
  reading bonds ...
  8 bonds
  2 = max # of 1-2 neighbors
  2 = max # of 1-3 neighbors
  2 = max # of 1-4 neighbors
  4 = max # of special neighbors
  special bonds CPU = 0.000189 secs
  read_data CPU = 0.003302 secs

set atom * mass 1.0
  10 settings made for mass

group all type 1 4
10 atoms in group all

# oxDNA bond interactions - FENE backbone
bond_style oxdna2/fene
bond_coeff * 2.0 0.25 0.7564

# oxDNA pair interactions
pair_style hybrid/overlay oxdna2/excv oxdna2/stk oxdna2/hbond oxdna2/xstk oxdna2/coaxstk oxdna2/dh
pair_coeff * * oxdna2/excv    2.0 0.7 0.675 2.0 0.515 0.5 2.0 0.33 0.32
pair_coeff * * oxdna2/stk     seqdep ${T} 1.3523 2.6717 6.0 0.4 0.9 0.32 0.6 1.3 0 0.8 0.9 0 0.95 0.9 0 0.95 2.0 0.65 2.0 0.65
pair_coeff * * oxdna2/stk     seqdep 0.1 1.3523 2.6717 6.0 0.4 0.9 0.32 0.6 1.3 0 0.8 0.9 0 0.95 0.9 0 0.95 2.0 0.65 2.0 0.65
pair_coeff * * oxdna2/hbond   seqdep 0.0 8.0 0.4 0.75 0.34 0.7 1.5 0 0.7 1.5 0 0.7 1.5 0 0.7 0.46 3.141592653589793 0.7 4.0 1.5707963267948966 0.45 4.0 1.5707963267948966 0.45
pair_coeff 1 4 oxdna2/hbond   seqdep 1.0678 8.0 0.4 0.75 0.34 0.7 1.5 0 0.7 1.5 0 0.7 1.5 0 0.7 0.46 3.141592653589793 0.7 4.0 1.5707963267948966 0.45 4.0 1.5707963267948966 0.45
pair_coeff 2 3 oxdna2/hbond   seqdep 1.0678 8.0 0.4 0.75 0.34 0.7 1.5 0 0.7 1.5 0 0.7 1.5 0 0.7 0.46 3.141592653589793 0.7 4.0 1.5707963267948966 0.45 4.0 1.5707963267948966 0.45
pair_coeff * * oxdna2/xstk    47.5 0.575 0.675 0.495 0.655 2.25 0.791592653589793 0.58 1.7 1.0 0.68 1.7 1.0 0.68 1.5 0 0.65 1.7 0.875 0.68 1.7 0.875 0.68
pair_coeff * * oxdna2/coaxstk 58.5 0.4 0.6 0.22 0.58 2.0 2.891592653589793 0.65 1.3 0 0.8 0.9 0 0.95 0.9 0 0.95 40.0 3.116592653589793
pair_coeff * * oxdna2/dh      ${T} 1.0 0.815
pair_coeff * * oxdna2/dh      0.1 1.0 0.815

# NVE ensemble
fix 1 all nve/dot
#fix 1 all nve/dotc/langevin ${T} ${T} 0.03 457145 angmom 10
#fix 1 all nve/asphere
#fix 2 all langevin ${T} ${T} 0.03 457145 angmom 10

timestep 1e-5

#comm_style tiled
#fix 3 all balance 10000 1.1 rcb

#compute mol all chunk/atom molecule
#compute mychunk all vcm/chunk mol
#fix 4 all ave/time 10000 1 10000 c_mychunk[1] c_mychunk[2] c_mychunk[3] file vcm.txt mode vector

#dump pos all xyz ${ofreq} traj.${number}.xyz

#compute quat all property/atom quatw quati quatj quatk
#dump quat all custom ${ofreq} quat.${number}.txt id c_quat[1] c_quat[2] c_quat[3] c_quat[4]
#dump_modify quat sort id
#dump_modify quat format line "%d  %13.6le  %13.6le  %13.6le  %13.6le"

compute erot all erotate/asphere
compute ekin all ke
compute epot all pe
variable erot equal c_erot
variable ekin equal c_ekin
variable epot equal c_epot
variable etot equal c_erot+c_ekin+c_epot
fix 5 all print ${efreq} "$(step)  ekin = ${ekin} |  erot = ${erot} | epot = ${epot} | etot = ${etot}" screen yes
fix 5 all print 1000 "$(step)  ekin = ${ekin} |  erot = ${erot} | epot = ${epot} | etot = ${etot}" screen yes

#dump out all custom ${ofreq} out.${number}.txt id x y z vx vy vz fx fy fz tqx tqy tqz
#dump_modify out sort id
#dump_modify out format line "%d   %13.6le %13.6le %13.6le  %13.6le %13.6le %13.6le  %13.6le %13.6le %13.6le  %13.6le %13.6le %13.6le"

run 1000000
Neighbor list info ...
  update every 1 steps, delay 0 steps, check yes
  max neighbors/atom: 2000, page size: 100000
  master list distance cutoff = 2.6274
  ghost atom cutoff = 2.6274
  binsize = 1.3137, bins = 31 31 31
  6 neighbor lists, perpetual/occasional/extra = 6 0 0
  (1) pair oxdna2/excv, perpetual
      attributes: half, newton off
      pair build: half/bin/newtoff
      stencil: half/bin/3d/newtoff
      bin: standard
  (2) pair oxdna2/stk, perpetual, copy from (1)
      attributes: half, newton off
      pair build: copy
      stencil: none
      bin: none
  (3) pair oxdna2/hbond, perpetual, copy from (1)
      attributes: half, newton off
      pair build: copy
      stencil: none
      bin: none
  (4) pair oxdna2/xstk, perpetual, copy from (1)
      attributes: half, newton off
      pair build: copy
      stencil: none
      bin: none
  (5) pair oxdna2/coaxstk, perpetual, copy from (1)
      attributes: half, newton off
      pair build: copy
      stencil: none
      bin: none
  (6) pair oxdna2/dh, perpetual, copy from (1)
      attributes: half, newton off
      pair build: copy
      stencil: none
      bin: none
Per MPI rank memory allocation (min/avg/max) = 7.652 | 7.834 | 8.016 Mbytes
Step Temp E_pair E_mol TotEng Press 
       0            0   -1.4720158  0.009525411   -1.4624904 3.1370518e-06 
1000  ekin = 0.00366431201929595 |  erot = 0.00193726360268106 | epot = -14.630505317301 | etot = -14.624903741679
2000  ekin = 0.0144775076075461 |  erot = 0.00770914672939826 | epot = -14.6470903960565 | etot = -14.6249037417196
3000  ekin = 0.0319122186081537 |  erot = 0.017197232864929 | epot = -14.6740131932573 | etot = -14.6249037417842
4000  ekin = 0.055128304350968 |  erot = 0.0302085305548261 | epot = -14.7102405767754 | etot = -14.6249037418696
5000  ekin = 0.0830285165715777 |  erot = 0.0464820547542036 | epot = -14.7544143132963 | etot = -14.6249037419705
6000  ekin = 0.11433112154675 |  erot = 0.0656980211282502 | epot = -14.8049328847556 | etot = -14.6249037420806
7000  ekin = 0.14765386656188 |  erot = 0.0874894888755877 | epot = -14.8600470976311 | etot = -14.6249037421936
8000  ekin = 0.18160209956019 |  erot = 0.111456095727761 | epot = -14.9179619375912 | etot = -14.6249037423032
9000  ekin = 0.214852894725897 |  erot = 0.137179311245239 | epot = -14.9769359483746 | etot = -14.6249037424035
10000  ekin = 0.246227151956005 |  erot = 0.164238435218469 | epot = -15.0353693296649 | etot = -14.6249037424904
11000  ekin = 0.274743080419017 |  erot = 0.192226420003323 | epot = -15.091873242983 | etot = -14.6249037425607
12000  ekin = 0.299647141765663 |  erot = 0.220764512146746 | epot = -15.1453153965252 | etot = -14.6249037426128
13000  ekin = 0.320421918860927 |  erot = 0.249514690530647 | epot = -15.1948403520386 | etot = -14.624903742647
14000  ekin = 0.336773734884323 |  erot = 0.278188933730603 | epot = -15.2398664112794 | etot = -14.6249037426645
15000  ekin = 0.34860541376287 |  erot = 0.306554508009539 | epot = -15.2800636644399 | etot = -14.6249037426675
16000  ekin = 0.355980829097832 |  erot = 0.334434770083873 | epot = -15.3153193418403 | etot = -14.6249037426586
17000  ekin = 0.359087701059401 |  erot = 0.361705441666651 | epot = -15.3456968853665 | etot = -14.6249037426405
18000  ekin = 0.358203710992248 |  erot = 0.388286889516457 | epot = -15.3713943431244 | etot = -14.6249037426157
19000  ekin = 0.353668912555266 |  erot = 0.414133518537258 | epot = -15.3927061736789 | etot = -14.6249037425864
20000  ekin = 0.345865220775347 |  erot = 0.439221805285588 | epot = -15.4099907686155 | etot = -14.6249037425546
21000  ekin = 0.335201981146553 |  erot = 0.463538642606666 | epot = -15.423644366275 | etot = -14.6249037425218
22000  ekin = 0.322105588835009 |  erot = 0.487071492273222 | epot = -15.4340808235974 | etot = -14.6249037424892
23000  ekin = 0.307010918596293 |  erot = 0.509801406229522 | epot = -15.4417160672835 | etot = -14.6249037424577
24000  ekin = 0.290352786033317 |  erot = 0.53169940050183 | epot = -15.4469559289633 | etot = -14.6249037424281
25000  ekin = 0.272556500902201 |  erot = 0.552726088759337 | epot = -15.4501863320625 | etot = -14.624903742401
26000  ekin = 0.254027484079225 |  erot = 0.572834017299149 | epot = -15.451765243755 | etot = -14.6249037423766
27000  ekin = 0.235140665216512 |  erot = 0.591971851501351 | epot = -15.4520162590732 | etot = -14.6249037423553
28000  ekin = 0.216230835846381 |  erot = 0.610089455964456 | epot = -15.4512240341482 | etot = -14.6249037423373
29000  ekin = 0.197585285158732 |  erot = 0.627142960082751 | epot = -15.4496319875638 | etot = -14.6249037423223
30000  ekin = 0.179439940173485 |  erot = 0.643099062793524 | epot = -15.4474427452772 | etot = -14.6249037423102
31000  ekin = 0.161979935826275 |  erot = 0.657938056392414 | epot = -15.4448217345188 | etot = -14.6249037423001
32000  ekin = 0.145345108983154 |  erot = 0.671655297434073 | epot = -15.4419041487088 | etot = -14.6249037422916
33000  ekin = 0.129640400345301 |  erot = 0.684261083518649 | epot = -15.4388052261477 | etot = -14.6249037422838
34000  ekin = 0.114950474500096 |  erot = 0.695779112936577 | epot = -15.4356333297123 | etot = -14.6249037422756
35000  ekin = 0.101357103460395 |  erot = 0.706243888527945 | epot = -15.4325047342545 | etot = -14.6249037422661
36000  ekin = 0.0889576334571495 |  erot = 0.715697403164658 | epot = -15.4295587788764 | etot = -14.6249037422546
37000  ekin = 0.0778817390290869 |  erot = 0.724185638635694 | epot = -15.4269711199052 | etot = -14.6249037422404
38000  ekin = 0.0683037091548152 |  erot = 0.731755309647459 | epot = -15.4249627610255 | etot = -14.6249037422232
39000  ekin = 0.0604476327394574 |  erot = 0.738451228922887 | epot = -15.4238026038658 | etot = -14.6249037422035
40000  ekin = 0.0545835914676698 |  erot = 0.744314557682062 | epot = -15.4238018913317 | etot = -14.624903742182
41000  ekin = 0.0510142787133431 |  erot = 0.749382063190686 | epot = -15.425300084064 | etot = -14.6249037421599
42000  ekin = 0.0500531571157122 |  erot = 0.753686350478873 | epot = -15.4286432497339 | etot = -14.6249037421393
43000  ekin = 0.0519969858277791 |  erot = 0.757256889238925 | epot = -15.4341576171884 | etot = -14.6249037421217
44000  ekin = 0.0570968352183795 |  erot = 0.760121540481331 | epot = -15.4421221178083 | etot = -14.6249037421086
45000  ekin = 0.0655321553469052 |  erot = 0.762308219230389 | epot = -15.4527441166787 | etot = -14.6249037421014
46000  ekin = 0.077391880036667 |  erot = 0.763846321567477 | epot = -15.4661419437046 | etot = -14.6249037421005
47000  ekin = 0.0926650518886644 |  erot = 0.764767599959881 | epot = -15.4823363939543 | etot = -14.6249037421058
48000  ekin = 0.111241466890937 |  erot = 0.765106283689481 | epot = -15.5012514926974 | etot = -14.624903742117
49000  ekin = 0.132920935183018 |  erot = 0.764898395951864 | epot = -15.5227230732682 | etot = -14.6249037421333
50000  ekin = 0.157428432862217 |  erot = 0.764180392178735 | epot = -15.5465125671948 | etot = -14.6249037421538
51000  ekin = 0.184431879186323 |  erot = 0.762987403181098 | epot = -15.572323024545 | etot = -14.6249037421776
52000  ekin = 0.213559336999553 |  erot = 0.761351471408863 | epot = -15.5998145506122 | etot = -14.6249037422038
53000  ekin = 0.244412677541706 |  erot = 0.759300175100794 | epot = -15.6286165948746 | etot = -14.6249037422321
54000  ekin = 0.276574826726782 |  erot = 0.756855909735936 | epot = -15.6583344787253 | etot = -14.6249037422625
55000  ekin = 0.309607708697251 |  erot = 0.754035838659022 | epot = -15.6885472896524 | etot = -14.6249037422961
56000  ekin = 0.343038597242195 |  erot = 0.750852192167276 | epot = -15.7187945317442 | etot = -14.6249037423347
57000  ekin = 0.376334705011675 |  erot = 0.747312289063632 | epot = -15.748550736456 | etot = -14.6249037423806
58000  ekin = 0.408870193943514 |  erot = 0.743417624903406 | epot = -15.7771915612831 | etot = -14.6249037424361
59000  ekin = 0.439895666476151 |  erot = 0.739161690570044 | epot = -15.8039610995489 | etot = -14.6249037425027
60000  ekin = 0.468524372325882 |  erot = 0.734526514748492 | epot = -15.8279546296535 | etot = -14.6249037425791
61000  ekin = 0.493750804630977 |  erot = 0.729479048549992 | epot = -15.8481335958426 | etot = -14.6249037426617
62000  ekin = 0.514511417905742 |  erot = 0.723968952962828 | epot = -15.8633841136118 | etot = -14.6249037427432
63000  ekin = 0.529785687820863 |  erot = 0.717929490923054 | epot = -15.8726189215585 | etot = -14.6249037428146
64000  ekin = 0.538722043350041 |  erot = 0.711282639869802 | epot = -15.8749084260858 | etot = -14.624903742866
65000  ekin = 0.540763046401972 |  erot = 0.703948378732391 | epot = -15.8696151680244 | etot = -14.62490374289
66000  ekin = 0.535742115227036 |  erot = 0.695856780686584 | epot = -15.8565026387959 | etot = -14.6249037428823
67000  ekin = 0.523930969354304 |  erot = 0.68696057843429 | epot = -15.8357952906313 | etot = -14.6249037428428
68000  ekin = 0.506029704478312 |  erot = 0.677245632039928 | epot = -15.8081790792934 | etot = -14.6249037427752
69000  ekin = 0.483104826200259 |  erot = 0.666737270644213 | epot = -15.7747458395309 | etot = -14.6249037426864
70000  ekin = 0.456490218293525 |  erot = 0.655501536742973 | epot = -15.7368954976211 | etot = -14.6249037425846
71000  ekin = 0.427669918862827 |  erot = 0.643641521525979 | epot = -15.696215182867 | etot = -14.6249037424782
72000  ekin = 0.398160338931837 |  erot = 0.631289876690699 | epot = -15.6543539579978 | etot = -14.6249037423753
73000  ekin = 0.369405258277091 |  erot = 0.618599034382457 | epot = -15.6129080349413 | etot = -14.6249037422818
74000  ekin = 0.342691749042478 |  erot = 0.605730669564096 | epot = -15.573326160809 | etot = -14.6249037422024
75000  ekin = 0.319090526807116 |  erot = 0.592845634905565 | epot = -15.5368399038526 | etot = -14.6249037421399
76000  ekin = 0.299420611427649 |  erot = 0.580095163563256 | epot = -15.5044195170865 | etot = -14.6249037420956
77000  ekin = 0.284235504575202 |  erot = 0.567613716752232 | epot = -15.476752963397 | etot = -14.6249037420696
78000  ekin = 0.273826140866745 |  erot = 0.555513536863883 | epot = -15.4542434197916 | etot = -14.624903742061
79000  ekin = 0.268234635497765 |  erot = 0.54388078034531 | epot = -15.437019157912 | etot = -14.6249037420689
80000  ekin = 0.267272602906572 |  erot = 0.532773036269537 | epot = -15.4249493812683 | etot = -14.6249037420922
81000  ekin = 0.270538934182649 |  erot = 0.522218059775401 | epot = -15.417660736088 | etot = -14.62490374213
82000  ekin = 0.27743457435936 |  erot = 0.512213638247992 | epot = -15.414551954789 | etot = -14.6249037421817
83000  ekin = 0.287175732620383 |  erot = 0.502728640569106 | epot = -15.4148081154356 | etot = -14.6249037422461
84000  ekin = 0.298811175848726 |  erot = 0.493705451301405 | epot = -15.4174203694714 | etot = -14.6249037423213
85000  ekin = 0.311252369949757 |  erot = 0.485064122067327 | epot = -15.4212202344208 | etot = -14.6249037424038
86000  ekin = 0.323325626376074 |  erot = 0.476708618160845 | epot = -15.4249379870248 | etot = -14.6249037424879
87000  ekin = 0.33385179551888 |  erot = 0.468535420697723 | epot = -15.4272909587828 | etot = -14.6249037425662
88000  ekin = 0.341751109758587 |  erot = 0.460444399763838 | epot = -15.427099252152 | etot = -14.6249037426296
89000  ekin = 0.346159825920252 |  erot = 0.452351304178841 | epot = -15.4234148727694 | etot = -14.6249037426704
90000  ekin = 0.346534667470577 |  erot = 0.444200535918418 | epot = -15.4156389460721 | etot = -14.6249037426831
91000  ekin = 0.342715665476236 |  erot = 0.435976333753466 | epot = -15.4035957418971 | etot = -14.6249037426674
92000  ekin = 0.334922715851711 |  erot = 0.427710377227768 | epot = -15.3875368357076 | etot = -14.6249037426281
93000  ekin = 0.323677844434189 |  erot = 0.419484336040122 | epot = -15.368065923049 | etot = -14.6249037425747
94000  ekin = 0.309669782921695 |  erot = 0.411426964072737 | epot = -15.3460004895125 | etot = -14.624903742518
95000  ekin = 0.293600014862055 |  erot = 0.403706586473305 | epot = -15.3222103438027 | etot = -14.6249037424673
96000  ekin = 0.2760582848845 |  erot = 0.396520701306389 | epot = -15.297482728618 | etot = -14.6249037424272
97000  ekin = 0.257464456296026 |  erot = 0.390084510983188 | epot = -15.2724527096758 | etot = -14.6249037423966
98000  ekin = 0.238086767083294 |  erot = 0.384619533405776 | epot = -15.24761004286 | etot = -14.6249037423709
99000  ekin = 0.218116994126189 |  erot = 0.380342481668315 | epot = -15.2233632181387 | etot = -14.6249037423442
100000  ekin = 0.197764845956813 |  erot = 0.377453964065525 | epot = -15.2001225523343 | etot = -14.6249037423119
101000  ekin = 0.177333852671588 |  erot = 0.37612662169739 | epot = -15.1783642166417 | etot = -14.6249037422727
102000  ekin = 0.157255732179676 |  erot = 0.376493003927858 | epot = -15.1586524783359 | etot = -14.6249037422283
103000  ekin = 0.138079925449103 |  erot = 0.378634329970109 | epot = -15.1416179976017 | etot = -14.6249037421825
104000  ekin = 0.120430234291513 |  erot = 0.38257179133531 | epot = -15.1279057677667 | etot = -14.6249037421398
105000  ekin = 0.104946722393699 |  erot = 0.388261944551355 | epot = -15.1181124090491 | etot = -14.6249037421041
106000  ekin = 0.0922291289495077 |  erot = 0.395597086392455 | epot = -15.1127299574201 | etot = -14.6249037420781
107000  ekin = 0.0827918191992449 |  erot = 0.404410579138415 | epot = -15.112106140401 | etot = -14.6249037420633
108000  ekin = 0.0770336430610872 |  erot = 0.414486225075909 | epot = -15.116423610197 | etot = -14.62490374206
109000  ekin = 0.0752213121179505 |  erot = 0.425570202879076 | epot = -15.1256952570645 | etot = -14.6249037420675
110000  ekin = 0.077482636424855 |  erot = 0.437383858086389 | epot = -15.1397702365963 | etot = -14.6249037420851
111000  ekin = 0.0838057148049012 |  erot = 0.449635759435866 | epot = -15.1583452163524 | etot = -14.6249037421117
112000  ekin = 0.094041131771038 |  erot = 0.462031808376727 | epot = -15.1809766822944 | etot = -14.6249037421466
113000  ekin = 0.107905661684216 |  erot = 0.47428271886895 | epot = -15.2070921227424 | etot = -14.6249037421893
114000  ekin = 0.124987416380585 |  erot = 0.486108767327206 | epot = -15.2359999259466 | etot = -14.6249037422388
115000  ekin = 0.144753474421712 |  erot = 0.497242253022929 | epot = -15.2668994697393 | etot = -14.6249037422947
116000  ekin = 0.166561593123338 |  erot = 0.507428522970937 | epot = -15.2988938584497 | etot = -14.6249037423555
117000  ekin = 0.189677527330919 |  erot = 0.516426638198595 | epot = -15.3310079079494 | etot = -14.6249037424199
118000  ekin = 0.213298790897393 |  erot = 0.524010758771299 | epot = -15.3622132921543 | etot = -14.6249037424856
119000  ekin = 0.236584576961686 |  erot = 0.529973112381402 | epot = -15.3914614318934 | etot = -14.6249037425503
120000  ekin = 0.258690301858407 |  erot = 0.5341290349257 | epot = -15.4177230793954 | etot = -14.6249037426112
121000  ekin = 0.278804196533067 |  erot = 0.536324108799723 | epot = -15.4400320479983 | etot = -14.6249037426655
122000  ekin = 0.296182819519644 |  erot = 0.536442962870851 | epot = -15.4575295251011 | etot = -14.6249037427106
123000  ekin = 0.310182446406097 |  erot = 0.534418915104283 | epot = -15.4695051042545 | etot = -14.6249037427441
124000  ekin = 0.320283972930319 |  erot = 0.530243389137748 | epot = -15.4754311048325 | etot = -14.6249037427644
125000  ekin = 0.326110081462518 |  erot = 0.523973945236228 | epot = -15.4749877694694 | etot = -14.6249037427707
126000  ekin = 0.32743470961478 |  erot = 0.515739832556742 | epot = -15.468078284934 | etot = -14.6249037427624
127000  ekin = 0.324186046690464 |  erot = 0.505744172152755 | epot = -15.4548339615831 | etot = -14.6249037427398
128000  ekin = 0.316445106704291 |  erot = 0.494262185784872 | epot = -15.4356110351926 | etot = -14.6249037427034
129000  ekin = 0.304442167762781 |  erot = 0.481635256753188 | epot = -15.4109811671702 | etot = -14.6249037426542
130000  ekin = 0.288552887156539 |  erot = 0.468261006625544 | epot = -15.3817176363753 | etot = -14.6249037425933
131000  ekin = 0.269294696165401 |  erot = 0.45457995559872 | epot = -15.3487783942861 | etot = -14.6249037425219
132000  ekin = 0.247322351785784 |  erot = 0.441059661322916 | epot = -15.3132857555505 | etot = -14.6249037424418
133000  ekin = 0.223419723871666 |  erot = 0.428177456066593 | epot = -15.2765009222933 | etot = -14.624903742355
134000  ekin = 0.19848366631698 |  erot = 0.416402982921093 | epot = -15.2397903915024 | etot = -14.6249037422643
135000  ekin = 0.173495806295277 |  erot = 0.406181641002432 | epot = -15.2045811894713 | etot = -14.6249037421736
136000  ekin = 0.149479658252776 |  erot = 0.397919790440761 | epot = -15.1723031907806 | etot = -14.6249037420871
137000  ekin = 0.127443476996694 |  erot = 0.391972186713497 | epot = -15.1443194057198 | etot = -14.6249037420096
138000  ekin = 0.108312970525399 |  erot = 0.38863170083623 | epot = -15.121848413308 | etot = -14.6249037419464
139000  ekin = 0.0928612988417865 |  erot = 0.388121053034643 | epot = -15.1058860937781 | etot = -14.6249037419017
140000  ekin = 0.0816456573909381 |  erot = 0.390586148388578 | epot = -15.0971355476584 | etot = -14.6249037418789
141000  ekin = 0.074959634987115 |  erot = 0.396090706683305 | epot = -15.0959540835502 | etot = -14.6249037418797
142000  ekin = 0.072808553768854 |  erot = 0.404612196534598 | epot = -15.1023244922079 | etot = -14.6249037419044
143000  ekin = 0.0749117535381453 |  erot = 0.416039504837322 | epot = -15.1158550003263 | etot = -14.6249037419509
144000  ekin = 0.0807320498018154 |  erot = 0.430173136684429 | epot = -15.1358089285018 | etot = -14.6249037420155
145000  ekin = 0.0895290255830711 |  erot = 0.44672889393778 | epot = -15.1611616616143 | etot = -14.6249037420935
146000  ekin = 0.100429851262872 |  erot = 0.46534582966922 | epot = -15.1906794231108 | etot = -14.6249037421787
147000  ekin = 0.112509264558272 |  erot = 0.485598823527704 | epot = -15.2230118303508 | etot = -14.6249037422648
148000  ekin = 0.124869425792311 |  erot = 0.507015469189125 | epot = -15.2567886373275 | etot = -14.6249037423461
149000  ekin = 0.136710750658201 |  erot = 0.529096273050756 | epot = -15.2907107661264 | etot = -14.6249037424174
150000  ekin = 0.147386480805994 |  erot = 0.551336607351909 | epot = -15.3236268306334 | etot = -14.6249037424755
151000  ekin = 0.156436378415923 |  erot = 0.573248570644847 | epot = -15.3545886915789 | etot = -14.6249037425181
152000  ekin = 0.163597998371616 |  erot = 0.594380933602504 | epot = -15.3828826745191 | etot = -14.624903742545
153000  ekin = 0.168796920199645 |  erot = 0.614335653334077 | epot = -15.4080363160909 | etot = -14.6249037425571
154000  ekin = 0.172119667637843 |  erot = 0.632779929091333 | epot = -15.4298033392859 | etot = -14.6249037425567
155000  ekin = 0.173774602206439 |  erot = 0.649453329864798 | epot = -15.4481316746178 | etot = -14.6249037425466
156000  ekin = 0.174046854480218 |  erot = 0.664170048550206 | epot = -15.4631206455604 | etot = -14.62490374253
157000  ekin = 0.17325345101635 |  erot = 0.67681676270221 | epot = -15.4749739562283 | etot = -14.6249037425097
158000  ekin = 0.171704281293994 |  erot = 0.687346881267705 | epot = -15.48395490505 | etot = -14.6249037424883
159000  ekin = 0.169673443700116 |  erot = 0.695772131172833 | epot = -15.4903493173403 | etot = -14.6249037424673
160000  ekin = 0.167383826014799 |  erot = 0.702152502586226 | epot = -15.4944400710487 | etot = -14.6249037424476
161000  ekin = 0.165005624031947 |  erot = 0.706585545944227 | epot = -15.4964949124054 | etot = -14.6249037424292
162000  ekin = 0.162667154471987 |  erot = 0.7091959147906 | epot = -15.4967668116741 | etot = -14.6249037424115
163000  ekin = 0.160474189581708 |  erot = 0.710125892129571 | epot = -15.4955038241048 | etot = -14.6249037423935
164000  ekin = 0.158532578972808 |  erot = 0.709527441008673 | epot = -15.4929637623557 | etot = -14.6249037423742
165000  ekin = 0.156968465370873 |  erot = 0.707556101120943 | epot = -15.4894283088449 | etot = -14.624903742353
166000  ekin = 0.155941053191322 |  erot = 0.704366832057858 | epot = -15.4852116275794 | etot = -14.6249037423302
167000  ekin = 0.15564449680974 |  erot = 0.700111698658167 | epot = -15.4806599377741 | etot = -14.6249037423062
168000  ekin = 0.156297672988367 |  erot = 0.694939119112688 | epot = -15.4761405343834 | etot = -14.6249037422823
169000  ekin = 0.158122923325633 |  erot = 0.688994262093866 | epot = -15.4720209276801 | etot = -14.6249037422606
170000  ekin = 0.161316852937839 |  erot = 0.682420091513715 | epot = -15.4686406866943 | etot = -14.6249037422428
171000  ekin = 0.166017619146964 |  erot = 0.675358520304694 | epot = -15.4662798816826 | etot = -14.6249037422309
172000  ekin = 0.172273671159624 |  erot = 0.667951149520755 | epot = -15.465128562907 | etot = -14.6249037422266
173000  ekin = 0.180018623556126 |  erot = 0.660339136127817 | epot = -15.465261501915 | etot = -14.624903742231
174000  ekin = 0.189056055744959 |  erot = 0.652661851831919 | epot = -15.4666216498214 | etot = -14.6249037422446
175000  ekin = 0.199056860650102 |  erot = 0.645054167286212 | epot = -15.4690147702031 | etot = -14.6249037422668
176000  ekin = 0.209570701317496 |  erot = 0.637642422787083 | epot = -15.4721168664013 | etot = -14.6249037422968
177000  ekin = 0.220052442974529 |  erot = 0.630539423737744 | epot = -15.4754956090444 | etot = -14.6249037423321
178000  ekin = 0.229904071991068 |  erot = 0.623839102439468 | epot = -15.4786469168001 | etot = -14.6249037423696
179000  ekin = 0.238532114427838 |  erot = 0.617611757778078 | epot = -15.4810476146109 | etot = -14.624903742405
180000  ekin = 0.245419064060145 |  erot = 0.611900922402911 | epot = -15.4822237288958 | etot = -14.6249037424328
181000  ekin = 0.250203926055637 |  erot = 0.606722796615544 | epot = -15.4818304651187 | etot = -14.6249037424476
182000  ekin = 0.252761402919458 |  erot = 0.602068750132192 | epot = -15.4797338954962 | etot = -14.6249037424445
183000  ekin = 0.253262634973987 |  erot = 0.597910660168958 | epot = -15.4760770375644 | etot = -14.6249037424214
184000  ekin = 0.252195762131854 |  erot = 0.594208023727366 | epot = -15.4713075282391 | etot = -14.6249037423799
185000  ekin = 0.250326113306337 |  erot = 0.590915179672999 | epot = -15.4661450353057 | etot = -14.6249037423263
186000  ekin = 0.248586758541696 |  erot = 0.587986907734991 | epot = -15.4614774085483 | etot = -14.6249037422716
187000  ekin = 0.247909630265907 |  erot = 0.585381224304124 | epot = -15.4581945967987 | etot = -14.6249037422287
188000  ekin = 0.249029052394555 |  erot = 0.583059148734203 | epot = -15.4569919433383 | etot = -14.6249037422095
189000  ekin = 0.25230380318116 |  erot = 0.580982165410166 | epot = -15.4581897108133 | etot = -14.624903742222
190000  ekin = 0.257603763515512 |  erot = 0.579108718145525 | epot = -15.4616162239286 | etot = -14.6249037422675
191000  ekin = 0.264292655598072 |  erot = 0.577391223759195 | epot = -15.4665876216979 | etot = -14.6249037423406
192000  ekin = 0.271315385056371 |  erot = 0.575774831089445 | epot = -15.4719939585754 | etot = -14.6249037424296
193000  ekin = 0.277374539132726 |  erot = 0.574198584868558 | epot = -15.4764768665205 | etot = -14.6249037425192
194000  ekin = 0.281161076019698 |  erot = 0.572598913484966 | epot = -15.4786637320983 | etot = -14.6249037425936
195000  ekin = 0.28159263734721 |  erot = 0.570914645865857 | epot = -15.4774110258526 | etot = -14.6249037426396
196000  ekin = 0.278011867235767 |  erot = 0.569092314484949 | epot = -15.4720079243697 | etot = -14.624903742649
197000  ekin = 0.270307527593016 |  erot = 0.567090473640134 | epot = -15.4623017438535 | etot = -14.6249037426204
198000  ekin = 0.258940359976181 |  erot = 0.564882125458909 | epot = -15.4487262279932 | etot = -14.6249037425581
199000  ekin = 0.244877476699608 |  erot = 0.562454912721969 | epot = -15.432236131893 | etot = -14.6249037424714
200000  ekin = 0.229456931019031 |  erot = 0.559809284042109 | epot = -15.4141699574328 | etot = -14.6249037423717
201000  ekin = 0.214214012279214 |  erot = 0.556955381706857 | epot = -15.396073136257 | etot = -14.6249037422709
202000  ekin = 0.200701376135343 |  erot = 0.553909032488835 | epot = -15.3795141508038 | etot = -14.6249037421796
203000  ekin = 0.190329688711031 |  erot = 0.550687503827458 | epot = -15.3659209346438 | etot = -14.6249037421053
204000  ekin = 0.184246973275431 |  erot = 0.547306655839924 | epot = -15.3564573711681 | etot = -14.6249037420528
205000  ekin = 0.183262973705765 |  erot = 0.543779043729182 | epot = -15.3519457594592 | etot = -14.6249037420242
206000  ekin = 0.187816949073314 |  erot = 0.5401134327365 | epot = -15.3528341238289 | etot = -14.6249037420191
207000  ekin = 0.197980929490155 |  erot = 0.536315658388532 | epot = -15.3592003299141 | etot = -14.6249037420354
208000  ekin = 0.213487612676859 |  erot = 0.532390498207104 | epot = -15.3707818529543 | etot = -14.6249037420704
209000  ekin = 0.23377236271188 |  erot = 0.528344018724915 | epot = -15.3870201235577 | etot = -14.6249037421209
210000  ekin = 0.258021408691598 |  erot = 0.524185756556645 | epot = -15.4071109074321 | etot = -14.6249037421838
211000  ekin = 0.285222208429149 |  erot = 0.519930104708152 | epot = -15.4300560553932 | etot = -14.6249037422559
212000  ekin = 0.314215813604078 |  erot = 0.515596398128299 | epot = -15.454715954066 | etot = -14.6249037423336
213000  ekin = 0.343753634042999 |  erot = 0.511207450608694 | epot = -15.4798648270648 | etot = -14.6249037424131
214000  ekin = 0.372561594269383 |  erot = 0.506786560075164 | epot = -15.5042518968341 | etot = -14.6249037424896
215000  ekin = 0.399412456461965 |  erot = 0.502353347158559 | epot = -15.5266695461789 | etot = -14.6249037425584
216000  ekin = 0.423202666202795 |  erot = 0.497919155943979 | epot = -15.5460255647614 | etot = -14.6249037426146
217000  ekin = 0.443025226539309 |  erot = 0.49348301367888 | epot = -15.561411982873 | etot = -14.6249037426548
218000  ekin = 0.458227302378268 |  erot = 0.48902929485633 | epot = -15.5721603399116 | etot = -14.624903742677
219000  ekin = 0.468443019183614 |  erot = 0.484528125251351 | epot = -15.5778748871154 | etot = -14.6249037426804
220000  ekin = 0.473598483116428 |  erot = 0.479939108990727 | epot = -15.5784413347736 | etot = -14.6249037426664
221000  ekin = 0.473894168318623 |  erot = 0.475218183432471 | epot = -15.5740160943877 | etot = -14.6249037426366
222000  ekin = 0.469774014049581 |  erot = 0.470326483973439 | epot = -15.5650042406161 | etot = -14.6249037425931
223000  ekin = 0.461887320397625 |  erot = 0.465239349169327 | epot = -15.5520304121052 | etot = -14.6249037425383
224000  ekin = 0.451041336422898 |  erot = 0.459953336121568 | epot = -15.5358984150205 | etot = -14.6249037424761
225000  ekin = 0.438137198423164 |  erot = 0.454489515561359 | epot = -15.5175304563962 | etot = -14.6249037424117
226000  ekin = 0.424086332826599 |  erot = 0.448892294163476 | epot = -15.4978823693417 | etot = -14.6249037423516
227000  ekin = 0.409717105195494 |  erot = 0.443224250669919 | epot = -15.4778450981669 | etot = -14.6249037423015
228000  ekin = 0.395692916861841 |  erot = 0.437558473222699 | epot = -15.4581551323495 | etot = -14.624903742265
229000  ekin = 0.382463318564939 |  erot = 0.431970318931165 | epot = -15.4393373797388 | etot = -14.6249037422427
230000  ekin = 0.37025811673091 |  erot = 0.426530223272703 | epot = -15.4216920822363 | etot = -14.6249037422326
231000  ekin = 0.359118625017792 |  erot = 0.42129844029256 | epot = -15.4053208075418 | etot = -14.6249037422314
232000  ekin = 0.348949729121723 |  erot = 0.416321816462675 | epot = -15.3901752878201 | etot = -14.6249037422357
233000  ekin = 0.339575284188518 |  erot = 0.411632247273729 | epot = -15.3761112737048 | etot = -14.6249037422426
234000  ekin = 0.330784909163637 |  erot = 0.407246384303507 | epot = -15.3629350357173 | etot = -14.6249037422502
235000  ekin = 0.322367248495492 |  erot = 0.403166248673538 | epot = -15.3504372394263 | etot = -14.6249037422572
236000  ekin = 0.314129851889848 |  erot = 0.399380677843492 | epot = -15.3384142719969 | etot = -14.6249037422636
237000  ekin = 0.305908300165184 |  erot = 0.395867600047875 | epot = -15.3266796424821 | etot = -14.624903742269
238000  ekin = 0.297568064658136 |  erot = 0.392597157204584 | epot = -15.3150689641364 | etot = -14.6249037422737
239000  ekin = 0.289002756415172 |  erot = 0.389535643317114 | epot = -15.3034421420096 | etot = -14.6249037422774
240000  ekin = 0.280132201614914 |  erot = 0.386650129641556 | epot = -15.2916860735363 | etot = -14.6249037422798
241000  ekin = 0.270903172980511 |  erot = 0.383913574227165 | epot = -15.2797204894881 | etot = -14.6249037422804
242000  ekin = 0.261294311102232 |  erot = 0.381310019034049 | epot = -15.2675080724143 | etot = -14.6249037422781
243000  ekin = 0.251325265434219 |  erot = 0.378839435319532 | epot = -15.2550684430252 | etot = -14.6249037422715
244000  ekin = 0.241068460184283 |  erot = 0.376521662813082 | epot = -15.2424938652572 | etot = -14.6249037422598
245000  ekin = 0.230660579660644 |  erot = 0.374398842117291 | epot = -15.2299631640205 | etot = -14.6249037422425
246000  ekin = 0.220310176855083 |  erot = 0.372535772164452 | epot = -15.217749691239 | etot = -14.6249037422195
247000  ekin = 0.210297920408214 |  erot = 0.371017759432552 | epot = -15.2062194220322 | etot = -14.6249037421914
248000  ekin = 0.200966973970082 |  erot = 0.36994577990608 | epot = -15.1958164960362 | etot = -14.6249037421601
249000  ekin = 0.192702752056133 |  erot = 0.369429135338683 | epot = -15.1870356295227 | etot = -14.6249037421279
250000  ekin = 0.185903524092239 |  erot = 0.369576201101353 | epot = -15.1803834672915 | etot = -14.6249037420979
251000  ekin = 0.180945546219151 |  erot = 0.370484246994623 | epot = -15.1763335352865 | etot = -14.6249037420727
252000  ekin = 0.178147956309189 |  erot = 0.372229589272153 | epot = -15.1752812876364 | etot = -14.624903742055
253000  ekin = 0.177743031464987 |  erot = 0.374859230992971 | epot = -15.1775060045044 | etot = -14.6249037420464
254000  ekin = 0.179856300054645 |  erot = 0.378385037101156 | epot = -15.1831450792033 | etot = -14.6249037420475
255000  ekin = 0.184498455786156 |  erot = 0.382781080046288 | epot = -15.1921832778908 | etot = -14.6249037420584
256000  ekin = 0.191568141872831 |  erot = 0.387983970946124 | epot = -15.2044558548971 | etot = -14.6249037420782
257000  ekin = 0.20086208487434 |  erot = 0.39389562099376 | epot = -15.2196614479739 | etot = -14.6249037421058
258000  ekin = 0.212087875566807 |  erot = 0.400387498987271 | epot = -15.2373791166947 | etot = -14.6249037421406
259000  ekin = 0.224875306192123 |  erot = 0.407305396776656 | epot = -15.2570844451507 | etot = -14.6249037421819
260000  ekin = 0.238784314763303 |  erot = 0.414473950040634 | epot = -15.2781620070332 | etot = -14.6249037422292
261000  ekin = 0.253310397642086 |  erot = 0.421700596682803 | epot = -15.2999147366071 | etot = -14.6249037422822
262000  ekin = 0.26789075041242 |  erot = 0.428779149458854 | epot = -15.3215736422117 | etot = -14.6249037423404
263000  ekin = 0.281915541778016 |  erot = 0.435493571930236 | epot = -15.3423128561104 | etot = -14.6249037424021
264000  ekin = 0.294748319449364 |  erot = 0.441622773940569 | epot = -15.3612748358549 | etot = -14.624903742465
265000  ekin = 0.305757851305535 |  erot = 0.446947232466421 | epot = -15.3776088262975 | etot = -14.6249037425255
266000  ekin = 0.314361275702592 |  erot = 0.451257984268131 | epot = -15.3905230025502 | etot = -14.6249037425794
267000  ekin = 0.320075758814341 |  erot = 0.454368036195608 | epot = -15.399347537632 | etot = -14.624903742622
268000  ekin = 0.322573111286139 |  erot = 0.456125517717021 | epot = -15.4036023716517 | etot = -14.6249037426486
269000  ekin = 0.321728949457285 |  erot = 0.456427019950081 | epot = -15.4030597120627 | etot = -14.6249037426554
270000  ekin = 0.317655198203759 |  erot = 0.455228696070215 | epot = -15.397787636915 | etot = -14.624903742641
271000  ekin = 0.310703151367757 |  erot = 0.452552178356157 | epot = -15.3881590723317 | etot = -14.6249037426077
272000  ekin = 0.3014262335366 |  erot = 0.448482664562447 | epot = -15.37481264066 | etot = -14.624903742561
273000  ekin = 0.290499502093233 |  erot = 0.443158007811504 | epot = -15.3585612524143 | etot = -14.6249037425096
274000  ekin = 0.278606962225926 |  erot = 0.436750209658098 | epot = -15.3402609143472 | etot = -14.6249037424632
275000  ekin = 0.266323480340475 |  erot = 0.429443553159133 | epot = -15.320670775929 | etot = -14.6249037424294
276000  ekin = 0.254026977157675 |  erot = 0.421415402005373 | epot = -15.3003461215741 | etot = -14.6249037424111
277000  ekin = 0.241871064453077 |  erot = 0.412825312322701 | epot = -15.2796001191813 | etot = -14.6249037424055
278000  ekin = 0.229828041579266 |  erot = 0.403815416630584 | epot = -15.2585472006154 | etot = -14.6249037424055
279000  ekin = 0.217786141145793 |  erot = 0.394521119097645 | epot = -15.2372110026455 | etot = -14.6249037424021
280000  ekin = 0.205666064593437 |  erot = 0.385087703032635 | epot = -15.2156575100138 | etot = -14.6249037423877
281000  ekin = 0.193518604274061 |  erot = 0.375686870763365 | epot = -15.1941092173957 | etot = -14.6249037423582
282000  ekin = 0.18157672074763 |  erot = 0.366527860022155 | epot = -15.1730083230837 | etot = -14.624903742314
283000  ekin = 0.170254050626075 |  erot = 0.357859944224688 | epot = -15.1530177371095 | etot = -14.6249037422587
284000  ekin = 0.160098631070491 |  erot = 0.349965713706295 | epot = -15.1349680869751 | etot = -14.6249037421983
285000  ekin = 0.151720356670846 |  erot = 0.34314662552044 | epot = -15.1197707243306 | etot = -14.6249037421394
286000  ekin = 0.145712559183964 |  erot = 0.337703485421193 | epot = -15.1083197866929 | etot = -14.6249037420878
287000  ekin = 0.142584250545026 |  erot = 0.333914836093095 | epot = -15.1014028286861 | etot = -14.624903742048
288000  ekin = 0.1427129413407 |  erot = 0.33201595204283 | epot = -15.0996326354059 | etot = -14.6249037420224
289000  ekin = 0.146320998448507 |  erot = 0.332180585090171 | epot = -15.1034053255506 | etot = -14.6249037420119
290000  ekin = 0.153472816921105 |  erot = 0.334506983379138 | epot = -15.1128835423165 | etot = -14.6249037420163
291000  ekin = 0.164086465662505 |  erot = 0.339009144348392 | epot = -15.1279993520451 | etot = -14.6249037420342
292000  ekin = 0.177952173600193 |  erot = 0.345613807734964 | epot = -15.1484697233995 | etot = -14.6249037420643
293000  ekin = 0.194750859968512 |  erot = 0.354163344443286 | epot = -15.1738179465169 | etot = -14.6249037421051
294000  ekin = 0.214068309158811 |  erot = 0.364424408222176 | epot = -15.2033964595362 | etot = -14.6249037421552
295000  ekin = 0.235403710402673 |  erot = 0.376101928511166 | epot = -15.2364093811272 | etot = -14.6249037422133
296000  ekin = 0.258174229752594 |  erot = 0.388857685536638 | epot = -15.2719356575669 | etot = -14.6249037422777
297000  ekin = 0.28171936013486 |  erot = 0.402332315571688 | epot = -15.308955418053 | etot = -14.6249037423465
298000  ekin = 0.30530968452295 |  erot = 0.416169191335505 | epot = -15.3463826182751 | etot = -14.6249037424166
299000  ekin = 0.328164426016042 |  erot = 0.430038291827055 | epot = -15.3831064603285 | etot = -14.6249037424854
300000  ekin = 0.349480947254597 |  erot = 0.443657997414049 | epot = -15.4180426872175 | etot = -14.6249037425489
301000  ekin = 0.368477349758915 |  erot = 0.456812763608253 | epot = -15.4501938559697 | etot = -14.6249037426025
302000  ekin = 0.384446573101029 |  erot = 0.469364841860584 | epot = -15.478715157604 | etot = -14.6249037426423
303000  ekin = 0.396817065634643 |  erot = 0.481258609604428 | epot = -15.5029794179037 | etot = -14.6249037426647
304000  ekin = 0.405211709647263 |  erot = 0.492516637287232 | epot = -15.5226320896016 | etot = -14.6249037426671
305000  ekin = 0.409494186866275 |  erot = 0.503227368869637 | epot = -15.5376252983854 | etot = -14.6249037426495
306000  ekin = 0.409791521883174 |  erot = 0.513525227982492 | epot = -15.5482204924795 | etot = -14.6249037426138
307000  ekin = 0.406484029568133 |  erot = 0.523565033268022 | epot = -15.554952805401 | etot = -14.6249037425649
308000  ekin = 0.400159443094258 |  erot = 0.533493670193094 | epot = -15.5585568557967 | etot = -14.6249037425093
309000  ekin = 0.391535685674106 |  erot = 0.543422788904079 | epot = -15.5598622170332 | etot = -14.624903742455
310000  ekin = 0.381364662750139 |  erot = 0.553406603763137 | epot = -15.5596750089224 | etot = -14.6249037424091
311000  ekin = 0.370335174701307 |  erot = 0.563428434508751 | epot = -15.5586673515872 | etot = -14.6249037423771
312000  ekin = 0.358994462074446 |  erot = 0.573398378860501 | epot = -15.5572965832962 | etot = -14.6249037423613
313000  ekin = 0.347704062022306 |  erot = 0.583162598674582 | epot = -15.5557704030575 | etot = -14.6249037423606
314000  ekin = 0.336637402906986 |  erot = 0.592522528333631 | epot = -15.5540636736117 | etot = -14.624903742371
315000  ekin = 0.325816357219225 |  erot = 0.601260411440956 | epot = -15.5519805110472 | etot = -14.624903742387
316000  ekin = 0.315175012816655 |  erot = 0.609166451967456 | epot = -15.5492452071862 | etot = -14.6249037424021
317000  ekin = 0.304633856553691 |  erot = 0.616062831071924 | epot = -15.5456004300362 | etot = -14.6249037424106
318000  ekin = 0.294167456686513 |  erot = 0.62182086663663 | epot = -15.5408920657322 | etot = -14.624903742409
319000  ekin = 0.283852816310304 |  erot = 0.626369338623922 | epot = -15.5351258973303 | etot = -14.624903742396
320000  ekin = 0.273891844373217 |  erot = 0.629693948583815 | epot = -15.5284895353292 | etot = -14.6249037423721
321000  ekin = 0.264607615830326 |  erot = 0.631829520444979 | epot = -15.5213408786153 | etot = -14.62490374234
322000  ekin = 0.256418665980307 |  erot = 0.632847556381831 | epot = -15.5141699646654 | etot = -14.6249037423032
323000  ekin = 0.249797892887523 |  erot = 0.632842055921361 | epot = -15.5075436910745 | etot = -14.6249037422657
324000  ekin = 0.245223011939351 |  erot = 0.631916211662891 | epot = -15.5020429658331 | etot = -14.6249037422309
325000  ekin = 0.243124676660684 |  erot = 0.630171930979688 | epot = -15.4982003498434 | etot = -14.624903742203
326000  ekin = 0.243837159968099 |  erot = 0.627703310196172 | epot = -15.4964442123488 | etot = -14.6249037421845
327000  ekin = 0.247555458534595 |  erot = 0.624594349329669 | epot = -15.4970535500421 | etot = -14.6249037421778
328000  ekin = 0.254302069317299 |  erot = 0.620920422826771 | epot = -15.5001262343279 | etot = -14.6249037421838
329000  ekin = 0.263906382978619 |  erot = 0.616752378549859 | epot = -15.5055625037313 | etot = -14.6249037422028
330000  ekin = 0.275999298196813 |  erot = 0.612161709808654 | epot = -15.5130647502395 | etot = -14.624903742234
331000  ekin = 0.290024872454789 |  erot = 0.607225138478484 | epot = -15.5221537532086 | etot = -14.6249037422753
332000  ekin = 0.305269328205604 |  erot = 0.602027230533244 | epot = -15.5322003010627 | etot = -14.6249037423238
333000  ekin = 0.320905611375339 |  erot = 0.596660303338559 | epot = -15.5424696570899 | etot = -14.624903742376
334000  ekin = 0.33604943896321 |  erot = 0.591221710457376 | epot = -15.5521748918485 | etot = -14.6249037424279
335000  ekin = 0.349821102707738 |  erot = 0.585809355783106 | epot = -15.5605342009668 | etot = -14.624903742476
336000  ekin = 0.361406827299164 |  erot = 0.580516763971287 | epot = -15.5668273337868 | etot = -14.6249037425163
337000  ekin = 0.370114335989308 |  erot = 0.575429096256479 | epot = -15.5704471747923 | etot = -14.6249037425465
338000  ekin = 0.375418963131897 |  erot = 0.570621177508977 | epot = -15.5709438832049 | etot = -14.624903742564
339000  ekin = 0.37699830668418 |  erot = 0.566157982091382 | epot = -15.568060031343 | etot = -14.6249037425674
340000  ekin = 0.374754278532065 |  erot = 0.562097189039008 | epot = -15.5617552101272 | etot = -14.6249037425561
341000  ekin = 0.368821588409643 |  erot = 0.558493134368575 | epot = -15.5522184653083 | etot = -14.62490374253
342000  ekin = 0.359561251230613 |  erot = 0.555400700218343 | epot = -15.5398656939398 | etot = -14.6249037424909
343000  ekin = 0.34753785325451 |  erot = 0.55287778591816 | epot = -15.5253193816136 | etot = -14.6249037424409
344000  ekin = 0.33348037496383 |  erot = 0.55098526840084 | epot = -15.5093693857485 | etot = -14.6249037423838
345000  ekin = 0.318228359784329 |  erot = 0.549783918348214 | epot = -15.4929160204567 | etot = -14.6249037423241
346000  ekin = 0.302667555547452 |  erot = 0.54932843011035 | epot = -15.4768997279244 | etot = -14.6249037422666
347000  ekin = 0.287661057443402 |  erot = 0.549659363310377 | epot = -15.4622241629697 | etot = -14.6249037422159
348000  ekin = 0.273982878354199 |  erot = 0.550794243902694 | epot = -15.4496808644332 | etot = -14.6249037421763
349000  ekin = 0.262260631617831 |  erot = 0.552719272009444 | epot = -15.4398836457781 | etot = -14.6249037421509
350000  ekin = 0.252932884528162 |  erot = 0.555383042233064 | epot = -15.4332196689026 | etot = -14.6249037421414
351000  ekin = 0.246225113234554 |  erot = 0.558693418765032 | epot = -15.4298222741477 | etot = -14.6249037421482
352000  ekin = 0.242146418558272 |  erot = 0.56251834442516 | epot = -15.4295685051533 | etot = -14.6249037421699
353000  ekin = 0.240507191582667 |  erot = 0.566690733134521 | epot = -15.4321016669209 | etot = -14.6249037422037
354000  ekin = 0.240955911174045 |  erot = 0.571016874086999 | epot = -15.436876527507 | etot = -14.6249037422459
355000  ekin = 0.243030568944153 |  erot = 0.575286990707781 | epot = -15.4432213019441 | etot = -14.6249037422922
356000  ekin = 0.246218336341581 |  erot = 0.579286102670368 | epot = -15.4504081813502 | etot = -14.6249037423382
357000  ekin = 0.250015504867143 |  erot = 0.582803084083675 | epot = -15.4577223313313 | etot = -14.6249037423804
358000  ekin = 0.253980003728345 |  erot = 0.585636256510411 | epot = -15.4645200026548 | etot = -14.6249037424161
359000  ekin = 0.257771924238285 |  erot = 0.587595069854159 | epot = -15.470270736536 | etot = -14.6249037424435
360000  ekin = 0.261178006692362 |  erot = 0.588498175296126 | epot = -15.4745799244509 | etot = -14.6249037424624
361000  ekin = 0.264121303803865 |  erot = 0.588169931158578 | epot = -15.4771949774352 | etot = -14.6249037424728
362000  ekin = 0.266656268947586 |  erot = 0.586437607933159 | epot = -15.4779976193564 | etot = -14.6249037424757
363000  ekin = 0.268947338173594 |  erot = 0.583131261385069 | epot = -15.4769823420319 | etot = -14.6249037424733
364000  ekin = 0.271226723299151 |  erot = 0.578087502910549 | epot = -15.4742179686787 | etot = -14.624903742469
365000  ekin = 0.273728224388467 |  erot = 0.571157191000871 | epot = -15.4697891578569 | etot = -14.6249037424676
366000  ekin = 0.276601570519792 |  erot = 0.562216266683795 | epot = -15.4637215796778 | etot = -14.6249037424742
367000  ekin = 0.279824898676098 |  erot = 0.551178529879434 | epot = -15.4559071710478 | etot = -14.6249037424923
368000  ekin = 0.283144751011445 |  erot = 0.538009090150866 | epot = -15.4460575836835 | etot = -14.6249037425212
369000  ekin = 0.286073979195581 |  erot = 0.522737270878923 | epot = -15.4337149926306 | etot = -14.6249037425561
370000  ekin = 0.287962637923446 |  erot = 0.505467651700438 | epot = -15.4183340322116 | etot = -14.6249037425877
371000  ekin = 0.288129562577258 |  erot = 0.486387667907668 | epot = -15.3994209730903 | etot = -14.6249037426054
372000  ekin = 0.286016270828658 |  erot = 0.46576999808234 | epot = -15.3766900115119 | etot = -14.6249037426009
373000  ekin = 0.28131449291777 |  erot = 0.44396824694377 | epot = -15.3501864824323 | etot = -14.6249037425708
374000  ekin = 0.274029637541844 |  erot = 0.421405384814399 | epot = -15.3203387648735 | etot = -14.6249037425173
375000  ekin = 0.264468317324484 |  erot = 0.398555847613824 | epot = -15.2879279073849 | etot = -14.6249037424466
376000  ekin = 0.253165169268526 |  erot = 0.375923572597148 | epot = -15.2539924842331 | etot = -14.6249037423675
377000  ekin = 0.240780733675043 |  erot = 0.354018931407531 | epot = -15.2197034073705 | etot = -14.6249037422879
378000  ekin = 0.228003530693319 |  erot = 0.333337224178132 | epot = -15.1862444970855 | etot = -14.624903742214
379000  ekin = 0.215478669427759 |  erot = 0.314340303318484 | epot = -15.1547227148953 | etot = -14.624903742149
380000  ekin = 0.203769466320592 |  erot = 0.297441561968215 | epot = -15.1261147703835 | etot = -14.6249037420947
381000  ekin = 0.193344913038784 |  erot = 0.28299357961111 | epot = -15.1012422347014 | etot = -14.6249037420515
382000  ekin = 0.184579097116762 |  erot = 0.271277560103732 | epot = -15.0807603992407 | etot = -14.6249037420202
383000  ekin = 0.177749902922565 |  erot = 0.262494318474771 | epot = -15.0651479633987 | etot = -14.6249037420014
384000  ekin = 0.173031383434342 |  erot = 0.256757595375907 | epot = -15.0546927208061 | etot = -14.6249037419958
385000  ekin = 0.170483112154611 |  erot = 0.254091341095815 | epot = -15.049478195254 | etot = -14.6249037420036
386000  ekin = 0.170046361592112 |  erot = 0.254432809989126 | epot = -15.0493829136047 | etot = -14.6249037420235
387000  ekin = 0.171558026226825 |  erot = 0.257642587604582 | epot = -15.0541043558832 | etot = -14.6249037420518
388000  ekin = 0.174787865438713 |  erot = 0.263521131369935 | epot = -15.0632127388923 | etot = -14.6249037420836
389000  ekin = 0.179494526901415 |  erot = 0.271829477565432 | epot = -15.0762277465806 | etot = -14.6249037421138
390000  ekin = 0.185484901052056 |  erot = 0.282310127810448 | epot = -15.0926987710007 | etot = -14.6249037421382
391000  ekin = 0.192654775275645 |  erot = 0.294703495235847 | epot = -15.1122620126676 | etot = -14.6249037421561
392000  ekin = 0.200990711955422 |  erot = 0.308756153372483 | epot = -15.1346506074986 | etot = -14.6249037421707
393000  ekin = 0.210524629688135 |  erot = 0.324219483680835 | epot = -15.1596478555569 | etot = -14.624903742188
394000  ekin = 0.221250398117909 |  erot = 0.340840530849171 | epot = -15.1869946711819 | etot = -14.6249037422148
395000  ekin = 0.233028912153377 |  erot = 0.358349828150776 | epot = -15.2162824825608 | etot = -14.6249037422566
396000  ekin = 0.24551683484774 |  erot = 0.376452447323546 | epot = -15.246873024486 | etot = -14.6249037423147
397000  ekin = 0.258149646288765 |  erot = 0.394827815017102 | epot = -15.277881203691 | etot = -14.6249037423851
398000  ekin = 0.270192540269911 |  erot = 0.413141033371924 | epot = -15.3082373161009 | etot = -14.624903742459
399000  ekin = 0.280849396853359 |  erot = 0.431064534842246 | epot = -15.3368176742213 | etot = -14.6249037425257
400000  ekin = 0.289399657315015 |  erot = 0.448305349544995 | epot = -15.3626087494354 | etot = -14.6249037425754
401000  ekin = 0.295323233787434 |  erot = 0.464631356381723 | epot = -15.3848583327708 | etot = -14.6249037426017
402000  ekin = 0.298377750400983 |  erot = 0.479890206670516 | epot = -15.403171699675 | etot = -14.6249037426035
403000  ekin = 0.298608046776455 |  erot = 0.49401684483596 | epot = -15.4175286341975 | etot = -14.6249037425851
404000  ekin = 0.296288720275777 |  erot = 0.507028747324647 | epot = -15.4282212101546 | etot = -14.6249037425541
405000  ekin = 0.291819450890444 |  erot = 0.519011022290083 | epot = -15.4357342157004 | etot = -14.6249037425198
406000  ekin = 0.285604695316647 |  erot = 0.530095491696055 | epot = -15.4406039295028 | etot = -14.6249037424901
407000  ekin = 0.2779517950128 |  erot = 0.540438449781317 | epot = -15.4432939872644 | etot = -14.6249037424703
408000  ekin = 0.269015012492784 |  erot = 0.550201084797022 | epot = -15.4441198397505 | etot = -14.6249037424607
409000  ekin = 0.258799683407146 |  erot = 0.559535019811769 | epot = -15.4432384456767 | etot = -14.6249037424578
410000  ekin = 0.247223943172528 |  erot = 0.568573648692213 | epot = -15.4407013343199 | etot = -14.6249037424552
411000  ekin = 0.234219542826923 |  erot = 0.577428429926601 | epot = -15.4365517151993 | etot = -14.6249037424458
412000  ekin = 0.219842320368698 |  erot = 0.586188386128906 | epot = -15.4309344489214 | etot = -14.6249037424238
413000  ekin = 0.20435994837526 |  erot = 0.594920843620994 | epot = -15.4241845343832 | etot = -14.6249037423869
414000  ekin = 0.188290368309867 |  erot = 0.603671832826878 | epot = -15.4168659434732 | etot = -14.6249037423364
415000  ekin = 0.17237708181712 |  erot = 0.6124653242919 | epot = -15.4097461483873 | etot = -14.6249037422783
416000  ekin = 0.157503657631228 |  erot = 0.621301324615769 | epot = -15.4037087244679 | etot = -14.6249037422209
417000  ekin = 0.144565276806289 |  erot = 0.630153567597092 | epot = -15.399622586577 | etot = -14.6249037421736
418000  ekin = 0.134326161306418 |  erot = 0.638967960411968 | epot = -15.398197863863 | etot = -14.6249037421446
419000  ekin = 0.127295713867183 |  erot = 0.647663024756225 | epot = -15.3998624807619 | etot = -14.6249037421385
420000  ekin = 0.123652074079106 |  erot = 0.656133267678458 | epot = -15.4046890839134 | etot = -14.6249037421558
421000  ekin = 0.123230332545554 |  erot = 0.664256043547071 | epot = -15.4123901182848 | etot = -14.6249037421922
422000  ekin = 0.125576493084721 |  erot = 0.671901405101286 | epot = -15.4223816404263 | etot = -14.6249037422402
423000  ekin = 0.130051930466301 |  erot = 0.678943694027942 | epot = -15.4338993667852 | etot = -14.6249037422909
424000  ekin = 0.135961143238876 |  erot = 0.685273086227244 | epot = -15.4461379718019 | etot = -14.6249037423358
425000  ekin = 0.142671659965505 |  erot = 0.69080498381162 | epot = -15.4583803861461 | etot = -14.624903742369
426000  ekin = 0.149699767318722 |  erot = 0.695485561348404 | epot = -15.4700890710554 | etot = -14.6249037423883
427000  ekin = 0.156747049208244 |  erot = 0.699292628464214 | epot = -15.4809434200673 | etot = -14.6249037423948
428000  ekin = 0.163686553654253 |  erot = 0.702231990285515 | epot = -15.4908222863323 | etot = -14.6249037423925
429000  ekin = 0.170509683514413 |  erot = 0.70433031530151 | epot = -15.4997437412025 | etot = -14.6249037423866
430000  ekin = 0.177252892951188 |  erot = 0.705626025883397 | epot = -15.507782661217 | etot = -14.6249037423824
431000  ekin = 0.183925691222352 |  erot = 0.706159951516081 | epot = -15.5149893851221 | etot = -14.6249037423836
432000  ekin = 0.190457851079565 |  erot = 0.70596688379378 | epot = -15.5213284772654 | etot = -14.6249037423921
433000  ekin = 0.196676887388984 |  erot = 0.705069371776661 | epot = -15.5266500015729 | etot = -14.6249037424073
434000  ekin = 0.202317433899364 |  erot = 0.703474477741261 | epot = -15.5306956540676 | etot = -14.624903742427
435000  ekin = 0.207056046506538 |  erot = 0.701173837003675 | epot = -15.533133625958 | etot = -14.6249037424478
436000  ekin = 0.210560164856777 |  erot = 0.698146912242834 | epot = -15.5336108195658 | etot = -14.6249037424662
437000  ekin = 0.212539330538657 |  erot = 0.69436686481977 | epot = -15.5318099378375 | etot = -14.6249037424791
438000  ekin = 0.212789433625669 |  erot = 0.689808070113577 | epot = -15.5275012462234 | etot = -14.6249037424842
439000  ekin = 0.211224885327081 |  erot = 0.684454087056256 | epot = -15.5205827148631 | etot = -14.6249037424798
440000  ekin = 0.207897417438738 |  erot = 0.678304934040362 | epot = -15.5111060939442 | etot = -14.6249037424651
441000  ekin = 0.203002684917544 |  erot = 0.671382822497087 | epot = -15.4992892498551 | etot = -14.6249037424404
442000  ekin = 0.196876783893444 |  erot = 0.663735946787442 | epot = -15.485516473087 | etot = -14.6249037424062
443000  ekin = 0.189984458135359 |  erot = 0.655440346227863 | epot = -15.4703285467267 | etot = -14.6249037423634
444000  ekin = 0.182899715135716 |  erot = 0.646600090309095 | epot = -15.4544035477587 | etot = -14.6249037423138
445000  ekin = 0.176278659807256 |  erot = 0.637346059016788 | epot = -15.4385284610839 | etot = -14.6249037422598
446000  ekin = 0.170824489262319 |  erot = 0.627833490901675 | epot = -15.4235617223679 | etot = -14.6249037422039
447000  ekin = 0.167246115781588 |  erot = 0.618238375507795 | epot = -15.4103882334389 | etot = -14.6249037421495
448000  ekin = 0.166214016011178 |  erot = 0.608752709244163 | epot = -15.3998704673549 | etot = -14.6249037420996
449000  ekin = 0.168318002547464 |  erot = 0.599578546515158 | epot = -15.3928002911194 | etot = -14.6249037420568
450000  ekin = 0.174030350885997 |  erot = 0.590920601689278 | epot = -15.3898546945991 | etot = -14.6249037420239
451000  ekin = 0.183674309612449 |  erot = 0.582976972210044 | epot = -15.3915550238259 | etot = -14.6249037420034
452000  ekin = 0.197394458885136 |  erot = 0.575927582957288 | epot = -15.3982257838406 | etot = -14.6249037419982
453000  ekin = 0.21512429096355 |  erot = 0.569920414706644 | epot = -15.4099484476817 | etot = -14.6249037420115
454000  ekin = 0.236549344238021 |  erot = 0.565056494271684 | epot = -15.4265095805563 | etot = -14.6249037420466
455000  ekin = 0.26107066649251 |  erot = 0.561375729613514 | epot = -15.4473501382118 | etot = -14.6249037421058
456000  ekin = 0.287780783018564 |  erot = 0.558846520705737 | epot = -15.4715310459135 | etot = -14.6249037421892
457000  ekin = 0.315469350478398 |  erot = 0.557362227355198 | epot = -15.4977353201268 | etot = -14.6249037422932
458000  ekin = 0.342675461160486 |  erot = 0.556746783054669 | epot = -15.5243259866254 | etot = -14.6249037424102
459000  ekin = 0.367796771323547 |  erot = 0.556770049266648 | epot = -15.5494705631187 | etot = -14.6249037425286
460000  ekin = 0.389252836428699 |  erot = 0.557171234684316 | epot = -15.5713278137469 | etot = -14.6249037426338
461000  ekin = 0.405683830371934 |  erot = 0.557686417732654 | epot = -15.588273990816 | etot = -14.6249037427114
462000  ekin = 0.41615050976317 |  erot = 0.558074591843087 | epot = -15.5991288443563 | etot = -14.62490374275
463000  ekin = 0.420292029664587 |  erot = 0.558136338549784 | epot = -15.6033321109585 | etot = -14.6249037427441
464000  ekin = 0.418399545177946 |  erot = 0.557720582602229 | epot = -15.6010238704766 | etot = -14.6249037426964
465000  ekin = 0.411377435968348 |  erot = 0.556717766126943 | epot = -15.592998944713 | etot = -14.6249037426177
466000  ekin = 0.400588481170385 |  erot = 0.555041504869352 | epot = -15.5805337285651 | etot = -14.6249037425254
467000  ekin = 0.387608315925592 |  erot = 0.552604267016079 | epot = -15.5651163253806 | etot = -14.6249037424389
468000  ekin = 0.373939506071155 |  erot = 0.549294716065804 | epot = -15.5481379645132 | etot = -14.6249037423763
469000  ekin = 0.360748545285724 |  erot = 0.544964338610985 | epot = -15.5306166262455 | etot = -14.6249037423488
470000  ekin = 0.348685397522308 |  erot = 0.539428754142175 | epot = -15.5130178940236 | etot = -14.6249037423592
471000  ekin = 0.337825425309533 |  erot = 0.532485282885717 | epot = -15.4952144505958 | etot = -14.6249037424005
472000  ekin = 0.327743216876142 |  erot = 0.523944004294882 | epot = -15.4765909636297 | etot = -14.6249037424587
473000  ekin = 0.317695625905302 |  erot = 0.513665869846428 | epot = -15.4562652382673 | etot = -14.6249037425156
474000  ekin = 0.306866206293077 |  erot = 0.501599410558585 | epot = -15.4333693594052 | etot = -14.6249037425536
475000  ekin = 0.294611572516325 |  erot = 0.487807694339578 | epot = -15.4073230094157 | etot = -14.6249037425598
476000  ekin = 0.280654133646186 |  erot = 0.472479343852861 | epot = -15.3780372200275 | etot = -14.6249037425285
477000  ekin = 0.265182667318923 |  erot = 0.45592098927681 | epot = -15.3460073990573 | etot = -14.6249037424616
478000  ekin = 0.248846579356572 |  erot = 0.438532535944384 | epot = -15.3122828576692 | etot = -14.6249037423683
479000  ekin = 0.232654569021534 |  erot = 0.420770062233477 | epot = -15.2783283735172 | etot = -14.6249037422622
480000  ekin = 0.217807844647013 |  erot = 0.403103245642619 | epot = -15.2458148324477 | etot = -14.6249037421581
481000  ekin = 0.205508255202962 |  erot = 0.385974572359883 | epot = -15.2163865696323 | etot = -14.6249037420695
482000  ekin = 0.19678156694235 |  erot = 0.369766310247464 | epot = -15.1914516191956 | etot = -14.6249037420058
483000  ekin = 0.192346943568308 |  erot = 0.354778814406232 | epot = -15.1720294999467 | etot = -14.6249037419722
484000  ekin = 0.192548846646656 |  erot = 0.341220938396417 | epot = -15.1586735270114 | etot = -14.6249037419683
485000  ekin = 0.197351634264863 |  erot = 0.329210924265139 | epot = -15.1514663005208 | etot = -14.6249037419908
486000  ekin = 0.20638457111255 |  erot = 0.318784712513067 | epot = -15.1500730256597 | etot = -14.6249037420341
487000  ekin = 0.219018661980825 |  erot = 0.30990833731601 | epot = -15.1538307413881 | etot = -14.6249037420913
488000  ekin = 0.234457053485159 |  erot = 0.302491737711703 | epot = -15.1618525333529 | etot = -14.624903742156
489000  ekin = 0.251825722281652 |  erot = 0.296402451840958 | epot = -15.1731319163445 | etot = -14.6249037422219
490000  ekin = 0.270257579251709 |  erot = 0.291478772534598 | epot = -15.1866400940702 | etot = -14.6249037422839
491000  ekin = 0.288968023939754 |  erot = 0.287542686829926 | epot = -15.2014144531061 | etot = -14.6249037423365
492000  ekin = 0.307321746939228 |  erot = 0.284413165332613 | epot = -15.2166386546469 | etot = -14.6249037423751
493000  ekin = 0.324889192266724 |  erot = 0.281920128741297 | epot = -15.2317130634048 | etot = -14.6249037423968
494000  ekin = 0.34148788338571 |  erot = 0.279918789014045 | epot = -15.2463104147988 | etot = -14.6249037423991
495000  ekin = 0.357200801059907 |  erot = 0.27830316795437 | epot = -15.2604077113965 | etot = -14.6249037423822
496000  ekin = 0.372363075865331 |  erot = 0.277016625443997 | epot = -15.2742834436586 | etot = -14.6249037423492
497000  ekin = 0.387510424728836 |  erot = 0.276056483801624 | epot = -15.2884706508366 | etot = -14.6249037423061
498000  ekin = 0.40328774473455 |  erot = 0.275469725413449 | epot = -15.3036612124099 | etot = -14.6249037422619
499000  ekin = 0.420322923931638 |  erot = 0.275337682298311 | epot = -15.3205643484574 | etot = -14.6249037422275
500000  ekin = 0.439078206868906 |  erot = 0.275749832423424 | epot = -15.3397317815068 | etot = -14.6249037422144
501000  ekin = 0.459699055392479 |  erot = 0.27677002458918 | epot = -15.3613728222145 | etot = -14.6249037422328
502000  ekin = 0.481887975237045 |  erot = 0.278401857022953 | epot = -15.3851935745487 | etot = -14.6249037422887
503000  ekin = 0.504836001699661 |  erot = 0.280562273427077 | epot = -15.4103020175081 | etot = -14.6249037423814
504000  ekin = 0.527242963720809 |  erot = 0.283072520273854 | epot = -15.4352192264968 | etot = -14.6249037425021
505000  ekin = 0.547444055754969 |  erot = 0.285672032586941 | epot = -15.4580198309761 | etot = -14.6249037426342
506000  ekin = 0.563636138783675 |  erot = 0.288055811210013 | epot = -15.4765956927492 | etot = -14.6249037427555
507000  ekin = 0.574166796919079 |  erot = 0.289928574131231 | epot = -15.488999113894 | etot = -14.6249037428437
508000  ekin = 0.57782515130048 |  erot = 0.291063326861402 | epot = -15.4937922210432 | etot = -14.6249037428813
509000  ekin = 0.574066827021413 |  erot = 0.291350176078827 | epot = -15.4903207459603 | etot = -14.6249037428601
510000  ekin = 0.563118031117931 |  erot = 0.290823209378486 | epot = -15.4788449832791 | etot = -14.6249037427827
511000  ekin = 0.545937816053972 |  erot = 0.289659846600232 | epot = -15.4605014053163 | etot = -14.6249037426621
512000  ekin = 0.52405192466186 |  erot = 0.2881539193295 | epot = -15.4371095865088 | etot = -14.6249037425175
513000  ekin = 0.499300074198536 |  erot = 0.28667044386956 | epot = -15.4108742604381 | etot = -14.62490374237
514000  ekin = 0.473556830411034 |  erot = 0.285593013544196 | epot = -15.3840535861943 | etot = -14.6249037422391
515000  ekin = 0.448481344235602 |  erot = 0.285274677057636 | epot = -15.3586597634315 | etot = -14.6249037421383
516000  ekin = 0.425336124988924 |  erot = 0.286000471485298 | epot = -15.3362403385491 | etot = -14.6249037420749
517000  ekin = 0.404895133581714 |  erot = 0.287965811661741 | epot = -15.3177646872924 | etot = -14.624903742049
518000  ekin = 0.387441371960463 |  erot = 0.29127124708814 | epot = -15.3036163611039 | etot = -14.6249037420553
519000  ekin = 0.372839035853544 |  erot = 0.295931281214217 | epot = -15.2936740591526 | etot = -14.6249037420848
520000  ekin = 0.360656186943702 |  erot = 0.301893194868378 | epot = -15.2874531239385 | etot = -14.6249037421264
521000  ekin = 0.350310207444023 |  erot = 0.30906098360492 | epot = -15.2842749332187 | etot = -14.6249037421697
522000  ekin = 0.341208800540165 |  erot = 0.317319408449295 | epot = -15.2834319511959 | etot = -14.6249037422064
523000  ekin = 0.332862997937259 |  erot = 0.326553653087547 | epot = -15.2843203932564 | etot = -14.6249037422316
524000  ekin = 0.324955020060425 |  erot = 0.336661144000779 | epot = -15.2865199063054 | etot = -14.6249037422442
525000  ekin = 0.317352570821777 |  erot = 0.347553686772866 | epot = -15.2898099998417 | etot = -14.6249037422471
526000  ekin = 0.310071537936686 |  erot = 0.359150063852697 | epot = -15.2941253440357 | etot = -14.6249037422464
527000  ekin = 0.30319969763028 |  erot = 0.371361343284829 | epot = -15.2994647831646 | etot = -14.6249037422495
528000  ekin = 0.296802852838071 |  erot = 0.384072970478812 | epot = -15.3057795655796 | etot = -14.6249037422627
529000  ekin = 0.290839689447108 |  erot = 0.397128838352017 | epot = -15.3128722700896 | etot = -14.6249037422905
530000  ekin = 0.285110822260319 |  erot = 0.410322608856454 | epot = -15.320337173449 | etot = -14.6249037423323
531000  ekin = 0.279260366287054 |  erot = 0.423400398731268 | epot = -15.3275645074017 | etot = -14.6249037423834
532000  ekin = 0.272835705905111 |  erot = 0.4360765883685 | epot = -15.3338160367088 | etot = -14.6249037424352
533000  ekin = 0.265395406955148 |  erot = 0.448061330488109 | epot = -15.3383604799197 | etot = -14.6249037424764
534000  ekin = 0.256640351799918 |  erot = 0.459095045026538 | epot = -15.3406391393234 | etot = -14.6249037424969
535000  ekin = 0.246533633694114 |  erot = 0.46898274217995 | epot = -15.3404201183641 | etot = -14.62490374249
536000  ekin = 0.235373881374739 |  erot = 0.477620282695672 | epot = -15.3378979065248 | etot = -14.6249037424544
537000  ekin = 0.223795203401919 |  erot = 0.485006039595133 | epot = -15.3337049853922 | etot = -14.6249037423951
538000  ekin = 0.212682661997928 |  erot = 0.491234540507361 | epot = -15.3288209448297 | etot = -14.6249037423244
539000  ekin = 0.203011536568405 |  erot = 0.496472671627705 | epot = -15.3243879504539 | etot = -14.6249037422578
540000  ekin = 0.195638496926135 |  erot = 0.50092291227584 | epot = -15.3214651514142 | etot = -14.6249037422123
541000  ekin = 0.191090437374276 |  erot = 0.504781043299091 | epot = -15.3207752228744 | etot = -14.624903742201
542000  ekin = 0.189407567632742 |  erot = 0.508197267609352 | epot = -15.3225085774713 | etot = -14.6249037422292
543000  ekin = 0.190094034781292 |  erot = 0.511249275630852 | epot = -15.326247052704 | etot = -14.6249037422918
544000  ekin = 0.192205662500225 |  erot = 0.513933300995961 | epot = -15.3310427058708 | etot = -14.6249037423746
545000  ekin = 0.194562943958487 |  erot = 0.516174993404676 | epot = -15.3356416798199 | etot = -14.6249037424567
546000  ekin = 0.196033343259802 |  erot = 0.517857026727554 | epot = -15.3387941125054 | etot = -14.624903742518
547000  ekin = 0.19580143908636 |  erot = 0.518856237019682 | epot = -15.3395614186506 | etot = -14.6249037425445
548000  ekin = 0.193552178457268 |  erot = 0.519081068513129 | epot = -15.3375369895014 | etot = -14.624903742531
549000  ekin = 0.189527872077315 |  erot = 0.518500763845738 | epot = -15.332932378404 | etot = -14.6249037424809
550000  ekin = 0.184464697192282 |  erot = 0.517160608017039 | epot = -15.3265290476137 | etot = -14.6249037424044
551000  ekin = 0.179447519613205 |  erot = 0.515181377054168 | epot = -15.3195326389812 | etot = -14.6249037423139
552000  ekin = 0.175731062294521 |  erot = 0.512744588095886 | epot = -15.3133793926124 | etot = -14.624903742222
553000  ekin = 0.174564310045835 |  erot = 0.510067400325703 | epot = -15.3095354525117 | etot = -14.6249037421402
554000  ekin = 0.177036897100683 |  erot = 0.507372062614515 | epot = -15.309312701793 | etot = -14.6249037420778
555000  ekin = 0.183953653121175 |  erot = 0.504855061241007 | epot = -15.3137124564046 | etot = -14.6249037420424
556000  ekin = 0.195740677803854 |  erot = 0.502660902829331 | epot = -15.3233053226717 | etot = -14.6249037420385
557000  ekin = 0.212389174813147 |  erot = 0.500864749566708 | epot = -15.338157666447 | etot = -14.6249037420672
558000  ekin = 0.23344502097276 |  erot = 0.499466731744655 | epot = -15.357815494843 | etot = -14.6249037421256
559000  ekin = 0.258048678277938 |  erot = 0.498398734230019 | epot = -15.3813511547153 | etot = -14.6249037422074
560000  ekin = 0.285022157939512 |  erot = 0.49754195086514 | epot = -15.4074678511078 | etot = -14.6249037423032
561000  ekin = 0.312990622171654 |  erot = 0.496751658909336 | epot = -15.4346460234837 | etot = -14.6249037424027
562000  ekin = 0.340519848729776 |  erot = 0.495884310853372 | epot = -15.4613079020793 | etot = -14.6249037424961
563000  ekin = 0.366249237356 |  erot = 0.494821962716246 | epot = -15.4859749426474 | etot = -14.6249037425751
564000  ekin = 0.389003340228442 |  erot = 0.493490109026911 | epot = -15.5073971918898 | etot = -14.6249037426344
565000  ekin = 0.407871381975258 |  erot = 0.491866632343677 | epot = -15.5246417569902 | etot = -14.6249037426713
566000  ekin = 0.422251605412405 |  erot = 0.489981232304148 | epot = -15.537136580402 | etot = -14.6249037426854
567000  ekin = 0.431863045464181 |  erot = 0.48790647095657 | epot = -15.5446732590993 | etot = -14.6249037426785
568000  ekin = 0.436733840917554 |  erot = 0.485743252286935 | epot = -15.5473808358579 | etot = -14.6249037426534
569000  ekin = 0.437172173178126 |  erot = 0.483603786385869 | epot = -15.5456797021773 | etot = -14.6249037426133
570000  ekin = 0.433727138645419 |  erot = 0.481595978794116 | epot = -15.5402268600013 | etot = -14.6249037425617
571000  ekin = 0.427141808143026 |  erot = 0.479812578148763 | epot = -15.5318581287941 | etot = -14.6249037425023
572000  ekin = 0.418294466660563 |  erot = 0.478326721684033 | epot = -15.5215249307844 | etot = -14.6249037424398
573000  ekin = 0.408121101334992 |  erot = 0.477193277920611 | epot = -15.5102181216358 | etot = -14.6249037423802
574000  ekin = 0.397514818217457 |  erot = 0.476453234967311 | epot = -15.4988717955158 | etot = -14.6249037423311
575000  ekin = 0.387207144489171 |  erot = 0.476137354470425 | epot = -15.4882482412599 | etot = -14.6249037423003
576000  ekin = 0.377649119217314 |  erot = 0.476266044933562 | epot = -15.4788189064453 | etot = -14.6249037422944
577000  ekin = 0.368920817132226 |  erot = 0.476844730976786 | epot = -15.4706692904254 | etot = -14.6249037423164
578000  ekin = 0.360700785230741 |  erot = 0.477856883134822 | epot = -15.4634614107288 | etot = -14.6249037423632
579000  ekin = 0.352319179858308 |  erot = 0.479258927577157 | epot = -15.4564818498611 | etot = -14.6249037424256
580000  ekin = 0.342901425190187 |  erot = 0.480981430412776 | epot = -15.4487865980922 | etot = -14.6249037424893
581000  ekin = 0.331586894252575 |  erot = 0.482939076923953 | epot = -15.4394297137127 | etot = -14.6249037425362
582000  ekin = 0.317784488003998 |  erot = 0.485048781539638 | epot = -15.4277370120932 | etot = -14.6249037425495
583000  ekin = 0.301409490236239 |  erot = 0.487252029394849 | epot = -15.4135652621486 | etot = -14.6249037425175
584000  ekin = 0.283039202393957 |  erot = 0.489535511256142 | epot = -15.3974784560878 | etot = -14.6249037424377
585000  ekin = 0.263933313487419 |  erot = 0.491944128120081 | epot = -15.380781183926 | etot = -14.6249037423185
586000  ekin = 0.245890887800433 |  erot = 0.494582820571413 | epot = -15.3653774505512 | etot = -14.6249037421793
587000  ekin = 0.230956405620081 |  erot = 0.497607010278675 | epot = -15.3534671579451 | etot = -14.6249037420464
588000  ekin = 0.221033841917523 |  erot = 0.501205839010948 | epot = -15.3471434228734 | etot = -14.624903741945
589000  ekin = 0.21750442850326 |  erot = 0.505584588308524 | epot = -15.3479927587061 | etot = -14.6249037418943
590000  ekin = 0.220953423088753 |  erot = 0.510952138426249 | epot = -15.3568093034155 | etot = -14.6249037419005
591000  ekin = 0.231083134064746 |  erot = 0.517515644130575 | epot = -15.3735025201508 | etot = -14.6249037419554
592000  ekin = 0.246829245753635 |  erot = 0.525479282587494 | epot = -15.3972122703833 | etot = -14.6249037420422
593000  ekin = 0.26662894973047 |  erot = 0.535039778666637 | epot = -15.4265724705377 | etot = -14.6249037421406
594000  ekin = 0.288743434935807 |  erot = 0.546371032865614 | epot = -15.4600182100362 | etot = -14.6249037422348
595000  ekin = 0.311533695301779 |  erot = 0.559594229359546 | epot = -15.4960316669788 | etot = -14.6249037423175
596000  ekin = 0.3336243482615 |  erot = 0.574736425374656 | epot = -15.5332645160253 | etot = -14.6249037423892
597000  ekin = 0.353943370598348 |  erot = 0.591686591895555 | epot = -15.57053370495 | etot = -14.6249037424561
598000  ekin = 0.371670846224556 |  erot = 0.610160828224063 | epot = -15.6067354169738 | etot = -14.6249037425252
599000  ekin = 0.386151688530433 |  erot = 0.629687420924883 | epot = -15.6407428520557 | etot = -14.6249037426004
600000  ekin = 0.396824670884606 |  erot = 0.649618644309941 | epot = -15.6713470578748 | etot = -14.6249037426803
601000  ekin = 0.403202067553919 |  erot = 0.669171693345246 | epot = -15.6972775036573 | etot = -14.6249037427582
602000  ekin = 0.40490852829975 |  erot = 0.687495721385519 | epot = -15.7173079925082 | etot = -14.6249037428229
603000  ekin = 0.401765041348506 |  erot = 0.703757265562631 | epot = -15.7304260497733 | etot = -14.6249037428622
604000  ekin = 0.393886240081525 |  erot = 0.717231476889702 | epot = -15.7360214598372 | etot = -14.624903742866
605000  ekin = 0.38175038495462 |  erot = 0.727382711583425 | epot = -15.7340368393683 | etot = -14.6249037428302
606000  ekin = 0.366205114566941 |  erot = 0.733917584160155 | epot = -15.725026441486 | etot = -14.6249037427589
607000  ekin = 0.348389460814908 |  erot = 0.736798185090599 | epot = -15.7100913885695 | etot = -14.624903742664
608000  ekin = 0.329579787369096 |  erot = 0.736212623478789 | epot = -15.6906961534101 | etot = -14.6249037425622
609000  ekin = 0.310994196071395 |  erot = 0.73251127479451 | epot = -15.6684092133368 | etot = -14.6249037424709
610000  ekin = 0.293604835884145 |  erot = 0.726125549058765 | epot = -15.6446341273466 | etot = -14.6249037424037
611000  ekin = 0.278004208601941 |  erot = 0.717488389875027 | epot = -15.620396340845 | etot = -14.624903742368
612000  ekin = 0.264353214552908 |  erot = 0.706972008379807 | epot = -15.5962289652964 | etot = -14.6249037423637
613000  ekin = 0.252415280668165 |  erot = 0.694851301360494 | epot = -15.5721703244133 | etot = -14.6249037423847
614000  ekin = 0.241662201716805 |  erot = 0.681294462599433 | epot = -15.5478604067365 | etot = -14.6249037424203
615000  ekin = 0.231427318529322 |  erot = 0.666377599992121 | epot = -15.5227086609789 | etot = -14.6249037424574
616000  ekin = 0.221078258759027 |  erot = 0.650117838829056 | epot = -15.4960998400712 | etot = -14.6249037424831
617000  ekin = 0.210180390467373 |  erot = 0.632518274251274 | epot = -15.4676024072048 | etot = -14.6249037424862
618000  ekin = 0.19862150965634 |  erot = 0.61361713210071 | epot = -15.437142384217 | etot = -14.6249037424599
619000  ekin = 0.186670442213662 |  erot = 0.593532504056955 | epot = -15.4051066886746 | etot = -14.6249037424039
620000  ekin = 0.174951539061879 |  erot = 0.572493952083693 | epot = -15.3723492334697 | etot = -14.6249037423241
621000  ekin = 0.164335257152339 |  erot = 0.550854196820419 | epot = -15.3400931962051 | etot = -14.6249037422323
622000  ekin = 0.15576803968181 |  erot = 0.529078173717942 | epot = -15.3097499555427 | etot = -14.6249037421429
623000  ekin = 0.150083571178598 |  erot = 0.507711807337566 | epot = -15.2826991205848 | etot = -14.6249037420687
624000  ekin = 0.147843467415458 |  erot = 0.487337070698791 | epot = -15.2600842801331 | etot = -14.6249037420188
625000  ekin = 0.149245521580975 |  erot = 0.468521842126362 | epot = -15.242671105704 | etot = -14.6249037419967
626000  ekin = 0.154116108891131 |  erot = 0.451772481731462 | epot = -15.2307923326229 | etot = -14.6249037420003
627000  ekin = 0.161979086426179 |  erot = 0.437494698740194 | epot = -15.2243775271902 | etot = -14.6249037420239
628000  ekin = 0.172174902879175 |  erot = 0.425965324893585 | epot = -15.2230439698325 | etot = -14.6249037420598
629000  ekin = 0.183995029152314 |  erot = 0.417314987668265 | epot = -15.2262137589216 | etot = -14.624903742101
630000  ekin = 0.196798066694665 |  erot = 0.411519917956496 | epot = -15.2332217267944 | etot = -14.6249037421432
631000  ekin = 0.210082131921541 |  erot = 0.408400457423892 | epot = -15.2433863315305 | etot = -14.6249037421851
632000  ekin = 0.223500184825895 |  erot = 0.407624312389087 | epot = -15.2560282394437 | etot = -14.6249037422287
633000  ekin = 0.236818662196578 |  erot = 0.408714108140466 | epot = -15.2704365126158 | etot = -14.6249037422787
634000  ekin = 0.249833574952738 |  erot = 0.411060882466515 | epot = -15.2857981997594 | etot = -14.6249037423402
635000  ekin = 0.262270239999152 |  erot = 0.413946987959646 | epot = -15.3011209703752 | etot = -14.6249037424164
636000  ekin = 0.273700147361468 |  erot = 0.416582412016232 | epot = -15.315186301884 | etot = -14.6249037425063
637000  ekin = 0.283507856899438 |  erot = 0.418156955201586 | epot = -15.3265685547044 | etot = -14.6249037426034
638000  ekin = 0.290930324554196 |  erot = 0.417906927432445 | epot = -15.3337409946819 | etot = -14.6249037426952
639000  ekin = 0.295171730169193 |  erot = 0.415189912094696 | epot = -15.3352653850304 | etot = -14.6249037427665
640000  ekin = 0.29557345321463 |  erot = 0.409556450349033 | epot = -15.3300336463655 | etot = -14.6249037428018
641000  ekin = 0.291798784614145 |  erot = 0.400805216305268 | epot = -15.3175077437091 | etot = -14.6249037427896
642000  ekin = 0.283982821763269 |  erot = 0.389009767281603 | epot = -15.2978963317707 | etot = -14.6249037427259
643000  ekin = 0.272803834295158 |  erot = 0.374510198234827 | epot = -15.2722177751453 | etot = -14.6249037426153
644000  ekin = 0.259451287281963 |  erot = 0.35787030323495 | epot = -15.242225332988 | etot = -14.6249037424711
645000  ekin = 0.24549053850944 |  erot = 0.339807577757951 | epot = -15.2102018585798 | etot = -14.6249037423124
646000  ekin = 0.232646751227162 |  erot = 0.321107525182429 | epot = -15.1786580185707 | etot = -14.6249037421611
647000  ekin = 0.222545810224123 |  erot = 0.302534738054695 | epot = -15.1499842903174 | etot = -14.6249037420386
648000  ekin = 0.216457466201495 |  erot = 0.28475201940792 | epot = -15.1261132275715 | etot = -14.624903741962
649000  ekin = 0.215087078764636 |  erot = 0.268256849270223 | epot = -15.1082476699766 | etot = -14.6249037419418
650000  ekin = 0.218457489209105 |  erot = 0.253342374384717 | epot = -15.0967036055721 | etot = -14.6249037419783
651000  ekin = 0.225910420497396 |  erot = 0.240087663214758 | epot = -15.0909018257745 | etot = -14.6249037420624
652000  ekin = 0.236236377394498 |  erot = 0.228379019530553 | epot = -15.0895191391008 | etot = -14.6249037421757
653000  ekin = 0.247915496411967 |  erot = 0.217959688821804 | epot = -15.0907789275281 | etot = -14.6249037422943
654000  ekin = 0.259425494352017 |  erot = 0.20850030571605 | epot = -15.0928295424613 | etot = -14.6249037423932
[...]
838000  ekin = 0.268023056778553 |  erot = 0.575686784519793 | epot = -15.4686135837165 | etot = -14.6249037424181
839000  ekin = 0.27401827032314 |  erot = 0.582582979367263 | epot = -15.4815049920797 | etot = -14.6249037423893
840000  ekin = 0.279983100774025 |  erot = 0.588834754839967 | epot = -15.4937215979637 | etot = -14.6249037423497
841000  ekin = 0.286398274628728 |  erot = 0.59463702433131 | epot = -15.5059390412703 | etot = -14.6249037423103
842000  ekin = 0.293816650983536 |  erot = 0.600098453281003 | epot = -15.5188188465462 | etot = -14.6249037422817
843000  ekin = 0.302726774569486 |  erot = 0.605208920749049 | epot = -15.5328394375911 | etot = -14.6249037422726
844000  ekin = 0.313421069061172 |  erot = 0.609833296485301 | epot = -15.5481581078353 | etot = -14.6249037422889
845000  ekin = 0.325887895394733 |  erot = 0.613733577818912 | epot = -15.5645252155452 | etot = -14.6249037423315
846000  ekin = 0.339752400962196 |  erot = 0.616615984720894 | epot = -15.5812721280789 | etot = -14.6249037423958
847000  ekin = 0.354292335348444 |  erot = 0.61819407953295 | epot = -15.5973901573525 | etot = -14.6249037424711
848000  ekin = 0.368542667423182 |  erot = 0.618254639142345 | epot = -15.6117010491079 | etot = -14.6249037425423
849000  ekin = 0.381474241843926 |  erot = 0.616711095273524 | epot = -15.6230890797115 | etot = -14.6249037425941
850000  ekin = 0.392198266661771 |  erot = 0.613631554979492 | epot = -15.6307335642567 | etot = -14.6249037426155
851000  ekin = 0.40012936773711 |  erot = 0.609234588535909 | epot = -15.6342676988772 | etot = -14.6249037426042
852000  ekin = 0.405049998797733 |  erot = 0.603854451146916 | epot = -15.633808192512 | etot = -14.6249037425674
853000  ekin = 0.407056563941561 |  erot = 0.597885334648249 | epot = -15.6298456411086 | etot = -14.6249037425187
854000  ekin = 0.406415158938748 |  erot = 0.591718979210661 | epot = -15.6230378806227 | etot = -14.6249037424733
855000  ekin = 0.403390043512858 |  erot = 0.585690332509252 | epot = -15.6139841184645 | etot = -14.6249037424423
856000  ekin = 0.398116166002726 |  erot = 0.580042463525136 | epot = -15.6030623719571 | etot = -14.6249037424293
857000  ekin = 0.390568016159967 |  erot = 0.574915889724967 | epot = -15.5903876483136 | etot = -14.6249037424286
858000  ekin = 0.380638245096081 |  erot = 0.570361176880736 | epot = -15.5759031644054 | etot = -14.6249037424286
859000  ekin = 0.368297168914653 |  erot = 0.566367903415377 | epot = -15.5595688147452 | etot = -14.6249037424151
860000  ekin = 0.353771484486348 |  erot = 0.56289933566704 | epot = -15.5415745625316 | etot = -14.6249037423782
861000  ekin = 0.337668189076058 |  erot = 0.55992119051608 | epot = -15.522493121908 | etot = -14.6249037423159
862000  ekin = 0.320982687534733 |  erot = 0.55741511441171 | epot = -15.5033015441828 | etot = -14.6249037422364
863000  ekin = 0.304965814691443 |  erot = 0.555372641472256 | epot = -15.4852421983211 | etot = -14.6249037421574
864000  ekin = 0.290872653003623 |  erot = 0.553772082573975 | epot = -15.4695484776774 | etot = -14.6249037420998
865000  ekin = 0.279660774249956 |  erot = 0.552546988655193 | epot = -15.4571115049878 | etot = -14.6249037420826
866000  ekin = 0.271730646599716 |  erot = 0.551558423386406 | epot = -15.448192812101 | etot = -14.6249037421149
867000  ekin = 0.266795961580917 |  erot = 0.550582916186157 | epot = -15.44228261996 | etot = -14.624903742193
868000  ekin = 0.263936467175858 |  erot = 0.549323573880104 | epot = -15.4381637833559 | etot = -14.6249037422999
869000  ekin = 0.261831470221839 |  erot = 0.547444696243376 | epot = -15.4341799088748 | etot = -14.6249037424095
870000  ekin = 0.259116433169107 |  erot = 0.544622620095519 | epot = -15.4286427957584 | etot = -14.6249037424938
871000  ekin = 0.25476611341807 |  erot = 0.540599894777859 | epot = -15.4202697507262 | etot = -14.6249037425303
872000  ekin = 0.248397230690975 |  erot = 0.535228153627688 | epot = -15.4085291268279 | etot = -14.6249037425092
873000  ekin = 0.240403953825284 |  erot = 0.528487826572668 | epot = -15.3937955228335 | etot = -14.6249037424356
874000  ekin = 0.23188412578265 |  erot = 0.52047931782111 | epot = -15.3772671859324 | etot = -14.6249037423286
875000  ekin = 0.224371090312889 |  erot = 0.51138848970078 | epot = -15.3606633222303 | etot = -14.6249037422166
876000  ekin = 0.219440883379249 |  erot = 0.501436812694071 | epot = -15.3457814382023 | etot = -14.624903742129
877000  ekin = 0.218302972735591 |  erot = 0.490831150818216 | epot = -15.3340378656416 | etot = -14.6249037420878
878000  ekin = 0.221492456262699 |  erot = 0.479728387736622 | epot = -15.3261245861005 | etot = -14.6249037421012
879000  ekin = 0.228756262274367 |  erot = 0.468225594693664 | epot = -15.3218855991281 | etot = -14.6249037421601
880000  ekin = 0.239169160088235 |  erot = 0.456378166082075 | epot = -15.3204510684122 | etot = -14.6249037422419
881000  ekin = 0.251443176614178 |  erot = 0.444238659512956 | epot = -15.3205855784449 | etot = -14.6249037423178
882000  ekin = 0.264330844663498 |  erot = 0.431901289695958 | epot = -15.3211358767212 | etot = -14.6249037423617
883000  ekin = 0.276992343361542 |  erot = 0.419534292632451 | epot = -15.3214303783535 | etot = -14.6249037423595
884000  ekin = 0.289210952362652 |  erot = 0.407386172192625 | epot = -15.321500866868 | etot = -14.6249037423127
885000  ekin = 0.301394205510712 |  erot = 0.395760928443729 | epot = -15.3220588761924 | etot = -14.6249037422379
886000  ekin = 0.314368599205627 |  erot = 0.384968165379708 | epot = -15.3242405067466 | etot = -14.6249037421612
887000  ekin = 0.329038341775269 |  erot = 0.375262338090432 | epot = -15.3292044219761 | etot = -14.6249037421104
888000  ekin = 0.3460151111552 |  erot = 0.366788650327974 | epot = -15.337707503589 | etot = -14.6249037421058
889000  ekin = 0.365329693883301 |  erot = 0.359550947377142 | epot = -15.3497843834163 | etot = -14.6249037421559
890000  ekin = 0.386310696217007 |  erot = 0.353410826837943 | epot = -15.364625265308 | etot = -14.6249037422531
891000  ekin = 0.40766808705505 |  erot = 0.348119126036606 | epot = -15.3806909554677 | etot = -14.624903742376
892000  ekin = 0.427761236103282 |  erot = 0.343372786941987 | epot = -15.3960377655415 | etot = -14.6249037424963
893000  ekin = 0.444977236019449 |  erot = 0.33888352569265 | epot = -15.4087645042971 | etot = -14.624903742585
894000  ekin = 0.458112158680458 |  erot = 0.334441343917185 | epot = -15.4174572452192 | etot = -14.6249037426215
895000  ekin = 0.466648008331883 |  erot = 0.329956933565113 | epot = -15.4215086844963 | etot = -14.6249037425993
896000  ekin = 0.470850232519732 |  erot = 0.325472374552551 | epot = -15.4212263495988 | etot = -14.6249037425265
897000  ekin = 0.471664510488006 |  erot = 0.321137893833118 | epot = -15.4177061467451 | etot = -14.624903742424
898000  ekin = 0.470447771985807 |  erot = 0.317161282107798 | epot = -15.4125127964124 | etot = -14.6249037423188
899000  ekin = 0.468609320535655 |  erot = 0.313743247831532 | epot = -15.407256310605 | etot = -14.6249037422378
900000  ekin = 0.467255363896805 |  erot = 0.311015004595507 | epot = -15.403174110693 | etot = -14.6249037422007
901000  ekin = 0.466923299456955 |  erot = 0.308993431077898 | epot = -15.4008204727509 | etot = -14.624903742216
902000  ekin = 0.467466399705958 |  erot = 0.307564919774008 | epot = -15.3999350617591 | etot = -14.6249037422791
903000  ekin = 0.468112799245358 |  erot = 0.306502589385531 | epot = -15.3995191310034 | etot = -14.6249037423725
904000  ekin = 0.467682260080958 |  erot = 0.305513914729679 | epot = -15.398099917282 | etot = -14.6249037424714
905000  ekin = 0.464906903208091 |  erot = 0.304308207539486 | epot = -15.3941188532968 | etot = -14.6249037425492
906000  ekin = 0.458775313350218 |  erot = 0.302667437698602 | epot = -15.386346493633 | etot = -14.6249037425842
907000  ekin = 0.448811106797068 |  erot = 0.300501710925682 | epot = -15.3742165602888 | etot = -14.624903742566
908000  ekin = 0.435212888278286 |  erot = 0.297873922704326 | epot = -15.3579905534802 | etot = -14.6249037424976
909000  ekin = 0.418821166578994 |  erot = 0.294986492955548 | epot = -15.338711401929 | etot = -14.6249037423944
910000  ekin = 0.400928155652122 |  erot = 0.292134043124749 | epot = -15.3179659410565 | etot = -14.6249037422796
911000  ekin = 0.382990731318649 |  erot = 0.289635345607696 | epot = -15.2975298191034 | etot = -14.6249037421771
912000  ekin = 0.366329155569864 |  erot = 0.28776245704618 | epot = -15.2789953547216 | etot = -14.6249037421055
913000  ekin = 0.351888443631227 |  erot = 0.286683662572629 | epot = -15.2634758482788 | etot = -14.624903742075
914000  ekin = 0.340111462795541 |  erot = 0.286431278414487 | epot = -15.2514464832954 | etot = -14.6249037420854
915000  ekin = 0.330936398540049 |  erot = 0.286898247267082 | epot = -15.2427383879356 | etot = -14.6249037421284
916000  ekin = 0.323899271601486 |  erot = 0.287861143478391 | epot = -15.2366641572706 | etot = -14.6249037421907
917000  ekin = 0.318302399047232 |  erot = 0.289022784865087 | epot = -15.2322289261691 | etot = -14.6249037422568
918000  ekin = 0.313403328231463 |  erot = 0.290065205370856 | epot = -15.2283722759152 | etot = -14.6249037423129
919000  ekin = 0.308582994046901 |  erot = 0.290702987753991 | epot = -15.2241897241499 | etot = -14.624903742349
920000  ekin = 0.303462620954368 |  erot = 0.290727692025052 | epot = -15.2190940553399 | etot = -14.6249037423605
921000  ekin = 0.297952758522196 |  erot = 0.290036267627498 | epot = -15.2128927684978 | etot = -14.6249037423481
922000  ekin = 0.29223232916649 |  erot = 0.28863969692327 | epot = -15.2057757684075 | etot = -14.6249037423178
923000  ekin = 0.286668877937277 |  erot = 0.286652137103424 | epot = -15.1982247573193 | etot = -14.6249037422786
924000  ekin = 0.28170186865761 |  erot = 0.28426466875578 | epot = -15.1908702796539 | etot = -14.6249037422405
925000  ekin = 0.277717553237222 |  erot = 0.281710557645316 | epot = -15.1843318530947 | etot = -14.6249037422121
926000  ekin = 0.274945509178671 |  erot = 0.279230091666927 | epot = -15.1790793430443 | etot = -14.6249037421988
927000  ekin = 0.273402631519431 |  erot = 0.277042382113437 | epot = -15.1753487558338 | etot = -14.624903742201
928000  ekin = 0.272900230271358 |  erot = 0.275329232545622 | epot = -15.1731332050314 | etot = -14.6249037422144
929000  ekin = 0.273115271901108 |  erot = 0.274232799537457 | epot = -15.1722518136694 | etot = -14.6249037422308
930000  ekin = 0.273710515356084 |  erot = 0.273865029644295 | epot = -15.1724792872405 | etot = -14.6249037422402
931000  ekin = 0.274474107140427 |  erot = 0.274323617229163 | epot = -15.1737014666035 | etot = -14.6249037422339
932000  ekin = 0.275440857683932 |  erot = 0.275707340217243 | epot = -15.1760519401082 | etot = -14.624903742207
933000  ekin = 0.276957575782685 |  erot = 0.278123705988738 | epot = -15.1799850239326 | etot = -14.6249037421612
934000  ekin = 0.279664435384645 |  erot = 0.281683992543778 | epot = -15.186252170033 | etot = -14.6249037421046
935000  ekin = 0.284382433297568 |  erot = 0.286484503522986 | epot = -15.1957706788719 | etot = -14.6249037420513
936000  ekin = 0.291920557580458 |  erot = 0.292577187598382 | epot = -15.2094014871973 | etot = -14.6249037420184
937000  ekin = 0.302840159170039 |  erot = 0.299936553990847 | epot = -15.2276804551831 | etot = -14.6249037420222
938000  ekin = 0.317231541763436 |  erot = 0.308432066638964 | epot = -15.2505673504756 | etot = -14.6249037420732
939000  ekin = 0.334562734704465 |  erot = 0.317815317270747 | epot = -15.277281794148 | etot = -14.6249037421728
940000  ekin = 0.35364952180483 |  erot = 0.327729086105148 | epot = -15.3062823502215 | etot = -14.6249037423115
941000  ekin = 0.372770367646405 |  erot = 0.337741122003473 | epot = -15.3354152321199 | etot = -14.62490374247
942000  ekin = 0.389915662531244 |  erot = 0.34739974979893 | epot = -15.3622191549524 | etot = -14.6249037426222
943000  ekin = 0.403126345738701 |  erot = 0.356302369933728 | epot = -15.3843324584131 | etot = -14.6249037427407
944000  ekin = 0.410851754405684 |  erot = 0.364163156178504 | epot = -15.3999186533874 | etot = -14.6249037428032
945000  ekin = 0.41224792095984 |  erot = 0.370864511414023 | epot = -15.4080161751712 | etot = -14.6249037427973
946000  ekin = 0.407348747779498 |  erot = 0.376479254456982 | epot = -15.4087317449601 | etot = -14.6249037427236
947000  ekin = 0.397071124216324 |  erot = 0.381256899558077 | epot = -15.4032317663699 | etot = -14.6249037425955
948000  ekin = 0.38305345572573 |  erot = 0.385576026490354 | epot = -15.3935332246524 | etot = -14.6249037424363
949000  ekin = 0.367364810069699 |  erot = 0.389872987608877 | epot = -15.3821415399525 | etot = -14.624903742274
950000  ekin = 0.352149150210297 |  erot = 0.394562514442363 | epot = -15.3716154067876 | etot = -14.6249037421349
951000  ekin = 0.339280178142264 |  erot = 0.399966938640697 | epot = -15.364150858822 | etot = -14.6249037420391
952000  ekin = 0.330096120378427 |  erot = 0.406268489131276 | epot = -15.3612683515059 | etot = -14.6249037419962
953000  ekin = 0.32526183166892 |  erot = 0.413492937870355 | epot = -15.3636585115441 | etot = -14.6249037420048
954000  ekin = 0.324774911928697 |  erot = 0.421526046052984 | epot = -15.3712047000353 | etot = -14.6249037420537
955000  ekin = 0.328098170458837 |  erot = 0.430156858160225 | epot = -15.3831587707443 | etot = -14.6249037421253
956000  ekin = 0.334370903123397 |  erot = 0.439135698167057 | epot = -15.3984103434923 | etot = -14.6249037422019
957000  ekin = 0.342633913360124 |  erot = 0.44823123979963 | epot = -15.4157688954295 | etot = -14.6249037422697
958000  ekin = 0.352004139469675 |  erot = 0.457271615168161 | epot = -15.4341794969606 | etot = -14.6249037423228
959000  ekin = 0.361755395785515 |  erot = 0.466159587644429 | epot = -15.4528187257936 | etot = -14.6249037423637
960000  ekin = 0.37129634840351 |  erot = 0.474860087933521 | epot = -15.4710601787381 | etot = -14.624903742401
961000  ekin = 0.380073790913227 |  erot = 0.483367158176183 | epot = -15.4883446915346 | etot = -14.6249037424452
962000  ekin = 0.387455548951145 |  erot = 0.491663490522134 | epot = -15.5040227819764 | etot = -14.6249037425031
963000  ekin = 0.392654097313064 |  erot = 0.499687295633833 | epot = -15.5172451355218 | etot = -14.6249037425749
964000  ekin = 0.394737939560465 |  erot = 0.507318071997362 | epot = -15.52695975421 | etot = -14.6249037426522
965000  ekin = 0.392748486468401 |  erot = 0.514386334668901 | epot = -15.5320385638565 | etot = -14.6249037427192
966000  ekin = 0.385905473254046 |  erot = 0.520705106529118 | epot = -15.5315143225403 | etot = -14.6249037427571
967000  ekin = 0.373852021646475 |  erot = 0.526114369236053 | epot = -15.5248701336312 | etot = -14.6249037427486
968000  ekin = 0.356869417136842 |  erot = 0.530525868586128 | epot = -15.5122990284073 | etot = -14.6249037426844
969000  ekin = 0.335986889835165 |  erot = 0.533955228285004 | epot = -15.4948458606873 | etot = -14.6249037425671
970000  ekin = 0.312927788673001 |  erot = 0.536531428462375 | epot = -15.4743629595488 | etot = -14.6249037424134
971000  ekin = 0.289872105907279 |  erot = 0.538479668129898 | epot = -15.4532555162884 | etot = -14.6249037422512
972000  ekin = 0.269070232406882 |  erot = 0.5400808983618 | epot = -15.4340548728819 | etot = -14.6249037421133
973000  ekin = 0.252397022945549 |  erot = 0.54161782723096 | epot = -15.4189185922049 | etot = -14.6249037420284
974000  ekin = 0.240964852822479 |  erot = 0.543321042151966 | epot = -15.4091896369876 | etot = -14.6249037420132
975000  ekin = 0.23490216482404 |  erot = 0.545328986458525 | epot = -15.4051348933507 | etot = -14.6249037420682
976000  ekin = 0.233353466621782 |  erot = 0.547671994179659 | epot = -15.4059292029795 | etot = -14.6249037421781
977000  ekin = 0.234692201089083 |  erot = 0.550284513866881 | epot = -15.4098804572724 | etot = -14.6249037423164
978000  ekin = 0.236887903180263 |  erot = 0.553043053342472 | epot = -15.4148346989741 | etot = -14.6249037424514
979000  ekin = 0.237945797131594 |  erot = 0.555821040963433 | epot = -15.4186705806471 | etot = -14.6249037425521
980000  ekin = 0.236334546963168 |  erot = 0.558547250125055 | epot = -15.4197855396823 | etot = -14.6249037425941
981000  ekin = 0.231322843924042 |  erot = 0.561252158432646 | epot = -15.4174787449221 | etot = -14.6249037425654
982000  ekin = 0.223154169544533 |  erot = 0.564087592074629 | epot = -15.4121455040889 | etot = -14.6249037424697
983000  ekin = 0.213008719539339 |  erot = 0.567310103886669 | epot = -15.4052225657532 | etot = -14.6249037423272
984000  ekin = 0.202740628548441 |  erot = 0.571227590062575 | epot = -15.3988719607827 | etot = -14.6249037421716
985000  ekin = 0.194435665154694 |  erot = 0.576119771487871 | epot = -15.3954591786846 | etot = -14.624903742042
986000  ekin = 0.189894304519126 |  erot = 0.58215285815263 | epot = -15.3969509046435 | etot = -14.6249037419717
987000  ekin = 0.190182835424942 |  erot = 0.589313613953793 | epot = -15.4044001913571 | etot = -14.6249037419783
988000  ekin = 0.195390213187374 |  erot = 0.597385005524008 | epot = -15.4176789607685 | etot = -14.6249037420571
989000  ekin = 0.204671362362343 |  erot = 0.605974905403727 | epot = -15.4355500099486 | etot = -14.6249037421825
990000  ekin = 0.216563394578633 |  erot = 0.614593273597528 | epot = -15.4560604104923 | etot = -14.6249037423162
991000  ekin = 0.229465191861939 |  erot = 0.622757127490605 | epot = -15.477126061773 | etot = -14.6249037424204
992000  ekin = 0.24211427112869 |  erot = 0.630092599916922 | epot = -15.4971106135161 | etot = -14.6249037424704
993000  ekin = 0.253902581479766 |  erot = 0.636403793831493 | epot = -15.5152101177725 | etot = -14.6249037424612
994000  ekin = 0.264939510335544 |  erot = 0.641689105047928 | epot = -15.5315323577914 | etot = -14.6249037424079
995000  ekin = 0.275864888578878 |  erot = 0.646102898208469 | epot = -15.5468715291258 | etot = -14.6249037423384
996000  ekin = 0.287497820769962 |  erot = 0.649877086441122 | epot = -15.562278649495 | etot = -14.6249037422839
997000  ekin = 0.300450307467282 |  erot = 0.653227423573226 | epot = -15.578581473309 | etot = -14.6249037422685
998000  ekin = 0.314829914377661 |  erot = 0.656270894957595 | epot = -15.5960045516386 | etot = -14.6249037423033
999000  ekin = 0.330110494517446 |  erot = 0.658973630822486 | epot = -15.613987867725 | etot = -14.6249037423851
1000000  ekin = 0.345190458651126 |  erot = 0.66113833946702 | epot = -15.6312325406162 | etot = -14.624903742498
 1000000  0.025569664   -1.5839232  0.020799898   -1.5286042 -3.5789082e-06 
Loop time of 30.1999 on 4 procs for 1000000 steps with 10 atoms

Performance: 28609.339 tau/day, 33112.661 timesteps/s
96.4% CPU use with 4 MPI tasks x no OpenMP threads

MPI task timing breakdown:
Section |  min time  |  avg time  |  max time  |%varavg| %total
---------------------------------------------------------------
Pair    | 0.90762    | 10.291     | 18.476     | 234.3 | 34.08
Bond    | 0.11783    | 0.39332    | 0.61914    |  34.0 |  1.30
Neigh   | 0          | 0          | 0          |   0.0 |  0.00
Comm    | 2.8711     | 3.8042     | 4.7159     |  34.0 | 12.60
Output  | 2e-05      | 3.15e-05   | 3.6e-05    |   0.0 |  0.00
Modify  | 0.27052    | 1.1583     | 1.9428     |  63.9 |  3.84
Other   |            | 14.55      |            |       | 48.19

Nlocal:    2.5 ave 5 max 0 min
Histogram: 1 0 1 0 0 0 0 0 1 1
Nghost:    7.5 ave 10 max 5 min
Histogram: 1 0 1 0 0 0 0 0 1 1
Neighs:    18.5 ave 35 max 0 min
Histogram: 1 0 1 0 0 0 0 0 1 1

Total # of neighbors = 74
Ave neighs/atom = 7.4
Ave special neighs/atom = 3.6
Neighbor list builds = 0
Dangerous builds = 0

#write_restart config.${number}.*
Total wall time: 0:00:30
