 
 
 
     10125 atoms
 
1 atom types
 
  -64.50000000000000   64.50000000000000 xlo xhi
  -64.50000000000000   64.50000000000000 ylo yhi
  -64.50000000000000   64.50000000000000 zlo zhi
 
Atoms
 
       1  1    300.0  -22.6370299999999993  -91.9510879999999986    9.4323809999999995
       2  1    300.0 -160.1959080000000029   24.1248819999999995  -98.2450489999999945
       3  1    300.0 -186.0298160000000109   32.5039980000000028  -55.9496570000000020
       4  1    300.0  -88.9166950000000043   92.2109530000000035  -30.6641159999999999
       5  1    300.0   57.1775820000000010   19.7979300000000009 -203.0401610000000119
       6  1    300.0  -71.7619550000000004   86.6955870000000033  203.0087130000000002
       7  1    300.0   62.2571640000000031   -8.5374009999999991 -139.9912260000000117
       8  1    300.0  -49.5657459999999972  160.2155150000000106  -33.3484729999999985
       9  1    300.0 -119.2757799999999975  189.1375119999999868   27.8746909999999986
      10  1    300.0  -51.2285729999999973  -96.3637159999999966   24.3428900000000006
      11  1    300.0 -139.5569150000000036   82.9383239999999944  155.6199799999999982
      12  1    300.0 -170.5766600000000039  102.5276109999999932  122.6657490000000053
      13  1    300.0  -35.0838549999999998  -51.0894320000000022  107.8508530000000007
      14  1    300.0  160.5845789999999909 -123.2288130000000024  -29.9417250000000017
      15  1    300.0  -25.3589920000000006  -30.3872390000000010   82.1400150000000053
      16  1    300.0    7.1472899999999999  -43.0130809999999997  152.8905489999999929
      17  1    300.0   59.2678450000000012   -3.8855729999999999  100.1691280000000006
      18  1    300.0   87.6777569999999997    6.5649610000000003    8.8467819999999993
      19  1    300.0  101.5090179999999975  107.2290420000000069  -87.1661909999999978
      20  1    300.0   -3.5828890000000002  120.1255189999999970   -2.6785600000000001
      21  1    300.0   80.6494059999999990   -3.0669890000000000 -142.2502900000000068
      22  1    300.0  -45.3149340000000009   -9.1501769999999993   22.4468040000000002
      23  1    300.0 -161.6050260000000094 -115.1263579999999962  188.9060670000000073
      24  1    300.0 -214.3200679999999920  -58.6173360000000017   78.9032969999999949
      25  1    300.0  -87.8919599999999974   25.9182069999999989  -22.5299629999999986
      26  1    300.0  -15.9118180000000002  138.1693119999999908   91.2251590000000050
      27  1    300.0  -21.1494999999999997   18.7945819999999983 -122.6726380000000063
      28  1    300.0  -72.6645970000000005  -44.4297520000000006  152.6763610000000142
      29  1    300.0  -39.2414819999999978    4.2073340000000004  153.3114009999999894
      30  1    300.0  154.2651060000000030   92.9687500000000000  -17.2076640000000012
      31  1    300.0 -147.8946990000000028 -154.2644200000000012   19.8720250000000007
      32  1    300.0   -7.3638430000000001  -57.6737290000000016    1.1743889999999999
      33  1    300.0  -75.5127180000000067  -31.0123539999999984 -156.6616209999999967
      34  1    300.0 -151.0666809999999884   96.0080569999999938  124.3227619999999973
      35  1    300.0    5.3382129999999997   99.8865279999999984   50.4582180000000022
      36  1    300.0   90.7321620000000024 -119.9446559999999948  -73.9006650000000036
      37  1    300.0  125.5114439999999973   39.7068439999999967  -68.1013640000000038
      38  1    300.0   39.0250780000000006  -33.3327669999999969  -41.8891750000000016
      39  1    300.0  101.3765640000000019   60.9348560000000035  212.0243230000000096
      40  1    300.0 -199.5228879999999947  -93.5894009999999952    6.0035920000000003
      41  1    300.0  -15.2745590000000000   96.2799530000000061   39.2384259999999969
      42  1    300.0  -55.4433629999999980   -9.9155219999999993   20.7646179999999987
      43  1    300.0  108.2766040000000061  -41.5584950000000006 -132.1543430000000114
      44  1    300.0  155.7276919999999905   66.6181789999999978  125.2510829999999942
      45  1    300.0  -11.7624309999999994   24.8280069999999995   47.3849030000000013
      46  1    300.0   69.0045010000000048  -13.2335200000000004  105.1729890000000012
      47  1    300.0  166.3154450000000111  -45.8143960000000021  -41.3166849999999997
      48  1    300.0   96.7091219999999936  -89.7907179999999983  176.9255980000000079
      49  1    300.0    4.6651119999999997   37.1236529999999973 -121.4101179999999971
      50  1    300.0  -76.5419770000000028  109.6894839999999931  -30.8733579999999996
      51  1    300.0 -102.3837050000000062  -56.0392610000000033   51.6497990000000016
      52  1    300.0   58.3113249999999965  -75.3321609999999993   35.5691300000000012
      53  1    300.0   74.7280269999999973  -43.5696560000000019  -72.0644450000000063
      54  1    300.0  -95.4244999999999948  127.3078309999999931   75.2758180000000010
      55  1    300.0   29.0082230000000010  121.4632189999999952  -71.9362789999999990
      56  1    300.0   55.6304549999999978  -88.2503430000000009  162.6565860000000043
      57  1    300.0   41.1472660000000019    3.0613800000000002  -29.4388919999999992
      58  1    300.0   60.7445790000000017  -22.1298330000000014  -12.8184909999999999
      59  1    300.0 -128.7988890000000026  -16.4789160000000017    9.6261500000000009
      60  1    300.0  -53.2505039999999994   21.4413699999999992  -33.6104890000000012
      61  1    300.0 -168.4871520000000089   27.7564109999999999  -29.1434269999999991
      62  1    300.0   77.7809910000000002 -215.7214659999999924   95.6166840000000064
      63  1    300.0   80.1841660000000047   12.0516970000000008  122.0886540000000053
      64  1    300.0 -133.9996189999999956  -79.8257449999999977  -30.3130910000000000
      65  1    300.0  243.0225220000000093   -9.0101080000000007  137.2994689999999878
      66  1    300.0  -59.4945980000000034  189.0676420000000064  -15.1081409999999998
      67  1    300.0  -72.9065630000000056   47.2572899999999976   13.8709389999999999
      68  1    300.0 -182.8727110000000096  -91.0449830000000020  -43.0065349999999995
      69  1    300.0  220.9759369999999876  115.5337750000000057 -125.8408510000000007
      70  1    300.0  -68.2864610000000027   29.8588139999999989   17.7203119999999998
      71  1    300.0   66.2686230000000052 -168.8004149999999868 -193.6970520000000135
      72  1    300.0  155.2222289999999987  -57.6486129999999974   44.1044619999999981
      73  1    300.0 -184.8242189999999994   64.2040939999999978  185.7684169999999995
      74  1    300.0   72.6142650000000032  127.9366679999999974   15.8742750000000008
      75  1    300.0 -119.8208240000000018  -38.6142499999999984  -48.0863149999999990
      76  1    300.0  -18.8694309999999987   17.5057240000000007  -95.0399249999999967
      77  1    300.0  -37.9945560000000029  -66.2799069999999944  108.6297679999999986
      78  1    300.0  -16.8034670000000013   43.3218499999999977   12.9068760000000005
      79  1    300.0  -99.8988879999999995   64.9291230000000041   13.0728720000000003
      80  1    300.0  114.8188099999999991  108.4890060000000034  -58.7254560000000012
      81  1    300.0  131.8083340000000021  -16.6614339999999999  101.4911879999999940
      82  1    300.0  -85.4588470000000058   -9.7972350000000006  129.9323730000000126
      83  1    300.0  -58.6667100000000019  113.8791889999999967 -164.2299500000000023
      84  1    300.0   -4.4370269999999996  -89.1202389999999980  -96.0710830000000016
      85  1    300.0  162.2604980000000126 -197.5584560000000067   17.2520370000000014
      86  1    300.0  -87.1825180000000017  118.0711519999999979  -85.8744509999999934
      87  1    300.0 -157.0058439999999962   47.0930400000000020   35.7481539999999995
      88  1    300.0   61.4241519999999994   36.6657679999999999   32.6828270000000032
      89  1    300.0 -143.5271449999999902   57.2952579999999969  -70.8786769999999962
      90  1    300.0  132.2292940000000101  102.7637179999999972  -94.4520569999999964
      91  1    300.0  -63.2472569999999976  240.0482639999999890  -27.7834110000000010
      92  1    300.0 -174.5831760000000088  -98.9255289999999974   37.7786290000000022
      93  1    300.0   27.9379670000000004   14.9171589999999998   -9.4571109999999994
      94  1    300.0  -83.4083329999999989  -85.9833299999999952  118.0144499999999965
      95  1    300.0 -164.6360630000000072  -25.5590480000000007   89.8980940000000004
      96  1    300.0   65.7873840000000030 -144.9898990000000083   70.0940020000000032
      97  1    300.0  -66.0331649999999968  154.4569850000000031   20.3560519999999983
      98  1    300.0   20.2269399999999990   26.6303519999999985  -59.5121150000000014
      99  1    300.0 -154.8144680000000051  -42.9396589999999989  111.3574909999999960
     100  1    300.0  -93.2460250000000030  102.8900299999999959   11.2518320000000003
     101  1    300.0    7.3803109999999998  -74.3958740000000063   -2.9894370000000001
     102  1    300.0  -93.1777880000000067  154.8371579999999881  154.3366550000000075
     103  1    300.0  -10.0802540000000000   61.3206599999999966   72.5955119999999994
     104  1    300.0   91.3076709999999991   -3.8789880000000001  102.9268419999999935
     105  1    300.0   -0.9937870000000000   11.8384789999999995  -84.9209369999999950
     106  1    300.0   60.8996580000000023   14.3251209999999993  117.3212429999999955
     107  1    300.0   61.6519240000000011   51.8810349999999971  203.3060000000000116
     108  1    300.0  100.7085720000000038   31.8925690000000017 -101.4928129999999982
     109  1    300.0   85.3719410000000067  -90.0611880000000014  -30.7386069999999982
     110  1    300.0   98.5035550000000057    3.2061139999999999 -131.7281340000000114
     111  1    300.0  -33.9403879999999987 -110.2954179999999980  133.3354030000000137
     112  1    300.0   85.6129300000000057  128.3750000000000000   -4.9868199999999998
     113  1    300.0  107.3264240000000029  -38.0493769999999998  157.4939270000000135
     114  1    300.0   22.4066429999999990  -93.6941149999999965  -63.6398810000000026
     115  1    300.0  196.7219090000000108 -111.9030230000000046  -37.4169920000000005
     116  1    300.0  -96.6819839999999999    7.2968750000000000   31.8373530000000002
     117  1    300.0  150.3154140000000041  -28.4598389999999988  -87.2431870000000060
     118  1    300.0   68.0789639999999991  -67.7297970000000049   -5.4953230000000000
     119  1    300.0   46.5158729999999991  108.4126129999999932   24.1738740000000014
     120  1    300.0   15.0370150000000002 -205.0930940000000078  -92.6470790000000051
     121  1    300.0  230.2812959999999975   43.7171209999999988  -96.0315700000000021
     122  1    300.0  -19.3149070000000016   16.9074840000000002  -73.6420140000000032
     123  1    300.0   30.7152630000000002  -95.2172549999999944  235.5214540000000056
     124  1    300.0   -3.2457069999999999  155.3895569999999964  -67.1480870000000039
     125  1    300.0 -127.6720729999999975   32.0564120000000017   66.2284089999999992
     126  1    300.0  -82.9519119999999930  -62.5338130000000021  107.0894619999999975
     127  1    300.0  -10.8382839999999998  -19.4930990000000008  -39.3931690000000003
     128  1    300.0  117.4877550000000070   74.5371700000000033  -68.5560609999999997
     129  1    300.0 -101.8744740000000064   16.8159069999999993   56.2672310000000024
     130  1    300.0  -75.4686970000000059 -101.9422990000000055  117.2595139999999958
     131  1    300.0  174.2520289999999932   84.1385649999999998   21.0562460000000016
     132  1    300.0  123.3422159999999934  114.0342409999999944 -167.8030850000000100
     133  1    300.0   17.9631119999999989 -123.9496149999999943  -90.4299319999999938
     134  1    300.0   56.3817480000000018    4.6412519999999997 -181.4875490000000013
     135  1    300.0   63.4734570000000033 -109.8537450000000035  -67.2413939999999997
     136  1    300.0  -49.4649009999999976  -59.2515489999999971   69.8371429999999975
     137  1    300.0  -79.9844060000000070 -174.8842319999999972  -19.8906799999999997
     138  1    300.0 -111.1432109999999938   97.3717960000000033  132.5745090000000062
     139  1    300.0  -32.3462030000000027   86.2053219999999953  105.4869230000000044
     140  1    300.0  -22.3487219999999986   77.7613750000000010    5.4452170000000004
     141  1    300.0 -142.8684389999999951  163.3551480000000140  -88.4013060000000053
     142  1    300.0  226.3157040000000109  -48.7619019999999992 -113.4059519999999992
     143  1    300.0 -183.2729490000000112  237.6849060000000122   14.5362010000000001
     144  1    300.0   92.8725809999999967  162.5447240000000022 -106.1982799999999969
     145  1    300.0   -1.0498890000000001   33.1767159999999990  -11.7823510000000002
     146  1    300.0   72.4516220000000004   74.2533190000000047   29.4643780000000000
     147  1    300.0  -85.6039959999999951  150.1974179999999990   88.3004229999999950
     148  1    300.0  129.9213709999999935   -6.6867239999999999  -15.4570950000000007
     149  1    300.0  -56.2638630000000006  -27.9826620000000013 -128.7064509999999871
     150  1    300.0  -53.7645649999999975   46.0279269999999983  141.9512479999999925
     151  1    300.0  -89.6740649999999988  -77.1748730000000052   89.7244490000000070
     152  1    300.0   13.6780819999999999  -14.7953170000000007  -62.5316469999999995
     153  1    300.0  -72.7972790000000032  -65.2601549999999975   22.9021219999999985
     154  1    300.0   49.6738050000000015   98.1511380000000031   24.9614370000000001
     155  1    300.0   26.3463610000000017  -47.5998269999999977  -47.8134879999999995
     156  1    300.0   93.6105349999999987 -216.1157379999999932   80.2777710000000013
     157  1    300.0  103.3187029999999993 -146.7238920000000064  -77.7714310000000069
     158  1    300.0   83.8524929999999955   84.1997449999999930  -47.5349620000000002
     159  1    300.0   44.6556970000000035  142.1464689999999962  -93.1760100000000051
     160  1    300.0   78.9605789999999956  151.1479950000000088   27.9575199999999988
     161  1    300.0 -307.1277160000000208   34.4786339999999996   -7.5060849999999997
     162  1    300.0  -98.5877530000000064   -6.4061070000000004  -84.0891570000000002
     163  1    300.0  128.2091829999999959  -53.2306060000000016   18.0159799999999990
     164  1    300.0   71.4615100000000041    8.4324969999999997  -37.2262839999999997
     165  1    300.0  204.4260250000000099  -77.0253749999999968  -53.6501200000000011
     166  1    300.0   99.4074329999999975  -89.8489529999999945  -22.6345689999999991
     167  1    300.0   79.0640559999999937  -46.9725650000000030  -18.3565269999999998
     168  1    300.0  -77.5980299999999943 -171.3755800000000136  103.5946579999999955
     169  1    300.0  -12.5840399999999999  -82.5889049999999969    2.8389560000000000
     170  1    300.0   52.1858250000000012   88.0250089999999972 -147.2671660000000031
     171  1    300.0   -1.9110879999999999  -49.0910719999999969   -3.1073200000000001
     172  1    300.0 -131.5349270000000104  -18.1676029999999997  -20.3244650000000000
     173  1    300.0   12.8651250000000008   17.5057030000000005 -119.9345249999999936
     174  1    300.0  -40.6093860000000006  114.9550090000000040   14.4647509999999997
     175  1    300.0  -20.7139400000000009  117.8152079999999984  -20.4048160000000003
     176  1    300.0 -136.8049770000000080 -168.2657010000000071  -75.3428269999999998
     177  1    300.0  -25.0688800000000001   35.7623749999999987   47.1734009999999984
     178  1    300.0 -133.6128390000000081  177.2411189999999976   10.1211730000000006
     179  1    300.0   -4.2364439999999997   76.3225170000000048    3.4927670000000002
     180  1    300.0 -124.8421709999999933  128.9498600000000010   58.2971039999999974
     181  1    300.0   18.8545130000000007   13.8290849999999992   -9.8927829999999997
     182  1    300.0   19.3756979999999999  -59.5714419999999976   77.9973530000000039
     183  1    300.0  150.4325870000000123 -192.7596890000000087  109.4017939999999953
     184  1    300.0 -108.8206100000000021   -4.5463360000000002   33.4342540000000028
     185  1    300.0   51.3389659999999992  -90.8401790000000062    9.4638399999999994
     186  1    300.0 -155.4520569999999964 -114.9350809999999967  107.9847029999999961
     187  1    300.0  -32.4626269999999977   42.5759619999999970   16.4616909999999983
     188  1    300.0 -114.0655139999999932  -64.1725009999999969   -3.5995170000000001
     189  1    300.0  -76.7603610000000032  -17.6193050000000007   60.7242549999999994
     190  1    300.0 -124.5978319999999968  -69.4218369999999965  130.9172360000000026
     191  1    300.0  122.0266040000000061 -101.5784989999999937   43.7921490000000020
     192  1    300.0   99.3111719999999991   49.9155310000000014   55.1787720000000022
     193  1    300.0   18.6723479999999995  -87.5907059999999973  -43.0652159999999995
     194  1    300.0  -71.9483180000000004  -80.5926589999999976  -70.3707890000000020
     195  1    300.0  -13.2611600000000003  -33.3966899999999995    7.6602340000000000
     196  1    300.0  -48.5977630000000005 -103.1883540000000039   44.5973850000000027
     197  1    300.0  -48.2438390000000012 -156.3683929999999975 -137.6279450000000111
     198  1    300.0  129.5364989999999921  -24.1455629999999992    1.9493110000000000
     199  1    300.0  178.4352869999999882 -131.1955409999999915   78.1019440000000031
     200  1    300.0   23.1018870000000014  123.5319140000000004  -16.6961310000000012
     201  1    300.0   41.4091340000000017  -66.4233700000000056    4.4127130000000001
     202  1    300.0  142.1789550000000020  -29.4851880000000008  -42.3539010000000005
     203  1    300.0  -99.1680300000000017  -55.7668079999999975   69.1997219999999942
     204  1    300.0  -24.2669299999999986   18.5804839999999984 -102.0425489999999940
     205  1    300.0  139.9646449999999902  143.0713499999999954  -63.5464630000000028
     206  1    300.0   54.1365589999999983  125.3637769999999989  103.5303569999999951
     207  1    300.0    1.5924609999999999   52.8992920000000026  -72.1389309999999995
     208  1    300.0   66.9244609999999938  -45.7153819999999982   91.1756740000000008
     209  1    300.0 -226.8135829999999942 -181.9517519999999990  -85.0659100000000024
     210  1    300.0  157.3568569999999909   26.8945790000000002   28.4893509999999992
     211  1    300.0  -70.3496630000000067 -163.1772310000000061 -135.9155269999999973
     212  1    300.0   23.3427259999999990  100.0814510000000013  251.9254149999999868
     213  1    300.0  -81.5631259999999969  -93.1711650000000020   65.5481189999999998
     214  1    300.0  139.7613530000000139  120.7015909999999934  -59.3767660000000035
     215  1    300.0   97.2299880000000059 -195.0453640000000064 -111.6800690000000031
     216  1    300.0  -90.7936859999999939  -54.1965479999999999 -159.1197050000000104
     217  1    300.0  -59.8088610000000003   94.5637889999999999  -23.9962580000000010
     218  1    300.0   -8.7737379999999998   23.7033960000000015  195.3089449999999943
     219  1    300.0  -65.8697360000000032  201.1262049999999988  -29.2191310000000009
     220  1    300.0  -49.7296710000000033  -27.5421869999999984   -2.2265419999999998
     221  1    300.0 -107.1056750000000051  102.0021289999999965  -53.7743070000000003
     222  1    300.0   11.4106539999999992    8.7012520000000002   -8.7486250000000005
     223  1    300.0  -18.6174679999999988  -94.8492130000000060  -55.1208880000000008
     224  1    300.0   62.5497209999999981  201.3239140000000020  -78.1825790000000040
     225  1    300.0 -114.4164049999999975  -29.3554940000000002  -50.6765019999999993
     226  1    300.0  -97.6869350000000054   97.4824749999999938  -18.9587420000000009
     227  1    300.0   31.0185740000000010   64.8997880000000009  -36.9041709999999981
     228  1    300.0  154.1342620000000068  -21.9558220000000013 -176.4330439999999953
     229  1    300.0   14.9199760000000001   35.8208079999999995  108.7192610000000030
     230  1    300.0   23.9744190000000010  -82.3960419999999942  192.4464570000000094
     231  1    300.0  -51.7013660000000002   84.6109620000000007   47.2275350000000032
     232  1    300.0 -116.7668380000000070  -30.5158999999999985   48.8291779999999989
     233  1    300.0   13.7997990000000001  -20.8183439999999997  -61.9449419999999975
     234  1    300.0  175.7928469999999948  -36.4400290000000027 -169.4953460000000121
     235  1    300.0  107.1870959999999968  -27.1306919999999998  -11.3481889999999996
     236  1    300.0  -31.3900380000000006  -20.4108680000000007   79.4898220000000038
     237  1    300.0   17.8329470000000008 -144.6291960000000074  -16.8353919999999988
     238  1    300.0  -15.3598289999999995  -99.2488780000000048  133.0487819999999886
     239  1    300.0   89.9396289999999965  -22.5846960000000010 -237.3307949999999948
     240  1    300.0  -52.6300999999999988   12.0393120000000007  -54.5474930000000029
     241  1    300.0   10.4600000000000009  133.1322330000000136  -14.4558529999999994
     242  1    300.0   45.5306629999999970  106.1459660000000014   84.0997770000000031
     243  1    300.0 -156.3144990000000121   88.2672270000000054   68.5260849999999948
     244  1    300.0  137.1696780000000047  -77.7416000000000054 -160.0522919999999942
     245  1    300.0   59.5363619999999969 -118.9715039999999959  -46.0385890000000018
     246  1    300.0   74.7407910000000015 -141.6912839999999960    2.8881600000000001
     247  1    300.0   56.3357620000000026   49.5895039999999980  -57.9045640000000006
     248  1    300.0   87.7563549999999992   90.3896479999999940  -20.3647400000000012
     249  1    300.0    8.3590090000000004   84.6937870000000004  -51.2252579999999966
     250  1    300.0 -104.6336749999999967   89.1495209999999929    6.8516700000000004
     251  1    300.0   10.7815829999999995    9.8709170000000004   34.4266199999999998
     252  1    300.0 -117.0796890000000019   10.6223069999999993   49.7021829999999980
     253  1    300.0 -111.1463389999999976  -88.1513520000000028   -4.1251350000000002
     254  1    300.0  -86.5864329999999995  -55.6194229999999976  181.4235529999999983
     255  1    300.0  100.2241439999999955  205.1857909999999947  -84.2166670000000011
     256  1    300.0 -163.7769780000000139   59.6658710000000028   39.0817989999999966
     257  1    300.0  -31.5136760000000002   92.1264800000000008  -79.2530820000000062
     258  1    300.0  124.8213650000000001  121.5116730000000018  -90.4798129999999929
     259  1    300.0  -43.7799070000000015  146.5187990000000013  -90.3425600000000060
     260  1    300.0   19.7585160000000002   26.7623350000000002  115.5617519999999985
     261  1    300.0   37.1589320000000001  -38.5413169999999994   49.9563220000000001
     262  1    300.0   26.7488250000000001  -87.2506029999999981   57.6459580000000003
     263  1    300.0  -50.9843669999999989 -141.5516049999999950 -208.2692869999999914
     264  1    300.0   45.0798839999999998 -109.9255449999999996   34.1182250000000025
     265  1    300.0  -89.9329680000000025  -19.8698429999999995  118.0611799999999931
     266  1    300.0   -7.8712629999999999   17.0381280000000004  -45.3075979999999987
     267  1    300.0  118.5110860000000059  244.1924899999999923   23.6648539999999983
     268  1    300.0  189.0597989999999982   24.4971579999999989  -85.4364549999999952
     269  1    300.0   11.4726169999999996 -167.1833190000000116  -20.7314660000000011
     270  1    300.0   63.8451919999999973   77.5634689999999978  157.2661290000000065
     271  1    300.0 -115.9430080000000061   40.9551659999999984   -9.4323639999999997
     272  1    300.0   81.0982510000000048  103.9661940000000016  104.3800200000000018
     273  1    300.0   29.1697309999999987  -48.7173579999999973  -76.4774630000000002
     274  1    300.0  -18.6319559999999989  -92.6601560000000006  122.5549769999999938
     275  1    300.0  -89.6171719999999965  -35.8236390000000000  172.9868010000000140
     276  1    300.0 -158.6735079999999982   26.4879169999999995    4.5875560000000002
     277  1    300.0   95.5361860000000007   34.7715760000000031 -122.8646320000000003
     278  1    300.0   -9.8147090000000006  160.2115330000000029 -120.7960510000000056
     279  1    300.0  -19.1551839999999984  121.0921550000000053   60.6559560000000033
     280  1    300.0  -21.3248940000000005   65.9937060000000031  167.1806640000000073
     281  1    300.0  187.0679629999999918   79.6782989999999955  -21.8840409999999999
     282  1    300.0  143.9862369999999885   90.6852190000000036   32.8761829999999975
     283  1    300.0  -19.1670949999999998   57.2916680000000014    9.3223099999999999
     284  1    300.0  -32.4424059999999983   27.5557100000000013   88.6978679999999997
     285  1    300.0  -34.7864569999999986   41.7108350000000030  -96.3185419999999937
     286  1    300.0   25.7650989999999993   69.0538640000000044   34.4997559999999979
     287  1    300.0   -1.2371550000000000   45.2136989999999983 -101.6829829999999930
     288  1    300.0   15.2086430000000004 -121.2578510000000023   20.5923160000000003
     289  1    300.0  -47.2735479999999981    3.6364120000000000  -18.7082860000000011
     290  1    300.0   87.0309749999999980  -48.9164510000000021  -67.7427059999999983
     291  1    300.0 -172.7931370000000015 -152.6688540000000103  -36.7795139999999989
     292  1    300.0  -19.0390000000000015  -25.4934669999999990   29.7994120000000002
     293  1    300.0   21.1722320000000011 -110.2337490000000031  -23.7385710000000003
     294  1    300.0  -37.1673359999999988  -87.9445719999999937   73.4633479999999963
     295  1    300.0  -89.6530840000000069  -28.7343040000000016   48.8811260000000019
     296  1    300.0  -25.7649149999999985  -95.7141189999999966   77.3620760000000018
     297  1    300.0   26.2525119999999994   60.4416769999999985 -163.3794709999999952
     298  1    300.0 -115.6950300000000027   10.7478490000000004  -17.1351779999999998
     299  1    300.0  -54.0052639999999968  148.8795010000000048 -175.9535219999999924
     300  1    300.0   -7.3872650000000002   30.0565129999999989  -58.3031270000000035
     301  1    300.0  -55.1659580000000034   53.1479300000000023  115.3662719999999950
     302  1    300.0  177.6379389999999887   34.2309720000000013  122.5665819999999968
     303  1    300.0  -22.0273550000000000   -8.6414220000000004  -26.4573670000000014
     304  1    300.0   50.1412699999999987  101.9619830000000036  -79.7410959999999989
     305  1    300.0  -13.7337740000000004  144.5785520000000020   -6.8895119999999999
     306  1    300.0   48.2989269999999991  -65.2155000000000058  124.3837589999999977
     307  1    300.0  176.2101440000000139 -102.2117920000000026   14.4421260000000000
     308  1    300.0   28.3906649999999985  121.1849289999999968   12.5913719999999998
     309  1    300.0  -39.6366730000000018  -76.2412110000000069  -41.1895260000000007
     310  1    300.0   26.6547790000000013   76.2474899999999991   49.7218319999999991
     311  1    300.0 -172.9860380000000077  109.8784330000000011   52.8725009999999997
     312  1    300.0   44.3622930000000011   57.0561069999999972    9.5251099999999997
     313  1    300.0   30.8026960000000010   51.9025650000000027   -1.0492210000000000
     314  1    300.0  163.9109339999999975    3.0137600000000000   93.8400570000000016
     315  1    300.0   20.8692190000000011   -1.2467509999999999  -58.4217190000000031
     316  1    300.0 -188.9287410000000023  -28.1074009999999994  -72.7871020000000044
     317  1    300.0  -72.3147199999999941  -55.4401089999999996  -29.3309560000000005
     318  1    300.0  193.8985749999999939  131.4014889999999980  -78.8147510000000011
     319  1    300.0  -49.0551340000000025 -197.1891939999999863   73.0193710000000067
     320  1    300.0  -54.1649019999999979  -71.9153369999999938   53.0670620000000000
     321  1    300.0  162.9635619999999960  107.0616909999999962   -7.5093880000000004
     322  1    300.0   18.8118949999999998 -114.5576250000000016  -51.8944509999999966
     323  1    300.0 -123.9425659999999993  114.3972930000000048   82.9455489999999998
     324  1    300.0 -161.6782069999999862   85.6523279999999971  154.0881960000000106
     325  1    300.0 -110.8983230000000049    9.6909740000000006   76.2222289999999987
     326  1    300.0    7.6621930000000003  -91.2968599999999952  -79.6777419999999950
     327  1    300.0 -174.7292480000000126 -148.5761259999999879 -239.7223659999999938
     328  1    300.0 -229.6265720000000101  172.2357939999999985  205.9928280000000029
     329  1    300.0   65.0454029999999932 -196.3192139999999881   73.2462620000000015
     330  1    300.0  155.5044399999999882    0.0291320000000000   53.8648150000000001
     331  1    300.0   18.7755809999999990  -48.4585340000000002  -14.5017390000000006
     332  1    300.0    3.9567450000000002  107.0728229999999996  -47.6874850000000023
     333  1    300.0   93.1913380000000018   92.0361790000000042  -52.0528339999999972
     334  1    300.0  109.4314349999999934    8.0568729999999995   70.2672960000000018
     335  1    300.0  -80.1580730000000017 -194.6551059999999893   95.1050869999999975
     336  1    300.0  -80.5082019999999972   36.9401889999999966  -23.4073369999999983
     337  1    300.0  154.2299649999999929  -33.9850309999999993  -10.2295449999999999
     338  1    300.0    8.0620150000000006  212.1219330000000127  -79.1661759999999930
     339  1    300.0 -195.2497710000000097  101.0787430000000029 -103.6373669999999976
     340  1    300.0  211.6572419999999966 -139.8557429999999897    2.0003980000000001
     341  1    300.0  -72.0478360000000038 -168.5685119999999984  -12.3058169999999993
     342  1    300.0   57.8846020000000010   37.6593629999999990  -12.7402049999999996