LAMMPS data file via write_data, version 16 Feb 2016, timestep = 1

3 atoms
2 atom types

-4.0000000000000000e+00 4.0000000000000000e+00 xlo xhi
-4.0000000000000000e+00 4.0000000000000000e+00 ylo yhi
-4.0000000000000000e+00 4.0000000000000000e+00 zlo zhi

Masses

1 1.0079
2 69.723

Atoms # atomic

1 1 0.0000000000000000e+00 0.0000000000000000e+00 0.0000000000000000e+00 0 0 0
2 2 2.2000000000000002e+00 0.0000000000000000e+00 0.0000000000000000e+00 0 0 0
3 2 2.9999999999999999e-01 2.2999999999999998e+00 0.0000000000000000e+00 0 0 0

Velocities

1 0.0000000000000000e+00 0.0000000000000000e+00 0.0000000000000000e+00
2 0.0000000000000000e+00 0.0000000000000000e+00 0.0000000000000000e+00
3 0.0000000000000000e+00 0.0000000000000000e+00 0.0000000000000000e+00
