LAMMPS (23 Jun 2022)
log	test.log
# Test of MEAM potential for HGa

# ------------------------ INITIALIZATION ----------------------------
units           metal
dimension       3
boundary        p       p       p
atom_style      atomic
variable latparam equal 4.646
variable ncell equal 3

# ----------------------- ATOM DEFINITION ----------------------------
region          box block -4 4 -4 4 -4 4
create_box      2 box
Created orthogonal box = (-4 -4 -4) to (4 4 4)
  1 by 1 by 1 MPI processor grid

#

include potential.mod
# NOTE: This script can be modified for different pair styles
# See in.elastic for more info.

variable Pu string H
print "potential chosen ${Pu}"
potential chosen H
# Choose potential
pair_style meam ms # the `ms` flag turns on MS-MEAM
print		"we just executed"
we just executed

pair_coeff      * * library.MSmeam ${Pu} Ga4  HGaMS.meam ${Pu} Ga4
pair_coeff      * * library.MSmeam H Ga4  HGaMS.meam ${Pu} Ga4
pair_coeff      * * library.MSmeam H Ga4  HGaMS.meam H Ga4
Reading MEAM library file library.MSmeam with DATE: 2018-09-22
Tokenizer::next_double() current = 1.0
Tokenizer::next_int() current = 1
Tokenizer::next_double() current = 1.0079
Tokenizer::next_double() current = 2.960
Tokenizer::next_double() current = 2.960
Tokenizer::next_double() current = 3.0
Tokenizer::next_double() current = 1.0
Tokenizer::next_double() current = 1.0
Tokenizer::next_double() current = 1.0
Tokenizer::next_double() current = 3.0
Tokenizer::next_double() current = 1.0
Tokenizer::next_double() current = 0.741
Tokenizer::next_double() current = 2.235
Tokenizer::next_double() current = 2.50
Tokenizer::next_double() current = 1.0
Tokenizer::next_double() current = 0.44721
Tokenizer::next_double() current = 0.0
Tokenizer::next_double() current = 0.00
Tokenizer::next_double() current = 0.0
Tokenizer::next_double() current = 0.31623
Tokenizer::next_double() current = 0
Tokenizer::next_double() current = 6.70
Tokenizer::next_int() current = 0
Tokenizer::next_double() current = 12.0
Tokenizer::next_int() current = 31
Tokenizer::next_double() current = 69.723
Tokenizer::next_double() current = 4.42
Tokenizer::next_double() current = 4.80
Tokenizer::next_double() current = 3.10
Tokenizer::next_double() current = 6.00
Tokenizer::next_double() current = 0.00
Tokenizer::next_double() current = 0.0
Tokenizer::next_double() current = 0.0
Tokenizer::next_double() current = 0.5
Tokenizer::next_double() current = 4.247
Tokenizer::next_double() current = 2.897
Tokenizer::next_double() current = 0.97
Tokenizer::next_double() current = 1.0
Tokenizer::next_double() current = 1.649
Tokenizer::next_double() current = 1.435
Tokenizer::next_double() current = 0.00
Tokenizer::next_double() current = 0.0
Tokenizer::next_double() current = 0.0
Tokenizer::next_double() current = 2.0
Tokenizer::next_double() current = 0.70
Tokenizer::next_int() current = 0
Tokenizer::next_double() current = 1
Tokenizer::next_double() current = 1
Tokenizer::next_double() current = 0
Tokenizer::next_double() current = 1
Tokenizer::next_double() current = 5.9
Tokenizer::next_int() current = 1
Tokenizer::next_int() current = 1
Tokenizer::next_double() current = 0.460
Tokenizer::next_int() current = 1
Tokenizer::next_int() current = 1
Tokenizer::next_double() current = 0.460
Tokenizer::next_int() current = 1
Tokenizer::next_int() current = 1
Tokenizer::next_int() current = 1
Tokenizer::next_double() current = 1.3
Tokenizer::next_int() current = 1
Tokenizer::next_int() current = 1
Tokenizer::next_int() current = 1
Tokenizer::next_double() current = 2.80
Tokenizer::next_int() current = 1
Tokenizer::next_int() current = 1
Tokenizer::next_double() current = 1
Tokenizer::next_int() current = 2
Tokenizer::next_double() current = 0.6
Tokenizer::next_int() current = 2
Tokenizer::next_int() current = 2
Tokenizer::next_double() current = 0.097
Tokenizer::next_int() current = 2
Tokenizer::next_int() current = 2
Tokenizer::next_double() current = 0.097
Tokenizer::next_int() current = 2
Tokenizer::next_int() current = 2
Tokenizer::next_double() current = 1
Tokenizer::next_int() current = 1
Tokenizer::next_int() current = 2
Tokenizer::next_double() current = 0.300
Tokenizer::next_int() current = 1
Tokenizer::next_int() current = 2
Tokenizer::next_double() current = 0.300
Tokenizer::next_int() current = 1
Tokenizer::next_int() current = 2
Tokenizer::next_int() current = 1
Tokenizer::next_int() current = 2
Tokenizer::next_double() current = 3.19
Tokenizer::next_int() current = 1
Tokenizer::next_int() current = 2
Tokenizer::next_double() current = -0.48
Tokenizer::next_int() current = 1
Tokenizer::next_int() current = 2
Tokenizer::next_double() current = 6.6
Tokenizer::next_int() current = 1
Tokenizer::next_int() current = 1
Tokenizer::next_int() current = 2
Tokenizer::next_double() current = 2.0
Tokenizer::next_int() current = 2
Tokenizer::next_int() current = 1
Tokenizer::next_int() current = 2
Tokenizer::next_double() current = 2.0
Tokenizer::next_int() current = 1
Tokenizer::next_int() current = 2
Tokenizer::next_int() current = 1
Tokenizer::next_double() current = 2.0
Tokenizer::next_int() current = 2
Tokenizer::next_int() current = 2
Tokenizer::next_int() current = 1
Tokenizer::next_double() current = 1.4
Tokenizer::next_int() current = 1
Tokenizer::next_int() current = 2
Tokenizer::next_int() current = 2
Tokenizer::next_double() current = 1.4
Tokenizer::next_int() current = 1
Tokenizer::next_int() current = 1
Tokenizer::next_int() current = 2
Tokenizer::next_double() current = 1.4
Tokenizer::next_int() current = 1
Tokenizer::next_int() current = 2
Tokenizer::next_double() current = 1
# Setup neighbor style
neighbor 1.0 nsq
neigh_modify once no every 1 delay 0 check yes

# Setup minimization style
variable dmax equal 1.0e-2
min_style	     cg
min_modify	     dmax ${dmax} line quadratic
min_modify	     dmax 0.01 line quadratic
compute eng all pe/atom
compute eatoms all reduce sum c_eng

# Setup output
thermo		100
thermo_style custom step temp etotal  press pxx pyy pzz pxy pxz pyz lx ly lz vol c_eatoms
thermo_modify norm yes
create_atoms    1 single 0 0 0  units box
Created 1 atoms
  using box units in orthogonal box = (-4 -4 -4) to (4 4 4)
  create_atoms CPU = 0.000 seconds
create_atoms    2 single 2.2 0 0  units box
Created 1 atoms
  using box units in orthogonal box = (-4 -4 -4) to (4 4 4)
  create_atoms CPU = 0.000 seconds
create_atoms    2 single 0.3 2.3 0  units box
Created 1 atoms
  using box units in orthogonal box = (-4 -4 -4) to (4 4 4)
  create_atoms CPU = 0.000 seconds
# ---------- Define Settings ---------------------
variable	teng equal "c_eatoms"
compute pot_energy all pe/atom
compute stress all stress/atom NULL
dump 1 all custom 1 test.dump id x y z fx fy fz c_pot_energy c_stress[1] c_stress[2] c_stress[3] c_stress[4] c_stress[5] c_stress[6]
run	1
WARNING: No fixes with time integration, atoms won't move (src/verlet.cpp:60)
Neighbor list info ...
  update every 1 steps, delay 0 steps, check yes
  max neighbors/atom: 2000, page size: 100000
  master list distance cutoff = 6.9
  ghost atom cutoff = 6.9
  2 neighbor lists, perpetual/occasional/extra = 2 0 0
  (1) pair meam, perpetual
      attributes: full, newton on
      pair build: full/nsq
      stencil: none
      bin: none
  (2) pair meam, perpetual, half/full from (1)
      attributes: half, newton on
      pair build: halffull/newton
      stencil: none
      bin: none
Setting up Verlet run ...
  Unit style    : metal
  Current step  : 0
  Time step     : 0.001
Per MPI rank memory allocation (min/avg/max) = 10.69 | 10.69 | 10.69 Mbytes
   Step          Temp          TotEng         Press           Pxx            Pyy            Pzz            Pxy            Pxz            Pyz             Lx             Ly             Lz           Volume        c_eatoms   
         0   0              15.433079      491354.7       838670.96      635393.15      0              80195.797      0              0              8              8              8              512            15.433079    
         1   0              15.433079      491354.7       838670.96      635393.15      0              80195.797      0              0              8              8              8              512            15.433079    
Loop time of 8.3795e-05 on 1 procs for 1 steps with 3 atoms

Performance: 1031.088 ns/day, 0.023 hours/ns, 11933.886 timesteps/s
57.3% CPU use with 1 MPI tasks x no OpenMP threads

MPI task timing breakdown:
Section |  min time  |  avg time  |  max time  |%varavg| %total
---------------------------------------------------------------
Pair    | 2.1835e-05 | 2.1835e-05 | 2.1835e-05 |   0.0 | 26.06
Neigh   | 0          | 0          | 0          |   0.0 |  0.00
Comm    | 3.128e-06  | 3.128e-06  | 3.128e-06  |   0.0 |  3.73
Output  | 5.4931e-05 | 5.4931e-05 | 5.4931e-05 |   0.0 | 65.55
Modify  | 1.601e-06  | 1.601e-06  | 1.601e-06  |   0.0 |  1.91
Other   |            | 2.3e-06    |            |       |  2.74

Nlocal:              3 ave           3 max           3 min
Histogram: 1 0 0 0 0 0 0 0 0 0
Nghost:             78 ave          78 max          78 min
Histogram: 1 0 0 0 0 0 0 0 0 0
Neighs:              7 ave           7 max           7 min
Histogram: 1 0 0 0 0 0 0 0 0 0
FullNghs:           14 ave          14 max          14 min
Histogram: 1 0 0 0 0 0 0 0 0 0

Total # of neighbors = 14
Ave neighs/atom = 4.6666667
Neighbor list builds = 0
Dangerous builds = 0
write_data	test.data
System init for write_data ...

print "All done!"
All done!
Total wall time: 0:00:00
