ITEM: TIMESTEP
0
ITEM: NUMBER OF ATOMS
3
ITEM: BOX BOUNDS pp pp pp
-4.0000000000000000e+00 4.0000000000000000e+00
-4.0000000000000000e+00 4.0000000000000000e+00
-4.0000000000000000e+00 4.0000000000000000e+00
ITEM: ATOMS id x y z fx fy fz c_pot_energy c_stress[1] c_stress[2] c_stress[3] c_stress[4] c_stress[5] c_stress[6]
1 0 0 0 -132.308 -88.6953 0 22.6425 -2.1528e+08 -1.63302e+08 -0 -2.06499e+07 -0 -0
2 2.2 0 0 121.138 -0.446613 0 14.8521 -2.12596e+08 -0 -0 386632 -0 -0
3 0.3 2.3 0 11.1693 89.1419 0 8.67443 -2.68428e+06 -1.63302e+08 -0 -2.10365e+07 -0 -0
ITEM: TIMESTEP
1
ITEM: NUMBER OF ATOMS
3
ITEM: BOX BOUNDS pp pp pp
-4.0000000000000000e+00 4.0000000000000000e+00
-4.0000000000000000e+00 4.0000000000000000e+00
-4.0000000000000000e+00 4.0000000000000000e+00
ITEM: ATOMS id x y z fx fy fz c_pot_energy c_stress[1] c_stress[2] c_stress[3] c_stress[4] c_stress[5] c_stress[6]
1 0 0 0 -132.308 -88.6953 0 22.6425 -2.1528e+08 -1.63302e+08 -0 -2.06499e+07 -0 -0
2 2.2 0 0 121.138 -0.446613 0 14.8521 -2.12596e+08 -0 -0 386632 -0 -0
3 0.3 2.3 0 11.1693 89.1419 0 8.67443 -2.68428e+06 -1.63302e+08 -0 -2.10365e+07 -0 -0
