# generated with inpt_to_data.py from ./data.inpt and ./runtime.inpt

9798 atoms
7 atom types
4320 bonds
2 bond types
2160 angles
1 angle types

0.000000000000000e+00 3.662999296232398e+01 xlo xhi
0.000000000000000e+00 3.662999296232398e+01 ylo yhi
0.000000000000000e+00 1.079521302360000e+02 zlo zhi

Masses

1 15.9994 # O
2 1.008 # H1
3 1.008 # H2
4 22.9898 # Na
5 35.453 # Cl
6 196.966553 # Au1
7 196.966553 # Au2

Pair Coeffs # lj/cut/coul/long

1 0.15540152963671128 3.166 # O / SPC
2 0.0 0.0  # H1 / SPC
3 0.0 0.0  # H2 / SPC
4 0.09999999999999999 2.584 # Na
5 0.09999999999999999 4.401 # Cl
6 5.29 2.951 # Au1
7 5.29 2.951 # Au2

Bond Coeffs # harmonic

1 450 0.9999965664194801
2 450 0.9999965664194801

Angle Coeffs # harmonic

1 55 109.46937551578806


Atoms # full

1 1 4 1.0 7.888691126451055e-01 4.808873587891468e-01 6.184365012625710e+01 0 0 0 # Na
2 1 4 1.0 1.835412151131666e+01 5.848250724373218e+00 6.953659504057974e+01 0 0 0 # Na
3 1 4 1.0 2.587969939847685e+01 3.732158454898740e+00 5.850549316268506e+01 0 0 0 # Na
4 1 4 1.0 1.283039078312206e+01 3.111666599086771e+01 6.055377918193447e+01 0 0 0 # Na
5 1 4 1.0 2.107033468122162e+01 1.452849393501345e+01 4.759648001617779e+01 0 0 0 # Na
6 1 4 1.0 2.934257411801980e+01 3.938720404746554e+00 4.068344389133687e+01 0 0 0 # Na
7 1 4 1.0 3.204985881831505e+01 2.454166645642371e+01 3.388382344828008e+01 0 0 0 # Na
8 1 4 1.0 2.924472769291944e+01 3.941179802569255e+00 4.511437038532059e+01 0 0 0 # Na
9 1 4 1.0 1.490369843478967e+01 1.497510316841087e+01 3.444622672767512e+01 0 0 0 # Na
10 1 4 1.0 2.456399747519948e+01 4.545979236469519e+00 6.274834453899615e+01 0 0 0 # Na
11 1 4 1.0 1.023536694601328e+01 9.009188404665844e+00 3.416970249820665e+01 0 0 0 # Na
12 1 4 1.0 8.808729106057871e-02 2.210703591405690e+01 2.655969813507605e+01 0 0 0 # Na
13 1 4 1.0 1.398755126673900e+01 8.229485304839880e+00 5.686341367236599e+01 0 0 0 # Na
14 1 4 1.0 2.018033015090928e+01 2.959816358387755e+01 5.577571407406871e+01 0 0 0 # Na
15 1 4 1.0 1.553029811895351e+00 1.966847883512207e+01 5.586981698906103e+01 0 0 0 # Na
16 1 4 1.0 2.611448567814103e+00 1.198935202723139e+01 3.103620644000165e+01 0 0 0 # Na
17 1 4 1.0 1.009594337155220e+01 2.433394415964787e+01 2.518159853322057e+01 0 0 0 # Na
18 1 4 1.0 1.252171489781482e+01 1.999197641186246e+01 6.114726448001640e+01 0 0 0 # Na
19 1 4 1.0 2.892152775919373e+01 3.104874327286294e+01 4.869728577822146e+01 0 0 0 # Na
20 1 4 1.0 3.464240683430503e+01 1.720646688088965e+00 6.979954678487474e+01 0 0 0 # Na
21 1 4 1.0 2.542592180553061e+01 1.343687647076385e+01 6.473401151716266e+01 0 0 0 # Na
22 1 4 1.0 4.892755851037357e-01 2.795985580150283e+01 5.375661525657920e+01 0 0 0 # Na
23 1 4 1.0 2.641560974325133e+01 9.166514983002967e+00 3.605087672724316e+01 0 0 0 # Na
24 1 4 1.0 9.870208791486347e+00 2.061397903970664e+01 3.521780546333591e+01 0 0 0 # Na
25 1 4 1.0 1.707620211163087e+01 2.043914767901464e+01 3.503506120429420e+01 0 0 0 # Na
26 1 4 1.0 8.244792929839354e+00 8.313800817836832e-01 5.712416963281908e+01 0 0 0 # Na
27 1 4 1.0 3.442438667645342e+01 1.826893947487416e+01 3.908206242123958e+01 0 0 0 # Na
28 1 4 1.0 2.281349166709126e+01 2.914561110158487e+01 3.695326461637290e+01 0 0 0 # Na
29 1 4 1.0 7.866397338841169e+00 3.155309939917214e+01 4.692625860618229e+01 0 0 0 # Na
30 1 4 1.0 3.262614815939906e+01 2.880721067455371e+00 3.534101336859072e+01 0 0 0 # Na
31 1 4 1.0 1.826555274225588e+01 1.037747125268765e+01 2.480395398912038e+01 0 0 0 # Na
32 1 4 1.0 1.734464668949422e+00 1.461006175683295e+01 4.176268890938401e+01 0 0 0 # Na
33 1 4 1.0 2.842133857430514e+01 2.217343866411029e+01 2.529706110446597e+01 0 0 0 # Na
34 1 4 1.0 2.210702278175599e+01 1.297543381406236e+00 2.897940464910285e+01 0 0 0 # Na
35 1 4 1.0 3.213570018238281e+01 2.813193556456343e+01 5.995974894234378e+01 0 0 0 # Na
36 1 4 1.0 1.765233324564777e+01 1.375573124819485e+01 5.066084834012884e+01 0 0 0 # Na
37 1 4 1.0 7.613425179881663e+00 3.530182015336111e+01 4.421425167305831e+01 0 0 0 # Na
38 1 4 1.0 1.275339863792666e+01 9.226618278018904e+00 6.538656883581140e+01 0 0 0 # Na
39 1 4 1.0 1.442616471400638e-01 1.027562659722697e+01 4.830809021746555e+01 0 0 0 # Na
40 2 5 -1.0 2.708918867538175e+01 3.233548987013741e+00 6.718670608275929e+01 0 0 0 # Cl
41 2 5 -1.0 3.597737261960855e+01 2.465770381832158e+01 3.065277668686263e+01 0 0 0 # Cl
42 2 5 -1.0 3.002546906403798e+01 1.858550574825139e+01 3.600348042142345e+01 0 0 0 # Cl
43 2 5 -1.0 3.482021852591599e+01 2.023605418359154e+01 6.298982181890735e+01 0 0 0 # Cl
44 2 5 -1.0 2.853720351740654e+01 3.524174415271750e+01 4.594593059849034e+01 0 0 0 # Cl
45 2 5 -1.0 1.760937158440133e+01 2.511245668963869e+01 5.665699710839639e+01 0 0 0 # Cl
46 2 5 -1.0 6.111435458509259e+00 3.333561819324354e+01 4.583226830475274e+01 0 0 0 # Cl
47 2 5 -1.0 2.449077567797470e+01 1.409389718587456e+01 6.918803076770861e+01 0 0 0 # Cl
48 2 5 -1.0 1.004471536872446e+01 1.818719321781140e+01 6.803661878194160e+01 0 0 0 # Cl
49 2 5 -1.0 2.362352284337576e+01 7.596644736039628e-01 3.422614072221593e+01 0 0 0 # Cl
50 2 5 -1.0 1.933562677261605e+01 4.596922754352235e+00 6.129445220582150e+01 0 0 0 # Cl
51 2 5 -1.0 3.534956106646260e+00 2.941419553332645e+01 4.655208705398628e+01 0 0 0 # Cl
52 2 5 -1.0 1.466420956173034e+01 1.378790255201688e+01 4.316095785956772e+01 0 0 0 # Cl
53 2 5 -1.0 3.292692390231483e+00 9.927845801110527e+00 6.533876581191261e+01 0 0 0 # Cl
54 2 5 -1.0 3.353570455238982e+01 1.912489918103307e+01 5.547633702847659e+01 0 0 0 # Cl
55 2 5 -1.0 2.796326266040532e+01 2.769450350069785e+01 6.278569449680130e+01 0 0 0 # Cl
56 2 5 -1.0 3.162623403726334e+01 5.481251144669316e+00 4.076207551792854e+01 0 0 0 # Cl
57 2 5 -1.0 3.531815534164869e+01 5.670126816973610e+00 6.224447516043129e+01 0 0 0 # Cl
58 2 5 -1.0 1.516614724968061e+01 8.922195227428206e+00 3.458237453086026e+01 0 0 0 # Cl
59 2 5 -1.0 2.985748766064655e+01 1.289059088232331e+01 4.256508168101428e+01 0 0 0 # Cl
60 2 5 -1.0 1.673112644603391e+01 2.383739704993607e+01 4.788042695079231e+01 0 0 0 # Cl
61 2 5 -1.0 1.220592911332820e+01 8.498321261300198e+00 4.810297052748283e+01 0 0 0 # Cl
62 2 5 -1.0 7.933130854167976e+00 3.114640285254776e+01 6.586492684132189e+01 0 0 0 # Cl
63 2 5 -1.0 6.366467135089419e+00 1.579622027542650e+00 5.956728972732210e+01 0 0 0 # Cl
64 2 5 -1.0 2.024026822978760e+01 3.257630497263552e+00 2.771232029061840e+01 0 0 0 # Cl
65 2 5 -1.0 1.136200584475940e+01 1.623293009727998e+01 3.187745094985094e+01 0 0 0 # Cl
66 2 5 -1.0 2.192675452504183e+01 2.198219245094207e+01 6.720526803037401e+01 0 0 0 # Cl
67 2 5 -1.0 2.217891356527144e+01 9.088055330615893e+00 3.295064828310459e+01 0 0 0 # Cl
68 2 5 -1.0 1.898252591416886e+00 1.632532394914141e+01 4.512899396592705e+01 0 0 0 # Cl
69 2 5 -1.0 6.462321577613745e+00 1.256483905156500e+01 4.101621462770013e+01 0 0 0 # Cl
70 2 5 -1.0 2.831869423009951e+01 4.495968633321141e+00 3.797196980883342e+01 0 0 0 # Cl
71 2 5 -1.0 1.522625109491929e+01 1.461122837491095e+01 6.696964809390340e+01 0 0 0 # Cl
72 2 5 -1.0 3.171173491175700e+01 1.379699541568765e+01 5.080303187848574e+01 0 0 0 # Cl
73 2 5 -1.0 2.656121191639760e+01 3.453755528999005e+01 5.131413868831405e+01 0 0 0 # Cl
74 2 5 -1.0 2.659782486822284e+01 6.894203666054690e+00 5.842329560344124e+01 0 0 0 # Cl
75 2 5 -1.0 1.179605905891393e+01 2.114956452663810e+01 2.820712530688277e+01 0 0 0 # Cl
76 2 5 -1.0 1.002348963179506e+01 2.940617973098532e+01 5.598555688497299e+01 0 0 0 # Cl
77 2 5 -1.0 3.182481119327501e+01 2.851099093074281e+01 5.373692368317389e+01 0 0 0 # Cl
78 2 5 -1.0 1.658629635490610e+01 3.592884331720487e+01 6.468822631726947e+01 0 0 0 # Cl
79 3 6 0.0 0.000000000000000e+00 0.000000000000000e+00 3.910922106147262e+00 0 0 0 # Au1
80 3 6 0.0 0.000000000000000e+00 0.000000000000000e+00 7.980921324230533e+00 0 0 0 # Au1
81 3 6 0.0 0.000000000000000e+00 0.000000000000000e+00 1.205092054226046e+01 0 0 0 # Au1
82 3 6 0.0 0.000000000000000e+00 0.000000000000000e+00 1.612091976029062e+01 0 0 0 # Au1
83 3 6 0.0 0.000000000000000e+00 0.000000000000000e+00 2.019091897832090e+01 0 0 0 # Au1
84 3 6 0.0 0.000000000000000e+00 4.069999218035409e+00 3.910922106147262e+00 0 0 0 # Au1
85 3 6 0.0 0.000000000000000e+00 4.069999218035409e+00 7.980921324230533e+00 0 0 0 # Au1
86 3 6 0.0 0.000000000000000e+00 4.069999218035409e+00 1.205092054226046e+01 0 0 0 # Au1
87 3 6 0.0 0.000000000000000e+00 4.069999218035409e+00 1.612091976029062e+01 0 0 0 # Au1
88 3 6 0.0 0.000000000000000e+00 4.069999218035409e+00 2.019091897832090e+01 0 0 0 # Au1
89 3 6 0.0 0.000000000000000e+00 8.139998436060235e+00 3.910922106147262e+00 0 0 0 # Au1
90 3 6 0.0 0.000000000000000e+00 8.139998436060235e+00 7.980921324230533e+00 0 0 0 # Au1
91 3 6 0.0 0.000000000000000e+00 8.139998436060235e+00 1.205092054226046e+01 0 0 0 # Au1
92 3 6 0.0 0.000000000000000e+00 8.139998436060235e+00 1.612091976029062e+01 0 0 0 # Au1
93 3 6 0.0 0.000000000000000e+00 8.139998436060235e+00 2.019091897832090e+01 0 0 0 # Au1
94 3 6 0.0 0.000000000000000e+00 1.220999765409035e+01 3.910922106147262e+00 0 0 0 # Au1
95 3 6 0.0 0.000000000000000e+00 1.220999765409035e+01 7.980921324230533e+00 0 0 0 # Au1
96 3 6 0.0 0.000000000000000e+00 1.220999765409035e+01 1.205092054226046e+01 0 0 0 # Au1
97 3 6 0.0 0.000000000000000e+00 1.220999765409035e+01 1.612091976029062e+01 0 0 0 # Au1
98 3 6 0.0 0.000000000000000e+00 1.220999765409035e+01 2.019091897832090e+01 0 0 0 # Au1
99 3 6 0.0 0.000000000000000e+00 1.627999687217339e+01 3.910922106147262e+00 0 0 0 # Au1
100 3 6 0.0 0.000000000000000e+00 1.627999687217339e+01 7.980921324230533e+00 0 0 0 # Au1
101 3 6 0.0 0.000000000000000e+00 1.627999687217339e+01 1.205092054226046e+01 0 0 0 # Au1
102 3 6 0.0 0.000000000000000e+00 1.627999687217339e+01 1.612091976029062e+01 0 0 0 # Au1
103 3 6 0.0 0.000000000000000e+00 1.627999687217339e+01 2.019091897832090e+01 0 0 0 # Au1
104 3 6 0.0 0.000000000000000e+00 2.034999609020350e+01 3.910922106147262e+00 0 0 0 # Au1
105 3 6 0.0 0.000000000000000e+00 2.034999609020350e+01 7.980921324230533e+00 0 0 0 # Au1
106 3 6 0.0 0.000000000000000e+00 2.034999609020350e+01 1.205092054226046e+01 0 0 0 # Au1
107 3 6 0.0 0.000000000000000e+00 2.034999609020350e+01 1.612091976029062e+01 0 0 0 # Au1
108 3 6 0.0 0.000000000000000e+00 2.034999609020350e+01 2.019091897832090e+01 0 0 0 # Au1
109 3 6 0.0 0.000000000000000e+00 2.441999530823362e+01 3.910922106147262e+00 0 0 0 # Au1
110 3 6 0.0 0.000000000000000e+00 2.441999530823362e+01 7.980921324230533e+00 0 0 0 # Au1
111 3 6 0.0 0.000000000000000e+00 2.441999530823362e+01 1.205092054226046e+01 0 0 0 # Au1
112 3 6 0.0 0.000000000000000e+00 2.441999530823362e+01 1.612091976029062e+01 0 0 0 # Au1
113 3 6 0.0 0.000000000000000e+00 2.441999530823362e+01 2.019091897832090e+01 0 0 0 # Au1
114 3 6 0.0 0.000000000000000e+00 2.848999452626374e+01 3.910922106147262e+00 0 0 0 # Au1
115 3 6 0.0 0.000000000000000e+00 2.848999452626374e+01 7.980921324230533e+00 0 0 0 # Au1
116 3 6 0.0 0.000000000000000e+00 2.848999452626374e+01 1.205092054226046e+01 0 0 0 # Au1
117 3 6 0.0 0.000000000000000e+00 2.848999452626374e+01 1.612091976029062e+01 0 0 0 # Au1
118 3 6 0.0 0.000000000000000e+00 2.848999452626374e+01 2.019091897832090e+01 0 0 0 # Au1
119 3 6 0.0 0.000000000000000e+00 3.255999374429386e+01 3.910922106147262e+00 0 0 0 # Au1
120 3 6 0.0 0.000000000000000e+00 3.255999374429386e+01 7.980921324230533e+00 0 0 0 # Au1
121 3 6 0.0 0.000000000000000e+00 3.255999374429386e+01 1.205092054226046e+01 0 0 0 # Au1
122 3 6 0.0 0.000000000000000e+00 3.255999374429386e+01 1.612091976029062e+01 0 0 0 # Au1
123 3 6 0.0 0.000000000000000e+00 3.255999374429386e+01 2.019091897832090e+01 0 0 0 # Au1
124 3 6 0.0 4.069999218035409e+00 0.000000000000000e+00 3.910922106147262e+00 0 0 0 # Au1
125 3 6 0.0 4.069999218035409e+00 0.000000000000000e+00 7.980921324230533e+00 0 0 0 # Au1
126 3 6 0.0 4.069999218035409e+00 0.000000000000000e+00 1.205092054226046e+01 0 0 0 # Au1
127 3 6 0.0 4.069999218035409e+00 0.000000000000000e+00 1.612091976029062e+01 0 0 0 # Au1
128 3 6 0.0 4.069999218035409e+00 0.000000000000000e+00 2.019091897832090e+01 0 0 0 # Au1
129 3 6 0.0 4.069999218035409e+00 4.069999218035409e+00 3.910922106147262e+00 0 0 0 # Au1
130 3 6 0.0 4.069999218035409e+00 4.069999218035409e+00 7.980921324230533e+00 0 0 0 # Au1
131 3 6 0.0 4.069999218035409e+00 4.069999218035409e+00 1.205092054226046e+01 0 0 0 # Au1
132 3 6 0.0 4.069999218035409e+00 4.069999218035409e+00 1.612091976029062e+01 0 0 0 # Au1
133 3 6 0.0 4.069999218035409e+00 4.069999218035409e+00 2.019091897832090e+01 0 0 0 # Au1
134 3 6 0.0 4.069999218035409e+00 8.139998436060235e+00 3.910922106147262e+00 0 0 0 # Au1
135 3 6 0.0 4.069999218035409e+00 8.139998436060235e+00 7.980921324230533e+00 0 0 0 # Au1
136 3 6 0.0 4.069999218035409e+00 8.139998436060235e+00 1.205092054226046e+01 0 0 0 # Au1
137 3 6 0.0 4.069999218035409e+00 8.139998436060235e+00 1.612091976029062e+01 0 0 0 # Au1
138 3 6 0.0 4.069999218035409e+00 8.139998436060235e+00 2.019091897832090e+01 0 0 0 # Au1
139 3 6 0.0 4.069999218035409e+00 1.220999765409035e+01 3.910922106147262e+00 0 0 0 # Au1
140 3 6 0.0 4.069999218035409e+00 1.220999765409035e+01 7.980921324230533e+00 0 0 0 # Au1
141 3 6 0.0 4.069999218035409e+00 1.220999765409035e+01 1.205092054226046e+01 0 0 0 # Au1
142 3 6 0.0 4.069999218035409e+00 1.220999765409035e+01 1.612091976029062e+01 0 0 0 # Au1
143 3 6 0.0 4.069999218035409e+00 1.220999765409035e+01 2.019091897832090e+01 0 0 0 # Au1
144 3 6 0.0 4.069999218035409e+00 1.627999687217339e+01 3.910922106147262e+00 0 0 0 # Au1
145 3 6 0.0 4.069999218035409e+00 1.627999687217339e+01 7.980921324230533e+00 0 0 0 # Au1
146 3 6 0.0 4.069999218035409e+00 1.627999687217339e+01 1.205092054226046e+01 0 0 0 # Au1
147 3 6 0.0 4.069999218035409e+00 1.627999687217339e+01 1.612091976029062e+01 0 0 0 # Au1
148 3 6 0.0 4.069999218035409e+00 1.627999687217339e+01 2.019091897832090e+01 0 0 0 # Au1
149 3 6 0.0 4.069999218035409e+00 2.034999609020350e+01 3.910922106147262e+00 0 0 0 # Au1
150 3 6 0.0 4.069999218035409e+00 2.034999609020350e+01 7.980921324230533e+00 0 0 0 # Au1
151 3 6 0.0 4.069999218035409e+00 2.034999609020350e+01 1.205092054226046e+01 0 0 0 # Au1
152 3 6 0.0 4.069999218035409e+00 2.034999609020350e+01 1.612091976029062e+01 0 0 0 # Au1
153 3 6 0.0 4.069999218035409e+00 2.034999609020350e+01 2.019091897832090e+01 0 0 0 # Au1
154 3 6 0.0 4.069999218035409e+00 2.441999530823362e+01 3.910922106147262e+00 0 0 0 # Au1
155 3 6 0.0 4.069999218035409e+00 2.441999530823362e+01 7.980921324230533e+00 0 0 0 # Au1
156 3 6 0.0 4.069999218035409e+00 2.441999530823362e+01 1.205092054226046e+01 0 0 0 # Au1
157 3 6 0.0 4.069999218035409e+00 2.441999530823362e+01 1.612091976029062e+01 0 0 0 # Au1
158 3 6 0.0 4.069999218035409e+00 2.441999530823362e+01 2.019091897832090e+01 0 0 0 # Au1
159 3 6 0.0 4.069999218035409e+00 2.848999452626374e+01 3.910922106147262e+00 0 0 0 # Au1
160 3 6 0.0 4.069999218035409e+00 2.848999452626374e+01 7.980921324230533e+00 0 0 0 # Au1
161 3 6 0.0 4.069999218035409e+00 2.848999452626374e+01 1.205092054226046e+01 0 0 0 # Au1
162 3 6 0.0 4.069999218035409e+00 2.848999452626374e+01 1.612091976029062e+01 0 0 0 # Au1
163 3 6 0.0 4.069999218035409e+00 2.848999452626374e+01 2.019091897832090e+01 0 0 0 # Au1
164 3 6 0.0 4.069999218035409e+00 3.255999374429386e+01 3.910922106147262e+00 0 0 0 # Au1
165 3 6 0.0 4.069999218035409e+00 3.255999374429386e+01 7.980921324230533e+00 0 0 0 # Au1
166 3 6 0.0 4.069999218035409e+00 3.255999374429386e+01 1.205092054226046e+01 0 0 0 # Au1
167 3 6 0.0 4.069999218035409e+00 3.255999374429386e+01 1.612091976029062e+01 0 0 0 # Au1
168 3 6 0.0 4.069999218035409e+00 3.255999374429386e+01 2.019091897832090e+01 0 0 0 # Au1
169 3 6 0.0 8.139998436060235e+00 0.000000000000000e+00 3.910922106147262e+00 0 0 0 # Au1
170 3 6 0.0 8.139998436060235e+00 0.000000000000000e+00 7.980921324230533e+00 0 0 0 # Au1
171 3 6 0.0 8.139998436060235e+00 0.000000000000000e+00 1.205092054226046e+01 0 0 0 # Au1
172 3 6 0.0 8.139998436060235e+00 0.000000000000000e+00 1.612091976029062e+01 0 0 0 # Au1
173 3 6 0.0 8.139998436060235e+00 0.000000000000000e+00 2.019091897832090e+01 0 0 0 # Au1
174 3 6 0.0 8.139998436060235e+00 4.069999218035409e+00 3.910922106147262e+00 0 0 0 # Au1
175 3 6 0.0 8.139998436060235e+00 4.069999218035409e+00 7.980921324230533e+00 0 0 0 # Au1
176 3 6 0.0 8.139998436060235e+00 4.069999218035409e+00 1.205092054226046e+01 0 0 0 # Au1
177 3 6 0.0 8.139998436060235e+00 4.069999218035409e+00 1.612091976029062e+01 0 0 0 # Au1
178 3 6 0.0 8.139998436060235e+00 4.069999218035409e+00 2.019091897832090e+01 0 0 0 # Au1
179 3 6 0.0 8.139998436060235e+00 8.139998436060235e+00 3.910922106147262e+00 0 0 0 # Au1
180 3 6 0.0 8.139998436060235e+00 8.139998436060235e+00 7.980921324230533e+00 0 0 0 # Au1
181 3 6 0.0 8.139998436060235e+00 8.139998436060235e+00 1.205092054226046e+01 0 0 0 # Au1
182 3 6 0.0 8.139998436060235e+00 8.139998436060235e+00 1.612091976029062e+01 0 0 0 # Au1
183 3 6 0.0 8.139998436060235e+00 8.139998436060235e+00 2.019091897832090e+01 0 0 0 # Au1
184 3 6 0.0 8.139998436060235e+00 1.220999765409035e+01 3.910922106147262e+00 0 0 0 # Au1
185 3 6 0.0 8.139998436060235e+00 1.220999765409035e+01 7.980921324230533e+00 0 0 0 # Au1
186 3 6 0.0 8.139998436060235e+00 1.220999765409035e+01 1.205092054226046e+01 0 0 0 # Au1
187 3 6 0.0 8.139998436060235e+00 1.220999765409035e+01 1.612091976029062e+01 0 0 0 # Au1
188 3 6 0.0 8.139998436060235e+00 1.220999765409035e+01 2.019091897832090e+01 0 0 0 # Au1
189 3 6 0.0 8.139998436060235e+00 1.627999687217339e+01 3.910922106147262e+00 0 0 0 # Au1
190 3 6 0.0 8.139998436060235e+00 1.627999687217339e+01 7.980921324230533e+00 0 0 0 # Au1
191 3 6 0.0 8.139998436060235e+00 1.627999687217339e+01 1.205092054226046e+01 0 0 0 # Au1
192 3 6 0.0 8.139998436060235e+00 1.627999687217339e+01 1.612091976029062e+01 0 0 0 # Au1
193 3 6 0.0 8.139998436060235e+00 1.627999687217339e+01 2.019091897832090e+01 0 0 0 # Au1
194 3 6 0.0 8.139998436060235e+00 2.034999609020350e+01 3.910922106147262e+00 0 0 0 # Au1
195 3 6 0.0 8.139998436060235e+00 2.034999609020350e+01 7.980921324230533e+00 0 0 0 # Au1
196 3 6 0.0 8.139998436060235e+00 2.034999609020350e+01 1.205092054226046e+01 0 0 0 # Au1
197 3 6 0.0 8.139998436060235e+00 2.034999609020350e+01 1.612091976029062e+01 0 0 0 # Au1
198 3 6 0.0 8.139998436060235e+00 2.034999609020350e+01 2.019091897832090e+01 0 0 0 # Au1
199 3 6 0.0 8.139998436060235e+00 2.441999530823362e+01 3.910922106147262e+00 0 0 0 # Au1
200 3 6 0.0 8.139998436060235e+00 2.441999530823362e+01 7.980921324230533e+00 0 0 0 # Au1
201 3 6 0.0 8.139998436060235e+00 2.441999530823362e+01 1.205092054226046e+01 0 0 0 # Au1
202 3 6 0.0 8.139998436060235e+00 2.441999530823362e+01 1.612091976029062e+01 0 0 0 # Au1
203 3 6 0.0 8.139998436060235e+00 2.441999530823362e+01 2.019091897832090e+01 0 0 0 # Au1
204 3 6 0.0 8.139998436060235e+00 2.848999452626374e+01 3.910922106147262e+00 0 0 0 # Au1
205 3 6 0.0 8.139998436060235e+00 2.848999452626374e+01 7.980921324230533e+00 0 0 0 # Au1
206 3 6 0.0 8.139998436060235e+00 2.848999452626374e+01 1.205092054226046e+01 0 0 0 # Au1
207 3 6 0.0 8.139998436060235e+00 2.848999452626374e+01 1.612091976029062e+01 0 0 0 # Au1
208 3 6 0.0 8.139998436060235e+00 2.848999452626374e+01 2.019091897832090e+01 0 0 0 # Au1
209 3 6 0.0 8.139998436060235e+00 3.255999374429386e+01 3.910922106147262e+00 0 0 0 # Au1
210 3 6 0.0 8.139998436060235e+00 3.255999374429386e+01 7.980921324230533e+00 0 0 0 # Au1
211 3 6 0.0 8.139998436060235e+00 3.255999374429386e+01 1.205092054226046e+01 0 0 0 # Au1
212 3 6 0.0 8.139998436060235e+00 3.255999374429386e+01 1.612091976029062e+01 0 0 0 # Au1
213 3 6 0.0 8.139998436060235e+00 3.255999374429386e+01 2.019091897832090e+01 0 0 0 # Au1
214 3 6 0.0 1.220999765409035e+01 0.000000000000000e+00 3.910922106147262e+00 0 0 0 # Au1
215 3 6 0.0 1.220999765409035e+01 0.000000000000000e+00 7.980921324230533e+00 0 0 0 # Au1
216 3 6 0.0 1.220999765409035e+01 0.000000000000000e+00 1.205092054226046e+01 0 0 0 # Au1
217 3 6 0.0 1.220999765409035e+01 0.000000000000000e+00 1.612091976029062e+01 0 0 0 # Au1
218 3 6 0.0 1.220999765409035e+01 0.000000000000000e+00 2.019091897832090e+01 0 0 0 # Au1
219 3 6 0.0 1.220999765409035e+01 4.069999218035409e+00 3.910922106147262e+00 0 0 0 # Au1
220 3 6 0.0 1.220999765409035e+01 4.069999218035409e+00 7.980921324230533e+00 0 0 0 # Au1
221 3 6 0.0 1.220999765409035e+01 4.069999218035409e+00 1.205092054226046e+01 0 0 0 # Au1
222 3 6 0.0 1.220999765409035e+01 4.069999218035409e+00 1.612091976029062e+01 0 0 0 # Au1
223 3 6 0.0 1.220999765409035e+01 4.069999218035409e+00 2.019091897832090e+01 0 0 0 # Au1
224 3 6 0.0 1.220999765409035e+01 8.139998436060235e+00 3.910922106147262e+00 0 0 0 # Au1
225 3 6 0.0 1.220999765409035e+01 8.139998436060235e+00 7.980921324230533e+00 0 0 0 # Au1
226 3 6 0.0 1.220999765409035e+01 8.139998436060235e+00 1.205092054226046e+01 0 0 0 # Au1
227 3 6 0.0 1.220999765409035e+01 8.139998436060235e+00 1.612091976029062e+01 0 0 0 # Au1
228 3 6 0.0 1.220999765409035e+01 8.139998436060235e+00 2.019091897832090e+01 0 0 0 # Au1
229 3 6 0.0 1.220999765409035e+01 1.220999765409035e+01 3.910922106147262e+00 0 0 0 # Au1
230 3 6 0.0 1.220999765409035e+01 1.220999765409035e+01 7.980921324230533e+00 0 0 0 # Au1
231 3 6 0.0 1.220999765409035e+01 1.220999765409035e+01 1.205092054226046e+01 0 0 0 # Au1
232 3 6 0.0 1.220999765409035e+01 1.220999765409035e+01 1.612091976029062e+01 0 0 0 # Au1
233 3 6 0.0 1.220999765409035e+01 1.220999765409035e+01 2.019091897832090e+01 0 0 0 # Au1
234 3 6 0.0 1.220999765409035e+01 1.627999687217339e+01 3.910922106147262e+00 0 0 0 # Au1
235 3 6 0.0 1.220999765409035e+01 1.627999687217339e+01 7.980921324230533e+00 0 0 0 # Au1
236 3 6 0.0 1.220999765409035e+01 1.627999687217339e+01 1.205092054226046e+01 0 0 0 # Au1
237 3 6 0.0 1.220999765409035e+01 1.627999687217339e+01 1.612091976029062e+01 0 0 0 # Au1
238 3 6 0.0 1.220999765409035e+01 1.627999687217339e+01 2.019091897832090e+01 0 0 0 # Au1
239 3 6 0.0 1.220999765409035e+01 2.034999609020350e+01 3.910922106147262e+00 0 0 0 # Au1
240 3 6 0.0 1.220999765409035e+01 2.034999609020350e+01 7.980921324230533e+00 0 0 0 # Au1
241 3 6 0.0 1.220999765409035e+01 2.034999609020350e+01 1.205092054226046e+01 0 0 0 # Au1
242 3 6 0.0 1.220999765409035e+01 2.034999609020350e+01 1.612091976029062e+01 0 0 0 # Au1
243 3 6 0.0 1.220999765409035e+01 2.034999609020350e+01 2.019091897832090e+01 0 0 0 # Au1
244 3 6 0.0 1.220999765409035e+01 2.441999530823362e+01 3.910922106147262e+00 0 0 0 # Au1
245 3 6 0.0 1.220999765409035e+01 2.441999530823362e+01 7.980921324230533e+00 0 0 0 # Au1
246 3 6 0.0 1.220999765409035e+01 2.441999530823362e+01 1.205092054226046e+01 0 0 0 # Au1
247 3 6 0.0 1.220999765409035e+01 2.441999530823362e+01 1.612091976029062e+01 0 0 0 # Au1
248 3 6 0.0 1.220999765409035e+01 2.441999530823362e+01 2.019091897832090e+01 0 0 0 # Au1
249 3 6 0.0 1.220999765409035e+01 2.848999452626374e+01 3.910922106147262e+00 0 0 0 # Au1
250 3 6 0.0 1.220999765409035e+01 2.848999452626374e+01 7.980921324230533e+00 0 0 0 # Au1
251 3 6 0.0 1.220999765409035e+01 2.848999452626374e+01 1.205092054226046e+01 0 0 0 # Au1
252 3 6 0.0 1.220999765409035e+01 2.848999452626374e+01 1.612091976029062e+01 0 0 0 # Au1
253 3 6 0.0 1.220999765409035e+01 2.848999452626374e+01 2.019091897832090e+01 0 0 0 # Au1
254 3 6 0.0 1.220999765409035e+01 3.255999374429386e+01 3.910922106147262e+00 0 0 0 # Au1
255 3 6 0.0 1.220999765409035e+01 3.255999374429386e+01 7.980921324230533e+00 0 0 0 # Au1
256 3 6 0.0 1.220999765409035e+01 3.255999374429386e+01 1.205092054226046e+01 0 0 0 # Au1
257 3 6 0.0 1.220999765409035e+01 3.255999374429386e+01 1.612091976029062e+01 0 0 0 # Au1
258 3 6 0.0 1.220999765409035e+01 3.255999374429386e+01 2.019091897832090e+01 0 0 0 # Au1
259 3 6 0.0 1.627999687217339e+01 0.000000000000000e+00 3.910922106147262e+00 0 0 0 # Au1
260 3 6 0.0 1.627999687217339e+01 0.000000000000000e+00 7.980921324230533e+00 0 0 0 # Au1
261 3 6 0.0 1.627999687217339e+01 0.000000000000000e+00 1.205092054226046e+01 0 0 0 # Au1
262 3 6 0.0 1.627999687217339e+01 0.000000000000000e+00 1.612091976029062e+01 0 0 0 # Au1
263 3 6 0.0 1.627999687217339e+01 0.000000000000000e+00 2.019091897832090e+01 0 0 0 # Au1
264 3 6 0.0 1.627999687217339e+01 4.069999218035409e+00 3.910922106147262e+00 0 0 0 # Au1
265 3 6 0.0 1.627999687217339e+01 4.069999218035409e+00 7.980921324230533e+00 0 0 0 # Au1
266 3 6 0.0 1.627999687217339e+01 4.069999218035409e+00 1.205092054226046e+01 0 0 0 # Au1
267 3 6 0.0 1.627999687217339e+01 4.069999218035409e+00 1.612091976029062e+01 0 0 0 # Au1
268 3 6 0.0 1.627999687217339e+01 4.069999218035409e+00 2.019091897832090e+01 0 0 0 # Au1
269 3 6 0.0 1.627999687217339e+01 8.139998436060235e+00 3.910922106147262e+00 0 0 0 # Au1
270 3 6 0.0 1.627999687217339e+01 8.139998436060235e+00 7.980921324230533e+00 0 0 0 # Au1
271 3 6 0.0 1.627999687217339e+01 8.139998436060235e+00 1.205092054226046e+01 0 0 0 # Au1
272 3 6 0.0 1.627999687217339e+01 8.139998436060235e+00 1.612091976029062e+01 0 0 0 # Au1
273 3 6 0.0 1.627999687217339e+01 8.139998436060235e+00 2.019091897832090e+01 0 0 0 # Au1
274 3 6 0.0 1.627999687217339e+01 1.220999765409035e+01 3.910922106147262e+00 0 0 0 # Au1
275 3 6 0.0 1.627999687217339e+01 1.220999765409035e+01 7.980921324230533e+00 0 0 0 # Au1
276 3 6 0.0 1.627999687217339e+01 1.220999765409035e+01 1.205092054226046e+01 0 0 0 # Au1
277 3 6 0.0 1.627999687217339e+01 1.220999765409035e+01 1.612091976029062e+01 0 0 0 # Au1
278 3 6 0.0 1.627999687217339e+01 1.220999765409035e+01 2.019091897832090e+01 0 0 0 # Au1
279 3 6 0.0 1.627999687217339e+01 1.627999687217339e+01 3.910922106147262e+00 0 0 0 # Au1
280 3 6 0.0 1.627999687217339e+01 1.627999687217339e+01 7.980921324230533e+00 0 0 0 # Au1
281 3 6 0.0 1.627999687217339e+01 1.627999687217339e+01 1.205092054226046e+01 0 0 0 # Au1
282 3 6 0.0 1.627999687217339e+01 1.627999687217339e+01 1.612091976029062e+01 0 0 0 # Au1
283 3 6 0.0 1.627999687217339e+01 1.627999687217339e+01 2.019091897832090e+01 0 0 0 # Au1
284 3 6 0.0 1.627999687217339e+01 2.034999609020350e+01 3.910922106147262e+00 0 0 0 # Au1
285 3 6 0.0 1.627999687217339e+01 2.034999609020350e+01 7.980921324230533e+00 0 0 0 # Au1
286 3 6 0.0 1.627999687217339e+01 2.034999609020350e+01 1.205092054226046e+01 0 0 0 # Au1
287 3 6 0.0 1.627999687217339e+01 2.034999609020350e+01 1.612091976029062e+01 0 0 0 # Au1
288 3 6 0.0 1.627999687217339e+01 2.034999609020350e+01 2.019091897832090e+01 0 0 0 # Au1
289 3 6 0.0 1.627999687217339e+01 2.441999530823362e+01 3.910922106147262e+00 0 0 0 # Au1
290 3 6 0.0 1.627999687217339e+01 2.441999530823362e+01 7.980921324230533e+00 0 0 0 # Au1
291 3 6 0.0 1.627999687217339e+01 2.441999530823362e+01 1.205092054226046e+01 0 0 0 # Au1
292 3 6 0.0 1.627999687217339e+01 2.441999530823362e+01 1.612091976029062e+01 0 0 0 # Au1
293 3 6 0.0 1.627999687217339e+01 2.441999530823362e+01 2.019091897832090e+01 0 0 0 # Au1
294 3 6 0.0 1.627999687217339e+01 2.848999452626374e+01 3.910922106147262e+00 0 0 0 # Au1
295 3 6 0.0 1.627999687217339e+01 2.848999452626374e+01 7.980921324230533e+00 0 0 0 # Au1
296 3 6 0.0 1.627999687217339e+01 2.848999452626374e+01 1.205092054226046e+01 0 0 0 # Au1
297 3 6 0.0 1.627999687217339e+01 2.848999452626374e+01 1.612091976029062e+01 0 0 0 # Au1
298 3 6 0.0 1.627999687217339e+01 2.848999452626374e+01 2.019091897832090e+01 0 0 0 # Au1
299 3 6 0.0 1.627999687217339e+01 3.255999374429386e+01 3.910922106147262e+00 0 0 0 # Au1
300 3 6 0.0 1.627999687217339e+01 3.255999374429386e+01 7.980921324230533e+00 0 0 0 # Au1
301 3 6 0.0 1.627999687217339e+01 3.255999374429386e+01 1.205092054226046e+01 0 0 0 # Au1
302 3 6 0.0 1.627999687217339e+01 3.255999374429386e+01 1.612091976029062e+01 0 0 0 # Au1
303 3 6 0.0 1.627999687217339e+01 3.255999374429386e+01 2.019091897832090e+01 0 0 0 # Au1
304 3 6 0.0 2.034999609020350e+01 0.000000000000000e+00 3.910922106147262e+00 0 0 0 # Au1
305 3 6 0.0 2.034999609020350e+01 0.000000000000000e+00 7.980921324230533e+00 0 0 0 # Au1
306 3 6 0.0 2.034999609020350e+01 0.000000000000000e+00 1.205092054226046e+01 0 0 0 # Au1
307 3 6 0.0 2.034999609020350e+01 0.000000000000000e+00 1.612091976029062e+01 0 0 0 # Au1
308 3 6 0.0 2.034999609020350e+01 0.000000000000000e+00 2.019091897832090e+01 0 0 0 # Au1
309 3 6 0.0 2.034999609020350e+01 4.069999218035409e+00 3.910922106147262e+00 0 0 0 # Au1
310 3 6 0.0 2.034999609020350e+01 4.069999218035409e+00 7.980921324230533e+00 0 0 0 # Au1
311 3 6 0.0 2.034999609020350e+01 4.069999218035409e+00 1.205092054226046e+01 0 0 0 # Au1
312 3 6 0.0 2.034999609020350e+01 4.069999218035409e+00 1.612091976029062e+01 0 0 0 # Au1
313 3 6 0.0 2.034999609020350e+01 4.069999218035409e+00 2.019091897832090e+01 0 0 0 # Au1
314 3 6 0.0 2.034999609020350e+01 8.139998436060235e+00 3.910922106147262e+00 0 0 0 # Au1
315 3 6 0.0 2.034999609020350e+01 8.139998436060235e+00 7.980921324230533e+00 0 0 0 # Au1
316 3 6 0.0 2.034999609020350e+01 8.139998436060235e+00 1.205092054226046e+01 0 0 0 # Au1
317 3 6 0.0 2.034999609020350e+01 8.139998436060235e+00 1.612091976029062e+01 0 0 0 # Au1
318 3 6 0.0 2.034999609020350e+01 8.139998436060235e+00 2.019091897832090e+01 0 0 0 # Au1
319 3 6 0.0 2.034999609020350e+01 1.220999765409035e+01 3.910922106147262e+00 0 0 0 # Au1
320 3 6 0.0 2.034999609020350e+01 1.220999765409035e+01 7.980921324230533e+00 0 0 0 # Au1
321 3 6 0.0 2.034999609020350e+01 1.220999765409035e+01 1.205092054226046e+01 0 0 0 # Au1
322 3 6 0.0 2.034999609020350e+01 1.220999765409035e+01 1.612091976029062e+01 0 0 0 # Au1
323 3 6 0.0 2.034999609020350e+01 1.220999765409035e+01 2.019091897832090e+01 0 0 0 # Au1
324 3 6 0.0 2.034999609020350e+01 1.627999687217339e+01 3.910922106147262e+00 0 0 0 # Au1
325 3 6 0.0 2.034999609020350e+01 1.627999687217339e+01 7.980921324230533e+00 0 0 0 # Au1
326 3 6 0.0 2.034999609020350e+01 1.627999687217339e+01 1.205092054226046e+01 0 0 0 # Au1