LAMMPS (24 Mar 2022)
# electrodes with constant potential using finite field
# for z-periodic gold-saline electrochemical cell

boundary p p p # ffield uses periodic z-boundary and no slab
include settings.mod # styles, groups, computes and fixes
units real
# distribute electrode atoms among all processors:
if "$(extract_setting(world_size) % 2) == 0" then "processors * * 2"

atom_style full
pair_style lj/cut/coul/long 15
bond_style harmonic
angle_style harmonic
kspace_style pppm/electrode 1e-7

read_data "data.au-aq"
Reading data file ...
  orthogonal box = (0 0 0) to (36.629993 36.629993 107.95213)
  1 by 1 by 1 MPI processor grid
  reading atoms ...
  9798 atoms
  reading velocities ...
  9798 velocities
  scanning bonds ...
  2 = max bonds/atom
  scanning angles ...
  1 = max angles/atom
  reading bonds ...
  4320 bonds
  reading angles ...
  2160 angles
Finding 1-2 1-3 1-4 neighbors ...
  special bond factors lj:    0        0        0       
  special bond factors coul:  0        0        0       
     2 = max # of 1-2 neighbors
     1 = max # of 1-3 neighbors
     1 = max # of 1-4 neighbors
     2 = max # of special neighbors
  special bonds CPU = 0.002 seconds
  read_data CPU = 0.051 seconds

group bot type 6
1620 atoms in group bot
group top type 7
1620 atoms in group top

group SPC type 1 2 3
6480 atoms in group SPC
group electrolyte type 1 2 3 4 5
6558 atoms in group electrolyte

fix nvt electrolyte nvt temp 298.0 298.0 241
fix shake SPC shake 1e-4 20 0 b 1 2 a 1
       0 = # of size 2 clusters
       0 = # of size 3 clusters
       0 = # of size 4 clusters
    2160 = # of frozen angles
  find clusters CPU = 0.002 seconds

variable q atom q
variable qz atom q*(z-lz/2)
compute qtop top reduce sum v_q
compute qbot bot reduce sum v_q
compute qztop top reduce sum v_qz
compute qzbot bot reduce sum v_qz
compute ctemp electrolyte temp


fix conp bot electrode/conp -1.0 1.805132 couple top 1.0 symm on ffield yes etypes 6*7
3240 atoms in group conp_group

thermo 50
thermo_style custom step temp c_ctemp epair etotal c_qtop c_qbot c_qztop c_qzbot
run 500
PPPM/electrode initialization ...
  using 12-bit tables for long-range coulomb (src/kspace.cpp:342)
  G vector (1/distance) = 0.24017705
  grid = 54 54 120
  stencil order = 5
  estimated absolute RMS force accuracy = 3.6312561e-05
  estimated relative force accuracy = 1.093542e-07
  using double precision MKL FFT
  3d grid and FFT values/proc = 472567 349920
  generated 21 of 21 mixed pair_coeff terms from geometric mixing rule
Neighbor list info ...
  update every 1 steps, delay 10 steps, check yes
  max neighbors/atom: 2000, page size: 100000
  master list distance cutoff = 17
  ghost atom cutoff = 17
  binsize = 8.5, bins = 5 5 13
  3 neighbor lists, perpetual/occasional/extra = 2 1 0
  (1) pair lj/cut/coul/long, perpetual
      attributes: half, newton on
      pair build: half/bin/newton
      stencil: half/bin/3d
      bin: standard
  (2) fix electrode/conp, occasional, skip from (1)
      attributes: half, newton on
      pair build: skip
      stencil: none
      bin: none
  (3) fix electrode/conp, perpetual, skip from (1)
      attributes: half, newton on
      pair build: skip
      stencil: none
      bin: none
Per MPI rank memory allocation (min/avg/max) = 194.6 | 194.6 | 194.6 Mbytes
   Step          Temp         c_ctemp         E_pair         TotEng         c_qtop         c_qbot        c_qztop        c_qzbot    
         0   171.61215      298.06731     -39212.819     -35306.164      4.1391573     -4.1391573      78.718381      131.56372    
        50   147.03139      255.37383     -39870.139     -36523.051      4.1312167     -4.1312167      78.563872      131.30255    
       100   149.89027      260.33932     -39878.859     -36466.689      4.0217834     -4.0217834      76.482548      127.82573    
       150   151.7382       263.54893     -39873.178     -36418.942      4.0469977     -4.0469977      76.967548      128.59855    
       200   151.7508       263.57081     -39827.015     -36372.492      4.1830375     -4.1830375      79.554159      132.93925    
       250   152.61146      265.06566     -39791.293     -36317.177      4.1835865     -4.1835865      79.56665       132.97185    
       300   153.51486      266.63475     -39751.841     -36257.16       4.1571861     -4.1571861      79.061431      132.12905    
       350   156.35115      271.561       -39754.955     -36195.708      4.3498059     -4.3498059      82.720202      138.28678    
       400   156.26118      271.40474     -39690.781     -36133.582      4.3444079     -4.3444079      82.619396      138.11873    
       450   158.54164      275.36558     -39681.083     -36071.97       4.2020488     -4.2020488      79.912674      133.55185    
       500   161.40138      280.33258     -39684.185     -36009.972      4.3021924     -4.3021924      81.807527      136.7464     
Loop time of 246.197 on 1 procs for 500 steps with 9798 atoms

Performance: 0.175 ns/day, 136.776 hours/ns, 2.031 timesteps/s
356.3% CPU use with 1 MPI tasks x no OpenMP threads

MPI task timing breakdown:
Section |  min time  |  avg time  |  max time  |%varavg| %total
---------------------------------------------------------------
Pair    | 105.64     | 105.64     | 105.64     |   0.0 | 42.91
Bond    | 0.0010592  | 0.0010592  | 0.0010592  |   0.0 |  0.00
Kspace  | 37.643     | 37.643     | 37.643     |   0.0 | 15.29
Neigh   | 5.8827     | 5.8827     | 5.8827     |   0.0 |  2.39
Comm    | 0.18181    | 0.18181    | 0.18181    |   0.0 |  0.07
Output  | 0.0055762  | 0.0055762  | 0.0055762  |   0.0 |  0.00
Modify  | 96.78      | 96.78      | 96.78      |   0.0 | 39.31
Other   |            | 0.06346    |            |       |  0.03

Nlocal:           9798 ave        9798 max        9798 min
Histogram: 1 0 0 0 0 0 0 0 0 0
Nghost:          31695 ave       31695 max       31695 min
Histogram: 1 0 0 0 0 0 0 0 0 0
Neighs:    8.25614e+06 ave 8.25614e+06 max 8.25614e+06 min
Histogram: 1 0 0 0 0 0 0 0 0 0

Total # of neighbors = 8256142
Ave neighs/atom = 842.63544
Ave special neighs/atom = 1.3227189
Neighbor list builds = 22
Dangerous builds = 0
Total wall time: 0:19:39
