LAMMPS (3 Nov 2022)
# electrodes with constant potential using finite field
# for z-periodic gold-saline electrochemical cell

boundary p p p # ffield uses periodic z-boundary and no slab
include settings.mod # styles, groups, computes and fixes
units real
# distribute electrode atoms among all processors:
if "$(extract_setting(world_size) % 2) == 0" then "processors * * 2"
processors * * 2

atom_style full
pair_style lj/cut/coul/long 15
bond_style harmonic
angle_style harmonic
kspace_style pppm/electrode 1e-7

read_data "data.au-aq"
Reading data file ...
  orthogonal box = (0 0 0) to (36.629993 36.629993 107.95213)
  2 by 1 by 2 MPI processor grid
  reading atoms ...
  9798 atoms
  reading velocities ...
  9798 velocities
  scanning bonds ...
  2 = max bonds/atom
  scanning angles ...
  1 = max angles/atom
  reading bonds ...
  4320 bonds
  reading angles ...
  2160 angles
Finding 1-2 1-3 1-4 neighbors ...
  special bond factors lj:    0        0        0       
  special bond factors coul:  0        0        0       
     2 = max # of 1-2 neighbors
     1 = max # of 1-3 neighbors
     1 = max # of 1-4 neighbors
     2 = max # of special neighbors
  special bonds CPU = 0.002 seconds
  read_data CPU = 0.118 seconds

group bot type 6
1620 atoms in group bot
group top type 7
1620 atoms in group top

group SPC type 1 2 3
6480 atoms in group SPC
group electrolyte type 1 2 3 4 5
6558 atoms in group electrolyte

fix nvt electrolyte nvt temp 298.0 298.0 241
fix shake SPC shake 1e-4 20 0 b 1 2 a 1
Finding SHAKE clusters ...
       0 = # of size 2 clusters
       0 = # of size 3 clusters
       0 = # of size 4 clusters
    2160 = # of frozen angles
  find clusters CPU = 0.002 seconds

variable q atom q
variable qz atom q*(z-lz/2)
compute qtop top reduce sum v_q
compute qbot bot reduce sum v_q
compute qztop top reduce sum v_qz
compute qzbot bot reduce sum v_qz
compute ctemp electrolyte temp


fix conp bot electrode/conp -1.0 1.805132 couple top 1.0 symm on ffield yes etypes on
3240 atoms in group conp_group

thermo 50
thermo_style custom step temp c_ctemp epair etotal c_qtop c_qbot c_qztop c_qzbot
run 500

CITE-CITE-CITE-CITE-CITE-CITE-CITE-CITE-CITE-CITE-CITE-CITE-CITE

Your simulation uses code contributions which should be cited:

- kspace_style pppm/electrode command:

@article{Ahrens2021,
author = {Ahrens-Iwers, Ludwig J.V. and Mei{\ss}ner, Robert H.},
doi = {10.1063/5.0063381},
title = {{Constant potential simulations on a mesh}},
journal = {Journal of Chemical Physics},
year = {2021}
volume = {155},
pages = {104104},
}
- fix electrode command:

@article{Ahrens2022
author = {Ahrens-Iwers, Ludwig J.V. and Janssen, Mahijs and Tee, Shern R. and Mei{\ss}ner, Robert H.},
doi = {10.1063/5.0099239},
title = {{ELECTRODE: An electrochemistry package for LAMMPS}},
journal = {The Journal of Chemical Physics},
year = {2022}
volume = {157},
pages = {084801},
}
CITE-CITE-CITE-CITE-CITE-CITE-CITE-CITE-CITE-CITE-CITE-CITE-CITE

PPPM/electrode initialization ...
  using 12-bit tables for long-range coulomb (src/kspace.cpp:342)
  G vector (1/distance) = 0.24017705
  grid = 54 54 120
  stencil order = 5
  estimated absolute RMS force accuracy = 3.6312561e-05
  estimated relative force accuracy = 1.093542e-07
  using double precision MKL FFT
  3d grid and FFT values/proc = 138958 87480
Generated 21 of 21 mixed pair_coeff terms from geometric mixing rule
Neighbor list info ...
  update: every = 1 steps, delay = 0 steps, check = yes
  max neighbors/atom: 2000, page size: 100000
  master list distance cutoff = 17
  ghost atom cutoff = 17
  binsize = 8.5, bins = 5 5 13
  3 neighbor lists, perpetual/occasional/extra = 2 1 0
  (1) pair lj/cut/coul/long, perpetual
      attributes: half, newton on
      pair build: half/bin/newton
      stencil: half/bin/3d
      bin: standard
  (2) fix electrode/conp, occasional, skip from (1)
      attributes: half, newton on
      pair build: skip
      stencil: none
      bin: none
  (3) fix electrode/conp, perpetual, skip from (1)
      attributes: half, newton on
      pair build: skip
      stencil: none
      bin: none
Per MPI rank memory allocation (min/avg/max) = 118.2 | 120.7 | 123.2 Mbytes
   Step          Temp         c_ctemp         E_pair         TotEng         c_qtop         c_qbot        c_qztop        c_qzbot    
         0   171.61215      298.06731     -39021.917     -35115.261      4.1391573     -4.1391573      78.718381      131.56372    
        50   147.03139      255.37383     -39679.603     -36332.515      4.1312167     -4.1312167      78.563872      131.30255    
       100   149.89027      260.33932     -39693.369     -36281.2        4.0217834     -4.0217834      76.482548      127.82573    
       150   151.7382       263.54893     -39686.526     -36232.29       4.0469977     -4.0469977      76.967548      128.59855    
       200   151.7508       263.57081     -39634.089     -36179.566      4.1830375     -4.1830375      79.554159      132.93925    
       250   152.61146      265.06566     -39598.341     -36124.226      4.1835864     -4.1835864      79.56665       132.97185    
       300   153.51486      266.63475     -39560.107     -36065.426      4.1571861     -4.1571861      79.06143       132.12905    
       350   156.35115      271.561       -39554.338     -35995.09       4.3498059     -4.3498059      82.720201      138.28678    
       400   156.26118      271.40474     -39490.412     -35933.213      4.3444079     -4.3444079      82.619397      138.11873    
       450   158.54163      275.36558     -39487.279     -35878.167      4.202049      -4.202049       79.912678      133.55186    
       500   161.40137      280.33256     -39485.763     -35811.55       4.3021925     -4.3021925      81.807529      136.7464     
Loop time of 97.2399 on 4 procs for 500 steps with 9798 atoms

Performance: 0.444 ns/day, 54.022 hours/ns, 5.142 timesteps/s, 50.381 katom-step/s
87.0% CPU use with 4 MPI tasks x no OpenMP threads

MPI task timing breakdown:
Section |  min time  |  avg time  |  max time  |%varavg| %total
---------------------------------------------------------------
Pair    | 19.363     | 28.08      | 37.126     | 160.3 | 28.88
Bond    | 0.00094043 | 0.00096516 | 0.00098016 |   0.0 |  0.00
Kspace  | 31.655     | 40.554     | 49.143     | 131.3 | 41.71
Neigh   | 2.2289     | 2.2294     | 2.2297     |   0.0 |  2.29
Comm    | 0.5341     | 0.54079    | 0.5478     |   0.9 |  0.56
Output  | 0.0024141  | 0.0026943  | 0.0034176  |   0.8 |  0.00
Modify  | 25.6       | 25.755     | 25.908     |   2.8 | 26.49
Other   |            | 0.07733    |            |       |  0.08

Nlocal:         2449.5 ave        2908 max        2012 min
Histogram: 2 0 0 0 0 0 0 0 0 2
Nghost:        19345.5 ave       20244 max       18492 min
Histogram: 2 0 0 0 0 0 0 0 0 2
Neighs:    2.06404e+06 ave  2.7528e+06 max 1.40672e+06 min
Histogram: 2 0 0 0 0 0 0 0 0 2

Total # of neighbors = 8256142
Ave neighs/atom = 842.63544
Ave special neighs/atom = 1.3227189
Neighbor list builds = 22
Dangerous builds = 0
Total wall time: 0:03:03
