LAMMPS (18 Feb 2020)
# fcc cobalt in a 3d periodic box

units 		metal
atom_style 	spin

dimension 	3
boundary	p p p

# necessary for the serial algorithm (sametag)
atom_modify 	map array

lattice 	hcp 2.5071
Lattice spacing in x,y,z = 2.5071 4.34242 4.09408
region 		box block 0.0 5.0 0.0 5.0 0.0 5.0
create_box 	1 box
Created orthogonal box = (0 0 0) to (12.5355 21.7121 20.4704)
  1 by 1 by 1 MPI processor grid
create_atoms 	1 box
Created 500 atoms
  create_atoms CPU = 0.00110984 secs

# setting mass, mag. moments, and interactions for cobalt

mass		1 58.93

set 		group all spin/random 31 1.72
  500 settings made for spin/random

pair_style	spin/exchange 4.0
pair_coeff 	* * exchange 4.0 0.3593 1.135028015e-05 1.064568567

neighbor 	0.1 bin
neigh_modify 	every 10 check yes delay 20

fix 		1 all precession/spin zeeman 0.0 0.0 0.0 1.0
fix 		2 all langevin/spin 100.0 0.01 21

fix 		3 all nve/spin lattice frozen
timestep	0.0001

# compute and output options

compute 	out_mag    all spin
compute 	out_pe     all pe
compute 	out_ke     all ke
compute 	out_temp   all temp

variable 	magz      equal c_out_mag[3]
variable 	magnorm   equal c_out_mag[4]
variable 	emag      equal c_out_mag[5]
variable 	tmag      equal c_out_mag[6]

thermo_style    custom step time v_magnorm pe v_emag temp etotal
thermo          100

compute 	outsp all property/atom spx spy spz sp fmx fmy fmz
dump 		100 all custom 1 dump.lammpstrj type x y z c_outsp[1] c_outsp[2] c_outsp[3] c_outsp[4] c_outsp[5] c_outsp[6] c_outsp[7]

run 		1000
Neighbor list info ...
  update every 10 steps, delay 20 steps, check yes
  max neighbors/atom: 2000, page size: 100000
  master list distance cutoff = 4.1
  ghost atom cutoff = 4.1
  binsize = 2.05, bins = 7 11 10
  1 neighbor lists, perpetual/occasional/extra = 1 0 0
  (1) pair spin/exchange, perpetual
      attributes: full, newton on
      pair build: full/bin/atomonly
      stencil: full/bin/3d
      bin: standard
Per MPI rank memory allocation (min/avg/max) = 6.947 | 6.947 | 6.947 Mbytes
Step Time v_magnorm PotEng v_emag Temp TotEng 
       0            0  0.076558814    1.7982359    1.7982359            0    1.7982359 
     100         0.01  0.077628154   0.73387834   0.73387834            0   0.73387834 
     200         0.02  0.076678996   -0.4048463   -0.4048463            0   -0.4048463 
     300         0.03  0.079174837   -1.3519103   -1.3519103            0   -1.3519103 
     400         0.04  0.085031632   -3.0345702   -3.0345702            0   -3.0345702 
     500         0.05   0.08702747   -4.0853256   -4.0853256            0   -4.0853256 
     600         0.06  0.087066482    -5.259549    -5.259549            0    -5.259549 
     700         0.07  0.089788894    -6.629076    -6.629076            0    -6.629076 
     800         0.08  0.091699611   -8.0574087   -8.0574087            0   -8.0574087 
     900         0.09  0.090038899   -9.2012019   -9.2012019            0   -9.2012019 
    1000          0.1  0.093257309   -10.470452   -10.470452            0   -10.470452 
Loop time of 3.38866 on 1 procs for 1000 steps with 500 atoms

Performance: 2.550 ns/day, 9.413 hours/ns, 295.102 timesteps/s
99.4% CPU use with 1 MPI tasks x no OpenMP threads

MPI task timing breakdown:
Section |  min time  |  avg time  |  max time  |%varavg| %total
---------------------------------------------------------------
Pair    | 0.46673    | 0.46673    | 0.46673    |   0.0 | 13.77
Neigh   | 0          | 0          | 0          |   0.0 |  0.00
Comm    | 0.019901   | 0.019901   | 0.019901   |   0.0 |  0.59
Output  | 1.3838     | 1.3838     | 1.3838     |   0.0 | 40.84
Modify  | 1.5145     | 1.5145     | 1.5145     |   0.0 | 44.69
Other   |            | 0.003689   |            |       |  0.11

Nlocal:    500 ave 500 max 500 min
Histogram: 1 0 0 0 0 0 0 0 0 0
Nghost:    1221 ave 1221 max 1221 min
Histogram: 1 0 0 0 0 0 0 0 0 0
Neighs:    0 ave 0 max 0 min
Histogram: 1 0 0 0 0 0 0 0 0 0
FullNghs:  10000 ave 10000 max 10000 min
Histogram: 1 0 0 0 0 0 0 0 0 0

Total # of neighbors = 10000
Ave neighs/atom = 20
Neighbor list builds = 0
Dangerous builds = 0
write_restart 	restart_hcp_cobalt.equil

Please see the log.cite file for references relevant to this simulation

Total wall time: 0:00:03
