LAMMPS (30 Oct 2019)
# fcc cobalt in a 3d periodic box

units 		metal
atom_style 	spin

dimension 	3
boundary	p p p

# necessary for the serial algorithm (sametag)
atom_modify 	map array

lattice 	hcp 2.5071
Lattice spacing in x,y,z = 2.5071 4.34242 4.09408
region 		box block 0.0 5.0 0.0 5.0 0.0 5.0
create_box 	1 box
Created orthogonal box = (0 0 0) to (12.5355 21.7121 20.4704)
  1 by 2 by 2 MPI processor grid
create_atoms 	1 box
Created 500 atoms
  create_atoms CPU = 0.000901937 secs

# setting mass, mag. moments, and interactions for cobalt

mass		1 58.93

set 		group all spin/random 31 1.72
  500 settings made for spin/random

pair_style	spin/exchange 4.0
pair_coeff 	* * exchange 4.0 0.3593 1.135028015e-05 1.064568567

neighbor 	0.1 bin
neigh_modify 	every 10 check yes delay 20

fix 		1 all precession/spin zeeman 0.0 0.0 0.0 1.0
fix 		2 all langevin/spin 100.0 0.01 21

fix 		3 all nve/spin lattice frozen
timestep	0.0001

# compute and output options

compute 	out_mag    all spin
compute 	out_pe     all pe
compute 	out_ke     all ke
compute 	out_temp   all temp

variable 	magz      equal c_out_mag[3]
variable 	magnorm   equal c_out_mag[4]
variable 	emag      equal c_out_mag[5]
variable 	tmag      equal c_out_mag[6]

thermo_style    custom step time v_magnorm v_emag temp etotal
thermo          100

compute 	outsp all property/atom spx spy spz sp fmx fmy fmz
dump 		100 all custom 1 dump.lammpstrj type x y z c_outsp[1] c_outsp[2] c_outsp[3] c_outsp[4] c_outsp[5] c_outsp[6] c_outsp[7]

run 		1000
Neighbor list info ...
  update every 10 steps, delay 20 steps, check yes
  max neighbors/atom: 2000, page size: 100000
  master list distance cutoff = 4.1
  ghost atom cutoff = 4.1
  binsize = 2.05, bins = 7 11 10
  1 neighbor lists, perpetual/occasional/extra = 1 0 0
  (1) pair spin/exchange, perpetual
      attributes: full, newton on
      pair build: full/bin/atomonly
      stencil: full/bin/3d
      bin: standard
Per MPI rank memory allocation (min/avg/max) = 6.868 | 6.868 | 6.868 Mbytes
Step Time v_magnorm v_emag Temp TotEng 
       0            0  0.076558814    1.7982359            0    1.7982359 
     100         0.01  0.078299981   0.88259584            0   0.88259584 
     200         0.02  0.081260508  -0.43484722            0  -0.43484722 
     300         0.03  0.081195603   -1.7408209            0   -1.7408209 
     400         0.04  0.087298495   -3.4139038            0   -3.4139038 
     500         0.05  0.087663924   -4.3766089            0   -4.3766089 
     600         0.06  0.091713683   -5.8534921            0   -5.8534921 
     700         0.07  0.093779119    -6.706628            0    -6.706628 
     800         0.08  0.097960611   -7.8688568            0   -7.8688568 
     900         0.09   0.10193463   -9.5888008            0   -9.5888008 
    1000          0.1   0.10831726    -10.76492            0    -10.76492 
Loop time of 2.36594 on 4 procs for 1000 steps with 500 atoms

Performance: 3.652 ns/day, 6.572 hours/ns, 422.665 timesteps/s
98.9% CPU use with 4 MPI tasks x no OpenMP threads

MPI task timing breakdown:
Section |  min time  |  avg time  |  max time  |%varavg| %total
---------------------------------------------------------------
Pair    | 0.13515    | 0.15276    | 0.16507    |   2.8 |  6.46
Neigh   | 0          | 0          | 0          |   0.0 |  0.00
Comm    | 0.08478    | 0.10161    | 0.12408    |   4.5 |  4.29
Output  | 0.50658    | 0.52938    | 0.55066    |   2.3 | 22.38
Modify  | 1.5629     | 1.5794     | 1.6014     |   1.3 | 66.75
Other   |            | 0.002834   |            |       |  0.12

Nlocal:    125 ave 125 max 125 min
Histogram: 4 0 0 0 0 0 0 0 0 0
Nghost:    597.5 ave 600 max 595 min
Histogram: 2 0 0 0 0 0 0 0 0 2
Neighs:    0 ave 0 max 0 min
Histogram: 4 0 0 0 0 0 0 0 0 0
FullNghs:  2500 ave 2500 max 2500 min
Histogram: 4 0 0 0 0 0 0 0 0 0

Total # of neighbors = 10000
Ave neighs/atom = 20
Neighbor list builds = 0
Dangerous builds = 0
write_restart 	restart_hcp_cobalt.equil


Please see the log.cite file for references relevant to this simulation

Total wall time: 0:00:02
