LAMMPS data file via write_data, version 4 May 2017, timestep = 0

8192 atoms
1 atom types

0.0000000000000000e+00 2.8320000000000000e+01 xlo xhi
0.0000000000000000e+00 2.8320000000000000e+01 ylo yhi
0.0000000000000000e+00 1.1328000000000000e+02 zlo zhi

Masses

1 58.93

Atoms # spin

1 1 1.72 0.0 0.0 0.0 0.52887 -0.848703 1.0
2 1 1.72 1.77 1.77 0.0 -0.745115 -0.666936 1.0
3 1 1.72 1.77 0.0 1.77 -0.989437 -0.144964 1.0
4 1 1.72 0.0 1.77 1.77 0.999926 -0.0121449 1.0
5 1 1.72 3.54 0.0 0.0 0.377063 -0.926188 1.0
6 1 1.72 5.31 1.77 0.0 0.412944 0.910756 1.0
7 1 1.72 5.31 0.0 1.77 -0.999979 0.00650985 1.0
8 1 1.72 3.54 1.77 1.77 0.535453 -0.844565 1.0
9 1 1.72 7.0799999 0.0 0.0 -0.986135 0.165942 1.0
10 1 1.72 8.8500004 1.77 0.0 -0.37352 -0.927622 1.0
11 1 1.72 8.8500004 0.0 1.77 -0.926878 0.375363 1.0
12 1 1.72 7.0799999 1.77 1.77 -0.690063 -0.72375 1.0
13 1 1.72 10.6199999 0.0 0.0 -0.7204 -0.693559 1.0
14 1 1.72 12.3900004 1.77 0.0 -0.832046 -0.554707 1.0
15 1 1.72 12.3900004 0.0 1.77 0.23719 0.971463 1.0
16 1 1.72 10.6199999 1.77 1.77 0.456617 -0.889663 1.0
17 1 1.72 14.1599999 0.0 0.0 -0.661715 0.749755 1.0
18 1 1.72 15.9300004 1.77 0.0 -0.847309 -0.531099 1.0
19 1 1.72 15.9300004 0.0 1.77 -0.956536 0.291614 1.0
20 1 1.72 14.1599999 1.77 1.77 -0.770778 -0.637104 1.0
21 1 1.72 17.7000008 0.0 0.0 -0.896558 -0.442927 1.0
22 1 1.72 19.4699993 1.77 0.0 0.557673 0.830061 1.0
23 1 1.72 19.4699993 0.0 1.77 0.983224 0.182403 1.0
24 1 1.72 17.7000008 1.77 1.77 -0.939201 0.343368 1.0
25 1 1.72 21.2399998 0.0 0.0 0.894393 0.447281 1.0
26 1 1.72 23.0100002 1.77 0.0 0.484661 0.874702 1.0
27 1 1.72 23.0100002 0.0 1.77 0.525609 -0.850726 1.0
28 1 1.72 21.2399998 1.77 1.77 0.551899 0.833911 1.0
29 1 1.72 24.7800007 0.0 0.0 -0.307979 0.951393 1.0
30 1 1.72 26.5499993 1.77 0.0 -0.993353 -0.115107 1.0
31 1 1.72 26.5499993 0.0 1.77 0.786777 -0.617237 1.0
32 1 1.72 24.7800007 1.77 1.77 -0.646691 0.762752 1.0
33 1 1.72 0.0 3.54 0.0 0.119106 -0.992881 1.0
34 1 1.72 1.77 5.31 0.0 0.719383 0.694614 1.0
35 1 1.72 1.77 3.54 1.77 -0.704699 0.709506 1.0
36 1 1.72 0.0 5.31 1.77 0.795511 -0.605939 1.0
37 1 1.72 3.54 3.54 0.0 -0.97 -0.243107 1.0
38 1 1.72 5.31 5.31 0.0 0.976076 0.217428 1.0
39 1 1.72 5.31 3.54 1.77 0.735471 -0.677556 1.0
40 1 1.72 3.54 5.31 1.77 -0.319137 -0.947708 1.0
41 1 1.72 7.0799999 3.54 0.0 -0.610942 0.791675 1.0
42 1 1.72 8.8500004 5.31 0.0 -0.679543 0.733635 1.0
43 1 1.72 8.8500004 3.54 1.77 0.983607 -0.180324 1.0
44 1 1.72 7.0799999 5.31 1.77 -0.217118 -0.976145 1.0
45 1 1.72 10.6199999 3.54 0.0 -0.997762 0.0668716 1.0
46 1 1.72 12.3900004 5.31 0.0 0.275194 -0.961389 1.0
47 1 1.72 12.3900004 3.54 1.77 -0.828419 -0.560108 1.0
48 1 1.72 10.6199999 5.31 1.77 0.118246 -0.992984 1.0
49 1 1.72 14.1599999 3.54 0.0 0.737418 0.675437 1.0
50 1 1.72 15.9300004 5.31 0.0 0.723539 -0.690283 1.0
51 1 1.72 15.9300004 3.54 1.77 0.445177 0.895443 1.0
52 1 1.72 14.1599999 5.31 1.77 -0.0224847 -0.999747 1.0
53 1 1.72 17.7000008 3.54 0.0 -0.0340097 0.999422 1.0
54 1 1.72 19.4699993 5.31 0.0 -0.842076 -0.539358 1.0
55 1 1.72 19.4699993 3.54 1.77 0.628732 -0.777622 1.0
56 1 1.72 17.7000008 5.31 1.77 -0.710873 -0.70332 1.0
57 1 1.72 21.2399998 3.54 0.0 -0.997492 0.0707798 1.0
58 1 1.72 23.0100002 5.31 0.0 -0.643338 -0.765582 1.0
59 1 1.72 23.0100002 3.54 1.77 -0.891542 0.452938 1.0
60 1 1.72 21.2399998 5.31 1.77 -0.576343 -0.817208 1.0
61 1 1.72 24.7800007 3.54 0.0 0.915658 -0.401959 1.0
62 1 1.72 26.5499993 5.31 0.0 -0.674018 -0.738715 1.0
63 1 1.72 26.5499993 3.54 1.77 -0.92775 -0.373203 1.0
64 1 1.72 24.7800007 5.31 1.77 -0.336441 0.941705 1.0
65 1 1.72 0.0 7.0799999 0.0 0.499974 0.86604 1.0
66 1 1.72 1.77 8.8500004 0.0 -0.582403 0.8129 1.0
67 1 1.72 1.77 7.0799999 1.77 0.46326 -0.886222 1.0
68 1 1.72 0.0 8.8500004 1.77 0.812676 -0.582716 1.0
69 1 1.72 3.54 7.0799999 0.0 0.572515 0.819894 1.0
70 1 1.72 5.31 8.8500004 0.0 -0.765807 -0.64307 1.0
71 1 1.72 5.31 7.0799999 1.77 0.474871 0.880056 1.0
72 1 1.72 3.54 8.8500004 1.77 -0.975682 -0.219192 1.0
73 1 1.72 7.0799999 7.0799999 0.0 -0.810957 0.585105 1.0
74 1 1.72 8.8500004 8.8500004 0.0 -0.877575 0.479439 1.0
75 1 1.72 8.8500004 7.0799999 1.77 0.824057 -0.566506 1.0
76 1 1.72 7.0799999 8.8500004 1.77 0.297271 0.954793 1.0
77 1 1.72 10.6199999 7.0799999 0.0 -0.681778 -0.731559 1.0
78 1 1.72 12.3900004 8.8500004 0.0 -0.76147 0.6482 1.0
79 1 1.72 12.3900004 7.0799999 1.77 -0.486873 0.873473 1.0
80 1 1.72 10.6199999 8.8500004 1.77 0.00912428 -0.999958 1.0
81 1 1.72 14.1599999 7.0799999 0.0 0.713557 0.700597 1.0
82 1 1.72 15.9300004 8.8500004 0.0 0.868807 -0.495151 1.0
83 1 1.72 15.9300004 7.0799999 1.77 -1 -0.000534854 1.0
84 1 1.72 14.1599999 8.8500004 1.77 -0.574785 0.818304 1.0
85 1 1.72 17.7000008 7.0799999 0.0 0.989393 0.145267 1.0
86 1 1.72 19.4699993 8.8500004 0.0 -0.999806 -0.0197183 1.0
87 1 1.72 19.4699993 7.0799999 1.77 0.4586 -0.888643 1.0
88 1 1.72 17.7000008 8.8500004 1.77 -0.883298 -0.468811 1.0
89 1 1.72 21.2399998 7.0799999 0.0 -0.824627 0.565677 1.0
90 1 1.72 23.0100002 8.8500004 0.0 -0.832761 0.553633 1.0
91 1 1.72 23.0100002 7.0799999 1.77 -0.619129 -0.78529 1.0
92 1 1.72 21.2399998 8.8500004 1.77 -0.146701 -0.989181 1.0
93 1 1.72 24.7800007 7.0799999 0.0 -0.730554 0.682855 1.0
94 1 1.72 26.5499993 8.8500004 0.0 -0.969609 -0.244661 1.0
95 1 1.72 26.5499993 7.0799999 1.77 0.833097 0.553128 1.0
96 1 1.72 24.7800007 8.8500004 1.77 -0.236089 0.971731 1.0
97 1 1.72 0.0 10.6199999 0.0 -0.367374 -0.930073 1.0
98 1 1.72 1.77 12.3900004 0.0 0.881557 -0.472078 1.0
99 1 1.72 1.77 10.6199999 1.77 0.532092 -0.846686 1.0
100 1 1.72 0.0 12.3900004 1.77 0.214293 -0.976769 1.0
101 1 1.72 3.54 10.6199999 0.0 0.952842 0.303466 1.0
102 1 1.72 5.31 12.3900004 0.0 0.704914 0.709293 1.0
103 1 1.72 5.31 10.6199999 1.77 -0.379284 0.92528 1.0
104 1 1.72 3.54 12.3900004 1.77 0.474349 0.880337 1.0
105 1 1.72 7.0799999 10.6199999 0.0 -0.617116 0.786872 1.0
106 1 1.72 8.8500004 12.3900004 0.0 -0.999836 0.0181093 1.0
107 1 1.72 8.8500004 10.6199999 1.77 0.0846455 0.996411 1.0
108 1 1.72 7.0799999 12.3900004 1.77 0.857559 0.514386 1.0
109 1 1.72 10.6199999 10.6199999 0.0 0.567582 0.823317 1.0
110 1 1.72 12.3900004 12.3900004 0.0 -0.966803 0.255521 1.0
111 1 1.72 12.3900004 10.6199999 1.77 -0.675642 -0.73723 1.0
112 1 1.72 10.6199999 12.3900004 1.77 -0.999943 -0.0106872 1.0
113 1 1.72 14.1599999 10.6199999 0.0 -0.990729 0.135851 1.0
114 1 1.72 15.9300004 12.3900004 0.0 -0.599943 0.800043 1.0
115 1 1.72 15.9300004 10.6199999 1.77 0.970749 0.240097 1.0
116 1 1.72 14.1599999 12.3900004 1.77 0.850547 -0.525898 1.0
117 1 1.72 17.7000008 10.6199999 0.0 0.328418 -0.944533 1.0
118 1 1.72 19.4699993 12.3900004 0.0 -0.644174 -0.764879 1.0
119 1 1.72 19.4699993 10.6199999 1.77 0.380357 0.92484 1.0
120 1 1.72 17.7000008 12.3900004 1.77 0.512588 -0.858635 1.0
121 1 1.72 21.2399998 10.6199999 0.0 -0.994323 -0.106404 1.0
122 1 1.72 23.0100002 12.3900004 0.0 0.757848 -0.652431 1.0
123 1 1.72 23.0100002 10.6199999 1.77 -0.453043 0.891489 1.0
124 1 1.72 21.2399998 12.3900004 1.77 -0.108525 -0.994094 1.0
125 1 1.72 24.7800007 10.6199999 0.0 -0.951461 -0.30777 1.0
126 1 1.72 26.5499993 12.3900004 0.0 -0.156148 -0.987734 1.0
127 1 1.72 26.5499993 10.6199999 1.77 -0.0498593 0.998756 1.0
128 1 1.72 24.7800007 12.3900004 1.77 -0.765373 0.643587 1.0
129 1 1.72 0.0 0.0 3.54 0.102937 -0.994688 1.0
130 1 1.72 1.77 1.77 3.54 0.521765 -0.853089 1.0
131 1 1.72 1.77 0.0 5.31 0.782175 -0.623058 1.0
132 1 1.72 0.0 1.77 5.31 -0.52733 0.84966 1.0
133 1 1.72 3.54 0.0 3.54 -0.866538 0.499111 1.0
134 1 1.72 5.31 1.77 3.54 0.688635 0.725108 1.0
135 1 1.72 5.31 0.0 5.31 -0.993703 0.112043 1.0
136 1 1.72 3.54 1.77 5.31 0.63582 -0.771837 1.0
137 1 1.72 7.0799999 0.0 3.54 -0.780124 -0.625625 1.0
138 1 1.72 8.8500004 1.77 3.54 -0.9995 0.0316303 1.0
139 1 1.72 8.8500004 0.0 5.31 -0.60287 -0.797839 1.0
140 1 1.72 7.0799999 1.77 5.31 0.668511 -0.743702 1.0
141 1 1.72 10.6199999 0.0 3.54 0.772127 0.635468 1.0
142 1 1.72 12.3900004 1.77 3.54 -0.477427 0.878671 1.0
143 1 1.72 12.3900004 0.0 5.31 0.948008 -0.318247 1.0
144 1 1.72 10.6199999 1.77 5.31 -0.84749 -0.530812 1.0
145 1 1.72 14.1599999 0.0 3.54 -0.611867 0.790961 1.0
146 1 1.72 15.9300004 1.77 3.54 0.999844 0.0176539 1.0
147 1 1.72 15.9300004 0.0 5.31 -0.439551 -0.898218 1.0
148 1 1.72 14.1599999 1.77 5.31 0.221059 -0.97526 1.0
149 1 1.72 17.7000008 0.0 3.54 0.362034 -0.932165 1.0
150 1 1.72 19.4699993 1.77 3.54 0.990126 -0.140181 1.0
151 1 1.72 19.4699993 0.0 5.31 -0.901732 -0.432295 1.0
152 1 1.72 17.7000008 1.77 5.31 -0.539132 0.842222 1.0
153 1 1.72 21.2399998 0.0 3.54 0.8064 -0.591371 1.0
154 1 1.72 23.0100002 1.77 3.54 -0.634078 -0.773269 1.0
155 1 1.72 23.0100002 0.0 5.31 -0.82646 -0.562995 1.0
156 1 1.72 21.2399998 1.77 5.31 0.54415 -0.838988 1.0
157 1 1.72 24.7800007 0.0 3.54 0.168534 -0.985696 1.0
158 1 1.72 26.5499993 1.77 3.54 0.467956 0.883752 1.0
159 1 1.72 26.5499993 0.0 5.31 -0.432586 -0.901593 1.0
160 1 1.72 24.7800007 1.77 5.31 0.758413 -0.651774 1.0
161 1 1.72 0.0 3.54 3.54 -0.942909 -0.33305 1.0
162 1 1.72 1.77 5.31 3.54 0.909319 0.416099 1.0
163 1 1.72 1.77 3.54 5.31 -0.443879 0.896087 1.0
164 1 1.72 0.0 5.31 5.31 0.00137294 -0.999999 1.0
165 1 1.72 3.54 3.54 3.54 0.463786 0.885947 1.0
166 1 1.72 5.31 5.31 3.54 0.571784 0.820404 1.0
167 1 1.72 5.31 3.54 5.31 -0.775086 0.631856 1.0
168 1 1.72 3.54 5.31 5.31 -0.852559 -0.522631 1.0
169 1 1.72 7.0799999 3.54 3.54 0.615898 0.787826 1.0
170 1 1.72 8.8500004 5.31 3.54 0.665727 -0.746196 1.0
171 1 1.72 8.8500004 3.54 5.31 0.348981 -0.93713 1.0
172 1 1.72 7.0799999 5.31 5.31 -0.984144 -0.177372 1.0
173 1 1.72 10.6199999 3.54 3.54 -0.118519 -0.992952 1.0
174 1 1.72 12.3900004 5.31 3.54 0.273523 0.961865 1.0
175 1 1.72 12.3900004 3.54 5.31 -0.563501 -0.826116 1.0
176 1 1.72 10.6199999 5.31 5.31 0.885827 0.464016 1.0
177 1 1.72 14.1599999 3.54 3.54 0.547215 0.836992 1.0
178 1 1.72 15.9300004 5.31 3.54 0.00952804 0.999955 1.0
179 1 1.72 15.9300004 3.54 5.31 -0.985737 -0.168295 1.0
180 1 1.72 14.1599999 5.31 5.31 -0.324131 -0.946012 1.0
181 1 1.72 17.7000008 3.54 3.54 0.926524 -0.376235 1.0
182 1 1.72 19.4699993 5.31 3.54 0.86068 0.509147 1.0
183 1 1.72 19.4699993 3.54 5.31 -0.990706 -0.136021 1.0
184 1 1.72 17.7000008 5.31 5.31 0.892393 -0.451258 1.0
185 1 1.72 21.2399998 3.54 3.54 -0.303547 -0.952816 1.0
186 1 1.72 23.0100002 5.31 3.54 0.920916 0.389761 1.0
187 1 1.72 23.0100002 3.54 5.31 -0.777103 -0.629373 1.0
188 1 1.72 21.2399998 5.31 5.31 0.510707 0.859755 1.0
189 1 1.72 24.7800007 3.54 3.54 -0.65805 0.752974 1.0
190 1 1.72 26.5499993 5.31 3.54 -0.804723 0.593651 1.0
191 1 1.72 26.5499993 3.54 5.31 0.408331 -0.912834 1.0
192 1 1.72 24.7800007 5.31 5.31 0.746295 0.665615 1.0
193 1 1.72 0.0 7.0799999 3.54 0.492599 -0.870256 1.0
194 1 1.72 1.77 8.8500004 3.54 0.767038 -0.641602 1.0
195 1 1.72 1.77 7.0799999 5.31 -0.840902 -0.541187 1.0
196 1 1.72 0.0 8.8500004 5.31 0.640285 -0.768137 1.0
197 1 1.72 3.54 7.0799999 3.54 0.142679 -0.989769 1.0
198 1 1.72 5.31 8.8500004 3.54 -0.955626 -0.294582 1.0
199 1 1.72 5.31 7.0799999 5.31 0.74547 -0.666539 1.0
200 1 1.72 3.54 8.8500004 5.31 -0.661162 0.750243 1.0
201 1 1.72 7.0799999 7.0799999 3.54 0.771617 -0.636088 1.0
202 1 1.72 8.8500004 8.8500004 3.54 0.629308 0.777156 1.0
203 1 1.72 8.8500004 7.0799999 5.31 -0.547181 0.837014 1.0
204 1 1.72 7.0799999 8.8500004 5.31 -0.993312 0.115457 1.0
205 1 1.72 10.6199999 7.0799999 3.54 0.834975 0.550288 1.0
206 1 1.72 12.3900004 8.8500004 3.54 0.664691 0.747118 1.0
207 1 1.72 12.3900004 7.0799999 5.31 -0.200111 -0.979773 1.0
208 1 1.72 10.6199999 8.8500004 5.31 0.801035 0.598618 1.0
209 1 1.72 14.1599999 7.0799999 3.54 -0.58623 -0.810144 1.0
210 1 1.72 15.9300004 8.8500004 3.54 0.904936 -0.425548 1.0
211 1 1.72 15.9300004 7.0799999 5.31 0.666075 0.745885 1.0
212 1 1.72 14.1599999 8.8500004 5.31 0.325616 -0.945502 1.0
213 1 1.72 17.7000008 7.0799999 3.54 -0.999906 -0.0136787 1.0
214 1 1.72 19.4699993 8.8500004 3.54 0.750515 -0.660853 1.0
215 1 1.72 19.4699993 7.0799999 5.31 -0.539904 0.841727 1.0
216 1 1.72 17.7000008 8.8500004 5.31 -0.0929708 -0.995669 1.0
217 1 1.72 21.2399998 7.0799999 3.54 -0.70959 -0.704614 1.0
218 1 1.72 23.0100002 8.8500004 3.54 0.402659 -0.91535 1.0
219 1 1.72 23.0100002 7.0799999 5.31 0.766076 -0.64275 1.0
220 1 1.72 21.2399998 8.8500004 5.31 -0.983381 -0.181552 1.0
221 1 1.72 24.7800007 7.0799999 3.54 -0.573555 -0.819167 1.0
222 1 1.72 26.5499993 8.8500004 3.54 0.842039 -0.539416 1.0
223 1 1.72 26.5499993 7.0799999 5.31 -0.914245 0.405161 1.0
224 1 1.72 24.7800007 8.8500004 5.31 -0.975994 -0.217798 1.0
225 1 1.72 0.0 10.6199999 3.54 -0.949605 0.313448 1.0
226 1 1.72 1.77 12.3900004 3.54 -0.911048 0.412301 1.0
227 1 1.72 1.77 10.6199999 5.31 0.878063 0.478545 1.0
228 1 1.72 0.0 12.3900004 5.31 0.404541 0.91452 1.0
229 1 1.72 3.54 10.6199999 3.54 -0.98993 0.141557 1.0
230 1 1.72 5.31 12.3900004 3.54 -0.662101 -0.749415 1.0
231 1 1.72 5.31 10.6199999 5.31 -0.970876 0.239583 1.0
232 1 1.72 3.54 12.3900004 5.31 -0.927277 -0.374377 1.0
233 1 1.72 7.0799999 10.6199999 3.54 -0.833108 -0.55311 1.0
234 1 1.72 8.8500004 12.3900004 3.54 0.507726 -0.861519 1.0
235 1 1.72 8.8500004 10.6199999 5.31 -0.745958 -0.665993 1.0
236 1 1.72 7.0799999 12.3900004 5.31 -0.942675 0.333713 1.0
237 1 1.72 10.6199999 10.6199999 3.54 -0.354976 -0.934875 1.0
238 1 1.72 12.3900004 12.3900004 3.54 -0.975296 -0.220901 1.0
239 1 1.72 12.3900004 10.6199999 5.31 0.767393 -0.641177 1.0
240 1 1.72 10.6199999 12.3900004 5.31 0.0877828 0.99614 1.0
241 1 1.72 14.1599999 10.6199999 3.54 -0.770025 -0.638013 1.0
242 1 1.72 15.9300004 12.3900004 3.54 -0.791835 0.610734 1.0
243 1 1.72 15.9300004 10.6199999 5.31 0.771802 0.635863 1.0
244 1 1.72 14.1599999 12.3900004 5.31 -0.388481 0.921457 1.0
245 1 1.72 17.7000008 10.6199999 3.54 -0.516274 -0.856423 1.0
246 1 1.72 19.4699993 12.3900004 3.54 -0.877053 -0.480394 1.0
247 1 1.72 19.4699993 10.6199999 5.31 -0.315767 -0.948837 1.0
248 1 1.72 17.7000008 12.3900004 5.31 0.321353 0.94696 1.0
249 1 1.72 21.2399998 10.6199999 3.54 0.314798 0.949159 1.0
250 1 1.72 23.0100002 12.3900004 3.54 0.528894 0.848688 1.0
251 1 1.72 23.0100002 10.6199999 5.31 -0.898401 0.439177 1.0
252 1 1.72 21.2399998 12.3900004 5.31 0.616057 -0.787702 1.0
253 1 1.72 24.7800007 10.6199999 3.54 0.987731 -0.156167 1.0
254 1 1.72 26.5499993 12.3900004 3.54 -0.744935 -0.667137 1.0
255 1 1.72 26.5499993 10.6199999 5.31 -0.817643 -0.575726 1.0
256 1 1.72 24.7800007 12.3900004 5.31 0.876355 0.481665 1.0
257 1 1.72 0.0 0.0 7.0799999 -0.76417 -0.645015 1.0
258 1 1.72 1.77 1.77 7.0799999 0.999563 0.0295524 1.0
259 1 1.72 1.77 0.0 8.8500004 0.190961 0.981598 1.0
260 1 1.72 0.0 1.77 8.8500004 -0.64001 -0.768366 1.0
261 1 1.72 3.54 0.0 7.0799999 0.88403 0.467429 1.0
262 1 1.72 5.31 1.77 7.0799999 0.958535 -0.284975 1.0
263 1 1.72 5.31 0.0 8.8500004 0.776799 -0.629749 1.0
264 1 1.72 3.54 1.77 8.8500004 -0.683111 0.730315 1.0
265 1 1.72 7.0799999 0.0 7.0799999 -0.995838 0.0911389 1.0
266 1 1.72 8.8500004 1.77 7.0799999 0.780866 -0.624699 1.0
267 1 1.72 8.8500004 0.0 8.8500004 0.647367 0.762178 1.0
268 1 1.72 7.0799999 1.77 8.8500004 -0.922114 0.386919 1.0
269 1 1.72 10.6199999 0.0 7.0799999 0.985785 -0.168011 1.0
270 1 1.72 12.3900004 1.77 7.0799999 -0.180371 0.983599 1.0
271 1 1.72 12.3900004 0.0 8.8500004 -0.499872 -0.8661 1.0
272 1 1.72 10.6199999 1.77 8.8500004 -0.960807 -0.277219 1.0
273 1 1.72 14.1599999 0.0 7.0799999 0.638432 -0.769678 1.0
274 1 1.72 15.9300004 1.77 7.0799999 0.0595594 0.998225 1.0
275 1 1.72 15.9300004 0.0 8.8500004 0.739189 -0.673498 1.0
276 1 1.72 14.1599999 1.77 8.8500004 -0.0848226 0.996396 1.0
277 1 1.72 17.7000008 0.0 7.0799999 0.349421 0.936966 1.0
278 1 1.72 19.4699993 1.77 7.0799999 -0.798175 -0.602426 1.0
279 1 1.72 19.4699993 0.0 8.8500004 -0.938818 0.344412 1.0
280 1 1.72 17.7000008 1.77 8.8500004 -0.685349 0.728215 1.0
281 1 1.72 21.2399998 0.0 7.0799999 -0.205427 -0.978672 1.0
282 1 1.72 23.0100002 1.77 7.0799999 -0.859105 -0.511799 1.0
283 1 1.72 23.0100002 0.0 8.8500004 -0.614751 -0.788721 1.0
284 1 1.72 21.2399998 1.77 8.8500004 -0.47666 0.879088 1.0
285 1 1.72 24.7800007 0.0 7.0799999 -0.934951 -0.354777 1.0
286 1 1.72 26.5499993 1.77 7.0799999 -0.999997 -0.00224411 1.0
287 1 1.72 26.5499993 0.0 8.8500004 -0.163091 0.986611 1.0
288 1 1.72 24.7800007 1.77 8.8500004 0.499742 -0.866174 1.0
289 1 1.72 0.0 3.54 7.0799999 0.102264 -0.994757 1.0
290 1 1.72 1.77 5.31 7.0799999 -0.997159 -0.0753205 1.0
291 1 1.72 1.77 3.54 8.8500004 0.834543 -0.550943 1.0
292 1 1.72 0.0 5.31 8.8500004 -0.525364 -0.850878 1.0
293 1 1.72 3.54 3.54 7.0799999 0.910126 -0.414332 1.0
294 1 1.72 5.31 5.31 7.0799999 0.781711 -0.623641 1.0
295 1 1.72 5.31 3.54 8.8500004 -0.794988 -0.606625 1.0
296 1 1.72 3.54 5.31 8.8500004 -0.998955 -0.0457003 1.0
297 1 1.72 7.0799999 3.54 7.0799999 0.790132 0.612937 1.0
298 1 1.72 8.8500004 5.31 7.0799999 0.927007 0.375045 1.0
299 1 1.72 8.8500004 3.54 8.8500004 0.945531 -0.325532 1.0
300 1 1.72 7.0799999 5.31 8.8500004 -0.611068 -0.791578 1.0
301 1 1.72 10.6199999 3.54 7.0799999 0.99999 0.00451469 1.0
302 1 1.72 12.3900004 5.31 7.0799999 0.696323 -0.717729 1.0
303 1 1.72 12.3900004 3.54 8.8500004 -0.619662 0.784869 1.0
304 1 1.72 10.6199999 5.31 8.8500004 0.977704 0.209989 1.0
305 1 1.72 14.1599999 3.54 7.0799999 -0.432218 -0.901769 1.0
306 1 1.72 15.9300004 5.31 7.0799999 0.600977 0.799266 1.0
307 1 1.72 15.9300004 3.54 8.8500004 0.762276 0.647252 1.0
308 1 1.72 14.1599999 5.31 8.8500004 -0.739078 -0.67362 1.0
309 1 1.72 17.7000008 3.54 7.0799999 0.914066 0.405565 1.0
310 1 1.72 19.4699993 5.31 7.0799999 0.606461 -0.795113 1.0
311 1 1.72 19.4699993 3.54 8.8500004 0.510159 0.86008 1.0
312 1 1.72 17.7000008 5.31 8.8500004 0.777966 0.628307 1.0
313 1 1.72 21.2399998 3.54 7.0799999 -0.201447 0.979499 1.0
314 1 1.72 23.0100002 5.31 7.0799999 0.82692 -0.562319 1.0
315 1 1.72 23.0100002 3.54 8.8500004 0.944298 0.329091 1.0
316 1 1.72 21.2399998 5.31 8.8500004 0.98899 -0.147983 1.0
317 1 1.72 24.7800007 3.54 7.0799999 0.489497 0.872005 1.0
318 1 1.72 26.5499993 5.31 7.0799999 -0.0413378 0.999145 1.0
319 1 1.72 26.5499993 3.54 8.8500004 -0.594529 -0.804074 1.0
320 1 1.72 24.7800007 5.31 8.8500004 0.598738 -0.800945 1.0
321 1 1.72 0.0 7.0799999 7.0799999 -0.551474 -0.834192 1.0
322 1 1.72 1.77 8.8500004 7.0799999 -0.553147 0.833084 1.0
323 1 1.72 1.77 7.0799999 8.8500004 0.708129 0.706083 1.0
324 1 1.72 0.0 8.8500004 8.8500004 -0.481017 -0.876711 1.0
325 1 1.72 3.54 7.0799999 7.0799999 0.987287 0.158946 1.0
326 1 1.72 5.31 8.8500004 7.0799999 -0.97773 0.209868 1.0
327 1 1.72 5.31 7.0799999 8.8500004 0.0401605 0.999193 1.0
328 1 1.72 3.54 8.8500004 8.8500004 -0.971042 0.238907 1.0
329 1 1.72 7.0799999 7.0799999 7.0799999 0.818053 0.575143 1.0
330 1 1.72 8.8500004 8.8500004 7.0799999 0.898243 -0.439498 1.0
331 1 1.72 8.8500004 7.0799999 8.8500004 0.928744 0.370721 1.0
332 1 1.72 7.0799999 8.8500004 8.8500004 0.70865 0.705561 1.0
333 1 1.72 10.6199999 7.0799999 7.0799999 -0.331938 0.943301 1.0
334 1 1.72 12.3900004 8.8500004 7.0799999 -0.994363 -0.106031 1.0
335 1 1.72 12.3900004 7.0799999 8.8500004 -0.717019 -0.697054 1.0
336 1 1.72 10.6199999 8.8500004 8.8500004 -0.855686 0.517496 1.0
337 1 1.72 14.1599999 7.0799999 7.0799999 0.758783 0.651344 1.0
338 1 1.72 15.9300004 8.8500004 7.0799999 -0.377961 -0.925822 1.0
339 1 1.72 15.9300004 7.0799999 8.8500004 -0.582549 -0.812796 1.0
340 1 1.72 14.1599999 8.8500004 8.8500004 0.867741 -0.497017 1.0
341 1 1.72 17.7000008 7.0799999 7.0799999 -0.594553 0.804056 1.0
342 1 1.72 19.4699993 8.8500004 7.0799999 0.731616 0.681717 1.0
343 1 1.72 19.4699993 7.0799999 8.8500004 0.988311 0.15245 1.0
344 1 1.72 17.7000008 8.8500004 8.8500004 -0.424088 -0.905621 1.0
345 1 1.72 21.2399998 7.0799999 7.0799999 -0.754172 0.656677 1.0
346 1 1.72 23.0100002 8.8500004 7.0799999 -0.768766 -0.63953 1.0
347 1 1.72 23.0100002 7.0799999 8.8500004 0.975989 0.217818 1.0
348 1 1.72 21.2399998 8.8500004 8.8500004 0.58713 -0.809493 1.0
349 1 1.72 24.7800007 7.0799999 7.0799999 -0.74033 -0.672244 1.0
350 1 1.72 26.5499993 8.8500004 7.0799999 -0.429923 -0.902866 1.0
351 1 1.72 26.5499993 7.0799999 8.8500004 -0.381756 0.924263 1.0
352 1 1.72 24.7800007 8.8500004 8.8500004 0.992192 0.12472 1.0
353 1 1.72 0.0 10.6199999 7.0799999 0.66691 -0.745138 1.0
354 1 1.72 1.77 12.3900004 7.0799999 0.704829 0.709377 1.0
355 1 1.72 1.77 10.6199999 8.8500004 0.413226 -0.910628 1.0
356 1 1.72 0.0 12.3900004 8.8500004 0.720305 0.693657 1.0
357 1 1.72 3.54 10.6199999 7.0799999 0.962599 -0.270931 1.0
358 1 1.72 5.31 12.3900004 7.0799999 -0.547185 -0.837012 1.0
359 1 1.72 5.31 10.6199999 8.8500004 0.328324 0.944565 1.0
360 1 1.72 3.54 12.3900004 8.8500004 0.944473 0.32859 1.0
361 1 1.72 7.0799999 10.6199999 7.0799999 0.54622 -0.837641 1.0
362 1 1.72 8.8500004 12.3900004 7.0799999 -0.88829 0.459282 1.0
363 1 1.72 8.8500004 10.6199999 8.8500004 -0.683155 -0.730273 1.0
364 1 1.72 7.0799999 12.3900004 8.8500004 -0.571408 0.820666 1.0
365 1 1.72 10.6199999 10.6199999 7.0799999 -0.941323 -0.337506 1.0
366 1 1.72 12.3900004 12.3900004 7.0799999 -0.748181 0.663494 1.0
367 1 1.72 12.3900004 10.6199999 8.8500004 -0.995752 0.0920712 1.0
368 1 1.72 10.6199999 12.3900004 8.8500004 0.621285 -0.783585 1.0
369 1 1.72 14.1599999 10.6199999 7.0799999 0.153803 -0.988102 1.0
370 1 1.72 15.9300004 12.3900004 7.0799999 -0.630419 -0.776255 1.0
371 1 1.72 15.9300004 10.6199999 8.8500004 -0.397134 0.917761 1.0
372 1 1.72 14.1599999 12.3900004 8.8500004 0.464983 0.885319 1.0
373 1 1.72 17.7000008 10.6199999 7.0799999 -0.708849 -0.70536 1.0
374 1 1.72 19.4699993 12.3900004 7.0799999 -0.99481 0.101746 1.0
375 1 1.72 19.4699993 10.6199999 8.8500004 0.993711 0.111978 1.0
376 1 1.72 17.7000008 12.3900004 8.8500004 -0.351484 -0.936194 1.0
377 1 1.72 21.2399998 10.6199999 7.0799999 -0.261889 0.965098 1.0
378 1 1.72 23.0100002 12.3900004 7.0799999 -0.997563 0.0697777 1.0
379 1 1.72 23.0100002 10.6199999 8.8500004 0.30784 0.951438 1.0
380 1 1.72 21.2399998 12.3900004 8.8500004 0.289223 -0.957262 1.0
381 1 1.72 24.7800007 10.6199999 7.0799999 -0.542298 0.840186 1.0
382 1 1.72 26.5499993 12.3900004 7.0799999 0.756145 -0.654404 1.0
383 1 1.72 26.5499993 10.6199999 8.8500004 -0.988561 -0.150824 1.0
384 1 1.72 24.7800007 12.3900004 8.8500004 -0.582371 -0.812923 1.0
385 1 1.72 0.0 0.0 10.6199999 0.404392 -0.914586 1.0
386 1 1.72 1.77 1.77 10.6199999 0.999813 0.0193245 1.0
387 1 1.72 1.77 0.0 12.3900004 -0.244812 -0.969571 1.0
388 1 1.72 0.0 1.77 12.3900004 -0.508135 -0.861277 1.0
389 1 1.72 3.54 0.0 10.6199999 -0.551125 0.834423 1.0
390 1 1.72 5.31 1.77 10.6199999 -0.592875 -0.805294 1.0
391 1 1.72 5.31 0.0 12.3900004 -0.981911 -0.189342 1.0
392 1 1.72 3.54 1.77 12.3900004 -0.7248 0.68896 1.0
393 1 1.72 7.0799999 0.0 10.6199999 0.712261 -0.701915 1.0
394 1 1.72 8.8500004 1.77 10.6199999 0.0334894 -0.999439 1.0
395 1 1.72 8.8500004 0.0 12.3900004 -0.852226 -0.523174 1.0
396 1 1.72 7.0799999 1.77 12.3900004 0.903065 -0.429504 1.0
397 1 1.72 10.6199999 0.0 10.6199999 0.552474 0.83353 1.0
398 1 1.72 12.3900004 1.77 10.6199999 -0.807993 0.589192 1.0
399 1 1.72 12.3900004 0.0 12.3900004 -0.859304 0.511466 1.0
400 1 1.72 10.6199999 1.77 12.3900004 -0.99742 0.0717923 1.0
401 1 1.72 14.1599999 0.0 10.6199999 0.398412 0.917206 1.0
402 1 1.72 15.9300004 1.77 10.6199999 -0.792645 0.609683 1.0
403 1 1.72 15.9300004 0.0 12.3900004 -0.969474 0.245195 1.0
404 1 1.72 14.1599999 1.77 12.3900004 0.0785094 -0.996913 1.0
405 1 1.72 17.7000008 0.0 10.6199999 -0.957014 0.290042 1.0
406 1 1.72 19.4699993 1.77 10.6199999 0.763229 0.646129 1.0
407 1 1.72 19.4699993 0.0 12.3900004 0.910663 -0.41315 1.0
408 1 1.72 17.7000008 1.77 12.3900004 0.692484 0.721433 1.0
409 1 1.72 21.2399998 0.0 10.6199999 -0.409511 0.912305 1.0
410 1 1.72 23.0100002 1.77 10.6199999 -0.826001 -0.563669 1.0
411 1 1.72 23.0100002 0.0 12.3900004 0.786133 0.618057 1.0
412 1 1.72 21.2399998 1.77 12.3900004 -0.675514 -0.737347 1.0
413 1 1.72 24.7800007 0.0 10.6199999 -0.982662 0.185409 1.0
414 1 1.72 26.5499993 1.77 10.6199999 -0.999375 0.0353595 1.0
415 1 1.72 26.5499993 0.0 12.3900004 0.902252 -0.431209 1.0
416 1 1.72 24.7800007 1.77 12.3900004 -0.729489 0.683993 1.0
417 1 1.72 0.0 3.54 10.6199999 0.303747 -0.952753 1.0
418 1 1.72 1.77 5.31 10.6199999 0.738541 0.674209 1.0
419 1 1.72 1.77 3.54 12.3900004 0.75732 0.653044 1.0
420 1 1.72 0.0 5.31 12.3900004 0.834189 0.551479 1.0
421 1 1.72 3.54 3.54 10.6199999 0.112428 -0.99366 1.0
422 1 1.72 5.31 5.31 10.6199999 0.463584 0.886053 1.0
423 1 1.72 5.31 3.54 12.3900004 -0.88277 -0.469805 1.0
424 1 1.72 3.54 5.31 12.3900004 0.990582 0.136924 1.0
425 1 1.72 7.0799999 3.54 10.6199999 -0.997494 0.0707471 1.0
426 1 1.72 8.8500004 5.31 10.6199999 -0.994347 -0.10618 1.0
427 1 1.72 8.8500004 3.54 12.3900004 0.983879 -0.178833 1.0
428 1 1.72 7.0799999 5.31 12.3900004 -0.765746 0.643143 1.0
429 1 1.72 10.6199999 3.54 10.6199999 0.479961 0.87729 1.0
430 1 1.72 12.3900004 5.31 10.6199999 0.999532 0.0305924 1.0
431 1 1.72 12.3900004 3.54 12.3900004 -0.986119 0.166043 1.0
432 1 1.72 10.6199999 5.31 12.3900004 -0.830056 0.557679 1.0
433 1 1.72 14.1599999 3.54 10.6199999 -0.979316 0.202335 1.0
434 1 1.72 15.9300004 5.31 10.6199999 -0.925039 -0.379873 1.0
435 1 1.72 15.9300004 3.54 12.3900004 0.945128 -0.326699 1.0
436 1 1.72 14.1599999 5.31 12.3900004 0.651991 -0.758226 1.0
437 1 1.72 17.7000008 3.54 10.6199999 -0.713337 0.700821 1.0
438 1 1.72 19.4699993 5.31 10.6199999 0.0787721 0.996893 1.0
439 1 1.72 19.4699993 3.54 12.3900004 0.826408 -0.563071 1.0
440 1 1.72 17.7000008 5.31 12.3900004 -0.784047 0.620701 1.0
441 1 1.72 21.2399998 3.54 10.6199999 -0.929462 -0.368919 1.0
442 1 1.72 23.0100002 5.31 10.6199999 -0.214422 -0.976741 1.0
443 1 1.72 23.0100002 3.54 12.3900004 0.837887 0.545844 1.0
444 1 1.72 21.2399998 5.31 12.3900004 -0.650037 0.759903 1.0
445 1 1.72 24.7800007 3.54 10.6199999 -0.458438 0.888727 1.0
446 1 1.72 26.5499993 5.31 10.6199999 -0.804307 0.594214 1.0
447 1 1.72 26.5499993 3.54 12.3900004 -0.798196 0.602398 1.0
448 1 1.72 24.7800007 5.31 12.3900004 -0.592531 0.805548 1.0
449 1 1.72 0.0 7.0799999 10.6199999 -0.659382 -0.751808 1.0
450 1 1.72 1.77 8.8500004 10.6199999 0.973495 0.228708 1.0
451 1 1.72 1.77 7.0799999 12.3900004 -0.276222 0.961094 1.0
452 1 1.72 0.0 8.8500004 12.3900004 -0.610454 -0.792052 1.0
453 1 1.72 3.54 7.0799999 10.6199999 -0.828213 0.560413 1.0
454 1 1.72 5.31 8.8500004 10.6199999 0.363999 -0.931399 1.0
455 1 1.72 5.31 7.0799999 12.3900004 -0.0847977 -0.996398 1.0
456 1 1.72 3.54 8.8500004 12.3900004 -0.776218 -0.630465 1.0
457 1 1.72 7.0799999 7.0799999 10.6199999 -0.702644 -0.711542 1.0
458 1 1.72 8.8500004 8.8500004 10.6199999 0.716438 0.697651 1.0
459 1 1.72 8.8500004 7.0799999 12.3900004 0.996411 -0.0846418 1.0
460 1 1.72 7.0799999 8.8500004 12.3900004 0.822835 -0.56828 1.0
461 1 1.72 10.6199999 7.0799999 10.6199999 -0.965659 0.259811 1.0
462 1 1.72 12.3900004 8.8500004 10.6199999 0.483405 0.875397 1.0
463 1 1.72 12.3900004 7.0799999 12.3900004 -0.483154 -0.875535 1.0
464 1 1.72 10.6199999 8.8500004 12.3900004 0.648037 -0.761609 1.0
465 1 1.72 14.1599999 7.0799999 10.6199999 -0.643312 -0.765604 1.0
466 1 1.72 15.9300004 8.8500004 10.6199999 -0.0657458 -0.997836 1.0
467 1 1.72 15.9300004 7.0799999 12.3900004 -0.00930552 -0.999957 1.0
468 1 1.72 14.1599999 8.8500004 12.3900004 -0.0575205 -0.998344 1.0
469 1 1.72 17.7000008 7.0799999 10.6199999 -0.680492 -0.732755 1.0
470 1 1.72 19.4699993 8.8500004 10.6199999 0.808247 0.588844 1.0
471 1 1.72 19.4699993 7.0799999 12.3900004 -0.401213 -0.915985 1.0
472 1 1.72 17.7000008 8.8500004 12.3900004 -0.65603 -0.754735 1.0
473 1 1.72 21.2399998 7.0799999 10.6199999 -0.780723 0.624877 1.0
474 1 1.72 23.0100002 8.8500004 10.6199999 -0.62541 0.780297 1.0
475 1 1.72 23.0100002 7.0799999 12.3900004 -0.52568 -0.850682 1.0
476 1 1.72 21.2399998 8.8500004 12.3900004 0.32631 0.945263 1.0
477 1 1.72 24.7800007 7.0799999 10.6199999 -0.889809 -0.456334 1.0
478 1 1.72 26.5499993 8.8500004 10.6199999 -0.98862 -0.150436 1.0
479 1 1.72 26.5499993 7.0799999 12.3900004 -0.886254 -0.4632 1.0
480 1 1.72 24.7800007 8.8500004 12.3900004 0.573106 -0.819481 1.0
481 1 1.72 0.0 10.6199999 10.6199999 -0.898685 0.438594 1.0
482 1 1.72 1.77 12.3900004 10.6199999 -0.754171 -0.656678 1.0
483 1 1.72 1.77 10.6199999 12.3900004 -0.108771 -0.994067 1.0
484 1 1.72 0.0 12.3900004 12.3900004 0.483072 -0.87558 1.0
485 1 1.72 3.54 10.6199999 10.6199999 -0.470916 0.882178 1.0
486 1 1.72 5.31 12.3900004 10.6199999 0.3288 0.944399 1.0
487 1 1.72 5.31 10.6199999 12.3900004 0.980535 -0.196343 1.0
488 1 1.72 3.54 12.3900004 12.3900004 0.577396 -0.816465 1.0
489 1 1.72 7.0799999 10.6199999 10.6199999 -0.194592 -0.980884 1.0
490 1 1.72 8.8500004 12.3900004 10.6199999 -0.761101 0.648633 1.0
491 1 1.72 8.8500004 10.6199999 12.3900004 0.999933 0.0116022 1.0
492 1 1.72 7.0799999 12.3900004 12.3900004 0.826207 -0.563367 1.0
493 1 1.72 10.6199999 10.6199999 10.6199999 -0.759279 -0.650766 1.0
494 1 1.72 12.3900004 12.3900004 10.6199999 -0.951485 0.307694 1.0
495 1 1.72 12.3900004 10.6199999 12.3900004 0.537545 -0.843235 1.0
496 1 1.72 10.6199999 12.3900004 12.3900004 0.670975 -0.74148 1.0
497 1 1.72 14.1599999 10.6199999 10.6199999 -0.649814 0.760094 1.0
498 1 1.72 15.9300004 12.3900004 10.6199999 -0.139657 0.9902 1.0
499 1 1.72 15.9300004 10.6199999 12.3900004 -0.705484 0.708726 1.0
500 1 1.72 14.1599999 12.3900004 12.3900004 0.695702 0.71833 1.0
501 1 1.72 17.7000008 10.6199999 10.6199999 -0.798012 0.602641 1.0
502 1 1.72 19.4699993 12.3900004 10.6199999 0.57107 0.820901 1.0
503 1 1.72 19.4699993 10.6199999 12.3900004 0.625346 0.780348 1.0
504 1 1.72 17.7000008 12.3900004 12.3900004 -0.506475 0.862255 1.0
505 1 1.72 21.2399998 10.6199999 10.6199999 0.610099 0.792325 1.0
506 1 1.72 23.0100002 12.3900004 10.6199999 -0.415721 0.909492 1.0
507 1 1.72 23.0100002 10.6199999 12.3900004 0.414542 0.91003 1.0
508 1 1.72 21.2399998 12.3900004 12.3900004 -0.660349 0.750959 1.0
509 1 1.72 24.7800007 10.6199999 10.6199999 0.833053 -0.553193 1.0
510 1 1.72 26.5499993 12.3900004 10.6199999 0.918812 -0.394696 1.0