# LAMMPS data file
10 atoms
10 ellipsoids
8 bonds

4 atom types
1 bond types

# System size
-20.000000 20.000000 xlo xhi
-20.000000 20.000000 ylo yhi
-20.000000 20.000000 zlo zhi

Masses

1 3.1575
2 3.1575
3 3.1575
4 3.1575

# Atom-ID, type, position, molecule-ID, ellipsoid flag, density
Atoms

1 1 0.0000000000000000e+00 0.0000000000000000e+00 0.0000000000000000e+00 1 1 1
2 1 1.3274493266864451e-01 -4.2912827978022683e-01 3.7506163469402809e-01 1 1 1
3 1 4.8460810659772807e-01 -7.0834970533509178e-01 7.5012326938805618e-01 1 1 1
4 1 9.3267359196674593e-01 -7.4012419946742802e-01 1.1251849040820843e+00 1 1 1
5 1 1.3204192238113461e+00 -5.1335201721887447e-01 1.5002465387761124e+00 1 1 1
6 4 1.9958077618865377e-01 5.1335201721887447e-01 1.5002465387761124e+00 1 1 1
7 4 5.8732640803325409e-01 7.4012419946742802e-01 1.1251849040820843e+00 1 1 1
8 4 1.0353918934022719e+00 7.0834970533509178e-01 7.5012326938805618e-01 1 1 1
9 4 1.3872550673313555e+00 4.2912827978022683e-01 3.7506163469402809e-01 1 1 1
10 4 1.5200000000000000e+00 0.0000000000000000e+00 0.0000000000000000e+00 1 1 1

# Atom-ID, translational, rotational velocity
Velocities

1 0.0000000000000000e+00 0.0000000000000000e+00 0.0000000000000000e+00 0.0000000000000000e+00 0.0000000000000000e+00 0.0000000000000000e+00
2 0.0000000000000000e+00 0.0000000000000000e+00 0.0000000000000000e+00 0.0000000000000000e+00 0.0000000000000000e+00 0.0000000000000000e+00
3 0.0000000000000000e+00 0.0000000000000000e+00 0.0000000000000000e+00 0.0000000000000000e+00 0.0000000000000000e+00 0.0000000000000000e+00
4 0.0000000000000000e+00 0.0000000000000000e+00 0.0000000000000000e+00 0.0000000000000000e+00 0.0000000000000000e+00 0.0000000000000000e+00
5 0.0000000000000000e+00 0.0000000000000000e+00 0.0000000000000000e+00 0.0000000000000000e+00 0.0000000000000000e+00 0.0000000000000000e+00
6 0.0000000000000000e+00 0.0000000000000000e+00 0.0000000000000000e+00 0.0000000000000000e+00 0.0000000000000000e+00 0.0000000000000000e+00
7 0.0000000000000000e+00 0.0000000000000000e+00 0.0000000000000000e+00 0.0000000000000000e+00 0.0000000000000000e+00 0.0000000000000000e+00
8 0.0000000000000000e+00 0.0000000000000000e+00 0.0000000000000000e+00 0.0000000000000000e+00 0.0000000000000000e+00 0.0000000000000000e+00
9 0.0000000000000000e+00 0.0000000000000000e+00 0.0000000000000000e+00 0.0000000000000000e+00 0.0000000000000000e+00 0.0000000000000000e+00
10 0.0000000000000000e+00 0.0000000000000000e+00 0.0000000000000000e+00 0.0000000000000000e+00 0.0000000000000000e+00 0.0000000000000000e+00

# Atom-ID, shape, quaternion
Ellipsoids

1 1.1739845031423408e+00 1.1739845031423408e+00 1.1739845031423408e+00 1.0000000000000000e+00 0.0000000000000000e+00 0.0000000000000000e+00 0.0000000000000000e+00
2 1.1739845031423408e+00 1.1739845031423408e+00 1.1739845031423408e+00 9.5533648912560598e-01 0.0000000000000000e+00 0.0000000000000000e+00 2.9552020666133955e-01
3 1.1739845031423408e+00 1.1739845031423408e+00 1.1739845031423408e+00 8.2533561490967822e-01 0.0000000000000000e+00 0.0000000000000000e+00 5.6464247339503526e-01
4 1.1739845031423408e+00 1.1739845031423408e+00 1.1739845031423408e+00 6.2160996827066439e-01 0.0000000000000000e+00 0.0000000000000000e+00 7.8332690962748319e-01
5 1.1739845031423408e+00 1.1739845031423408e+00 1.1739845031423408e+00 3.6235775447667351e-01 0.0000000000000000e+00 0.0000000000000000e+00 9.3203908596722607e-01
6 1.1739845031423408e+00 1.1739845031423408e+00 1.1739845031423408e+00 0.0000000000000000e+00 9.3203908596722607e-01 -3.6235775447667351e-01 0.0000000000000000e+00
7 1.1739845031423408e+00 1.1739845031423408e+00 1.1739845031423408e+00 0.0000000000000000e+00 7.8332690962748319e-01 -6.2160996827066439e-01 0.0000000000000000e+00
8 1.1739845031423408e+00 1.1739845031423408e+00 1.1739845031423408e+00 0.0000000000000000e+00 5.6464247339503526e-01 -8.2533561490967822e-01 0.0000000000000000e+00
9 1.1739845031423408e+00 1.1739845031423408e+00 1.1739845031423408e+00 0.0000000000000000e+00 2.9552020666133955e-01 -9.5533648912560598e-01 0.0000000000000000e+00
10 1.1739845031423408e+00 1.1739845031423408e+00 1.1739845031423408e+00 0.0000000000000000e+00 0.0000000000000000e+00 -1.0000000000000000e+00 0.0000000000000000e+00

# Bond topology
Bonds

1 1 1 2
2 1 2 3
3 1 3 4
4 1 4 5
5 1 6 7
6 1 7 8
7 1 8 9
8 1 9 10
