 Position data for 2 rigid spheres
 
          482   atoms
          2    atom types
   -48.0      48.0       xlo xhi
   -48.0      48.0       ylo yhi
   -48.0      48.0       zlo zhi
 
  Atoms
 
      1      1	    1     -6.0000000  -6.0000000  -6.0000000     
      2      1      2     -6.7952777  -4.4006421  -4.3970064      
      3      1      2     -6.7405150  -4.0805060  -4.7642084      
      4      1      2     -7.0635930  -4.0269889  -5.1420970      
      5      1      2     -6.9102948  -3.8206505  -5.5736202      
      6      1      2     -7.1629508  -3.9005861  -6.0026248      
      7      1      2     -7.5284249  -4.6245350  -4.7622544      
      8      1      2     -7.4734408  -4.3145503  -5.1349960      
      9      1      2     -7.7329999  -4.3958626  -5.5716836      
     10      1      2     -7.5816972  -4.1949471  -5.9957368      
     11      1      2     -7.1999802  -4.6834872  -4.3916338      
     12      1      2     -5.9456722  -4.3526196  -4.2555268      
     13      1      2     -5.9407925  -4.0508260  -4.6009948      
     14      1      2     -6.3094846  -3.9229486  -4.8380717      
     15      1      2     -6.3818784  -4.5418136  -4.1324182      
     16      1      2     -6.8068328  -5.2499343  -3.8677658      
     17      1      2     -6.3950594  -4.9626408  -3.8721338      
     18      1      2     -7.2130891  -5.1099464  -4.1301818      
     19      1      2     -7.8265771  -4.9757623  -4.8275864      
     20      1      2     -7.5436538  -5.4562570  -4.2445864      
     21      1      2     -7.8338039  -5.3576996  -4.5912367      
     22      1      2     -5.1048807  -4.4441784  -4.4068330      
     23      1      2     -5.1488961  -4.1183327  -4.7773183      
     24      1      2     -4.8412821  -4.0771239  -5.1515185      
     25      1      2     -4.9979972  -3.8583817  -5.5883425      
     26      1      2     -4.7642840  -3.9426042  -6.0113608      
     27      1      2     -5.5776821  -3.9411450  -4.8412230      
     28      1      2     -5.5077240  -4.5644710  -4.1407202      
     29      1      2     -7.7586089  -6.2770096  -4.3904780      
     30      1      2     -8.0515736  -6.1253893  -4.7609182      
     31      1      2     -8.2001515  -6.4124252  -5.1344139      
     32      1      2     -8.3524599  -6.2006142  -5.5690863      
     33      1      2     -8.3545801  -6.4646677  -5.9939368      
     34      1      2     -8.0675455  -5.6661016  -4.8279215      
     35      1      2     -7.5022688  -5.9341094  -4.1294794      
     36      1      2     -7.0976014  -6.0743581  -3.8669875      
     37      1      2     -5.9730238  -5.6190570  -3.6305791      
     38      1      2     -6.3420491  -5.8742451  -3.6278304      
     39      1      2     -6.7706933  -5.7271236  -3.7435491      
     40      1      2     -5.9561398  -5.1716011  -3.7479272      
     41      1      2     -5.5194627  -4.9865858  -3.8781904      
     42      1      2     -4.7078155  -4.7446884  -4.4142976      
     43      1      2     -4.3927148  -4.6985244  -4.7822989      
     44      1      2     -4.4405528  -4.3803402  -5.1604604      
     45      1      2     -4.2023727  -4.4635348  -5.5903524      
     46      1      2     -4.3557693  -4.2518140  -6.0187526      
     47      1      2     -6.4903408  -6.6698329  -3.7481363      
     48      1      2     -6.2197822  -6.3089775  -3.6301415      
     49      1      2     -6.9592862  -6.5596456  -3.8724269      
     50      1      2     -7.2110751  -6.8938219  -4.1306739      
     51      1      2     -7.6185403  -6.7518635  -4.3953103      
     52      1      2     -7.7726194  -7.0401864  -4.7607126      
     53      1      2     -8.0542798  -6.8909074  -5.1361602      
     54      1      2     -8.0561386  -7.1598369  -5.5674809      
     55      1      2     -8.2031793  -6.9518203  -5.9937208      
     56      1      2     -4.7168104  -5.1735782  -4.1478520      
     57      1      2     -5.1134539  -5.2927063  -3.8848707      
     58      1      2     -5.1768909  -5.7657673  -3.7577630      
     59      1      2     -5.6097202  -5.8909412  -3.6344581      
     60      1      2     -5.7596531  -6.3242774  -3.6341856      
     61      1      2     -4.1112684  -5.0595209  -4.8562376      
     62      1      2     -4.2310922  -6.3572201  -4.4177991      
     63      1      2     -3.9397694  -6.2161833  -4.7880945      
     64      1      2     -3.8076047  -6.4979682  -5.1601006      
     65      1      2     -3.6515251  -6.2841926  -5.5951538      
     66      1      2     -3.6604108  -6.5348884  -6.0147447      
     67      1      2     -3.9040494  -5.7574153  -4.8562587      
     68      1      2     -4.1182963  -5.4451476  -4.6174913      
     69      1      2     -4.4010966  -5.5325758  -4.2722781      
     70      1      2     -6.9506251  -7.8722988  -4.8377568      
     71      1      2     -6.5075117  -7.9975430  -4.7702624      
     72      1      2     -6.2842778  -8.2255866  -5.1479725      
     73      1      2     -6.5314876  -8.3018016  -5.5766437      
     74      1      2     -6.2854114  -8.3829657  -6.0039208      
     75      1      2     -6.2755344  -7.7717019  -4.4046462      
     76      1      2     -6.5170365  -7.4213959  -4.1365872      
     77      1      2     -6.9891478  -7.3173191  -4.2546469      
     78      1      2     -7.1695994  -7.5566991  -4.5968872      
     79      1      2     -7.5324845  -7.4317062  -4.8330771      
     80      1      2     -4.8022344  -6.9490265  -4.1494037      
     81      1      2     -4.3943534  -6.8245357  -4.4182160      
     82      1      2     -4.4687465  -6.0082061  -4.1519752      
     83      1      2     -4.8688054  -6.1281702  -3.8871887      
     84      1      2     -5.0373232  -6.6047950  -3.8863593      
     85      1      2     -5.5066441  -6.6938624  -3.7560848      
     86      1      2     -5.7777256  -7.7813598  -4.4070933      
     87      1      2     -5.5197225  -7.4445112  -4.1445428      
     88      1      2     -5.7551534  -7.0993829  -3.8807058      
     89      1      2     -6.2642119  -7.0880312  -3.8771763      
     90      1      2     -5.0461565  -7.3605319  -4.2681987      
     91      1      2     -4.8782334  -7.6050254  -4.6123639      
     92      1      2     -5.5555749  -8.0165003  -4.7768020      
     93      1      2     -5.7826688  -8.2331182  -5.1479725      
     94      1      2     -5.5320239  -8.3166130  -5.5825036      
     95      1      2     -5.7736181  -8.3892973  -6.0031528      
     96      1      2     -5.1091648  -7.9075427  -4.8477439      
     97      1      2     -4.2552281  -7.1132012  -4.7848644      
     98      1      2     -3.9709494  -6.9707084  -5.1629341      
     99      1      2     -3.9781973  -7.2264634  -5.5899977      
    100      1      2     -3.8267282  -7.0181313  -6.0172887      
    101      1      2     -4.5113931  -7.4928371  -4.8530529      
    102      1      2     -6.1745939  -3.7324082  -5.2334853      
    103      1      2     -5.7179557  -3.7418356  -5.2376713      
    104      1      2     -6.4416778  -3.6723558  -5.6166025      
    105      1      2     -6.2127659  -3.6098471  -6.0435904      
    106      1      2     -5.4660045  -3.6916829  -5.6172185      
    107      1      2     -5.7081405  -3.6183340  -6.0498532      
    108      1      2     -8.2096805  -5.4766646  -5.2231906      
    109      1      2     -8.0611666  -5.0459535  -5.2245078      
    110      1      2     -8.3495662  -5.7107234  -5.6052112      
    111      1      2     -8.3407755  -5.4711407  -6.0328398      
    112      1      2     -8.0331260  -4.7879827  -5.6032465      
    113      1      2     -8.1794608  -4.9956415  -6.0348556      
    114      1      2     -7.1746606  -7.9460853  -5.2299838      
    115      1      2     -7.5384533  -7.6725739  -5.2282110      
    116      1      2     -6.9976804  -8.1481558  -5.6126228      
    117      1      2     -7.2230459  -8.0646497  -6.0371593      
    118      1      2     -7.7761766  -7.5650782  -5.6053770      
    119      1      2     -7.6255152  -7.7653471  -6.0353595      
    120      1      2     -4.5127778  -7.7256620  -5.2448436      
    121      1      2     -4.8848190  -7.9859965  -5.2435679      
    122      1      2     -4.2684184  -7.6195122  -5.6274336      
    123      1      2     -4.4184165  -7.8045057  -6.0485095      
    124      1      2     -5.0603330  -8.1752054  -5.6185454      
    125      1      2     -4.8270739  -8.0932929  -6.0486775      
    126      1      2     -3.8923944  -5.1305549  -5.2502904      
    127      1      2     -3.7611086  -5.5659007  -5.2523882      
    128      1      2     -3.9187275  -4.8626714  -5.6328640      
    129      1      2     -3.7920107  -5.0610275  -6.0558038      
    130      1      2     -3.6382097  -5.7905610  -5.6284057      
    131      1      2     -3.6449814  -5.5413416  -6.0593308      
    132      1      2     -7.1230241  -4.0343774  -6.7969599      
    133      1      2     -7.4917041  -4.2959302  -6.7943334      
    134      1      2     -7.7338622  -4.3969950  -6.4290657      
    135      1      2     -6.9361472  -3.8320336  -6.4284282      
    136      1      2     -6.9022071  -4.1117633  -7.1749830      
    137      1      2     -7.5007264  -4.5407034  -7.1739993      
    138      1      2     -7.1345113  -4.4282729  -7.4151179      
    139      1      2     -8.2202906  -6.4623921  -6.7851774      
    140      1      2     -8.0838645  -6.8946907  -6.7855175      
    141      1      2     -8.0589712  -7.1596712  -6.4192862      
    142      1      2     -8.3521533  -6.2250375  -6.4203968      
    143      1      2     -8.0798082  -6.2792578  -7.1646517      
    144      1      2     -7.8513989  -6.9814171  -7.1701038      
    145      1      2     -7.8500182  -6.5987835  -7.4067308      
    146      1      2     -7.5135150  -7.6422286  -6.8788390      
    147      1      2     -7.1209463  -7.9318652  -6.8782806      
    148      1      2     -6.9773364  -8.1434442  -6.4587602      
    149      1      2     -7.7669427  -7.5589203  -6.4557209      
    150      1      2     -7.5587960  -7.3361552  -7.2429178      
    151      1      2     -6.8044111  -7.8894085  -7.2421992      
    152      1      2     -6.8431747  -7.5756119  -7.6020312      
    153      1      2     -8.0292813  -5.0696171  -6.8811388      
    154      1      2     -8.1844076  -5.5324168  -6.8773425      
    155      1      2     -8.3414517  -5.7330681  -6.4542598      
    156      1      2     -8.0275531  -4.7996714  -6.4563335      
    157      1      2     -7.7503410  -4.9318773  -7.2471650      
    158      1      2     -8.0456485  -5.8229537  -7.2425688      
    159      1      2     -7.7569463  -5.6900948  -7.6053345      
    160      1      2     -6.2451373  -8.2520538  -6.7925666      
    161      1      2     -5.7944957  -8.2556334  -6.7936539      
    162      1      2     -5.5383532  -8.3148447  -6.4340236      
    163      1      2     -6.5110221  -8.3058625  -6.4264444      
    164      1      2     -6.3800393  -8.0627770  -7.1664140      
    165      1      2     -5.6470426  -8.0656396  -7.1698523      
    166      1      2     -6.0086015  -7.9444180  -7.4068280      
    167      1      2     -4.9117543  -7.9468655  -6.8862487      
    168      1      2     -4.5158847  -7.6656338  -6.8849103      
    169      1      2     -4.2705890  -7.5964195  -6.4696623      
    170      1      2     -5.0655461  -8.1612970  -6.4643184      
    171      1      2     -5.2174595  -7.8964183  -7.2454832      
    172      1      2     -4.4614009  -7.3539758  -7.2487845      
    173      1      2     -4.7724191  -7.2946057  -7.6053166      
    174      1      2     -3.9414374  -6.9367351  -6.8030241      
    175      1      2     -3.7972992  -6.5102837  -6.8048105      
    176      1      2     -3.6594813  -6.2870468  -6.4467399      
    177      1      2     -3.9713955  -7.2058720  -6.4366198      
    178      1      2     -4.1645984  -7.0057108  -7.1746690      
    179      1      2     -3.9338575  -6.3111680  -7.1807752      
    180      1      2     -4.1628098  -6.6170472  -7.4156218      
    181      1      2     -3.8154809  -5.5743119  -6.8981462      
    182      1      2     -3.9593523  -5.1079932  -6.8944727      
    183      1      2     -3.9464260  -4.8534471  -6.4777559      
    184      1      2     -3.6570583  -5.7885109  -6.4752860      
    185      1      2     -3.9608279  -5.8499439  -7.2566864      
    186      1      2     -4.2414948  -4.9585858  -7.2582195      
    187      1      2     -4.3965914  -5.2378194  -7.6149805      
    188      1      2     -4.4739317  -4.3325223  -6.8066191      
    189      1      2     -4.8350047  -4.0621067  -6.8045844      
    190      1      2     -5.0026703  -3.8626372  -6.4438628      
    191      1      2     -4.2247888  -4.4460632  -6.4403480      
    192      1      2     -4.4799961  -4.5665028  -7.1809633      
    193      1      2     -5.0693927  -4.1300456  -7.1820496      
    194      1      2     -4.8504474  -4.4439617  -7.4203078      
    195      1      2     -5.7325882  -3.7887189  -6.8937155      
    196      1      2     -6.2221540  -3.7814851  -6.8881665      
    197      1      2     -6.4613934  -3.6915699  -6.4671908      
    198      1      2     -5.4768490  -3.7052483  -6.4694975      
    199      1      2     -5.5165937  -4.0127236  -7.2558070      
    200      1      2     -6.4543644  -4.0046476  -7.2538430      
    201      1      2     -6.2368896  -4.2397517  -7.6141281      
    202      1      2     -5.4990325  -4.5859278  -7.8733478      
    203      1      2     -5.7462228  -4.2440000  -7.6161874      
    204      1      2     -5.0328870  -4.6873014  -7.7611120      
    205      1      2     -4.7983310  -5.1007559  -7.8727926      
    206      1      2     -4.4957731  -6.0464201  -7.8695313      
    207      1      2     -4.2498222  -5.7047583  -7.6154598      
    208      1      2     -4.4481398  -6.5204207  -7.7552472      
    209      1      2     -4.7658651  -6.8718496  -7.8646152      
    210      1      2     -5.5668285  -7.4520812  -7.8611349      
    211      1      2     -5.1681199  -7.5787775  -7.6048170      
    212      1      2     -6.0029659  -7.6443452  -7.7481763      
    213      1      2     -6.4359404  -7.4519906  -7.8605590      
    214      1      2     -7.2404643  -6.8683558  -7.8620438      
    215      1      2     -7.2386250  -7.2873173  -7.6026923      
    216      1      2     -7.5608237  -6.5123820  -7.7496555      
    217      1      2     -7.5109703  -6.0405531  -7.8642223      
    218      1      2     -7.2015713  -5.0939277  -7.8695614      
    219      1      2     -7.6030838  -5.2238764  -7.6086501      
    220      1      2     -6.9604988  -4.6788626  -7.7584193      
    221      1      2     -6.4934515  -4.5824546  -7.8727175      
    222      1      2     -5.5085670  -5.3353900  -8.2531728      
    223      1      2     -5.7462781  -4.9203051  -8.1283526      
    224      1      2     -5.0407525  -5.4355019  -8.1263082      
    225      1      2     -5.7737388  -5.7012777  -8.3705635      
    226      1      2     -5.2052286  -6.2702555  -8.2483996      
    227      1      2     -4.8867707  -5.9153629  -8.1245135      
    228      1      2     -5.1559840  -6.7455380  -8.1193892      
    229      1      2     -5.6334957  -6.1315014  -8.3682024      
    230      1      2     -5.9978064  -6.8481561  -8.2451340      
    231      1      2     -5.5624203  -7.0406368  -8.1179234      
    232      1      2     -6.4355734  -7.0418454  -8.1177428      
    233      1      2     -5.9985768  -6.3979494  -8.3667773      
    234      1      2     -6.7950195  -6.2721742  -8.2480804      
    235      1      2     -6.8443240  -6.7464696  -8.1189386      
    236      1      2     -7.1169660  -5.9149325  -8.1225341      
    237      1      2     -6.3654414  -6.1329795  -8.3682841      
    238      1      2     -6.4919254  -5.3357825  -8.2531811      
    239      1      2     -6.9606836  -5.4343377  -8.1253502      
    240      1      2     -6.2510842  -4.9190988  -8.1280530      
    241      1      2     -6.2263758  -5.7019597  -8.3706384      
    242      2      1      6.0000000   6.0000000   6.0000000      
    243      2      2      5.2047223   7.5993579   7.6029936      
    244      2      2      5.2594850   7.9194940   7.2357916      
    245      2      2      4.9364070   7.9730111   6.8579030      
    246      2      2      5.0897052   8.1793495   6.4263798      
    247      2      2      4.8370492   8.0994139   5.9973752      
    248      2      2      4.4715751   7.3754650   7.2377456      
    249      2      2      4.5265592   7.6854497   6.8650040      
    250      2      2      4.2670001   7.6041374   6.4283164      
    251      2      2      4.4183028   7.8050529   6.0042632      
    252      2      2      4.8000198   7.3165128   7.6083662      
    253      2      2      6.0543278   7.6473804   7.7444732      
    254      2      2      6.0592075   7.9491740   7.3990052      
    255      2      2      5.6905154   8.0770514   7.1619283      
    256      2      2      5.6181216   7.4581864   7.8675818      
    257      2      2      5.1931672   6.7500657   8.1322342      
    258      2      2      5.6049406   7.0373592   8.1278662      
    259      2      2      4.7869109   6.8900536   7.8698182      
    260      2      2      4.1734229   7.0242377   7.1724136      
    261      2      2      4.4563462   6.5437430   7.7554136      
    262      2      2      4.1661961   6.6423004   7.4087633      
    263      2      2      6.8951193   7.5558216   7.5931670      
    264      2      2      6.8511039   7.8816673   7.2226817      
    265      2      2      7.1587179   7.9228761   6.8484815      
    266      2      2      7.0020028   8.1416183   6.4116575      
    267      2      2      7.2357160   8.0573958   5.9886392      
    268      2      2      6.4223179   8.0588550   7.1587770      
    269      2      2      6.4922760   7.4355290   7.8592798      
    270      2      2      4.2413911   5.7229904   7.6095220      
    271      2      2      3.9484264   5.8746107   7.2390818      
    272      2      2      3.7998485   5.5875748   6.8655861      
    273      2      2      3.6475401   5.7993858   6.4309137      
    274      2      2      3.6454199   5.5353323   6.0060632      
    275      2      2      3.9324545   6.3338984   7.1720785      
    276      2      2      4.4977312   6.0658906   7.8705206      
    277      2      2      4.9023986   5.9256419   8.1330125      
    278      2      2      6.0269762   6.3809430   8.3694209      
    279      2      2      5.6579509   6.1257549   8.3721696      
    280      2      2      5.2293067   6.2728764   8.2564509      
    281      2      2      6.0438602   6.8283989   8.2520728      
    282      2      2      6.4805373   7.0134142   8.1218096      
    283      2      2      7.2921845   7.2553116   7.5857024      
    284      2      2      7.6072852   7.3014756   7.2177011      
    285      2      2      7.5594472   7.6196598   6.8395396      
    286      2      2      7.7976273   7.5364652   6.4096476      
    287      2      2      7.6442307   7.7481860   5.9812474      
    288      2      2      5.5096592   5.3301671   8.2518637      
    289      2      2      5.7802178   5.6910225   8.3698585      
    290      2      2      5.0407138   5.4403544   8.1275731      
    291      2      2      4.7889249   5.1061781   7.8693261      
    292      2      2      4.3814597   5.2481365   7.6046897      
    293      2      2      4.2273806   4.9598136   7.2392874      
    294      2      2      3.9457202   5.1090926   6.8638398      
    295      2      2      3.9438614   4.8401631   6.4325191      
    296      2      2      3.7968207   5.0481797   6.0062792      
    297      2      2      7.2831896   6.8264218   7.8521480      
    298      2      2      6.8865461   6.7072937   8.1151293      
    299      2      2      6.8231091   6.2342327   8.2422370      
    300      2      2      6.3902798   6.1090588   8.3655419      
    301      2      2      6.2403469   5.6757226   8.3658144      
    302      2      2      7.8887316   6.9404791   7.1437624      
    303      2      2      7.7689078   5.6427799   7.5822009      
    304      2      2      8.0602306   5.7838167   7.2119055      
    305      2      2      8.1923953   5.5020318   6.8398994      
    306      2      2      8.3484749   5.7158074   6.4048462      
    307      2      2      8.3395892   5.4651116   5.9852553      
    308      2      2      8.0959506   6.2425847   7.1437413      
    309      2      2      7.8817037   6.5548524   7.3825087      
    310      2      2      7.5989034   6.4674242   7.7277219      
    311      2      2      5.0493749   4.1277012   7.1622432      
    312      2      2      5.4924883   4.0024570   7.2297376      
    313      2      2      5.7157222   3.7744134   6.8520275      
    314      2      2      5.4685124   3.6981984   6.4233563      
    315      2      2      5.7145886   3.6170343   5.9960792      
    316      2      2      5.7244656   4.2282981   7.5953538      
    317      2      2      5.4829635   4.5786041   7.8634128      
    318      2      2      5.0108522   4.6826809   7.7453531      
    319      2      2      4.8304006   4.4433009   7.4031128      
    320      2      2      4.4675155   4.5682938   7.1669229      
    321      2      2      7.1977656   5.0509735   7.8505963      
    322      2      2      7.6056466   5.1754643   7.5817840      
    323      2      2      7.5312535   5.9917939   7.8480248      
    324      2      2      7.1311946   5.8718298   8.1128113      
    325      2      2      6.9626768   5.3952050   8.1136407      
    326      2      2      6.4933559   5.3061376   8.2439152      
    327      2      2      6.2222744   4.2186402   7.5929067      
    328      2      2      6.4802775   4.5554888   7.8554572      
    329      2      2      6.2448466   4.9006171   8.1192942      
    330      2      2      5.7357881   4.9119688   8.1228237      
    331      2      2      6.9538435   4.6394681   7.7318013      
    332      2      2      7.1217666   4.3949746   7.3876361      
    333      2      2      6.4444251   3.9834997   7.2231980      
    334      2      2      6.2173312   3.7668818   6.8520275      
    335      2      2      6.4679761   3.6833870   6.4174964      
    336      2      2      6.2263819   3.6107027   5.9968472      
    337      2      2      6.8908352   4.0924573   7.1522561      
    338      2      2      7.7447719   4.8867988   7.2151356      
    339      2      2      8.0290506   5.0292916   6.8370659      
    340      2      2      8.0218027   4.7735366   6.4100023      
    341      2      2      8.1732718   4.9818687   5.9827113      
    342      2      2      7.4886069   4.5071629   7.1469471      
    343      2      2      5.8254061   8.2675918   6.7665147      
    344      2      2      6.2820443   8.2581644   6.7623287      
    345      2      2      5.5583222   8.3276442   6.3833975      
    346      2      2      5.7872341   8.3901529   5.9564096      
    347      2      2      6.5339955   8.3083171   6.3827815      
    348      2      2      6.2918595   8.3816660   5.9501468      
    349      2      2      3.7903195   6.5233354   6.7768094      
    350      2      2      3.9388334   6.9540465   6.7754922      
    351      2      2      3.6504338   6.2892766   6.3947888      
    352      2      2      3.6592245   6.5288593   5.9671602      
    353      2      2      3.9668740   7.2120173   6.3967535      
    354      2      2      3.8205392   7.0043585   5.9651444      
    355      2      2      4.8253394   4.0539147   6.7700162      
    356      2      2      4.4615467   4.3274261   6.7717890      
    357      2      2      5.0023196   3.8518442   6.3873772      
    358      2      2      4.7769541   3.9353503   5.9628407      
    359      2      2      4.2238234   4.4349218   6.3946230      
    360      2      2      4.3744848   4.2346529   5.9646405      
    361      2      2      7.4872222   4.2743380   6.7551564      
    362      2      2      7.1151810   4.0140035   6.7564321      
    363      2      2      7.7315816   4.3804878   6.3725664      
    364      2      2      7.5815835   4.1954943   5.9514905      
    365      2      2      6.9396670   3.8247946   6.3814546      
    366      2      2      7.1729261   3.9067071   5.9513225      
    367      2      2      8.1076056   6.8694451   6.7497096      
    368      2      2      8.2388914   6.4340993   6.7476118      
    369      2      2      8.0812725   7.1373286   6.3671360      
    370      2      2      8.2079893   6.9389725   5.9441962      
    371      2      2      8.3617903   6.2094390   6.3715943      
    372      2      2      8.3550186   6.4586584   5.9406692      
    373      2      2      4.8769759   7.9656226   5.2030401      
    374      2      2      4.5082959   7.7040698   5.2056666      
    375      2      2      4.2661378   7.6030050   5.5709343      
    376      2      2      5.0638528   8.1679664   5.5715718      
    377      2      2      5.0977929   7.8882367   4.8250170      
    378      2      2      4.4992736   7.4592966   4.8260007      
    379      2      2      4.8654887   7.5717271   4.5848821      
    380      2      2      3.7797094   5.5376079   5.2148226      
    381      2      2      3.9161355   5.1053093   5.2144825      
    382      2      2      3.9410288   4.8403288   5.5807138      
    383      2      2      3.6478467   5.7749625   5.5796032      
    384      2      2      3.9201918   5.7207422   4.8353483      
    385      2      2      4.1486011   5.0185829   4.8298962      
    386      2      2      4.1499818   5.4012165   4.5932692      
    387      2      2      4.4864850   4.3577714   5.1211610      
    388      2      2      4.8790537   4.0681348   5.1217194      
    389      2      2      5.0226636   3.8565558   5.5412398      
    390      2      2      4.2330573   4.4410797   5.5442791      
    391      2      2      4.4412040   4.6638448   4.7570822      
    392      2      2      5.1955889   4.1105915   4.7578008      
    393      2      2      5.1568253   4.4243881   4.3979688      
    394      2      2      3.9707187   6.9303829   5.1188612      
    395      2      2      3.8155924   6.4675832   5.1226575      
    396      2      2      3.6585483   6.2669319   5.5457402      
    397      2      2      3.9724469   7.2003286   5.5436665      
    398      2      2      4.2496590   7.0681227   4.7528350      
    399      2      2      3.9543515   6.1770463   4.7574312      
    400      2      2      4.2430537   6.3099052   4.3946655      
    401      2      2      5.7548627   3.7479462   5.2074334      
    402      2      2      6.2055043   3.7443666   5.2063461      
    403      2      2      6.4616468   3.6851553   5.5659764      
    404      2      2      5.4889779   3.6941375   5.5735556      
    405      2      2      5.6199607   3.9372230   4.8335860      
    406      2      2      6.3529574   3.9343604   4.8301477      
    407      2      2      5.9913985   4.0555820   4.5931720      
    408      2      2      7.0882457   4.0531345   5.1137513      
    409      2      2      7.4841153   4.3343662   5.1150897      
    410      2      2      7.7294110   4.4035805   5.5303377      
    411      2      2      6.9344539   3.8387030   5.5356816      
    412      2      2      6.7825405   4.1035817   4.7545168      
    413      2      2      7.5385991   4.6460242   4.7512155      
    414      2      2      7.2275809   4.7053943   4.3946834      
    415      2      2      8.0585626   5.0632649   5.1969759      
    416      2      2      8.2027008   5.4897163   5.1951895      
    417      2      2      8.3405187   5.7129532   5.5532601      
    418      2      2      8.0286045   4.7941280   5.5633802      
    419      2      2      7.8354016   4.9942892   4.8253310      
    420      2      2      8.0661425   5.6888320   4.8192248      
    421      2      2      7.8371902   5.3829528   4.5843782      
    422      2      2      8.1845191   6.4256881   5.1018538      
    423      2      2      8.0406477   6.8920068   5.1055273      
    424      2      2      8.0535740   7.1465529   5.5222441      
    425      2      2      8.3429417   6.2114891   5.5247140      
    426      2      2      8.0391721   6.1500561   4.7433136      
    427      2      2      7.7585052   7.0414142   4.7417805      
    428      2      2      7.6034086   6.7621806   4.3850195      
    429      2      2      7.5260683   7.6674777   5.1933809      
    430      2      2      7.1649953   7.9378933   5.1954156      
    431      2      2      6.9973297   8.1373628   5.5561372      
    432      2      2      7.7752112   7.5539368   5.5596520      
    433      2      2      7.5200039   7.4334972   4.8190367      
    434      2      2      6.9306073   7.8699544   4.8179504      
    435      2      2      7.1495526   7.5560383   4.5796922      
    436      2      2      6.2674118   8.2112811   5.1062845      
    437      2      2      5.7778460   8.2185149   5.1118335      
    438      2      2      5.5386066   8.3084301   5.5328092      
    439      2      2      6.5231510   8.2947517   5.5305025      
    440      2      2      6.4834063   7.9872764   4.7441930      
    441      2      2      5.5456356   7.9953524   4.7461570      
    442      2      2      5.7631104   7.7602483   4.3858719      
    443      2      2      6.5009675   7.4140722   4.1266522      
    444      2      2      6.2537772   7.7560000   4.3838126      