LAMMPS (16 Aug 2013)
Scanning data file ...
Reading data file ...
  orthogonal box = (-48 -48 -48) to (48 48 48)
  2 by 2 by 2 MPI processor grid
  482 atoms
Finding 1-2 1-3 1-4 neighbors ...
  0 = max # of 1-2 neighbors
  0 = max # of 1-3 neighbors
  0 = max # of 1-4 neighbors
  1 = max # of special neighbors
2 atoms in group ForceAtoms
480 atoms in group FluidAtoms
Using a lattice-Boltzmann grid of 80 by 80 by 80 total grid points. (../fix_lb_fluid.cpp:354)
2 rigid bodies with 482 atoms
Setting up run ...
Memory usage per processor = 4.12283 Mbytes
x1 y1 z1 x2 y2 z2 
          -6           -6           -6            6            6            6 
  -5.9985199    -6.000125   -5.9994901    6.0001659    5.9999769    5.9980882 
  -5.9982832   -5.9987049   -5.9993183    6.0016107    5.9994162     5.995622 
  -6.0012125   -5.9994562   -5.9999912    6.0042374    5.9991729    5.9954438 
  -6.0024284   -5.9987034   -6.0019865    6.0054613    5.9994991    5.9970302 
  -6.0024505   -5.9980627    -6.003147    6.0079357    5.9998624    5.9988035 
  -6.0014531   -5.9969096   -6.0028858    6.0074402    6.0001787    6.0042409 
  -6.0016139    -5.995941   -6.0025533    6.0037277    5.9989817    6.0069281 
  -5.9997607   -5.9953429   -6.0015966    5.9993463    5.9959678    6.0071693 
  -5.9995701   -5.9954589   -6.0021678    5.9955739    5.9930426    6.0068446 
  -6.0002855   -5.9967853   -6.0041585    5.9951333    5.9911411    6.0073839 
  -6.0004996   -5.9955268   -6.0045215    5.9960368    5.9918278    6.0052117 
  -6.0011135   -5.9942184    -6.003441    5.9969463    5.9933248    6.0052012 
  -6.0038275   -5.9907244   -6.0039411    5.9964856    5.9955647     6.004271 
  -6.0038504   -5.9877656   -6.0028048    5.9949006    5.9978735    6.0056423 
  -6.0025209   -5.9840708   -6.0041185    5.9933379    5.9986733    6.0073986 
  -6.0024551   -5.9797904   -6.0043488    5.9914254    5.9976994    6.0099072 
  -6.0015455   -5.9781107   -6.0077578    5.9915614    5.9966857    6.0116505 
  -6.0005603   -5.9747152   -6.0094324    5.9891127    5.9961919    6.0141062 
  -5.9989997   -5.9706845   -6.0099085    5.9864504    5.9981332    6.0176168 
  -6.0002402   -5.9686199   -6.0110723    5.9828427    6.0004266    6.0182206 
  -6.0010871    -5.968682   -6.0123641    5.9785155    6.0004319    6.0202376 
  -6.0027682    -5.968784   -6.0110267    5.9761331     6.001758    6.0234341 
  -6.0052691   -5.9688457   -6.0103423    5.9773952    6.0000137    6.0239851 
  -6.0089085   -5.9700871   -6.0121727    5.9783033    6.0001082    6.0242119 
  -6.0088541   -5.9671456   -6.0130569    5.9787471    5.9988062    6.0267979 
  -6.0079669   -5.9670537   -6.0120456    5.9814461    5.9989286    6.0302925 
  -6.0080741   -5.9677149   -6.0112797     5.981807    5.9988692     6.031694 
  -6.0094404   -5.9718416   -6.0109624    5.9830949    5.9991557    6.0315252 
  -6.0090385   -5.9753227    -6.009993     5.984297    5.9980136    6.0315923 
   -6.008507   -5.9772497   -6.0109907    5.9874448    5.9961984    6.0328989 
  -6.0107964   -5.9795205   -6.0122571    5.9865236    5.9956411    6.0373119 
  -6.0097877   -5.9824397   -6.0120194    5.9834503    5.9946747    6.0367262 
  -6.0114642      -5.9818   -6.0126778    5.9810408    5.9964676    6.0389389 
  -6.0134359   -5.9851117   -6.0124288    5.9789539    5.9970967    6.0398182 
  -6.0157746   -5.9882298   -6.0130051    5.9786918    5.9974901    6.0413764 
  -6.0188877   -5.9912445   -6.0152142    5.9761989      6.00065    6.0423975 
  -6.0232211   -5.9923534   -6.0168083    5.9727461    6.0021674     6.042496 
  -6.0223737   -5.9912428   -6.0178721    5.9726063    6.0029969    6.0414428 
  -6.0209693   -5.9906991   -6.0196792    5.9711717    6.0039017    6.0426028 
  -6.0195529   -5.9885321   -6.0182768    5.9748729    6.0023407    6.0434914 
  -6.0189634   -5.9845339   -6.0160292    5.9776734     6.003604    6.0409069 
  -6.0189702   -5.9831887   -6.0124712    5.9814282    6.0062183    6.0371963 
  -6.0172943   -5.9802151   -6.0115366    5.9821275    6.0070386    6.0334672 
  -6.0158786   -5.9780599   -6.0119698    5.9822695    6.0063095    6.0331025 
  -6.0168683   -5.9778877   -6.0137039    5.9867904     6.004987    6.0325182 
  -6.0169911   -5.9775704   -6.0145668    5.9902588    6.0048811    6.0335273 
   -6.017001   -5.9785936    -6.015148    5.9945174    6.0024154    6.0351946 
  -6.0167621   -5.9815276   -6.0168016    5.9976279     6.001729    6.0361806 
  -6.0149478   -5.9837038   -6.0205683    6.0024564    6.0010164     6.037295 
  -6.0158889    -5.986985   -6.0240177    6.0055633    5.9990279    6.0391166 
  -6.0151557   -5.9886951   -6.0227774    6.0067829    5.9990093    6.0414874 
  -6.0127633   -5.9876213   -6.0231348    6.0064228    5.9997995    6.0403574 
  -6.0104157   -5.9857236   -6.0233103    6.0065415    5.9979164     6.040945 
  -6.0087863   -5.9874676   -6.0251503    6.0056364    5.9988055     6.039479 
  -6.0108641   -5.9898372   -6.0252037    6.0026023    6.0004437    6.0383324 
  -6.0159213   -5.9886638   -6.0241971    5.9992723    6.0001799    6.0378447 
  -6.0188982   -5.9894225   -6.0212636    5.9988997    6.0008095    6.0366864 
  -6.0178954   -5.9905392   -6.0190242    5.9998163    6.0009151    6.0341716 
  -6.0176189   -5.9925662   -6.0186986    6.0026893    5.9992563    6.0344704 
  -6.0166415   -5.9930067   -6.0181146    6.0054005    6.0011334    6.0361023 
    -6.01668    -5.993722   -6.0169077    6.0084836    6.0002779    6.0348736 
  -6.0147948   -5.9942844    -6.018007     6.010469    6.0025048    6.0328953 
  -6.0137911   -5.9961526    -6.018869    6.0097841    6.0035706    6.0296487 
  -6.0135975    -5.999056   -6.0194617    6.0098163    6.0050731    6.0290377 
  -6.0121257   -5.9999058   -6.0196414    6.0101276    6.0081282    6.0264807 
  -6.0107548   -6.0036248   -6.0191945    6.0108488    6.0083845    6.0248975 
  -6.0120284   -6.0067267   -6.0186078     6.012334    6.0071147    6.0225454 
  -6.0140683   -6.0093343   -6.0177415    6.0122271     6.006086    6.0241907 
  -6.0122185   -6.0119402   -6.0169285    6.0150921    6.0074931    6.0234485 
  -6.0094627   -6.0130016   -6.0143338    6.0163992    6.0058623     6.026581 
  -6.0046949   -6.0146027   -6.0123695     6.017367      6.00528    6.0262997 
  -6.0016834   -6.0149122   -6.0098245    6.0194323    6.0044597    6.0259802 
  -6.0008456   -6.0146161   -6.0086524    6.0207641    6.0058193    6.0250762 
  -5.9984621   -6.0164603   -6.0073795    6.0256525    6.0072101    6.0249306 
  -5.9991109   -6.0167631   -6.0069131    6.0290815    6.0065939    6.0251663 
  -5.9966855    -6.018787   -6.0062457    6.0359276    6.0038335    6.0271653 
  -5.9944276   -6.0173971   -6.0026983    6.0392055    6.0015637    6.0303112 
   -5.992878   -6.0183894   -6.0015279    6.0432034    6.0004908    6.0327707 
  -5.9919472   -6.0162626   -6.0045516    6.0470556    6.0034776    6.0337266 
  -5.9898692   -6.0149073   -6.0045198    6.0511279     6.010547    6.0336349 
  -5.9871932   -6.0155686   -6.0028501    6.0564516    6.0183516    6.0333125 
  -5.9855996   -6.0169781   -6.0018858    6.0625884    6.0227345    6.0318093 
  -5.9839159   -6.0212595   -6.0003246    6.0674105    6.0255097    6.0301663 
  -5.9815042   -6.0214163   -5.9994072    6.0696523    6.0279119    6.0292879 
  -5.9816687   -6.0211298   -5.9974825    6.0723059    6.0294797    6.0278155 
  -5.9830986    -6.021518   -5.9967049    6.0741257    6.0284192    6.0246984 
  -5.9840943     -6.02003   -5.9973295    6.0749556    6.0299396    6.0223706 
   -5.986744   -6.0180463   -5.9963098    6.0763108    6.0300042    6.0203624 
  -5.9846753   -6.0149669   -5.9975679    6.0782609    6.0321708    6.0185984 
  -5.9813797    -6.014431   -5.9982858    6.0803085    6.0354195    6.0177145 
  -5.9760665   -6.0129332   -5.9976809    6.0829279    6.0382693      6.01622 
  -5.9692174   -6.0098163   -5.9975695    6.0858661    6.0396664    6.0181582 
  -5.9671494   -6.0085872   -5.9944076    6.0869716    6.0426318    6.0206483 
  -5.9645168   -6.0077462   -5.9932254    6.0884103    6.0438696    6.0211677 
  -5.9645433   -6.0043396   -5.9930554    6.0898752    6.0423017    6.0228596 
  -5.9644634   -6.0023119   -5.9931601    6.0903864    6.0422742     6.023319 
  -5.9656888   -6.0034504   -5.9923068    6.0917724    6.0407275    6.0232878 
  -5.9671667   -6.0019185    -5.992713    6.0940754    6.0394202    6.0222735 
   -5.966396   -6.0019983   -5.9946332    6.0965202     6.036091    6.0229851 
  -5.9649332   -6.0035024   -5.9939994    6.0998394    6.0332572    6.0239059 
  -5.9637282   -6.0024042   -5.9956371    6.1030713    6.0303899    6.0254958 
  -5.9618254   -6.0031171   -5.9958871    6.1055479    6.0285884    6.0268458 
  -5.9595865   -6.0024817   -5.9954754    6.1097101    6.0293984    6.0290955 
  -5.9584559   -5.9989062   -5.9935674    6.1129835    6.0280999     6.031122 
  -5.9584848   -5.9950647   -5.9929756    6.1131214    6.0267988    6.0344934 
  -5.9579432   -5.9915046   -5.9935401    6.1151859    6.0261145     6.035509 
  -5.9550678   -5.9890585   -5.9945448    6.1175255    6.0245567    6.0357305 
  -5.9535804   -5.9855322   -5.9938393    6.1189508    6.0248164    6.0363933 
  -5.9525771   -5.9839015   -5.9954627    6.1198287    6.0234607    6.0386824 
  -5.9515934   -5.9834084   -5.9960308    6.1227793    6.0233992    6.0418798 
  -5.9532506   -5.9836489   -5.9943601     6.126942    6.0242005    6.0429536 
   -5.956254    -5.984873   -5.9921355    6.1301001     6.025837    6.0433953 
  -5.9579301   -5.9844608   -5.9916283    6.1330859    6.0265562    6.0439204 
  -5.9576073   -5.9846309    -5.989191    6.1357223    6.0253985    6.0455582 
  -5.9580902   -5.9856668   -5.9910533    6.1349968    6.0247644    6.0463997 
  -5.9592548   -5.9854639    -5.991526    6.1367664    6.0233052    6.0492161 
  -5.9593708   -5.9852681   -5.9933818    6.1395484    6.0231876    6.0494477 
   -5.958364   -5.9834303   -5.9957631    6.1429529     6.022828    6.0527248 
  -5.9617876    -5.983314   -5.9978838    6.1469169    6.0205391    6.0531496 
   -5.963489   -5.9839484   -5.9986146    6.1493792    6.0207638     6.053261 
  -5.9630752   -5.9837707   -5.9971869    6.1508517    6.0193789    6.0542398 
  -5.9627067   -5.9833003   -5.9958819    6.1543759    6.0181642    6.0563189 
  -5.9617076   -5.9832809   -5.9945584    6.1560155    6.0189906    6.0579145 
  -5.9595486   -5.9834339   -5.9938231    6.1582846    6.0210702    6.0597553 
  -5.9585195   -5.9845766   -5.9956023    6.1608007    6.0224292    6.0593911 
  -5.9588572   -5.9859771   -5.9938357    6.1616316      6.02254    6.0596835 
  -5.9588541    -5.988253    -5.993386    6.1625944    6.0251093    6.0607633 
  -5.9592158   -5.9923769    -5.990654    6.1619406    6.0273727    6.0607384 
  -5.9567738     -5.99572   -5.9888039     6.162567    6.0270214    6.0583486 
  -5.9520737   -6.0005496   -5.9884902    6.1632114     6.025211    6.0563756 
   -5.946292   -6.0047741   -5.9863001    6.1619813    6.0239353    6.0569068 
  -5.9454426   -6.0070875   -5.9833727    6.1624441    6.0245689    6.0574395 
  -5.9447411   -6.0085317   -5.9814554    6.1607623    6.0245766    6.0561558 
   -5.943977   -6.0085721   -5.9804862    6.1583955    6.0233966    6.0564304 
  -5.9437039   -6.0085815    -5.976678    6.1588008    6.0228212    6.0561601 
  -5.9432422   -6.0110955   -5.9717346    6.1592247    6.0212644    6.0565598 
  -5.9396797   -6.0109762   -5.9676278     6.159102    6.0205616    6.0586426 
  -5.9386058   -6.0095018   -5.9627196    6.1605326    6.0199474    6.0616926 
  -5.9372905   -6.0091515   -5.9578761    6.1615862    6.0198393    6.0643139 
  -5.9381948   -6.0095904   -5.9552405    6.1617579    6.0183412    6.0662441 
  -5.9362768   -6.0113382   -5.9520024    6.1623697    6.0168372    6.0691207 
  -5.9344002   -6.0130802   -5.9506146    6.1618456    6.0153018    6.0712176 
  -5.9351589   -6.0175042    -5.949859    6.1610251    6.0162066    6.0719622 
  -5.9336734   -6.0193417   -5.9475786    6.1638702    6.0166112     6.074913 
  -5.9314646   -6.0196497   -5.9454897    6.1651045    6.0149985    6.0757203 
  -5.9295066   -6.0195036   -5.9430834    6.1645629    6.0160984    6.0756425 
  -5.9297968   -6.0175949   -5.9408372    6.1660064    6.0159827    6.0747318 
  -5.9312855   -6.0188714    -5.938879     6.165404    6.0176851     6.077433 
   -5.932532   -6.0190407    -5.937765    6.1664116    6.0192972    6.0793867 
  -5.9337737   -6.0198809   -5.9384507    6.1676322    6.0222222    6.0814128 
  -5.9346939   -6.0200181   -5.9393037    6.1687188    6.0240054    6.0858722 
  -5.9372182   -6.0206532   -5.9396285    6.1700731    6.0255219     6.090616 
  -5.9389662   -6.0199973   -5.9398257     6.172816    6.0286703    6.0947958 
  -5.9394557   -6.0205843   -5.9376064    6.1751411     6.030339    6.0957048 
  -5.9404987   -6.0196656   -5.9362603    6.1751343    6.0309015     6.096123 
  -5.9434785   -6.0197105   -5.9311951    6.1735015    6.0316131    6.0973713 
  -5.9466946   -6.0209657   -5.9296026    6.1712268    6.0350393    6.0985376 
  -5.9492042   -6.0205199   -5.9284137    6.1702953    6.0367321    6.0988732 
  -5.9502023   -6.0246372   -5.9278585    6.1688696    6.0376555    6.0966611 
  -5.9521661   -6.0280695   -5.9263304    6.1686015     6.039927    6.0980554 
  -5.9550757   -6.0336454   -5.9258418    6.1681744    6.0433182    6.0999809 
  -5.9554388   -6.0386568   -5.9248012    6.1686764    6.0451659    6.1020249 
  -5.9563622   -6.0396012   -5.9239732    6.1681051    6.0476249    6.1022038 
  -5.9592597   -6.0406163   -5.9256575    6.1646993    6.0504506    6.1031274 
  -5.9642467   -6.0372732   -5.9265134    6.1591947    6.0525093    6.1016808 
  -5.9656078   -6.0334002   -5.9275151    6.1524589    6.0552502    6.1024524 
  -5.9663911   -6.0315541   -5.9287397    6.1466441    6.0574657    6.1033327 
  -5.9644849   -6.0322157   -5.9283159    6.1413053    6.0584492    6.1032823 
  -5.9660809   -6.0341595   -5.9296243    6.1385091    6.0577902    6.1028978 
  -5.9682756   -6.0346957   -5.9314808    6.1367998    6.0579331    6.1016308 
  -5.9692504   -6.0343878   -5.9336377    6.1340321    6.0595072    6.1021536 
  -5.9694878   -6.0317626   -5.9351434    6.1318289    6.0578417     6.105009 
  -5.9688164   -6.0305345   -5.9336697    6.1344575    6.0597711    6.1052912 
  -5.9664485   -6.0280799   -5.9335031    6.1320036    6.0616578     6.106097 
   -5.966119   -6.0251045   -5.9365991    6.1286799    6.0626803     6.106311 
  -5.9666268   -6.0224553   -5.9365697    6.1228646     6.063218    6.1086939 
  -5.9664612   -6.0201209   -5.9374747    6.1174611    6.0641002    6.1091616 
  -5.9640062   -6.0177097   -5.9373582    6.1134107    6.0644345    6.1094039 
  -5.9620776   -6.0177375   -5.9379138    6.1101458    6.0631474    6.1086499 
  -5.9614939   -6.0182916   -5.9394637    6.1066624    6.0606444    6.1079859 
  -5.9623737   -6.0169994    -5.938526    6.1041039    6.0613528    6.1084458 
  -5.9617502   -6.0174793   -5.9360497    6.1032534    6.0612151    6.1086345 
  -5.9621666   -6.0173882    -5.934682    6.1006198    6.0610466    6.1098482 
  -5.9624197   -6.0174332   -5.9338152     6.098843    6.0613521    6.1105403 
  -5.9647568   -6.0185735   -5.9338166    6.0977705    6.0623295    6.1103013 
  -5.9643055   -6.0172459   -5.9334239    6.0971645    6.0617563    6.1121309 
  -5.9624701   -6.0167539   -5.9360425    6.0963141     6.063144    6.1122463 
  -5.9610903    -6.015483   -5.9372276    6.0950083    6.0637524    6.1122108 
  -5.9578501   -6.0167101   -5.9391053    6.0951091    6.0640313    6.1099253 
  -5.9558261   -6.0173459   -5.9390211    6.0940376    6.0620745    6.1095078 
   -5.954765   -6.0184553   -5.9410038     6.092941    6.0590093    6.1070561 
  -5.9530918   -6.0208422   -5.9434196    6.0902044    6.0550609    6.1044852 
  -5.9526491   -6.0214755   -5.9451051    6.0881467    6.0521535    6.1026991 
  -5.9486441   -6.0196877   -5.9446882    6.0873362    6.0497103    6.1027482 
  -5.9466468    -6.017851   -5.9441896    6.0874311    6.0487648    6.1008637 
  -5.9465123   -6.0173305   -5.9449441    6.0874446    6.0495216    6.0985146 
  -5.9462945   -6.0166412   -5.9455595    6.0863416    6.0531815    6.0972355 
  -5.9472658   -6.0153528   -5.9461543    6.0837321    6.0569122    6.0972216 
  -5.9475349   -6.0168889   -5.9481849    6.0814588    6.0615253    6.0990842 
  -5.9470936   -6.0181615   -5.9495584    6.0798274    6.0651385    6.1006445 
  -5.9478421   -6.0193554   -5.9489382    6.0803986    6.0686942    6.1025103 
  -5.9500256   -6.0198937   -5.9491019    6.0814378    6.0742813    6.1066925 
   -5.950462   -6.0192162   -5.9480557    6.0802407    6.0782779    6.1102019 
  -5.9528523   -6.0171397   -5.9473763    6.0800741    6.0799682    6.1128239 
  -5.9544708   -6.0162423   -5.9449733    6.0774448    6.0810199    6.1143134 
  -5.9552974   -6.0151949   -5.9433927    6.0736888    6.0816731     6.118005 
  -5.9557074   -6.0165856   -5.9413983    6.0714154    6.0804212    6.1224311 
  -5.9567745   -6.0187443    -5.938906     6.071114    6.0790129      6.12308 
  -5.9562329   -6.0204719   -5.9370191    6.0718764    6.0782905      6.12602 
  -5.9584305    -6.018092   -5.9356615    6.0722168    6.0801415    6.1304744 
  -5.9612438     -6.01558   -5.9331886    6.0733374    6.0808744    6.1358578 
  -5.9646122    -6.016445   -5.9310762    6.0731515    6.0816451    6.1383528 
  -5.9700582   -6.0190752   -5.9313748     6.074285    6.0823827    6.1412753 
  -5.9740007   -6.0210663   -5.9321675    6.0771051    6.0828703    6.1436247 
  -5.9757999   -6.0197942   -5.9359928    6.0780153    6.0845002    6.1420911 
  -5.9786388   -6.0172638    -5.938913    6.0776923    6.0844739    6.1388809 
  -5.9814752   -6.0172933   -5.9414529    6.0772715    6.0863589    6.1364708 
  -5.9862155   -6.0175431    -5.943284    6.0770799    6.0877898    6.1356584 
  -5.9908398   -6.0169607   -5.9437875    6.0742101    6.0888167    6.1350678 
  -5.9946939   -6.0155786   -5.9439744    6.0753499    6.0887189    6.1352767 
    -5.99935   -6.0130569   -5.9480941    6.0732761    6.0894096    6.1379638 
  -6.0033623    -6.010694   -5.9470063    6.0692929    6.0882218    6.1396012 
  -6.0069831   -6.0082129   -5.9463924    6.0678459    6.0892891     6.141023 
  -6.0092252   -6.0053059   -5.9469614      6.06637    6.0910348    6.1403759 
  -6.0122571   -6.0037601   -5.9466151    6.0670429    6.0931841    6.1391744 
  -6.0133175   -6.0036653   -5.9451083    6.0700842    6.0941723     6.138253 
  -6.0157915    -6.002795   -5.9434957    6.0695024    6.0980449    6.1406182 
  -6.0159152   -6.0008597   -5.9430212    6.0686799    6.1004787    6.1424824 
  -6.0167212    -5.999276   -5.9424405    6.0678568    6.1025335    6.1410054 
  -6.0171645   -5.9973301   -5.9430411    6.0667833    6.1028113    6.1392065 
  -6.0190802   -5.9975007   -5.9433404    6.0628838    6.1036003    6.1370115 
   -6.020573   -5.9961001   -5.9432674    6.0602464    6.1033296    6.1347441 
  -6.0186044   -5.9929514   -5.9442634    6.0601119    6.1025294    6.1329243 
  -6.0197103   -5.9920799   -5.9433213    6.0597649    6.1038285     6.130876 
  -6.0193292   -5.9908192   -5.9406431    6.0624868    6.1024839    6.1300636 
  -6.0175767   -5.9899358   -5.9377543    6.0650639    6.1023315    6.1290115 
   -6.015654    -5.989264   -5.9351027    6.0661315    6.1035551    6.1278735 
  -6.0147387   -5.9878634   -5.9322708    6.0694091    6.1067937    6.1282707 
  -6.0118184   -5.9880485   -5.9302228      6.07462    6.1116821    6.1300164 
  -6.0093271   -5.9888546   -5.9258525    6.0771284     6.113793    6.1328864 
  -6.0066118   -5.9879342   -5.9232461    6.0801403    6.1162026    6.1344942 
   -6.006118   -5.9889268      -5.9242    6.0826444      6.11745    6.1342685 
  -6.0060744   -5.9911265    -5.921251    6.0857349    6.1157963    6.1327182 
   -6.007501   -5.9920897   -5.9182213     6.087867    6.1153859    6.1321813 
  -6.0061364   -5.9937626   -5.9160704    6.0887037    6.1156019    6.1306175 
  -6.0050138   -5.9918439   -5.9155865    6.0907074    6.1157054    6.1301191 
  -6.0057256   -5.9922374   -5.9154658    6.0922103    6.1153249    6.1292253 
  -6.0062782   -5.9938513   -5.9142631    6.0919633    6.1126726     6.128574 
   -6.006731   -5.9919368   -5.9156109    6.0939581    6.1113437    6.1285454 
  -6.0065329   -5.9931092   -5.9152071    6.0977483    6.1098515    6.1285898 
  -6.0070296   -5.9963168   -5.9155546    6.1006337    6.1060223    6.1284636 
   -6.006511   -5.9983635   -5.9120979    6.1045448    6.1004183    6.1290969 
  -6.0064836   -6.0011838   -5.9098865    6.1072707    6.0970917    6.1276571 
  -6.0065613   -6.0029034   -5.9126296    6.1053889    6.0929675    6.1276041 
  -6.0061407   -6.0050852    -5.913122    6.1065129     6.093489    6.1282589 
  -6.0044562      -6.0057   -5.9141344    6.1060742    6.0922697    6.1299511 
  -6.0013232   -6.0055226   -5.9138041    6.1054303    6.0927833    6.1307501 
  -5.9995488   -6.0080804   -5.9145639    6.1033538    6.0930953    6.1294115 
  -5.9991752     -6.00835   -5.9157577    6.1020197    6.0921707    6.1306552 
  -5.9995081   -6.0096082   -5.9154301    6.0994735    6.0918796    6.1286258 
  -5.9965817   -6.0103522   -5.9156078    6.0967406    6.0934069    6.1252147 
  -5.9924581   -6.0101604   -5.9167423    6.0946509    6.0946662    6.1221301 
  -5.9885135   -6.0095469   -5.9162454    6.0933287    6.0976888    6.1193613 
  -5.9854008   -6.0080237   -5.9165993    6.0902171    6.0990091    6.1198251 
   -5.984576   -6.0060711   -5.9177775    6.0901195    6.1001539    6.1200695 
  -5.9840027   -6.0048973   -5.9198516    6.0914831    6.0987308    6.1182704 
  -5.9816272   -6.0014165   -5.9206384    6.0943447    6.0986322    6.1203785 
  -5.9785815   -6.0004121   -5.9237969    6.0935454    6.1008962    6.1211844 
  -5.9744694   -6.0015428   -5.9250652    6.0896096    6.1030923    6.1210606 
  -5.9730232   -6.0026252   -5.9252269     6.087913    6.1047475    6.1207244 
  -5.9728247   -6.0044864   -5.9269201      6.08523    6.1057495    6.1190686 
  -5.9752157   -6.0066904   -5.9274687    6.0841051    6.1060481    6.1194725 
  -5.9761048   -6.0087535   -5.9304327    6.0832708    6.1035592    6.1194412 
  -5.9756066   -6.0101826   -5.9322977    6.0800665    6.1035591     6.119276 
  -5.9754532    -6.011009   -5.9335229    6.0763828    6.1044107     6.118057 
  -5.9758918   -6.0122349    -5.935586    6.0736715    6.1059107    6.1154599 
   -5.976576   -6.0131413    -5.937864    6.0733721    6.1037256    6.1135477 
  -5.9753212   -6.0145892    -5.936965    6.0713389    6.1014279    6.1128241 
  -5.9753709   -6.0126184   -5.9336401    6.0715413    6.0982258    6.1132567 
  -5.9747824   -6.0131018   -5.9325837    6.0720736    6.0967341    6.1137938 
  -5.9733503   -6.0141475   -5.9322502    6.0709259    6.0937775    6.1138775 
  -5.9718258   -6.0146598   -5.9342669    6.0691838    6.0912728    6.1137418 
  -5.9721897   -6.0139514   -5.9368772    6.0698185    6.0893086     6.117658 
  -5.9726092   -6.0116495   -5.9389908    6.0721555    6.0865061    6.1184861 
  -5.9704639     -6.01098   -5.9417372    6.0742706    6.0825367    6.1186904 
  -5.9678291   -6.0099041   -5.9474747    6.0770991     6.079244    6.1183151 
  -5.9658217   -6.0093715   -5.9512589    6.0814467    6.0785686    6.1185112 
  -5.9666519   -6.0116191   -5.9559686    6.0851531    6.0772533    6.1184958 
  -5.9689082   -6.0140478   -5.9611523    6.0881807    6.0757247    6.1196652 
  -5.9721183   -6.0134273   -5.9647225    6.0914699    6.0714632    6.1213197 
  -5.9737227   -6.0127891   -5.9671147     6.092624    6.0658159    6.1243091 
  -5.9738658   -6.0117057   -5.9711769    6.0934341    6.0600056    6.1263582 
  -5.9737091    -6.011539   -5.9722735    6.0927411    6.0561322    6.1264445 
  -5.9722328   -6.0103907   -5.9695702     6.091969    6.0516662    6.1244861 
  -5.9705636   -6.0102521   -5.9675117    6.0905365    6.0481896    6.1228554 
  -5.9701912   -6.0094009   -5.9643086    6.0900373    6.0457556    6.1232871 
  -5.9692786   -6.0064887   -5.9617665    6.0910986    6.0444741    6.1218472 
  -5.9673423   -6.0033956    -5.956784    6.0944074    6.0423762    6.1202808 
  -5.9676162   -6.0005557   -5.9532164    6.0970134    6.0401324     6.123636 
  -5.9704591   -5.9997863   -5.9491915    6.0991818     6.037152    6.1239692 
  -5.9734013   -5.9963191   -5.9474954    6.0993606    6.0369237    6.1247034 
  -5.9742461   -5.9948705   -5.9471233    6.0980752    6.0356648    6.1230833 
  -5.9751177   -5.9939503   -5.9453025    6.0969652    6.0348216    6.1243084 
   -5.974234    -5.994147   -5.9416221    6.0994294    6.0366986    6.1244799 
  -5.9740605   -5.9929453   -5.9392986    6.0990692    6.0392179    6.1253924 
  -5.9718067   -5.9931216    -5.938408    6.1002076    6.0388833    6.1262431 
  -5.9691597   -5.9904019   -5.9386143    6.1012381    6.0357746     6.126765 
  -5.9661876   -5.9881508    -5.939844    6.1028003    6.0356397    6.1244922 
  -5.9637469   -5.9845712   -5.9414801    6.1047404    6.0376228    6.1230311 
  -5.9595172   -5.9814407    -5.943269    6.1046673    6.0385254     6.124962 
  -5.9581716   -5.9786688   -5.9442955    6.1054209    6.0398182    6.1266041 
  -5.9551793   -5.9761014   -5.9446046     6.108687    6.0418341    6.1268427 
  -5.9534678   -5.9765567   -5.9468899    6.1133644    6.0430316    6.1271243 
  -5.9526936   -5.9742645   -5.9462242    6.1149262    6.0417405    6.1263608 
  -5.9515459    -5.972494   -5.9479194    6.1155694     6.040587    6.1267294 
  -5.9477763   -5.9719623   -5.9502484    6.1143448    6.0412564    6.1266565 
  -5.9448635    -5.973106   -5.9510909    6.1132708    6.0436128    6.1252353 
  -5.9407576    -5.974059   -5.9526201    6.1103487    6.0468633    6.1257201 
  -5.9382779   -5.9740764   -5.9528315    6.1087518    6.0483813    6.1246826 
  -5.9369599   -5.9760132   -5.9516981    6.1050701    6.0492029    6.1230719 
   -5.937522   -5.9771694   -5.9520372    6.1017743    6.0480175     6.120952 
  -5.9368466   -5.9800229    -5.951732    6.0979385    6.0479904    6.1201942 
  -5.9377596   -5.9825529   -5.9525259     6.096702    6.0499239    6.1216428 
  -5.9378127   -5.9837248   -5.9543497    6.0972499    6.0508317    6.1249305 
  -5.9378914   -5.9865527   -5.9538097    6.0987591    6.0516737    6.1248897 
  -5.9371298   -5.9885512   -5.9533172    6.0969748    6.0522882    6.1259147 
  -5.9375462   -5.9899089   -5.9561862    6.0976909    6.0515895    6.1248315 
  -5.9406878   -5.9914367   -5.9571582    6.0955842    6.0472404    6.1280062 
  -5.9434387   -5.9907722   -5.9581612    6.0923385    6.0435115    6.1308063 
  -5.9430924   -5.9904367   -5.9555911    6.0887259    6.0426729    6.1333429 
  -5.9404153   -5.9907543   -5.9553424    6.0856873     6.040844    6.1353766 
  -5.9401561   -5.9938568   -5.9537316    6.0826206    6.0390637    6.1351686 
  -5.9382736   -5.9943133   -5.9527745    6.0813314    6.0379562    6.1355889 
  -5.9363509   -5.9932976   -5.9523302    6.0788671    6.0357438    6.1379939 
  -5.9348814   -5.9936452   -5.9502125    6.0769137    6.0314826    6.1402852 
  -5.9347628     -5.99536   -5.9523983    6.0761915    6.0274824    6.1422068 
   -5.933695   -5.9991285   -5.9510774    6.0751985    6.0259361    6.1427295 
  -5.9322615   -6.0021745   -5.9482642    6.0737624     6.027462     6.142686 
  -5.9306249   -6.0050611   -5.9475339    6.0745582      6.02846    6.1443094 
  -5.9291657   -6.0098497   -5.9463163    6.0762798    6.0293899    6.1466271 
  -5.9290055   -6.0134323   -5.9437548    6.0804083    6.0332655     6.148862 
   -5.929234   -6.0135328   -5.9408585    6.0829799    6.0387256     6.149087 
  -5.9286295   -6.0121328   -5.9400828    6.0847148    6.0414813    6.1511247 
  -5.9290323   -6.0115533   -5.9417066    6.0855445    6.0445056    6.1520389 
  -5.9292501   -6.0113058   -5.9418312    6.0860094    6.0477259    6.1531991 
  -5.9301046   -6.0117151   -5.9443712    6.0863621    6.0507975    6.1523388 
  -5.9262982   -6.0130575   -5.9480254    6.0832049    6.0545675    6.1509036 
  -5.9258333   -6.0136604   -5.9513764     6.083233    6.0567038    6.1519831 
  -5.9260977   -6.0155032   -5.9541373    6.0817325    6.0588099    6.1521865 
  -5.9256349   -6.0178058   -5.9567027    6.0826974    6.0600022    6.1561522 
   -5.922167   -6.0207777   -5.9594654    6.0825041    6.0609761    6.1589637 
  -5.9187243    -6.023046   -5.9623903    6.0825081    6.0619334    6.1609396 
  -5.9153999   -6.0229885   -5.9643161    6.0825673    6.0585916    6.1613873 
  -5.9106481   -6.0215867   -5.9674873    6.0831254    6.0563983    6.1603326 
  -5.9075839   -6.0204552   -5.9705013    6.0841748     6.052537    6.1603344 
  -5.9060651   -6.0196721    -5.972626    6.0853426    6.0503732    6.1618103 
  -5.9040679   -6.0204337   -5.9761461    6.0858048    6.0497919    6.1614693 
  -5.9023577    -6.017256   -5.9806726    6.0851824    6.0476761    6.1659688 
  -5.9001823   -6.0162497   -5.9869411    6.0840602    6.0473251    6.1690678 
  -5.8977361   -6.0136954   -5.9912777    6.0852012    6.0464847    6.1722417 
   -5.894992   -6.0143182   -5.9954746    6.0868749    6.0456841    6.1737946 
  -5.8916806   -6.0145805   -5.9983948    6.0866898     6.044612    6.1756609 
  -5.8882794   -6.0137144   -6.0012365    6.0882255     6.043202    6.1769619 
  -5.8876941   -6.0137334   -6.0038526    6.0935005    6.0428202    6.1815137 
  -5.8850161   -6.0138261   -6.0067399    6.0979524    6.0433722    6.1844344 
  -5.8833546   -6.0131819   -6.0088648    6.0996831    6.0444409    6.1859204 
   -5.882788   -6.0116393   -6.0119782    6.1027601    6.0460917    6.1878569 
  -5.8838855   -6.0098859   -6.0147836    6.1019791    6.0464577    6.1878061 
  -5.8855074   -6.0095487   -6.0166589    6.1024015    6.0461599    6.1888951 
  -5.8870124   -6.0094714   -6.0175397    6.1032088    6.0452009    6.1896847 
  -5.8867723   -6.0115472   -6.0170886    6.1012425    6.0449855    6.1897665 
  -5.8843585   -6.0139348   -6.0169256    6.1020639     6.044229    6.1904753 
  -5.8840665   -6.0155985   -6.0174473    6.1041282    6.0436138    6.1920728 
  -5.8839205   -6.0170363   -6.0159777    6.1013375    6.0423056    6.1918721 
  -5.8838245   -6.0145884   -6.0180065    6.1002956     6.042424    6.1930494 
  -5.8830942   -6.0115393    -6.016911    6.0982404    6.0437622    6.1974511 
  -5.8814696   -6.0122128   -6.0152585    6.0958689    6.0442255    6.2014442 
  -5.8803232   -6.0140355   -6.0134792    6.0962021    6.0442323    6.2047312 
  -5.8769475    -6.016274   -6.0133043    6.0978615    6.0458963    6.2081958 
  -5.8721691   -6.0179052   -6.0152419    6.1007667    6.0453738      6.21049 
   -5.866991   -6.0186752   -6.0167557    6.0997942    6.0487867     6.214985 
  -5.8611722   -6.0196976   -6.0189971    6.0987723     6.049966    6.2183232 
  -5.8570188   -6.0193662   -6.0213156    6.0967777    6.0503995    6.2222371 
  -5.8545486   -6.0196648   -6.0236956    6.0975142    6.0495235    6.2252674 
  -5.8541377    -6.022803   -6.0254888    6.0979389    6.0502885    6.2294877 
   -5.857552   -6.0219987   -6.0275069    6.0975949    6.0531412    6.2339742 
  -5.8598336   -6.0217999    -6.028757    6.0961037    6.0535048    6.2354842 
   -5.859404   -6.0230472   -6.0304119    6.0951855    6.0564654     6.236977 
  -5.8581802   -6.0205112   -6.0321558    6.0952811    6.0574246    6.2375791 
  -5.8562162    -6.019083   -6.0346033    6.0947616    6.0599216    6.2385787 
  -5.8537337   -6.0172741   -6.0356424     6.093896    6.0637681     6.239925 
  -5.8519576    -6.018618   -6.0354669    6.0905447    6.0660825    6.2411905 
   -5.848346   -6.0167956   -6.0368725     6.086702    6.0671369    6.2387156 
  -5.8453508   -6.0156788   -6.0368781    6.0831899     6.068719    6.2342676 
  -5.8436035   -6.0161215   -6.0387572    6.0822113     6.073165    6.2296534 
  -5.8420928   -6.0181682   -6.0422088     6.080081    6.0764392    6.2234905 
    -5.84239   -6.0212786   -6.0453979      6.07654    6.0803206    6.2184673 
  -5.8423636   -6.0241463   -6.0478765    6.0738611    6.0818884    6.2145755 
  -5.8407239   -6.0247918   -6.0472236    6.0716788    6.0843798    6.2133532 
  -5.8398052   -6.0263305   -6.0469783    6.0697699    6.0867536    6.2121305 
  -5.8403701   -6.0289608   -6.0502658    6.0678266    6.0889276    6.2107642 
  -5.8398035   -6.0314594   -6.0523299     6.068268    6.0904453    6.2095666 
  -5.8397605   -6.0305095   -6.0549412    6.0694871     6.093264    6.2088532 
  -5.8384204   -6.0309361   -6.0574335    6.0704455    6.0949184    6.2089919 
  -5.8378401   -6.0314401   -6.0608825    6.0723435    6.0975824    6.2121759 
  -5.8379412   -6.0331415   -6.0634217    6.0710581    6.0985885    6.2165283 
  -5.8372748   -6.0377591   -6.0666932    6.0704708    6.1008551    6.2183703 
  -5.8369054   -6.0410344   -6.0662894    6.0713721    6.0998366    6.2190058 
  -5.8363557    -6.043631   -6.0658573    6.0721366    6.1013874    6.2189659 
  -5.8367593   -6.0445168   -6.0671931    6.0732757    6.1033098    6.2223873 
  -5.8380176    -6.043931   -6.0669262    6.0763734    6.1036724    6.2237386 
  -5.8387575   -6.0451754   -6.0669024    6.0792927    6.1040083    6.2214599 
   -5.839465    -6.045886   -6.0666361    6.0809058    6.1059464    6.2181024 
  -5.8424701    -6.049497   -6.0677479    6.0816079    6.1077999    6.2152138 
  -5.8435022   -6.0530232   -6.0702537    6.0843003    6.1101307      6.21461 
  -5.8416336   -6.0548326   -6.0714579    6.0868709    6.1144087    6.2127813 
  -5.8405146   -6.0565805   -6.0750036    6.0885885    6.1189689    6.2103923 
  -5.8380004   -6.0598831   -6.0771928    6.0924322    6.1249745    6.2085039 
  -5.8388244    -6.062327     -6.07935    6.0938292    6.1297414    6.2067405 
  -5.8402037   -6.0633175   -6.0817684    6.0941671    6.1334912    6.2077236 
  -5.8419863   -6.0665545   -6.0811668    6.0946316    6.1369997    6.2068532 
  -5.8421337   -6.0674707   -6.0784671     6.095301    6.1387346    6.2076664 
  -5.8421704   -6.0668913   -6.0751776    6.0942269    6.1405512    6.2104072 
  -5.8451564   -6.0665515   -6.0728509    6.0949001    6.1431473    6.2100055 
  -5.8449449   -6.0665209   -6.0732522    6.0955269    6.1466373    6.2083097 
  -5.8431602    -6.065871   -6.0747532    6.0949099    6.1504915    6.2084684 
  -5.8408759   -6.0661856   -6.0749003    6.0925034     6.154963    6.2073354 
  -5.8376347   -6.0648978   -6.0777181    6.0906197     6.159319     6.208566 
  -5.8361272   -6.0652148    -6.082658    6.0845844    6.1631922    6.2057061 
   -5.834827   -6.0662646    -6.085308    6.0784164    6.1666846    6.2055616 
  -5.8343093   -6.0657964   -6.0864188    6.0699316     6.169001    6.2063501 
  -5.8329339   -6.0654922   -6.0877447     6.063092    6.1697539    6.2080289 
  -5.8319996   -6.0635492   -6.0889529    6.0565857    6.1701178    6.2081146 
  -5.8277026   -6.0624215   -6.0887765    6.0499875    6.1690506    6.2090623 
  -5.8258333   -6.0611232   -6.0903065    6.0463963    6.1731148    6.2082205 
   -5.823664   -6.0619295   -6.0923999    6.0443727    6.1776331    6.2064793 
  -5.8224546   -6.0625829   -6.0928214    6.0410515    6.1795023    6.2035874 
  -5.8230926    -6.062587   -6.0928713    6.0398627     6.181377    6.2014052 
  -5.8221046   -6.0605307    -6.092838     6.039238    6.1826983    6.2025954 
  -5.8211312   -6.0579154   -6.0916876    6.0337945    6.1849074    6.2035564 
  -5.8202624   -6.0551534   -6.0897448    6.0309318    6.1846097    6.2047087 
  -5.8205873   -6.0537226   -6.0902808    6.0302771    6.1873417    6.2041586 
  -5.8178721   -6.0537049   -6.0907613    6.0294293    6.1878596    6.2046287 
  -5.8159213    -6.053863   -6.0887745    6.0278525    6.1876526    6.2054967 
  -5.8126867   -6.0561622   -6.0899243    6.0272299    6.1854588    6.2040013 
   -5.806541   -6.0575948   -6.0928152    6.0274323     6.183946    6.2057177 
   -5.802516   -6.0581575   -6.0928483    6.0261543    6.1839851    6.2079554 
   -5.798708   -6.0564047   -6.0908196    6.0277882    6.1865891    6.2095534 
  -5.7938665   -6.0553055   -6.0905031    6.0294491    6.1903671    6.2112692 
  -5.7912856   -6.0536154   -6.0908104    6.0299589    6.1931351    6.2141114 
   -5.787576    -6.055979   -6.0900586    6.0284633    6.1963696    6.2140849 
  -5.7829775   -6.0581804   -6.0886043    6.0254092    6.1972441    6.2149805 
   -5.778369   -6.0588509   -6.0893404    6.0226347    6.1983069    6.2142605 
  -5.7786686   -6.0589638   -6.0876025    6.0223271     6.200054    6.2145458 
  -5.7778908   -6.0603177   -6.0841588    6.0220849    6.2013067    6.2149917 
  -5.7782749   -6.0609257   -6.0817801    6.0200131    6.2000159    6.2161402 
  -5.7790646   -6.0607397    -6.079588    6.0189617    6.1957824    6.2180181 
  -5.7790724   -6.0588747   -6.0792887    6.0163554     6.193469    6.2180701 
  -5.7803256   -6.0580221   -6.0795507    6.0133938    6.1941501    6.2207168 
  -5.7812859   -6.0583463   -6.0803304    6.0118829    6.1945321    6.2245577 
  -5.7828321   -6.0591017   -6.0813411    6.0083524    6.1956812    6.2250813 
  -5.7833752   -6.0577615   -6.0823977    6.0047657    6.1971128    6.2246054 
  -5.7834095   -6.0582774   -6.0846789     6.004694    6.1979098    6.2254818 
  -5.7819981   -6.0574406   -6.0878155    6.0050834    6.2001449     6.225103 
  -5.7809025   -6.0549486   -6.0918237    6.0049486    6.2015222    6.2252693 
  -5.7796503   -6.0514387   -6.0973877    6.0056025    6.2022874    6.2254236 
   -5.777935   -6.0500264   -6.1006121     6.005395    6.2038413    6.2250621 
  -5.7750364   -6.0493198   -6.1043539    6.0061585    6.2046391     6.222101 
  -5.7729078   -6.0527842   -6.1047557    6.0083575     6.206332    6.2231353 
  -5.7738356    -6.055903    -6.106078    6.0108384    6.2080042    6.2244665 
  -5.7714786   -6.0590263    -6.107653    6.0124976    6.2081564    6.2272169 
  -5.7688635   -6.0595643   -6.1114506    6.0151386     6.208935    6.2279999 
  -5.7664808    -6.059484   -6.1142788     6.017543    6.2083239    6.2305692 
  -5.7644454   -6.0592841   -6.1161148    6.0238923    6.2117362    6.2330319 
  -5.7625813   -6.0583507   -6.1210377    6.0278705    6.2141449    6.2340929 
   -5.761556   -6.0583662   -6.1247475    6.0305964    6.2167928    6.2361587 
  -5.7578391   -6.0566029   -6.1268804    6.0334457    6.2205746    6.2397547 
  -5.7542631   -6.0567088   -6.1255918    6.0362597    6.2266291    6.2420359 
  -5.7528254   -6.0577814   -6.1225432     6.038127    6.2318521    6.2428208 
   -5.752661   -6.0586865   -6.1221244    6.0393824    6.2365359    6.2405734 
  -5.7515704    -6.062762   -6.1214181     6.040781    6.2367992    6.2432631 
  -5.7504955   -6.0697538   -6.1202714    6.0425919    6.2372951    6.2448228 
  -5.7493328     -6.07426   -6.1221259    6.0422468    6.2393828    6.2468141 
  -5.7489775   -6.0776311   -6.1242361    6.0436051    6.2395104    6.2490829 
  -5.7473991   -6.0789946   -6.1281346    6.0442167    6.2394049    6.2516816 
  -5.7445095   -6.0804923    -6.130906    6.0433523    6.2378985    6.2543839 
  -5.7405973   -6.0816226   -6.1321645    6.0419589    6.2395709    6.2575422 
  -5.7372146   -6.0825961    -6.131907    6.0417519    6.2410659    6.2597696 
  -5.7338783   -6.0812521   -6.1312051    6.0423048    6.2417069    6.2623262 
  -5.7322278   -6.0799307   -6.1339173    6.0423445    6.2409639    6.2638818 
  -5.7287064   -6.0801418   -6.1373262    6.0405551     6.242472    6.2619342 
  -5.7266689   -6.0826376    -6.137942    6.0391662    6.2421845    6.2615331 
  -5.7246554   -6.0828339   -6.1382173    6.0386338    6.2432811    6.2633554 
  -5.7244017   -6.0818534   -6.1412909    6.0379561    6.2443089    6.2646447 
  -5.7251308   -6.0806055   -6.1450531    6.0383571    6.2422896    6.2640448 
  -5.7277606   -6.0818693   -6.1466889    6.0343805    6.2412392     6.265732 
  -5.7303248    -6.081354   -6.1488332    6.0327303    6.2427343     6.268042 
  -5.7331192   -6.0834171   -6.1489547    6.0298319    6.2454823    6.2673232 
  -5.7356147   -6.0873334   -6.1507308    6.0307807    6.2499237    6.2640988 
  -5.7376143   -6.0894203   -6.1543759    6.0291943    6.2547906    6.2611508 
  -5.7392795     -6.09199   -6.1566144    6.0277594    6.2605011    6.2585614 
  -5.7372844   -6.0941751   -6.1588739    6.0273709    6.2640734    6.2570524 
  -5.7362184   -6.0960338   -6.1633082    6.0265282    6.2682048    6.2561661 
  -5.7333486   -6.0967529   -6.1671733    6.0273352    6.2707129    6.2531998 
  -5.7318178   -6.0985614   -6.1699249     6.028611      6.27239    6.2503432 
  -5.7279875   -6.0981276   -6.1705289    6.0283324     6.273259    6.2473434 
   -5.724053   -6.1000672   -6.1720103    6.0284685    6.2720687    6.2475835 
  -5.7204952   -6.1023423   -6.1750482    6.0275076    6.2715502    6.2475489 
  -5.7180944   -6.1036445   -6.1766474    6.0233442    6.2693754    6.2476678 
  -5.7176319   -6.1031912   -6.1794206    6.0184139    6.2699763    6.2464531 
  -5.7177812   -6.1052077   -6.1798669    6.0142549    6.2686555    6.2455946 
  -5.7199486   -6.1082842   -6.1798491    6.0087654    6.2676592    6.2445869 
  -5.7217729   -6.1082839   -6.1811573    6.0046131    6.2692961    6.2441726 
  -5.7217328    -6.108912   -6.1838552    6.0005342    6.2708967    6.2430098 
  -5.7206437   -6.1087669   -6.1848721    5.9996984    6.2728755     6.242899 
   -5.717476   -6.1064736     -6.18572    6.0011703    6.2704771    6.2400617 
  -5.7141459   -6.1045836   -6.1872308    6.0031184    6.2697098    6.2370852 
  -5.7113528   -6.1035942   -6.1894007    6.0036858    6.2671463    6.2356498 
  -5.7090329    -6.103538    -6.191911    6.0017268    6.2642409    6.2358218 
  -5.7053979   -6.1046276   -6.1919565    6.0011989    6.2599565    6.2362183 
  -5.7019733   -6.1043893   -6.1928687    6.0007374    6.2586624    6.2344681 
  -5.6989961   -6.1052163   -6.1930915    6.0010392    6.2570623    6.2356624 
  -5.6992199   -6.1071726   -6.1912088    6.0019616    6.2580054     6.236153 
   -5.698412   -6.1050897   -6.1893774    6.0021988    6.2567115     6.236448 
  -5.6951561   -6.1042743     -6.18749    6.0022339    6.2558725    6.2389201 
  -5.6948589   -6.1031083   -6.1858762    6.0017598    6.2558367    6.2405264 
  -5.6962103   -6.1038779   -6.1863457    6.0039244    6.2544661    6.2418049 
  -5.6944371    -6.102721    -6.185429    6.0081174    6.2511334    6.2431653 
   -5.692794   -6.1029937    -6.186231    6.0115133    6.2510049    6.2438492 
  -5.6913242   -6.1039167   -6.1875018    6.0118219    6.2494448    6.2444864 
  -5.6914132   -6.1013315   -6.1926802    6.0143367    6.2490919    6.2423161 
  -5.6916462   -6.1001029   -6.1974008     6.017871    6.2476932    6.2426499 
  -5.6923967    -6.097536   -6.2016977    6.0183902    6.2471166    6.2437996 
  -5.6935803   -6.0954437    -6.203906    6.0144022     6.245096     6.245991 
  -5.6945822   -6.0940883   -6.2068067    6.0101787    6.2438132    6.2477944 
  -5.6952515   -6.0941529   -6.2079746    6.0051222     6.241924    6.2508308 
  -5.6929658   -6.0947748   -6.2064018    6.0027187    6.2413044    6.2537318 
  -5.6922796   -6.0940729    -6.206981    6.0017138    6.2391373    6.2557888 
  -5.6917462   -6.0957199   -6.2082393    6.0030492    6.2356539    6.2556584 
  -5.6913745   -6.0971304   -6.2103967    6.0060528    6.2341994    6.2571846 
  -5.6904555   -6.0987958   -6.2123354    6.0099411    6.2332836     6.256123 
   -5.689277    -6.100805   -6.2108311    6.0117763    6.2311938    6.2567643 
  -5.6891789   -6.1030698   -6.2101824    6.0124614    6.2301242    6.2601256 
  -5.6886063   -6.1016742   -6.2090155      6.01325    6.2278565    6.2651916 
  -5.6865761   -6.0970231   -6.2087533    6.0129954    6.2269223    6.2713674 
  -5.6848229    -6.092434   -6.2097663    6.0155744    6.2284212    6.2796675 
  -5.6843824    -6.086564   -6.2102634    6.0143525    6.2313932    6.2835135 
  -5.6838795    -6.082163   -6.2097325    6.0145824    6.2351267     6.285763 
  -5.6832392   -6.0790852   -6.2109948    6.0153277    6.2394293    6.2886542 
  -5.6827345   -6.0776198    -6.210933    6.0170088    6.2405647    6.2916646 
  -5.6805702   -6.0766214   -6.2101329    6.0184777    6.2398996     6.292416 
  -5.6761731   -6.0740894   -6.2082323    6.0215822    6.2371655    6.2924482 
  -5.6728644   -6.0718239   -6.2059115    6.0248108    6.2358928    6.2905633 
  -5.6723117   -6.0714658   -6.2021888    6.0268524    6.2368469    6.2905987 
  -5.6722263    -6.071539   -6.2009647    6.0285736    6.2392598    6.2906415 
  -5.6700379   -6.0699456   -6.2008778     6.026676    6.2411787    6.2898591 
  -5.6700444   -6.0668675   -6.2009862    6.0268699    6.2422297    6.2907931 
  -5.6714898   -6.0637327   -6.1997636    6.0265473    6.2440718    6.2939746 
  -5.6712349    -6.061734   -6.1982883    6.0250239    6.2443801    6.2960022 
  -5.6717104   -6.0609393   -6.1985546     6.024534    6.2442029    6.2947833 
  -5.6724527   -6.0592049   -6.1954911    6.0240076    6.2443102    6.2954267 
  -5.6758554   -6.0585087   -6.1940017    6.0252478    6.2467929    6.2976696 
  -5.6767368   -6.0593117   -6.1920267    6.0250092     6.246258     6.298488 
  -5.6792369   -6.0585383   -6.1906674    6.0261021    6.2457406    6.2991405 
   -5.681931   -6.0607053   -6.1896961    6.0269822    6.2455533    6.2982717 
  -5.6868078   -6.0616139   -6.1883719    6.0244187    6.2464948    6.2988226 
  -5.6902288   -6.0612644   -6.1859286    6.0214351    6.2474106    6.2993176 
  -5.6930845   -6.0588496   -6.1845557     6.018446    6.2492597    6.2979655 
  -5.6969143   -6.0564777   -6.1796724    6.0184209    6.2501904    6.2970059 
  -5.6994269   -6.0525879    -6.176876    6.0175687    6.2503617    6.2963297 
  -5.7031728   -6.0490876   -6.1767827    6.0166693     6.252433    6.2958482 
  -5.7046873   -6.0500647   -6.1775321    6.0178079    6.2536405    6.2976251 
   -5.703718   -6.0482471   -6.1773491    6.0187005    6.2553078    6.2991492 
  -5.7031656    -6.046993   -6.1715741     6.020726    6.2558914    6.2984827 
  -5.7043224   -6.0477933   -6.1705825    6.0239312    6.2572979    6.2972259 
  -5.7081424   -6.0510467   -6.1690653    6.0271664    6.2600529    6.2969032 
  -5.7070912   -6.0532658   -6.1695184    6.0300981    6.2618181    6.2980314 
  -5.7039601   -6.0530868   -6.1711071    6.0300031    6.2636624    6.2973327 
  -5.7018674   -6.0531097   -6.1711623    6.0286759    6.2639629    6.2969099 
  -5.7035963   -6.0536484   -6.1724784    6.0281209    6.2643947     6.297131 
  -5.7033946   -6.0540923   -6.1750435    6.0285672    6.2636188    6.2983542 
  -5.7049359   -6.0543595   -6.1761144    6.0309924    6.2636046    6.2998552 
  -5.7079625   -6.0518612   -6.1763378    6.0311296      6.26507    6.3020452 
  -5.7123021   -6.0513446   -6.1762561    6.0321455    6.2653012    6.3024987 
    -5.71371   -6.0524256   -6.1779899    6.0328329    6.2664304    6.3041205 
  -5.7132112   -6.0540969   -6.1792883    6.0318686    6.2638598    6.3055576 
  -5.7136903   -6.0558734   -6.1806568    6.0316411    6.2625395    6.3043694 
  -5.7170373   -6.0559208   -6.1801114    6.0290644    6.2625438    6.3032169 
  -5.7172899   -6.0574642   -6.1804721     6.028333    6.2619677    6.3028215 
  -5.7188705   -6.0584062   -6.1836319    6.0317505    6.2578309    6.3036217 
    -5.72112   -6.0599958   -6.1832579    6.0324931    6.2555469    6.3063287 
  -5.7203706   -6.0609973    -6.182288    6.0340881    6.2525344    6.3078448 
  -5.7167359   -6.0608622   -6.1815858    6.0345081    6.2508904    6.3079149 
  -5.7143876   -6.0581784    -6.183318    6.0347886    6.2509861    6.3081787 
  -5.7144087   -6.0543382   -6.1841135    6.0372323    6.2480802    6.3065383 
  -5.7153568     -6.05267    -6.186801    6.0379255    6.2447178    6.3048958 
  -5.7158541   -6.0512158   -6.1888816    6.0392337    6.2414205    6.3044763 
  -5.7164755   -6.0484211   -6.1907517    6.0394148    6.2387337    6.3046044 
  -5.7168423   -6.0466152   -6.1928072    6.0397709    6.2374075    6.3033966 
  -5.7173359   -6.0429924   -6.1950152    6.0407298    6.2366188    6.3024858 
   -5.717579   -6.0416033   -6.1977916    6.0421782    6.2346483    6.3040599 
  -5.7194517   -6.0358969   -6.2003172    6.0425799    6.2353359    6.3049458 
  -5.7195347      -6.0344   -6.2045877    6.0447389    6.2356686    6.3048731 
  -5.7226152   -6.0346429   -6.2098233    6.0451324    6.2369523    6.3041717 
  -5.7224331   -6.0370691   -6.2150971    6.0455135    6.2400161    6.3032175 
  -5.7230038   -6.0388327    -6.220269     6.046429    6.2390267    6.3029069 
  -5.7207766   -6.0399174   -6.2252073    6.0477603    6.2372183    6.3017222 
  -5.7185399   -6.0424963   -6.2259276    6.0485419    6.2362758    6.3031265 
  -5.7165189   -6.0443693   -6.2277074      6.04777    6.2343854    6.3042929 
  -5.7155884   -6.0450964    -6.229315    6.0472309    6.2357593    6.3046816 
  -5.7143799   -6.0459903   -6.2325051    6.0490799    6.2360699    6.3059365 
  -5.7122186   -6.0457451    -6.235412    6.0509075    6.2363202     6.306731 
  -5.7099551   -6.0447584   -6.2356462    6.0524502    6.2354966    6.3049233 
   -5.707749   -6.0436247   -6.2365318    6.0538334    6.2350012    6.3023525 
  -5.7064154   -6.0425407   -6.2353505    6.0522087     6.235854    6.3025755 
  -5.7055855   -6.0428178   -6.2364842     6.051292    6.2373373    6.3034042 
  -5.7066321   -6.0459629   -6.2379237    6.0501708    6.2384126    6.3019873 
  -5.7064506   -6.0476872   -6.2406624    6.0502199     6.240907    6.3028671 
  -5.7061178   -6.0504717   -6.2410927    6.0492703    6.2407559    6.3013706 
  -5.7048164    -6.055502   -6.2391649    6.0489382    6.2374921    6.3021012 
  -5.7091242   -6.0582261   -6.2346068    6.0485755    6.2361508     6.302757 
   -5.711784    -6.059436   -6.2297711    6.0511264    6.2356095    6.3035985 
  -5.7132414   -6.0625343    -6.228152    6.0540207    6.2338452    6.3018965 
  -5.7120994   -6.0600614   -6.2261751    6.0554749    6.2305826    6.2983258 
  -5.7131609   -6.0574947   -6.2224907    6.0571585    6.2282517    6.2956917 
  -5.7105516   -6.0555319   -6.2184718    6.0603118     6.227173    6.2942793 
  -5.7083256   -6.0520525   -6.2163143    6.0639762    6.2234686     6.296815 
  -5.7079219   -6.0457288   -6.2167269    6.0653134    6.2219531     6.298482 
  -5.7076527   -6.0440009   -6.2162738    6.0639774    6.2206052    6.3011128 
  -5.7079528   -6.0424681   -6.2168946    6.0607464    6.2186846    6.3023194 
  -5.7073514    -6.044791   -6.2154955    6.0608105    6.2170773     6.302151 
  -5.7074423   -6.0451537   -6.2169007    6.0624924    6.2153672    6.3017716 
  -5.7067998    -6.046017   -6.2196323    6.0636681    6.2138943     6.302147 
  -5.7070734   -6.0454108   -6.2203449    6.0644903    6.2135373    6.3033199 
  -5.7052472   -6.0441062   -6.2211329    6.0650867    6.2126443    6.3062603 
  -5.7076309   -6.0456925   -6.2209688    6.0673088     6.211291    6.3064328 
  -5.7071915   -6.0475226   -6.2191731    6.0679581    6.2131458    6.3051871 
  -5.7065972   -6.0484087    -6.216651     6.068107    6.2154592    6.3048851 
  -5.7043579   -6.0488241   -6.2143131    6.0698376    6.2193704    6.3066765 
  -5.7029845   -6.0491634   -6.2111909    6.0720548    6.2191721    6.3068921 
  -5.7034394   -6.0507112   -6.2111336    6.0736119    6.2188456    6.3036902 
  -5.7042244   -6.0528261   -6.2112322    6.0740352    6.2188241    6.3004364 
  -5.7052054   -6.0539036    -6.214211    6.0751701    6.2176786    6.2999697 
  -5.7031934   -6.0523991   -6.2183007    6.0765801    6.2181524    6.2994392 
  -5.7022375   -6.0509214   -6.2249467    6.0751855    6.2205126    6.2964234 
  -5.6985599   -6.0495091   -6.2285346    6.0763304    6.2227338     6.295403 
  -5.6953572   -6.0492384   -6.2309732    6.0802669    6.2223839    6.2952054 
  -5.6931549   -6.0485666   -6.2343486    6.0817413    6.2220423    6.2945766 
  -5.6930912   -6.0473366   -6.2371962    6.0818477    6.2227423     6.293637 
   -5.691552   -6.0474769   -6.2402145    6.0817132    6.2220804    6.2925828 
  -5.6896435   -6.0472765   -6.2428643    6.0801353    6.2228298    6.2928564 
  -5.6870579   -6.0481362   -6.2457849    6.0817065    6.2218942    6.2941627 
  -5.6861236   -6.0468679   -6.2468306    6.0813308    6.2183484    6.2956438 
  -5.6863751   -6.0442029   -6.2503101    6.0832817     6.217569    6.2973915 
  -5.6869147    -6.042495   -6.2525271    6.0853054    6.2132733    6.2994417 
  -5.6875751   -6.0400456   -6.2536607    6.0873649    6.2113967    6.2989325 
  -5.6864144   -6.0393489   -6.2547996    6.0913409    6.2123804     6.300925 
  -5.6850827   -6.0376161   -6.2586914    6.0932589    6.2108656    6.3021193 
    -5.68442   -6.0384199   -6.2619262     6.096456    6.2038796    6.3012232 
  -5.6841495   -6.0387946   -6.2665666    6.0990393    6.2008424    6.3026523 
  -5.6857776   -6.0383921   -6.2705101    6.1010132    6.1984393    6.3016931 
  -5.6866868   -6.0388093    -6.275756    6.1047502    6.1981408    6.3024266 
   -5.687451   -6.0360233   -6.2787147    6.1072125    6.1997547    6.3021347 
  -5.6880596    -6.034939   -6.2780726    6.1087694    6.2013023    6.3040102 
  -5.6860331     -6.03278    -6.276111    6.1074621    6.2039681    6.3057943 
   -5.684466   -6.0293129   -6.2742767    6.1098178    6.2056035    6.3098044 
  -5.6843843   -6.0280083   -6.2761961    6.1112837    6.2068871    6.3125353 
  -5.6825982   -6.0248767   -6.2781559    6.1131227    6.2085609    6.3143297 
  -5.6861651   -6.0228545   -6.2802669    6.1150228    6.2097166    6.3157167 
  -5.6895136   -6.0213495   -6.2791786    6.1178543     6.208126    6.3172608 
   -5.691503   -6.0183076   -6.2770006    6.1193105    6.2070739    6.3190424 
   -5.692789   -6.0152814   -6.2721636    6.1218045    6.2063059    6.3187509 
  -5.6924069   -6.0150504    -6.270016    6.1213967    6.2054272    6.3202324 
  -5.6922567   -6.0162757   -6.2683013    6.1240234    6.2045382    6.3220217 
  -5.6906592   -6.0177551   -6.2664076    6.1268519    6.2021929    6.3258018 
  -5.6904108   -6.0207312   -6.2671914    6.1281307    6.1983903    6.3266793 
  -5.6883135   -6.0230075   -6.2691016    6.1282176    6.1967144    6.3288084 
  -5.6854038   -6.0223161    -6.273684    6.1301443    6.1960057     6.333695 
  -5.6840926   -6.0223375   -6.2779731    6.1298974    6.1965557    6.3332488 
  -5.6827296   -6.0229684   -6.2798454    6.1287489    6.1964681    6.3367138 
  -5.6796446   -6.0227064   -6.2810997    6.1264641    6.1966531    6.3424859 
  -5.6766205   -6.0245232   -6.2799621    6.1270417    6.1986686    6.3455042 
  -5.6743506     -6.02381    -6.280021    6.1284186    6.2027587    6.3478553 
  -5.6720505   -6.0225734   -6.2828877    6.1314426    6.2036856    6.3490564 
  -5.6682781    -6.021328   -6.2861909    6.1352919    6.2055275    6.3471965 
   -5.662447    -6.019805   -6.2895662    6.1397318    6.2053956    6.3482993 
  -5.6607395   -6.0202154   -6.2903069    6.1430667    6.2071919    6.3501169 
  -5.6595532   -6.0209128   -6.2904318    6.1455648    6.2089551    6.3517273 
  -5.6570018   -6.0231014   -6.2907575    6.1475272    6.2105815     6.353645 
  -5.6526932   -6.0245254   -6.2925835     6.148057    6.2095883     6.354774 
  -5.6504257   -6.0244721   -6.2935341    6.1470184    6.2099653    6.3568243 
  -5.6459133   -6.0237384   -6.2958664    6.1472649    6.2104087     6.356634 
  -5.6409227   -6.0224733   -6.2971163    6.1486271    6.2088052    6.3597712 
  -5.6362524   -6.0221649   -6.2955843    6.1492625    6.2076467    6.3648193 
  -5.6330609   -6.0219163   -6.2940491    6.1509499    6.2062001    6.3651962 
  -5.6307504   -6.0205617   -6.2928257    6.1555241    6.2026508    6.3672042 
   -5.627592   -6.0179283   -6.2911937    6.1617228    6.1972054    6.3684642 
  -5.6276366   -6.0146386   -6.2882351    6.1700955    6.1914628    6.3709716 
  -5.6274733   -6.0125711    -6.284671    6.1768854    6.1893937    6.3736392 
  -5.6279512   -6.0133884   -6.2814359    6.1831349    6.1887923    6.3738026 
   -5.627566   -6.0158405   -6.2767434    6.1893178    6.1875371    6.3734002 
  -5.6248177   -6.0157316   -6.2711601    6.1941733     6.185869    6.3717097 
  -5.6211179   -6.0120736   -6.2669343    6.1950217    6.1847091    6.3718463 
  -5.6188357   -6.0105726   -6.2639559    6.1932266    6.1843026    6.3687789 
   -5.615972   -6.0089194   -6.2621927    6.1920416    6.1823908    6.3666972 
  -5.6149074   -6.0053811    -6.261016    6.1911067    6.1817585    6.3641993 
  -5.6162219   -6.0016137   -6.2601582    6.1907266    6.1814946    6.3630041 
  -5.6165098   -5.9971397   -6.2586613    6.1901266    6.1835749    6.3614151 
  -5.6154635   -5.9936243   -6.2577663    6.1924237    6.1835872    6.3609613 
  -5.6158214   -5.9916682     -6.25755    6.1934446    6.1807566    6.3582679 
  -5.6147854   -5.9915187   -6.2575616    6.1986513    6.1792501    6.3570175 
  -5.6134109   -5.9927081    -6.257821    6.2050323    6.1788114    6.3555632 
  -5.6105124   -5.9942904   -6.2590888    6.2080968    6.1794197    6.3560912 
  -5.6077093   -5.9965567    -6.259412    6.2097351    6.1816454    6.3549779 
  -5.6075278   -5.9972182   -6.2573355    6.2128636    6.1801053    6.3528449 
  -5.6057777   -5.9971949   -6.2560484    6.2155369    6.1773218    6.3534307 
  -5.6024009   -5.9978225   -6.2518309     6.217434    6.1758851    6.3552008 
  -5.5996617    -5.999804   -6.2489028    6.2183878    6.1778221    6.3578841 
  -5.5982782   -6.0011059   -6.2472572    6.2186228    6.1747116    6.3619574 
  -5.5973301   -5.9999018   -6.2442706    6.2182755    6.1725068    6.3668516 
  -5.5962351   -6.0015454   -6.2437336     6.217161     6.168618    6.3730118 
  -5.5967979   -6.0029127   -6.2436361    6.2144997    6.1669605    6.3772088 
  -5.5995742   -6.0029268   -6.2428232     6.212775    6.1664708    6.3825179 
  -5.6020959   -6.0024927   -6.2435178    6.2128947    6.1660563    6.3872085 
  -5.6059169   -6.0026857    -6.243215    6.2146712    6.1665103    6.3917265 
  -5.6066317   -6.0036666   -6.2402036    6.2143004    6.1684064    6.3976777 
  -5.6082692   -6.0055308   -6.2360795    6.2120137    6.1704489    6.4020317 
  -5.6066223   -6.0078608   -6.2356585    6.2086426    6.1718704    6.4058969 
  -5.6035607   -6.0100187    -6.235235    6.2068886    6.1724545     6.408599 
  -5.5999274   -6.0131474   -6.2371055    6.2040447     6.170915     6.412361 
   -5.596676    -6.018672   -6.2386239     6.202963    6.1713118    6.4128692 
  -5.5933766   -6.0246976    -6.237852    6.2040834    6.1719285    6.4151855 
  -5.5921614   -6.0283011   -6.2378437    6.2020853    6.1712722    6.4154731 
  -5.5899558   -6.0301792   -6.2371922    6.1993837    6.1736421    6.4151635 
   -5.586609   -6.0314989   -6.2341002    6.1980427     6.176098    6.4165373 
  -5.5855046   -6.0307939   -6.2326533    6.1945819    6.1783436    6.4199317 
     -5.5827   -6.0303086   -6.2305375    6.1913979    6.1821194    6.4211886 
   -5.578117   -6.0277985   -6.2276029    6.1909014     6.186272    6.4214649 
  -5.5765118   -6.0262263    -6.225004    6.1910849    6.1898452    6.4214874 
   -5.576198   -6.0231647   -6.2246085    6.1914482    6.1947038    6.4224265 
  -5.5785285   -6.0198988   -6.2242883    6.1892717    6.1994518    6.4239384 
  -5.5817664   -6.0177957   -6.2217728    6.1871926    6.2006801    6.4239415 
  -5.5826727   -6.0149433   -6.2213639     6.183581    6.2011131    6.4232628 
  -5.5812019   -6.0110165   -6.2217566    6.1815689    6.2013895    6.4218756 
  -5.5824165    -6.007301    -6.221611    6.1811844    6.2020827      6.42165 
  -5.5821091   -6.0053935   -6.2218364    6.1785733    6.2025416    6.4222261 
  -5.5805605   -6.0045838     -6.22072    6.1773239     6.199883     6.425591 
  -5.5795502   -6.0021466   -6.2200961    6.1751277    6.1977433    6.4261735 
  -5.5779325   -5.9997198      -6.2197     6.174963    6.1950639    6.4250788 
  -5.5754278   -5.9988666   -6.2206428    6.1733956    6.1966509    6.4252797 
  -5.5746499    -5.996044     -6.21938    6.1717229    6.1968607    6.4260589 
  -5.5761389    -5.991759   -6.2191215    6.1713039    6.2000946    6.4269324 
  -5.5753327   -5.9897459   -6.2203653    6.1718278    6.2030629    6.4264488 
  -5.5739548   -5.9886614   -6.2185337    6.1727491    6.2003703    6.4281408 
  -5.5735625   -5.9877248   -6.2183219    6.1737728    6.2005151    6.4294083 
  -5.5732221   -5.9887652     -6.21495    6.1726385    6.2005765    6.4271413 
  -5.5719609   -5.9919779   -6.2096416     6.170406    6.1989357     6.425707 
  -5.5686055   -5.9949035   -6.2072755    6.1740925    6.1978835    6.4253261 
  -5.5690456   -5.9972653   -6.2039093    6.1768284    6.1966769    6.4250876 
  -5.5689663   -5.9989448   -6.2025835    6.1788688    6.1914772    6.4233472 
  -5.5711691   -6.0010562     -6.20424    6.1803923    6.1873792    6.4213239 
  -5.5712047   -6.0013701   -6.2080488    6.1811351    6.1856582    6.4233995 
  -5.5686215   -6.0026312   -6.2093232    6.1777439    6.1863235     6.423587 
  -5.5662555   -6.0032462   -6.2073502    6.1736508    6.1910248    6.4234965 
  -5.5638392   -6.0035393   -6.2058433    6.1718881    6.1931945    6.4238965 
  -5.5621494   -6.0019332    -6.203918     6.169428    6.1975636    6.4243753 
  -5.5591297   -6.0018816   -6.2037259    6.1638259    6.2017819    6.4234926 
    -5.55692   -6.0027565   -6.2041598    6.1616859    6.2063008    6.4216115 
  -5.5543602   -6.0020557   -6.2047813     6.163286    6.2106601    6.4205953 
  -5.5519922   -6.0019853   -6.2046216    6.1645999    6.2151713    6.4199979 
  -5.5504235   -6.0053859   -6.2054226    6.1669203    6.2175628    6.4189274 
  -5.5496472   -6.0083334   -6.2055458     6.169189    6.2201899    6.4152826 
  -5.5502872   -6.0091638    -6.205822    6.1699682    6.2224959    6.4123219 
  -5.5503314   -6.0084256   -6.2075567    6.1723286     6.226233    6.4082314 
   -5.548759   -6.0067623   -6.2064119     6.174033    6.2287014    6.4044848 
  -5.5471493   -6.0086697   -6.2027595    6.1758183    6.2320214    6.3994321 
  -5.5468689   -6.0096665   -6.1980878    6.1782612    6.2362083     6.395332 
   -5.550044   -6.0103212   -6.1942833    6.1815175    6.2364501    6.3921943 
  -5.5524593   -6.0100626   -6.1926252    6.1838765    6.2389788    6.3882436 
  -5.5547379   -6.0110649   -6.1893337    6.1862414    6.2394733    6.3843148 
  -5.5590537   -6.0132803   -6.1878971    6.1880994    6.2383795    6.3839966 
  -5.5650805   -6.0143224   -6.1869036    6.1878144     6.239865     6.383907 
  -5.5688685   -6.0148304   -6.1879696    6.1888894    6.2419984    6.3843774 
  -5.5667894   -6.0167885   -6.1897646    6.1911305    6.2475848    6.3819949 
  -5.5659342   -6.0173453    -6.190137    6.1944676    6.2520918     6.382015 
  -5.5658375   -6.0168992   -6.1898366    6.1958487    6.2563152    6.3821806 
  -5.5629326    -6.018413   -6.1876808    6.1994296    6.2597581    6.3836748 
  -5.5628909   -6.0223376   -6.1868631    6.2018953    6.2636932     6.383009 
  -5.5617126   -6.0247978    -6.187417    6.2010782    6.2664589    6.3826364 
  -5.5589326    -6.026296   -6.1896941     6.203047    6.2687465     6.382173 
  -5.5572945   -6.0279747   -6.1939389    6.2037094     6.269935    6.3813708 
  -5.5570077   -6.0252449   -6.1971144    6.2046808    6.2743751    6.3794649 
  -5.5573412    -6.022046   -6.2013029    6.2044995    6.2779298    6.3781844 
  -5.5540522    -6.022611   -6.2004709    6.2053876    6.2792537    6.3775859 
  -5.5538831   -6.0256372    -6.198088    6.2031465    6.2790012    6.3802132 
  -5.5541532   -6.0257687   -6.1978738    6.2040172     6.278604    6.3816182 
   -5.555804   -6.0263747   -6.1975003    6.2060028    6.2805752     6.384495 
  -5.5549031   -6.0258382   -6.1975193     6.207656    6.2831048    6.3862714 
  -5.5550205   -6.0216934   -6.1996291    6.2097413    6.2818341    6.3880079 
  -5.5536053   -6.0192468    -6.198313     6.209896    6.2812849    6.3915918 
  -5.5511565   -6.0153332   -6.1987107    6.2091921    6.2823384    6.3901356 
  -5.5503176   -6.0114533   -6.1979625    6.2078116    6.2844094    6.3896191 
  -5.5473358   -6.0093625    -6.194471    6.2038398    6.2863328    6.3900679 
  -5.5425193   -6.0056445    -6.191412    6.2033337    6.2879852    6.3902081 
  -5.5400831    -6.001831   -6.1884058    6.2045833    6.2905117     6.390578 
  -5.5372136   -5.9988009   -6.1830115    6.2057227    6.2937746    6.3925938 
  -5.5367183   -5.9983406   -6.1826099    6.2071959    6.2949705    6.3960343 
   -5.534252    -5.995989   -6.1837966    6.2092723    6.2969668    6.3978679 
  -5.5317084   -5.9935675   -6.1838684    6.2128538     6.301385    6.4020714 
  -5.5274556   -5.9936608   -6.1856721    6.2163967    6.3030074    6.4009436 
  -5.5247492   -5.9952882   -6.1888267    6.2179833    6.3040905    6.3979125 
  -5.5220654   -5.9979249   -6.1884811     6.218713    6.3064363    6.3943251 
  -5.5200667   -5.9976126   -6.1895796    6.2199231    6.3075745    6.3926758 
  -5.5173908   -5.9992312   -6.1899905    6.2196446    6.3054787     6.390175 
   -5.518128   -6.0002769   -6.1905909    6.2204768    6.3029866    6.3878316 
  -5.5201349   -5.9974477   -6.1909917    6.2236778    6.3010651    6.3859951 
  -5.5211273   -5.9948901   -6.1919159    6.2265855    6.3008275    6.3842345 
  -5.5183162   -5.9918085   -6.1942655    6.2276143    6.2993049    6.3817486 
  -5.5147333   -5.9875058   -6.1956698    6.2299927    6.2977893    6.3811354 
  -5.5136692   -5.9863709    -6.195996    6.2316906     6.296154    6.3818256 
  -5.5112956   -5.9872116   -6.1974758    6.2322491    6.2920725    6.3834227 
  -5.5090025   -5.9858702   -6.1971128    6.2327919    6.2892481     6.385859 
  -5.5079211   -5.9861811   -6.1973124    6.2307457     6.287082    6.3878311 
  -5.5059792   -5.9861173   -6.1978069     6.229133    6.2835599    6.3885134 
  -5.5058166   -5.9869218    -6.196591    6.2281299    6.2797901       6.3871 
  -5.5069996   -5.9875796    -6.194804    6.2260925    6.2754212    6.3866951 
  -5.5049591   -5.9886551   -6.1944735    6.2252956    6.2701789    6.3850153 
  -5.5038448   -5.9900575   -6.1937931    6.2258413    6.2707533    6.3836164 
  -5.5019317   -5.9915392   -6.1918817    6.2277563    6.2716692    6.3857474 
   -5.500015   -5.9939667   -6.1939965    6.2289598    6.2716441    6.3846092 
  -5.4983842   -5.9962828   -6.1944545    6.2294017    6.2714659    6.3816094 
  -5.4972301   -5.9988544   -6.1946425    6.2287008    6.2750888    6.3798474 
  -5.4967445   -6.0007032   -6.1955037    6.2289509    6.2759213    6.3754559 
  -5.4952598   -6.0012502   -6.1981683    6.2306863    6.2788693    6.3740397 
  -5.4969315   -6.0020399   -6.2028105    6.2299326    6.2819435    6.3716631 
  -5.4965206   -6.0040842   -6.2021205    6.2287305    6.2830644    6.3695705 
  -5.4952529   -6.0057455    -6.200512    6.2304216    6.2834063    6.3702848 
   -5.491886   -6.0078829   -6.2008739    6.2333736    6.2851482    6.3688242 
   -5.488572   -6.0077145   -6.2034497    6.2329626    6.2873935    6.3680443 
  -5.4853766   -6.0064465   -6.2060033    6.2330231    6.2879669    6.3713661 
  -5.4822982   -6.0070804   -6.2087067    6.2333295    6.2893077    6.3728964 
  -5.4799697   -6.0053683   -6.2107913    6.2333919    6.2873667    6.3735334 
  -5.4780831   -6.0045935   -6.2115544    6.2325962    6.2872706    6.3750606 
  -5.4770958   -6.0035427   -6.2104874    6.2327828    6.2896093    6.3766263 
  -5.4772119   -6.0057017   -6.2099593     6.229364    6.2909529    6.3766651 
  -5.4768705   -6.0066069   -6.2111728    6.2263211    6.2913321    6.3769579 
  -5.4754036   -6.0072916   -6.2105539    6.2255691    6.2906134     6.378275 
   -5.474018   -6.0069234   -6.2095588    6.2255899    6.2898422    6.3757888 
  -5.4722437   -6.0056621   -6.2072582    6.2275029    6.2895796    6.3763166 
  -5.4708498   -6.0055946   -6.2054261    6.2263287    6.2926839    6.3764427 
  -5.4702224   -6.0073702   -6.2018385    6.2258591    6.2964358    6.3777876 
  -5.4716257   -6.0064092   -6.1990758      6.22568    6.2976364     6.377141 
  -5.4708506   -6.0064524   -6.1944949    6.2230134    6.2978956    6.3781391 
  -5.4713505   -6.0064541   -6.1899068      6.22156    6.2977979    6.3786331 
  -5.4721958   -6.0041091   -6.1872119    6.2169779     6.299619    6.3806848 
  -5.4711005   -6.0001507   -6.1862577    6.2128853    6.2994115    6.3825433 
  -5.4720299   -5.9988134   -6.1883385    6.2114622     6.300241    6.3810959 
  -5.4733315   -5.9971403    -6.188616    6.2088347    6.3023131    6.3825653 
  -5.4751518   -5.9953986   -6.1891511    6.2068641    6.3031006     6.382059 
  -5.4744665   -5.9923568    -6.189873    6.2032976     6.305749    6.3809503 
  -5.4736222   -5.9895054   -6.1888514    6.2002683    6.3086972    6.3788076 
  -5.4733884   -5.9873108   -6.1900447    6.1993371     6.311431     6.374196 
  -5.4737271   -5.9856468   -6.1895208    6.1958025    6.3128331    6.3714858 
  -5.4726557   -5.9840937   -6.1883096    6.1924364    6.3157921     6.370721 
  -5.4705604   -5.9830211    -6.185878    6.1931385     6.317953    6.3732753 
  -5.4698098    -5.983382   -6.1840517     6.195327    6.3180508    6.3753151 
  -5.4682185   -5.9832643   -6.1833114    6.1933121    6.3199141    6.3756518 
  -5.4679619   -5.9816174   -6.1794669    6.1912985    6.3202258    6.3744688 
  -5.4661295    -5.980585   -6.1769834     6.190612    6.3212541    6.3737311 
  -5.4629447   -5.9788979   -6.1763656    6.1889412    6.3246715    6.3738401 
  -5.4630901   -5.9760583   -6.1771061    6.1863129    6.3264713    6.3739575 
  -5.4630958   -5.9722824   -6.1767378    6.1877645    6.3283928    6.3741766 
  -5.4646909   -5.9707477   -6.1762732    6.1930347    6.3283666    6.3748034 
  -5.4666279   -5.9686541   -6.1710759    6.1968048    6.3290333    6.3758204 
  -5.4677764   -5.9633162   -6.1640549    6.2003305    6.3301515    6.3744179 
  -5.4702307   -5.9596252   -6.1577723    6.2020335    6.3283698    6.3747446 
  -5.4737026   -5.9580701   -6.1506357    6.2040965     6.326824    6.3769594 
  -5.4745045     -5.95733   -6.1461433    6.2063531     6.326977    6.3796726 
  -5.4752814   -5.9554513   -6.1427781    6.2098728    6.3278559    6.3820447 
  -5.4759894   -5.9553458    -6.140003    6.2089745    6.3270703     6.381914 
  -5.4795059   -5.9543967   -6.1349781    6.2115917    6.3269892    6.3816718 
  -5.4832351   -5.9517229   -6.1309393    6.2155989    6.3244851    6.3816601 
  -5.4869127   -5.9475256   -6.1303089    6.2145069    6.3225203    6.3804866 
  -5.4879513   -5.9444654   -6.1270307    6.2136455    6.3207469    6.3794795 
  -5.4886247   -5.9415317   -6.1221092    6.2132147    6.3181852    6.3798801 
  -5.4887838   -5.9370018   -6.1186657    6.2122635    6.3155012    6.3824708 
   -5.489896   -5.9352535   -6.1169665    6.2113069    6.3112792    6.3848473 
  -5.4907412    -5.935592   -6.1173981    6.2127686    6.3081729    6.3871184 
  -5.4915536   -5.9331843   -6.1182875    6.2139761    6.3050055    6.3900811 
  -5.4913864   -5.9303699   -6.1182197    6.2141544     6.306138    6.3895519 
  -5.4918247   -5.9276391   -6.1164259    6.2170376    6.3034611    6.3887195 
  -5.4921179   -5.9258561   -6.1164751    6.2192762    6.3055584    6.3900046 
  -5.4930319   -5.9266023   -6.1149681    6.2201979    6.3082338     6.391536 
  -5.4920807   -5.9286697   -6.1167042    6.2200848    6.3099977     6.391782 
  -5.4916743    -5.931577   -6.1183159    6.2222982     6.309767    6.3933015 
  -5.4915901    -5.934111   -6.1196623    6.2240269    6.3092665    6.3971689 
  -5.4922877   -5.9364542   -6.1180412    6.2241762    6.3105976    6.3978107 
   -5.492153   -5.9378796   -6.1171313    6.2259252    6.3115439    6.3974258 
  -5.4937909   -5.9366392   -6.1171116    6.2265899    6.3142317    6.3954186 
  -5.4963245   -5.9325309   -6.1147822    6.2249685    6.3160289    6.3945053 
  -5.4988473   -5.9283145   -6.1144351     6.223193     6.316869    6.3975019 
  -5.4985862   -5.9253982    -6.112623    6.2228671     6.317915    6.3967154 
  -5.4987354   -5.9217513    -6.107981    6.2247273    6.3161469    6.3968934 
  -5.4994986   -5.9202363   -6.1080407    6.2269269    6.3144471    6.3969172 
  -5.4991338    -5.919834   -6.1076952    6.2285797    6.3121314    6.3966614 
  -5.5007352   -5.9234101   -6.1076231    6.2286318    6.3104651     6.397271 
  -5.4954288    -5.926058   -6.1068875     6.229835    6.3092884    6.3967401 
  -5.4933373   -5.9274795   -6.1048696    6.2282971    6.3091573    6.3953167 
  -5.4931075   -5.9277409   -6.1038426    6.2271699    6.3084667    6.3943538 
  -5.4903095    -5.928951   -6.1000417    6.2272152    6.3084857    6.3923361 
  -5.4864871   -5.9295988   -6.0991832    6.2265451    6.3060064    6.3914348 
  -5.4813229   -5.9319258   -6.0984496    6.2260262    6.3046208    6.3890527 
  -5.4771489    -5.935714   -6.0950179    6.2264672      6.30265    6.3885856 
  -5.4756753   -5.9363175   -6.0912391    6.2231685    6.3018886    6.3874578 
  -5.4752616   -5.9351226   -6.0849741    6.2179477    6.3021215    6.3907922 
  -5.4768903   -5.9357193   -6.0811255     6.215478    6.3011241    6.3939166 
  -5.4778284    -5.930966   -6.0780137    6.2111541    6.3028529     6.397558 
  -5.4758523   -5.9244407   -6.0759365    6.2068973    6.3011934    6.4009706 
   -5.472368   -5.9204712   -6.0753751    6.2028676    6.2996566    6.4025718 
  -5.4695905   -5.9163254   -6.0743355    6.2021733    6.2993846    6.4030388 
  -5.4654848   -5.9108535   -6.0732039    6.2022225    6.2999846     6.404186 
  -5.4652365   -5.9055085   -6.0720739    6.2022341    6.3014096    6.4050545 
  -5.4650628   -5.9013707   -6.0742509    6.2024866    6.3052946    6.4064197 
  -5.4660453    -5.901183   -6.0756629    6.2029375    6.3051464    6.4082977 
  -5.4647311   -5.9035058   -6.0758397    6.2052956    6.3064015    6.4095582 
  -5.4636649   -5.9045387   -6.0769368    6.2081227    6.3084876    6.4087875 
  -5.4615933   -5.9055884   -6.0774091    6.2094263    6.3072806     6.406971 
  -5.4579756   -5.9066052    -6.074983     6.208911     6.307125    6.4058798 
  -5.4556131   -5.9075285   -6.0723578    6.2089099    6.3092638    6.4081397 
   -5.452272   -5.9084066   -6.0676028    6.2084262    6.3100278    6.4106235 
  -5.4492934   -5.9089238   -6.0672803    6.2069764    6.3124439    6.4118672 
  -5.4457752   -5.9079998   -6.0687274    6.2085057    6.3140623    6.4143317 
  -5.4429977   -5.9069091   -6.0709282    6.2065402    6.3138597    6.4167624 
  -5.4372865   -5.9039285   -6.0728611    6.2043379     6.315864    6.4208766 
  -5.4331393   -5.9016452   -6.0743965    6.2013438    6.3151769    6.4223589 
  -5.4289504   -5.9022483   -6.0735052    6.1983272    6.3143624     6.422433 
  -5.4269382   -5.9021057   -6.0720795     6.196144    6.3152582    6.4255249 
   -5.423468   -5.9024276   -6.0705311    6.1946942    6.3176665    6.4300351 
  -5.4211107   -5.9023994    -6.069781    6.1915038    6.3202066     6.435095 
  -5.4207372   -5.9024391   -6.0684034    6.1881337    6.3216379    6.4384487 
  -5.4195985   -5.9000502   -6.0691459    6.1880324    6.3240189    6.4393706 
  -5.4201952   -5.8975655   -6.0698786    6.1913276    6.3267183    6.4401117 
  -5.4165273   -5.8973273   -6.0691559    6.1896588    6.3305317    6.4398031 
  -5.4129615   -5.8965127   -6.0671249    6.1893711    6.3348734    6.4393006 
  -5.4126633   -5.8965613   -6.0653594    6.1892895    6.3383805    6.4401284 
  -5.4136139   -5.8946602   -6.0598509    6.1895394    6.3384949    6.4395281 
   -5.415446   -5.8965664   -6.0548443    6.1896334    6.3385323    6.4391568 
  -5.4165441   -5.8974704   -6.0485017    6.1883331    6.3361918     6.437595 
   -5.414926   -5.8979906    -6.043987     6.190262    6.3345714    6.4354423 
  -5.4141904   -5.8987186   -6.0433259    6.1899513    6.3346287    6.4331284 
  -5.4137376   -5.8994542   -6.0410426    6.1885938    6.3345758    6.4321205 
  -5.4136982   -5.9017282   -6.0371934    6.1883138    6.3351806    6.4322105 
  -5.4132096   -5.9035499   -6.0335684    6.1883648    6.3378467     6.434262 
  -5.4132905   -5.9025619    -6.030868    6.1882273    6.3378688    6.4357346 
  -5.4120575   -5.8987234   -6.0272697    6.1872215    6.3375417    6.4377797 
  -5.4139916   -5.8963396    -6.024142    6.1860243    6.3361793    6.4395762 
   -5.411849   -5.8941369   -6.0198477    6.1864265    6.3358057    6.4415416 
  -5.4102789   -5.8925295   -6.0159386    6.1829808    6.3361595    6.4415854 
  -5.4079752   -5.8919043   -6.0147868    6.1838254     6.334432    6.4416733 
  -5.4080727   -5.8926661   -6.0132626    6.1837194    6.3329395    6.4420547 
  -5.4077128    -5.893832   -6.0147984     6.184128    6.3342026    6.4400891 
  -5.4084889   -5.8935953   -6.0151498    6.1835683     6.336349    6.4381754 
  -5.4086454   -5.8935304   -6.0149253     6.184136    6.3356784    6.4342277 
  -5.4077502    -5.895811   -6.0134275    6.1845773    6.3348664    6.4310445 
  -5.4061704   -5.8969257   -6.0126145     6.184518    6.3364693    6.4292759 
  -5.4035413   -5.8999038   -6.0123045    6.1837955    6.3370824    6.4296192 
  -5.4017298   -5.9003461   -6.0112084    6.1830099    6.3367501    6.4325464 
  -5.4013944   -5.8988447   -6.0077714     6.183111    6.3403793    6.4328495 
  -5.4025484   -5.8982377   -6.0042772     6.183139    6.3410709    6.4332829 
  -5.4050296    -5.897746   -6.0029048    6.1804649    6.3433541    6.4344556 
  -5.4066556   -5.8983392   -6.0021211    6.1797379    6.3489211    6.4371924 
  -5.4071108    -5.899944   -6.0014522    6.1760894    6.3530243     6.437207 
  -5.4033112    -5.900068   -6.0003185    6.1768485    6.3555578    6.4364622 
  -5.4031114   -5.8991665   -5.9976878    6.1780523    6.3583435    6.4357815 
  -5.4039487   -5.8976571    -5.996967    6.1794152    6.3589797    6.4359169 
  -5.4040282   -5.8952452   -5.9949307    6.1788829    6.3579398    6.4337165 
  -5.4031526   -5.8944698   -5.9959535    6.1752774    6.3571762    6.4320457 
   -5.402165   -5.8962189   -5.9998098    6.1750348    6.3596949    6.4307946 
  -5.4001061   -5.8976433   -6.0036461    6.1718722     6.360667    6.4277884 
  -5.3966277   -5.8998097   -6.0066433    6.1664618    6.3621347    6.4233725 
   -5.394324   -5.9000668   -6.0112845    6.1636158    6.3636481    6.4208571 
  -5.3945802   -5.9009452   -6.0128371    6.1586899    6.3655134    6.4212769 
  -5.3924349   -5.9019904   -6.0151658    6.1550145    6.3671978    6.4213355 
   -5.392244   -5.9002361   -6.0178838    6.1544357    6.3701806    6.4228057 
  -5.3919631    -5.901029   -6.0203382     6.151989    6.3707365    6.4239288 
   -5.391979   -5.9012776   -6.0228959    6.1498358    6.3720078    6.4235161 
   -5.392922   -5.9011517   -6.0238424    6.1495156    6.3739137    6.4252747 
  -5.3947496   -5.9030404   -6.0260414      6.14939    6.3731397    6.4267799 
  -5.3932204    -5.905492   -6.0264658    6.1476473    6.3708505     6.425859 
  -5.3935455   -5.9056375   -6.0269762    6.1448416    6.3709917    6.4260068 
  -5.3929826   -5.9043869     -6.03051    6.1433975    6.3694291    6.4259315 
  -5.3901483   -5.9024573   -6.0324758    6.1419529    6.3690996    6.4266664 
  -5.3879713   -5.9012074   -6.0347167    6.1401681    6.3679074    6.4290075 
  -5.3915711   -5.8992104   -6.0332093    6.1383828    6.3644529    6.4305267 
  -5.3950537   -5.8972834   -6.0363633    6.1363949    6.3638046    6.4315506 
  -5.3963987   -5.8936433   -6.0383271    6.1338165    6.3633889    6.4326583 
  -5.3969155   -5.8920073   -6.0388555    6.1332404    6.3640912    6.4338734 
   -5.396168    -5.888332   -6.0402478    6.1336193    6.3622582    6.4342654 
  -5.3949944   -5.8850099   -6.0376683    6.1348801    6.3645392    6.4351737 
  -5.3914988   -5.8802893    -6.038069    6.1359221    6.3669682    6.4356011 
  -5.3888087   -5.8770178   -6.0348293    6.1351997     6.366045    6.4391466 
  -5.3858359    -5.874305   -6.0297886    6.1339315     6.365355     6.440561 
  -5.3829034   -5.8724363   -6.0253145    6.1330959    6.3679851    6.4427343 
  -5.3790668    -5.870466   -6.0190233    6.1318484    6.3697528    6.4456111 
[...]
  -6.0537051   -4.3802798   -5.8616597    7.1487506    5.0050702    5.9192209 
  -6.0526702   -4.3791445   -5.8599436    7.1470365      5.00581    5.9195338 
  -6.0534715   -4.3789212   -5.8589978    7.1440309    5.0070402    5.9202501 
  -6.0553155   -4.3775224   -5.8565835    7.1392101    5.0060431    5.9183429 
  -6.0585473   -4.3740829   -5.8506158    7.1360689    5.0043362     5.917213 
   -6.062592   -4.3728879   -5.8457982    7.1336223    5.0030372    5.9175396 
  -6.0662123   -4.3712748   -5.8425528    7.1304482     5.001195    5.9212565 
  -6.0676432   -4.3691748   -5.8386469    7.1292748    5.0020653    5.9216837 
  -6.0686736   -4.3710485   -5.8353728    7.1275271    5.0012312    5.9205751 
  -6.0715828   -4.3692664   -5.8349182    7.1257874    4.9981232     5.916627 
  -6.0766367   -4.3672398    -5.834538    7.1266667      4.99588    5.9151704 
  -6.0793722   -4.3669966   -5.8354489    7.1256299    4.9948514    5.9147423 
  -6.0815919   -4.3698057    -5.833413    7.1256889    4.9946719    5.9151388 
  -6.0812601   -4.3719032   -5.8336435    7.1251827    4.9925727    5.9182527 
  -6.0827033   -4.3723421   -5.8330278    7.1268879    4.9893024    5.9236866 
  -6.0849254   -4.3736665   -5.8311818    7.1271139    4.9868708    5.9269795 
  -6.0889748   -4.3747695   -5.8310556    7.1267701     4.983418    5.9323358 
   -6.091073   -4.3735352   -5.8295779    7.1244734    4.9818688    5.9360533 
  -6.0917648   -4.3727913   -5.8271199    7.1196129    4.9814432    5.9383279 
  -6.0919912   -4.3709338   -5.8265051    7.1166532      4.98068     5.939087 
  -6.0920889   -4.3692155   -5.8238056    7.1143839    4.9795822     5.941163 
  -6.0936401   -4.3679701   -5.8214351    7.1103606    4.9786183    5.9410443 
  -6.0965389   -4.3683242   -5.8198618    7.1095359    4.9803919    5.9402273 
  -6.0979114   -4.3713641   -5.8205417    7.1070159    4.9816475    5.9411701 
  -6.0994434   -4.3729941    -5.822689    7.1079294    4.9809929    5.9431453 
  -6.1005352   -4.3747701   -5.8273124    7.1097773    4.9804201    5.9421382 
  -6.1008009   -4.3759868    -5.828799    7.1089062    4.9792945    5.9422556 
   -6.099822   -4.3783921   -5.8310084     7.107393    4.9777651    5.9413588 
  -6.0998827   -4.3796335   -5.8347396    7.1103025    4.9785558    5.9423044 
  -6.1010149   -4.3803537   -5.8369994    7.1101044    4.9795301    5.9443806 
  -6.1030764     -4.37789   -5.8399594    7.1106012    4.9809186    5.9444777 
  -6.1034306   -4.3741125   -5.8415883    7.1096646    4.9792038    5.9458392 
  -6.1056964   -4.3695439   -5.8430381    7.1085451    4.9777628    5.9479937 
  -6.1060965   -4.3643708   -5.8419509    7.1083054    4.9757901    5.9495552 
  -6.1115828   -4.3631134   -5.8382091    7.1063706    4.9756762    5.9504331 
  -6.1126081   -4.3615734   -5.8374634    7.1036985    4.9767655    5.9477733 
  -6.1142342   -4.3581954   -5.8384752    7.1006267     4.975521    5.9441957 
  -6.1145851   -4.3534273   -5.8393764    7.0987108    4.9748919    5.9435187 
   -6.115886   -4.3501879   -5.8402603    7.0981648    4.9753361    5.9413409 
  -6.1160222   -4.3482039   -5.8394813    7.0958522    4.9747891    5.9392137 
  -6.1178888   -4.3456165   -5.8423842    7.0937794    4.9746014    5.9363497 
  -6.1179144   -4.3460607   -5.8429457    7.0895835    4.9759697    5.9344036 
  -6.1164907   -4.3466074   -5.8450134     7.088891    4.9747292    5.9317802 
  -6.1144211   -4.3450345   -5.8453705    7.0889502     4.974702     5.930728 
  -6.1146491   -4.3443759   -5.8410105    7.0891312    4.9759331    5.9294634 
  -6.1163911   -4.3437017   -5.8367508    7.0884056    4.9784329    5.9274438 
  -6.1164084   -4.3409799   -5.8327829    7.0871928    4.9792212    5.9237592 
  -6.1173826   -4.3396196   -5.8309916    7.0875554    4.9806991    5.9235686 
  -6.1147549   -4.3365896   -5.8290134    7.0875015      4.98153    5.9225576 
   -6.114505   -4.3350482   -5.8279764     7.087896    4.9805995    5.9205199 
  -6.1159346     -4.33619   -5.8285529    7.0877433    4.9789513    5.9193426 
  -6.1193444   -4.3346958    -5.830551     7.086772    4.9771204    5.9176633 
  -6.1225896   -4.3320628   -5.8334944    7.0853605    4.9773211    5.9182477 
  -6.1230421   -4.3301198   -5.8380082    7.0840971    4.9779748    5.9166655 
  -6.1228709   -4.3281511   -5.8439939    7.0833014    4.9792161    5.9159986 
  -6.1239999   -4.3266799   -5.8449366    7.0811417    4.9794583    5.9188132 
   -6.125036   -4.3264289   -5.8457067    7.0791221    4.9797384    5.9204896 
  -6.1251639   -4.3262697   -5.8464268    7.0759392    4.9840163    5.9232504 
  -6.1254657   -4.3261066   -5.8473535    7.0740746    4.9885736    5.9233524 
  -6.1237933    -4.324879   -5.8477552     7.074417     4.992752    5.9229317 
  -6.1250618   -4.3251029   -5.8478427    7.0776711    4.9961942    5.9209571 
  -6.1252486   -4.3241303   -5.8472717    7.0816515    4.9962698    5.9205962 
  -6.1270601   -4.3236943   -5.8455012    7.0838505    4.9988402    5.9193121 
  -6.1268155   -4.3231347   -5.8460244    7.0841353     4.998241    5.9201606 
    -6.12612   -4.3227139   -5.8439148    7.0841134    4.9961467    5.9214314 
  -6.1256093   -4.3243597   -5.8440884    7.0872636    4.9948899    5.9208966 
  -6.1250203   -4.3232282   -5.8416719     7.090232    4.9946849    5.9220598 
  -6.1237582   -4.3241445   -5.8389012    7.0920915    4.9938962    5.9216312 
  -6.1251867   -4.3246797   -5.8385204    7.0929775    4.9935494      5.92236 
  -6.1258339   -4.3254891   -5.8383072    7.0928031    4.9903701    5.9232833 
  -6.1264241   -4.3263699   -5.8360202    7.0914004    4.9897624    5.9242625 
  -6.1265422   -4.3296886   -5.8328113    7.0900526    4.9896575    5.9255043 
  -6.1270954   -4.3317141   -5.8329119    7.0895987    4.9875094    5.9282043 
  -6.1264153   -4.3338277   -5.8331815    7.0869353    4.9863973    5.9330256 
  -6.1286965   -4.3333146   -5.8326237    7.0868897    4.9863895    5.9381075 
  -6.1309885    -4.330952   -5.8310938    7.0848577    4.9882301    5.9424868 
  -6.1349547   -4.3277556   -5.8306793    7.0820157    4.9881579    5.9453584 
  -6.1372875   -4.3229968   -5.8310757    7.0804131    4.9888989    5.9468412 
  -6.1383089   -4.3199339    -5.830562    7.0801776    4.9907697     5.946191 
  -6.1413186   -4.3178923   -5.8325777    7.0803823    4.9921996     5.945166 
  -6.1438586   -4.3219639   -5.8343668    7.0779192    4.9956538    5.9445632 
  -6.1455301   -4.3234284   -5.8373243    7.0755747    4.9980441    5.9454172 
  -6.1483303   -4.3223514   -5.8409676    7.0719235    5.0021488    5.9468385 
  -6.1509716   -4.3213616   -5.8424243    7.0690672    5.0032407    5.9488283 
  -6.1502071   -4.3211357   -5.8426152    7.0659271    5.0029519    5.9498561 
  -6.1483365   -4.3216483   -5.8456692    7.0647744    5.0020762    5.9526312 
  -6.1452695   -4.3229679   -5.8478671    7.0653609    5.0012167    5.9558481 
  -6.1446756   -4.3226856   -5.8497223    7.0661288    5.0012458    5.9584923 
  -6.1464792   -4.3217942   -5.8508698     7.064083    5.0023261    5.9616404 
  -6.1468229   -4.3231952   -5.8533597    7.0652864    5.0049029    5.9654194 
  -6.1457048   -4.3232538   -5.8528127    7.0660974    5.0072958    5.9685917 
  -6.1434065   -4.3230164   -5.8529169    7.0662822    5.0097883    5.9712344 
  -6.1404611   -4.3257662   -5.8519818    7.0675014    5.0137349    5.9737962 
  -6.1400383   -4.3298777   -5.8525835    7.0665797    5.0144722    5.9739153 
  -6.1398507   -4.3341285   -5.8531835    7.0676028    5.0170032    5.9725629 
  -6.1398159   -4.3359295   -5.8519448    7.0685985    5.0183952    5.9699628 
  -6.1414925   -4.3367246   -5.8521881     7.068104    5.0187632    5.9672694 
    -6.14341   -4.3403452   -5.8538153    7.0682169    5.0189373    5.9678807 
  -6.1463575   -4.3413969    -5.851389    7.0652686    5.0195801    5.9668251 
  -6.1457529   -4.3440899    -5.849919    7.0675364    5.0198415    5.9663745 
  -6.1465561   -4.3477026   -5.8494197    7.0691292    5.0212032    5.9670397 
    -6.14899   -4.3524696   -5.8501808    7.0738341    5.0231574    5.9656708 
  -6.1509545   -4.3567377   -5.8550577    7.0751223    5.0249382    5.9657753 
  -6.1531725   -4.3614234   -5.8551812    7.0750513     5.026198    5.9655594 
  -6.1563021   -4.3648498    -5.852683    7.0759381    5.0245607    5.9652574 
  -6.1577569   -4.3659808   -5.8488127    7.0747686    5.0237673    5.9668315 
  -6.1601595   -4.3675439   -5.8459892    7.0731292    5.0264001    5.9693011 
  -6.1611645   -4.3704158   -5.8433784    7.0738743    5.0285672    5.9689732 
  -6.1629118    -4.373004   -5.8410582    7.0778461    5.0299827    5.9684761 
  -6.1649359   -4.3766189   -5.8392719    7.0818185    5.0320918    5.9663613 
  -6.1654617    -4.377031   -5.8370221     7.085073    5.0345879    5.9654091 
  -6.1656751   -4.3794702   -5.8354181    7.0878328    5.0356354    5.9634503 
  -6.1630839   -4.3815867   -5.8352594    7.0890583    5.0350279    5.9613615 
  -6.1606741   -4.3828441   -5.8342255     7.089318    5.0320536     5.959872 
  -6.1571857   -4.3818386   -5.8315903    7.0920119    5.0293135    5.9609347 
  -6.1565593    -4.381721   -5.8308377    7.0938673    5.0257392    5.9626272 
  -6.1564972    -4.380228   -5.8289646    7.0973732    5.0240883    5.9643874 
  -6.1565624   -4.3792742   -5.8285303     7.102185    5.0228074    5.9641302 
  -6.1565151   -4.3793822   -5.8290546    7.1054488    5.0213503    5.9632067 
   -6.155775   -4.3805639   -5.8261886    7.1091323    5.0198333    5.9625706 
  -6.1543204   -4.3802258   -5.8255849    7.1131533    5.0186529    5.9631963 
  -6.1543869   -4.3795823   -5.8232428    7.1160074    5.0165128    5.9643697 
  -6.1534806   -4.3793837   -5.8226715    7.1187904    5.0158793    5.9674726 
  -6.1523643   -4.3783236   -5.8230839     7.123525    5.0163083    5.9696985 
  -6.1499204   -4.3757662   -5.8257463    7.1285365    5.0162644    5.9729028 
  -6.1507596   -4.3751727   -5.8274243    7.1324141    5.0145428    5.9727272 
  -6.1505763   -4.3758251   -5.8268633    7.1330875    5.0133546    5.9734307 
  -6.1525827   -4.3731587   -5.8246226    7.1347041    5.0094729    5.9716725 
  -6.1542097   -4.3705389    -5.823507    7.1353098    5.0045261    5.9698479 
  -6.1565534   -4.3689289   -5.8236774    7.1359114    5.0021969    5.9673748 
  -6.1572916   -4.3675634   -5.8239827     7.137218    4.9989794    5.9639656 
  -6.1580466   -4.3675414   -5.8231658    7.1388678    4.9954842    5.9610247 
  -6.1561573   -4.3687385   -5.8225729    7.1382911    4.9932892    5.9616224 
  -6.1577176   -4.3696587   -5.8223102     7.137622    4.9913883    5.9614702 
  -6.1601671   -4.3739653   -5.8244612    7.1367756    4.9899504      5.96004 
  -6.1619509    -4.375258   -5.8249105    7.1339462    4.9877174    5.9580706 
  -6.1634723   -4.3772518   -5.8232229    7.1331326    4.9879659    5.9552202 
  -6.1615735   -4.3780798   -5.8205463    7.1294547    4.9892468    5.9525479 
  -6.1622556   -4.3783108   -5.8188462    7.1274662    4.9919894    5.9504632 
  -6.1598509   -4.3792196   -5.8169652    7.1246717    4.9914945     5.946385 
  -6.1580018   -4.3769722   -5.8188956    7.1232456    4.9906822    5.9447409 
   -6.157851   -4.3727812   -5.8173785    7.1196416    4.9901189    5.9445612 
  -6.1604637   -4.3684096   -5.8162411    7.1167625    4.9913547    5.9430419 
  -6.1640373   -4.3644656   -5.8145318    7.1150448    4.9917767    5.9415366 
  -6.1668153   -4.3613378   -5.8113639    7.1107052    4.9903568     5.941948 
  -6.1696412   -4.3617312   -5.8071938    7.1094418    4.9901841    5.9395899 
  -6.1705548   -4.3606118   -5.8047747    7.1074799    4.9899639    5.9375329 
  -6.1712721   -4.3588013   -5.8015063    7.1082026    4.9906257    5.9370514 
  -6.1731973   -4.3588145   -5.7993684    7.1099093    4.9918338    5.9326759 
  -6.1750215   -4.3598833   -5.7961702    7.1124925    4.9927112    5.9276643 
   -6.177079   -4.3613468   -5.7953677    7.1145711    4.9927601    5.9233511 
  -6.1784067   -4.3627589   -5.7957081    7.1153063    4.9897553    5.9216779 
  -6.1786983   -4.3623363   -5.7935924    7.1136645    4.9882299    5.9209809 
  -6.1797748   -4.3591372   -5.7931691    7.1114046    4.9881669    5.9221412 
  -6.1809337   -4.3579293   -5.7917864    7.1110358    4.9878553    5.9254505 
  -6.1813662   -4.3567291   -5.7888557    7.1089228    4.9874153    5.9263007 
  -6.1819682   -4.3546986   -5.7852688    7.1076994    4.9851801     5.927039 
   -6.184973    -4.352882   -5.7802035     7.108057    4.9828936    5.9279195 
  -6.1883854    -4.352278   -5.7758198    7.1114365    4.9811414    5.9295972 
  -6.1929422   -4.3549275   -5.7698664    7.1128674    4.9810033    5.9298684 
  -6.1961472   -4.3558439    -5.765005     7.115669    4.9819634    5.9295647 
  -6.1963618   -4.3583061   -5.7607733    7.1146287    4.9794574    5.9279981 
  -6.2003387   -4.3601102   -5.7549818    7.1155528    4.9771211    5.9261663 
  -6.2054928    -4.360046   -5.7528283    7.1151157    4.9743761    5.9265085 
  -6.2107235   -4.3610642   -5.7511897    7.1131683    4.9723901    5.9239769 
   -6.214319   -4.3605393   -5.7477426    7.1149924    4.9702431    5.9222696 
   -6.216031   -4.3647316   -5.7476493    7.1160763    4.9682788    5.9203338 
   -6.213709   -4.3689721   -5.7454003     7.118822    4.9672319    5.9192772 
  -6.2088389   -4.3722645   -5.7451238    7.1195795    4.9664645    5.9186508 
  -6.2052855   -4.3754727    -5.745994    7.1215366    4.9660977    5.9198274 
  -6.2022249   -4.3767873   -5.7461822    7.1241468    4.9643596     5.917838 
  -6.1970188   -4.3800618   -5.7452993    7.1276039     4.965891    5.9178038 
  -6.1937799   -4.3827018   -5.7420482    7.1319267     4.967608    5.9189116 
  -6.1924254   -4.3833892   -5.7397202    7.1338847    4.9686824    5.9220703 
  -6.1909819   -4.3835398   -5.7395309    7.1342455    4.9683655    5.9256209 
  -6.1906912   -4.3838442   -5.7393498    7.1382702    4.9670959     5.922747 
  -6.1914502   -4.3849287   -5.7403946    7.1409739    4.9656115    5.9168151 
  -6.1915716   -4.3838222   -5.7414368    7.1426267    4.9625763    5.9100154 
  -6.1923414   -4.3822571   -5.7403789    7.1413475     4.960351    5.9053908 
  -6.1902416   -4.3799444   -5.7396658    7.1402999    4.9575782    5.9038331 
  -6.1873671   -4.3771625   -5.7375509    7.1401007    4.9547065    5.9020378 
  -6.1842735    -4.375419   -5.7389352    7.1391166    4.9518591    5.8992709 
  -6.1821288   -4.3777846   -5.7387455    7.1418037     4.950836    5.8969415 
  -6.1789372   -4.3803175   -5.7386337    7.1446591    4.9500573    5.8953713 
  -6.1779845   -4.3812165   -5.7372327    7.1478117    4.9484194    5.8939279 
    -6.17615   -4.3850774   -5.7359704    7.1497991    4.9477699    5.8932464 
  -6.1741077   -4.3871565   -5.7370095    7.1498239    4.9497361    5.8906918 
  -6.1715774   -4.3888267   -5.7386143    7.1531623    4.9549691    5.8881204 
  -6.1712361   -4.3874611   -5.7394437    7.1559947    4.9572977    5.8856072 
  -6.1718365   -4.3864989   -5.7398929    7.1574609    4.9593596    5.8844517 
  -6.1726379   -4.3846153   -5.7394669    7.1578152    4.9614209    5.8814989 
  -6.1732494   -4.3846463   -5.7383346    7.1610794    4.9648051    5.8794286 
  -6.1740979    -4.384327   -5.7366584    7.1635525    4.9643061    5.8767145 
  -6.1738426   -4.3859878   -5.7365425     7.165649    4.9642447     5.871947 
   -6.172275   -4.3873698   -5.7358667    7.1661707    4.9622744    5.8706021 
  -6.1746459   -4.3884841   -5.7357842     7.166382     4.962524    5.8680114 
  -6.1761295   -4.3899169   -5.7339098    7.1658084    4.9624346    5.8643085 
  -6.1775821   -4.3922253   -5.7328492    7.1652847     4.961148    5.8633053 
  -6.1769073   -4.3910719   -5.7315579    7.1653683      4.96041    5.8621552 
   -6.178189   -4.3929695    -5.730172    7.1659808    4.9627575    5.8608163 
  -6.1799295   -4.3968915   -5.7302913    7.1692995    4.9624299    5.8608774 
  -6.1804102   -4.4010159   -5.7314872    7.1726856    4.9655955    5.8612594 
  -6.1812975   -4.4063034   -5.7327267    7.1759187    4.9668168    5.8616524 
  -6.1817476   -4.4085877   -5.7331997    7.1768024    4.9643686    5.8594351 
  -6.1825991   -4.4105079   -5.7358774    7.1759732    4.9613462    5.8566033 
  -6.1837659   -4.4123143   -5.7355811    7.1760103     4.958829    5.8538381 
  -6.1855655   -4.4130822   -5.7350695    7.1771803    4.9565031    5.8503576 
  -6.1863009   -4.4135482   -5.7346863    7.1786144    4.9522197      5.84872 
  -6.1888784   -4.4137802   -5.7313871    7.1801375    4.9506822    5.8458815 
  -6.1890993   -4.4122928   -5.7321585    7.1807701    4.9484021    5.8433008 
  -6.1868592   -4.4101073   -5.7335567    7.1792312    4.9475369    5.8406885 
  -6.1861069   -4.4070874   -5.7329405    7.1787236    4.9458916    5.8356946 
  -6.1872526   -4.4047644   -5.7313771    7.1776653    4.9473205    5.8316876 
   -6.186738   -4.4068445   -5.7302873    7.1771745    4.9496682    5.8308553 
  -6.1878485   -4.4092541   -5.7284267    7.1780904    4.9514082    5.8311311 
  -6.1891171   -4.4133036   -5.7282336    7.1774076    4.9516453    5.8310501 
  -6.1910407   -4.4137155   -5.7255771    7.1783188    4.9520812    5.8308305 
  -6.1926481   -4.4139061   -5.7213892    7.1794439    4.9526182    5.8303796 
  -6.1913583   -4.4161272    -5.718834    7.1786892    4.9509084    5.8306965 
  -6.1884151   -4.4159417     -5.71627    7.1760164    4.9486693    5.8299199 
   -6.187603   -4.4170861   -5.7126843    7.1720427    4.9480819    5.8275888 
  -6.1891166   -4.4180302   -5.7110361    7.1686579    4.9479336    5.8277474 
  -6.1897446   -4.4193395   -5.7088976    7.1676419    4.9491138    5.8268002 
  -6.1894966   -4.4201051   -5.7042932    7.1661003    4.9494153    5.8255419 
  -6.1881042   -4.4175855   -5.7020913    7.1652647    4.9507847      5.82142 
  -6.1864206   -4.4170572   -5.7005305    7.1645259    4.9502945     5.819389 
  -6.1875008   -4.4169098   -5.6983551     7.165311    4.9498689    5.8178947 
  -6.1872524   -4.4183359   -5.6950335    7.1674506    4.9496946    5.8151184 
  -6.1870628   -4.4204673   -5.6931082    7.1692251    4.9497013    5.8116278 
  -6.1868727    -4.421451   -5.6923019    7.1702019    4.9496513    5.8080808 
  -6.1896949   -4.4217492   -5.6959986    7.1713929    4.9499792    5.8057778 
  -6.1932615   -4.4228704   -5.6999868    7.1733277    4.9486351    5.8031233 
  -6.1965821   -4.4244394   -5.7025268    7.1732604    4.9485972    5.8017702 
  -6.1991295   -4.4255825   -5.7049933    7.1698396    4.9493461    5.8001161 
  -6.1974858   -4.4248321   -5.7061299    7.1662534    4.9512286    5.7985983 
  -6.1958421   -4.4229234   -5.7068475    7.1637588    4.9525164    5.7972691 
  -6.1934423   -4.4235899   -5.7050795    7.1648063    4.9518763    5.7936415 
  -6.1891633   -4.4236764   -5.7059854      7.16571    4.9534282    5.7907425 
  -6.1883479   -4.4239681   -5.7074375    7.1646634    4.9552129    5.7891958 
  -6.1886048   -4.4268956   -5.7082832    7.1639778    4.9585628    5.7877078 
  -6.1901629   -4.4301538   -5.7097875    7.1619704     4.958404    5.7840884 
  -6.1921388   -4.4337124   -5.7094639    7.1596227    4.9575623    5.7799159 
  -6.1946199   -4.4333839   -5.7081475    7.1569962    4.9581152    5.7784068 
  -6.1979121   -4.4326005   -5.7093608     7.154358    4.9588064    5.7782381 
  -6.2025972   -4.4341186   -5.7105278     7.151687    4.9597838    5.7789319 
  -6.2045991   -4.4358256   -5.7076921    7.1487307    4.9624894    5.7783354 
  -6.2056544   -4.4342508   -5.7075386    7.1475563    4.9635028    5.7787177 
  -6.2043743   -4.4304498    -5.706669    7.1480129    4.9634746    5.7771802 
  -6.2017097   -4.4258125    -5.705521    7.1463168    4.9631045    5.7786852 
  -6.2001102   -4.4239197   -5.7064689    7.1494019    4.9633462    5.7823429 
   -6.197938   -4.4232534   -5.7071574    7.1514946     4.961516    5.7863649 
   -6.196265   -4.4205503   -5.7064234    7.1518103    4.9593621    5.7895842 
   -6.194956   -4.4187641    -5.706078    7.1544421    4.9623923    5.7929779 
