LAMMPS data file from restart file: timestep = 51000, procs = 1

32000 atoms
31680 bonds
0 angles
0 dihedrals
0 impropers

1 atom types
1 bond types
0 angle types
0 dihedral types
0 improper types

-16.796 16.796 xlo xhi
-16.796 16.796 ylo yhi
-16.796 16.796 zlo zhi

Masses

1 1

Atoms

1 1 1 5.09947 3.82766 14.0409 0 0 0
2 1 1 5.31344 4.58832 14.6584 0 0 0
3 1 1 4.43393 4.39559 14.7277 0 0 0
4 1 1 4.14197 3.50991 14.5647 0 0 0
5 1 1 3.43304 2.99959 14.1035 0 0 0
6 1 1 2.6999 3.58894 14.1031 0 0 0
7 1 1 2.40869 4.3579 14.5307 0 0 0
8 1 1 3.31303 4.28386 14.4763 0 0 0
9 1 1 3.07994 4.70254 15.344 0 0 0
10 1 1 2.24471 5.13303 15.2155 0 0 0
11 1 1 2.47685 5.51203 14.3618 0 0 0
12 1 1 1.62647 4.99982 14.4552 0 0 0
13 1 1 1.03583 4.59929 13.7739 0 0 0
14 1 1 1.78403 3.99515 13.7646 0 0 0
15 1 1 2.32327 4.78158 13.5518 0 0 0
16 1 1 1.63608 5.38692 13.1889 0 0 0
17 1 1 1.93763 6.23824 13.4863 0 0 0
18 1 1 2.80245 5.85595 13.2191 0 0 0
19 1 1 3.70046 5.50116 13.4532 0 0 0
20 1 1 3.85079 6.29367 13.8602 0 0 0
21 1 1 2.96444 6.73432 14.0112 0 0 0
22 1 1 2.32808 7.24954 14.4974 0 0 0
23 1 1 2.20777 6.4268 14.825 0 0 0
24 1 1 1.36267 6.0888 14.5161 0 0 0
25 1 1 0.46074 6.35128 14.5007 0 0 0
26 1 1 0.498568 5.42678 14.3516 0 0 0
27 1 1 -0.165502 4.73314 14.419 0 0 0
28 1 1 0.387278 4.87837 15.1771 0 0 0
29 1 1 0.710004 4.05423 15.5231 0 0 0
30 1 1 1.27811 3.97289 14.7375 0 0 0
31 1 1 1.41818 3.1838 15.3415 0 0 0
32 1 1 1.96466 3.08158 14.5348 0 0 0
33 1 1 1.21467 2.41005 14.2927 0 0 0
34 1 1 1.28492 2.72675 13.4035 0 0 0
35 1 1 0.928627 2.80979 12.5282 0 0 0
36 1 1 0.354351 3.54631 12.3502 0 0 0
37 1 1 1.2581 3.87113 12.5051 0 0 0
38 1 1 2.13962 4.19324 12.5383 0 0 0
39 1 1 2.1377 3.30277 12.9637 0 0 0
40 1 1 1.88335 2.61005 12.3544 0 0 0
41 1 1 2.10531 1.76611 12.109 0 0 0
42 1 1 1.19487 1.74248 12.4331 0 0 0
43 1 1 1.16043 1.62813 13.3846 0 0 0
44 1 1 2.00554 1.39252 13.1305 0 0 0
45 1 1 1.78875 0.481044 13.1399 0 0 0
46 1 1 1.89575 -0.147112 13.9074 0 0 0
47 1 1 1.2809 0.495478 14.2467 0 0 0
48 1 1 1.33467 -0.227963 14.9153 0 0 0
49 1 1 1.52937 0.566755 15.399 0 0 0
50 1 1 1.38156 1.50823 15.5671 0 0 0
51 1 1 0.867476 1.39074 14.7505 0 0 0
52 1 1 1.75729 1.44181 14.4592 0 0 0
53 1 1 2.14386 2.15353 13.8979 0 0 0
54 1 1 3.05884 2.00241 13.7871 0 0 0
55 1 1 3.17295 1.64047 12.9498 0 0 0
56 1 1 3.85359 1.38021 12.2122 0 0 0
57 1 1 4.62318 1.02797 12.6676 0 0 0
58 1 1 3.92462 0.544889 13.0253 0 0 0
59 1 1 3.5323 -0.285007 13.2372 0 0 0
60 1 1 4.15469 -0.730344 12.652 0 0 0
61 1 1 4.7249 -0.0932259 13.0392 0 0 0
62 1 1 5.52043 -0.431663 13.3578 0 0 0
63 1 1 5.62234 0.118351 14.0988 0 0 0
64 1 1 6.00311 0.191459 14.9512 0 0 0
65 1 1 6.04625 0.993378 14.4602 0 0 0
66 1 1 5.60261 1.88566 14.4057 0 0 0
67 1 1 6.48017 1.92698 14.1203 0 0 0
68 1 1 6.92186 1.49789 14.8665 0 0 0
69 1 1 7.66023 0.99567 15.2203 0 0 0
70 1 1 6.86479 1.11671 15.7975 0 0 0
71 1 1 6.6161 1.65519 16.5068 0 0 0
72 1 1 6.36474 1.52898 -16.17 0 0 1
73 1 1 6.38053 2.49 -16.3792 0 0 1
74 1 1 5.62023 3.06844 -16.3196 0 0 1
75 1 1 4.79196 2.80871 -16.6749 0 0 1
76 1 1 3.98303 3.09821 16.5185 0 0 0
77 1 1 4.56096 2.5205 16.0154 0 0 0
78 1 1 4.58607 1.74592 15.4504 0 0 0
79 1 1 5.11471 1.13798 15.8861 0 0 0
80 1 1 4.55284 0.517642 15.298 0 0 0
81 1 1 5.03025 0.973514 14.6219 0 0 0
82 1 1 4.74852 0.628851 13.7522 0 0 0
83 1 1 4.11528 1.37574 13.6008 0 0 0
84 1 1 3.75002 1.04227 14.3788 0 0 0
85 1 1 3.3112 0.522952 14.9521 0 0 0
86 1 1 3.421 -0.372879 15.2857 0 0 0
87 1 1 3.58783 -1.25863 15.5163 0 0 0
88 1 1 4.03709 -1.07391 14.6864 0 0 0
89 1 1 3.34021 -0.639875 14.1874 0 0 0
90 1 1 2.56601 -0.735719 14.7589 0 0 0
91 1 1 2.16499 -0.385255 15.5691 0 0 0
92 1 1 1.52502 -1.08534 15.4549 0 0 0
93 1 1 1.4695 -2.07991 15.3776 0 0 0
94 1 1 1.81546 -1.83436 16.2507 0 0 0
95 1 1 2.52762 -1.23071 16.3237 0 0 0
96 1 1 1.9408 -0.536857 16.5312 0 0 0
97 1 1 1.45771 -0.46175 -16.288 0 0 1
98 1 1 0.778283 -1.19423 -16.3865 0 0 1
99 1 1 -0.0998517 -1.44842 -16.6683 0 0 1
100 1 1 0.0759189 -1.53645 15.9758 0 0 0
101 2 1 -13.2644 1.33817 0.394231 0 0 0
102 2 1 -13.5176 0.522496 0.842273 0 0 0
103 2 1 -13.63 0.467038 1.79376 0 0 0
104 2 1 -13.6601 -0.0523759 2.60862 0 0 0
105 2 1 -13.1373 -0.813457 2.3654 0 0 0
106 2 1 -12.7091 -0.174987 1.79454 0 0 0
107 2 1 -12.5109 -0.80083 1.12242 0 0 0
108 2 1 -12.1374 -1.0983 1.94622 0 0 0
109 2 1 -11.2411 -1.1156 2.2681 0 0 0
110 2 1 -11.1954 -1.52947 3.15666 0 0 0
111 2 1 -11.2159 -2.47108 3.26778 0 0 0
112 2 1 -11.9314 -2.40876 3.89374 0 0 0
113 2 1 -11.1391 -2.05892 4.29808 0 0 0
114 2 1 -10.7529 -1.93905 5.12269 0 0 0
115 2 1 -10.0608 -1.28072 5.1838 0 0 0
116 2 1 -9.73072 -0.932085 4.33334 0 0 0
117 2 1 -10.0472 -1.14851 3.40688 0 0 0
118 2 1 -10.1689 -2.0788 3.7064 0 0 0
119 2 1 -10.2629 -3.00736 3.42097 0 0 0
120 2 1 -10.5118 -3.12963 2.56235 0 0 0
121 2 1 -10.5816 -2.95097 1.62175 0 0 0
122 2 1 -11.4441 -3.34644 1.78369 0 0 0
123 2 1 -11.3866 -3.60348 2.75197 0 0 0
124 2 1 -11.9109 -4.01669 3.44496 0 0 0
125 2 1 -12.4247 -3.28105 3.72501 0 0 0
126 2 1 -13.36 -3.24741 3.76218 0 0 0
127 2 1 -14.0846 -2.90356 4.22167 0 0 0
128 2 1 -14.1543 -3.55154 4.95905 0 0 0
129 2 1 -13.5777 -4.06803 4.43141 0 0 0
130 2 1 -13.6114 -4.4017 5.32954 0 0 0
131 2 1 -14.2484 -3.98175 5.96065 0 0 0
132 2 1 -14.8246 -4.55304 6.59765 0 0 0
133 2 1 -15.7178 -4.50992 6.91948 0 0 0
134 2 1 -15.7189 -5.31239 6.40662 0 0 0
135 2 1 -16.3233 -5.95351 6.79619 0 0 0
136 2 1 -16.6626 -5.06222 6.65324 0 0 0
137 2 1 16.2004 -4.68722 6.19602 -1 0 0
138 2 1 15.7452 -4.19215 5.52733 -1 0 0
139 2 1 15.2426 -4.99555 5.74354 -1 0 0
140 2 1 14.5147 -5.08826 6.24851 -1 0 0
141 2 1 15.0681 -5.04889 7.07066 -1 0 0
142 2 1 15.6143 -5.60355 6.52225 -1 0 0
143 2 1 15.4469 -6.11716 5.7152 -1 0 0
144 2 1 15.7629 -6.92038 6.04003 -1 0 0
145 2 1 16.1695 -7.14129 5.16477 -1 0 0
146 2 1 15.1459 -7.0735 5.20584 -1 0 0
147 2 1 14.2537 -6.69115 5.21237 -1 0 0
148 2 1 14.467 -7.29042 4.4771 -1 0 0
149 2 1 13.6411 -7.672 4.67932 -1 0 0
150 2 1 13.6535 -7.96674 3.71382 -1 0 0
151 2 1 13.0325 -8.73752 3.68569 -1 0 0
152 2 1 13.5196 -8.88466 4.4677 -1 0 0
153 2 1 13.1188 -8.5881 5.26799 -1 0 0
154 2 1 12.5467 -7.96356 5.71157 -1 0 0
155 2 1 12.0131 -8.34663 5.03249 -1 0 0
156 2 1 11.5626 -8.90088 5.69341 -1 0 0
157 2 1 10.9428 -9.58813 5.5012 -1 0 0
158 2 1 10.573 -10.2069 4.90947 -1 0 0
159 2 1 10.0635 -11.0293 4.74843 -1 0 0
160 2 1 9.29693 -10.464 4.97717 -1 0 0
161 2 1 9.51432 -9.69282 5.41714 -1 0 0
162 2 1 8.8452 -9.51566 4.72237 -1 0 0
163 2 1 8.07057 -10.0686 4.52257 -1 0 0
164 2 1 7.51363 -9.297 4.86589 -1 0 0
165 2 1 7.42032 -9.4881 3.88095 -1 0 0
166 2 1 6.91756 -10.1884 4.30658 -1 0 0
167 2 1 6.52389 -9.96578 5.2266 -1 0 0
168 2 1 6.50011 -9.95528 6.19914 -1 0 0
169 2 1 7.07266 -9.97075 6.96852 -1 0 0
170 2 1 6.27022 -10.5628 7.00864 -1 0 0
171 2 1 6.91482 -10.9702 6.34888 -1 0 0
172 2 1 6.94204 -11.493 5.53331 -1 0 0
173 2 1 6.61961 -10.9975 4.80683 -1 0 0
174 2 1 7.64013 -10.9112 4.87067 -1 0 0
175 2 1 7.80471 -10.3914 5.676 -1 0 0
176 2 1 8.5527 -10.5936 6.2046 -1 0 0
177 2 1 7.89474 -10.7923 6.93366 -1 0 0
178 2 1 7.40635 -11.1165 7.59848 -1 0 0
179 2 1 6.80678 -10.4618 7.92426 -1 0 0
180 2 1 6.79686 -9.63981 8.44398 -1 0 0
181 2 1 6.53077 -9.2497 7.59845 -1 0 0
182 2 1 6.77698 -9.06689 6.66706 -1 0 0
183 2 1 7.50538 -9.44282 6.15281 -1 0 0
184 2 1 8.29792 -9.36544 5.6078 -1 0 0
185 2 1 8.90233 -9.67912 6.27021 -1 0 0
186 2 1 9.18958 -8.75578 6.27049 -1 0 0
187 2 1 8.77278 -8.24031 7.01295 -1 0 0
188 2 1 8.17373 -8.91806 6.87253 -1 0 0
189 2 1 8.04099 -9.63436 7.49769 -1 0 0
190 2 1 8.77176 -9.2961 8.05591 -1 0 0
191 2 1 8.30132 -9.44995 8.87874 -1 0 0
192 2 1 7.53258 -9.01371 8.58999 -1 0 0
193 2 1 7.47175 -9.30129 9.53033 -1 0 0
194 2 1 7.11435 -8.54928 9.81777 -1 0 0
195 2 1 6.96314 -9.01748 10.635 -1 0 0
196 2 1 7.2553 -9.89432 10.697 -1 0 0
197 2 1 8.1744 -9.66929 10.4271 -1 0 0
198 2 1 8.8623 -10.2077 10.0079 -1 0 0
199 2 1 9.35831 -9.59547 9.39153 -1 0 0
200 2 1 9.21756 -8.71598 8.94385 -1 0 0
201 3 1 -13.2196 6.39499 -16.0706 0 0 0
202 3 1 -12.3263 6.7181 -15.7736 0 0 0
203 3 1 -12.4566 7.63771 -16.0259 0 0 0
204 3 1 -12.6866 7.51003 16.6127 0 0 -1
205 3 1 -13.5295 8.00521 16.5301 0 0 -1
206 3 1 -13.9865 8.11064 -16.2625 0 0 0
207 3 1 -13.2143 8.64457 -16.2445 0 0 0
208 3 1 -13.5849 9.3984 -16.6683 0 0 0
209 3 1 -12.8308 9.81764 -16.163 0 0 0
210 3 1 -13.2494 9.34304 -15.4554 0 0 0
211 3 1 -12.4155 9.52096 -14.9615 0 0 0
212 3 1 -11.8616 9.62759 -15.7528 0 0 0
213 3 1 -10.9389 9.3933 -15.5606 0 0 0
214 3 1 -10.5024 8.87431 -14.8705 0 0 0
215 3 1 -10.4878 7.9082 -14.6294 0 0 0
216 3 1 -10.2089 6.9704 -14.8015 0 0 0
217 3 1 -11.1448 7.04603 -14.4079 0 0 0
218 3 1 -11.2371 6.71528 -13.5367 0 0 0
219 3 1 -12.0504 6.73756 -14.0909 0 0 0
220 3 1 -12.7349 6.66887 -13.4016 0 0 0
221 3 1 -13.1005 6.68455 -12.5336 0 0 0
222 3 1 -13.644 7.05369 -13.2597 0 0 0
223 3 1 -14.3314 7.40162 -13.8131 0 0 0
224 3 1 -14.8755 6.90915 -14.5081 0 0 0
225 3 1 -14.5134 6.02171 -14.4193 0 0 0
226 3 1 -14.0006 6.28875 -15.1315 0 0 0
227 3 1 -13.4401 6.24958 -14.3277 0 0 0
228 3 1 -13.8714 6.06013 -13.4981 0 0 0
229 3 1 -14.1403 5.8587 -12.6185 0 0 0
230 3 1 -14.3455 5.36738 -11.8185 0 0 0
231 3 1 -13.9881 4.57565 -11.4352 0 0 0
232 3 1 -13.1192 4.58916 -11.1384 0 0 0
233 3 1 -12.1519 4.51827 -11.16 0 0 0
234 3 1 -12.2589 5.21241 -11.7828 0 0 0
235 3 1 -11.7358 5.74428 -11.1805 0 0 0
236 3 1 -11.025 5.28029 -11.6776 0 0 0
237 3 1 -11.1946 5.96937 -12.2863 0 0 0
238 3 1 -10.9973 5.08153 -12.685 0 0 0
239 3 1 -11.2936 4.68782 -13.5177 0 0 0
240 3 1 -11.9529 3.99068 -13.7104 0 0 0
241 3 1 -12.8014 3.53161 -13.9892 0 0 0
242 3 1 -12.0623 3.14645 -14.4964 0 0 0
243 3 1 -11.461 3.72452 -14.9334 0 0 0
244 3 1 -11.6596 3.0198 -15.5602 0 0 0
245 3 1 -12.1682 2.91855 -16.3572 0 0 0
246 3 1 -12.2796 3.73813 -15.899 0 0 0
247 3 1 -12.6872 4.52179 -16.1628 0 0 0
248 3 1 -12.2879 4.65446 16.5968 0 0 -1
249 3 1 -12.1565 3.93046 15.9822 0 0 -1
250 3 1 -13.0025 3.91225 16.5488 0 0 -1
251 3 1 -13.4887 3.48354 15.869 0 0 -1
252 3 1 -14.0573 2.88273 16.391 0 0 -1
253 3 1 -14.8446 2.27524 16.3226 0 0 -1
254 3 1 -14.5444 1.51933 -16.7076 0 0 0
255 3 1 -14.31 1.273 -15.7949 0 0 0
256 3 1 -14.7067 2.14166 -15.5475 0 0 0
257 3 1 -14.7488 2.99205 -15.8963 0 0 0
258 3 1 -15.1485 3.89635 -15.7069 0 0 0
259 3 1 -14.7928 3.3558 -15.0058 0 0 0
260 3 1 -14.576 3.30865 -14.101 0 0 0
261 3 1 -15.277 3.81886 -13.7007 0 0 0
262 3 1 -15.7929 4.64539 -13.7112 0 0 0
263 3 1 -15.4956 4.49035 -12.7803 0 0 0
264 3 1 -16.417 4.73782 -12.9245 0 0 0
265 3 1 16.2925 4.65401 -13.3674 -1 0 0
266 3 1 15.7193 4.06293 -13.8244 -1 0 0
267 3 1 14.7537 3.84996 -13.6201 -1 0 0
268 3 1 14.7371 3.30897 -12.7835 -1 0 0
269 3 1 15.6695 3.49962 -12.8843 -1 0 0
270 3 1 15.2377 3.55221 -12.0398 -1 0 0
271 3 1 15.3045 3.22568 -11.2016 -1 0 0
272 3 1 14.668 3.50246 -10.5744 -1 0 0
273 3 1 15.1002 4.34073 -10.6605 -1 0 0
274 3 1 15.2962 5.28153 -10.8878 -1 0 0
275 3 1 14.7451 5.71055 -11.5234 -1 0 0
276 3 1 14.1464 5.29744 -12.0901 -1 0 0
277 3 1 13.5841 5.25025 -12.8254 -1 0 0
278 3 1 14.0624 4.38084 -13.0567 -1 0 0
279 3 1 14.9202 4.34102 -12.6662 -1 0 0
280 3 1 14.8279 4.43162 -11.706 -1 0 0
281 3 1 14.2636 4.86775 -11.0384 -1 0 0
282 3 1 13.3916 5.10948 -10.7568 -1 0 0
283 3 1 13.169 4.16253 -10.8783 -1 0 0
284 3 1 13.6333 3.42055 -11.2431 -1 0 0
285 3 1 14.0896 2.63366 -10.8952 -1 0 0
286 3 1 13.7519 3.0353 -10.0537 -1 0 0
287 3 1 12.9499 2.69919 -9.64539 -1 0 0
288 3 1 12.8735 3.63308 -9.78405 -1 0 0
289 3 1 13.6832 4.17204 -9.71741 -1 0 0
290 3 1 12.8849 4.72237 -9.87018 -1 0 0
291 3 1 12.5899 5.59452 -9.92117 -1 0 0
292 3 1 12.9467 6.17516 -10.7031 -1 0 0
293 3 1 12.0249 6.3372 -10.4569 -1 0 0
294 3 1 11.6891 5.58973 -10.8438 -1 0 0
295 3 1 11.0137 6.23977 -10.9018 -1 0 0
296 3 1 11.4286 6.23972 -11.7455 -1 0 0
297 3 1 11.0807 5.87334 -12.5451 -1 0 0
298 3 1 11.6968 5.44508 -13.1903 -1 0 0
299 3 1 12.365 6.01485 -13.4138 -1 0 0
300 3 1 12.8985 6.56226 -14.0463 -1 0 0
301 4 1 -13.9531 5.87597 14.528 0 0 -1
302 4 1 -13.5316 5.07968 14.103 0 0 -1
303 4 1 -13.2756 5.20645 15.0469 0 0 -1
304 4 1 -14.1947 4.89403 14.9753 0 0 -1
305 4 1 -14.1134 5.62026 15.6262 0 0 -1
306 4 1 -14.6216 5.45428 16.365 0 0 -1
307 4 1 -15.5516 5.39051 16.4533 0 0 -1
308 4 1 -16.5838 5.54512 16.3684 0 0 -1
309 4 1 16.4029 5.03419 -16.7156 -1 0 0
310 4 1 16.4429 4.8274 15.9434 -1 0 -1
311 4 1 15.6473 5.13462 15.5525 -1 0 -1
312 4 1 15.5939 5.90301 16.051 -1 0 -1
313 4 1 14.7332 6.07237 16.474 -1 0 -1
314 4 1 14.9733 6.84166 -16.5981 -1 0 0
315 4 1 15.6779 7.27796 -16.0857 -1 0 0
316 4 1 16.5068 7.40269 -15.5636 -1 0 0
317 4 1 16.2544 6.42846 -15.3937 -1 0 0
318 4 1 15.7071 6.15307 -16.064 -1 0 0
319 4 1 14.8765 5.66644 -16.1413 -1 0 0
320 4 1 14.913 6.29573 -15.4635 -1 0 0
321 4 1 14.6261 7.12693 -15.118 -1 0 0
322 4 1 13.8485 7.63755 -14.955 -1 0 0
323 4 1 13.9475 6.98251 -14.2557 -1 0 0
324 4 1 13.577 6.29876 -14.9601 -1 0 0
325 4 1 13.4854 6.1108 -15.9009 -1 0 0
326 4 1 13.8818 6.66809 -16.5619 -1 0 0
327 4 1 13.5153 7.53765 -16.6015 -1 0 0
328 4 1 14.3692 7.68714 16.5994 -1 0 -1
329 4 1 13.9784 7.03436 16.0362 -1 0 -1
330 4 1 14.414 7.75394 15.5772 -1 0 -1
331 4 1 13.8602 7.38758 14.8596 -1 0 -1
332 4 1 13.6174 6.48538 15.2139 -1 0 -1
333 4 1 14.4043 6.03149 15.4244 -1 0 -1
334 4 1 15.1147 6.23474 14.6917 -1 0 -1
335 4 1 15.9519 6.41554 15.1864 -1 0 -1
336 4 1 16.0138 6.761 14.2972 -1 0 -1
337 4 1 15.6868 7.4241 14.9441 -1 0 -1
338 4 1 16.5957 7.66359 15.0259 -1 0 -1
339 4 1 -16.2725 7.11314 14.7854 0 0 -1
340 4 1 -16.5554 7.1896 13.8853 0 0 -1
341 4 1 16.2123 7.65018 13.9721 -1 0 -1
342 4 1 16.6995 7.76839 13.1649 -1 0 -1
343 4 1 -16.7476 8.6645 12.8024 0 0 -1
344 4 1 -16.7934 8.85538 13.8077 0 0 -1
345 4 1 -15.9297 8.94736 13.4635 0 0 -1
346 4 1 -15.4735 8.72728 14.2182 0 0 -1
347 4 1 -15.8243 9.0804 14.9352 0 0 -1
348 4 1 -16.5428 9.66641 14.5433 0 0 -1
349 4 1 16.17 10.0983 14.5422 -1 0 -1
350 4 1 15.511 10.6981 15.07 -1 0 -1
351 4 1 15.5474 10.3098 15.9363 -1 0 -1
352 4 1 16.3948 10.5082 15.5694 -1 0 -1
353 4 1 -16.3023 10.644 15.8511 0 0 -1
354 4 1 -15.6779 10.1165 15.3437 0 0 -1
355 4 1 -15.2356 10.3795 16.2062 0 0 -1
356 4 1 -14.6289 11.0652 16.4167 0 0 -1
357 4 1 -15.0162 11.139 15.5631 0 0 -1
358 4 1 -15.0612 11.8022 14.8912 0 0 -1
359 4 1 -14.6946 12.0848 15.7481 0 0 -1
360 4 1 -13.92 12.5367 15.763 0 0 -1
361 4 1 -13.6311 11.606 15.7816 0 0 -1
362 4 1 -12.7541 11.1279 15.7515 0 0 -1
363 4 1 -13.2527 10.7476 16.5075 0 0 -1
364 4 1 -13.0534 10.1764 15.7326 0 0 -1
365 4 1 -12.8541 10.268 14.8037 0 0 -1
366 4 1 -13.6815 10.6658 14.7852 0 0 -1
367 4 1 -12.9879 11.3352 14.5919 0 0 -1
368 4 1 -12.2907 12.0359 14.7956 0 0 -1
369 4 1 -12.9049 12.3274 15.5098 0 0 -1
370 4 1 -13.469 12.5055 14.8139 0 0 -1
371 4 1 -12.766 12.8913 14.2942 0 0 -1
372 4 1 -13.3528 12.8895 13.5033 0 0 -1
373 4 1 -12.4083 13.0838 13.0898 0 0 -1
374 4 1 -11.7841 13.5645 13.7227 0 0 -1
375 4 1 -12.3497 14.2754 13.5245 0 0 -1
376 4 1 -12.7779 15.0188 14.0436 0 0 -1
377 4 1 -13.1693 15.4357 13.3377 0 0 -1
378 4 1 -13.7395 15.772 14.0479 0 0 -1
379 4 1 -14.1304 16.1069 13.2187 0 0 -1
380 4 1 -13.3121 16.6274 13.1168 0 0 -1
381 4 1 -13.9081 -16.5869 12.423 0 1 -1
382 4 1 -14.438 -16.616 11.631 0 1 -1
383 4 1 -14.0211 -15.8476 11.2079 0 1 -1
384 4 1 -14.3897 -15.6222 12.1015 0 1 -1
385 4 1 -14.9686 -16.3664 12.5715 0 1 -1
386 4 1 -15.231 -16.7747 13.3977 0 1 -1
387 4 1 -15.4317 16.1532 14.1665 0 0 -1
388 4 1 -15.1008 16.532 14.9606 0 0 -1
389 4 1 -14.3633 15.9948 15.1193 0 0 -1
390 4 1 -13.9275 15.6426 15.9661 0 0 -1
391 4 1 -13.5612 14.9826 15.3864 0 0 -1
392 4 1 -13.0757 15.6678 14.8914 0 0 -1
393 4 1 -12.6002 16.3276 14.3224 0 0 -1
394 4 1 -12.129 16.6312 13.5191 0 0 -1
395 4 1 -12.6551 -16.2519 13.9386 0 1 -1
396 4 1 -13.629 -16.0831 13.82 0 1 -1
397 4 1 -14.3261 -16.6582 14.2476 0 1 -1
398 4 1 -14.7058 -15.9779 13.7119 0 1 -1
399 4 1 -15.0826 -16.0152 14.5707 0 1 -1
400 4 1 -15.7733 -16.0492 15.2169 0 1 -1
401 5 1 -4.06912 10.8675 -13.4038 0 0 0
402 5 1 -4.29944 11.6179 -12.8339 0 0 0
403 5 1 -5.27915 11.7121 -12.5117 0 0 0
404 5 1 -6.13145 11.4089 -12.6622 0 0 0
405 5 1 -6.77693 10.7432 -12.2996 0 0 0
406 5 1 -7.13071 11.0215 -13.2549 0 0 0
407 5 1 -7.48095 11.7213 -13.8913 0 0 0
408 5 1 -7.65384 12.6338 -13.6934 0 0 0
409 5 1 -8.0561 13.1709 -14.4047 0 0 0
410 5 1 -7.85426 12.4518 -15.0605 0 0 0
411 5 1 -7.41636 12.2527 -15.8329 0 0 0
412 5 1 -8.34199 12.215 -16.1803 0 0 0
413 5 1 -8.6595 12.8526 16.7787 0 0 -1
414 5 1 -9.3183 12.4075 16.2538 0 0 -1
415 5 1 -9.81868 11.6432 16.4735 0 0 -1
416 5 1 -10.4434 12.2091 15.9778 0 0 -1
417 5 1 -10.7828 11.9843 -16.718 0 0 0
418 5 1 -11.5851 11.9256 -16.1491 0 0 0
419 5 1 -12.4498 12.0299 -16.5428 0 0 0
420 5 1 -12.1293 12.3116 16.1938 0 0 -1
421 5 1 -11.896 13.0448 -16.7354 0 0 0
422 5 1 -11.0481 13.1158 -16.3454 0 0 0
423 5 1 -11.041 13.0602 16.2925 0 0 -1
424 5 1 -10.8525 13.9601 15.9674 0 0 -1
425 5 1 -10.5477 14.0236 -16.654 0 0 0
426 5 1 -9.96991 13.7969 -15.8944 0 0 0
427 5 1 -9.66096 13.1504 -15.2938 0 0 0
428 5 1 -10.3818 12.7586 -15.7393 0 0 0
429 5 1 -9.68451 12.9117 -16.4023 0 0 0
430 5 1 -9.4689 13.4536 16.4356 0 0 -1
431 5 1 -8.74272 13.9048 16.0459 0 0 -1
432 5 1 -9.29769 13.2818 15.4269 0 0 -1
433 5 1 -8.69439 13.891 15.0559 0 0 -1
434 5 1 -9.0298 14.0783 14.2093 0 0 -1
435 5 1 -9.72199 14.2191 13.4753 0 0 -1
436 5 1 -9.72938 14.3937 12.5598 0 0 -1
437 5 1 -10.162 13.7504 11.9653 0 0 -1
438 5 1 -10.8887 14.3533 11.7435 0 0 -1
439 5 1 -11.7593 14.022 11.7817 0 0 -1
440 5 1 -11.9229 14.4325 12.6328 0 0 -1
441 5 1 -11.953 15.2165 12.1134 0 0 -1
442 5 1 -11.0107 15.4533 12.386 0 0 -1
443 5 1 -11.6863 15.6146 13.0849 0 0 -1
444 5 1 -10.8511 15.4185 13.6003 0 0 -1
445 5 1 -10.2037 15.1215 14.2886 0 0 -1
446 5 1 -9.30132 15.1529 14.0914 0 0 -1
447 5 1 -8.35828 15.3091 14.2613 0 0 -1
448 5 1 -7.80814 15.9888 13.9097 0 0 -1
449 5 1 -7.11137 15.7541 14.4796 0 0 -1
450 5 1 -7.28766 14.8021 14.3615 0 0 -1
451 5 1 -7.06544 15.3607 13.5731 0 0 -1
452 5 1 -7.55543 14.5313 13.4097 0 0 -1
453 5 1 -7.96698 13.9887 14.1032 0 0 -1
454 5 1 -8.45674 13.9882 13.2801 0 0 -1
455 5 1 -7.9648 13.198 13.246 0 0 -1
456 5 1 -7.58179 12.9774 12.3755 0 0 -1
457 5 1 -7.52561 12.842 11.4332 0 0 -1
458 5 1 -8.25718 13.4911 11.4906 0 0 -1
459 5 1 -7.47916 13.9813 11.45 0 0 -1
460 5 1 -7.35795 14.0869 12.354 0 0 -1
461 5 1 -7.23631 15.0076 12.4816 0 0 -1
462 5 1 -6.49637 15.5666 12.6944 0 0 -1
463 5 1 -5.98622 15.7103 11.8459 0 0 -1
464 5 1 -5.57634 16.1522 12.5149 0 0 -1
465 5 1 -5.91995 16.1098 13.3717 0 0 -1
466 5 1 -6.47409 16.587 14.0649 0 0 -1
467 5 1 -6.0098 -16.1685 14.2368 0 1 -1
468 5 1 -5.23453 -16.2099 13.6787 0 1 -1
469 5 1 -5.9392 -16.3953 13.0542 0 1 -1
470 5 1 -5.95616 -15.7676 12.2867 0 1 -1
471 5 1 -6.68615 -15.425 11.7887 0 1 -1
472 5 1 -7.30778 -15.1402 11.1005 0 1 -1
473 5 1 -6.73801 -14.8427 10.4386 0 1 -1
474 5 1 -6.91634 -15.396 9.66234 0 1 -1
475 5 1 -7.50824 -15.8656 10.3178 0 1 -1
476 5 1 -7.83317 -16.77 10.3937 0 1 -1
477 5 1 -8.73807 -16.6234 10.586 0 1 -1
478 5 1 -9.7088 -16.5131 10.5881 0 1 -1
479 5 1 -10.5262 -16.5548 10.0801 0 1 -1
480 5 1 -11.4622 -16.3849 10.1366 0 1 -1
481 5 1 -11.8404 -16.7397 9.35308 0 1 -1
482 5 1 -11.9573 16.1227 9.95477 0 0 -1
483 5 1 -12.6506 16.776 9.98574 0 0 -1
484 5 1 -12.4044 -15.9009 9.70176 0 1 -1
485 5 1 -12.9236 -15.9491 10.4957 0 1 -1
486 5 1 -13.4189 -15.2224 10.0543 0 1 -1
487 5 1 -13.7603 -14.4167 9.67514 0 1 -1
488 5 1 -12.9417 -14.502 9.21965 0 1 -1
489 5 1 -13.1197 -15.4022 8.97903 0 1 -1
490 5 1 -13.1124 -16.3204 9.07181 0 1 -1
491 5 1 -13.8779 -16.1942 9.70248 0 1 -1
492 5 1 -14.1984 -16.1499 8.78389 0 1 -1
493 5 1 -14.3676 -15.3271 8.36347 0 1 -1
494 5 1 -13.8449 -14.5752 8.50262 0 1 -1
495 5 1 -13.1303 -14.6709 7.885 0 1 -1
496 5 1 -13.969 -14.5364 7.4519 0 1 -1
497 5 1 -14.0451 -15.4023 6.9191 0 1 -1
498 5 1 -13.5681 -15.6011 7.74303 0 1 -1
499 5 1 -13.2594 -16.5128 7.80508 0 1 -1
500 5 1 -13.6585 -16.4597 6.88527 0 1 -1
501 6 1 11.4428 -5.56904 11.0272 0 0 0
502 6 1 10.77 -5.60318 10.2801 0 0 0
503 6 1 11.3949 -6.24517 9.87938 0 0 0
504 6 1 10.5617 -6.56119 9.69909 0 0 0
505 6 1 10.652 -7.01609 8.84847 0 0 0
506 6 1 9.94764 -6.36978 8.88163 0 0 0
507 6 1 9.19395 -6.84006 8.41075 0 0 0
508 6 1 9.12577 -5.78109 8.4093 0 0 0
509 6 1 9.81594 -6.19066 7.83768 0 0 0
510 6 1 10.5025 -5.66373 8.23167 0 0 0
511 6 1 11.1023 -5.50162 8.94124 0 0 0
512 6 1 10.7556 -4.844 9.47521 0 0 0
513 6 1 10.037 -5.00189 8.87943 0 0 0
514 6 1 9.2134 -4.56114 8.66972 0 0 0
515 6 1 8.76913 -4.70138 9.51585 0 0 0
516 6 1 8.70131 -3.78189 9.53469 0 0 0
517 6 1 7.94482 -3.37236 9.32601 0 0 0
518 6 1 7.06029 -3.14327 8.98686 0 0 0
519 6 1 7.06825 -2.88853 8.03647 0 0 0
520 6 1 7.56013 -2.85184 7.19763 0 0 0
521 6 1 8.30288 -3.1275 6.63985 0 0 0
522 6 1 7.78219 -2.46031 6.21796 0 0 0
523 6 1 8.23845 -2.06691 6.96524 0 0 0
524 6 1 7.72553 -1.84898 7.77661 0 0 0
525 6 1 7.60156 -2.24968 8.70194 0 0 0
526 6 1 8.20483 -2.88314 8.28254 0 0 0
527 6 1 8.84741 -3.49177 7.76775 0 0 0
528 6 1 8.38267 -4.06072 7.22877 0 0 0
529 6 1 8.09863 -4.52385 8.02738 0 0 0
530 6 1 7.57118 -3.76553 7.76972 0 0 0
531 6 1 6.85422 -4.07267 8.34126 0 0 0
532 6 1 6.81194 -4.80508 7.74479 0 0 0
533 6 1 7.31531 -5.39422 8.32189 0 0 0
534 6 1 7.10252 -6.16627 7.81682 0 0 0
535 6 1 6.42166 -6.85222 7.77727 0 0 0
536 6 1 6.68416 -7.18698 8.60948 0 0 0
537 6 1 6.7695 -7.96795 9.14473 0 0 0
538 6 1 7.472 -7.93767 8.44244 0 0 0
539 6 1 8.04471 -7.92013 7.70634 0 0 0
540 6 1 7.34274 -8.44262 7.3268 0 0 0
541 6 1 6.74683 -7.67781 7.18469 0 0 0
542 6 1 6.43128 -8.06699 6.3831 0 0 0
543 6 1 6.98069 -7.52678 5.80115 0 0 0
544 6 1 7.68479 -8.18637 5.86694 0 0 0
545 6 1 7.88993 -7.77444 6.70077 0 0 0
546 6 1 7.46907 -6.90713 6.97077 0 0 0
547 6 1 6.881 -6.60472 6.20337 0 0 0
548 6 1 6.11311 -6.47673 6.78356 0 0 0
549 6 1 5.36724 -6.51206 7.35108 0 0 0
550 6 1 5.08208 -6.2467 8.2419 0 0 0
551 6 1 5.15133 -6.26538 9.15813 0 0 0
552 6 1 5.62544 -5.45904 9.36353 0 0 0
553 6 1 6.52601 -5.14877 9.17259 0 0 0
554 6 1 6.75071 -6.09482 9.02188 0 0 0
555 6 1 7.49263 -5.91571 9.57596 0 0 0
556 6 1 8.15811 -5.604 9.00934 0 0 0
557 6 1 8.53868 -6.44597 9.24226 0 0 0
558 6 1 9.33858 -5.97619 9.50176 0 0 0
559 6 1 9.83081 -5.94523 10.3053 0 0 0
560 6 1 9.67493 -5.03464 9.93609 0 0 0
561 6 1 9.57724 -4.27111 10.4275 0 0 0
562 6 1 9.85567 -5.07828 10.8361 0 0 0
563 6 1 10.7921 -4.68957 10.9395 0 0 0
564 6 1 10.7271 -4.13683 10.1368 0 0 0
565 6 1 10.0675 -3.44665 10.1184 0 0 0
566 6 1 9.75601 -3.815 9.20873 0 0 0
567 6 1 9.12388 -3.25812 8.75893 0 0 0
568 6 1 9.776 -3.57334 8.08692 0 0 0
569 6 1 10.555 -3.5418 7.50384 0 0 0
570 6 1 11.3297 -3.72068 8.02186 0 0 0
571 6 1 12.2428 -3.52395 8.27775 0 0 0
572 6 1 12.7017 -2.70203 8.25596 0 0 0
573 6 1 12.4312 -1.902 7.77978 0 0 0
574 6 1 12.7727 -1.09492 8.20093 0 0 0
575 6 1 13.1102 -1.29898 7.38328 0 0 0
576 6 1 13.8729 -1.75205 7.69887 0 0 0
577 6 1 13.773 -0.737898 7.9661 0 0 0
578 6 1 13.1586 0.0603943 8.06724 0 0 0
579 6 1 13.2495 0.0373323 9.02809 0 0 0
580 6 1 12.9459 0.890064 8.59758 0 0 0
581 6 1 12.9667 1.61463 7.93646 0 0 0
582 6 1 12.2407 1.23857 7.45588 0 0 0
583 6 1 12.8632 1.28038 6.64874 0 0 0
584 6 1 13.7348 1.09339 6.15251 0 0 0
585 6 1 13.8707 1.98947 5.84421 0 0 0
586 6 1 13.0052 2.2137 5.62619 0 0 0
587 6 1 12.3616 2.1959 6.29372 0 0 0
588 6 1 11.5784 2.78393 6.03825 0 0 0
589 6 1 12.1706 3.28917 6.55331 0 0 0
590 6 1 11.3319 3.17128 6.93426 0 0 0
591 6 1 10.9574 3.98306 6.5766 0 0 0
592 6 1 11.5022 4.30406 7.34098 0 0 0
593 6 1 10.9495 4.99586 7.02293 0 0 0
594 6 1 10.7159 5.34453 7.89292 0 0 0
595 6 1 9.83296 5.09681 7.51219 0 0 0
596 6 1 9.87703 6.00611 7.74935 0 0 0
597 6 1 9.87361 6.48773 8.61468 0 0 0
598 6 1 9.6915 5.95213 9.36055 0 0 0
599 6 1 9.45394 6.83085 9.6906 0 0 0
600 6 1 10.3685 6.99488 9.40339 0 0 0
601 7 1 -0.266239 -16.1701 -8.68977 0 0 0
602 7 1 -0.880301 -15.8543 -7.98673 0 0 0
603 7 1 -1.25412 -15.5865 -8.84639 0 0 0
604 7 1 -2.11233 -15.2187 -8.70075 0 0 0
605 7 1 -2.71707 -14.9209 -9.41841 0 0 0
606 7 1 -3.3638 -15.1373 -10.1816 0 0 0
607 7 1 -3.0574 -14.6906 -11.0188 0 0 0
608 7 1 -2.98407 -14.1241 -10.1721 0 0 0
609 7 1 -3.01841 -13.1591 -10.431 0 0 0
610 7 1 -3.28775 -12.7891 -9.61568 0 0 0
611 7 1 -3.06084 -12.828 -8.70398 0 0 0
612 7 1 -3.54526 -11.979 -8.70678 0 0 0
613 7 1 -3.09885 -11.6792 -9.59862 0 0 0
614 7 1 -2.77966 -11.3809 -10.4512 0 0 0
615 7 1 -3.5724 -11.7565 -10.8815 0 0 0
616 7 1 -3.66503 -10.9457 -10.2875 0 0 0
617 7 1 -4.44451 -10.6942 -9.90846 0 0 0
618 7 1 -4.2798 -11.2785 -9.16319 0 0 0
619 7 1 -3.74542 -10.7304 -8.62185 0 0 0
620 7 1 -3.33979 -11.211 -7.93297 0 0 0
621 7 1 -3.14205 -10.2959 -7.9107 0 0 0
622 7 1 -3.17274 -9.89317 -8.82711 0 0 0
623 7 1 -3.5543 -9.16088 -9.41454 0 0 0
624 7 1 -3.18519 -8.47231 -9.99924 0 0 0
625 7 1 -2.954 -8.55984 -10.9743 0 0 0
626 7 1 -2.34642 -8.27591 -11.6486 0 0 0
627 7 1 -1.65549 -8.86476 -12.0223 0 0 0
628 7 1 -2.34428 -9.55601 -11.9109 0 0 0
629 7 1 -3.17753 -9.77639 -11.5014 0 0 0
630 7 1 -3.82807 -9.16848 -11.0993 0 0 0
631 7 1 -4.123 -10.0132 -10.7099 0 0 0
632 7 1 -5.06328 -9.75631 -10.9554 0 0 0
633 7 1 -5.1358 -8.86527 -10.9083 0 0 0
634 7 1 -5.58506 -9.22552 -10.1788 0 0 0
635 7 1 -5.76614 -8.31095 -9.75417 0 0 0
636 7 1 -5.71472 -8.99035 -9.13307 0 0 0
637 7 1 -6.3581 -8.30186 -8.85519 0 0 0
638 7 1 -6.30384 -7.385 -9.16963 0 0 0
639 7 1 -5.79138 -6.57833 -9.51008 0 0 0
640 7 1 -5.25543 -7.35093 -9.74206 0 0 0
641 7 1 -5.33969 -7.69394 -10.656 0 0 0
642 7 1 -5.65198 -7.07205 -11.3666 0 0 0
643 7 1 -5.85128 -6.12907 -11.5727 0 0 0
644 7 1 -6.67095 -5.52739 -11.442 0 0 0
645 7 1 -6.39694 -5.24576 -12.3665 0 0 0
646 7 1 -6.46829 -6.22141 -12.3383 0 0 0
647 7 1 -7.09511 -6.62729 -12.9348 0 0 0
648 7 1 -7.41946 -7.44508 -12.6027 0 0 0
649 7 1 -8.31401 -7.43076 -12.1585 0 0 0
650 7 1 -8.70432 -7.24283 -11.2573 0 0 0
651 7 1 -8.82229 -8.12945 -11.5942 0 0 0
652 7 1 -9.60475 -7.55018 -11.6138 0 0 0
653 7 1 -10.4066 -7.64003 -12.129 0 0 0
654 7 1 -10.6744 -7.75654 -11.2021 0 0 0
655 7 1 -11.6399 -7.8472 -11.4056 0 0 0
656 7 1 -12.0416 -6.97025 -11.4741 0 0 0
657 7 1 -11.2189 -6.75471 -11.89 0 0 0
658 7 1 -11.3319 -7.59622 -12.4444 0 0 0
659 7 1 -11.733 -8.23112 -12.9758 0 0 0
660 7 1 -12.3087 -8.39809 -12.2631 0 0 0
661 7 1 -12.7456 -7.8446 -11.6437 0 0 0
662 7 1 -12.5599 -7.47523 -12.6117 0 0 0
663 7 1 -11.9754 -6.75467 -12.8886 0 0 0
664 7 1 -12.1944 -5.81755 -13.1534 0 0 0
665 7 1 -12.3322 -4.87802 -13.2717 0 0 0
666 7 1 -13.262 -4.94698 -13.0711 0 0 0
667 7 1 -13.3118 -4.41085 -12.2294 0 0 0
668 7 1 -13.9385 -4.24734 -11.4782 0 0 0
669 7 1 -14.1228 -3.57182 -12.1082 0 0 0
670 7 1 -14.7896 -3.0344 -11.6144 0 0 0
671 7 1 -15.3151 -2.60365 -12.3047 0 0 0
672 7 1 -14.563 -2.00429 -12.0967 0 0 0
673 7 1 -15.0147 -1.83389 -11.292 0 0 0
674 7 1 -14.3499 -1.55831 -10.6892 0 0 0
675 7 1 -14.1313 -1.25166 -11.5369 0 0 0
676 7 1 -14.3952 -0.979825 -12.3986 0 0 0
677 7 1 -13.5294 -1.24613 -12.6224 0 0 0
678 7 1 -13.7438 -2.12659 -12.6799 0 0 0
679 7 1 -13.7635 -2.88494 -13.1793 0 0 0
680 7 1 -13.3891 -3.1289 -14.062 0 0 0
681 7 1 -13.4689 -3.71229 -14.9304 0 0 0
682 7 1 -12.5553 -3.47118 -15.0074 0 0 0
683 7 1 -12.5103 -4.40872 -14.9173 0 0 0
684 7 1 -12.6449 -4.03821 -14.0488 0 0 0
685 7 1 -13.3391 -4.02614 -13.3952 0 0 0
686 7 1 -14.1059 -4.4147 -12.9518 0 0 0
687 7 1 -14.3656 -3.79219 -13.5868 0 0 0
688 7 1 -13.9171 -4.71099 -13.9244 0 0 0
689 7 1 -14.7534 -4.47013 -14.3858 0 0 0
690 7 1 -14.3923 -4.06107 -15.2171 0 0 0
691 7 1 -13.5803 -4.4621 -15.6698 0 0 0
692 7 1 -13.4764 -4.72551 -16.5831 0 0 0
693 7 1 -12.6066 -4.20518 -16.5603 0 0 0
694 7 1 -12.5346 -5.12714 -16.3867 0 0 0
695 7 1 -12.1922 -4.70862 16.2819 0 0 -1
696 7 1 -12.6069 -5.52757 16.1369 0 0 -1
697 7 1 -13.3989 -5.87303 15.7132 0 0 -1
698 7 1 -13.6362 -6.80092 15.9689 0 0 -1
699 7 1 -12.8515 -6.97798 15.4611 0 0 -1
700 7 1 -13.6467 -6.77279 14.9445 0 0 -1
701 8 1 -5.60003 6.75682 8.27594 0 0 0
702 8 1 -5.28245 7.66812 8.13152 0 0 0
703 8 1 -5.20002 7.90991 9.13261 0 0 0
704 8 1 -5.17221 7.83797 10.0756 0 0 0
705 8 1 -4.41817 7.8985 10.5587 0 0 0
706 8 1 -4.75212 7.02048 10.5996 0 0 0
707 8 1 -4.62916 6.75244 11.5046 0 0 0
708 8 1 -4.25909 7.59813 11.9505 0 0 0
709 8 1 -3.74802 7.14872 12.5523 0 0 0
710 8 1 -3.41735 6.72899 11.7088 0 0 0
711 8 1 -2.79124 6.20042 12.198 0 0 0
712 8 1 -2.45032 6.43433 13.118 0 0 0
713 8 1 -2.37227 7.33401 12.7415 0 0 0
714 8 1 -2.79527 7.91264 12.0842 0 0 0
715 8 1 -3.32596 7.73625 11.2804 0 0 0
716 8 1 -3.28624 8.70245 11.5886 0 0 0
717 8 1 -3.70379 9.33447 12.1254 0 0 0
718 8 1 -3.61211 10.291 12.0814 0 0 0
719 8 1 -3.23313 10.6916 11.3514 0 0 0
720 8 1 -3.77352 10.2556 10.5911 0 0 0
721 8 1 -3.37281 10.0717 9.68346 0 0 0
722 8 1 -2.91148 9.37483 9.20607 0 0 0
723 8 1 -2.95093 10.1244 8.61548 0 0 0
724 8 1 -3.84483 9.69705 8.76603 0 0 0
725 8 1 -4.05195 10.5994 8.63089 0 0 0
726 8 1 -4.60603 10.1502 7.99395 0 0 0
727 8 1 -4.06876 9.37334 7.81727 0 0 0
728 8 1 -3.45864 10.12 7.67314 0 0 0
729 8 1 -3.04701 9.38749 7.22675 0 0 0
730 8 1 -2.91282 8.6198 7.78104 0 0 0
731 8 1 -2.41888 8.61833 8.57087 0 0 0
732 8 1 -2.14712 8.0999 9.31061 0 0 0
733 8 1 -1.41083 7.74861 8.82258 0 0 0
734 8 1 -0.937133 7.39137 9.59508 0 0 0
735 8 1 -0.379376 7.86139 10.3 0 0 0
736 8 1 -1.20746 8.3772 9.91733 0 0 0
737 8 1 -1.14699 9.05415 10.5973 0 0 0
738 8 1 -1.07488 9.4451 9.65839 0 0 0
739 8 1 -1.93746 9.08815 9.39109 0 0 0
740 8 1 -2.00683 9.50927 10.2918 0 0 0
741 8 1 -1.76602 10.0075 11.0725 0 0 0
742 8 1 -1.87538 9.09157 11.2669 0 0 0
743 8 1 -2.31724 8.23663 11.1304 0 0 0
744 8 1 -2.45085 7.69841 10.3812 0 0 0
745 8 1 -3.07059 7.84973 9.70137 0 0 0
746 8 1 -3.36408 7.98989 8.78456 0 0 0
747 8 1 -4.15175 8.33732 8.40261 0 0 0
748 8 1 -4.74713 8.30702 7.66512 0 0 0
749 8 1 -5.20659 9.15298 7.76115 0 0 0
750 8 1 -5.09487 9.08759 8.71143 0 0 0
751 8 1 -5.60934 9.85816 8.95627 0 0 0
752 8 1 -6.50523 10.1121 9.4181 0 0 0
753 8 1 -7.11478 9.33462 9.45056 0 0 0
754 8 1 -6.70273 8.83815 10.2435 0 0 0
755 8 1 -7.27059 8.3272 9.62358 0 0 0
756 8 1 -7.16945 7.48413 10.0444 0 0 0