LAMMPS (27 Aug 2013)

units    real
atom_style  atomic
lattice         fcc 5.405 origin 0.25 0.25 0.25
Lattice spacing in x,y,z = 5.405 5.405 5.405
region     feRegion block -10 10 -1 1 -1 1
boundary  f p p
create_box  1 feRegion
Created orthogonal box = (-54.05 -5.405 -5.405) to (54.05 5.405 5.405)
  4 by 1 by 1 MPI processor grid
mass    1 39.95 # need to keep this
atom_modify        sort 0 1
region		dummyRegion block -100 -99 -1 1 -1 1
group		dummy region dummyRegion
0 atoms in group dummy

#               ID  group atc PhysicsType ParameterFile
fix             AtC dummy   atc thermal Ar_thermal.mat
ATC: constructing thermal coupling with parameter file Ar_thermal.mat
 ATC: version 2.0
 ATC: peratom PE compute created with ID: 3
 ATC: 3 materials defined from Ar_thermal.mat
timestep  5.0

#               ID  part keywords    nx ny nz region
fix_modify      AtC mesh create 10 1  1  feRegion f p p
 ATC: created uniform mesh with 44 nodes, 11 unique nodes, and 10 elements

# fix end temperatures and an internal source
fix_modify AtC  initial temperature all 20.0
fix_modify AtC  source temperature  all 0.0000000000632
fix_modify AtC mesh create_nodeset lbc -10.1   -9.9   -INF INF   -INF INF
 ATC: created nodeset lbc with 1 nodes
fix_modify AtC mesh create_nodeset rbc   9.9   10.1   -INF INF   -INF INF
 ATC: created nodeset rbc with 1 nodes
fix_modify AtC  fix temperature lbc 20.
fix_modify AtC  fix temperature rbc 20.

fix_modify AtC mesh create_elementset middle   -4.1 4.1  -INF INF   -INF INF
 ATC: created elementset middle with 4 elements
fix_modify AtC material middle Ar2

thermo_style custom step cpu f_AtC[1] f_AtC[2]
fix_modify      AtC  output        no_atomsFE 1000 text binary
 ATC: Warning : text output can create _LARGE_ files
 ATC: output custom names:

thermo  100
run     10000
Setting up run ...
 ATC: WARNING: material: [vacuum] cannot find heat_flux
 ATC: WARNING: physics model: [], material: [vacuum] does not provide all interfaces for <temperature> physics and will be treated as null 
Memory usage per processor = 0.432198 Mbytes
Step CPU AtC[1] AtC[2] 
       0            0    38.154369           20 
     100   0.14154911    38.998362    20.402191 
     200   0.28205705    39.827109    20.797116 
     300   0.42198515    40.638112    21.183586 
     400   0.54153299    41.432837    21.562299 
     500   0.61065507    42.212497    21.933833 
     600   0.67986917    42.978107    22.298671 
     700   0.74918318    43.730523    22.657222 
     800    0.8183372    44.470481    23.009836 
     900   0.88777208    45.198615    23.356816 
    1000   0.95809603    45.915477    23.698425 
    1100     1.027348    46.621553    24.034893 
    1200     1.116395    47.317274    24.366427 
    1300    1.1854131    48.003024     24.69321 
    1400    1.2543602    48.679146    25.015404 
    1500    1.3536541    49.345952    25.333159 
    1600    1.4442902    50.003724     25.64661 
    1700    1.5346382    50.652719    25.955877 
    1800    1.6049261    51.293174    26.261075 
    1900     1.704586    51.925305    26.562306 
    2000    1.7747972    52.549313    26.859667 
    2100    1.8651631    53.165384    27.153245 
    2200    1.9347382    53.773691    27.443124 
    2300    2.0574272    54.374397     27.72938 
    2400    2.1361802    54.967653    28.012086 
    2500    2.2255752    55.553601     28.29131 
    2600     2.365865    56.132378    28.567116 
    2700     2.434617     56.70411    28.839565 
    2800    2.5030642    57.268918    29.108715 
    2900    2.5714922    57.826919     29.37462 
    3000    2.6406021     58.37822    29.637334 
    3100    2.7101052    58.922929    29.896906 
    3200     2.779561    59.461146    30.153384 
    3300    2.8489902    59.992968    30.406815 
    3400    2.9182611    60.518488    30.657243 
    3500     2.986927    61.037798     30.90471 
    3600     3.055866    61.550983     31.14926 
    3700    3.1246481    62.058128    31.390932 
    3800     3.193722    62.559317    31.629765 
    3900     3.262475    63.054627    31.865797 
    4000     3.331975    63.544138    32.099064 
    4100    3.4011841    64.027924    32.329605 
    4200     3.470288     64.50606    32.557452 
    4300      3.53934    64.978617    32.782641 
    4400    3.6081722    65.445666    33.005206 
    4500    3.6769991    65.907277    33.225178 
    4600     3.745892    66.363516    33.442591 
    4700     3.814662    66.814451    33.657477 
    4800    3.8864572    67.260145    33.869865 
    4900    3.9554582    67.700665    34.079787 
    5000     4.025383    68.136071    34.287272 
    5100    4.0945871    68.566425    34.492351 
    5200    4.1635952     68.99179    34.695051 
    5300    4.2326722    69.412224    34.895401 
    5400    4.3017762    69.827786     35.09343 
    5500    4.3707922    70.238534    35.289165 
    5600    4.4399331    70.644525    35.482634 
    5700     4.509083    71.045816    35.673862 
    5800    4.5784371    71.442462    35.862877 
    5900     4.647824    71.834517    36.049704 
    6000     4.717927    72.222037     36.23437 
    6100    4.7871802    72.605073      36.4169 
    6200     4.856302    72.983679    36.597318 
    6300    4.9255042    73.357906     36.77565 
    6400    4.9947002    73.727806    36.951919 
    6500     5.063853    74.093429     37.12615 
    6600    5.1330431    74.454825    37.298367 
    6700    5.2019732    74.812042    37.468594 
    6800    5.2709391    75.165131    37.636852 
    6900     5.339911    75.514139    37.803166 
    7000    5.4098482    75.859112    37.967557 
    7100    5.4791181    76.200099    38.130048 
    7200     5.547857    76.537145    38.290662 
    7300     5.616642    76.870297     38.44942 
    7400    5.6855981    77.199598    38.606343 
    7500     5.754709    77.525095    38.761453 
    7600    5.8236861     77.84683     38.91477 
    7700     5.892972    78.164848    39.066317 
    7800     5.962322    78.479192    39.216112 
    7900     6.031702    78.789904    39.364176 
    8000    6.1020832    79.097027     39.51053 
    8100    6.1723032    79.400601    39.655193 
    8200    6.2421112    79.700668    39.798185 
    8300    6.3114471    79.997268    39.939525 
    8400    6.3808992    80.290442    40.079232 
    8500      6.45034    80.580229    40.217325 
    8600    6.5197151    80.866668    40.353823 
    8700    6.5890031    81.149798    40.488744 
    8800    6.6583152    81.429658    40.622106 
    8900     6.727669    81.706285    40.753928 
    9000    6.7978251    81.979716    40.884227 
    9100    6.8672101    82.249989    41.013021 
    9200    6.9362471    82.517139    41.140327 
    9300    7.0056801    82.781204    41.266162 
    9400     7.074548    83.042218    41.390544 
    9500    7.1435091    83.300217     41.51349 
    9600    7.2123561    83.555236    41.635014 
    9700    7.2810152    83.807309    41.755136 
    9800      7.35006    84.056471    41.873869 
    9900    7.4190381    84.302754    41.991231 
   10000    7.4887731    84.546192    42.107238 
Loop time of 7.48914 on 4 procs for 10000 steps with 0 atoms

Pair  time (%) = 0 (0)
Neigh time (%) = 0 (0)
Comm  time (%) = 0.00670409 (0.0895175)
Outpt time (%) = 0.0392813 (0.52451)
Other time (%) = 7.44315 (99.386)

Nlocal:    0 ave 0 max 0 min
Histogram: 4 0 0 0 0 0 0 0 0 0
Nghost:    0 ave 0 max 0 min
Histogram: 4 0 0 0 0 0 0 0 0 0
Neighs:    0 ave 0 max 0 min
Histogram: 4 0 0 0 0 0 0 0 0 0
FullNghs:  0 ave 0 max 0 min
Histogram: 4 0 0 0 0 0 0 0 0 0

Total # of neighbors = 0
Neighbor list builds = 0
Dangerous builds = 0


fix_modify AtC  remove_source temperature  all
fix_modify AtC  unfix temperature rbc

fix_modify AtC  fix temperature all 20.
run 1
Setting up run ...
 ATC: WARNING: material: [vacuum] cannot find heat_flux
 ATC: WARNING: physics model: [], material: [vacuum] does not provide all interfaces for <temperature> physics and will be treated as null 
Memory usage per processor = 0.432198 Mbytes
Step CPU AtC[1] AtC[2] 
   10000            0    84.546192    42.107238 
   10001 0.00078296661    38.154369           20 
Loop time of 0.00111771 on 4 procs for 1 steps with 0 atoms

Pair  time (%) = 0 (0)
Neigh time (%) = 0 (0)
Comm  time (%) = 2.38419e-07 (0.0213311)
Outpt time (%) = 0.000334561 (29.9328)
Other time (%) = 0.000782907 (70.0459)

Nlocal:    0 ave 0 max 0 min
Histogram: 4 0 0 0 0 0 0 0 0 0
Nghost:    0 ave 0 max 0 min
Histogram: 4 0 0 0 0 0 0 0 0 0
Neighs:    0 ave 0 max 0 min
Histogram: 4 0 0 0 0 0 0 0 0 0
FullNghs:  0 ave 0 max 0 min
Histogram: 4 0 0 0 0 0 0 0 0 0

Total # of neighbors = 0
Neighbor list builds = 0
Dangerous builds = 0
fix_modify AtC  unfix temperature all
reset_timestep 0

# fix one end temperature and the a source at the other
fix_modify AtC  fix temperature lbc 20.
fix_modify AtC mesh create_faceset rbcFace plane x 10.0
 ATC: created faceset rbcFace with 1 faces
fix_modify AtC  fix_flux temperature rbcFace 0.000000001

fix_modify      AtC  output        no_atoms_flux_FE 1000 text binary # NOTE not used
 ATC: Warning : text output can create _LARGE_ files
 ATC: output custom names:

thermo  100
run     10000
Setting up run ...
 ATC: WARNING: material: [vacuum] cannot find heat_flux
 ATC: WARNING: physics model: [], material: [vacuum] does not provide all interfaces for <temperature> physics and will be treated as null 
Memory usage per processor = 0.432198 Mbytes
Step CPU AtC[1] AtC[2] 
       0            0    38.154369           20 
     100  0.075248003    38.293317    20.125706 
     200   0.15081406    38.432963    20.241114 
     300   0.22635603     38.57261    20.348568 
     400   0.30208206    38.712256     20.45016 
     500   0.37749696    38.851902    20.547358 
     600   0.45403099    38.991549    20.641205 
     700   0.53382111    39.131195    20.732446 
     800   0.60950398    39.270841    20.821625 
     900      0.68504    39.410488     20.90914 
    1000   0.76121402    39.550134     20.99529 
    1100    0.8364861     39.68978    21.080301 
    1200   0.91193509    39.829426    21.164346 
    1300   0.98748302    39.969071    21.247561 
    1400    1.0732431    40.108714    21.330051 
    1500    1.1685121    40.248357    21.411904 
    1600     1.244077    40.387997    21.493188 
    1700     1.319665    40.527634     21.57396 
    1800     1.425313    40.667266    21.654269 
    1900     1.502027    40.806892    21.734154 
    2000    1.5799491    40.946511    21.813649 
    2100       1.6564     41.08612    21.892782 
    2200      1.73315    41.225716    21.971578 
    2300    1.8100491    41.365298    22.050059 
    2400    1.8868501    41.504861    22.128243 
    2500     1.983582    41.644403    22.206146 
    2600    2.1089292     41.78392    22.283782 
    2700    2.1843581    41.923408    22.361164 
    2800     2.289794    42.062861    22.438302 
    2900    2.3950071    42.202276    22.515205 
    3000     2.471102    42.341647    22.591883 
    3100     2.546267    42.480969    22.668342 
    3200    2.6214039    42.620236    22.744588 
    3300    2.6968319    42.759443    22.820628 
    3400     2.856524    42.898584    22.896465 
    3500     3.017942    43.037652    22.972105 
    3600    3.7636161    43.176641    23.047551 
    3700     3.959451    43.315544    23.122806 
    3800    4.2324741    43.454355    23.197872 
    3900    4.3080091    43.593068    23.272753 
    4000     4.384063    43.731674    23.347449 
    4100    4.4605911    43.870169    23.421963 
    4200      4.53775    44.008544    23.496296 
    4300    4.6148441    44.146792    23.570449 
    4400    4.6917241    44.284907    23.644422 
    4500     4.768631    44.422882    23.718217 
    4600    4.8447781     44.56071    23.791833 
    4700    4.9197841    44.698385    23.865272 
    4800     4.994632    44.835898    23.938532 
    4900     5.069453    44.973245    24.011614 
    5000    5.1449912    45.110417    24.084519 
    5100    5.2202032    45.247409    24.157245 
    5200    5.2953801    45.384214    24.229793 
    5300    5.3706381    45.520826    24.302161 
    5400     5.445837    45.657238     24.37435 
    5500    5.5263591    45.793445     24.44636 
    5600     5.601434     45.92944    24.518189 
    5700     5.676476    46.065217    24.589837 
    5800    5.7516479    46.200772    24.661303 
    5900    5.8267081    46.336097    24.732587 
    6000    5.9026179    46.471189    24.803688 
    6100    5.9777679     46.60604    24.874606 
    6200    6.0527871    46.740647     24.94534 
    6300    6.1631181    46.875004    25.015889 
    6400    6.3199441    47.009107    25.086252 
    6500     6.614013     47.14295    25.156429 
    6600    6.8192081    47.276528     25.22642 
    6700    6.8963561    47.409838    25.296223 
    6800    6.9718909    47.542875    25.365838 
    6900    7.0486391    47.675634    25.435265 
    7000     7.126533    47.808113    25.504502 
    7100    7.2034771    47.940306     25.57355 
    7200    7.2807691    48.072209    25.642407 
    7300    7.3563941     48.20382    25.711073 
    7400    7.4334559    48.335135    25.779548 
    7500    7.5097861     48.46615    25.847831 
    7600    7.5868599    48.596861    25.915922 
    7700    7.6641691    48.727267     25.98382 
    7800    7.7413061    48.857363    26.051525 
    7900     7.816514    48.987147    26.119036 
    8000     7.891928    49.116615    26.186353 
    8100    7.9680212    49.245766    26.253475 
    8200    8.0438881    49.374597    26.320403 
    8300     8.119566    49.503104    26.387136 
    8400      8.19502    49.631286    26.453674 
    8500    8.2707992    49.759141    26.520016 
    8600    8.3464131    49.886666    26.586162 
    8700    8.4217041    50.013859    26.652112 
    8800     8.496984    50.140719    26.717866 
    8900    8.5724881    50.267243    26.783423 
    9000    8.6488421    50.393429    26.848784 
    9100    8.7249041    50.519276    26.913949 
    9200     8.800667    50.644783    26.978916 
    9300      8.87626    50.769947    27.043687 
    9400     8.951479    50.894768     27.10826 
    9500     9.026628    51.019243    27.172637 
    9600    9.1020551    51.143372    27.236816 
    9700    9.1773701    51.267153    27.300799 
    9800    9.2525301    51.390586    27.364584 
    9900      9.32774    51.513669    27.428173 
   10000    9.4035451    51.636401    27.491564 
Loop time of 9.40388 on 4 procs for 10000 steps with 0 atoms

Pair  time (%) = 0 (0)
Neigh time (%) = 0 (0)
Comm  time (%) = 0.00681293 (0.072448)
Outpt time (%) = 0.0337675 (0.359081)
Other time (%) = 9.3633 (99.5685)

Nlocal:    0 ave 0 max 0 min
Histogram: 4 0 0 0 0 0 0 0 0 0
Nghost:    0 ave 0 max 0 min
Histogram: 4 0 0 0 0 0 0 0 0 0
Neighs:    0 ave 0 max 0 min
Histogram: 4 0 0 0 0 0 0 0 0 0
FullNghs:  0 ave 0 max 0 min
Histogram: 4 0 0 0 0 0 0 0 0 0

Total # of neighbors = 0
Neighbor list builds = 0
Dangerous builds = 0
