LAMMPS (24 Aug 2013)

units    real
atom_style  atomic
lattice         fcc 5.405 origin 0.25 0.25 0.25
Lattice spacing in x,y,z = 5.405 5.405 5.405
region     feRegion block -10 10 -1 1 -1 1
boundary  f p p
create_box  1 feRegion
Created orthogonal box = (-54.05 -5.405 -5.405) to (54.05 5.405 5.405)
  4 by 1 by 1 MPI processor grid
mass    1 39.95 # need to keep this
atom_modify        sort 0 1
region		dummyRegion block -100 -99 -1 1 -1 1
group		dummy region dummyRegion
0 atoms in group dummy

#               ID  group atc PhysicsType ParameterFile
fix             AtC dummy   atc thermal Ar_thermal.mat
ATC: constructing thermal coupling with parameter file Ar_thermal.mat
 ATC: version 2.0
 ATC: peratom PE compute created with ID: 3
 ATC: 3 materials defined from Ar_thermal.mat
timestep  5.0

#               ID  part keywords    nx ny nz region
fix_modify      AtC mesh create 10 1  1  feRegion f p p
 ATC: created uniform mesh with 44 nodes, 11 unique nodes, and 10 elements

# fix end temperatures and an internal source
fix_modify AtC  initial temperature all 20.0
fix_modify AtC  source temperature  all 0.0000000000632
fix_modify AtC mesh create_nodeset lbc -10.1   -9.9   -INF INF   -INF INF
 ATC: created nodeset lbc with 1 nodes
fix_modify AtC mesh create_nodeset rbc   9.9   10.1   -INF INF   -INF INF
 ATC: created nodeset rbc with 1 nodes
fix_modify AtC  fix temperature lbc 20.
fix_modify AtC  fix temperature rbc 20.

fix_modify AtC mesh create_elementset middle   -4.1 4.1  -INF INF   -INF INF
 ATC: created elementset middle with 4 elements
fix_modify AtC material middle Ar2

thermo_style custom step cpu f_AtC[1] f_AtC[2]
fix_modify      AtC  output        no_atomsFE 1000 text binary
 ATC: Warning : text output can create _LARGE_ files
 ATC: output custom names:

thermo  100
run     10000
Setting up run ...
 ATC: WARNING: material: [vacuum] cannot find heat_flux
 ATC: WARNING: physics model: [], material: [vacuum] does not provide all interfaces for <temperature> physics and will be treated as null 
Memory usage per processor = 0.432198 Mbytes
Step CPU AtC[1] AtC[2] 
       0            0    38.154369           20 
     100   0.39788795    38.998362    20.402191 
     200   0.49715495    39.827109    20.797116 
     300   0.63614702    40.638112    21.183586 
     400   0.73500299    41.432837    21.562299 
     500   0.81400895    42.212497    21.933833 
     600   0.88282895    42.978107    22.298671 
     700   0.96159506    43.730523    22.657222 
     800    1.0302451    44.470481    23.009836 
     900     1.098789    45.198615    23.356816 
    1000     1.168026    45.915477    23.698425 
    1100    1.2364819    46.621553    24.034893 
    1200    1.3044651    47.317274    24.366427 
    1300     1.372417    48.003024     24.69321 
    1400     1.441026    48.679146    25.015404 
    1500     1.509335    49.345952    25.333159 
    1600    1.5777409    50.003724     25.64661 
    1700     1.646153    50.652719    25.955877 
    1800    1.7149341    51.293174    26.261075 
    1900    1.7831299    51.925305    26.562306 
    2000     1.852035    52.549313    26.859667 
    2100     1.920368    53.165384    27.153245 
    2200    1.9887819    53.773691    27.443124 
    2300    2.0572631    54.374397     27.72938 
    2400     2.125757    54.967653    28.012086 
    2500     2.194442    55.553601     28.29131 
    2600    2.3308191    56.132378    28.567116 
    2700    2.4721711     56.70411    28.839565 
    2800    2.6192341    57.268918    29.108715 
    2900    2.9212461    57.826919     29.37462 
    3000     3.060657     58.37822    29.637334 
    3100    3.1685159    58.922929    29.896906 
    3200     3.307039    59.461146    30.153384 
    3300    3.4198341    59.992968    30.406815 
    3400    3.4885559    60.518488    30.657243 
    3500    3.5572281    61.037798     30.90471 
    3600    3.6255291    61.550983     31.14926 
    3700    3.6938851    62.058128    31.390932 
    3800    3.7622211    62.559317    31.629765 
    3900    3.8303709    63.054627    31.865797 
    4000     3.899168    63.544138    32.099064 
    4100       3.9677    64.027924    32.329605 
    4200     4.036674     64.50606    32.557452 
    4300      4.10567    64.978617    32.782641 
    4400     4.174649    65.445666    33.005206 
    4500    4.2437871    65.907277    33.225178 
    4600    4.3127871    66.363516    33.442591 
    4700    4.3814931    66.814451    33.657477 
    4800     4.450135    67.260145    33.869865 
    4900    4.5189929    67.700665    34.079787 
    5000    4.5888259    68.136071    34.287272 
    5100     4.657429    68.566425    34.492351 
    5200     4.726038     68.99179    34.695051 
    5300    4.7942791    69.412224    34.895401 
    5400    4.8625271    69.827786     35.09343 
    5500    4.9309821    70.238534    35.289165 
    5600     4.999454    70.644525    35.482634 
    5700    5.0681629    71.045816    35.673862 
    5800    5.1366611    71.442462    35.862877 
    5900    5.2050209    71.834517    36.049704 
    6000     5.274147    72.222037     36.23437 
    6100    5.3424091    72.605073      36.4169 
    6200    5.4106631    72.983679    36.597318 
    6300     5.478775    73.357906     36.77565 
    6400    5.5468211    73.727806    36.951919 
    6500     5.614938    74.093429     37.12615 
    6600    5.6830611    74.454825    37.298367 
    6700     5.751189    74.812042    37.468594 
    6800    5.8190451    75.165131    37.636852 
    6900    5.8927989    75.514139    37.803166 
    7000     5.961446    75.859112    37.967557 
    7100    6.0310919    76.200099    38.130048 
    7200      6.09936    76.537145    38.290662 
    7300     6.167551    76.870297     38.44942 
    7400    6.2362411    77.199598    38.606343 
    7500     6.305141    77.525095    38.761453 
    7600    6.3739901     77.84683     38.91477 
    7700    6.4428191    78.164848    39.066317 
    7800     6.511667    78.479192    39.216112 
    7900    6.5907071    78.789904    39.364176 
    8000     6.724232    79.097027     39.51053 
    8100    6.8225391    79.400601    39.655193 
    8200     6.900687    79.700668    39.798185 
    8300    6.9988041    79.997268    39.939525 
    8400    7.0969059    80.290442    40.079232 
    8500     7.195164    80.580229    40.217325 
    8600      7.30323    80.866668    40.353823 
    8700    7.3811481    81.149798    40.488744 
    8800    7.4793019    81.429658    40.622106 
    8900    7.5473211    81.706285    40.753928 
    9000     7.615984    81.979716    40.884227 
    9100    7.6846321    82.249989    41.013021 
    9200    7.7531769    82.517139    41.140327 
    9300     7.821454    82.781204    41.266162 
    9400     7.889782    83.042218    41.390544 
    9500     7.958111    83.300217     41.51349 
    9600    8.0263691    83.555236    41.635014 
    9700    8.0946791    83.807309    41.755136 
    9800     8.163152    84.056471    41.873869 
    9900     8.231528    84.302754    41.991231 
   10000    8.3004131    84.546192    42.107238 
Loop time of 8.30076 on 4 procs for 10000 steps with 0 atoms

Pair  time (%) = 0 (0)
Neigh time (%) = 0 (0)
Comm  time (%) = 0.00620985 (0.0748106)
Outpt time (%) = 0.0488294 (0.588252)
Other time (%) = 8.24572 (99.3369)

Nlocal:    0 ave 0 max 0 min
Histogram: 4 0 0 0 0 0 0 0 0 0
Nghost:    0 ave 0 max 0 min
Histogram: 4 0 0 0 0 0 0 0 0 0
Neighs:    0 ave 0 max 0 min
Histogram: 4 0 0 0 0 0 0 0 0 0
FullNghs:  0 ave 0 max 0 min
Histogram: 4 0 0 0 0 0 0 0 0 0

Total # of neighbors = 0
Neighbor list builds = 0
Dangerous builds = 0


fix_modify AtC  remove_source temperature  all
fix_modify AtC  unfix temperature rbc

fix_modify AtC  fix temperature all 20.
run 1
Setting up run ...
 ATC: WARNING: material: [vacuum] cannot find heat_flux
 ATC: WARNING: physics model: [], material: [vacuum] does not provide all interfaces for <temperature> physics and will be treated as null 
Memory usage per processor = 0.432198 Mbytes
Step CPU AtC[1] AtC[2] 
   10000            0    84.546192    42.107238 
   10001 0.00083208084    38.154369           20 
Loop time of 0.00115949 on 4 procs for 1 steps with 0 atoms

Pair  time (%) = 0 (0)
Neigh time (%) = 0 (0)
Comm  time (%) = 7.15256e-07 (0.0616871)
Outpt time (%) = 0.000325739 (28.0934)
Other time (%) = 0.000833035 (71.845)

Nlocal:    0 ave 0 max 0 min
Histogram: 4 0 0 0 0 0 0 0 0 0
Nghost:    0 ave 0 max 0 min
Histogram: 4 0 0 0 0 0 0 0 0 0
Neighs:    0 ave 0 max 0 min
Histogram: 4 0 0 0 0 0 0 0 0 0
FullNghs:  0 ave 0 max 0 min
Histogram: 4 0 0 0 0 0 0 0 0 0

Total # of neighbors = 0
Neighbor list builds = 0
Dangerous builds = 0
fix_modify AtC  unfix temperature all
reset_timestep 0

# fix one end temperature and the a source at the other
fix_modify AtC  fix temperature lbc 20.
fix_modify AtC mesh create_faceset rbcFace plane x 10.0
 ATC: created faceset rbcFace with 1 faces
fix_modify AtC  fix_flux temperature rbcFace 0.000000001

fix_modify      AtC  output        no_atoms_flux_FE 1000 text binary # NOTE not used
 ATC: Warning : text output can create _LARGE_ files
 ATC: output custom names:

thermo  100
run     10000
Setting up run ...
 ATC: WARNING: material: [vacuum] cannot find heat_flux
 ATC: WARNING: physics model: [], material: [vacuum] does not provide all interfaces for <temperature> physics and will be treated as null 
Memory usage per processor = 0.432198 Mbytes
Step CPU AtC[1] AtC[2] 
       0            0    38.154369           20 
     100  0.074691057    38.293317    20.125706 
     200   0.14964104    38.432963    20.241114 
     300   0.22440195     38.57261    20.348568 
     400   0.29957914    38.712256     20.45016 
     500   0.37440896    38.851902    20.547358 
     600   0.44927001    38.991549    20.641205 
     700    0.5244031    39.131195    20.732446 
     800   0.59940791    39.270841    20.821625 
     900   0.67445707    39.410488     20.90914 
    1000   0.75037408    39.550134     20.99529 
    1100   0.82606006     39.68978    21.080301 
    1200   0.90129113    39.829426    21.164346 
    1300   0.97653103    39.969071    21.247561 
    1400    1.0517421    40.108714    21.330051 
    1500    1.1269631    40.248357    21.411904 
    1600     1.202002    40.387997    21.493188 
    1700    1.2770131    40.527634     21.57396 
    1800     1.352093    40.667266    21.654269 
    1900     1.427525    40.806892    21.734154 
    2000    1.5030839    40.946511    21.813649 
    2100    1.5779941     41.08612    21.892782 
    2200     1.652709    41.225716    21.971578 
    2300    1.7274911    41.365298    22.050059 
    2400     1.802295    41.504861    22.128243 
    2500    1.8770111    41.644403    22.206146 
    2600     1.951659     41.78392    22.283782 
    2700     2.026412    41.923408    22.361164 
    2800    2.1010699    42.062861    22.438302 
    2900    2.1756341    42.202276    22.515205 
    3000     2.251014    42.341647    22.591883 
    3100     2.326412    42.480969    22.668342 
    3200     2.401233    42.620236    22.744588 
    3300    2.4762599    42.759443    22.820628 
    3400    2.5513301    42.898584    22.896465 
    3500     2.626359    43.037652    22.972105 
    3600     2.701442    43.176641    23.047551 
    3700     2.776989    43.315544    23.122806 
    3800    2.8522229    43.454355    23.197872 
    3900    2.9273891    43.593068    23.272753 
    4000     3.003252    43.731674    23.347449 
    4100     3.078357    43.870169    23.421963 
    4200    3.1538751    44.008544    23.496296 
    4300     3.229089    44.146792    23.570449 
    4400     3.361537    44.284907    23.644422 
    4500    3.5169501    44.422882    23.718217 
    4600    3.6510451     44.56071    23.791833 
    4700     3.726042    44.698385    23.865272 
    4800     3.800982    44.835898    23.938532 
    4900     3.876025    44.973245    24.011614 
    5000    3.9521041    45.110417    24.084519 
    5100     4.057178    45.247409    24.157245 
    5200    4.1521881    45.384214    24.229793 
    5300    4.2873821    45.520826    24.302161 
    5400     4.385608    45.657238     24.37435 
    5500    4.4707391    45.793445     24.44636 
    5600    4.5758271     45.92944    24.518189 
    5700    4.6706221    46.065217    24.589837 
    5800     4.765465    46.200772    24.661303 
    5900     4.880121    46.336097    24.732587 
    6000     4.975982    46.471189    24.803688 
    6100     5.120806     46.60604    24.874606 
    6200     5.215425    46.740647     24.94534 
    6300    5.3100591    46.875004    25.015889 
    6400     5.444972    47.009107    25.086252 
    6500    5.5396199     47.14295    25.156429 
    6600    5.6142759    47.276528     25.22642 
    6700     5.739603    47.409838    25.296223 
    6800    5.8447909    47.542875    25.365838 
    6900     5.919903    47.675634    25.435265 
    7000    6.0255911    47.808113    25.504502 
    7100      6.15065    47.940306     25.57355 
    7200    6.2253611    48.072209    25.642407 
    7300    6.3149979     48.20382    25.711073 
    7400     6.389462    48.335135    25.779548 
    7500    6.5141521     48.46615    25.847831 
    7600    6.6492481    48.596861    25.915922 
    7700     6.724153    48.727267     25.98382 
    7800    7.0480061    48.857363    26.051525 
    7900    7.1936171    48.987147    26.119036 
    8000     7.355957    49.116615    26.186353 
    8100    7.5015841    49.245766    26.253475 
    8200    7.6583509    49.374597    26.320403 
    8300    7.7631471    49.503104    26.387136 
    8400    7.8379819    49.631286    26.453674 
    8500    7.9124291    49.759141    26.520016 
    8600     7.986696    49.886666    26.586162 
    8700    8.0611801    50.013859    26.652112 
    8800     8.165652    50.140719    26.717866 
    8900    8.2601151    50.267243    26.783423 
    9000    8.3655519    50.393429    26.848784 
    9100    8.4629769    50.519276    26.913949 
    9200    8.5374889    50.644783    26.978916 
    9300      8.61202    50.769947    27.043687 
    9400    8.6865401    50.894768     27.10826 
    9500    8.8111451    51.019243    27.172637 
    9600    8.8857729    51.143372    27.236816 
    9700     8.960433    51.267153    27.300799 
    9800    9.0351319    51.390586    27.364584 
    9900    9.1097481    51.513669    27.428173 
   10000      9.18536    51.636401    27.491564 
Loop time of 9.18571 on 4 procs for 10000 steps with 0 atoms

Pair  time (%) = 0 (0)
Neigh time (%) = 0 (0)
Comm  time (%) = 0.00622296 (0.0677461)
Outpt time (%) = 0.0682393 (0.742885)
Other time (%) = 9.11125 (99.1894)

Nlocal:    0 ave 0 max 0 min
Histogram: 4 0 0 0 0 0 0 0 0 0
Nghost:    0 ave 0 max 0 min
Histogram: 4 0 0 0 0 0 0 0 0 0
Neighs:    0 ave 0 max 0 min
Histogram: 4 0 0 0 0 0 0 0 0 0
FullNghs:  0 ave 0 max 0 min
Histogram: 4 0 0 0 0 0 0 0 0 0

Total # of neighbors = 0
Neighbor list builds = 0
Dangerous builds = 0
