LAMMPS data file from restart file: timestep = 0, procs = 1

1440 atoms

1 atom types

-27.025 27.025 xlo xhi
-16.215 16.215 ylo yhi
-16.215 16.215 zlo zhi

Masses

1 39.95

Pair Coeffs

1 0.238 3.405

Atoms

1 1 -25.6738 -14.8638 -14.8638 0 0 0
2 1 -22.9713 -12.1613 -14.8638 0 0 0
3 1 -22.9713 -14.8638 -12.1613 0 0 0
4 1 -25.6738 -12.1613 -12.1613 0 0 0
5 1 -20.2688 -14.8638 -14.8638 0 0 0
6 1 -17.5663 -12.1613 -14.8638 0 0 0
7 1 -17.5663 -14.8638 -12.1613 0 0 0
8 1 -20.2688 -12.1613 -12.1613 0 0 0
9 1 -14.8638 -14.8638 -14.8638 0 0 0
10 1 -12.1613 -12.1613 -14.8638 0 0 0
11 1 -12.1613 -14.8638 -12.1613 0 0 0
12 1 -14.8638 -12.1613 -12.1613 0 0 0
13 1 -9.45875 -14.8638 -14.8638 0 0 0
14 1 -6.75625 -12.1613 -14.8638 0 0 0
15 1 -6.75625 -14.8638 -12.1613 0 0 0
16 1 -9.45875 -12.1613 -12.1613 0 0 0
17 1 -4.05375 -14.8638 -14.8638 0 0 0
18 1 -1.35125 -12.1613 -14.8638 0 0 0
19 1 -1.35125 -14.8638 -12.1613 0 0 0
20 1 -4.05375 -12.1613 -12.1613 0 0 0
21 1 1.35125 -14.8638 -14.8638 0 0 0
22 1 4.05375 -12.1613 -14.8638 0 0 0
23 1 4.05375 -14.8638 -12.1613 0 0 0
24 1 1.35125 -12.1613 -12.1613 0 0 0
25 1 6.75625 -14.8638 -14.8638 0 0 0
26 1 9.45875 -12.1613 -14.8638 0 0 0
27 1 9.45875 -14.8638 -12.1613 0 0 0
28 1 6.75625 -12.1613 -12.1613 0 0 0
29 1 12.1613 -14.8638 -14.8638 0 0 0
30 1 14.8638 -12.1613 -14.8638 0 0 0
31 1 14.8638 -14.8638 -12.1613 0 0 0
32 1 12.1613 -12.1613 -12.1613 0 0 0
33 1 17.5663 -14.8638 -14.8638 0 0 0
34 1 20.2688 -12.1613 -14.8638 0 0 0
35 1 20.2688 -14.8638 -12.1613 0 0 0
36 1 17.5663 -12.1613 -12.1613 0 0 0
37 1 22.9713 -14.8638 -14.8638 0 0 0
38 1 25.6738 -12.1613 -14.8638 0 0 0
39 1 25.6738 -14.8638 -12.1613 0 0 0
40 1 22.9713 -12.1613 -12.1613 0 0 0
41 1 -25.6738 -9.45875 -14.8638 0 0 0
42 1 -22.9713 -6.75625 -14.8638 0 0 0
43 1 -22.9713 -9.45875 -12.1613 0 0 0
44 1 -25.6738 -6.75625 -12.1613 0 0 0
45 1 -20.2688 -9.45875 -14.8638 0 0 0
46 1 -17.5663 -6.75625 -14.8638 0 0 0
47 1 -17.5663 -9.45875 -12.1613 0 0 0
48 1 -20.2688 -6.75625 -12.1613 0 0 0
49 1 -14.8638 -9.45875 -14.8638 0 0 0
50 1 -12.1613 -6.75625 -14.8638 0 0 0
51 1 -12.1613 -9.45875 -12.1613 0 0 0
52 1 -14.8638 -6.75625 -12.1613 0 0 0
53 1 -9.45875 -9.45875 -14.8638 0 0 0
54 1 -6.75625 -6.75625 -14.8638 0 0 0
55 1 -6.75625 -9.45875 -12.1613 0 0 0
56 1 -9.45875 -6.75625 -12.1613 0 0 0
57 1 -4.05375 -9.45875 -14.8638 0 0 0
58 1 -1.35125 -6.75625 -14.8638 0 0 0
59 1 -1.35125 -9.45875 -12.1613 0 0 0
60 1 -4.05375 -6.75625 -12.1613 0 0 0
61 1 1.35125 -9.45875 -14.8638 0 0 0
62 1 4.05375 -6.75625 -14.8638 0 0 0
63 1 4.05375 -9.45875 -12.1613 0 0 0
64 1 1.35125 -6.75625 -12.1613 0 0 0
65 1 6.75625 -9.45875 -14.8638 0 0 0
66 1 9.45875 -6.75625 -14.8638 0 0 0
67 1 9.45875 -9.45875 -12.1613 0 0 0
68 1 6.75625 -6.75625 -12.1613 0 0 0
69 1 12.1613 -9.45875 -14.8638 0 0 0
70 1 14.8638 -6.75625 -14.8638 0 0 0
71 1 14.8638 -9.45875 -12.1613 0 0 0
72 1 12.1613 -6.75625 -12.1613 0 0 0
73 1 17.5663 -9.45875 -14.8638 0 0 0
74 1 20.2688 -6.75625 -14.8638 0 0 0
75 1 20.2688 -9.45875 -12.1613 0 0 0
76 1 17.5663 -6.75625 -12.1613 0 0 0
77 1 22.9713 -9.45875 -14.8638 0 0 0
78 1 25.6738 -6.75625 -14.8638 0 0 0
79 1 25.6738 -9.45875 -12.1613 0 0 0
80 1 22.9713 -6.75625 -12.1613 0 0 0
81 1 -25.6738 -4.05375 -14.8638 0 0 0
82 1 -22.9713 -1.35125 -14.8638 0 0 0
83 1 -22.9713 -4.05375 -12.1613 0 0 0
84 1 -25.6738 -1.35125 -12.1613 0 0 0
85 1 -20.2688 -4.05375 -14.8638 0 0 0
86 1 -17.5663 -1.35125 -14.8638 0 0 0
87 1 -17.5663 -4.05375 -12.1613 0 0 0
88 1 -20.2688 -1.35125 -12.1613 0 0 0
89 1 -14.8638 -4.05375 -14.8638 0 0 0
90 1 -12.1613 -1.35125 -14.8638 0 0 0
91 1 -12.1613 -4.05375 -12.1613 0 0 0
92 1 -14.8638 -1.35125 -12.1613 0 0 0
93 1 -9.45875 -4.05375 -14.8638 0 0 0
94 1 -6.75625 -1.35125 -14.8638 0 0 0
95 1 -6.75625 -4.05375 -12.1613 0 0 0
96 1 -9.45875 -1.35125 -12.1613 0 0 0
97 1 -4.05375 -4.05375 -14.8638 0 0 0
98 1 -1.35125 -1.35125 -14.8638 0 0 0
99 1 -1.35125 -4.05375 -12.1613 0 0 0
100 1 -4.05375 -1.35125 -12.1613 0 0 0
101 1 1.35125 -4.05375 -14.8638 0 0 0
102 1 4.05375 -1.35125 -14.8638 0 0 0
103 1 4.05375 -4.05375 -12.1613 0 0 0
104 1 1.35125 -1.35125 -12.1613 0 0 0
105 1 6.75625 -4.05375 -14.8638 0 0 0
106 1 9.45875 -1.35125 -14.8638 0 0 0
107 1 9.45875 -4.05375 -12.1613 0 0 0
108 1 6.75625 -1.35125 -12.1613 0 0 0
109 1 12.1613 -4.05375 -14.8638 0 0 0
110 1 14.8638 -1.35125 -14.8638 0 0 0
111 1 14.8638 -4.05375 -12.1613 0 0 0
112 1 12.1613 -1.35125 -12.1613 0 0 0
113 1 17.5663 -4.05375 -14.8638 0 0 0
114 1 20.2688 -1.35125 -14.8638 0 0 0
115 1 20.2688 -4.05375 -12.1613 0 0 0
116 1 17.5663 -1.35125 -12.1613 0 0 0
117 1 22.9713 -4.05375 -14.8638 0 0 0
118 1 25.6738 -1.35125 -14.8638 0 0 0
119 1 25.6738 -4.05375 -12.1613 0 0 0
120 1 22.9713 -1.35125 -12.1613 0 0 0
121 1 -25.6738 1.35125 -14.8638 0 0 0
122 1 -22.9713 4.05375 -14.8638 0 0 0
123 1 -22.9713 1.35125 -12.1613 0 0 0
124 1 -25.6738 4.05375 -12.1613 0 0 0
125 1 -20.2688 1.35125 -14.8638 0 0 0
126 1 -17.5663 4.05375 -14.8638 0 0 0
127 1 -17.5663 1.35125 -12.1613 0 0 0
128 1 -20.2688 4.05375 -12.1613 0 0 0
129 1 -14.8638 1.35125 -14.8638 0 0 0
130 1 -12.1613 4.05375 -14.8638 0 0 0
131 1 -12.1613 1.35125 -12.1613 0 0 0
132 1 -14.8638 4.05375 -12.1613 0 0 0
133 1 -9.45875 1.35125 -14.8638 0 0 0
134 1 -6.75625 4.05375 -14.8638 0 0 0
135 1 -6.75625 1.35125 -12.1613 0 0 0
136 1 -9.45875 4.05375 -12.1613 0 0 0
137 1 -4.05375 1.35125 -14.8638 0 0 0
138 1 -1.35125 4.05375 -14.8638 0 0 0
139 1 -1.35125 1.35125 -12.1613 0 0 0
140 1 -4.05375 4.05375 -12.1613 0 0 0
141 1 1.35125 1.35125 -14.8638 0 0 0
142 1 4.05375 4.05375 -14.8638 0 0 0
143 1 4.05375 1.35125 -12.1613 0 0 0
144 1 1.35125 4.05375 -12.1613 0 0 0
145 1 6.75625 1.35125 -14.8638 0 0 0
146 1 9.45875 4.05375 -14.8638 0 0 0
147 1 9.45875 1.35125 -12.1613 0 0 0
148 1 6.75625 4.05375 -12.1613 0 0 0
149 1 12.1613 1.35125 -14.8638 0 0 0
150 1 14.8638 4.05375 -14.8638 0 0 0
151 1 14.8638 1.35125 -12.1613 0 0 0
152 1 12.1613 4.05375 -12.1613 0 0 0
153 1 17.5663 1.35125 -14.8638 0 0 0
154 1 20.2688 4.05375 -14.8638 0 0 0
155 1 20.2688 1.35125 -12.1613 0 0 0
156 1 17.5663 4.05375 -12.1613 0 0 0
157 1 22.9713 1.35125 -14.8638 0 0 0
158 1 25.6738 4.05375 -14.8638 0 0 0
159 1 25.6738 1.35125 -12.1613 0 0 0
160 1 22.9713 4.05375 -12.1613 0 0 0
161 1 -25.6738 6.75625 -14.8638 0 0 0
162 1 -22.9713 9.45875 -14.8638 0 0 0
163 1 -22.9713 6.75625 -12.1613 0 0 0
164 1 -25.6738 9.45875 -12.1613 0 0 0
165 1 -20.2688 6.75625 -14.8638 0 0 0
166 1 -17.5663 9.45875 -14.8638 0 0 0
167 1 -17.5663 6.75625 -12.1613 0 0 0
168 1 -20.2688 9.45875 -12.1613 0 0 0
169 1 -14.8638 6.75625 -14.8638 0 0 0
170 1 -12.1613 9.45875 -14.8638 0 0 0
171 1 -12.1613 6.75625 -12.1613 0 0 0
172 1 -14.8638 9.45875 -12.1613 0 0 0
173 1 -9.45875 6.75625 -14.8638 0 0 0
174 1 -6.75625 9.45875 -14.8638 0 0 0
175 1 -6.75625 6.75625 -12.1613 0 0 0
176 1 -9.45875 9.45875 -12.1613 0 0 0
177 1 -4.05375 6.75625 -14.8638 0 0 0
178 1 -1.35125 9.45875 -14.8638 0 0 0
179 1 -1.35125 6.75625 -12.1613 0 0 0
180 1 -4.05375 9.45875 -12.1613 0 0 0
181 1 1.35125 6.75625 -14.8638 0 0 0
182 1 4.05375 9.45875 -14.8638 0 0 0
183 1 4.05375 6.75625 -12.1613 0 0 0
184 1 1.35125 9.45875 -12.1613 0 0 0
185 1 6.75625 6.75625 -14.8638 0 0 0
186 1 9.45875 9.45875 -14.8638 0 0 0
187 1 9.45875 6.75625 -12.1613 0 0 0
188 1 6.75625 9.45875 -12.1613 0 0 0
189 1 12.1613 6.75625 -14.8638 0 0 0
190 1 14.8638 9.45875 -14.8638 0 0 0
191 1 14.8638 6.75625 -12.1613 0 0 0
192 1 12.1613 9.45875 -12.1613 0 0 0
193 1 17.5663 6.75625 -14.8638 0 0 0
194 1 20.2688 9.45875 -14.8638 0 0 0
195 1 20.2688 6.75625 -12.1613 0 0 0
196 1 17.5663 9.45875 -12.1613 0 0 0
197 1 22.9713 6.75625 -14.8638 0 0 0
198 1 25.6738 9.45875 -14.8638 0 0 0
199 1 25.6738 6.75625 -12.1613 0 0 0
200 1 22.9713 9.45875 -12.1613 0 0 0
201 1 -25.6738 12.1613 -14.8638 0 0 0
202 1 -22.9713 14.8638 -14.8638 0 0 0
203 1 -22.9713 12.1613 -12.1613 0 0 0
204 1 -25.6738 14.8638 -12.1613 0 0 0
205 1 -20.2688 12.1613 -14.8638 0 0 0
206 1 -17.5663 14.8638 -14.8638 0 0 0
207 1 -17.5663 12.1613 -12.1613 0 0 0
208 1 -20.2688 14.8638 -12.1613 0 0 0
209 1 -14.8638 12.1613 -14.8638 0 0 0
210 1 -12.1613 14.8638 -14.8638 0 0 0
211 1 -12.1613 12.1613 -12.1613 0 0 0
212 1 -14.8638 14.8638 -12.1613 0 0 0
213 1 -9.45875 12.1613 -14.8638 0 0 0
214 1 -6.75625 14.8638 -14.8638 0 0 0
215 1 -6.75625 12.1613 -12.1613 0 0 0
216 1 -9.45875 14.8638 -12.1613 0 0 0
217 1 -4.05375 12.1613 -14.8638 0 0 0
218 1 -1.35125 14.8638 -14.8638 0 0 0
219 1 -1.35125 12.1613 -12.1613 0 0 0
220 1 -4.05375 14.8638 -12.1613 0 0 0
221 1 1.35125 12.1613 -14.8638 0 0 0
222 1 4.05375 14.8638 -14.8638 0 0 0
223 1 4.05375 12.1613 -12.1613 0 0 0
224 1 1.35125 14.8638 -12.1613 0 0 0
225 1 6.75625 12.1613 -14.8638 0 0 0
226 1 9.45875 14.8638 -14.8638 0 0 0
227 1 9.45875 12.1613 -12.1613 0 0 0
228 1 6.75625 14.8638 -12.1613 0 0 0
229 1 12.1613 12.1613 -14.8638 0 0 0
230 1 14.8638 14.8638 -14.8638 0 0 0
231 1 14.8638 12.1613 -12.1613 0 0 0
232 1 12.1613 14.8638 -12.1613 0 0 0
233 1 17.5663 12.1613 -14.8638 0 0 0
234 1 20.2688 14.8638 -14.8638 0 0 0
235 1 20.2688 12.1613 -12.1613 0 0 0
236 1 17.5663 14.8638 -12.1613 0 0 0
237 1 22.9713 12.1613 -14.8638 0 0 0
238 1 25.6738 14.8638 -14.8638 0 0 0
239 1 25.6738 12.1613 -12.1613 0 0 0
240 1 22.9713 14.8638 -12.1613 0 0 0
241 1 -25.6738 -14.8638 -9.45875 0 0 0
242 1 -22.9713 -12.1613 -9.45875 0 0 0
243 1 -22.9713 -14.8638 -6.75625 0 0 0
244 1 -25.6738 -12.1613 -6.75625 0 0 0
245 1 -20.2688 -14.8638 -9.45875 0 0 0
246 1 -17.5663 -12.1613 -9.45875 0 0 0
247 1 -17.5663 -14.8638 -6.75625 0 0 0
248 1 -20.2688 -12.1613 -6.75625 0 0 0
249 1 -14.8638 -14.8638 -9.45875 0 0 0
250 1 -12.1613 -12.1613 -9.45875 0 0 0
251 1 -12.1613 -14.8638 -6.75625 0 0 0
252 1 -14.8638 -12.1613 -6.75625 0 0 0
253 1 -9.45875 -14.8638 -9.45875 0 0 0
254 1 -6.75625 -12.1613 -9.45875 0 0 0
255 1 -6.75625 -14.8638 -6.75625 0 0 0
256 1 -9.45875 -12.1613 -6.75625 0 0 0
257 1 -4.05375 -14.8638 -9.45875 0 0 0
258 1 -1.35125 -12.1613 -9.45875 0 0 0
259 1 -1.35125 -14.8638 -6.75625 0 0 0
260 1 -4.05375 -12.1613 -6.75625 0 0 0
261 1 1.35125 -14.8638 -9.45875 0 0 0
262 1 4.05375 -12.1613 -9.45875 0 0 0
263 1 4.05375 -14.8638 -6.75625 0 0 0
264 1 1.35125 -12.1613 -6.75625 0 0 0
265 1 6.75625 -14.8638 -9.45875 0 0 0
266 1 9.45875 -12.1613 -9.45875 0 0 0
267 1 9.45875 -14.8638 -6.75625 0 0 0
268 1 6.75625 -12.1613 -6.75625 0 0 0
269 1 12.1613 -14.8638 -9.45875 0 0 0
270 1 14.8638 -12.1613 -9.45875 0 0 0
271 1 14.8638 -14.8638 -6.75625 0 0 0
272 1 12.1613 -12.1613 -6.75625 0 0 0
273 1 17.5663 -14.8638 -9.45875 0 0 0
274 1 20.2688 -12.1613 -9.45875 0 0 0
275 1 20.2688 -14.8638 -6.75625 0 0 0
276 1 17.5663 -12.1613 -6.75625 0 0 0
277 1 22.9713 -14.8638 -9.45875 0 0 0
278 1 25.6738 -12.1613 -9.45875 0 0 0
279 1 25.6738 -14.8638 -6.75625 0 0 0
280 1 22.9713 -12.1613 -6.75625 0 0 0
281 1 -25.6738 -9.45875 -9.45875 0 0 0
282 1 -22.9713 -6.75625 -9.45875 0 0 0
283 1 -22.9713 -9.45875 -6.75625 0 0 0
284 1 -25.6738 -6.75625 -6.75625 0 0 0
285 1 -20.2688 -9.45875 -9.45875 0 0 0
286 1 -17.5663 -6.75625 -9.45875 0 0 0
287 1 -17.5663 -9.45875 -6.75625 0 0 0
288 1 -20.2688 -6.75625 -6.75625 0 0 0
289 1 -14.8638 -9.45875 -9.45875 0 0 0
290 1 -12.1613 -6.75625 -9.45875 0 0 0
291 1 -12.1613 -9.45875 -6.75625 0 0 0
292 1 -14.8638 -6.75625 -6.75625 0 0 0
293 1 -9.45875 -9.45875 -9.45875 0 0 0
294 1 -6.75625 -6.75625 -9.45875 0 0 0
295 1 -6.75625 -9.45875 -6.75625 0 0 0
296 1 -9.45875 -6.75625 -6.75625 0 0 0
297 1 -4.05375 -9.45875 -9.45875 0 0 0
298 1 -1.35125 -6.75625 -9.45875 0 0 0
299 1 -1.35125 -9.45875 -6.75625 0 0 0
300 1 -4.05375 -6.75625 -6.75625 0 0 0
301 1 1.35125 -9.45875 -9.45875 0 0 0
302 1 4.05375 -6.75625 -9.45875 0 0 0
303 1 4.05375 -9.45875 -6.75625 0 0 0
304 1 1.35125 -6.75625 -6.75625 0 0 0
305 1 6.75625 -9.45875 -9.45875 0 0 0
306 1 9.45875 -6.75625 -9.45875 0 0 0
307 1 9.45875 -9.45875 -6.75625 0 0 0
308 1 6.75625 -6.75625 -6.75625 0 0 0
309 1 12.1613 -9.45875 -9.45875 0 0 0
310 1 14.8638 -6.75625 -9.45875 0 0 0
311 1 14.8638 -9.45875 -6.75625 0 0 0
312 1 12.1613 -6.75625 -6.75625 0 0 0
313 1 17.5663 -9.45875 -9.45875 0 0 0
314 1 20.2688 -6.75625 -9.45875 0 0 0
315 1 20.2688 -9.45875 -6.75625 0 0 0
316 1 17.5663 -6.75625 -6.75625 0 0 0
317 1 22.9713 -9.45875 -9.45875 0 0 0
318 1 25.6738 -6.75625 -9.45875 0 0 0
319 1 25.6738 -9.45875 -6.75625 0 0 0
320 1 22.9713 -6.75625 -6.75625 0 0 0
321 1 -25.6738 -4.05375 -9.45875 0 0 0
322 1 -22.9713 -1.35125 -9.45875 0 0 0
323 1 -22.9713 -4.05375 -6.75625 0 0 0
324 1 -25.6738 -1.35125 -6.75625 0 0 0
325 1 -20.2688 -4.05375 -9.45875 0 0 0
326 1 -17.5663 -1.35125 -9.45875 0 0 0
327 1 -17.5663 -4.05375 -6.75625 0 0 0
328 1 -20.2688 -1.35125 -6.75625 0 0 0
329 1 -14.8638 -4.05375 -9.45875 0 0 0
330 1 -12.1613 -1.35125 -9.45875 0 0 0
331 1 -12.1613 -4.05375 -6.75625 0 0 0
332 1 -14.8638 -1.35125 -6.75625 0 0 0
333 1 -9.45875 -4.05375 -9.45875 0 0 0
334 1 -6.75625 -1.35125 -9.45875 0 0 0
335 1 -6.75625 -4.05375 -6.75625 0 0 0
336 1 -9.45875 -1.35125 -6.75625 0 0 0
337 1 -4.05375 -4.05375 -9.45875 0 0 0
338 1 -1.35125 -1.35125 -9.45875 0 0 0
339 1 -1.35125 -4.05375 -6.75625 0 0 0
340 1 -4.05375 -1.35125 -6.75625 0 0 0
341 1 1.35125 -4.05375 -9.45875 0 0 0
342 1 4.05375 -1.35125 -9.45875 0 0 0
343 1 4.05375 -4.05375 -6.75625 0 0 0
344 1 1.35125 -1.35125 -6.75625 0 0 0
345 1 6.75625 -4.05375 -9.45875 0 0 0
346 1 9.45875 -1.35125 -9.45875 0 0 0
347 1 9.45875 -4.05375 -6.75625 0 0 0
348 1 6.75625 -1.35125 -6.75625 0 0 0
349 1 12.1613 -4.05375 -9.45875 0 0 0
350 1 14.8638 -1.35125 -9.45875 0 0 0
351 1 14.8638 -4.05375 -6.75625 0 0 0
352 1 12.1613 -1.35125 -6.75625 0 0 0
353 1 17.5663 -4.05375 -9.45875 0 0 0
354 1 20.2688 -1.35125 -9.45875 0 0 0
355 1 20.2688 -4.05375 -6.75625 0 0 0
356 1 17.5663 -1.35125 -6.75625 0 0 0
357 1 22.9713 -4.05375 -9.45875 0 0 0
358 1 25.6738 -1.35125 -9.45875 0 0 0
359 1 25.6738 -4.05375 -6.75625 0 0 0
360 1 22.9713 -1.35125 -6.75625 0 0 0
361 1 -25.6738 1.35125 -9.45875 0 0 0
362 1 -22.9713 4.05375 -9.45875 0 0 0
363 1 -22.9713 1.35125 -6.75625 0 0 0
364 1 -25.6738 4.05375 -6.75625 0 0 0
365 1 -20.2688 1.35125 -9.45875 0 0 0
366 1 -17.5663 4.05375 -9.45875 0 0 0
367 1 -17.5663 1.35125 -6.75625 0 0 0
368 1 -20.2688 4.05375 -6.75625 0 0 0
369 1 -14.8638 1.35125 -9.45875 0 0 0
370 1 -12.1613 4.05375 -9.45875 0 0 0
371 1 -12.1613 1.35125 -6.75625 0 0 0
372 1 -14.8638 4.05375 -6.75625 0 0 0
373 1 -9.45875 1.35125 -9.45875 0 0 0
374 1 -6.75625 4.05375 -9.45875 0 0 0
375 1 -6.75625 1.35125 -6.75625 0 0 0
376 1 -9.45875 4.05375 -6.75625 0 0 0
377 1 -4.05375 1.35125 -9.45875 0 0 0
378 1 -1.35125 4.05375 -9.45875 0 0 0
379 1 -1.35125 1.35125 -6.75625 0 0 0
380 1 -4.05375 4.05375 -6.75625 0 0 0
381 1 1.35125 1.35125 -9.45875 0 0 0
382 1 4.05375 4.05375 -9.45875 0 0 0
383 1 4.05375 1.35125 -6.75625 0 0 0
384 1 1.35125 4.05375 -6.75625 0 0 0
385 1 6.75625 1.35125 -9.45875 0 0 0
386 1 9.45875 4.05375 -9.45875 0 0 0
387 1 9.45875 1.35125 -6.75625 0 0 0
388 1 6.75625 4.05375 -6.75625 0 0 0
389 1 12.1613 1.35125 -9.45875 0 0 0
390 1 14.8638 4.05375 -9.45875 0 0 0
391 1 14.8638 1.35125 -6.75625 0 0 0
392 1 12.1613 4.05375 -6.75625 0 0 0
393 1 17.5663 1.35125 -9.45875 0 0 0
394 1 20.2688 4.05375 -9.45875 0 0 0
395 1 20.2688 1.35125 -6.75625 0 0 0
396 1 17.5663 4.05375 -6.75625 0 0 0
397 1 22.9713 1.35125 -9.45875 0 0 0
398 1 25.6738 4.05375 -9.45875 0 0 0
399 1 25.6738 1.35125 -6.75625 0 0 0
400 1 22.9713 4.05375 -6.75625 0 0 0
401 1 -25.6738 6.75625 -9.45875 0 0 0
402 1 -22.9713 9.45875 -9.45875 0 0 0
403 1 -22.9713 6.75625 -6.75625 0 0 0
404 1 -25.6738 9.45875 -6.75625 0 0 0
405 1 -20.2688 6.75625 -9.45875 0 0 0
406 1 -17.5663 9.45875 -9.45875 0 0 0
407 1 -17.5663 6.75625 -6.75625 0 0 0
408 1 -20.2688 9.45875 -6.75625 0 0 0
409 1 -14.8638 6.75625 -9.45875 0 0 0
410 1 -12.1613 9.45875 -9.45875 0 0 0
411 1 -12.1613 6.75625 -6.75625 0 0 0
412 1 -14.8638 9.45875 -6.75625 0 0 0
413 1 -9.45875 6.75625 -9.45875 0 0 0
414 1 -6.75625 9.45875 -9.45875 0 0 0
415 1 -6.75625 6.75625 -6.75625 0 0 0
416 1 -9.45875 9.45875 -6.75625 0 0 0
417 1 -4.05375 6.75625 -9.45875 0 0 0
418 1 -1.35125 9.45875 -9.45875 0 0 0
419 1 -1.35125 6.75625 -6.75625 0 0 0
420 1 -4.05375 9.45875 -6.75625 0 0 0
421 1 1.35125 6.75625 -9.45875 0 0 0
422 1 4.05375 9.45875 -9.45875 0 0 0
423 1 4.05375 6.75625 -6.75625 0 0 0
424 1 1.35125 9.45875 -6.75625 0 0 0
425 1 6.75625 6.75625 -9.45875 0 0 0
426 1 9.45875 9.45875 -9.45875 0 0 0
427 1 9.45875 6.75625 -6.75625 0 0 0
428 1 6.75625 9.45875 -6.75625 0 0 0
429 1 12.1613 6.75625 -9.45875 0 0 0
430 1 14.8638 9.45875 -9.45875 0 0 0
431 1 14.8638 6.75625 -6.75625 0 0 0
432 1 12.1613 9.45875 -6.75625 0 0 0
433 1 17.5663 6.75625 -9.45875 0 0 0
434 1 20.2688 9.45875 -9.45875 0 0 0
435 1 20.2688 6.75625 -6.75625 0 0 0
436 1 17.5663 9.45875 -6.75625 0 0 0
437 1 22.9713 6.75625 -9.45875 0 0 0
438 1 25.6738 9.45875 -9.45875 0 0 0
439 1 25.6738 6.75625 -6.75625 0 0 0
440 1 22.9713 9.45875 -6.75625 0 0 0
441 1 -25.6738 12.1613 -9.45875 0 0 0
442 1 -22.9713 14.8638 -9.45875 0 0 0
443 1 -22.9713 12.1613 -6.75625 0 0 0
444 1 -25.6738 14.8638 -6.75625 0 0 0
445 1 -20.2688 12.1613 -9.45875 0 0 0
446 1 -17.5663 14.8638 -9.45875 0 0 0
447 1 -17.5663 12.1613 -6.75625 0 0 0
448 1 -20.2688 14.8638 -6.75625 0 0 0
449 1 -14.8638 12.1613 -9.45875 0 0 0
450 1 -12.1613 14.8638 -9.45875 0 0 0
451 1 -12.1613 12.1613 -6.75625 0 0 0
452 1 -14.8638 14.8638 -6.75625 0 0 0
453 1 -9.45875 12.1613 -9.45875 0 0 0
454 1 -6.75625 14.8638 -9.45875 0 0 0
455 1 -6.75625 12.1613 -6.75625 0 0 0
456 1 -9.45875 14.8638 -6.75625 0 0 0
457 1 -4.05375 12.1613 -9.45875 0 0 0
458 1 -1.35125 14.8638 -9.45875 0 0 0
459 1 -1.35125 12.1613 -6.75625 0 0 0
460 1 -4.05375 14.8638 -6.75625 0 0 0
461 1 1.35125 12.1613 -9.45875 0 0 0
462 1 4.05375 14.8638 -9.45875 0 0 0
463 1 4.05375 12.1613 -6.75625 0 0 0
464 1 1.35125 14.8638 -6.75625 0 0 0
465 1 6.75625 12.1613 -9.45875 0 0 0
466 1 9.45875 14.8638 -9.45875 0 0 0
467 1 9.45875 12.1613 -6.75625 0 0 0
468 1 6.75625 14.8638 -6.75625 0 0 0
469 1 12.1613 12.1613 -9.45875 0 0 0
470 1 14.8638 14.8638 -9.45875 0 0 0
471 1 14.8638 12.1613 -6.75625 0 0 0
472 1 12.1613 14.8638 -6.75625 0 0 0
473 1 17.5663 12.1613 -9.45875 0 0 0
474 1 20.2688 14.8638 -9.45875 0 0 0
475 1 20.2688 12.1613 -6.75625 0 0 0
476 1 17.5663 14.8638 -6.75625 0 0 0
477 1 22.9713 12.1613 -9.45875 0 0 0
478 1 25.6738 14.8638 -9.45875 0 0 0
479 1 25.6738 12.1613 -6.75625 0 0 0
480 1 22.9713 14.8638 -6.75625 0 0 0
481 1 -25.6738 -14.8638 -4.05375 0 0 0
482 1 -22.9713 -12.1613 -4.05375 0 0 0
483 1 -22.9713 -14.8638 -1.35125 0 0 0
484 1 -25.6738 -12.1613 -1.35125 0 0 0
485 1 -20.2688 -14.8638 -4.05375 0 0 0
486 1 -17.5663 -12.1613 -4.05375 0 0 0
487 1 -17.5663 -14.8638 -1.35125 0 0 0
488 1 -20.2688 -12.1613 -1.35125 0 0 0
489 1 -14.8638 -14.8638 -4.05375 0 0 0
490 1 -12.1613 -12.1613 -4.05375 0 0 0
491 1 -12.1613 -14.8638 -1.35125 0 0 0
492 1 -14.8638 -12.1613 -1.35125 0 0 0
493 1 -9.45875 -14.8638 -4.05375 0 0 0
494 1 -6.75625 -12.1613 -4.05375 0 0 0
495 1 -6.75625 -14.8638 -1.35125 0 0 0
496 1 -9.45875 -12.1613 -1.35125 0 0 0
497 1 -4.05375 -14.8638 -4.05375 0 0 0
498 1 -1.35125 -12.1613 -4.05375 0 0 0
499 1 -1.35125 -14.8638 -1.35125 0 0 0
500 1 -4.05375 -12.1613 -1.35125 0 0 0
501 1 1.35125 -14.8638 -4.05375 0 0 0
502 1 4.05375 -12.1613 -4.05375 0 0 0
503 1 4.05375 -14.8638 -1.35125 0 0 0
504 1 1.35125 -12.1613 -1.35125 0 0 0
505 1 6.75625 -14.8638 -4.05375 0 0 0
506 1 9.45875 -12.1613 -4.05375 0 0 0
507 1 9.45875 -14.8638 -1.35125 0 0 0
508 1 6.75625 -12.1613 -1.35125 0 0 0
509 1 12.1613 -14.8638 -4.05375 0 0 0
510 1 14.8638 -12.1613 -4.05375 0 0 0
511 1 14.8638 -14.8638 -1.35125 0 0 0
512 1 12.1613 -12.1613 -1.35125 0 0 0
513 1 17.5663 -14.8638 -4.05375 0 0 0
514 1 20.2688 -12.1613 -4.05375 0 0 0
515 1 20.2688 -14.8638 -1.35125 0 0 0
516 1 17.5663 -12.1613 -1.35125 0 0 0
517 1 22.9713 -14.8638 -4.05375 0 0 0
518 1 25.6738 -12.1613 -4.05375 0 0 0
519 1 25.6738 -14.8638 -1.35125 0 0 0
520 1 22.9713 -12.1613 -1.35125 0 0 0
521 1 -25.6738 -9.45875 -4.05375 0 0 0
522 1 -22.9713 -6.75625 -4.05375 0 0 0
523 1 -22.9713 -9.45875 -1.35125 0 0 0
524 1 -25.6738 -6.75625 -1.35125 0 0 0
525 1 -20.2688 -9.45875 -4.05375 0 0 0
526 1 -17.5663 -6.75625 -4.05375 0 0 0
527 1 -17.5663 -9.45875 -1.35125 0 0 0
528 1 -20.2688 -6.75625 -1.35125 0 0 0
529 1 -14.8638 -9.45875 -4.05375 0 0 0
530 1 -12.1613 -6.75625 -4.05375 0 0 0
531 1 -12.1613 -9.45875 -1.35125 0 0 0
532 1 -14.8638 -6.75625 -1.35125 0 0 0
533 1 -9.45875 -9.45875 -4.05375 0 0 0
534 1 -6.75625 -6.75625 -4.05375 0 0 0
535 1 -6.75625 -9.45875 -1.35125 0 0 0
536 1 -9.45875 -6.75625 -1.35125 0 0 0
537 1 -4.05375 -9.45875 -4.05375 0 0 0
538 1 -1.35125 -6.75625 -4.05375 0 0 0
539 1 -1.35125 -9.45875 -1.35125 0 0 0
540 1 -4.05375 -6.75625 -1.35125 0 0 0
541 1 1.35125 -9.45875 -4.05375 0 0 0
542 1 4.05375 -6.75625 -4.05375 0 0 0
543 1 4.05375 -9.45875 -1.35125 0 0 0
544 1 1.35125 -6.75625 -1.35125 0 0 0
545 1 6.75625 -9.45875 -4.05375 0 0 0
546 1 9.45875 -6.75625 -4.05375 0 0 0
547 1 9.45875 -9.45875 -1.35125 0 0 0
548 1 6.75625 -6.75625 -1.35125 0 0 0
549 1 12.1613 -9.45875 -4.05375 0 0 0
550 1 14.8638 -6.75625 -4.05375 0 0 0
551 1 14.8638 -9.45875 -1.35125 0 0 0
552 1 12.1613 -6.75625 -1.35125 0 0 0
553 1 17.5663 -9.45875 -4.05375 0 0 0
554 1 20.2688 -6.75625 -4.05375 0 0 0
555 1 20.2688 -9.45875 -1.35125 0 0 0
556 1 17.5663 -6.75625 -1.35125 0 0 0
557 1 22.9713 -9.45875 -4.05375 0 0 0
558 1 25.6738 -6.75625 -4.05375 0 0 0
559 1 25.6738 -9.45875 -1.35125 0 0 0
560 1 22.9713 -6.75625 -1.35125 0 0 0
561 1 -25.6738 -4.05375 -4.05375 0 0 0
562 1 -22.9713 -1.35125 -4.05375 0 0 0
563 1 -22.9713 -4.05375 -1.35125 0 0 0
564 1 -25.6738 -1.35125 -1.35125 0 0 0
565 1 -20.2688 -4.05375 -4.05375 0 0 0
566 1 -17.5663 -1.35125 -4.05375 0 0 0
567 1 -17.5663 -4.05375 -1.35125 0 0 0
568 1 -20.2688 -1.35125 -1.35125 0 0 0
569 1 -14.8638 -4.05375 -4.05375 0 0 0
570 1 -12.1613 -1.35125 -4.05375 0 0 0
571 1 -12.1613 -4.05375 -1.35125 0 0 0
572 1 -14.8638 -1.35125 -1.35125 0 0 0
573 1 -9.45875 -4.05375 -4.05375 0 0 0
574 1 -6.75625 -1.35125 -4.05375 0 0 0
575 1 -6.75625 -4.05375 -1.35125 0 0 0
576 1 -9.45875 -1.35125 -1.35125 0 0 0
577 1 -4.05375 -4.05375 -4.05375 0 0 0
578 1 -1.35125 -1.35125 -4.05375 0 0 0
579 1 -1.35125 -4.05375 -1.35125 0 0 0
580 1 -4.05375 -1.35125 -1.35125 0 0 0
581 1 1.35125 -4.05375 -4.05375 0 0 0
582 1 4.05375 -1.35125 -4.05375 0 0 0
583 1 4.05375 -4.05375 -1.35125 0 0 0
584 1 1.35125 -1.35125 -1.35125 0 0 0
585 1 6.75625 -4.05375 -4.05375 0 0 0
586 1 9.45875 -1.35125 -4.05375 0 0 0
587 1 9.45875 -4.05375 -1.35125 0 0 0
588 1 6.75625 -1.35125 -1.35125 0 0 0
589 1 12.1613 -4.05375 -4.05375 0 0 0
590 1 14.8638 -1.35125 -4.05375 0 0 0
591 1 14.8638 -4.05375 -1.35125 0 0 0
592 1 12.1613 -1.35125 -1.35125 0 0 0
593 1 17.5663 -4.05375 -4.05375 0 0 0
594 1 20.2688 -1.35125 -4.05375 0 0 0
595 1 20.2688 -4.05375 -1.35125 0 0 0
596 1 17.5663 -1.35125 -1.35125 0 0 0
597 1 22.9713 -4.05375 -4.05375 0 0 0
598 1 25.6738 -1.35125 -4.05375 0 0 0
599 1 25.6738 -4.05375 -1.35125 0 0 0
600 1 22.9713 -1.35125 -1.35125 0 0 0
601 1 -25.6738 1.35125 -4.05375 0 0 0
602 1 -22.9713 4.05375 -4.05375 0 0 0
603 1 -22.9713 1.35125 -1.35125 0 0 0
604 1 -25.6738 4.05375 -1.35125 0 0 0
605 1 -20.2688 1.35125 -4.05375 0 0 0
606 1 -17.5663 4.05375 -4.05375 0 0 0
607 1 -17.5663 1.35125 -1.35125 0 0 0
608 1 -20.2688 4.05375 -1.35125 0 0 0
609 1 -14.8638 1.35125 -4.05375 0 0 0
610 1 -12.1613 4.05375 -4.05375 0 0 0
611 1 -12.1613 1.35125 -1.35125 0 0 0
612 1 -14.8638 4.05375 -1.35125 0 0 0
613 1 -9.45875 1.35125 -4.05375 0 0 0
614 1 -6.75625 4.05375 -4.05375 0 0 0
615 1 -6.75625 1.35125 -1.35125 0 0 0
616 1 -9.45875 4.05375 -1.35125 0 0 0
617 1 -4.05375 1.35125 -4.05375 0 0 0
618 1 -1.35125 4.05375 -4.05375 0 0 0
619 1 -1.35125 1.35125 -1.35125 0 0 0
620 1 -4.05375 4.05375 -1.35125 0 0 0
621 1 1.35125 1.35125 -4.05375 0 0 0
622 1 4.05375 4.05375 -4.05375 0 0 0
623 1 4.05375 1.35125 -1.35125 0 0 0
624 1 1.35125 4.05375 -1.35125 0 0 0
625 1 6.75625 1.35125 -4.05375 0 0 0
626 1 9.45875 4.05375 -4.05375 0 0 0
627 1 9.45875 1.35125 -1.35125 0 0 0
628 1 6.75625 4.05375 -1.35125 0 0 0
629 1 12.1613 1.35125 -4.05375 0 0 0
630 1 14.8638 4.05375 -4.05375 0 0 0
631 1 14.8638 1.35125 -1.35125 0 0 0
632 1 12.1613 4.05375 -1.35125 0 0 0
633 1 17.5663 1.35125 -4.05375 0 0 0
634 1 20.2688 4.05375 -4.05375 0 0 0
635 1 20.2688 1.35125 -1.35125 0 0 0
636 1 17.5663 4.05375 -1.35125 0 0 0
637 1 22.9713 1.35125 -4.05375 0 0 0
638 1 25.6738 4.05375 -4.05375 0 0 0
639 1 25.6738 1.35125 -1.35125 0 0 0
640 1 22.9713 4.05375 -1.35125 0 0 0
641 1 -25.6738 6.75625 -4.05375 0 0 0
642 1 -22.9713 9.45875 -4.05375 0 0 0
643 1 -22.9713 6.75625 -1.35125 0 0 0
644 1 -25.6738 9.45875 -1.35125 0 0 0
645 1 -20.2688 6.75625 -4.05375 0 0 0
646 1 -17.5663 9.45875 -4.05375 0 0 0
647 1 -17.5663 6.75625 -1.35125 0 0 0
648 1 -20.2688 9.45875 -1.35125 0 0 0
649 1 -14.8638 6.75625 -4.05375 0 0 0
650 1 -12.1613 9.45875 -4.05375 0 0 0
651 1 -12.1613 6.75625 -1.35125 0 0 0
652 1 -14.8638 9.45875 -1.35125 0 0 0
653 1 -9.45875 6.75625 -4.05375 0 0 0
654 1 -6.75625 9.45875 -4.05375 0 0 0
655 1 -6.75625 6.75625 -1.35125 0 0 0
656 1 -9.45875 9.45875 -1.35125 0 0 0
657 1 -4.05375 6.75625 -4.05375 0 0 0
658 1 -1.35125 9.45875 -4.05375 0 0 0
659 1 -1.35125 6.75625 -1.35125 0 0 0
660 1 -4.05375 9.45875 -1.35125 0 0 0
661 1 1.35125 6.75625 -4.05375 0 0 0
662 1 4.05375 9.45875 -4.05375 0 0 0
663 1 4.05375 6.75625 -1.35125 0 0 0
664 1 1.35125 9.45875 -1.35125 0 0 0
665 1 6.75625 6.75625 -4.05375 0 0 0
666 1 9.45875 9.45875 -4.05375 0 0 0
667 1 9.45875 6.75625 -1.35125 0 0 0
668 1 6.75625 9.45875 -1.35125 0 0 0
669 1 12.1613 6.75625 -4.05375 0 0 0
670 1 14.8638 9.45875 -4.05375 0 0 0
671 1 14.8638 6.75625 -1.35125 0 0 0
672 1 12.1613 9.45875 -1.35125 0 0 0
673 1 17.5663 6.75625 -4.05375 0 0 0
674 1 20.2688 9.45875 -4.05375 0 0 0
675 1 20.2688 6.75625 -1.35125 0 0 0
676 1 17.5663 9.45875 -1.35125 0 0 0
677 1 22.9713 6.75625 -4.05375 0 0 0
678 1 25.6738 9.45875 -4.05375 0 0 0
679 1 25.6738 6.75625 -1.35125 0 0 0
680 1 22.9713 9.45875 -1.35125 0 0 0
681 1 -25.6738 12.1613 -4.05375 0 0 0
682 1 -22.9713 14.8638 -4.05375 0 0 0
683 1 -22.9713 12.1613 -1.35125 0 0 0
684 1 -25.6738 14.8638 -1.35125 0 0 0
685 1 -20.2688 12.1613 -4.05375 0 0 0
686 1 -17.5663 14.8638 -4.05375 0 0 0
687 1 -17.5663 12.1613 -1.35125 0 0 0
688 1 -20.2688 14.8638 -1.35125 0 0 0
689 1 -14.8638 12.1613 -4.05375 0 0 0
690 1 -12.1613 14.8638 -4.05375 0 0 0
691 1 -12.1613 12.1613 -1.35125 0 0 0
692 1 -14.8638 14.8638 -1.35125 0 0 0
693 1 -9.45875 12.1613 -4.05375 0 0 0
694 1 -6.75625 14.8638 -4.05375 0 0 0
695 1 -6.75625 12.1613 -1.35125 0 0 0
696 1 -9.45875 14.8638 -1.35125 0 0 0
697 1 -4.05375 12.1613 -4.05375 0 0 0
698 1 -1.35125 14.8638 -4.05375 0 0 0
699 1 -1.35125 12.1613 -1.35125 0 0 0
700 1 -4.05375 14.8638 -1.35125 0 0 0
701 1 1.35125 12.1613 -4.05375 0 0 0
702 1 4.05375 14.8638 -4.05375 0 0 0
703 1 4.05375 12.1613 -1.35125 0 0 0
704 1 1.35125 14.8638 -1.35125 0 0 0
705 1 6.75625 12.1613 -4.05375 0 0 0
706 1 9.45875 14.8638 -4.05375 0 0 0
707 1 9.45875 12.1613 -1.35125 0 0 0
708 1 6.75625 14.8638 -1.35125 0 0 0
709 1 12.1613 12.1613 -4.05375 0 0 0
710 1 14.8638 14.8638 -4.05375 0 0 0
711 1 14.8638 12.1613 -1.35125 0 0 0
712 1 12.1613 14.8638 -1.35125 0 0 0
713 1 17.5663 12.1613 -4.05375 0 0 0
714 1 20.2688 14.8638 -4.05375 0 0 0
715 1 20.2688 12.1613 -1.35125 0 0 0
716 1 17.5663 14.8638 -1.35125 0 0 0
717 1 22.9713 12.1613 -4.05375 0 0 0
718 1 25.6738 14.8638 -4.05375 0 0 0
719 1 25.6738 12.1613 -1.35125 0 0 0
720 1 22.9713 14.8638 -1.35125 0 0 0
721 1 -25.6738 -14.8638 1.35125 0 0 0
722 1 -22.9713 -12.1613 1.35125 0 0 0
723 1 -22.9713 -14.8638 4.05375 0 0 0
724 1 -25.6738 -12.1613 4.05375 0 0 0
725 1 -20.2688 -14.8638 1.35125 0 0 0
726 1 -17.5663 -12.1613 1.35125 0 0 0
727 1 -17.5663 -14.8638 4.05375 0 0 0
728 1 -20.2688 -12.1613 4.05375 0 0 0
729 1 -14.8638 -14.8638 1.35125 0 0 0
730 1 -12.1613 -12.1613 1.35125 0 0 0
731 1 -12.1613 -14.8638 4.05375 0 0 0
732 1 -14.8638 -12.1613 4.05375 0 0 0
733 1 -9.45875 -14.8638 1.35125 0 0 0
734 1 -6.75625 -12.1613 1.35125 0 0 0
735 1 -6.75625 -14.8638 4.05375 0 0 0
736 1 -9.45875 -12.1613 4.05375 0 0 0
737 1 -4.05375 -14.8638 1.35125 0 0 0
738 1 -1.35125 -12.1613 1.35125 0 0 0
739 1 -1.35125 -14.8638 4.05375 0 0 0
740 1 -4.05375 -12.1613 4.05375 0 0 0
741 1 1.35125 -14.8638 1.35125 0 0 0
742 1 4.05375 -12.1613 1.35125 0 0 0
743 1 4.05375 -14.8638 4.05375 0 0 0
744 1 1.35125 -12.1613 4.05375 0 0 0
745 1 6.75625 -14.8638 1.35125 0 0 0
746 1 9.45875 -12.1613 1.35125 0 0 0
747 1 9.45875 -14.8638 4.05375 0 0 0
748 1 6.75625 -12.1613 4.05375 0 0 0
749 1 12.1613 -14.8638 1.35125 0 0 0
750 1 14.8638 -12.1613 1.35125 0 0 0
751 1 14.8638 -14.8638 4.05375 0 0 0
752 1 12.1613 -12.1613 4.05375 0 0 0
753 1 17.5663 -14.8638 1.35125 0 0 0
754 1 20.2688 -12.1613 1.35125 0 0 0
755 1 20.2688 -14.8638 4.05375 0 0 0
756 1 17.5663 -12.1613 4.05375 0 0 0
757 1 22.9713 -14.8638 1.35125 0 0 0
758 1 25.6738 -12.1613 1.35125 0 0 0
759 1 25.6738 -14.8638 4.05375 0 0 0
760 1 22.9713 -12.1613 4.05375 0 0 0
761 1 -25.6738 -9.45875 1.35125 0 0 0
762 1 -22.9713 -6.75625 1.35125 0 0 0
763 1 -22.9713 -9.45875 4.05375 0 0 0
764 1 -25.6738 -6.75625 4.05375 0 0 0
765 1 -20.2688 -9.45875 1.35125 0 0 0
766 1 -17.5663 -6.75625 1.35125 0 0 0
767 1 -17.5663 -9.45875 4.05375 0 0 0
768 1 -20.2688 -6.75625 4.05375 0 0 0
769 1 -14.8638 -9.45875 1.35125 0 0 0
770 1 -12.1613 -6.75625 1.35125 0 0 0
771 1 -12.1613 -9.45875 4.05375 0 0 0
772 1 -14.8638 -6.75625 4.05375 0 0 0
773 1 -9.45875 -9.45875 1.35125 0 0 0
774 1 -6.75625 -6.75625 1.35125 0 0 0
775 1 -6.75625 -9.45875 4.05375 0 0 0
776 1 -9.45875 -6.75625 4.05375 0 0 0
777 1 -4.05375 -9.45875 1.35125 0 0 0
778 1 -1.35125 -6.75625 1.35125 0 0 0
779 1 -1.35125 -9.45875 4.05375 0 0 0
780 1 -4.05375 -6.75625 4.05375 0 0 0
781 1 1.35125 -9.45875 1.35125 0 0 0
782 1 4.05375 -6.75625 1.35125 0 0 0
783 1 4.05375 -9.45875 4.05375 0 0 0
784 1 1.35125 -6.75625 4.05375 0 0 0
785 1 6.75625 -9.45875 1.35125 0 0 0
786 1 9.45875 -6.75625 1.35125 0 0 0
787 1 9.45875 -9.45875 4.05375 0 0 0