LAMMPS (27 Jun 2024)
OMP_NUM_THREADS environment is not set. Defaulting to 1 thread. (src/comm.cpp:98)
  using 1 OpenMP thread(s) per MPI task
variable	sname index ch4

units 		electron
newton		on
boundary        f f f

atom_style	electron

read_data  	data.${sname}
read_data  	data.ch4
Reading data file ...
  orthogonal box = (-500 -500 -500) to (500 500 500)
  1 by 1 by 1 MPI processor grid
  reading atoms ...
  15 atoms
  read_data CPU = 0.000 seconds

pair_style      eff/cut 100.0
pair_coeff	* *

comm_modify	vel yes

compute         effTemp all temp/eff

compute         energies all pair eff/cut
variable        eke equal c_energies[1]
variable        epauli equal c_energies[2]
variable        ecoul equal c_energies[3]
variable        erres equal c_energies[4]

thermo          1
thermo_style    custom step etotal pe ke v_eke v_epauli v_ecoul v_erres

min_style	cg
compute         1 all property/atom spin eradius erforce
dump            2 all custom 10 ${sname}.min.lammpstrj id type q c_1[1] c_1[2] x y z fx fy fz c_1[3]
dump            2 all custom 10 ch4.min.lammpstrj id type q c_1[1] c_1[2] x y z fx fy fz c_1[3]
minimize	0 1e-6 2000 4000

CITE-CITE-CITE-CITE-CITE-CITE-CITE-CITE-CITE-CITE-CITE-CITE-CITE

Your simulation uses code contributions which should be cited:

- EFF package: doi:10.1002/jcc.21637

@Article{Jaramillo-Botero11,
 author = {A. Jaramillo-Botero and J. Su and A. Qi and Goddard, III, W. A.},
 title = {Large-Scale, Long-Term Nonadiabatic Electron Molecular Dynamics for Describing Material Properties and Phenomena in Extreme Environments},
 journal = {J.~Comp.\ Chem.},
 year =    2011,
 volume =  32,
 number =  3,
 pages =   {497--512}
}

- Type Label Framework: https://doi.org/10.1021/acs.jpcb.3c08419

@Article{Gissinger24,
 author = {Jacob R. Gissinger, Ilia Nikiforov, Yaser Afshar, Brendon Waters, Moon-ki Choi, Daniel S. Karls, Alexander Stukowski, Wonpil Im, Hendrik Heinz, Axel Kohlmeyer, and Ellad B. Tadmor},
 title = {Type Label Framework for Bonded Force Fields in LAMMPS},
 journal = {J. Phys. Chem. B},
 year =    2024,
 volume =  128,
 number =  13,
 pages =   {3282–-3297}
}

CITE-CITE-CITE-CITE-CITE-CITE-CITE-CITE-CITE-CITE-CITE-CITE-CITE

Generated 0 of 3 mixed pair_coeff terms from geometric mixing rule
Neighbor list info ...
  update: every = 1 steps, delay = 0 steps, check = yes
  max neighbors/atom: 2000, page size: 100000
  master list distance cutoff = 102
  ghost atom cutoff = 102
  binsize = 51, bins = 20 20 20
  1 neighbor lists, perpetual/occasional/extra = 1 0 0
  (1) pair eff/cut, perpetual
      attributes: half, newton on
      pair build: half/bin/atomonly/newton
      stencil: half/bin/3d
      bin: standard
Per MPI rank memory allocation (min/avg/max) = 5.405 | 5.405 | 5.405 Mbytes
   Step         TotEng         PotEng         KinEng         v_eke         v_epauli       v_ecoul        v_erres    
         0  -27.314082     -27.314082      0              24             0.10032353    -51.414406      0            
         1  -27.499639     -27.499639      0              24.170209      0.10057561    -51.770424      0            
         2  -27.683396     -27.683396      0              24.345642      0.10089134    -52.129929      0            
         3  -27.865331     -27.865331      0              24.526355      0.10127324    -52.492959      0            
         4  -28.045422     -28.045422      0              24.712409      0.10172411    -52.859555      0            
         5  -28.223645     -28.223645      0              24.903863      0.10224707    -53.229755      0            
         6  -28.399975     -28.399975      0              25.100779      0.10284557    -53.603599      0            
         7  -28.574385     -28.574385      0              25.303218      0.10352343    -53.981126      0            
         8  -28.746849     -28.746849      0              25.511241      0.1042849     -54.362374      0            
         9  -28.917337     -28.917337      0              25.724911      0.10513471    -54.747383      0            
        10  -29.085821     -29.085821      0              25.944289      0.10607815    -55.136189      0            
        11  -29.252272     -29.252272      0              26.169437      0.1071211     -55.52883       0            
        12  -29.41666      -29.41666       0              26.400414      0.10827014    -55.925344      0            
        13  -29.578957     -29.578957      0              26.637279      0.10953266    -56.325768      0            
        14  -29.739132     -29.739132      0              26.880089      0.11091698    -56.730139      0            
        15  -29.897159     -29.897159      0              27.1289        0.11243247    -57.138491      0            
        16  -30.05301      -30.05301       0              27.383761      0.11408972    -57.550861      0            
        17  -30.20666      -30.20666       0              27.644721      0.11590079    -57.967282      0            
        18  -30.358087     -30.358087      0              27.911822      0.1178794     -58.387788      0            
        19  -30.507273     -30.507273      0              28.185098      0.12004129    -58.812412      0            
        20  -30.654201     -30.654201      0              28.46458       0.12240454    -59.241185      0            
        21  -30.798862     -30.798862      0              28.750284      0.12499011    -59.674136      0            
        22  -30.941253     -30.941253      0              29.042218      0.12782235    -60.111293      0            
        23  -31.08138      -31.08138       0              29.340372      0.13092981    -60.552682      0            
        24  -31.219258     -31.219258      0              29.644719      0.13434614    -60.998324      0            
        25  -31.354917     -31.354917      0              29.955211      0.13811139    -61.448239      0            
        26  -31.488402     -31.488402      0              30.271767      0.14227357    -61.902442      0            
        27  -31.619779     -31.619779      0              30.594272      0.14689089    -62.360942      0            
        28  -31.749143     -31.749143      0              30.922563      0.15203466    -62.823741      0            
        29  -31.876621     -31.876621      0              31.256418      0.15779339    -63.290833      0            
        30  -32.002388     -32.002388      0              31.595534      0.16427855    -63.7622        0            
        31  -32.126674     -32.126674      0              31.9395        0.1716329     -64.237807      0            
        32  -32.249794     -32.249794      0              32.287764      0.18004289    -64.717601      0            
        33  -32.372172     -32.372172      0              32.639566      0.1897578     -65.201496      0            
        34  -32.494388     -32.494388      0              32.993857      0.20112027    -65.689365      0            
        35  -32.61725      -32.61725       0              33.349149      0.21461763    -66.181017      0            
        36  -32.741918     -32.741918      0              33.70327       0.23097319    -66.67616       0            
        37  -32.870111     -32.870111      0              34.052904      0.2513213     -67.174336      0            
        38  -33.004523     -33.004523      0              34.392682      0.27757717    -67.674782      0            
        39  -33.131935     -33.131935      0              34.671357      0.3085598     -68.111851      0            
        40  -33.247742     -33.247742      0              34.873666      0.34338548    -68.464794      0            
        41  -33.353582     -33.353582      0              35.007506      0.3823147     -68.743403      0            
        42  -33.450532     -33.450532      0              35.082164      0.42559778    -68.958293      0            
        43  -33.53923      -33.53923       0              35.107578      0.47347047    -69.120278      0            
        44  -33.619996     -33.619996      0              35.093709      0.52614846    -69.239853      0            
        45  -33.692938     -33.692938      0              35.05005       0.58381974    -69.326808      0            
        46  -33.758038     -33.758038      0              34.98528       0.64663247    -69.389951      0            
        47  -33.815222     -33.815222      0              34.907008      0.71467392    -69.436905      0            
        48  -33.864413     -33.864413      0              34.821602      0.7879297     -69.473945      0            
        49  -33.905585     -33.905585      0              34.734007      0.86619619    -69.505788      0            
        50  -33.938836     -33.938836      0              34.647503      0.94886841    -69.535207      0            
        51  -33.964554     -33.964554      0              34.563166      1.0343361     -69.562056      0            
        52  -33.983163     -33.983163      0              34.478367      1.1178152     -69.579346      0            
        53  -33.985292     -33.985292      0              34.468344      1.127623      -69.58126       0            
        54  -33.986885     -33.986885      0              34.442296      1.1525057     -69.581686      0            
        55  -33.997727     -33.997727      0              34.356686      1.2368074     -69.591221      0            
        56  -33.998048     -33.998048      0              34.356583      1.2360822     -69.590713      0            
        57  -33.998382     -33.998382      0              34.355804      1.2301279     -69.584314      0            
        58  -34.000765     -34.000765      0              34.353687      1.2163507     -69.570803      0            
        59  -34.016324     -34.016324      0              34.317157      1.0221689     -69.35565       0            
        60  -34.017537     -34.017537      0              34.31516       1.0230768     -69.355774      0            
        61  -34.018201     -34.018201      0              34.295425      1.0324541     -69.346081      0            
        62  -34.021203     -34.021203      0              34.270017      1.0445852     -69.335806      0            
        63  -34.028643     -34.028643      0              34.155119      1.1013118     -69.285073      0            
        64  -34.028783     -34.028783      0              34.154863      1.1014768     -69.285123      0            
        65  -34.032066     -34.032066      0              34.121722      1.1230167     -69.276805      0            
        66  -34.039153     -34.039153      0              34.083197      1.1474925     -69.269843      0            
        67  -34.039418     -34.039418      0              34.078423      1.1471234     -69.264964      0            
        68  -34.039854     -34.039854      0              33.990841      1.1401645     -69.170859      0            
        69  -34.041486     -34.041486      0              33.852419      1.1286968     -69.022602      0            
        70  -34.042985     -34.042985      0              33.539326      1.0995256     -68.681836      0            
        71  -34.044187     -34.044187      0              33.704096      1.087995      -68.836279      0            
        72  -34.046976     -34.046976      0              34.105979      1.0616369     -69.214591      0            
        73  -34.047298     -34.047298      0              34.166565      1.0570396     -69.270903      0            
        74  -34.047655     -34.047655      0              34.160107      1.0543585     -69.262121      0            
        75  -34.05592      -34.05592       0              33.929669      1.0183839     -69.003973      0            
        76  -34.058932     -34.058932      0              33.857637      1.0105254     -68.927095      0            
        77  -34.060256     -34.060256      0              33.791705      1.0050464     -68.857007      0            
        78  -34.061194     -34.061194      0              33.767087      1.0039781     -68.83226       0            
        79  -34.061993     -34.061993      0              33.738073      1.0035958     -68.803662      0            
        80  -34.062158     -34.062158      0              33.72605       1.0040846     -68.792293      0            
        81  -34.062385     -34.062385      0              33.703083      1.00536       -68.770828      0            
        82  -34.062581     -34.062581      0              33.676282      1.0073095     -68.746173      0            
        83  -34.062968     -34.062968      0              33.620495      1.0116882     -68.695151      0            
        84  -34.063486     -34.063486      0              33.547102      1.0182377     -68.628826      0            
        85  -34.064024     -34.064024      0              33.475204      1.0251495     -68.564377      0            
        86  -34.064487     -34.064487      0              33.430317      1.0309765     -68.52578       0            
        87  -34.064749     -34.064749      0              33.411709      1.0341359     -68.510593      0            
        88  -34.065147     -34.065147      0              33.415527      1.0379588     -68.518632      0            
        89  -34.065382     -34.065382      0              33.424378      1.0399476     -68.529708      0            
        90  -34.065976     -34.065976      0              33.472674      1.0436261     -68.582275      0            
        91  -34.066192     -34.066192      0              33.492353      1.0447019     -68.603246      0            
        92  -34.066566     -34.066566      0              33.529008      1.0456035     -68.641178      0            
        93  -34.066657     -34.066657      0              33.536593      1.0455362     -68.648787      0            
        94  -34.066902     -34.066902      0              33.550257      1.0442965     -68.661456      0            
        95  -34.067042     -34.067042      0              33.553092      1.0431002     -68.663234      0            
        96  -34.067872     -34.067872      0              33.553083      1.0346221     -68.655577      0            
        97  -34.068532     -34.068532      0              33.543622      1.0275716     -68.639726      0            
        98  -34.070936     -34.070936      0              33.491663      1.0019237     -68.564523      0            
        99  -34.071806     -34.071806      0              33.461512      0.99266909    -68.525988      0            
       100  -34.073032     -34.073032      0              33.407035      0.97981643    -68.459884      0            
       101  -34.073284     -34.073284      0              33.384723      0.97710203    -68.43511       0            
       102  -34.073573     -34.073573      0              33.349426      0.97393739    -68.396936      0            
       103  -34.073674     -34.073674      0              33.326651      0.97282516    -68.37315       0            
       104  -34.0738       -34.0738        0              33.291946      0.97142655    -68.337172      0            
       105  -34.07386      -34.07386       0              33.270401      0.97075924    -68.31502       0            
       106  -34.073915     -34.073915      0              33.248782      0.97013432    -68.292831      0            
       107  -34.073936     -34.073936      0              33.238133      0.96980628    -68.281875      0            
       108  -34.073951     -34.073951      0              33.230178      0.96954016    -68.273669      0            
       109  -34.073959     -34.073959      0              33.225388      0.96927886    -68.268625      0            
       110  -34.073965     -34.073965      0              33.221743      0.96903431    -68.264742      0            
       111  -34.073973     -34.073973      0              33.217125      0.96847556    -68.259574      0            
       112  -34.073982     -34.073982      0              33.213133      0.96789282    -68.255007      0            
       113  -34.074005     -34.074005      0              33.204894      0.96601279    -68.244912      0            
       114  -34.074023     -34.074023      0              33.199348      0.96451164    -68.237883      0            
       115  -34.074064     -34.074064      0              33.19135       0.96097207    -68.226387      0            
       116  -34.074082     -34.074082      0              33.188855      0.95934774    -68.222285      0            
       117  -34.074116     -34.074116      0              33.188744      0.95622429    -68.219084      0            
       118  -34.074128     -34.074128      0              33.18967       0.95533885    -68.219136      0            
       119  -34.074145     -34.074145      0              33.19413       0.95429078    -68.222566      0            
       120  -34.074149     -34.074149      0              33.194804      0.95433597    -68.22329       0            
       121  -34.074153     -34.074153      0              33.197124      0.95449744    -68.225774      0            
       122  -34.074166     -34.074166      0              33.210637      0.95553132    -68.240334      0            
       123  -34.074182     -34.074182      0              33.226014      0.95678269    -68.256979      0            
       124  -34.074192     -34.074192      0              33.234123      0.95777272    -68.266088      0            
       125  -34.074194     -34.074194      0              33.233924      0.9580074     -68.266125      0            
       126  -34.07421      -34.07421       0              33.219003      0.9603999     -68.253613      0            
       127  -34.07422      -34.07422       0              33.207518      0.96197672    -68.243715      0            
       128  -34.074231     -34.074231      0              33.195256      0.96354558    -68.233033      0            
       129  -34.074232     -34.074232      0              33.193819      0.96362281    -68.231674      0            
       130  -34.074234     -34.074234      0              33.191774      0.9636596     -68.229667      0            
       131  -34.074251     -34.074251      0              33.170449      0.96310426    -68.207804      0            
       132  -34.074277     -34.074277      0              33.140986      0.9622239     -68.177487      0            
       133  -34.074317     -34.074317      0              33.101541      0.96057994    -68.136438      0            
       134  -34.074325     -34.074325      0              33.097683      0.96016481    -68.132173      0            
       135  -34.074368     -34.074368      0              33.098306      0.95738177    -68.130056      0            
       136  -34.074422     -34.074422      0              33.108778      0.95364176    -68.136842      0            
       137  -34.074471     -34.074471      0              33.120257      0.95016326    -68.144891      0            
       138  -34.074475     -34.074475      0              33.12188       0.94984556    -68.1462        0            
       139  -34.074476     -34.074476      0              33.122488      0.94975499    -68.146719      0            
       140  -34.074476     -34.074476      0              33.12449       0.94956383    -68.148529      0            
       141  -34.074476     -34.074476      0              33.12666       0.94935187    -68.150488      0            
       142  -34.074478     -34.074478      0              33.133504      0.9486429     -68.156625      0            
       143  -34.074478     -34.074478      0              33.134115      0.94853673    -68.157129      0            
       144  -34.074478     -34.074478      0              33.134686      0.94832222    -68.157486      0            
       145  -34.074479     -34.074479      0              33.134096      0.94793108    -68.156506      0            
       146  -34.074479     -34.074479      0              33.133094      0.94746292    -68.155036      0            
       147  -34.074479     -34.074479      0              33.132254      0.94727094    -68.154004      0            
       148  -34.074479     -34.074479      0              33.132028      0.94724282    -68.15375       0            
       149  -34.074479     -34.074479      0              33.131364      0.94722917    -68.153073      0            
       150  -34.074479     -34.074479      0              33.130949      0.94722721    -68.152655      0            
       151  -34.074479     -34.074479      0              33.129732      0.9472299     -68.151441      0            
       152  -34.074479     -34.074479      0              33.129569      0.94723275    -68.151281      0            
       153  -34.074479     -34.074479      0              33.129408      0.94723807    -68.151125      0            
       154  -34.074479     -34.074479      0              33.129157      0.94726107    -68.150898      0            
       155  -34.074479     -34.074479      0              33.128703      0.94730741    -68.15049       0            
       156  -34.074479     -34.074479      0              33.127902      0.94740845    -68.14979       0            
       157  -34.074479     -34.074479      0              33.127812      0.94742678    -68.149718      0            
       158  -34.074479     -34.074479      0              33.12792       0.94746878    -68.149868      0            
       159  -34.074479     -34.074479      0              33.128117      0.94749958    -68.150096      0            
       160  -34.07448      -34.07448       0              33.128767      0.94757568    -68.150822      0            
       161  -34.07448      -34.07448       0              33.128846      0.94758137    -68.150907      0            
       162  -34.07448      -34.07448       0              33.128944      0.94758432    -68.151007      0            
       163  -34.07448      -34.07448       0              33.128981      0.94758376    -68.151044      0            
       164  -34.07448      -34.07448       0              33.129029      0.94758229    -68.151091      0            
       165  -34.07448      -34.07448       0              33.129079      0.94757899    -68.151137      0            
       166  -34.07448      -34.07448       0              33.129115      0.94757337    -68.151168      0            
       167  -34.07448      -34.07448       0              33.129227      0.94754957    -68.151256      0            
       168  -34.07448      -34.07448       0              33.129724      0.94743314    -68.151637      0            
       169  -34.07448      -34.07448       0              33.13009       0.94733787    -68.151908      0            
       170  -34.07448      -34.07448       0              33.130125      0.94731557    -68.15192       0            
       171  -34.07448      -34.07448       0              33.129911      0.947294      -68.151685      0            
       172  -34.07448      -34.07448       0              33.129588      0.94727097    -68.151339      0            
       173  -34.07448      -34.07448       0              33.128722      0.9472194     -68.150421      0            
       174  -34.07448      -34.07448       0              33.128604      0.94721304    -68.150296      0            
       175  -34.07448      -34.07448       0              33.128479      0.94720713    -68.150166      0            
       176  -34.07448      -34.07448       0              33.127841      0.9471779     -68.149498      0            
       177  -34.07448      -34.07448       0              33.127818      0.94717585    -68.149473      0            
       178  -34.07448      -34.07448       0              33.127906      0.94717299    -68.149559      0            
       179  -34.07448      -34.07448       0              33.128112      0.94717009    -68.149762      0            
       180  -34.07448      -34.07448       0              33.12813       0.94717092    -68.149781      0            
       181  -34.07448      -34.07448       0              33.128161      0.94717239    -68.149813      0            
       182  -34.07448      -34.07448       0              33.128196      0.94717422    -68.14985       0            
       183  -34.07448      -34.07448       0              33.12836       0.94718303    -68.150022      0            
       184  -34.07448      -34.07448       0              33.128552      0.94719368    -68.150225      0            
       185  -34.07448      -34.07448       0              33.12856       0.94719498    -68.150234      0            
       186  -34.07448      -34.07448       0              33.128563      0.94719672    -68.150239      0            
       187  -34.07448      -34.07448       0              33.128561      0.94719745    -68.150238      0            
       188  -34.07448      -34.07448       0              33.128556      0.94719905    -68.150235      0            
       189  -34.07448      -34.07448       0              33.128547      0.94720196    -68.150229      0            
       190  -34.07448      -34.07448       0              33.128531      0.9472074     -68.150218      0            
       191  -34.07448      -34.07448       0              33.12831       0.94728407    -68.150074      0            
       192  -34.07448      -34.07448       0              33.12821       0.94732028    -68.15001       0            
       193  -34.07448      -34.07448       0              33.128205      0.94732241    -68.150008      0            
       194  -34.07448      -34.07448       0              33.128208      0.94732211    -68.150009      0            
       195  -34.07448      -34.07448       0              33.128636      0.9472638     -68.15038       0            
       196  -34.07448      -34.07448       0              33.12874       0.94724767    -68.150467      0            
       197  -34.07448      -34.07448       0              33.128778      0.94723913    -68.150497      0            
       198  -34.07448      -34.07448       0              33.128803      0.94722707    -68.15051       0            
       199  -34.07448      -34.07448       0              33.128816      0.94721773    -68.150513      0            
       200  -34.07448      -34.07448       0              33.128791      0.94721833    -68.150489      0            
       201  -34.07448      -34.07448       0              33.128744      0.94721946    -68.150443      0            
       202  -34.07448      -34.07448       0              33.128719      0.94722007    -68.150419      0            
       203  -34.07448      -34.07448       0              33.128706      0.94722042    -68.150406      0            
       204  -34.07448      -34.07448       0              33.128518      0.94722521    -68.150223      0            
       205  -34.07448      -34.07448       0              33.12815       0.94723474    -68.149865      0            
       206  -34.07448      -34.07448       0              33.128133      0.94723544    -68.149849      0            
       207  -34.07448      -34.07448       0              33.128132      0.9472358     -68.149847      0            
       208  -34.07448      -34.07448       0              33.128136      0.94723589    -68.149852      0            
       209  -34.07448      -34.07448       0              33.128141      0.94723599    -68.149857      0            
       210  -34.07448      -34.07448       0              33.128146      0.9472361     -68.149861      0            
       211  -34.07448      -34.07448       0              33.128151      0.94723623    -68.149867      0            
       212  -34.07448      -34.07448       0              33.128153      0.9472363     -68.149869      0            
       213  -34.07448      -34.07448       0              33.128158      0.94723643    -68.149874      0            
       214  -34.07448      -34.07448       0              33.12816       0.94723652    -68.149877      0            
       215  -34.07448      -34.07448       0              33.128164      0.94723664    -68.14988       0            
       216  -34.07448      -34.07448       0              33.128168      0.94723677    -68.149884      0            
       217  -34.07448      -34.07448       0              33.128169      0.94723683    -68.149885      0            
       218  -34.07448      -34.07448       0              33.128553      0.94725328    -68.150285      0            
       219  -34.07448      -34.07448       0              33.128594      0.94725645    -68.150331      0            
       220  -34.07448      -34.07448       0              33.128599      0.94725907    -68.150338      0            
       221  -34.07448      -34.07448       0              33.128536      0.94726178    -68.150277      0            
       222  -34.07448      -34.07448       0              33.128443      0.94726496    -68.150188      0            
       223  -34.07448      -34.07448       0              33.128369      0.94726667    -68.150115      0            
       224  -34.07448      -34.07448       0              33.128274      0.94726793    -68.150022      0            
       225  -34.07448      -34.07448       0              33.128235      0.94726796    -68.149983      0            
       226  -34.07448      -34.07448       0              33.128211      0.9472678     -68.149959      0            
       227  -34.07448      -34.07448       0              33.128206      0.9472676     -68.149953      0            
       228  -34.07448      -34.07448       0              33.128196      0.94726725    -68.149943      0            
       229  -34.07448      -34.07448       0              33.128186      0.94726689    -68.149932      0            
       230  -34.07448      -34.07448       0              33.128182      0.94726675    -68.149929      0            
       231  -34.07448      -34.07448       0              33.128165      0.94726605    -68.14991       0            
       232  -34.07448      -34.07448       0              33.128157      0.94726575    -68.149903      0            
       233  -34.07448      -34.07448       0              33.128153      0.94726554    -68.149898      0            
       234  -34.07448      -34.07448       0              33.128148      0.94726527    -68.149893      0            
       235  -34.07448      -34.07448       0              33.128141      0.94726492    -68.149885      0            
       236  -34.07448      -34.07448       0              33.128129      0.9472643     -68.149873      0            
       237  -34.07448      -34.07448       0              33.128114      0.94726347    -68.149857      0            
       238  -34.07448      -34.07448       0              33.128109      0.94726317    -68.149852      0            
       239  -34.07448      -34.07448       0              33.128103      0.94726274    -68.149845      0            
       240  -34.07448      -34.07448       0              33.128099      0.94726244    -68.149841      0            
       241  -34.07448      -34.07448       0              33.128094      0.94726202    -68.149835      0            
       242  -34.07448      -34.07448       0              33.128087      0.94726151    -68.149828      0            
       243  -34.07448      -34.07448       0              33.128085      0.94726131    -68.149826      0            
       244  -34.07448      -34.07448       0              33.128045      0.94725769    -68.149782      0            
       245  -34.07448      -34.07448       0              33.127995      0.94725295    -68.149728      0            
       246  -34.07448      -34.07448       0              33.127953      0.94724873    -68.149682      0            
       247  -34.07448      -34.07448       0              33.127943      0.94724725    -68.14967       0            
       248  -34.07448      -34.07448       0              33.127938      0.94724591    -68.149664      0            
       249  -34.07448      -34.07448       0              33.127939      0.9472453     -68.149664      0            
       250  -34.07448      -34.07448       0              33.127941      0.94724509    -68.149665      0            
       251  -34.07448      -34.07448       0              33.127941      0.94724504    -68.149666      0            
       252  -34.07448      -34.07448       0              33.127945      0.94724461    -68.149669      0            
       253  -34.07448      -34.07448       0              33.127947      0.94724443    -68.149671      0            
       254  -34.07448      -34.07448       0              33.127949      0.94724416    -68.149673      0            
       255  -34.07448      -34.07448       0              33.127952      0.94724387    -68.149675      0            
       256  -34.07448      -34.07448       0              33.127954      0.94724362    -68.149677      0            
       257  -34.07448      -34.07448       0              33.127955      0.94724341    -68.149678      0            
       258  -34.07448      -34.07448       0              33.127956      0.94724326    -68.149679      0            
       259  -34.07448      -34.07448       0              33.127971      0.94724122    -68.149692      0            
       260  -34.07448      -34.07448       0              33.127982      0.94723969    -68.149702      0            
       261  -34.07448      -34.07448       0              33.127983      0.94723956    -68.149702      0            
       262  -34.07448      -34.07448       0              33.128007      0.94723113    -68.149718      0            
       263  -34.07448      -34.07448       0              33.128275      0.94713641    -68.149891      0            
       264  -34.07448      -34.07448       0              33.128269      0.94712915    -68.149878      0            
       265  -34.07448      -34.07448       0              33.128247      0.94712722    -68.149854      0            
       266  -34.07448      -34.07448       0              33.128232      0.94712791    -68.14984       0            
       267  -34.07448      -34.07448       0              33.128212      0.9471289     -68.14982       0            
       268  -34.07448      -34.07448       0              33.128202      0.94712935    -68.149812      0            
       269  -34.07448      -34.07448       0              33.128136      0.94713272    -68.149748      0            
       270  -34.07448      -34.07448       0              33.128121      0.94713352    -68.149734      0            
       271  -34.07448      -34.07448       0              33.128111      0.94713411    -68.149725      0            
       272  -34.07448      -34.07448       0              33.128102      0.94713465    -68.149717      0            
       273  -34.07448      -34.07448       0              33.128096      0.94713503    -68.149711      0            
       274  -34.07448      -34.07448       0              33.128045      0.94713828    -68.149663      0            
       275  -34.07448      -34.07448       0              33.128032      0.9471392     -68.149651      0            
       276  -34.07448      -34.07448       0              33.128025      0.94713971    -68.149645      0            
       277  -34.07448      -34.07448       0              33.128017      0.94714036    -68.149637      0            
       278  -34.07448      -34.07448       0              33.128013      0.94714067    -68.149634      0            
       279  -34.07448      -34.07448       0              33.127996      0.94714209    -68.149618      0            
       280  -34.07448      -34.07448       0              33.127992      0.9471425     -68.149614      0            
       281  -34.07448      -34.07448       0              33.127983      0.94714331    -68.149606      0            
       282  -34.07448      -34.07448       0              33.127974      0.94714419    -68.149598      0            
       283  -34.07448      -34.07448       0              33.127971      0.94714445    -68.149596      0            
       284  -34.07448      -34.07448       0              33.127875      0.94715453    -68.149509      0            
       285  -34.07448      -34.07448       0              33.127691      0.94717429    -68.149345      0            
       286  -34.07448      -34.07448       0              33.127672      0.94717672    -68.149328      0            
       287  -34.07448      -34.07448       0              33.127676      0.9471767     -68.149333      0            
       288  -34.07448      -34.07448       0              33.127683      0.94717669    -68.149339      0            
       289  -34.07448      -34.07448       0              33.127689      0.94717667    -68.149346      0            
       290  -34.07448      -34.07448       0              33.127695      0.94717665    -68.149352      0            
       291  -34.07448      -34.07448       0              33.127702      0.94717664    -68.149358      0            
       292  -34.07448      -34.07448       0              33.127706      0.94717663    -68.149362      0            
       293  -34.07448      -34.07448       0              33.127711      0.94717663    -68.149367      0            
       294  -34.07448      -34.07448       0              33.127717      0.94717662    -68.149373      0            
       295  -34.07448      -34.07448       0              33.127723      0.94717662    -68.149379      0            
       296  -34.07448      -34.07448       0              33.12773       0.94717662    -68.149387      0            
       297  -34.07448      -34.07448       0              33.127733      0.94717662    -68.149389      0            
       298  -34.07448      -34.07448       0              33.127762      0.94717667    -68.149419      0            
       299  -34.07448      -34.07448       0              33.127773      0.94717669    -68.149429      0            
       300  -34.07448      -34.07448       0              33.127774      0.94717671    -68.14943       0            
       301  -34.07448      -34.07448       0              33.127775      0.94717672    -68.149432      0            
       302  -34.07448      -34.07448       0              33.127783      0.94717681    -68.149439      0            
       303  -34.07448      -34.07448       0              33.127788      0.94717687    -68.149445      0            
       304  -34.07448      -34.07448       0              33.127795      0.94717696    -68.149452      0            
       305  -34.07448      -34.07448       0              33.127796      0.94717698    -68.149453      0            
       306  -34.07448      -34.07448       0              33.1279        0.94717977    -68.14956       0            
       307  -34.07448      -34.07448       0              33.127936      0.94718093    -68.149596      0            
       308  -34.07448      -34.07448       0              33.127944      0.94718125    -68.149605      0            
       309  -34.07448      -34.07448       0              33.12794       0.94718139    -68.149601      0            
       310  -34.07448      -34.07448       0              33.127933      0.94718144    -68.149595      0            
       311  -34.07448      -34.07448       0              33.127925      0.9471815     -68.149586      0            
       312  -34.07448      -34.07448       0              33.127921      0.94718152    -68.149583      0            
       313  -34.07448      -34.07448       0              33.127914      0.94718155    -68.149575      0            
       314  -34.07448      -34.07448       0              33.127909      0.94718156    -68.149571      0            
       315  -34.07448      -34.07448       0              33.127905      0.94718158    -68.149566      0            
       316  -34.07448      -34.07448       0              33.127897      0.9471816     -68.149559      0            
       317  -34.07448      -34.07448       0              33.127891      0.94718162    -68.149552      0            
       318  -34.07448      -34.07448       0              33.127887      0.94718162    -68.149548      0            
       319  -34.07448      -34.07448       0              33.127881      0.94718163    -68.149543      0            
       320  -34.07448      -34.07448       0              33.127878      0.94718163    -68.149539      0            
       321  -34.07448      -34.07448       0              33.127874      0.94718163    -68.149535      0            
       322  -34.07448      -34.07448       0              33.127867      0.94718163    -68.149529      0            
       323  -34.07448      -34.07448       0              33.127865      0.94718163    -68.149527      0            
       324  -34.07448      -34.07448       0              33.127861      0.94718162    -68.149522      0            
       325  -34.07448      -34.07448       0              33.127856      0.94718161    -68.149517      0            
       326  -34.07448      -34.07448       0              33.127852      0.9471816     -68.149514      0            
       327  -34.07448      -34.07448       0              33.127848      0.94718158    -68.149509      0            
       328  -34.07448      -34.07448       0              33.127842      0.94718155    -68.149503      0            
       329  -34.07448      -34.07448       0              33.12784       0.94718154    -68.149501      0            
       330  -34.07448      -34.07448       0              33.12772       0.94718065    -68.14938       0            
       331  -34.07448      -34.07448       0              33.127676      0.94718023    -68.149336      0            
       332  -34.07448      -34.07448       0              33.127679      0.94718015    -68.149339      0            
       333  -34.07448      -34.07448       0              33.127683      0.94718004    -68.149343      0            
       334  -34.07448      -34.07448       0              33.127684      0.94718002    -68.149344      0            
       335  -34.07448      -34.07448       0              33.127692      0.94717981    -68.149351      0            
       336  -34.07448      -34.07448       0              33.127695      0.94717972    -68.149354      0            
       337  -34.07448      -34.07448       0              33.1277        0.94717956    -68.149359      0            
       338  -34.07448      -34.07448       0              33.127702      0.94717948    -68.149362      0            
       339  -34.07448      -34.07448       0              33.127705      0.94717939    -68.149365      0            
       340  -34.07448      -34.07448       0              33.12771       0.94717924    -68.149369      0            
       341  -34.07448      -34.07448       0              33.127712      0.94717919    -68.14937       0            
       342  -34.07448      -34.07448       0              33.127917      0.9471719     -68.149569      0            
       343  -34.07448      -34.07448       0              33.127926      0.94717139    -68.149577      0            
       344  -34.07448      -34.07448       0              33.127918      0.94717146    -68.149569      0            
       345  -34.07448      -34.07448       0              33.127907      0.94717155    -68.149558      0            
       346  -34.07448      -34.07448       0              33.127906      0.94717156    -68.149558      0            
       347  -34.07448      -34.07448       0              33.127902      0.9471716     -68.149553      0            
       348  -34.07448      -34.07448       0              33.127888      0.94717172    -68.14954       0            
       349  -34.07448      -34.07448       0              33.127873      0.94717185    -68.149525      0            
       350  -34.07448      -34.07448       0              33.127866      0.94717191    -68.149518      0            
       351  -34.07448      -34.07448       0              33.127857      0.94717199    -68.149508      0            
       352  -34.07448      -34.07448       0              33.127854      0.94717201    -68.149505      0            
       353  -34.07448      -34.07448       0              33.127837      0.94717211    -68.149489      0            
       354  -34.07448      -34.07448       0              33.127824      0.9471722     -68.149476      0            
       355  -34.07448      -34.07448       0              33.12782       0.94717222    -68.149471      0            
       356  -34.07448      -34.07448       0              33.127814      0.94717225    -68.149466      0            
       357  -34.07448      -34.07448       0              33.127812      0.94717225    -68.149464      0            
       358  -34.07448      -34.07448       0              33.127804      0.94717227    -68.149456      0            
       359  -34.07448      -34.07448       0              33.127798      0.94717228    -68.14945       0            
       360  -34.07448      -34.07448       0              33.127796      0.94717228    -68.149448      0            
       361  -34.07448      -34.07448       0              33.127794      0.94717228    -68.149446      0            
       362  -34.07448      -34.07448       0              33.12779       0.94717227    -68.149442      0            
       363  -34.07448      -34.07448       0              33.127787      0.94717227    -68.149439      0            
       364  -34.07448      -34.07448       0              33.127786      0.94717226    -68.149438      0            
       365  -34.07448      -34.07448       0              33.127783      0.94717225    -68.149435      0            
       366  -34.07448      -34.07448       0              33.127781      0.94717225    -68.149433      0            
       367  -34.07448      -34.07448       0              33.127779      0.94717223    -68.149431      0            
       368  -34.07448      -34.07448       0              33.127776      0.94717222    -68.149428      0            
       369  -34.07448      -34.07448       0              33.127772      0.94717219    -68.149424      0            
       370  -34.07448      -34.07448       0              33.127771      0.94717218    -68.149423      0            
       371  -34.07448      -34.07448       0              33.127765      0.94717212    -68.149417      0            
       372  -34.07448      -34.07448       0              33.127764      0.9471721     -68.149416      0            
       373  -34.07448      -34.07448       0              33.127762      0.94717207    -68.149414      0            
       374  -34.07448      -34.07448       0              33.12776       0.94717203    -68.149412      0            
       375  -34.07448      -34.07448       0              33.127757      0.94717198    -68.149408      0            
       376  -34.07448      -34.07448       0              33.127756      0.94717196    -68.149408      0            
       377  -34.07448      -34.07448       0              33.127754      0.94717191    -68.149406      0            
       378  -34.07448      -34.07448       0              33.127752      0.94717187    -68.149404      0            
       379  -34.07448      -34.07448       0              33.12775       0.94717181    -68.149402      0            
       380  -34.07448      -34.07448       0              33.127747      0.94717173    -68.149399      0            
       381  -34.07448      -34.07448       0              33.127747      0.94717171    -68.149398      0            
       382  -34.07448      -34.07448       0              33.127738      0.94717131    -68.149389      0            
       383  -34.07448      -34.07448       0              33.127736      0.94717119    -68.149387      0            
       384  -34.07448      -34.07448       0              33.127735      0.9471711     -68.149385      0            
       385  -34.07448      -34.07448       0              33.127734      0.94717108    -68.149385      0            
       386  -34.07448      -34.07448       0              33.127717      0.94716859    -68.149366      0            
       387  -34.07448      -34.07448       0              33.127707      0.94716705    -68.149354      0            
       388  -34.07448      -34.07448       0              33.127707      0.94716703    -68.149354      0            
       389  -34.07448      -34.07448       0              33.127707      0.947167      -68.149354      0            
       390  -34.07448      -34.07448       0              33.127707      0.94716697    -68.149354      0            
       391  -34.07448      -34.07448       0              33.127707      0.94716694    -68.149354      0            
       392  -34.07448      -34.07448       0              33.127707      0.94716689    -68.149353      0            
       393  -34.07448      -34.07448       0              33.127707      0.94716688    -68.149353      0            
       394  -34.07448      -34.07448       0              33.127707      0.94716684    -68.149353      0            
       395  -34.07448      -34.07448       0              33.127707      0.94716681    -68.149353      0            
       396  -34.07448      -34.07448       0              33.127707      0.94716678    -68.149353      0            
       397  -34.07448      -34.07448       0              33.127707      0.94716675    -68.149353      0            
       398  -34.07448      -34.07448       0              33.127707      0.94716669    -68.149353      0            
       399  -34.07448      -34.07448       0              33.127707      0.94716665    -68.149353      0            
       400  -34.07448      -34.07448       0              33.127707      0.94716663    -68.149353      0            
       401  -34.07448      -34.07448       0              33.127707      0.94716661    -68.149353      0            
       402  -34.07448      -34.07448       0              33.127707      0.94716658    -68.149353      0            
       403  -34.07448      -34.07448       0              33.127706      0.94716654    -68.149353      0            
       404  -34.07448      -34.07448       0              33.127706      0.94716649    -68.149352      0            
       405  -34.07448      -34.07448       0              33.127706      0.94716644    -68.149352      0            
       406  -34.07448      -34.07448       0              33.127706      0.94716638    -68.149352      0            
       407  -34.07448      -34.07448       0              33.127706      0.94716627    -68.149352      0            
       408  -34.07448      -34.07448       0              33.127706      0.94716626    -68.149352      0            
       409  -34.07448      -34.07448       0              33.127632      0.94714472    -68.149257      0            
       410  -34.07448      -34.07448       0              33.127595      0.94713455    -68.14921       0            
       411  -34.07448      -34.07448       0              33.127577      0.9471306     -68.149187      0            
       412  -34.07448      -34.07448       0              33.127575      0.94713007    -68.149184      0            
       413  -34.07448      -34.07448       0              33.127569      0.94712962    -68.149178      0            
       414  -34.07448      -34.07448       0              33.127566      0.94712956    -68.149175      0            
       415  -34.07448      -34.07448       0              33.127564      0.94712957    -68.149173      0            
       416  -34.07448      -34.07448       0              33.127562      0.94712959    -68.149171      0            
       417  -34.07448      -34.07448       0              33.12756       0.9471296     -68.149169      0            
       418  -34.07448      -34.07448       0              33.127557      0.94712962    -68.149167      0            
       419  -34.07448      -34.07448       0              33.127555      0.94712964    -68.149164      0            
       420  -34.07448      -34.07448       0              33.127553      0.94712965    -68.149162      0            
       421  -34.07448      -34.07448       0              33.127551      0.94712966    -68.149161      0            
       422  -34.07448      -34.07448       0              33.127549      0.94712967    -68.149159      0            
       423  -34.07448      -34.07448       0              33.127548      0.94712968    -68.149157      0            
       424  -34.07448      -34.07448       0              33.127545      0.94712969    -68.149155      0            
       425  -34.07448      -34.07448       0              33.127544      0.9471297     -68.149153      0            
       426  -34.07448      -34.07448       0              33.127543      0.9471297     -68.149152      0            
       427  -34.07448      -34.07448       0              33.127542      0.9471297     -68.149151      0            
       428  -34.07448      -34.07448       0              33.12754       0.94712971    -68.14915       0            
       429  -34.07448      -34.07448       0              33.127539      0.94712971    -68.149148      0            
       430  -34.07448      -34.07448       0              33.127537      0.94712972    -68.149146      0            
       431  -34.07448      -34.07448       0              33.127536      0.94712972    -68.149145      0            
       432  -34.07448      -34.07448       0              33.127535      0.94712972    -68.149144      0            
       433  -34.07448      -34.07448       0              33.127534      0.94712972    -68.149143      0            
       434  -34.07448      -34.07448       0              33.127532      0.94712972    -68.149141      0            
       435  -34.07448      -34.07448       0              33.127529      0.94712972    -68.149139      0            
       436  -34.07448      -34.07448       0              33.127529      0.94712972    -68.149138      0            
       437  -34.07448      -34.07448       0              33.127528      0.94712972    -68.149138      0            
       438  -34.07448      -34.07448       0              33.127528      0.94712972    -68.149137      0            
       439  -34.07448      -34.07448       0              33.127527      0.94712971    -68.149137      0            
       440  -34.07448      -34.07448       0              33.127526      0.94712971    -68.149136      0            
       441  -34.07448      -34.07448       0              33.127525      0.9471297     -68.149134      0            
       442  -34.07448      -34.07448       0              33.127524      0.9471297     -68.149134      0            
       443  -34.07448      -34.07448       0              33.127524      0.9471297     -68.149133      0            
       444  -34.07448      -34.07448       0              33.127523      0.94712969    -68.149133      0            
       445  -34.07448      -34.07448       0              33.127522      0.94712969    -68.149132      0            
       446  -34.07448      -34.07448       0              33.127522      0.94712969    -68.149132      0            
       447  -34.07448      -34.07448       0              33.127522      0.94712968    -68.149131      0            
       448  -34.07448      -34.07448       0              33.127521      0.94712968    -68.149131      0            
       449  -34.07448      -34.07448       0              33.127521      0.94712967    -68.14913       0            
       450  -34.07448      -34.07448       0              33.12752       0.94712967    -68.14913       0            
       451  -34.07448      -34.07448       0              33.12752       0.94712966    -68.149129      0            
       452  -34.07448      -34.07448       0              33.12752       0.94712966    -68.149129      0            
       453  -34.07448      -34.07448       0              33.127519      0.94712965    -68.149128      0            
       454  -34.07448      -34.07448       0              33.127519      0.94712964    -68.149128      0            
       455  -34.07448      -34.07448       0              33.127518      0.94712964    -68.149128      0            
       456  -34.07448      -34.07448       0              33.127518      0.94712963    -68.149127      0            
       457  -34.07448      -34.07448       0              33.127518      0.94712963    -68.149127      0            
       458  -34.07448      -34.07448       0              33.127517      0.94712962    -68.149126      0            
       459  -34.07448      -34.07448       0              33.127517      0.94712961    -68.149126      0            
       460  -34.07448      -34.07448       0              33.127516      0.9471296     -68.149126      0            
       461  -34.07448      -34.07448       0              33.127516      0.9471296     -68.149125      0            
       462  -34.07448      -34.07448       0              33.127516      0.94712959    -68.149125      0            
       463  -34.07448      -34.07448       0              33.127515      0.94712958    -68.149125      0            
       464  -34.07448      -34.07448       0              33.127515      0.94712958    -68.149124      0            
       465  -34.07448      -34.07448       0              33.127515      0.94712957    -68.149124      0            
       466  -34.07448      -34.07448       0              33.127514      0.94712956    -68.149124      0            
       467  -34.07448      -34.07448       0              33.127514      0.94712955    -68.149123      0            
       468  -34.07448      -34.07448       0              33.127514      0.94712954    -68.149123      0            
       469  -34.07448      -34.07448       0              33.127513      0.94712953    -68.149123      0            
       470  -34.07448      -34.07448       0              33.127513      0.94712952    -68.149122      0            
       471  -34.07448      -34.07448       0              33.127513      0.9471295     -68.149122      0            
       472  -34.07448      -34.07448       0              33.127512      0.9471295     -68.149121      0            
       473  -34.07448      -34.07448       0              33.127512      0.94712949    -68.149121      0            
       474  -34.07448      -34.07448       0              33.127512      0.94712948    -68.149121      0            
       475  -34.07448      -34.07448       0              33.127512      0.94712947    -68.149121      0            
       476  -34.07448      -34.07448       0              33.127511      0.94712946    -68.14912       0            
       477  -34.07448      -34.07448       0              33.127511      0.94712944    -68.14912       0            
       478  -34.07448      -34.07448       0              33.127511      0.94712944    -68.14912       0            
       479  -34.07448      -34.07448       0              33.127511      0.94712943    -68.14912       0            
       480  -34.07448      -34.07448       0              33.12751       0.94712942    -68.149119      0            
       481  -34.07448      -34.07448       0              33.12751       0.94712941    -68.149119      0            
       482  -34.07448      -34.07448       0              33.12751       0.94712939    -68.149119      0            
       483  -34.07448      -34.07448       0              33.12751       0.94712938    -68.149119      0            
       484  -34.07448      -34.07448       0              33.127509      0.94712936    -68.149118      0            
       485  -34.07448      -34.07448       0              33.127509      0.94712935    -68.149118      0            
       486  -34.07448      -34.07448       0              33.127509      0.94712935    -68.149118      0            
       487  -34.07448      -34.07448       0              33.127509      0.94712934    -68.149118      0            
       488  -34.07448      -34.07448       0              33.127509      0.94712932    -68.149118      0            
       489  -34.07448      -34.07448       0              33.127508      0.9471293     -68.149117      0            
       490  -34.07448      -34.07448       0              33.127508      0.94712929    -68.149117      0            
       491  -34.07448      -34.07448       0              33.127508      0.94712929    -68.149117      0            
       492  -34.07448      -34.07448       0              33.127508      0.94712928    -68.149117      0            
       493  -34.07448      -34.07448       0              33.127508      0.94712927    -68.149117      0            
       494  -34.07448      -34.07448       0              33.127508      0.94712926    -68.149117      0            
       495  -34.07448      -34.07448       0              33.127507      0.94712924    -68.149116      0            
       496  -34.07448      -34.07448       0              33.127507      0.94712923    -68.149116      0            
       497  -34.07448      -34.07448       0              33.127507      0.94712921    -68.149116      0            
       498  -34.07448      -34.07448       0              33.127507      0.9471292     -68.149116      0            
       499  -34.07448      -34.07448       0              33.127507      0.94712919    -68.149116      0            
       500  -34.07448      -34.07448       0              33.127507      0.94712918    -68.149115      0            
       501  -34.07448      -34.07448       0              33.127506      0.94712916    -68.149115      0            
       502  -34.07448      -34.07448       0              33.127506      0.94712914    -68.149115      0            
       503  -34.07448      -34.07448       0              33.127506      0.94712913    -68.149115      0            
       504  -34.07448      -34.07448       0              33.127506      0.94712912    -68.149115      0            
       505  -34.07448      -34.07448       0              33.127506      0.94712911    -68.149115      0            
       506  -34.07448      -34.07448       0              33.127506      0.9471291     -68.149114      0            
       507  -34.07448      -34.07448       0              33.127506      0.94712909    -68.149114      0            
       508  -34.07448      -34.07448       0              33.127505      0.94712907    -68.149114      0            
       509  -34.07448      -34.07448       0              33.127505      0.94712906    -68.149114      0            
       510  -34.07448      -34.07448       0              33.127505      0.94712905    -68.149114      0            
       511  -34.07448      -34.07448       0              33.127505      0.94712903    -68.149114      0            
       512  -34.07448      -34.07448       0              33.127505      0.94712902    -68.149114      0            
       513  -34.07448      -34.07448       0              33.127505      0.947129      -68.149113      0            
       514  -34.07448      -34.07448       0              33.127505      0.94712899    -68.149113      0            
       515  -34.07448      -34.07448       0              33.127505      0.94712898    -68.149113      0            
       516  -34.07448      -34.07448       0              33.127504      0.94712897    -68.149113      0            
       517  -34.07448      -34.07448       0              33.127504      0.94712896    -68.149113      0            
       518  -34.07448      -34.07448       0              33.127504      0.94712895    -68.149113      0            
       519  -34.07448      -34.07448       0              33.127504      0.94712893    -68.149113      0            
       520  -34.07448      -34.07448       0              33.127504      0.94712891    -68.149113      0            
       521  -34.07448      -34.07448       0              33.127504      0.9471289     -68.149112      0            
       522  -34.07448      -34.07448       0              33.127504      0.94712888    -68.149112      0            
       523  -34.07448      -34.07448       0              33.127504      0.94712887    -68.149112      0            
       524  -34.07448      -34.07448       0              33.127504      0.94712885    -68.149112      0            
       525  -34.07448      -34.07448       0              33.127503      0.94712884    -68.149112      0            
       526  -34.07448      -34.07448       0              33.127503      0.94712883    -68.149112      0            
       527  -34.07448      -34.07448       0              33.127503      0.94712881    -68.149112      0            
       528  -34.07448      -34.07448       0              33.127503      0.9471288     -68.149112      0            
       529  -34.07448      -34.07448       0              33.127503      0.94712879    -68.149112      0            
       530  -34.07448      -34.07448       0              33.127503      0.94712878    -68.149111      0            
       531  -34.07448      -34.07448       0              33.127503      0.94712877    -68.149111      0            
       532  -34.07448      -34.07448       0              33.127503      0.94712876    -68.149111      0            
       533  -34.07448      -34.07448       0              33.127503      0.94712874    -68.149111      0            
       534  -34.07448      -34.07448       0              33.127503      0.94712872    -68.149111      0            
       535  -34.07448      -34.07448       0              33.127502      0.94712871    -68.149111      0            
       536  -34.07448      -34.07448       0              33.127502      0.9471287     -68.149111      0            
       537  -34.07448      -34.07448       0              33.127502      0.94712869    -68.149111      0            
       538  -34.07448      -34.07448       0              33.127502      0.94712868    -68.149111      0            
       539  -34.07448      -34.07448       0              33.127502      0.94712867    -68.149111      0            
       540  -34.07448      -34.07448       0              33.127502      0.94712866    -68.149111      0            
       541  -34.07448      -34.07448       0              33.127502      0.94712865    -68.14911       0            
       542  -34.07448      -34.07448       0              33.127502      0.94712864    -68.14911       0            
       543  -34.07448      -34.07448       0              33.127502      0.94712863    -68.14911       0            
       544  -34.07448      -34.07448       0              33.127502      0.94712861    -68.14911       0            
       545  -34.07448      -34.07448       0              33.127502      0.9471286     -68.14911       0            
       546  -34.07448      -34.07448       0              33.127502      0.94712858    -68.14911       0            
       547  -34.07448      -34.07448       0              33.127502      0.94712857    -68.14911       0            
       548  -34.07448      -34.07448       0              33.127501      0.94712856    -68.14911       0            
       549  -34.07448      -34.07448       0              33.127501      0.94712855    -68.14911       0            
       550  -34.07448      -34.07448       0              33.127501      0.94712854    -68.14911       0            
       551  -34.07448      -34.07448       0              33.127501      0.94712852    -68.149109      0            
       552  -34.07448      -34.07448       0              33.127501      0.94712851    -68.149109      0            
       553  -34.07448      -34.07448       0              33.127501      0.9471285     -68.149109      0            
       554  -34.07448      -34.07448       0              33.127501      0.94712849    -68.149109      0            
       555  -34.07448      -34.07448       0              33.127501      0.94712848    -68.149109      0            
       556  -34.07448      -34.07448       0              33.127501      0.94712846    -68.149109      0            
       557  -34.07448      -34.07448       0              33.127501      0.94712844    -68.149109      0            
       558  -34.07448      -34.07448       0              33.127501      0.94712843    -68.149109      0            
       559  -34.07448      -34.07448       0              33.127501      0.94712842    -68.149109      0            
       560  -34.07448      -34.07448       0              33.127501      0.94712841    -68.149109      0            
       561  -34.07448      -34.07448       0              33.1275        0.94712839    -68.149109      0            
       562  -34.07448      -34.07448       0              33.1275        0.94712838    -68.149108      0            
       563  -34.07448      -34.07448       0              33.1275        0.94712836    -68.149108      0            
       564  -34.07448      -34.07448       0              33.1275        0.94712835    -68.149108      0            
       565  -34.07448      -34.07448       0              33.1275        0.94712833    -68.149108      0            
       566  -34.07448      -34.07448       0              33.1275        0.94712832    -68.149108      0            
       567  -34.07448      -34.07448       0              33.1275        0.9471283     -68.149108      0            
       568  -34.07448      -34.07448       0              33.1275        0.94712829    -68.149108      0            
       569  -34.07448      -34.07448       0              33.1275        0.94712828    -68.149108      0            
       570  -34.07448      -34.07448       0              33.1275        0.94712826    -68.149108      0            
       571  -34.07448      -34.07448       0              33.1275        0.94712825    -68.149108      0            
       572  -34.07448      -34.07448       0              33.1275        0.94712824    -68.149108      0            
       573  -34.07448      -34.07448       0              33.1275        0.94712823    -68.149107      0            
       574  -34.07448      -34.07448       0              33.127499      0.94712822    -68.149107      0            
       575  -34.07448      -34.07448       0              33.127499      0.9471282     -68.149107      0            
       576  -34.07448      -34.07448       0              33.127499      0.94712818    -68.149107      0            
       577  -34.07448      -34.07448       0              33.127499      0.94712816    -68.149107      0            
       578  -34.07448      -34.07448       0              33.127499      0.94712815    -68.149107      0            
       579  -34.07448      -34.07448       0              33.127499      0.94712814    -68.149107      0            
       580  -34.07448      -34.07448       0              33.127499      0.94712813    -68.149107      0            
       581  -34.07448      -34.07448       0              33.127499      0.94712811    -68.149107      0            
       582  -34.07448      -34.07448       0              33.127499      0.94712808    -68.149106      0            
       583  -34.07448      -34.07448       0              33.127499      0.94712807    -68.149106      0            
       584  -34.07448      -34.07448       0              33.127499      0.94712805    -68.149106      0            
       585  -34.07448      -34.07448       0              33.127498      0.94712804    -68.149106      0            
       586  -34.07448      -34.07448       0              33.127498      0.94712803    -68.149106      0            
       587  -34.07448      -34.07448       0              33.127498      0.94712801    -68.149106      0            
       588  -34.07448      -34.07448       0              33.127498      0.94712799    -68.149106      0            
       589  -34.07448      -34.07448       0              33.127498      0.94712797    -68.149106      0            
       590  -34.07448      -34.07448       0              33.127498      0.94712797    -68.149106      0            
       591  -34.07448      -34.07448       0              33.127498      0.94712795    -68.149106      0            
       592  -34.07448      -34.07448       0              33.127498      0.94712794    -68.149106      0            
       593  -34.07448      -34.07448       0              33.127498      0.94712793    -68.149105      0            
       594  -34.07448      -34.07448       0              33.127498      0.94712792    -68.149105      0            
       595  -34.07448      -34.07448       0              33.127498      0.94712791    -68.149105      0            
       596  -34.07448      -34.07448       0              33.127498      0.94712788    -68.149105      0            
       597  -34.07448      -34.07448       0              33.127498      0.94712787    -68.149105      0            
       598  -34.07448      -34.07448       0              33.127497      0.94712786    -68.149105      0            
       599  -34.07448      -34.07448       0              33.127497      0.94712785    -68.149105      0            
       600  -34.07448      -34.07448       0              33.127497      0.94712784    -68.149105      0            
       601  -34.07448      -34.07448       0              33.127497      0.94712783    -68.149105      0            
       602  -34.07448      -34.07448       0              33.127497      0.94712782    -68.149105      0            
       603  -34.07448      -34.07448       0              33.127497      0.94712779    -68.149105      0            
       604  -34.07448      -34.07448       0              33.127497      0.94712778    -68.149104      0            
       605  -34.07448      -34.07448       0              33.127497      0.94712776    -68.149104      0            
       606  -34.07448      -34.07448       0              33.127497      0.94712775    -68.149104      0            
       607  -34.07448      -34.07448       0              33.127497      0.94712774    -68.149104      0            
       608  -34.07448      -34.07448       0              33.127497      0.94712773    -68.149104      0            
       609  -34.07448      -34.07448       0              33.127497      0.94712772    -68.149104      0            
       610  -34.07448      -34.07448       0              33.127497      0.9471277     -68.149104      0            
       611  -34.07448      -34.07448       0              33.127496      0.94712768    -68.149104      0            
       612  -34.07448      -34.07448       0              33.127496      0.94712767    -68.149104      0            
       613  -34.07448      -34.07448       0              33.127496      0.94712765    -68.149104      0            
       614  -34.07448      -34.07448       0              33.127496      0.94712764    -68.149104      0            
       615  -34.07448      -34.07448       0              33.127496      0.94712763    -68.149103      0            
       616  -34.07448      -34.07448       0              33.127496      0.94712762    -68.149103      0            
       617  -34.07448      -34.07448       0              33.127496      0.94712761    -68.149103      0            
       618  -34.07448      -34.07448       0              33.127496      0.9471276     -68.149103      0            
       619  -34.07448      -34.07448       0              33.127496      0.94712758    -68.149103      0            
       620  -34.07448      -34.07448       0              33.127496      0.94712757    -68.149103      0            
       621  -34.07448      -34.07448       0              33.127496      0.94712755    -68.149103      0            
       622  -34.07448      -34.07448       0              33.127496      0.94712753    -68.149103      0            
       623  -34.07448      -34.07448       0              33.127496      0.94712751    -68.149103      0            
       624  -34.07448      -34.07448       0              33.127495      0.94712749    -68.149103      0            
       625  -34.07448      -34.07448       0              33.127495      0.94712748    -68.149103      0            
       626  -34.07448      -34.07448       0              33.127495      0.94712748    -68.149103      0            
       627  -34.07448      -34.07448       0              33.127495      0.94712747    -68.149102      0            
       628  -34.07448      -34.07448       0              33.127495      0.94712746    -68.149102      0            
       629  -34.07448      -34.07448       0              33.127495      0.94712745    -68.149102      0            
       630  -34.07448      -34.07448       0              33.127495      0.94712743    -68.149102      0            
       631  -34.07448      -34.07448       0              33.127495      0.94712742    -68.149102      0            
       632  -34.07448      -34.07448       0              33.127495      0.9471274     -68.149102      0            
       633  -34.07448      -34.07448       0              33.127495      0.94712739    -68.149102      0            
       634  -34.07448      -34.07448       0              33.127495      0.94712737    -68.149102      0            
       635  -34.07448      -34.07448       0              33.127495      0.94712735    -68.149102      0            
       636  -34.07448      -34.07448       0              33.127495      0.94712733    -68.149102      0            
       637  -34.07448      -34.07448       0              33.127494      0.94712731    -68.149101      0            
       638  -34.07448      -34.07448       0              33.127494      0.9471273     -68.149101      0            
       639  -34.07448      -34.07448       0              33.127494      0.94712729    -68.149101      0            
       640  -34.07448      -34.07448       0              33.127494      0.94712728    -68.149101      0            
       641  -34.07448      -34.07448       0              33.127494      0.94712727    -68.149101      0            
       642  -34.07448      -34.07448       0              33.127494      0.94712726    -68.149101      0            
       643  -34.07448      -34.07448       0              33.127494      0.94712724    -68.149101      0            
       644  -34.07448      -34.07448       0              33.127494      0.94712722    -68.149101      0            
       645  -34.07448      -34.07448       0              33.127494      0.9471272     -68.149101      0            
       646  -34.07448      -34.07448       0              33.127494      0.94712719    -68.149101      0            
       647  -34.07448      -34.07448       0              33.127494      0.94712719    -68.149101      0            
       648  -34.07448      -34.07448       0              33.127494      0.94712718    -68.149101      0            
       649  -34.07448      -34.07448       0              33.127494      0.94712717    -68.149101      0            
       650  -34.07448      -34.07448       0              33.127494      0.94712716    -68.1491        0            
       651  -34.07448      -34.07448       0              33.127494      0.94712715    -68.1491        0            
       652  -34.07448      -34.07448       0              33.127493      0.94712714    -68.1491        0            
       653  -34.07448      -34.07448       0              33.127493      0.94712712    -68.1491        0            
       654  -34.07448      -34.07448       0              33.127493      0.94712711    -68.1491        0            
       655  -34.07448      -34.07448       0              33.127493      0.94712709    -68.1491        0            
       656  -34.07448      -34.07448       0              33.127493      0.94712708    -68.1491        0            
       657  -34.07448      -34.07448       0              33.127493      0.94712706    -68.1491        0            
       658  -34.07448      -34.07448       0              33.127493      0.94712705    -68.1491        0            
[...]
      1843  -34.07448      -34.07448       0              33.12741       0.94711181    -68.149001      0            
      1844  -34.07448      -34.07448       0              33.12741       0.94711181    -68.149001      0            
      1845  -34.07448      -34.07448       0              33.12741       0.9471118     -68.149001      0            
      1846  -34.07448      -34.07448       0              33.12741       0.9471118     -68.149001      0            
      1847  -34.07448      -34.07448       0              33.12741       0.94711179    -68.149001      0            
      1848  -34.07448      -34.07448       0              33.12741       0.94711178    -68.149001      0            
      1849  -34.07448      -34.07448       0              33.12741       0.94711177    -68.149001      0            
      1850  -34.07448      -34.07448       0              33.12741       0.94711177    -68.149001      0            
      1851  -34.07448      -34.07448       0              33.12741       0.94711177    -68.149001      0            
      1852  -34.07448      -34.07448       0              33.127409      0.94711176    -68.149001      0            
      1853  -34.07448      -34.07448       0              33.127409      0.94711176    -68.149001      0            
      1854  -34.07448      -34.07448       0              33.127409      0.94711175    -68.149001      0            
      1855  -34.07448      -34.07448       0              33.127409      0.94711175    -68.149001      0            
      1856  -34.07448      -34.07448       0              33.127409      0.94711174    -68.149001      0            
      1857  -34.07448      -34.07448       0              33.127409      0.94711173    -68.149001      0            
      1858  -34.07448      -34.07448       0              33.127409      0.94711173    -68.149001      0            
      1859  -34.07448      -34.07448       0              33.127409      0.94711172    -68.149001      0            
      1860  -34.07448      -34.07448       0              33.127409      0.94711171    -68.149001      0            
      1861  -34.07448      -34.07448       0              33.127409      0.9471117     -68.149001      0            
      1862  -34.07448      -34.07448       0              33.127409      0.9471117     -68.149001      0            
      1863  -34.07448      -34.07448       0              33.127409      0.94711169    -68.149         0            
      1864  -34.07448      -34.07448       0              33.127409      0.94711168    -68.149         0            
      1865  -34.07448      -34.07448       0              33.127409      0.94711167    -68.149         0            
      1866  -34.07448      -34.07448       0              33.127409      0.94711167    -68.149         0            
      1867  -34.07448      -34.07448       0              33.127409      0.94711166    -68.149         0            
      1868  -34.07448      -34.07448       0              33.127409      0.94711165    -68.149         0            
      1869  -34.07448      -34.07448       0              33.127409      0.94711164    -68.149         0            
      1870  -34.07448      -34.07448       0              33.127409      0.94711163    -68.149         0            
      1871  -34.07448      -34.07448       0              33.127409      0.94711163    -68.149         0            
      1872  -34.07448      -34.07448       0              33.127409      0.94711162    -68.149         0            
      1873  -34.07448      -34.07448       0              33.127409      0.94711162    -68.149         0            
      1874  -34.07448      -34.07448       0              33.127409      0.94711161    -68.149         0            
      1875  -34.07448      -34.07448       0              33.127409      0.94711161    -68.149         0            
      1876  -34.07448      -34.07448       0              33.127409      0.9471116     -68.149         0            
      1877  -34.07448      -34.07448       0              33.127409      0.9471116     -68.149         0            
      1878  -34.07448      -34.07448       0              33.127409      0.94711159    -68.149         0            
      1879  -34.07448      -34.07448       0              33.127408      0.94711158    -68.149         0            
      1880  -34.07448      -34.07448       0              33.127408      0.94711157    -68.149         0            
      1881  -34.07448      -34.07448       0              33.127408      0.94711157    -68.149         0            
      1882  -34.07448      -34.07448       0              33.127408      0.94711156    -68.149         0            
      1883  -34.07448      -34.07448       0              33.127408      0.94711156    -68.149         0            
      1884  -34.07448      -34.07448       0              33.127408      0.94711156    -68.149         0            
      1885  -34.07448      -34.07448       0              33.127408      0.94711155    -68.149         0            
      1886  -34.07448      -34.07448       0              33.127408      0.94711154    -68.149         0            
      1887  -34.07448      -34.07448       0              33.127408      0.94711154    -68.148999      0            
      1888  -34.07448      -34.07448       0              33.127408      0.94711153    -68.148999      0            
      1889  -34.07448      -34.07448       0              33.127408      0.94711152    -68.148999      0            
      1890  -34.07448      -34.07448       0              33.127408      0.94711151    -68.148999      0            
      1891  -34.07448      -34.07448       0              33.127408      0.94711151    -68.148999      0            
      1892  -34.07448      -34.07448       0              33.127408      0.9471115     -68.148999      0            
      1893  -34.07448      -34.07448       0              33.127408      0.94711149    -68.148999      0            
      1894  -34.07448      -34.07448       0              33.127408      0.94711148    -68.148999      0            
      1895  -34.07448      -34.07448       0              33.127408      0.94711148    -68.148999      0            
      1896  -34.07448      -34.07448       0              33.127408      0.94711147    -68.148999      0            
      1897  -34.07448      -34.07448       0              33.127408      0.94711147    -68.148999      0            
      1898  -34.07448      -34.07448       0              33.127408      0.94711146    -68.148999      0            
      1899  -34.07448      -34.07448       0              33.127408      0.94711145    -68.148999      0            
      1900  -34.07448      -34.07448       0              33.127408      0.94711144    -68.148999      0            
      1901  -34.07448      -34.07448       0              33.127408      0.94711143    -68.148999      0            
      1902  -34.07448      -34.07448       0              33.127408      0.94711142    -68.148999      0            
      1903  -34.07448      -34.07448       0              33.127408      0.94711142    -68.148999      0            
      1904  -34.07448      -34.07448       0              33.127408      0.94711141    -68.148999      0            
      1905  -34.07448      -34.07448       0              33.127408      0.94711141    -68.148999      0            
      1906  -34.07448      -34.07448       0              33.127408      0.9471114     -68.148999      0            
      1907  -34.07448      -34.07448       0              33.127407      0.94711139    -68.148999      0            
      1908  -34.07448      -34.07448       0              33.127407      0.94711139    -68.148999      0            
      1909  -34.07448      -34.07448       0              33.127407      0.94711138    -68.148998      0            
      1910  -34.07448      -34.07448       0              33.127407      0.94711138    -68.148998      0            
      1911  -34.07448      -34.07448       0              33.127407      0.94711137    -68.148998      0            
      1912  -34.07448      -34.07448       0              33.127407      0.94711137    -68.148998      0            
      1913  -34.07448      -34.07448       0              33.127407      0.94711137    -68.148998      0            
      1914  -34.07448      -34.07448       0              33.127407      0.94711136    -68.148998      0            
      1915  -34.07448      -34.07448       0              33.127407      0.94711135    -68.148998      0            
      1916  -34.07448      -34.07448       0              33.127407      0.94711135    -68.148998      0            
      1917  -34.07448      -34.07448       0              33.127407      0.94711134    -68.148998      0            
      1918  -34.07448      -34.07448       0              33.127407      0.94711133    -68.148998      0            
      1919  -34.07448      -34.07448       0              33.127407      0.94711132    -68.148998      0            
      1920  -34.07448      -34.07448       0              33.127407      0.94711132    -68.148998      0            
      1921  -34.07448      -34.07448       0              33.127407      0.94711131    -68.148998      0            
      1922  -34.07448      -34.07448       0              33.127407      0.9471113     -68.148998      0            
      1923  -34.07448      -34.07448       0              33.127407      0.9471113     -68.148998      0            
      1924  -34.07448      -34.07448       0              33.127406      0.94711116    -68.148997      0            
      1925  -34.07448      -34.07448       0              33.127406      0.94711114    -68.148997      0            
      1926  -34.07448      -34.07448       0              33.127406      0.94711114    -68.148997      0            
      1927  -34.07448      -34.07448       0              33.127406      0.94711113    -68.148997      0            
      1928  -34.07448      -34.07448       0              33.127406      0.94711112    -68.148997      0            
      1929  -34.07448      -34.07448       0              33.127406      0.9471111     -68.148997      0            
      1930  -34.07448      -34.07448       0              33.127406      0.94711107    -68.148996      0            
      1931  -34.07448      -34.07448       0              33.127406      0.94711106    -68.148996      0            
      1932  -34.07448      -34.07448       0              33.127406      0.94711105    -68.148996      0            
      1933  -34.07448      -34.07448       0              33.127406      0.94711105    -68.148996      0            
      1934  -34.07448      -34.07448       0              33.127406      0.94711104    -68.148996      0            
      1935  -34.07448      -34.07448       0              33.127406      0.94711104    -68.148996      0            
      1936  -34.07448      -34.07448       0              33.127405      0.94711103    -68.148996      0            
      1937  -34.07448      -34.07448       0              33.127405      0.94711102    -68.148996      0            
      1938  -34.07448      -34.07448       0              33.127405      0.94711102    -68.148996      0            
      1939  -34.07448      -34.07448       0              33.127405      0.947111      -68.148996      0            
      1940  -34.07448      -34.07448       0              33.127405      0.94711098    -68.148996      0            
      1941  -34.07448      -34.07448       0              33.127405      0.94711098    -68.148996      0            
      1942  -34.07448      -34.07448       0              33.127405      0.94711097    -68.148996      0            
      1943  -34.07448      -34.07448       0              33.127405      0.94711097    -68.148996      0            
      1944  -34.07448      -34.07448       0              33.127405      0.94711096    -68.148996      0            
      1945  -34.07448      -34.07448       0              33.127405      0.94711095    -68.148996      0            
      1946  -34.07448      -34.07448       0              33.127405      0.94711095    -68.148996      0            
      1947  -34.07448      -34.07448       0              33.127405      0.94711094    -68.148996      0            
      1948  -34.07448      -34.07448       0              33.127405      0.94711093    -68.148996      0            
      1949  -34.07448      -34.07448       0              33.127405      0.94711093    -68.148996      0            
      1950  -34.07448      -34.07448       0              33.127405      0.94711093    -68.148996      0            
      1951  -34.07448      -34.07448       0              33.127405      0.94711092    -68.148995      0            
      1952  -34.07448      -34.07448       0              33.127405      0.94711091    -68.148995      0            
      1953  -34.07448      -34.07448       0              33.127405      0.9471109     -68.148995      0            
      1954  -34.07448      -34.07448       0              33.127405      0.9471109     -68.148995      0            
      1955  -34.07448      -34.07448       0              33.127405      0.94711089    -68.148995      0            
      1956  -34.07448      -34.07448       0              33.127405      0.94711089    -68.148995      0            
      1957  -34.07448      -34.07448       0              33.127405      0.94711088    -68.148995      0            
      1958  -34.07448      -34.07448       0              33.127405      0.94711088    -68.148995      0            
      1959  -34.07448      -34.07448       0              33.127405      0.94711087    -68.148995      0            
      1960  -34.07448      -34.07448       0              33.127405      0.94711087    -68.148995      0            
      1961  -34.07448      -34.07448       0              33.127405      0.94711086    -68.148995      0            
      1962  -34.07448      -34.07448       0              33.127405      0.94711085    -68.148995      0            
      1963  -34.07448      -34.07448       0              33.127404      0.94711085    -68.148995      0            
      1964  -34.07448      -34.07448       0              33.127404      0.94711084    -68.148995      0            
      1965  -34.07448      -34.07448       0              33.127404      0.94711084    -68.148995      0            
      1966  -34.07448      -34.07448       0              33.127404      0.94711083    -68.148995      0            
      1967  -34.07448      -34.07448       0              33.127404      0.94711082    -68.148995      0            
      1968  -34.07448      -34.07448       0              33.127404      0.94711081    -68.148995      0            
      1969  -34.07448      -34.07448       0              33.127404      0.9471108     -68.148995      0            
      1970  -34.07448      -34.07448       0              33.127404      0.9471108     -68.148995      0            
      1971  -34.07448      -34.07448       0              33.127404      0.9471108     -68.148995      0            
      1972  -34.07448      -34.07448       0              33.127404      0.94711079    -68.148995      0            
      1973  -34.07448      -34.07448       0              33.127404      0.94711079    -68.148995      0            
      1974  -34.07448      -34.07448       0              33.127404      0.94711078    -68.148995      0            
      1975  -34.07448      -34.07448       0              33.127404      0.94711078    -68.148995      0            
      1976  -34.07448      -34.07448       0              33.127404      0.94711077    -68.148995      0            
      1977  -34.07448      -34.07448       0              33.127404      0.94711076    -68.148994      0            
      1978  -34.07448      -34.07448       0              33.127404      0.94711076    -68.148994      0            
      1979  -34.07448      -34.07448       0              33.127404      0.94711075    -68.148994      0            
      1980  -34.07448      -34.07448       0              33.127404      0.94711074    -68.148994      0            
      1981  -34.07448      -34.07448       0              33.127404      0.94711074    -68.148994      0            
      1982  -34.07448      -34.07448       0              33.127404      0.94711073    -68.148994      0            
      1983  -34.07448      -34.07448       0              33.127404      0.94711073    -68.148994      0            
      1984  -34.07448      -34.07448       0              33.127404      0.94711071    -68.148994      0            
      1985  -34.07448      -34.07448       0              33.127404      0.94711071    -68.148994      0            
      1986  -34.07448      -34.07448       0              33.127404      0.9471107     -68.148994      0            
      1987  -34.07448      -34.07448       0              33.127404      0.9471107     -68.148994      0            
      1988  -34.07448      -34.07448       0              33.127404      0.94711069    -68.148994      0            
      1989  -34.07448      -34.07448       0              33.127404      0.94711068    -68.148994      0            
      1990  -34.07448      -34.07448       0              33.127403      0.94711066    -68.148994      0            
      1991  -34.07448      -34.07448       0              33.127403      0.94711063    -68.148994      0            
      1992  -34.07448      -34.07448       0              33.127403      0.94711062    -68.148994      0            
      1993  -34.07448      -34.07448       0              33.127403      0.94711062    -68.148994      0            
      1994  -34.07448      -34.07448       0              33.127403      0.94711062    -68.148994      0            
      1995  -34.07448      -34.07448       0              33.127403      0.94711061    -68.148993      0            
      1996  -34.07448      -34.07448       0              33.127403      0.9471106     -68.148993      0            
      1997  -34.07448      -34.07448       0              33.127403      0.94711059    -68.148993      0            
      1998  -34.07448      -34.07448       0              33.127403      0.94711059    -68.148993      0            
      1999  -34.07448      -34.07448       0              33.127403      0.94711058    -68.148993      0            
      2000  -34.07448      -34.07448       0              33.127403      0.94711058    -68.148993      0            
Loop time of 0.0411812 on 1 procs for 2000 steps with 15 atoms

78.2% CPU use with 1 MPI tasks x 1 OpenMP threads

Minimization stats:
  Stopping criterion = max iterations
  Energy initial, next-to-last, final = 
     -27.3140820331247  -34.0744796896431  -34.0744796899235
  Force two-norm initial, final = 10.728716 0.00026922738
  Force max component initial, final = 6.1727999 0.0002121793
  Final line search alpha, max atom move = 1 0.0002121793
  Iterations, force evaluations = 2000 3943

MPI task timing breakdown:
Section |  min time  |  avg time  |  max time  |%varavg| %total
---------------------------------------------------------------
Pair    | 0.025529   | 0.025529   | 0.025529   |   0.0 | 61.99
Neigh   | 0          | 0          | 0          |   0.0 |  0.00
Comm    | 0.00025004 | 0.00025004 | 0.00025004 |   0.0 |  0.61
Output  | 0.012176   | 0.012176   | 0.012176   |   0.0 | 29.57
Modify  | 0          | 0          | 0          |   0.0 |  0.00
Other   |            | 0.003226   |            |       |  7.83

Nlocal:             15 ave          15 max          15 min
Histogram: 1 0 0 0 0 0 0 0 0 0
Nghost:              0 ave           0 max           0 min
Histogram: 1 0 0 0 0 0 0 0 0 0
Neighs:            105 ave         105 max         105 min
Histogram: 1 0 0 0 0 0 0 0 0 0

Total # of neighbors = 105
Ave neighs/atom = 7
Neighbor list builds = 0
Dangerous builds = 0

Total wall time: 0:00:00
