LAMMPS data file via write_data, version 7 Aug 2019, timestep = 400000

5074 atoms
4 atom types
3116 bonds
1 bond types
1558 angles
1 angle types

0.0000000000000000e+00 2.5000000000000000e+01 xlo xhi
0.0000000000000000e+00 2.5000000000000000e+01 ylo yhi
0.0000000000000000e+00 1.0000000000000000e+02 zlo zhi

Masses

1 1.00794
2 15.9994
3 1e+08
4 1e+08

Atoms # full

4675 1559 3 0.0000000000000000e+00 0.0000000000000000e+00 0.0000000000000000e+00 1.0000000000000000e+01 0 0 0
4676 1559 3 0.0000000000000000e+00 2.5000000000000000e+00 0.0000000000000000e+00 1.0000000000000000e+01 0 0 0
4677 1559 3 0.0000000000000000e+00 5.0000000000000000e+00 0.0000000000000000e+00 1.0000000000000000e+01 0 0 0
4678 1560 3 0.0000000000000000e+00 7.5000000000000000e+00 0.0000000000000000e+00 1.0000000000000000e+01 0 0 0
4679 1560 3 0.0000000000000000e+00 0.0000000000000000e+00 2.5000000000000000e+00 1.0000000000000000e+01 0 0 0
4680 1560 3 0.0000000000000000e+00 2.5000000000000000e+00 2.5000000000000000e+00 1.0000000000000000e+01 0 0 0
4681 1561 3 0.0000000000000000e+00 5.0000000000000000e+00 2.5000000000000000e+00 1.0000000000000000e+01 0 0 0
4682 1561 3 0.0000000000000000e+00 7.5000000000000000e+00 2.5000000000000000e+00 1.0000000000000000e+01 0 0 0
4683 1561 3 0.0000000000000000e+00 0.0000000000000000e+00 5.0000000000000000e+00 1.0000000000000000e+01 0 0 0
4684 1562 3 0.0000000000000000e+00 2.5000000000000000e+00 5.0000000000000000e+00 1.0000000000000000e+01 0 0 0
4685 1562 3 0.0000000000000000e+00 5.0000000000000000e+00 5.0000000000000000e+00 1.0000000000000000e+01 0 0 0
4686 1562 3 0.0000000000000000e+00 7.5000000000000000e+00 5.0000000000000000e+00 1.0000000000000000e+01 0 0 0
4687 1563 3 0.0000000000000000e+00 0.0000000000000000e+00 7.5000000000000000e+00 1.0000000000000000e+01 0 0 0
4688 1563 3 0.0000000000000000e+00 2.5000000000000000e+00 7.5000000000000000e+00 1.0000000000000000e+01 0 0 0
4689 1563 3 0.0000000000000000e+00 5.0000000000000000e+00 7.5000000000000000e+00 1.0000000000000000e+01 0 0 0
4690 1564 3 0.0000000000000000e+00 7.5000000000000000e+00 7.5000000000000000e+00 1.0000000000000000e+01 0 0 0
4691 1564 3 0.0000000000000000e+00 1.2500000000000000e+00 1.2500000000000000e+00 1.0000000000000000e+01 0 0 0
4692 1564 3 0.0000000000000000e+00 3.7500000000000000e+00 1.2500000000000000e+00 1.0000000000000000e+01 0 0 0
4693 1565 3 0.0000000000000000e+00 6.2500000000000000e+00 1.2500000000000000e+00 1.0000000000000000e+01 0 0 0
4694 1565 3 0.0000000000000000e+00 8.7500000000000000e+00 1.2500000000000000e+00 1.0000000000000000e+01 0 0 0
4695 1565 3 0.0000000000000000e+00 1.2500000000000000e+00 3.7500000000000000e+00 1.0000000000000000e+01 0 0 0
4696 1566 3 0.0000000000000000e+00 3.7500000000000000e+00 3.7500000000000000e+00 1.0000000000000000e+01 0 0 0
4697 1566 3 0.0000000000000000e+00 6.2500000000000000e+00 3.7500000000000000e+00 1.0000000000000000e+01 0 0 0
4698 1566 3 0.0000000000000000e+00 8.7500000000000000e+00 3.7500000000000000e+00 1.0000000000000000e+01 0 0 0
4699 1567 3 0.0000000000000000e+00 1.2500000000000000e+00 6.2500000000000000e+00 1.0000000000000000e+01 0 0 0
4700 1567 3 0.0000000000000000e+00 3.7500000000000000e+00 6.2500000000000000e+00 1.0000000000000000e+01 0 0 0
4701 1567 3 0.0000000000000000e+00 6.2500000000000000e+00 6.2500000000000000e+00 1.0000000000000000e+01 0 0 0
4702 1568 3 0.0000000000000000e+00 8.7500000000000000e+00 6.2500000000000000e+00 1.0000000000000000e+01 0 0 0
4703 1568 3 0.0000000000000000e+00 1.2500000000000000e+00 8.7500000000000000e+00 1.0000000000000000e+01 0 0 0
4704 1568 3 0.0000000000000000e+00 3.7500000000000000e+00 8.7500000000000000e+00 1.0000000000000000e+01 0 0 0
4705 1569 3 0.0000000000000000e+00 6.2500000000000000e+00 8.7500000000000000e+00 1.0000000000000000e+01 0 0 0
4706 1569 3 0.0000000000000000e+00 8.7500000000000000e+00 8.7500000000000000e+00 1.0000000000000000e+01 0 0 0
4707 1569 3 0.0000000000000000e+00 0.0000000000000000e+00 1.0000000000000000e+01 1.0000000000000000e+01 0 0 0
4708 1570 3 0.0000000000000000e+00 2.5000000000000000e+00 1.0000000000000000e+01 1.0000000000000000e+01 0 0 0
4709 1570 3 0.0000000000000000e+00 5.0000000000000000e+00 1.0000000000000000e+01 1.0000000000000000e+01 0 0 0
4710 1570 3 0.0000000000000000e+00 7.5000000000000000e+00 1.0000000000000000e+01 1.0000000000000000e+01 0 0 0
4723 1575 3 0.0000000000000000e+00 1.2500000000000000e+00 1.1250000000000000e+01 1.0000000000000000e+01 0 0 0
4724 1575 3 0.0000000000000000e+00 3.7500000000000000e+00 1.1250000000000000e+01 1.0000000000000000e+01 0 0 0
4725 1575 3 0.0000000000000000e+00 6.2500000000000000e+00 1.1250000000000000e+01 1.0000000000000000e+01 0 0 0
4726 1576 3 0.0000000000000000e+00 8.7500000000000000e+00 1.1250000000000000e+01 1.0000000000000000e+01 0 0 0
4755 1585 3 0.0000000000000000e+00 1.0000000000000000e+01 0.0000000000000000e+00 1.0000000000000000e+01 0 0 0
4759 1587 3 0.0000000000000000e+00 1.0000000000000000e+01 2.5000000000000000e+00 1.0000000000000000e+01 0 0 0
4763 1588 3 0.0000000000000000e+00 1.0000000000000000e+01 5.0000000000000000e+00 1.0000000000000000e+01 0 0 0
4767 1589 3 0.0000000000000000e+00 1.0000000000000000e+01 7.5000000000000000e+00 1.0000000000000000e+01 0 0 0
4771 1591 3 0.0000000000000000e+00 1.1250000000000000e+01 1.2500000000000000e+00 1.0000000000000000e+01 0 0 0
4775 1592 3 0.0000000000000000e+00 1.1250000000000000e+01 3.7500000000000000e+00 1.0000000000000000e+01 0 0 0
4779 1593 3 0.0000000000000000e+00 1.1250000000000000e+01 6.2500000000000000e+00 1.0000000000000000e+01 0 0 0
4783 1595 3 0.0000000000000000e+00 1.1250000000000000e+01 8.7500000000000000e+00 1.0000000000000000e+01 0 0 0
4787 1596 3 0.0000000000000000e+00 1.0000000000000000e+01 1.0000000000000000e+01 1.0000000000000000e+01 0 0 0
4803 1601 3 0.0000000000000000e+00 1.1250000000000000e+01 1.1250000000000000e+01 1.0000000000000000e+01 0 0 0
1820 607 1 4.1499999999999998e-01 2.3195997865600688e+00 3.3290393979356674e+00 1.2691859543750869e+01 1 0 0
4756 1586 3 0.0000000000000000e+00 1.2500000000000000e+01 0.0000000000000000e+00 1.0000000000000000e+01 0 0 0
4757 1586 3 0.0000000000000000e+00 1.5000000000000000e+01 0.0000000000000000e+00 1.0000000000000000e+01 0 0 0
4758 1586 3 0.0000000000000000e+00 1.7500000000000000e+01 0.0000000000000000e+00 1.0000000000000000e+01 0 0 0
4760 1587 3 0.0000000000000000e+00 1.2500000000000000e+01 2.5000000000000000e+00 1.0000000000000000e+01 0 0 0
4761 1587 3 0.0000000000000000e+00 1.5000000000000000e+01 2.5000000000000000e+00 1.0000000000000000e+01 0 0 0
4762 1588 3 0.0000000000000000e+00 1.7500000000000000e+01 2.5000000000000000e+00 1.0000000000000000e+01 0 0 0
4764 1588 3 0.0000000000000000e+00 1.2500000000000000e+01 5.0000000000000000e+00 1.0000000000000000e+01 0 0 0
4765 1589 3 0.0000000000000000e+00 1.5000000000000000e+01 5.0000000000000000e+00 1.0000000000000000e+01 0 0 0
4766 1589 3 0.0000000000000000e+00 1.7500000000000000e+01 5.0000000000000000e+00 1.0000000000000000e+01 0 0 0
4768 1590 3 0.0000000000000000e+00 1.2500000000000000e+01 7.5000000000000000e+00 1.0000000000000000e+01 0 0 0
4769 1590 3 0.0000000000000000e+00 1.5000000000000000e+01 7.5000000000000000e+00 1.0000000000000000e+01 0 0 0
4770 1590 3 0.0000000000000000e+00 1.7500000000000000e+01 7.5000000000000000e+00 1.0000000000000000e+01 0 0 0
4772 1591 3 0.0000000000000000e+00 1.3750000000000000e+01 1.2500000000000000e+00 1.0000000000000000e+01 0 0 0
4773 1591 3 0.0000000000000000e+00 1.6250000000000000e+01 1.2500000000000000e+00 1.0000000000000000e+01 0 0 0
4774 1592 3 0.0000000000000000e+00 1.8750000000000000e+01 1.2500000000000000e+00 1.0000000000000000e+01 0 0 0
4776 1592 3 0.0000000000000000e+00 1.3750000000000000e+01 3.7500000000000000e+00 1.0000000000000000e+01 0 0 0
4777 1593 3 0.0000000000000000e+00 1.6250000000000000e+01 3.7500000000000000e+00 1.0000000000000000e+01 0 0 0
4778 1593 3 0.0000000000000000e+00 1.8750000000000000e+01 3.7500000000000000e+00 1.0000000000000000e+01 0 0 0
4780 1594 3 0.0000000000000000e+00 1.3750000000000000e+01 6.2500000000000000e+00 1.0000000000000000e+01 0 0 0
4781 1594 3 0.0000000000000000e+00 1.6250000000000000e+01 6.2500000000000000e+00 1.0000000000000000e+01 0 0 0
4782 1594 3 0.0000000000000000e+00 1.8750000000000000e+01 6.2500000000000000e+00 1.0000000000000000e+01 0 0 0
4784 1595 3 0.0000000000000000e+00 1.3750000000000000e+01 8.7500000000000000e+00 1.0000000000000000e+01 0 0 0
4785 1595 3 0.0000000000000000e+00 1.6250000000000000e+01 8.7500000000000000e+00 1.0000000000000000e+01 0 0 0
4786 1596 3 0.0000000000000000e+00 1.8750000000000000e+01 8.7500000000000000e+00 1.0000000000000000e+01 0 0 0
4788 1596 3 0.0000000000000000e+00 1.2500000000000000e+01 1.0000000000000000e+01 1.0000000000000000e+01 0 0 0
4789 1597 3 0.0000000000000000e+00 1.5000000000000000e+01 1.0000000000000000e+01 1.0000000000000000e+01 0 0 0
4790 1597 3 0.0000000000000000e+00 1.7500000000000000e+01 1.0000000000000000e+01 1.0000000000000000e+01 0 0 0
4804 1602 3 0.0000000000000000e+00 1.3750000000000000e+01 1.1250000000000000e+01 1.0000000000000000e+01 0 0 0
4805 1602 3 0.0000000000000000e+00 1.6250000000000000e+01 1.1250000000000000e+01 1.0000000000000000e+01 0 0 0
4806 1602 3 0.0000000000000000e+00 1.8750000000000000e+01 1.1250000000000000e+01 1.0000000000000000e+01 0 0 0
4835 1612 3 0.0000000000000000e+00 2.0000000000000000e+01 0.0000000000000000e+00 1.0000000000000000e+01 0 0 0
4836 1612 3 0.0000000000000000e+00 2.2500000000000000e+01 0.0000000000000000e+00 1.0000000000000000e+01 0 0 0
4837 1613 3 0.0000000000000000e+00 2.0000000000000000e+01 2.5000000000000000e+00 1.0000000000000000e+01 0 0 0
4838 1613 3 0.0000000000000000e+00 2.2500000000000000e+01 2.5000000000000000e+00 1.0000000000000000e+01 0 0 0
4839 1613 3 0.0000000000000000e+00 2.0000000000000000e+01 5.0000000000000000e+00 1.0000000000000000e+01 0 0 0
4840 1614 3 0.0000000000000000e+00 2.2500000000000000e+01 5.0000000000000000e+00 1.0000000000000000e+01 0 0 0
4841 1614 3 0.0000000000000000e+00 2.0000000000000000e+01 7.5000000000000000e+00 1.0000000000000000e+01 0 0 0
4842 1614 3 0.0000000000000000e+00 2.2500000000000000e+01 7.5000000000000000e+00 1.0000000000000000e+01 0 0 0
4843 1615 3 0.0000000000000000e+00 2.1250000000000000e+01 1.2500000000000000e+00 1.0000000000000000e+01 0 0 0
4844 1615 3 0.0000000000000000e+00 2.3750000000000000e+01 1.2500000000000000e+00 1.0000000000000000e+01 0 0 0
4845 1615 3 0.0000000000000000e+00 2.1250000000000000e+01 3.7500000000000000e+00 1.0000000000000000e+01 0 0 0
4846 1616 3 0.0000000000000000e+00 2.3750000000000000e+01 3.7500000000000000e+00 1.0000000000000000e+01 0 0 0
4847 1616 3 0.0000000000000000e+00 2.1250000000000000e+01 6.2500000000000000e+00 1.0000000000000000e+01 0 0 0
4848 1616 3 0.0000000000000000e+00 2.3750000000000000e+01 6.2500000000000000e+00 1.0000000000000000e+01 0 0 0
4849 1617 3 0.0000000000000000e+00 2.1250000000000000e+01 8.7500000000000000e+00 1.0000000000000000e+01 0 0 0
4850 1617 3 0.0000000000000000e+00 2.3750000000000000e+01 8.7500000000000000e+00 1.0000000000000000e+01 0 0 0
4851 1617 3 0.0000000000000000e+00 2.0000000000000000e+01 1.0000000000000000e+01 1.0000000000000000e+01 0 0 0
4852 1618 3 0.0000000000000000e+00 2.2500000000000000e+01 1.0000000000000000e+01 1.0000000000000000e+01 0 0 0
4859 1620 3 0.0000000000000000e+00 2.1250000000000000e+01 1.1250000000000000e+01 1.0000000000000000e+01 0 0 0
4860 1620 3 0.0000000000000000e+00 2.3750000000000000e+01 1.1250000000000000e+01 1.0000000000000000e+01 0 0 0
3356 1119 1 4.1499999999999998e-01 1.5099728553196613e+01 5.6968583878241290e+00 1.2690994833438159e+01 0 0 0
2310 770 1 4.1499999999999998e-01 2.2224067870568891e+01 6.8722229326734379e+00 1.3716236508164814e+01 0 1 0
4711 1571 3 0.0000000000000000e+00 0.0000000000000000e+00 1.2500000000000000e+01 1.0000000000000000e+01 0 0 0
4712 1571 3 0.0000000000000000e+00 2.5000000000000000e+00 1.2500000000000000e+01 1.0000000000000000e+01 0 0 0
4713 1571 3 0.0000000000000000e+00 5.0000000000000000e+00 1.2500000000000000e+01 1.0000000000000000e+01 0 0 0
4714 1572 3 0.0000000000000000e+00 7.5000000000000000e+00 1.2500000000000000e+01 1.0000000000000000e+01 0 0 0
4715 1572 3 0.0000000000000000e+00 0.0000000000000000e+00 1.5000000000000000e+01 1.0000000000000000e+01 0 0 0
4716 1572 3 0.0000000000000000e+00 2.5000000000000000e+00 1.5000000000000000e+01 1.0000000000000000e+01 0 0 0
4717 1573 3 0.0000000000000000e+00 5.0000000000000000e+00 1.5000000000000000e+01 1.0000000000000000e+01 0 0 0
4718 1573 3 0.0000000000000000e+00 7.5000000000000000e+00 1.5000000000000000e+01 1.0000000000000000e+01 0 0 0
4719 1573 3 0.0000000000000000e+00 0.0000000000000000e+00 1.7500000000000000e+01 1.0000000000000000e+01 0 0 0
4720 1574 3 0.0000000000000000e+00 2.5000000000000000e+00 1.7500000000000000e+01 1.0000000000000000e+01 0 0 0
4721 1574 3 0.0000000000000000e+00 5.0000000000000000e+00 1.7500000000000000e+01 1.0000000000000000e+01 0 0 0
4722 1574 3 0.0000000000000000e+00 7.5000000000000000e+00 1.7500000000000000e+01 1.0000000000000000e+01 0 0 0
4727 1576 3 0.0000000000000000e+00 1.2500000000000000e+00 1.3750000000000000e+01 1.0000000000000000e+01 0 0 0
4728 1576 3 0.0000000000000000e+00 3.7500000000000000e+00 1.3750000000000000e+01 1.0000000000000000e+01 0 0 0
4729 1577 3 0.0000000000000000e+00 6.2500000000000000e+00 1.3750000000000000e+01 1.0000000000000000e+01 0 0 0
4730 1577 3 0.0000000000000000e+00 8.7500000000000000e+00 1.3750000000000000e+01 1.0000000000000000e+01 0 0 0
4731 1577 3 0.0000000000000000e+00 1.2500000000000000e+00 1.6250000000000000e+01 1.0000000000000000e+01 0 0 0
4732 1578 3 0.0000000000000000e+00 3.7500000000000000e+00 1.6250000000000000e+01 1.0000000000000000e+01 0 0 0
4733 1578 3 0.0000000000000000e+00 6.2500000000000000e+00 1.6250000000000000e+01 1.0000000000000000e+01 0 0 0
4734 1578 3 0.0000000000000000e+00 8.7500000000000000e+00 1.6250000000000000e+01 1.0000000000000000e+01 0 0 0
4735 1579 3 0.0000000000000000e+00 1.2500000000000000e+00 1.8750000000000000e+01 1.0000000000000000e+01 0 0 0
4736 1579 3 0.0000000000000000e+00 3.7500000000000000e+00 1.8750000000000000e+01 1.0000000000000000e+01 0 0 0
4737 1579 3 0.0000000000000000e+00 6.2500000000000000e+00 1.8750000000000000e+01 1.0000000000000000e+01 0 0 0
4738 1580 3 0.0000000000000000e+00 8.7500000000000000e+00 1.8750000000000000e+01 1.0000000000000000e+01 0 0 0
4739 1580 3 0.0000000000000000e+00 0.0000000000000000e+00 2.0000000000000000e+01 1.0000000000000000e+01 0 0 0
4740 1580 3 0.0000000000000000e+00 2.5000000000000000e+00 2.0000000000000000e+01 1.0000000000000000e+01 0 0 0
4741 1581 3 0.0000000000000000e+00 5.0000000000000000e+00 2.0000000000000000e+01 1.0000000000000000e+01 0 0 0
4742 1581 3 0.0000000000000000e+00 7.5000000000000000e+00 2.0000000000000000e+01 1.0000000000000000e+01 0 0 0
4743 1581 3 0.0000000000000000e+00 0.0000000000000000e+00 2.2500000000000000e+01 1.0000000000000000e+01 0 0 0
4744 1582 3 0.0000000000000000e+00 2.5000000000000000e+00 2.2500000000000000e+01 1.0000000000000000e+01 0 0 0
4745 1582 3 0.0000000000000000e+00 5.0000000000000000e+00 2.2500000000000000e+01 1.0000000000000000e+01 0 0 0
4746 1582 3 0.0000000000000000e+00 7.5000000000000000e+00 2.2500000000000000e+01 1.0000000000000000e+01 0 0 0
4747 1583 3 0.0000000000000000e+00 1.2500000000000000e+00 2.1250000000000000e+01 1.0000000000000000e+01 0 0 0
4748 1583 3 0.0000000000000000e+00 3.7500000000000000e+00 2.1250000000000000e+01 1.0000000000000000e+01 0 0 0
4749 1583 3 0.0000000000000000e+00 6.2500000000000000e+00 2.1250000000000000e+01 1.0000000000000000e+01 0 0 0
4750 1584 3 0.0000000000000000e+00 8.7500000000000000e+00 2.1250000000000000e+01 1.0000000000000000e+01 0 0 0
4751 1584 3 0.0000000000000000e+00 1.2500000000000000e+00 2.3750000000000000e+01 1.0000000000000000e+01 0 0 0
4752 1584 3 0.0000000000000000e+00 3.7500000000000000e+00 2.3750000000000000e+01 1.0000000000000000e+01 0 0 0
4753 1585 3 0.0000000000000000e+00 6.2500000000000000e+00 2.3750000000000000e+01 1.0000000000000000e+01 0 0 0
4754 1585 3 0.0000000000000000e+00 8.7500000000000000e+00 2.3750000000000000e+01 1.0000000000000000e+01 0 0 0
4791 1597 3 0.0000000000000000e+00 1.0000000000000000e+01 1.2500000000000000e+01 1.0000000000000000e+01 0 0 0
4795 1599 3 0.0000000000000000e+00 1.0000000000000000e+01 1.5000000000000000e+01 1.0000000000000000e+01 0 0 0
4799 1600 3 0.0000000000000000e+00 1.0000000000000000e+01 1.7500000000000000e+01 1.0000000000000000e+01 0 0 0
4807 1603 3 0.0000000000000000e+00 1.1250000000000000e+01 1.3750000000000000e+01 1.0000000000000000e+01 0 0 0
4811 1604 3 0.0000000000000000e+00 1.1250000000000000e+01 1.6250000000000000e+01 1.0000000000000000e+01 0 0 0
4815 1605 3 0.0000000000000000e+00 1.1250000000000000e+01 1.8750000000000000e+01 1.0000000000000000e+01 0 0 0
4819 1607 3 0.0000000000000000e+00 1.0000000000000000e+01 2.0000000000000000e+01 1.0000000000000000e+01 0 0 0
4823 1608 3 0.0000000000000000e+00 1.0000000000000000e+01 2.2500000000000000e+01 1.0000000000000000e+01 0 0 0
4827 1609 3 0.0000000000000000e+00 1.1250000000000000e+01 2.1250000000000000e+01 1.0000000000000000e+01 0 0 0
4831 1611 3 0.0000000000000000e+00 1.1250000000000000e+01 2.3750000000000000e+01 1.0000000000000000e+01 0 0 0
866 289 1 4.1499999999999998e-01 5.8435795084482063e+00 1.6705265402343461e+01 1.3185718594194780e+01 1 0 0
4792 1598 3 0.0000000000000000e+00 1.2500000000000000e+01 1.2500000000000000e+01 1.0000000000000000e+01 0 0 0
4793 1598 3 0.0000000000000000e+00 1.5000000000000000e+01 1.2500000000000000e+01 1.0000000000000000e+01 0 0 0
4794 1598 3 0.0000000000000000e+00 1.7500000000000000e+01 1.2500000000000000e+01 1.0000000000000000e+01 0 0 0
4796 1599 3 0.0000000000000000e+00 1.2500000000000000e+01 1.5000000000000000e+01 1.0000000000000000e+01 0 0 0
4797 1599 3 0.0000000000000000e+00 1.5000000000000000e+01 1.5000000000000000e+01 1.0000000000000000e+01 0 0 0
4798 1600 3 0.0000000000000000e+00 1.7500000000000000e+01 1.5000000000000000e+01 1.0000000000000000e+01 0 0 0
4800 1600 3 0.0000000000000000e+00 1.2500000000000000e+01 1.7500000000000000e+01 1.0000000000000000e+01 0 0 0
4801 1601 3 0.0000000000000000e+00 1.5000000000000000e+01 1.7500000000000000e+01 1.0000000000000000e+01 0 0 0
4802 1601 3 0.0000000000000000e+00 1.7500000000000000e+01 1.7500000000000000e+01 1.0000000000000000e+01 0 0 0
4808 1603 3 0.0000000000000000e+00 1.3750000000000000e+01 1.3750000000000000e+01 1.0000000000000000e+01 0 0 0
4809 1603 3 0.0000000000000000e+00 1.6250000000000000e+01 1.3750000000000000e+01 1.0000000000000000e+01 0 0 0
4810 1604 3 0.0000000000000000e+00 1.8750000000000000e+01 1.3750000000000000e+01 1.0000000000000000e+01 0 0 0
4812 1604 3 0.0000000000000000e+00 1.3750000000000000e+01 1.6250000000000000e+01 1.0000000000000000e+01 0 0 0
4813 1605 3 0.0000000000000000e+00 1.6250000000000000e+01 1.6250000000000000e+01 1.0000000000000000e+01 0 0 0
4814 1605 3 0.0000000000000000e+00 1.8750000000000000e+01 1.6250000000000000e+01 1.0000000000000000e+01 0 0 0
4816 1606 3 0.0000000000000000e+00 1.3750000000000000e+01 1.8750000000000000e+01 1.0000000000000000e+01 0 0 0
4817 1606 3 0.0000000000000000e+00 1.6250000000000000e+01 1.8750000000000000e+01 1.0000000000000000e+01 0 0 0
4818 1606 3 0.0000000000000000e+00 1.8750000000000000e+01 1.8750000000000000e+01 1.0000000000000000e+01 0 0 0
4820 1607 3 0.0000000000000000e+00 1.2500000000000000e+01 2.0000000000000000e+01 1.0000000000000000e+01 0 0 0
4821 1607 3 0.0000000000000000e+00 1.5000000000000000e+01 2.0000000000000000e+01 1.0000000000000000e+01 0 0 0
4822 1608 3 0.0000000000000000e+00 1.7500000000000000e+01 2.0000000000000000e+01 1.0000000000000000e+01 0 0 0
4824 1608 3 0.0000000000000000e+00 1.2500000000000000e+01 2.2500000000000000e+01 1.0000000000000000e+01 0 0 0
4825 1609 3 0.0000000000000000e+00 1.5000000000000000e+01 2.2500000000000000e+01 1.0000000000000000e+01 0 0 0
4826 1609 3 0.0000000000000000e+00 1.7500000000000000e+01 2.2500000000000000e+01 1.0000000000000000e+01 0 0 0
4828 1610 3 0.0000000000000000e+00 1.3750000000000000e+01 2.1250000000000000e+01 1.0000000000000000e+01 0 0 0
4829 1610 3 0.0000000000000000e+00 1.6250000000000000e+01 2.1250000000000000e+01 1.0000000000000000e+01 0 0 0
4830 1610 3 0.0000000000000000e+00 1.8750000000000000e+01 2.1250000000000000e+01 1.0000000000000000e+01 0 0 0
4832 1611 3 0.0000000000000000e+00 1.3750000000000000e+01 2.3750000000000000e+01 1.0000000000000000e+01 0 0 0
4833 1611 3 0.0000000000000000e+00 1.6250000000000000e+01 2.3750000000000000e+01 1.0000000000000000e+01 0 0 0
4834 1612 3 0.0000000000000000e+00 1.8750000000000000e+01 2.3750000000000000e+01 1.0000000000000000e+01 0 0 0
4853 1618 3 0.0000000000000000e+00 2.0000000000000000e+01 1.2500000000000000e+01 1.0000000000000000e+01 0 0 0
4854 1618 3 0.0000000000000000e+00 2.2500000000000000e+01 1.2500000000000000e+01 1.0000000000000000e+01 0 0 0
4855 1619 3 0.0000000000000000e+00 2.0000000000000000e+01 1.5000000000000000e+01 1.0000000000000000e+01 0 0 0
4856 1619 3 0.0000000000000000e+00 2.2500000000000000e+01 1.5000000000000000e+01 1.0000000000000000e+01 0 0 0
4857 1619 3 0.0000000000000000e+00 2.0000000000000000e+01 1.7500000000000000e+01 1.0000000000000000e+01 0 0 0
4858 1620 3 0.0000000000000000e+00 2.2500000000000000e+01 1.7500000000000000e+01 1.0000000000000000e+01 0 0 0
4861 1621 3 0.0000000000000000e+00 2.1250000000000000e+01 1.3750000000000000e+01 1.0000000000000000e+01 0 0 0
4862 1621 3 0.0000000000000000e+00 2.3750000000000000e+01 1.3750000000000000e+01 1.0000000000000000e+01 0 0 0
4863 1621 3 0.0000000000000000e+00 2.1250000000000000e+01 1.6250000000000000e+01 1.0000000000000000e+01 0 0 0
4864 1622 3 0.0000000000000000e+00 2.3750000000000000e+01 1.6250000000000000e+01 1.0000000000000000e+01 0 0 0
4865 1622 3 0.0000000000000000e+00 2.1250000000000000e+01 1.8750000000000000e+01 1.0000000000000000e+01 0 0 0
4866 1622 3 0.0000000000000000e+00 2.3750000000000000e+01 1.8750000000000000e+01 1.0000000000000000e+01 0 0 0
4867 1623 3 0.0000000000000000e+00 2.0000000000000000e+01 2.0000000000000000e+01 1.0000000000000000e+01 0 0 0
4868 1623 3 0.0000000000000000e+00 2.2500000000000000e+01 2.0000000000000000e+01 1.0000000000000000e+01 0 0 0
4869 1623 3 0.0000000000000000e+00 2.0000000000000000e+01 2.2500000000000000e+01 1.0000000000000000e+01 0 0 0
4870 1624 3 0.0000000000000000e+00 2.2500000000000000e+01 2.2500000000000000e+01 1.0000000000000000e+01 0 0 0
4871 1624 3 0.0000000000000000e+00 2.1250000000000000e+01 2.1250000000000000e+01 1.0000000000000000e+01 0 0 0
4872 1624 3 0.0000000000000000e+00 2.3750000000000000e+01 2.1250000000000000e+01 1.0000000000000000e+01 0 0 0
4873 1625 3 0.0000000000000000e+00 2.1250000000000000e+01 2.3750000000000000e+01 1.0000000000000000e+01 0 0 0
4874 1625 3 0.0000000000000000e+00 2.3750000000000000e+01 2.3750000000000000e+01 1.0000000000000000e+01 0 0 0
813 271 1 4.1499999999999998e-01 8.7977542587104551e-02 2.1424639362227261e+01 1.2843264389959625e+01 1 0 0
53 18 1 4.1499999999999998e-01 2.0672865960372935e+01 2.2960893254578476e+01 1.3897091611117819e+01 -1 0 0
1958 653 1 4.1499999999999998e-01 2.3274351729379323e+01 1.4772811556071222e+01 1.3666901944018358e+01 -1 0 0
1010 337 1 4.1499999999999998e-01 1.5932929741630474e+01 2.3637737971788674e+01 1.3951210248691510e+01 0 0 0
596 199 1 4.1499999999999998e-01 2.1584342780242651e+00 8.2746960951900981e+00 1.2977083394687938e+01 1 2 0
887 296 1 4.1499999999999998e-01 2.7031562011895303e+00 5.6781158031569916e+00 1.2937121182494037e+01 1 -1 0
1634 545 1 4.1499999999999998e-01 2.8775741054833177e+00 4.4713404092184250e+00 1.5136057073719119e+01 -1 1 0
4125 1375 1 4.1499999999999998e-01 6.9483088385874403e+00 9.6395548577905199e+00 1.3743402930386619e+01 1 0 0
2460 820 1 4.1499999999999998e-01 9.5924913458925580e+00 5.4283095757723299e+00 1.4045804622780008e+01 0 -1 0
3114 1038 1 4.1499999999999998e-01 1.4016188191216381e+00 7.0026634423203147e+00 1.5719595260634220e+01 1 1 0
1821 607 1 4.1499999999999998e-01 3.0685517149775778e+00 2.0293833979503781e+00 1.2896457894361323e+01 1 0 0
3113 1038 1 4.1499999999999998e-01 1.4165874061370576e+00 8.4239281625428752e+00 1.5198368118341691e+01 1 1 0
1635 545 1 4.1499999999999998e-01 2.0080317242252135e+00 4.3140109346648501e+00 1.6365300342939104e+01 -1 1 0
888 296 1 4.1499999999999998e-01 3.9498615721420718e+00 4.8424795064370718e+00 1.3135449236306231e+01 1 -1 0
1853 618 1 4.1499999999999998e-01 4.7171924709874942e+00 9.0418596737265613e+00 1.6316844919057729e+01 0 0 0
1935 645 1 4.1499999999999998e-01 2.7914651438738112e+00 1.0536824476233809e+01 1.8142466448162850e+01 0 0 0
1854 618 1 4.1499999999999998e-01 4.8950644725507813e+00 7.8054192859312632e+00 1.7172106230718953e+01 0 0 0
3512 1171 1 4.1499999999999998e-01 6.2871289168315361e+00 7.4341346963562929e+00 1.3608136397236731e+01 0 1 0
3513 1171 1 4.1499999999999998e-01 5.8691894670516360e+00 8.3286665937405520e+00 1.2460515150699733e+01 0 1 0
2169 723 1 4.1499999999999998e-01 1.4079372141983648e+00 6.9339130839521390e+00 2.0294091968923532e+01 1 0 0
1259 420 1 4.1499999999999998e-01 8.8355576320601681e-01 9.1220840227979441e+00 2.3560353583346092e+01 1 0 0
4076 1359 1 4.1499999999999998e-01 1.3422612726979430e+00 1.4152717966097499e+00 1.4180459650593209e+01 1 -1 0
3217 1073 2 -8.2999999999999996e-01 5.5551415501856578e+00 1.4787334488125127e+01 2.4982505388705473e+01 0 -1 0
2167 723 2 -8.2999999999999996e-01 1.5158274448198317e+00 6.9074760632912868e+00 1.9343359268689383e+01 1 0 0
2168 723 1 4.1499999999999998e-01 1.5485248960732736e+00 5.9746138556449653e+00 1.9131390250460399e+01 1 0 0
973 325 2 -8.2999999999999996e-01 6.5291937392683197e+00 3.2248548264694921e+00 1.7588364100421003e+01 -1 0 0
975 325 1 4.1499999999999998e-01 7.0895578917994628e+00 2.6810128934956077e+00 1.7034775936428385e+01 -1 0 0
974 325 1 4.1499999999999998e-01 6.4380122964582984e+00 2.7265677514138567e+00 1.8400538832743877e+01 -1 0 0
2595 865 1 4.1499999999999998e-01 9.6748699591110585e-02 9.9917043652532254e+00 1.9518576083193270e+01 1 1 0
2593 865 2 -8.2999999999999996e-01 1.0531343601275993e+00 9.9651954851035534e+00 1.9547827651001278e+01 1 1 0
2594 865 1 4.1499999999999998e-01 1.2629089130851758e+00 9.0452045502082630e+00 1.9708585758509440e+01 1 1 0
3670 1224 2 -8.2999999999999996e-01 8.6075361263980241e+00 2.4170658852559637e+00 2.1797235688422170e+01 1 -1 0
1633 545 2 -8.2999999999999996e-01 2.6696601635075847e+00 4.8844864468637228e+00 1.5974099002897455e+01 -1 1 0
3511 1171 2 -8.2999999999999996e-01 5.5517302770177359e+00 7.6243848784715222e+00 1.3025705110310641e+01 0 1 0
1225 409 2 -8.2999999999999996e-01 1.9029778217117023e+01 1.6699430628669273e+01 2.1745243526628236e+01 0 0 0
3112 1038 2 -8.2999999999999996e-01 1.1455500929495697e+00 7.8959033346784766e+00 1.5949341103820823e+01 1 1 0
2719 907 2 -8.2999999999999996e-01 6.6179696072593464e+00 1.2103012539396897e+01 2.3424512244709991e+01 1 1 0
1852 618 2 -8.2999999999999996e-01 5.3878850600107269e+00 8.4751597020357075e+00 1.6697967541464120e+01 0 0 0
4436 1479 1 4.1499999999999998e-01 7.3002404129815899e+00 7.1676697808833847e+00 1.8806629469594238e+01 1 0 0
4435 1479 2 -8.2999999999999996e-01 7.6847561266504210e+00 7.7574554394121860e+00 1.8158144748025951e+01 1 0 0
2425 809 2 -8.2999999999999996e-01 3.6205586164934247e+00 6.6453542577140245e+00 1.7642164345458390e+01 0 0 0
2199 733 1 4.1499999999999998e-01 8.9129962476003861e+00 1.0417945994664660e+01 1.7592187657548884e+01 0 1 0
4437 1479 1 4.1499999999999998e-01 6.9642507328331522e+00 7.9609130872622433e+00 1.7561731407489201e+01 1 0 0
2427 809 1 4.1499999999999998e-01 3.1455687068658542e+00 6.0759913458746055e+00 1.7036819516048961e+01 0 0 0
2426 809 1 4.1499999999999998e-01 2.9774241560631234e+00 7.3024927302815170e+00 1.7908207473819878e+01 0 0 0
898 300 2 -8.2999999999999996e-01 7.3636021270796457e+00 5.3144786864789051e+00 1.5609277403205237e+01 0 0 0
899 300 1 4.1499999999999998e-01 6.8135425558841876e+00 4.7910762069180270e+00 1.6192129990739804e+01 0 0 0
900 300 1 4.1499999999999998e-01 8.0096447176142718e+00 5.7190953805017761e+00 1.6188196061976210e+01 0 0 0
603 201 1 4.1499999999999998e-01 5.4839351330345449e+00 3.0968468243169491e+00 1.2765170412248461e+01 -1 1 0
601 201 2 -8.2999999999999996e-01 5.1740131795557067e+00 2.1925839221028682e+00 1.2815062938817343e+01 -1 1 0
2484 828 1 4.1499999999999998e-01 6.5570351929222195e+00 4.8815979980141435e+00 1.4005634954979165e+01 1 0 0
4650 1550 1 4.1499999999999998e-01 1.0573064429910524e+01 8.6133823480871143e+00 1.6708556841237844e+01 1 0 0
3286 1096 2 -8.2999999999999996e-01 4.9046385247086954e+00 2.5562380436734484e+00 2.3571906925274970e+01 0 0 0
3287 1096 1 4.1499999999999998e-01 4.3706801641741144e+00 2.8428573743472554e+00 2.4312832510937437e+01 0 0 0
2483 828 1 4.1499999999999998e-01 5.6015176224857921e+00 5.7713438056401030e+00 1.3239323160305132e+01 1 0 0
4648 1550 2 -8.2999999999999996e-01 1.1420218490775161e+01 8.4636217077473432e+00 1.6288873820830574e+01 1 0 0
2482 828 2 -8.2999999999999996e-01 5.9447008980429237e+00 4.8783037323295444e+00 1.3269925968866223e+01 1 0 0
1933 645 2 -8.2999999999999996e-01 3.2039052038966389e+00 9.8788997899511273e+00 1.7582769331567775e+01 0 0 0
3793 1265 2 -8.2999999999999996e-01 3.4284042222037048e+00 9.5597354871482167e+00 1.5130745108451448e+01 1 0 0
3794 1265 1 4.1499999999999998e-01 3.1639064982894785e+00 9.7137367351367860e+00 1.6037694078432178e+01 1 0 0
3795 1265 1 4.1499999999999998e-01 2.6659220080511270e+00 9.8154908791737103e+00 1.4611667172616462e+01 1 0 0
886 296 2 -8.2999999999999996e-01 2.9963472653692382e+00 4.7783965718185879e+00 1.3081263905010127e+01 1 -1 0
597 199 1 4.1499999999999998e-01 3.5372655060782239e+00 7.7475748118405381e+00 1.3313034087720354e+01 1 2 0
2831 944 1 4.1499999999999998e-01 8.2914533050161339e+00 7.6379698994903569e+00 1.3642368584204004e+01 1 0 0
2459 820 1 4.1499999999999998e-01 9.9304300266583088e+00 5.0570522538171163e+00 1.2617567737356474e+01 0 -1 0