 Position data for rigid sphere
 
          1280   atoms
          1    atom types
   -240.0      240.0       xlo xhi
   -240.0      240.0       ylo yhi
   -240.0      240.0       zlo zhi
 
  Atoms
 
      1      1     -29.9870017   -68.0418734     1.6025295    
      2      1     -30.0033174   -64.9243200     6.5567567    
      3      1     -22.3362213   -62.4532545     1.5773506    
      4      1     -25.2444112   -66.5158519    -1.4724283     
      5      1     -22.7017726   -63.6855810    -0.6263913    
      6      1     -23.4381400   -64.7144728    -1.3984765    
      7      1     -22.7222435   -63.6858812     0.8297811    
      8      1     -23.4752322   -64.7328243     1.5059138    
      9      1     -23.8060884   -64.5372048     2.8791020    
     10      1     -24.7670831   -65.3394886     3.3684476
     11      1     -24.2029095   -65.7544747    -0.7209441
     12      1     -24.2130383   -65.7626018     0.7372191
     13      1     -25.2309927   -66.5214784     1.4024569
     14      1     -25.4233222   -66.2520679     2.6843369
     15      1     -27.5093471   -67.6887955    -1.3853044
     16      1     -28.7102041   -68.0751445    -0.6070123
     17      1     -26.2832928   -67.2743422    -0.7141642
     18      1     -26.2662636   -67.2626219     0.7439973
     19      1     -28.6979904   -68.0512955     0.8493577
     20      1     -27.4684370   -67.6500925     1.5189699
     21      1     -27.5480306   -67.2710821     2.8912296
     22      1     -26.4892354   -66.5977870     3.3739791
     23      1     -31.2428812   -67.2273370     3.6689021
     24      1     -31.2431288   -66.4387336     4.9231430
     25      1     -29.9902008   -67.6180014     3.0341318
     26      1     -28.7406984   -67.2219225     3.6739613
     27      1     -29.9965844   -66.0312135     5.5555782
     28      1     -28.7446621   -66.4323897     4.9283351
     29      1     -27.5590872   -65.7443507     5.3183058
     30      1     -26.5071476   -65.8898733     4.5110277
     31      1     -28.7426736   -62.9426606     7.5498262
     32      1     -27.5464374   -62.0686507     7.5459069
     33      1     -28.7194039   -64.2448983     6.8978916
     34      1     -27.4845293   -64.6700785     6.2532208
     35      1     -23.4656948   -60.7542522     4.8963206
     36      1     -22.7208317   -61.0026571     3.6398331
     37      1     -22.7327508   -62.3162224     3.0103489
     38      1     -23.4868620   -63.3833218     3.6567970
     39      1     -24.2300907   -61.8171864     5.5358809
     40      1     -24.2318245   -63.1348008     4.9133666
     41      1     -25.2461455   -64.0544126     5.3106123
     42      1     -25.4312346   -65.1039797     4.5073019
     43      1     -25.2789190   -61.4722609     6.5409356
     44      1     -26.3152458   -62.4883588     6.8898950
     45      1     -26.2881915   -63.7960413     6.2492035
     46      1     -22.5945016   -62.4013687    -2.5752707
     47      1     -23.2595457   -63.3304461    -3.2732860
     48      1     -23.7162635   -64.4775407    -2.7760189
     49      1     -22.2926756   -62.4885814    -1.2822284
     50      1     -21.9243344   -61.2687667    -0.6433144
     51      1     -28.8895584   -67.4437159    -3.2554584
     52      1     -29.9734553   -67.7927326    -2.5519818
     53      1     -29.9771794   -68.1029446    -1.2576822
     54      1     -27.6561273   -67.3559272    -2.7634385
     55      1     -26.7209301   -66.6237721    -3.5515265
     56      1     -23.2932016   -58.4645414     4.4610782
     57      1     -22.6203114   -58.6891259     3.3259287
     58      1     -22.3108875   -59.8913987     2.8470601
     59      1     -23.7512826   -59.4107942     5.2769654
     60      1     -24.7437116   -58.9998889     6.2137916
     61      1     -28.9380251   -60.2829585     8.1260163
     62      1     -30.0188853   -61.0726956     8.1295119
     63      1     -30.0146532   -62.3734746     7.8489745
     64      1     -27.7011112   -60.6830746     7.8414614
     65      1     -31.2817556   -62.9498421     7.5429126
     66      1     -33.4874205   -65.9179173     4.4784093
     67      1     -33.4850554   -66.6166960     3.3635874
     68      1     -32.4417842   -67.2767329     2.8856272
     69      1     -32.4380130   -65.7596385     5.3030797
     70      1     -32.5070942   -67.6606293     1.5063975
     71      1     -21.9345953   -61.2360901     0.8132189
     72      1     -21.9336734   -59.9376554     1.4732564
     73      1     -25.4838925   -66.1942421    -2.9113802
     74      1     -24.7013351   -65.1483104    -3.5579553
     75      1     -31.2711633   -68.0568828     0.8430774
     76      1     -31.2483338   -68.0811329    -0.6139630
     77      1     -31.2940713   -64.2523632     6.8907753
     78      1     -32.5239898   -64.6849143     6.2386738
     79      1     -25.5261159   -60.0378566     6.8718938
     80      1     -26.7683388   -59.6520889     7.5283013
     81      1     -30.6937216   -59.0147636     8.1109837
     82      1     -29.3553663   -59.0112060     8.1145999
     83      1     -31.1038563   -60.2887175     8.1202303
     84      1     -32.3371806   -60.6958735     7.8290066
     85      1     -23.2954249   -56.6312836     3.3076305
     86      1     -22.6218064   -57.5559929     2.6132519
     87      1     -23.7103056   -57.1926510     4.4495543
     88      1     -24.6442747   -56.6884723     5.2526172
     89      1     -23.2617310   -61.4967854    -4.4266648
     90      1     -23.6717722   -62.7710621    -4.4175496
     91      1     -22.5960089   -61.2684152    -3.2881660
     92      1     -23.7208926   -60.5525685    -5.2447569
     93      1     -23.4449554   -59.2074290    -4.8624292
     94      1     -24.2119491   -58.1487868    -5.5055856
     95      1     -22.2959004   -60.0637078    -2.8076303
     96      1     -22.7081223   -58.9547541    -3.6022184
     97      1     -22.7310533   -57.6410548    -2.9728417
     98      1     -30.6405313   -66.8874031    -4.4037933
     99      1     -31.0549991   -67.4490114    -3.2617791
    100      1     -28.5385285   -66.1585898    -5.2130480
    101      1     -34.5682887   -65.1273207     4.4812183
    102      1     -34.5479026   -66.2816168     2.6641826
    103      1     -34.7421730   -66.5496695     1.3614776
    104      1     -32.4447793   -67.7008894    -1.3997692
    105      1     -32.2915778   -67.3674837    -2.7764818
    106      1     -33.7017794   -67.2816186     0.7175350
    107      1     -33.6755394   -67.2928969    -0.7376058
    108      1     -33.7250999   -63.8173065     6.2283062
    109      1     -32.4827887   -62.0823805     7.5325593
    110      1     -33.7083242   -62.5089690     6.8697455
    111      1     -27.2300669   -58.2444141     7.5156760
    112      1     -28.5939704   -57.9608819     7.8169735
    113      1     -25.2054527   -57.5921607     6.2011792
    114      1     -26.4540995   -57.2086280     6.8465195
    115      1     -21.9353095   -58.6838327     0.6844466
    116      1     -22.3139765   -57.4664549     1.3214345
    117      1     -22.7267762   -56.2716787     0.6631987
    118      1     -22.7406223   -56.2701552    -0.7935303
    119      1     -23.4968971   -55.2274652    -1.4739610
    120      1     -23.8162867   -55.4293549    -2.8479624
    121      1     -23.4874687   -56.5791763    -3.6228302
    122      1     -24.2242470   -56.8317880    -4.8829403
    123      1     -21.9260197   -60.0150957    -1.4319958
    124      1     -21.9379735   -58.7163942    -0.7720628
    125      1     -22.3430229   -57.5011239    -1.5382836
    126      1     -25.1576803   -64.5291750    -4.8247808
    127      1     -24.5987534   -63.2804369    -5.2254441
    128      1     -25.1601414   -62.3793162    -6.1769426
    129      1     -24.7061483   -60.9688227    -6.1868016
    130      1     -27.1772866   -66.0045964    -4.8184135
    131      1     -26.4011463   -64.9497760    -5.4578353
    132      1     -27.0470133   -64.0701540    -6.4771686
    133      1     -26.4035320   -62.7695283    -6.8289917
    134      1     -34.7199838   -58.5232030    -6.5407049
    135      1     -37.6622077   -57.5426044    -1.5785363
    136      1     -34.7130550   -66.5403824    -1.5001691
    137      1     -32.9008057   -64.0846226    -6.4916239
    138      1     -33.2258144   -66.6403719    -3.5692547
    139      1     -32.7673024   -66.0184912    -4.8331975
    140      1     -34.4669418   -66.2184919    -2.9354363
    141      1     -35.2509044   -65.1784660    -3.5848974
    142      1     -36.2447510   -64.5096952    -2.8117132
    143      1     -36.7037118   -63.3549992    -3.3232853
    144      1     -33.5460948   -64.9676390    -5.4761091
    145      1     -34.7951415   -64.5541977    -4.8482881
    146      1     -35.3692454   -63.3025795    -5.2444417
    147      1     -36.2964528   -62.8003715    -4.4443896
    148      1     -32.7711308   -61.7517636    -7.5161263
    149      1     -33.2315338   -60.3434151    -7.5285624
    150      1     -33.5480861   -62.7875146    -6.8469587
    151      1     -34.7970493   -62.4025138    -6.2013098
    152      1     -34.4724556   -59.9564698    -6.8727900
    153      1     -35.2545636   -60.9938529    -6.2162541
    154      1     -36.2480922   -60.5880018    -5.2778399
    155      1     -36.7051942   -61.5500633    -4.4584382
    156      1     -35.7671087   -56.8628600    -4.9131260
    157      1     -36.5118402   -56.6144771    -3.6570711
    158      1     -35.7688264   -58.1792564    -5.5358406
    159      1     -36.5336136   -59.2426385    -4.8967636
    160      1     -37.2658845   -57.6803648    -3.0110151
    161      1     -37.2784208   -58.9942517    -3.6404749
    162      1     -37.6889679   -60.1052120    -2.8475780
    163      1     -37.3794174   -61.3109299    -3.3265084
    164      1     -38.0751916   -58.7275289     0.6419463
    165      1     -38.0741841   -59.9814887     1.4308061
    166      1     -38.0646570   -58.7596689    -0.8141764
    167      1     -38.0663033   -60.0580998    -1.4735577
    168      1     -36.5048185   -64.7705385     1.4728531
    169      1     -35.7593070   -65.7943666     0.7040559
    170      1     -35.7623570   -65.7851575    -0.7531213
    171      1     -36.5289705   -64.7494041    -1.4337720
    172      1     -37.2608803   -63.7272093     0.7921645
    173      1     -37.2744421   -63.7256271    -0.6649751
    174      1     -37.6869180   -62.5301645    -1.3227078
    175      1     -37.3783955   -62.4388401    -2.6175057
    176      1     -37.6582369   -62.4957936     1.5370162
    177      1     -38.0626446   -61.2802459     0.7711865
    178      1     -38.0652793   -61.3123526    -0.6848335
    179      1     -31.4039275   -66.1653811    -5.2208295
    180      1     -30.6461328   -60.9858136    -8.1148432
    181      1     -31.0627709   -59.7137122    -8.1257956
    182      1     -32.2989714   -59.3128742    -7.8410832
    183      1     -31.4077092   -62.0358841    -7.8175142
    184      1     -30.7141121   -63.2392738    -7.4991430
    185      1     -35.2307185   -65.3545130     3.3479502
    186      1     -36.1856192   -64.5683882     2.8474446
    187      1     -36.5148714   -63.4172801     3.6219669
    188      1     -37.4043479   -58.7290492     3.2863829
    189      1     -37.4052790   -57.5962253     2.5736565
    190      1     -37.7065325   -57.5081451     1.2806300
    191      1     -37.7045984   -59.9331020     2.8061869
    192      1     -37.2968162   -56.3113245     0.6246143
    193      1     -35.2428765   -54.6732572    -3.3731371
    194      1     -34.5700736   -54.8977564    -4.5079413
    195      1     -34.7531949   -55.9434754    -5.3095898
    196      1     -36.1934603   -55.4630434    -2.8804636
    197      1     -33.7115086   -56.2005758    -6.2473255
    198      1     -31.4616845   -64.2960387    -6.8298994
    199      1     -30.7121997   -65.3561279    -6.1680356
    200      1     -33.6842317   -57.5076000    -6.8887136
    201      1     -32.4535526   -57.9274691    -7.5448454
    202      1     -37.2753100   -56.3097647    -0.8318805
    203      1     -36.5212608   -55.2630815    -1.5082299
    204      1     -37.2705475   -62.3556211     2.9715628
    205      1     -37.2929915   -61.0419720     3.6009119
    206      1     -36.3283834   -57.2267906     4.4159789
    207      1     -36.7387556   -58.5005631     4.4250264
    208      1     -36.7403455   -56.6679500     3.2718775
    209      1     -36.2833459   -55.5211586     2.7748048
    210      1     -35.2985224   -54.8507397     3.5567928
    211      1     -34.7610012   -64.0798374     5.2846751
    212      1     -29.3020502   -66.8843877    -4.3997806
    213      1     -28.8973233   -59.7082458    -8.1202820
    214      1     -29.9819437   -58.9244473    -8.1291363
    215      1     -29.3077229   -60.9822025    -8.1114751
    216      1     -27.6642072   -59.3011834    -7.8291586
    217      1     -27.5186504   -57.9148317    -7.5322622
    218      1     -28.7193474   -57.0473878    -7.5420161
    219      1     -28.7067774   -55.7451199    -6.8893808
    220      1     -28.5426443   -62.0284214    -7.8103533
    221      1     -27.1817378   -61.7376663    -7.5018605
    222      1     -26.7275720   -60.3273408    -7.5115950
    223      1     -25.4909602   -59.9349034    -6.8486728
    224      1     -25.2533619   -58.4991555    -6.5158951
    225      1     -26.2932819   -57.4884181    -6.8696575
    226      1     -33.4943397   -53.3958190    -3.3785176
    227      1     -34.5778794   -53.7449173    -2.6752491
    228      1     -33.4895164   -54.1081986    -4.5110917
    229      1     -32.4508329   -52.7288624    -2.8920533
    230      1     -32.4403791   -54.2538301    -5.3165852
    231      1     -31.2546909   -53.5663864    -4.9269020
    232      1     -30.0021942   -53.9666327    -5.5532397
    233      1     -31.2577207   -57.0541122    -7.5485019
    234      1     -29.9861768   -57.6234072    -7.8480324
    235      1     -32.5157368   -55.3269357    -6.2508828
    236      1     -31.2809250   -55.7521273    -6.8959993
    237      1     -29.9966185   -55.0730403    -6.5547734
    238      1     -35.7853645   -54.2356042    -0.7357274
    239      1     -34.7703349   -53.4760674    -1.3864359
    240      1     -33.7356152   -52.7381415    -0.7420157
    241      1     -36.5609396   -55.2838935     1.3972859
    242      1     -35.7963302   -54.2447418     0.7208024
    243      1     -34.7554889   -53.4842076     1.4730144
    244      1     -36.5563260   -60.7893113     4.8612317
    245      1     -36.2800258   -59.4444543     5.2433426
    246      1     -35.7779707   -63.1646471     4.8826284
    247      1     -35.7898093   -61.8477599     5.5048968
    248      1     -34.7482246   -61.4978405     6.5154304
    249      1     -34.5104601   -60.0621700     6.8477647
    250      1     -29.2304292   -65.3526091    -6.1641977
    251      1     -29.2324346   -63.2355021    -7.4954897
    252      1     -28.4832338   -64.2887059    -6.8224936
    253      1     -32.8197993   -58.2595342     7.5006338
    254      1     -33.2739201   -59.6697508     7.5108175
    255      1     -31.4591645   -57.9686340     7.8092502
    256      1     -30.7696956   -56.7616810     7.4940547
    257      1     -34.8406790   -57.6182326     6.1753549
    258      1     -35.4015952   -56.7176679     5.2238935
    259      1     -35.2948821   -59.0283802     6.1854810
    260      1     -33.5977167   -57.2280160     6.8273374
    261      1     -34.8425962   -55.4694163     4.8231805
    262      1     -28.5413697   -55.7009953     6.8286860
    263      1     -29.2882962   -56.7576601     7.4980469
    264      1     -27.1027143   -55.9119541     6.4910410
    265      1     -25.2080544   -55.4431619     4.8489670
    266      1     -26.4566570   -55.0293935     5.4751975
    267      1     -23.7560491   -55.4869070     2.8080360
    268      1     -24.7487209   -54.8219275     3.5849170
    269      1     -23.4724400   -55.2481041     1.4319365
    270      1     -24.2392071   -54.2130649     0.7514282
    271      1     -24.2424835   -54.2040005    -0.7052597
    272      1     -25.2581925   -53.4500446    -1.3613753
    273      1     -25.4425723   -53.7197642    -2.6511296
    274      1     -26.5244800   -53.3765718    -3.3602019
    275      1     -28.5983935   -53.8326383     5.2191135
    276      1     -29.2904809   -54.6415857     6.1663584
    277      1     -27.2348816   -53.9793227     4.8317245
    278      1     -25.5334222   -53.7808948     2.9346909
    279      1     -25.2882458   -53.4582049     1.4980944
    280      1     -26.7754386   -53.3581970     3.5677239
    281      1     -30.7718319   -54.6456282     6.1623839
    282      1     -31.5187450   -55.7090756     6.8206582
    283      1     -32.9543349   -55.9278450     6.4752958
    284      1     -33.5997228   -55.0488970     5.4560582
    285      1     -28.9461299   -52.5499813     3.2598429
    286      1     -29.3611932   -53.1111662     4.4018055
    287      1     -27.7099672   -52.6313170     2.7745733
    288      1     -27.5572393   -52.2980631     1.3975283
    289      1     -26.3262591   -52.7058202     0.7338706
    290      1     -26.3005111   -52.7177079    -0.7224960
    291      1     -31.1117773   -52.5558669     3.2540483
    292      1     -30.6996249   -53.1146887     4.3980689
    293      1     -30.0281620   -52.2068461     2.5506777
    294      1     -32.3451538   -52.6440538     2.7623009
    295      1     -32.4925235   -52.3116544     1.3844368
    296      1     -33.7176261   -52.7261456     0.7143492
    297      1     -31.4631356   -53.8403570     5.2113366
    298      1     -32.8238547   -53.9946501     4.8168054
    299      1     -33.2798144   -53.3760127     3.5504375
    300      1     -34.5161494   -53.8055098     2.9107873
    301      1     -30.0255547   -51.8968783     1.2564882
    302      1     -28.7546192   -51.9183076     0.6125946
    303      1     -28.7328540   -51.9425504    -0.8437083
    304      1     -27.4979969   -52.3378924    -1.5073433
    305      1     -27.5741082   -52.7154238    -2.8792352
    306      1     -28.7604535   -52.7709640    -3.6666825
    307      1     -28.7550485   -53.5595299    -4.9204103
    308      1     -30.0178826   -51.9580997    -1.6023473
    309      1     -30.0130553   -52.3817224    -3.0334259
    310      1     -31.2601479   -52.7778050    -3.6731354
    311      1     -31.3070416   -51.9496381    -0.8504779
    312      1     -32.5361909   -52.3517565    -1.5205601
    313      1     -31.2930984   -51.9252993     0.6058892
    314      1     -25.4344381   -54.8726298    -4.4839398
    315      1     -26.5192954   -54.0891914    -4.4929983
    316      1     -24.7687001   -54.6445453    -3.3455349
    317      1     -25.2411312   -55.9177595    -5.2847400
    318      1     -26.2766077   -56.1806220    -6.2280574
    319      1     -27.4774798   -55.3133545    -6.2379678
    320      1     -27.5635309   -54.2405222    -5.3039636
    321      1     -29.9870017    51.9581266     1.6025295
    322      1     -30.0033174    55.0756800     6.5567567
    323      1     -22.3362213    57.5467455     1.5773506
    324      1     -25.2444112    53.4841481    -1.4724283
    325      1     -22.7017726    56.3144190    -0.6263913
    326      1     -23.4381400    55.2855272    -1.3984765
    327      1     -22.7222435    56.3141188     0.8297811
    328      1     -23.4752322    55.2671757     1.5059138
    329      1     -23.8060884    55.4627952     2.8791020
    330      1     -24.7670831    54.6605114     3.3684476
    331      1     -24.2029095    54.2455253    -0.7209441
    332      1     -24.2130383    54.2373982     0.7372191
    333      1     -25.2309927    53.4785216     1.4024569
    334      1     -25.4233222    53.7479321     2.6843369
    335      1     -27.5093471    52.3112045    -1.3853044
    336      1     -28.7102041    51.9248555    -0.6070123
    337      1     -26.2832928    52.7256578    -0.7141642
    338      1     -26.2662636    52.7373781     0.7439973
    339      1     -28.6979904    51.9487045     0.8493577
    340      1     -27.4684370    52.3499075     1.5189699
    341      1     -27.5480306    52.7289179     2.8912296
    342      1     -26.4892354    53.4022130     3.3739791
    343      1     -31.2428812    52.7726630     3.6689021
    344      1     -31.2431288    53.5612664     4.9231430
    345      1     -29.9902008    52.3819986     3.0341318
    346      1     -28.7406984    52.7780775     3.6739613
    347      1     -29.9965844    53.9687865     5.5555782
    348      1     -28.7446621    53.5676103     4.9283351
    349      1     -27.5590872    54.2556493     5.3183058
    350      1     -26.5071476    54.1101267     4.5110277
    351      1     -28.7426736    57.0573394     7.5498262
    352      1     -27.5464374    57.9313493     7.5459069
    353      1     -28.7194039    55.7551017     6.8978916
    354      1     -27.4845293    55.3299215     6.2532208
    355      1     -23.4656948    59.2457478     4.8963206
    356      1     -22.7208317    58.9973429     3.6398331
    357      1     -22.7327508    57.6837776     3.0103489
    358      1     -23.4868620    56.6166782     3.6567970
    359      1     -24.2300907    58.1828136     5.5358809
    360      1     -24.2318245    56.8651992     4.9133666
    361      1     -25.2461455    55.9455874     5.3106123
    362      1     -25.4312346    54.8960203     4.5073019
    363      1     -25.2789190    58.5277391     6.5409356
    364      1     -26.3152458    57.5116412     6.8898950
    365      1     -26.2881915    56.2039587     6.2492035
    366      1     -22.5945016    57.5986313    -2.5752707
    367      1     -23.2595457    56.6695539    -3.2732860
    368      1     -23.7162635    55.5224593    -2.7760189
    369      1     -22.2926756    57.5114186    -1.2822284
    370      1     -21.9243344    58.7312333    -0.6433144
    371      1     -28.8895584    52.5562841    -3.2554584
    372      1     -29.9734553    52.2072674    -2.5519818
    373      1     -29.9771794    51.8970554    -1.2576822
    374      1     -27.6561273    52.6440728    -2.7634385
    375      1     -26.7209301    53.3762279    -3.5515265
    376      1     -23.2932016    61.5354586     4.4610782
    377      1     -22.6203114    61.3108741     3.3259287
    378      1     -22.3108875    60.1086013     2.8470601
    379      1     -23.7512826    60.5892058     5.2769654
    380      1     -24.7437116    61.0001111     6.2137916
    381      1     -28.9380251    59.7170415     8.1260163
    382      1     -30.0188853    58.9273044     8.1295119
    383      1     -30.0146532    57.6265254     7.8489745
    384      1     -27.7011112    59.3169254     7.8414614
    385      1     -31.2817556    57.0501579     7.5429126
    386      1     -33.4874205    54.0820827     4.4784093
    387      1     -33.4850554    53.3833040     3.3635874
    388      1     -32.4417842    52.7232671     2.8856272
    389      1     -32.4380130    54.2403615     5.3030797
    390      1     -32.5070942    52.3393707     1.5063975
    391      1     -21.9345953    58.7639099     0.8132189
    392      1     -21.9336734    60.0623446     1.4732564
    393      1     -25.4838925    53.8057579    -2.9113802
    394      1     -24.7013351    54.8516896    -3.5579553
    395      1     -31.2711633    51.9431172     0.8430774
    396      1     -31.2483338    51.9188671    -0.6139630
    397      1     -31.2940713    55.7476368     6.8907753
    398      1     -32.5239898    55.3150857     6.2386738
    399      1     -25.5261159    59.9621434     6.8718938
    400      1     -26.7683388    60.3479111     7.5283013
    401      1     -30.6937216    60.9852364     8.1109837
    402      1     -29.3553663    60.9887940     8.1145999
    403      1     -31.1038563    59.7112825     8.1202303
    404      1     -32.3371806    59.3041265     7.8290066
    405      1     -23.2954249    63.3687164     3.3076305
    406      1     -22.6218064    62.4440071     2.6132519
    407      1     -23.7103056    62.8073490     4.4495543
    408      1     -24.6442747    63.3115277     5.2526172
    409      1     -23.2617310    58.5032146    -4.4266648
    410      1     -23.6717722    57.2289379    -4.4175496
    411      1     -22.5960089    58.7315848    -3.2881660
    412      1     -23.7208926    59.4474315    -5.2447569
    413      1     -23.4449554    60.7925710    -4.8624292
    414      1     -24.2119491    61.8512132    -5.5055856
    415      1     -22.2959004    59.9362922    -2.8076303
    416      1     -22.7081223    61.0452459    -3.6022184
    417      1     -22.7310533    62.3589452    -2.9728417
    418      1     -30.6405313    53.1125969    -4.4037933
    419      1     -31.0549991    52.5509886    -3.2617791
    420      1     -28.5385285    53.8414102    -5.2130480
    421      1     -34.5682887    54.8726793     4.4812183
    422      1     -34.5479026    53.7183832     2.6641826
    423      1     -34.7421730    53.4503305     1.3614776
    424      1     -32.4447793    52.2991106    -1.3997692
    425      1     -32.2915778    52.6325163    -2.7764818
    426      1     -33.7017794    52.7183814     0.7175350
    427      1     -33.6755394    52.7071031    -0.7376058
    428      1     -33.7250999    56.1826935     6.2283062
    429      1     -32.4827887    57.9176195     7.5325593
    430      1     -33.7083242    57.4910310     6.8697455
    431      1     -27.2300669    61.7555859     7.5156760
    432      1     -28.5939704    62.0391181     7.8169735
    433      1     -25.2054527    62.4078393     6.2011792
    434      1     -26.4540995    62.7913720     6.8465195
    435      1     -21.9353095    61.3161673     0.6844466
    436      1     -22.3139765    62.5335451     1.3214345
    437      1     -22.7267762    63.7283213     0.6631987
    438      1     -22.7406223    63.7298448    -0.7935303
    439      1     -23.4968971    64.7725348    -1.4739610
    440      1     -23.8162867    64.5706451    -2.8479624
    441      1     -23.4874687    63.4208237    -3.6228302
    442      1     -24.2242470    63.1682120    -4.8829403
    443      1     -21.9260197    59.9849043    -1.4319958
    444      1     -21.9379735    61.2836058    -0.7720628
    445      1     -22.3430229    62.4988761    -1.5382836
    446      1     -25.1576803    55.4708250    -4.8247808
    447      1     -24.5987534    56.7195631    -5.2254441
    448      1     -25.1601414    57.6206838    -6.1769426
    449      1     -24.7061483    59.0311773    -6.1868016
    450      1     -27.1772866    53.9954036    -4.8184135
    451      1     -26.4011463    55.0502240    -5.4578353
    452      1     -27.0470133    55.9298460    -6.4771686
    453      1     -26.4035320    57.2304717    -6.8289917
    454      1     -34.7199838    61.4767970    -6.5407049
    455      1     -37.6622077    62.4573956    -1.5785363
    456      1     -34.7130550    53.4596176    -1.5001691
    457      1     -32.9008057    55.9153774    -6.4916239
    458      1     -33.2258144    53.3596281    -3.5692547
    459      1     -32.7673024    53.9815088    -4.8331975
    460      1     -34.4669418    53.7815081    -2.9354363
    461      1     -35.2509044    54.8215340    -3.5848974
    462      1     -36.2447510    55.4903048    -2.8117132
    463      1     -36.7037118    56.6450008    -3.3232853
    464      1     -33.5460948    55.0323610    -5.4761091
    465      1     -34.7951415    55.4458023    -4.8482881
    466      1     -35.3692454    56.6974205    -5.2444417
    467      1     -36.2964528    57.1996285    -4.4443896
    468      1     -32.7711308    58.2482364    -7.5161263
    469      1     -33.2315338    59.6565849    -7.5285624
    470      1     -33.5480861    57.2124854    -6.8469587
    471      1     -34.7970493    57.5974862    -6.2013098
    472      1     -34.4724556    60.0435302    -6.8727900
    473      1     -35.2545636    59.0061471    -6.2162541
    474      1     -36.2480922    59.4119982    -5.2778399
    475      1     -36.7051942    58.4499367    -4.4584382
    476      1     -35.7671087    63.1371400    -4.9131260
    477      1     -36.5118402    63.3855229    -3.6570711
    478      1     -35.7688264    61.8207436    -5.5358406
    479      1     -36.5336136    60.7573615    -4.8967636
    480      1     -37.2658845    62.3196352    -3.0110151
    481      1     -37.2784208    61.0057483    -3.6404749
    482      1     -37.6889679    59.8947880    -2.8475780
    483      1     -37.3794174    58.6890701    -3.3265084
    484      1     -38.0751916    61.2724711     0.6419463
    485      1     -38.0741841    60.0185113     1.4308061
    486      1     -38.0646570    61.2403311    -0.8141764
    487      1     -38.0663033    59.9419002    -1.4735577
    488      1     -36.5048185    55.2294615     1.4728531
    489      1     -35.7593070    54.2056334     0.7040559
    490      1     -35.7623570    54.2148425    -0.7531213
    491      1     -36.5289705    55.2505959    -1.4337720
    492      1     -37.2608803    56.2727907     0.7921645
    493      1     -37.2744421    56.2743729    -0.6649751
    494      1     -37.6869180    57.4698355    -1.3227078
    495      1     -37.3783955    57.5611599    -2.6175057
    496      1     -37.6582369    57.5042064     1.5370162
    497      1     -38.0626446    58.7197541     0.7711865
    498      1     -38.0652793    58.6876474    -0.6848335
    499      1     -31.4039275    53.8346189    -5.2208295
    500      1     -30.6461328    59.0141864    -8.1148432
    501      1     -31.0627709    60.2862878    -8.1257956
    502      1     -32.2989714    60.6871258    -7.8410832
    503      1     -31.4077092    57.9641159    -7.8175142
    504      1     -30.7141121    56.7607262    -7.4991430