LAMMPS (22 Feb 2013)
Reading data file ...
  orthogonal box = (-240 -240 -240) to (240 240 240)
  2 by 2 by 4 MPI processor grid
  1280 atoms
320 atoms in group sphere1
320 atoms in group sphere2
320 atoms in group sphere3
320 atoms in group sphere4
Using a lattice-Boltzmann grid of 120 by 120 by 120 total grid points. (fix_lb_fluid.cpp:341)
Not adding the fluid force to any of the MD particles.  To add this force use one of the viscous_lb, pc, or rigid_pc_
sphere fixes (fix_lb_fluid.cpp:562)
Setting up run ...
Memory usage per processor = 6.53706 Mbytes
Step Temp E_pair E_mol TotEng Press 
       0    2416.2089            0            0        0.064 3.8580247e-10 
-------------------------------------------------------------------------------
     F_x          F_y          F_z          T_x          T_y          T_z
-------------------------------------------------------------------------------
-2.519437E-07 -3.378353E-02 2.983770E-07 5.859648E-06 3.493830E-07 5.806391E-05
-5.530843E-05 -3.051145E-02 1.997893E-07 4.973072E-06 7.167843E-08 2.809871E-04
-1.939592E-04 -2.807935E-02 1.642334E-07 4.760856E-06 1.002415E-07 7.940888E-04
-8.391894E-05 -2.706192E-02 1.386348E-07 4.462179E-06 1.430773E-07 1.389692E-03
-1.426966E-04 -2.635752E-02 1.303755E-07 4.316115E-06 1.553444E-07 1.955670E-03
-1.515396E-04 -2.577746E-02 1.227236E-07 4.192716E-06 1.770745E-07 2.450775E-03
-1.566915E-04 -2.547952E-02 1.170495E-07 4.123089E-06 1.968722E-07 2.872602E-03
-1.699270E-04 -2.497708E-02 1.136776E-07 3.999827E-06 2.038818E-07 3.229582E-03
-1.812706E-04 -2.448195E-02 1.074963E-07 3.895607E-06 2.149994E-07 3.531468E-03
-2.183610E-04 -2.414374E-02 1.041669E-07 3.819743E-06 2.214265E-07 3.786909E-03
-2.555306E-04 -2.417647E-02 1.035995E-07 3.801660E-06 2.263597E-07 4.002174E-03
-2.472868E-04 -2.405686E-02 1.021773E-07 3.764431E-06 2.332926E-07 4.184002E-03
-2.202241E-04 -2.368267E-02 9.921002E-08 3.682337E-06 2.387597E-07 4.339805E-03
-2.483179E-04 -2.332147E-02 9.522375E-08 3.594806E-06 2.415726E-07 4.474868E-03
-2.887538E-04 -2.342079E-02 9.491443E-08 3.587415E-06 2.431543E-07 4.590861E-03
-2.917185E-04 -2.341012E-02 9.554988E-08 3.574083E-06 2.424370E-07 4.689846E-03
-2.863748E-04 -2.316295E-02 9.325752E-08 3.519951E-06 2.475387E-07 4.775763E-03
-2.934840E-04 -2.305369E-02 9.134142E-08 3.475399E-06 2.516953E-07 4.851498E-03
-3.224068E-04 -2.301228E-02 9.104302E-08 3.450937E-06 2.488964E-07 4.918073E-03
-3.422419E-04 -2.291158E-02 9.048229E-08 3.424375E-06 2.496289E-07 4.976497E-03
-3.343084E-04 -2.276687E-02 8.920881E-08 3.380147E-06 2.516701E-07 5.028075E-03
-3.384333E-04 -2.262044E-02 8.760228E-08 3.333983E-06 2.519311E-07 5.073672E-03
-3.433771E-04 -2.256980E-02 8.663657E-08 3.304084E-06 2.520548E-07 5.113501E-03
-3.435318E-04 -2.255829E-02 8.633857E-08 3.280324E-06 2.518216E-07 5.148003E-03
-3.574132E-04 -2.255052E-02 8.585965E-08 3.261010E-06 2.529137E-07 5.178016E-03
-3.838327E-04 -2.257984E-02 8.605010E-08 3.253611E-06 2.535921E-07 5.204618E-03
-3.991720E-04 -2.254379E-02 8.613565E-08 3.237672E-06 2.540567E-07 5.229020E-03
-3.942000E-04 -2.242084E-02 8.503718E-08 3.202697E-06 2.560793E-07 5.252009E-03
-3.799420E-04 -2.230863E-02 8.357271E-08 3.161289E-06 2.573156E-07 5.273557E-03
-3.768567E-04 -2.224423E-02 8.260452E-08 3.124580E-06 2.563506E-07 5.293028E-03
-3.923945E-04 -2.221280E-02 8.225605E-08 3.098634E-06 2.549323E-07 5.309852E-03
-4.139452E-04 -2.219204E-02 8.224727E-08 3.080926E-06 2.541078E-07 5.324156E-03
-4.261747E-04 -2.218304E-02 8.209943E-08 3.065950E-06 2.550151E-07 5.336557E-03
-4.269626E-04 -2.220469E-02 8.187057E-08 3.052863E-06 2.571133E-07 5.347625E-03
-4.250393E-04 -2.220795E-02 8.170399E-08 3.035771E-06 2.582698E-07 5.357852E-03
-4.212343E-04 -2.212714E-02 8.109244E-08 3.005662E-06 2.585366E-07 5.367727E-03
-4.172401E-04 -2.201900E-02 7.996913E-08 2.968531E-06 2.587871E-07 5.377380E-03
-4.240780E-04 -2.201175E-02 7.931326E-08 2.944866E-06 2.591419E-07 5.386253E-03
-4.434888E-04 -2.209624E-02 7.973155E-08 2.939771E-06 2.591891E-07 5.393722E-03
-4.582252E-04 -2.211396E-02 8.017624E-08 2.930734E-06 2.595122E-07 5.400131E-03
-4.549000E-04 -2.200275E-02 7.943270E-08 2.900493E-06 2.609308E-07 5.406486E-03
-4.445557E-04 -2.188771E-02 7.803960E-08 2.862056E-06 2.623005E-07 5.413086E-03
-4.443542E-04 -2.187904E-02 7.731518E-08 2.836202E-06 2.622636E-07 5.419125E-03
-4.537794E-04 -2.192827E-02 7.740051E-08 2.822870E-06 2.616729E-07 5.423832E-03
-4.612277E-04 -2.193507E-02 7.740288E-08 2.808264E-06 2.620898E-07 5.427432E-03
-4.626903E-04 -2.189575E-02 7.687943E-08 2.787497E-06 2.634995E-07 5.430724E-03
-4.641432E-04 -2.188369E-02 7.629682E-08 2.768318E-06 2.649497E-07 5.434113E-03
-4.696760E-04 -2.192082E-02 7.612111E-08 2.755916E-06 2.659741E-07 5.437462E-03
-4.752137E-04 -2.193710E-02 7.605677E-08 2.742554E-06 2.666728E-07 5.440717E-03
-4.758634E-04 -2.187455E-02 7.550513E-08 2.717800E-06 2.671540E-07 5.444161E-03
-4.739256E-04 -2.177842E-02 7.448355E-08 2.684858E-06 2.673697E-07 5.447875E-03
-4.745887E-04 -2.173828E-02 7.364804E-08 2.657380E-06 2.673175E-07 5.451327E-03
-4.778931E-04 -2.176478E-02 7.335191E-08 2.639951E-06 2.671533E-07 5.453849E-03
-4.811919E-04 -2.179125E-02 7.320532E-08 2.624479E-06 2.672886E-07 5.455379E-03
-4.852220E-04 -2.178896E-02 7.280710E-08 2.606014E-06 2.681017E-07 5.456463E-03
-4.912405E-04 -2.179018E-02 7.233023E-08 2.587918E-06 2.692730E-07 5.457625E-03
-4.955278E-04 -2.180072E-02 7.195362E-08 2.570522E-06 2.702309E-07 5.459051E-03
-4.934112E-04 -2.178682E-02 7.142595E-08 2.548287E-06 2.709992E-07 5.460768E-03
-4.876524E-04 -2.174551E-02 7.060686E-08 2.519722E-06 2.716123E-07 5.462747E-03
-4.864472E-04 -2.171238E-02 6.981803E-08 2.490853E-06 2.717689E-07 5.464779E-03
-4.931371E-04 -2.170641E-02 6.933398E-08 2.466998E-06 2.716687E-07 5.466524E-03
-5.027199E-04 -2.171349E-02 6.904664E-08 2.447391E-06 2.719870E-07 5.467805E-03
-5.080980E-04 -2.171300E-02 6.869728E-08 2.427537E-06 2.728868E-07 5.468739E-03
-5.067614E-04 -2.169668E-02 6.815998E-08 2.404020E-06 2.738728E-07 5.469576E-03
-5.018409E-04 -2.167345E-02 6.751510E-08 2.377630E-06 2.745329E-07 5.470442E-03
-4.985637E-04 -2.166235E-02 6.694149E-08 2.352036E-06 2.748873E-07 5.471266E-03
-5.002052E-04 -2.167119E-02 6.658260E-08 2.330153E-06 2.751587E-07 5.471912E-03
-5.062894E-04 -2.168929E-02 6.639749E-08 2.311786E-06 2.756650E-07 5.472378E-03
-5.131414E-04 -2.170248E-02 6.623868E-08 2.294618E-06 2.765672E-07 5.472838E-03
-5.164982E-04 -2.170021E-02 6.598864E-08 2.275617E-06 2.775887E-07 5.473514E-03
-5.150491E-04 -2.167530E-02 6.558649E-08 2.252423E-06 2.782799E-07 5.474513E-03
-5.116148E-04 -2.163422E-02 6.506803E-08 2.225594E-06 2.784457E-07 5.475733E-03
-5.102255E-04 -2.159948E-02 6.458989E-08 2.198931E-06 2.782233E-07 5.476885E-03
-5.123131E-04 -2.159035E-02 6.430186E-08 2.176333E-06 2.779827E-07 5.477638E-03
-5.162370E-04 -2.160667E-02 6.421249E-08 2.158690E-06 2.781077E-07 5.477840E-03
-5.196999E-04 -2.163240E-02 6.421343E-08 2.143866E-06 2.786955E-07 5.477634E-03
-5.215406E-04 -2.164934E-02 6.418330E-08 2.128840E-06 2.795142E-07 5.477370E-03
-5.217861E-04 -2.164909E-02 6.406114E-08 2.111732E-06 2.802469E-07 5.477385E-03
-5.212845E-04 -2.163611E-02 6.386998E-08 2.092569E-06 2.806926E-07 5.477817E-03
-5.211866E-04 -2.161968E-02 6.368356E-08 2.072587E-06 2.808062E-07 5.478566E-03
-5.219931E-04 -2.160351E-02 6.355393E-08 2.052775E-06 2.806655E-07 5.479411E-03
-5.232480E-04 -2.158653E-02 6.346757E-08 2.033469E-06 2.804233E-07 5.480151E-03
-5.245211E-04 -2.157247E-02 6.341194E-08 2.015173E-06 2.802304E-07 5.480666E-03
-5.261440E-04 -2.157027E-02 6.342532E-08 1.998943E-06 2.801598E-07 5.480904E-03
-5.283506E-04 -2.158110E-02 6.354137E-08 1.985103E-06 2.802030E-07 5.480881E-03
-5.301669E-04 -2.159237E-02 6.371373E-08 1.972140E-06 2.803214E-07 5.480717E-03
-5.301834E-04 -2.159154E-02 6.384567E-08 1.958119E-06 2.804442E-07 5.480601E-03
-5.285529E-04 -2.158190E-02 6.392231E-08 1.942919E-06 2.804664E-07 5.480667E-03
-5.273905E-04 -2.157724E-02 6.404550E-08 1.928233E-06 2.803226E-07 5.480897E-03
-5.286806E-04 -2.158241E-02 6.429847E-08 1.915363E-06 2.800595E-07 5.481182E-03
-5.321360E-04 -2.158699E-02 6.463442E-08 1.903781E-06 2.798010E-07 5.481460E-03
-5.355072E-04 -2.157941E-02 6.494944E-08 1.891873E-06 2.796115E-07 5.481769E-03
-5.367490E-04 -2.156099E-02 6.517724E-08 1.878598E-06 2.794552E-07 5.482151E-03
-5.355984E-04 -2.154249E-02 6.535691E-08 1.864217E-06 2.792273E-07 5.482545E-03
-5.334740E-04 -2.153225E-02 6.556285E-08 1.849900E-06 2.788886E-07 5.482811E-03
-5.324017E-04 -2.153235E-02 6.582671E-08 1.836730E-06 2.785645E-07 5.482839E-03
-5.337233E-04 -2.154241E-02 6.615903E-08 1.825462E-06 2.784568E-07 5.482629E-03
-5.370420E-04 -2.155969E-02 6.655110E-08 1.816119E-06 2.786763E-07 5.482297E-03
-5.402804E-04 -2.157562E-02 6.694814E-08 1.807342E-06 2.791849E-07 5.482024E-03
-5.413217E-04 -2.157846E-02 6.727336E-08 1.797001E-06 2.797757E-07 5.481990E-03
-5.399370E-04 -2.156354E-02 6.748877E-08 1.783946E-06 2.801921E-07 5.482281E-03
-5.379690E-04 -2.153904E-02 6.764833E-08 1.769160E-06 2.803070E-07 5.482819E-03
-5.375278E-04 -2.151925E-02 6.785529E-08 1.754932E-06 2.802266E-07 5.483382E-03
-5.391359E-04 -2.151279E-02 6.817383E-08 1.742980E-06 2.802227E-07 5.483730E-03
-5.416111E-04 -2.151801E-02 6.857895E-08 1.733378E-06 2.805203E-07 5.483749E-03
-5.434146E-04 -2.152792E-02 6.899417E-08 1.725008E-06 2.811796E-07 5.483503E-03
-5.438823E-04 -2.153651E-02 6.936191E-08 1.716647E-06 2.821049E-07 5.483164E-03
-5.433934E-04 -2.154088E-02 6.967594E-08 1.707730E-06 2.831271E-07 5.482905E-03
-5.427888E-04 -2.154069E-02 6.993462E-08 1.698054E-06 2.841636E-07 5.482818E-03
-5.427445E-04 -2.153739E-02 7.016169E-08 1.687988E-06 2.852127E-07 5.482909E-03
-5.434480E-04 -2.153292E-02 7.037211E-08 1.677943E-06 2.863241E-07 5.483121E-03
-5.446224E-04 -2.152807E-02 7.056414E-08 1.668100E-06 2.875378E-07 5.483379E-03
-5.458163E-04 -2.152230E-02 7.071443E-08 1.658481E-06 2.888516E-07 5.483618E-03
-5.467061E-04 -2.151555E-02 7.082344E-08 1.649010E-06 2.902617E-07 5.483800E-03
-5.471672E-04 -2.150937E-02 7.088941E-08 1.639868E-06 2.917151E-07 5.483898E-03
-5.471870E-04 -2.150602E-02 7.091441E-08 1.631314E-06 2.932088E-07 5.483896E-03
-5.468838E-04 -2.150684E-02 7.091408E-08 1.623491E-06 2.947501E-07 5.483790E-03
-5.466172E-04 -2.151170E-02 7.088844E-08 1.616429E-06 2.963596E-07 5.483608E-03
-5.468935E-04 -2.151930E-02 7.083176E-08 1.609995E-06 2.980621E-07 5.483405E-03
-5.479689E-04 -2.152707E-02 7.075010E-08 1.604042E-06 2.998407E-07 5.483252E-03
-5.495063E-04 -2.153123E-02 7.063589E-08 1.598306E-06 3.016256E-07 5.483219E-03
-5.507064E-04 -2.152800E-02 7.045898E-08 1.592240E-06 3.033539E-07 5.483345E-03
-5.509057E-04 -2.151647E-02 7.022321E-08 1.585795E-06 3.049314E-07 5.483615E-03
-5.501594E-04 -2.150077E-02 6.994893E-08 1.579369E-06 3.063149E-07 5.483944E-03
-5.492851E-04 -2.148866E-02 6.968633E-08 1.573835E-06 3.075429E-07 5.484204E-03
-5.492601E-04 -2.148657E-02 6.947997E-08 1.569962E-06 3.087379E-07 5.484273E-03
-5.504235E-04 -2.149494E-02 6.932637E-08 1.567914E-06 3.100166E-07 5.484111E-03
-5.521574E-04 -2.150802E-02 6.917637E-08 1.567039E-06 3.114464E-07 5.483791E-03
-5.533728E-04 -2.151823E-02 6.898599E-08 1.566485E-06 3.129761E-07 5.483468E-03
-5.534139E-04 -2.152104E-02 6.875361E-08 1.565946E-06 3.144208E-07 5.483290E-03
-5.525869E-04 -2.151675E-02 6.851091E-08 1.565615E-06 3.156118E-07 5.483326E-03
-5.518561E-04 -2.150867E-02 6.828246E-08 1.565851E-06 3.164898E-07 5.483535E-03
-5.520202E-04 -2.150049E-02 6.808709E-08 1.567101E-06 3.170970E-07 5.483811E-03
-5.531126E-04 -2.149469E-02 6.793190E-08 1.569660E-06 3.175542E-07 5.484041E-03
-5.544725E-04 -2.149216E-02 6.780961E-08 1.573564E-06 3.179564E-07 5.484155E-03
-5.553216E-04 -2.149228E-02 6.770559E-08 1.578631E-06 3.183249E-07 5.484138E-03
-5.553375E-04 -2.149370E-02 6.760818E-08 1.584598E-06 3.186211E-07 5.484024E-03
-5.548221E-04 -2.149556E-02 6.751589E-08 1.591319E-06 3.187968E-07 5.483864E-03
-5.544084E-04 -2.149824E-02 6.743887E-08 1.598836E-06 3.188360E-07 5.483705E-03
-5.545688E-04 -2.150226E-02 6.739151E-08 1.607247E-06 3.187546E-07 5.483579E-03
-5.553045E-04 -2.150664E-02 6.736676E-08 1.616449E-06 3.185720E-07 5.483512E-03
-5.562293E-04 -2.150870E-02 6.734574E-08 1.626136E-06 3.182851E-07 5.483522E-03
-5.569186E-04 -2.150610E-02 6.731167E-08 1.636000E-06 3.178576E-07 5.483622E-03
-5.571935E-04 -2.149893E-02 6.726492E-08 1.645988E-06 3.172455E-07 5.483795E-03
-5.571442E-04 -2.149001E-02 6.723073E-08 1.656387E-06 3.164410E-07 5.483988E-03
-5.569801E-04 -2.148316E-02 6.723097E-08 1.667568E-06 3.154739E-07 5.484126E-03
-5.569064E-04 -2.148122E-02 6.727843E-08 1.679812E-06 3.144069E-07 5.484145E-03
-5.570808E-04 -2.148496E-02 6.737412E-08 1.693197E-06 3.133024E-07 5.484025E-03
-5.575704E-04 -2.149284E-02 6.750786E-08 1.707567E-06 3.121916E-07 5.483805E-03
-5.582784E-04 -2.150153E-02 6.766087E-08 1.722566E-06 3.110628E-07 5.483570E-03
-5.589404E-04 -2.150716E-02 6.781208E-08 1.737760E-06 3.098674E-07 5.483411E-03
-5.592702E-04 -2.150707E-02 6.794801E-08 1.752822E-06 3.085386E-07 5.483394E-03
-5.591783E-04 -2.150128E-02 6.807150E-08 1.767700E-06 3.070177E-07 5.483523E-03
-5.588764E-04 -2.149248E-02 6.820169E-08 1.782651E-06 3.052817E-07 5.483743E-03
-5.587518E-04 -2.148469E-02 6.835433E-08 1.798196E-06 3.033513E-07 5.483958E-03
-5.590853E-04 -2.148105E-02 6.854729E-08 1.814741E-06 3.012909E-07 5.484078E-03
-5.598228E-04 -2.148243E-02 6.878400E-08 1.832352E-06 2.991766E-07 5.484058E-03
-5.605916E-04 -2.148722E-02 6.904966E-08 1.850815E-06 2.970542E-07 5.483916E-03
-5.609754E-04 -2.149264E-02 6.933070E-08 1.869711E-06 2.949197E-07 5.483716E-03
-5.608442E-04 -2.149650E-02 6.962222E-08 1.888631E-06 2.927257E-07 5.483538E-03
-5.604692E-04 -2.149813E-02 6.992232E-08 1.907491E-06 2.904063E-07 5.483437E-03
-5.603135E-04 -2.149809E-02 7.024797E-08 1.926302E-06 2.879307E-07 5.483430E-03
-5.606633E-04 -2.149701E-02 7.061581E-08 1.945039E-06 2.853281E-07 5.483498E-03
-5.614048E-04 -2.149490E-02 7.101853E-08 1.963746E-06 2.826286E-07 5.483608E-03
-5.621267E-04 -2.149148E-02 7.145040E-08 1.982366E-06 2.799146E-07 5.483726E-03
-5.624524E-04 -2.148714E-02 7.191238E-08 2.000913E-06 2.772274E-07 5.483823E-03
-5.623225E-04 -2.148334E-02 7.241364E-08 2.019541E-06 2.745779E-07 5.483870E-03
-5.620128E-04 -2.148198E-02 7.296627E-08 2.038513E-06 2.719522E-07 5.483848E-03
-5.618982E-04 -2.148423E-02 7.357732E-08 2.058038E-06 2.693549E-07 5.483748E-03
-5.621722E-04 -2.148961E-02 7.424470E-08 2.078126E-06 2.668085E-07 5.483592E-03
-5.627354E-04 -2.149600E-02 7.495421E-08 2.098569E-06 2.643275E-07 5.483426E-03
-5.633092E-04 -2.150061E-02 7.568692E-08 2.119037E-06 2.619005E-07 5.483311E-03
-5.636536E-04 -2.150130E-02 7.642930E-08 2.139253E-06 2.594882E-07 5.483292E-03
-5.637143E-04 -2.149763E-02 7.718015E-08 2.159154E-06 2.570402E-07 5.483378E-03
-5.636175E-04 -2.149119E-02 7.794865E-08 2.178953E-06 2.545150E-07 5.483533E-03
-5.635550E-04 -2.148481E-02 7.875667E-08 2.199056E-06 2.519321E-07 5.483691E-03
-5.636621E-04 -2.148124E-02 7.962276E-08 2.219880E-06 2.493321E-07 5.483782E-03
-5.639585E-04 -2.148181E-02 8.055044E-08 2.241635E-06 2.467625E-07 5.483765E-03
-5.643605E-04 -2.148593E-02 8.153268E-08 2.264287E-06 2.442565E-07 5.483644E-03
-5.647361E-04 -2.149158E-02 8.255253E-08 2.287613E-06 2.417857E-07 5.483467E-03
-5.649736E-04 -2.149644E-02 8.359409E-08 2.311319E-06 2.393223E-07 5.483300E-03
-5.650386E-04 -2.149889E-02 8.465037E-08 2.335204E-06 2.368240E-07 5.483200E-03
-5.649981E-04 -2.149845E-02 8.572245E-08 2.359230E-06 2.342473E-07 5.483194E-03
-5.649906E-04 -2.149575E-02 8.681829E-08 2.383520E-06 2.315636E-07 5.483270E-03
-5.651454E-04 -2.149208E-02 8.793869E-08 2.408380E-06 2.287672E-07 5.483388E-03
-5.654901E-04 -2.148875E-02 8.907550E-08 2.433915E-06 2.258992E-07 5.483498E-03
-5.659151E-04 -2.148667E-02 9.019487E-08 2.459727E-06 2.230530E-07 5.483560E-03
-5.662369E-04 -2.148615E-02 9.130824E-08 2.485831E-06 2.202670E-07 5.483555E-03
-5.663311E-04 -2.148711E-02 9.240749E-08 2.512336E-06 2.175504E-07 5.483487E-03
-5.662371E-04 -2.148935E-02 9.349559E-08 2.539237E-06 2.148915E-07 5.483377E-03
-5.661405E-04 -2.149254E-02 9.457783E-08 2.566495E-06 2.122628E-07 5.483254E-03
-5.662371E-04 -2.149606E-02 9.565956E-08 2.594025E-06 2.096367E-07 5.483149E-03
-5.665817E-04 -2.149883E-02 9.674353E-08 2.621615E-06 2.069973E-07 5.483087E-03
-5.670429E-04 -2.149962E-02 9.781760E-08 2.649108E-06 2.043426E-07 5.483084E-03
-5.674032E-04 -2.149774E-02 9.887512E-08 2.676387E-06 2.016758E-07 5.483141E-03
-5.675234E-04 -2.149367E-02 9.991860E-08 2.703497E-06 1.989955E-07 5.483238E-03
-5.674423E-04 -2.148906E-02 1.009648E-07 2.730640E-06 1.962976E-07 5.483337E-03
-5.673396E-04 -2.148602E-02 1.020401E-07 2.758052E-06 1.935857E-07 5.483392E-03
-5.673963E-04 -2.148605E-02 1.031533E-07 2.786010E-06 1.908726E-07 5.483372E-03
-5.676651E-04 -2.148924E-02 1.042988E-07 2.814555E-06 1.881847E-07 5.483274E-03
-5.680451E-04 -2.149423E-02 1.054659E-07 2.843496E-06 1.855488E-07 5.483128E-03
-5.683697E-04 -2.149891E-02 1.066355E-07 2.872496E-06 1.829619E-07 5.482984E-03
-5.685312E-04 -2.150147E-02 1.077907E-07 2.901251E-06 1.803888E-07 5.482893E-03
-5.685469E-04 -2.150117E-02 1.089304E-07 2.929649E-06 1.777929E-07 5.482882E-03
-5.685283E-04 -2.149852E-02 1.100597E-07 2.957764E-06 1.751347E-07 5.482944E-03
-5.685914E-04 -2.149488E-02 1.111786E-07 2.985749E-06 1.723903E-07 5.483044E-03
-5.687802E-04 -2.149174E-02 1.123027E-07 3.013854E-06 1.695814E-07 5.483134E-03
-5.690515E-04 -2.149020E-02 1.134398E-07 3.042230E-06 1.667453E-07 5.483177E-03
-5.693166E-04 -2.149060E-02 1.145905E-07 3.070894E-06 1.639175E-07 5.483153E-03
-5.695017E-04 -2.149261E-02 1.157499E-07 3.099748E-06 1.611175E-07 5.483070E-03
-5.695882E-04 -2.149550E-02 1.169116E-07 3.128635E-06 1.583430E-07 5.482955E-03
-5.696167E-04 -2.149843E-02 1.180702E-07 3.157394E-06 1.555786E-07 5.482843E-03
-5.696606E-04 -2.150069E-02 1.192236E-07 3.185885E-06 1.528041E-07 5.482762E-03
-5.697836E-04 -2.150179E-02 1.203689E-07 3.214028E-06 1.499945E-07 5.482729E-03
-5.700022E-04 -2.150151E-02 1.215037E-07 3.241780E-06 1.471351E-07 5.482745E-03
-5.702730E-04 -2.149990E-02 1.226279E-07 3.269132E-06 1.442308E-07 5.482798E-03
-5.705147E-04 -2.149743E-02 1.237435E-07 3.296131E-06 1.412979E-07 5.482865E-03
-5.706579E-04 -2.149491E-02 1.248558E-07 3.322881E-06 1.383563E-07 5.482918E-03
-5.706943E-04 -2.149334E-02 1.259725E-07 3.349516E-06 1.354256E-07 5.482934E-03
-5.706882E-04 -2.149354E-02 1.271055E-07 3.376153E-06 1.325302E-07 5.482900E-03
-5.707368E-04 -2.149570E-02 1.282570E-07 3.402828E-06 1.296665E-07 5.482818E-03
-5.709034E-04 -2.149924E-02 1.294222E-07 3.429440E-06 1.268299E-07 5.482708E-03
-5.711695E-04 -2.150292E-02 1.305895E-07 3.455766E-06 1.240179E-07 5.482601E-03
-5.714460E-04 -2.150535E-02 1.317401E-07 3.481581E-06 1.212289E-07 5.482531E-03
-5.716364E-04 -2.150560E-02 1.328590E-07 3.506767E-06 1.184580E-07 5.482518E-03
-5.717070E-04 -2.150366E-02 1.339535E-07 3.531238E-06 1.156951E-07 5.482561E-03
-5.717099E-04 -2.150052E-02 1.350367E-07 3.554912E-06 1.129409E-07 5.482637E-03
-5.717425E-04 -2.149762E-02 1.361038E-07 3.577818E-06 1.102218E-07 5.482708E-03
-5.718745E-04 -2.149625E-02 1.371705E-07 3.600235E-06 1.075494E-07 5.482739E-03
-5.720986E-04 -2.149693E-02 1.382395E-07 3.622235E-06 1.049486E-07 5.482713E-03
-5.723415E-04 -2.149929E-02 1.393070E-07 3.643726E-06 1.024350E-07 5.482635E-03
-5.725222E-04 -2.150239E-02 1.403616E-07 3.664509E-06 1.000212E-07 5.482529E-03
-5.726121E-04 -2.150515E-02 1.413950E-07 3.684384E-06 9.769579E-08 5.482430E-03
-5.726500E-04 -2.150684E-02 1.424189E-07 3.703422E-06 9.541500E-08 5.482365E-03
-5.727084E-04 -2.150718E-02 1.434271E-07 3.721588E-06 9.314797E-08 5.482349E-03
-5.728381E-04 -2.150633E-02 1.444198E-07 3.738914E-06 9.088080E-08 5.482375E-03
-5.730356E-04 -2.150472E-02 1.453999E-07 3.755482E-06 8.861896E-08 5.482426E-03
-5.732506E-04 -2.150293E-02 1.463709E-07 3.771385E-06 8.638301E-08 5.482477E-03
-5.734250E-04 -2.150156E-02 1.473359E-07 3.786711E-06 8.419636E-08 5.482507E-03
-5.735315E-04 -2.150111E-02 1.482981E-07 3.801530E-06 8.207560E-08 5.482500E-03
-5.735881E-04 -2.150187E-02 1.492596E-07 3.815881E-06 8.002629E-08 5.482454E-03
-5.736423E-04 -2.150378E-02 1.502209E-07 3.829756E-06 7.804327E-08 5.482378E-03
-5.737398E-04 -2.150639E-02 1.511856E-07 3.843155E-06 7.610713E-08 5.482290E-03
-5.738978E-04 -2.150894E-02 1.521376E-07 3.855877E-06 7.421521E-08 5.482213E-03
-5.740969E-04 -2.151060E-02 1.530644E-07 3.867711E-06 7.236916E-08 5.482166E-03
-5.742937E-04 -2.151082E-02 1.539591E-07 3.878549E-06 7.055674E-08 5.482161E-03
-5.744471E-04 -2.150957E-02 1.548248E-07 3.888438E-06 6.874424E-08 5.482193E-03
-5.745421E-04 -2.150741E-02 1.556652E-07 3.897466E-06 6.693646E-08 5.482246E-03
-5.745992E-04 -2.150531E-02 1.564852E-07 3.905706E-06 6.516345E-08 5.482292E-03
-5.746625E-04 -2.150425E-02 1.572981E-07 3.913330E-06 6.344034E-08 5.482309E-03
-5.747717E-04 -2.150478E-02 1.581079E-07 3.920433E-06 6.176842E-08 5.482282E-03
-5.749361E-04 -2.150681E-02 1.589154E-07 3.926996E-06 6.015093E-08 5.482214E-03
-5.751278E-04 -2.150963E-02 1.597149E-07 3.932877E-06 5.858671E-08 5.482124E-03
-5.753006E-04 -2.151225E-02 1.604933E-07 3.937861E-06 5.707479E-08 5.482039E-03
-5.754227E-04 -2.151382E-02 1.612404E-07 3.941762E-06 5.560533E-08 5.481984E-03
-5.754989E-04 -2.151397E-02 1.619512E-07 3.944496E-06 5.416207E-08 5.481970E-03
-5.755671E-04 -2.151291E-02 1.626281E-07 3.946102E-06 5.272973E-08 5.481995E-03
-5.756694E-04 -2.151126E-02 1.632800E-07 3.946713E-06 5.130944E-08 5.482039E-03
-5.758211E-04 -2.150977E-02 1.639178E-07 3.946484E-06 4.992289E-08 5.482080E-03
-5.759998E-04 -2.150903E-02 1.645504E-07 3.945524E-06 4.860337E-08 5.482095E-03
-5.761629E-04 -2.150930E-02 1.651994E-07 3.944122E-06 4.734290E-08 5.482076E-03
-5.762803E-04 -2.151052E-02 1.658813E-07 3.942536E-06 4.612094E-08 5.482023E-03
-5.763563E-04 -2.151238E-02 1.665938E-07 3.940841E-06 4.492145E-08 5.481952E-03
-5.764255E-04 -2.151443E-02 1.673246E-07 3.938931E-06 4.373493E-08 5.481878E-03
-5.765267E-04 -2.151617E-02 1.680669E-07 3.936732E-06 4.254664E-08 5.481821E-03
-5.766749E-04 -2.151718E-02 1.688135E-07 3.934183E-06 4.133976E-08 5.481791E-03
-5.768516E-04 -2.151720E-02 1.695546E-07 3.931245E-06 4.009051E-08 5.481791E-03
-5.770199E-04 -2.151630E-02 1.702891E-07 3.927923E-06 3.879927E-08 5.481816E-03
-5.771502E-04 -2.151487E-02 1.710208E-07 3.924282E-06 3.747508E-08 5.481850E-03
-5.772393E-04 -2.151355E-02 1.717559E-07 3.920433E-06 3.612345E-08 5.481875E-03
-5.773103E-04 -2.151299E-02 1.724964E-07 3.916478E-06 3.474528E-08 5.481875E-03
-5.773953E-04 -2.151358E-02 1.732514E-07 3.912513E-06 3.335856E-08 5.481844E-03
-5.775146E-04 -2.151526E-02 1.740207E-07 3.908537E-06 3.196438E-08 5.481785E-03
-5.776661E-04 -2.151756E-02 1.747994E-07 3.904467E-06 3.056387E-08 5.481711E-03
-5.778284E-04 -2.151972E-02 1.755810E-07 3.900159E-06 2.914928E-08 5.481642E-03
-5.779762E-04 -2.152108E-02 1.763554E-07 3.895473E-06 2.771155E-08 5.481598E-03
-5.780950E-04 -2.152127E-02 1.771170E-07 3.890337E-06 2.624179E-08 5.481586E-03
-5.781892E-04 -2.152041E-02 1.778664E-07 3.884768E-06 2.473235E-08 5.481604E-03
-5.782777E-04 -2.151901E-02 1.786095E-07 3.878874E-06 2.318067E-08 5.481638E-03
-5.783812E-04 -2.151778E-02 1.793550E-07 3.872801E-06 2.159116E-08 5.481666E-03
-5.785093E-04 -2.151729E-02 1.801136E-07 3.866690E-06 1.998541E-08 5.481673E-03
-5.786546E-04 -2.151780E-02 1.808912E-07 3.860616E-06 1.838185E-08 5.481648E-03
-5.787980E-04 -2.151920E-02 1.816855E-07 3.854568E-06 1.678739E-08 5.481596E-03
-5.789222E-04 -2.152107E-02 1.824906E-07 3.848476E-06 1.520284E-08 5.481530E-03
-5.790238E-04 -2.152287E-02 1.832997E-07 3.842247E-06 1.362185E-08 5.481466E-03
-5.791161E-04 -2.152417E-02 1.841070E-07 3.835808E-06 1.203295E-08 5.481420E-03
-5.792198E-04 -2.152470E-02 1.849116E-07 3.829144E-06 1.042266E-08 5.481399E-03
-5.793479E-04 -2.152448E-02 1.857267E-07 3.822411E-06 8.764122E-09 5.481404E-03
-5.794955E-04 -2.152372E-02 1.865508E-07 3.815669E-06 7.055746E-09 5.481425E-03
-5.796431E-04 -2.152279E-02 1.873865E-07 3.808987E-06 5.311515E-09 5.481447E-03
-5.797700E-04 -2.152211E-02 1.882398E-07 3.802454E-06 3.579432E-09 5.481458E-03
-5.798695E-04 -2.152204E-02 1.891114E-07 3.796488E-06 1.856942E-09 5.481447E-03
-5.799541E-04 -2.152275E-02 1.900109E-07 3.791177E-06 1.606552E-10 5.481412E-03
-5.800466E-04 -2.152418E-02 1.909335E-07 3.786593E-06 -1.509541E-09 5.481358E-03
-5.801642E-04 -2.152599E-02 1.918616E-07 3.782904E-06 -3.161452E-09 5.481297E-03
-5.803069E-04 -2.152767E-02 1.927951E-07 3.780025E-06 -4.800921E-09 5.481242E-03
-5.804582E-04 -2.152874E-02 1.937286E-07 3.777879E-06 -6.434096E-09 5.481207E-03
-5.805970E-04 -2.152894E-02 1.946448E-07 3.776280E-06 -8.046913E-09 5.481195E-03
-5.807119E-04 -2.152833E-02 1.955497E-07 3.775183E-06 -9.636492E-09 5.481205E-03
-5.808077E-04 -2.152730E-02 1.964482E-07 3.774704E-06 -1.120552E-08 5.481226E-03
-5.809005E-04 -2.152640E-02 1.973482E-07 3.774986E-06 -1.275274E-08 5.481241E-03
-5.810064E-04 -2.152613E-02 1.982452E-07 3.776013E-06 -1.426363E-08 5.481239E-03
-5.811308E-04 -2.152672E-02 1.991439E-07 3.777811E-06 -1.572831E-08 5.481211E-03
-5.812668E-04 -2.152807E-02 2.000443E-07 3.780420E-06 -1.716812E-08 5.481161E-03
-5.814008E-04 -2.152978E-02 2.009421E-07 3.783793E-06 -1.858766E-08 5.481101E-03
-5.815227E-04 -2.153138E-02 2.018247E-07 3.787781E-06 -1.998298E-08 5.481044E-03
-5.816316E-04 -2.153244E-02 2.026677E-07 3.792061E-06 -2.132554E-08 5.481004E-03
-5.817355E-04 -2.153279E-02 2.034552E-07 3.796363E-06 -2.260109E-08 5.480986E-03
-5.818450E-04 -2.153248E-02 2.041934E-07 3.800685E-06 -2.382664E-08 5.480989E-03
-5.819662E-04 -2.153180E-02 2.048877E-07 3.805079E-06 -2.500805E-08 5.481003E-03
-5.820964E-04 -2.153114E-02 2.055468E-07 3.809599E-06 -2.614041E-08 5.481014E-03
-5.822264E-04 -2.153084E-02 2.061772E-07 3.814293E-06 -2.721705E-08 5.481013E-03
-5.823468E-04 -2.153112E-02 2.067827E-07 3.819189E-06 -2.823159E-08 5.480992E-03
-5.824544E-04 -2.153200E-02 2.073647E-07 3.824280E-06 -2.918076E-08 5.480952E-03
-5.825548E-04 -2.153332E-02 2.079215E-07 3.829529E-06 -3.006538E-08 5.480899E-03
-5.826590E-04 -2.153478E-02 2.084357E-07 3.835013E-06 -3.088727E-08 5.480845E-03
-5.827763E-04 -2.153604E-02 2.089023E-07 3.840724E-06 -3.165013E-08 5.480799E-03
-5.829077E-04 -2.153680E-02 2.093215E-07 3.846570E-06 -3.235964E-08 5.480769E-03
-5.830446E-04 -2.153694E-02 2.096927E-07 3.852491E-06 -3.301886E-08 5.480758E-03
-5.831747E-04 -2.153654E-02 2.100173E-07 3.858480E-06 -3.361067E-08 5.480760E-03
-5.832898E-04 -2.153588E-02 2.102847E-07 3.864718E-06 -3.412309E-08 5.480768E-03
-5.833913E-04 -2.153535E-02 2.105068E-07 3.871254E-06 -3.455059E-08 5.480769E-03
-5.834891E-04 -2.153529E-02 2.106952E-07 3.878132E-06 -3.488880E-08 5.480755E-03
-5.835953E-04 -2.153591E-02 2.108529E-07 3.885382E-06 -3.513701E-08 5.480722E-03
-5.837157E-04 -2.153711E-02 2.109800E-07 3.893000E-06 -3.529500E-08 5.480673E-03
-5.838467E-04 -2.153860E-02 2.110731E-07 3.900939E-06 -3.536482E-08 5.480617E-03
-5.839783E-04 -2.153997E-02 2.111266E-07 3.909121E-06 -3.535235E-08 5.480565E-03
-5.841010E-04 -2.154088E-02 2.111350E-07 3.917484E-06 -3.528669E-08 5.480527E-03
-5.842128E-04 -2.154116E-02 2.111171E-07 3.926233E-06 -3.521161E-08 5.480507E-03
-5.843187E-04 -2.154088E-02 2.110674E-07 3.935393E-06 -3.513944E-08 5.480503E-03
-5.844273E-04 -2.154034E-02 2.109701E-07 3.944779E-06 -3.503862E-08 5.480507E-03
-5.845438E-04 -2.153988E-02 2.108328E-07 3.954369E-06 -3.489158E-08 5.480507E-03
-5.846672E-04 -2.153981E-02 2.106574E-07 3.964155E-06 -3.469010E-08 5.480496E-03
-5.847912E-04 -2.154027E-02 2.104311E-07 3.973924E-06 -3.441038E-08 5.480467E-03
-5.849097E-04 -2.154122E-02 2.101727E-07 3.983545E-06 -3.405134E-08 5.480423E-03
-5.850211E-04 -2.154246E-02 2.098856E-07 3.992852E-06 -3.361732E-08 5.480370E-03
-5.851290E-04 -2.154370E-02 2.095673E-07 4.001746E-06 -3.311030E-08 5.480317E-03
-5.852399E-04 -2.154468E-02 2.092270E-07 4.009973E-06 -3.253308E-08 5.480275E-03
-5.853583E-04 -2.154522E-02 2.088519E-07 4.017536E-06 -3.186171E-08 5.480246E-03
-5.854836E-04 -2.154529E-02 2.084251E-07 4.024623E-06 -3.106846E-08 5.480232E-03
-5.856104E-04 -2.154501E-02 2.079562E-07 4.031227E-06 -3.013654E-08 5.480227E-03
-5.857321E-04 -2.154462E-02 2.074481E-07 4.037376E-06 -2.906569E-08 5.480223E-03
-5.858451E-04 -2.154440E-02 2.069042E-07 4.043108E-06 -2.785172E-08 5.480212E-03
-5.859510E-04 -2.154457E-02 2.063270E-07 4.048460E-06 -2.648993E-08 5.480188E-03
-5.860560E-04 -2.154523E-02 2.057177E-07 4.053453E-06 -2.497985E-08 5.480149E-03
-5.861666E-04 -2.154630E-02 2.050717E-07 4.058093E-06 -2.335910E-08 5.480099E-03
-5.862860E-04 -2.154755E-02 2.043855E-07 4.062324E-06 -2.163192E-08 5.480045E-03
-5.864122E-04 -2.154868E-02 2.036531E-07 4.066084E-06 -1.981398E-08 5.479996E-03
-5.865389E-04 -2.154944E-02 2.028789E-07 4.069387E-06 -1.792907E-08 5.479958E-03
-5.866602E-04 -2.154970E-02 2.020708E-07 4.072308E-06 -1.600319E-08 5.479934E-03
-5.867736E-04 -2.154953E-02 2.012240E-07 4.074792E-06 -1.403453E-08 5.479922E-03
-5.868818E-04 -2.154916E-02 2.003481E-07 4.076912E-06 -1.202524E-08 5.479915E-03
-5.869902E-04 -2.154888E-02 1.994608E-07 4.078889E-06 -9.986467E-09 5.479903E-03
-5.871035E-04 -2.154895E-02 1.985593E-07 4.080736E-06 -7.913087E-09 5.479881E-03
-5.872226E-04 -2.154949E-02 1.976433E-07 4.082463E-06 -5.799941E-09 5.479845E-03
-5.873442E-04 -2.155044E-02 1.967111E-07 4.084054E-06 -3.643631E-09 5.479796E-03
-5.874639E-04 -2.155158E-02 1.957591E-07 4.085462E-06 -1.443695E-09 5.479741E-03
-5.875792E-04 -2.155267E-02 1.947830E-07 4.086622E-06 7.982188E-10 5.479688E-03
-5.876913E-04 -2.155348E-02 1.937808E-07 4.087464E-06 3.090078E-09 5.479644E-03
-5.878040E-04 -2.155388E-02 1.927536E-07 4.087919E-06 5.432561E-09 5.479612E-03
-5.879204E-04 -2.155392E-02 1.917199E-07 4.087763E-06 7.816404E-09 5.479591E-03
-5.880407E-04 -2.155373E-02 1.906950E-07 4.086800E-06 1.024158E-08 5.479576E-03
-5.881619E-04 -2.155353E-02 1.896768E-07 4.085029E-06 1.271180E-08 5.479560E-03
-5.882800E-04 -2.155353E-02 1.886648E-07 4.082530E-06 1.524012E-08 5.479536E-03
-5.883929E-04 -2.155387E-02 1.876632E-07 4.079360E-06 1.783875E-08 5.479501E-03
-5.885020E-04 -2.155458E-02 1.866702E-07 4.075541E-06 2.050867E-08 5.479454E-03
-5.886116E-04 -2.155555E-02 1.856949E-07 4.070957E-06 2.324833E-08 5.479400E-03
-5.887256E-04 -2.155661E-02 1.847318E-07 4.065605E-06 2.605468E-08 5.479344E-03
-5.888454E-04 -2.155753E-02 1.837769E-07 4.059504E-06 2.892045E-08 5.479293E-03
-5.889687E-04 -2.155815E-02 1.828227E-07 4.052600E-06 3.184813E-08 5.479251E-03
-5.890913E-04 -2.155839E-02 1.818799E-07 4.044751E-06 3.483660E-08 5.479221E-03
-5.892096E-04 -2.155832E-02 1.809466E-07 4.035970E-06 3.788518E-08 5.479199E-03
-5.893224E-04 -2.155813E-02 1.800226E-07 4.026323E-06 4.099556E-08 5.479180E-03
-5.894320E-04 -2.155803E-02 1.791195E-07 4.015970E-06 4.416267E-08 5.479157E-03
-5.895421E-04 -2.155823E-02 1.782480E-07 4.005164E-06 4.733809E-08 5.479124E-03
-5.896558E-04 -2.155880E-02 1.773967E-07 3.993998E-06 5.051579E-08 5.479080E-03
-5.897738E-04 -2.155969E-02 1.765742E-07 3.982824E-06 5.368081E-08 5.479027E-03
-5.898942E-04 -2.156072E-02 1.757703E-07 3.971624E-06 5.682180E-08 5.478970E-03
-5.900139E-04 -2.156167E-02 1.749807E-07 3.960370E-06 5.993996E-08 5.478915E-03
-5.901310E-04 -2.156236E-02 1.742024E-07 3.949034E-06 6.303320E-08 5.478868E-03
-5.902454E-04 -2.156271E-02 1.734281E-07 3.937662E-06 6.610012E-08 5.478831E-03
-5.903588E-04 -2.156276E-02 1.726503E-07 3.926370E-06 6.914121E-08 5.478802E-03
-5.904735E-04 -2.156266E-02 1.718743E-07 3.915172E-06 7.215711E-08 5.478777E-03
-5.905902E-04 -2.156259E-02 1.711034E-07 3.904109E-06 7.515006E-08 5.478750E-03
-5.907079E-04 -2.156274E-02 1.703398E-07 3.893224E-06 7.812312E-08 5.478715E-03
-5.908246E-04 -2.156319E-02 1.695849E-07 3.882549E-06 8.107897E-08 5.478671E-03
-5.909391E-04 -2.156392E-02 1.688366E-07 3.872109E-06 8.401460E-08 5.478618E-03
-5.910518E-04 -2.156482E-02 1.680927E-07 3.861907E-06 8.692968E-08 5.478559E-03
-5.911648E-04 -2.156574E-02 1.673521E-07 3.851921E-06 8.982281E-08 5.478501E-03
-5.912803E-04 -2.156650E-02 1.666129E-07 3.842132E-06 9.269137E-08 5.478448E-03
-5.913989E-04 -2.156700E-02 1.658738E-07 3.832524E-06 9.553287E-08 5.478403E-03
-5.915193E-04 -2.156723E-02 1.651347E-07 3.823095E-06 9.834553E-08 5.478365E-03
-5.916387E-04 -2.156724E-02 1.643961E-07 3.813859E-06 1.011269E-07 5.478333E-03
-5.917549E-04 -2.156720E-02 1.636557E-07 3.804855E-06 1.038629E-07 5.478302E-03
-5.918675E-04 -2.156726E-02 1.629163E-07 3.796110E-06 1.065560E-07 5.478265E-03
-5.919782E-04 -2.156757E-02 1.621798E-07 3.787658E-06 1.092029E-07 5.478221E-03
-5.920899E-04 -2.156816E-02 1.614448E-07 3.779531E-06 1.117834E-07 5.478168E-03
-5.922048E-04 -2.156898E-02 1.607158E-07 3.771687E-06 1.143264E-07 5.478108E-03
-5.923229E-04 -2.156989E-02 1.599902E-07 3.764114E-06 1.168304E-07 5.478046E-03
-5.924426E-04 -2.157071E-02 1.592657E-07 3.756789E-06 1.192927E-07 5.477987E-03
-5.925616E-04 -2.157132E-02 1.585432E-07 3.749674E-06 1.217178E-07 5.477934E-03
-5.926782E-04 -2.157165E-02 1.578288E-07 3.742730E-06 1.241172E-07 5.477889E-03
-5.927926E-04 -2.157174E-02 1.571204E-07 3.735986E-06 1.264876E-07 5.477849E-03
-5.929059E-04 -2.157173E-02 1.564188E-07 3.729475E-06 1.288293E-07 5.477812E-03
-5.930197E-04 -2.157178E-02 1.557255E-07 3.723240E-06 1.311443E-07 5.477773E-03
-5.931349E-04 -2.157203E-02 1.550345E-07 3.717392E-06 1.334376E-07 5.477726E-03
-5.932512E-04 -2.157253E-02 1.543245E-07 3.712233E-06 1.357227E-07 5.477672E-03
-5.933676E-04 -2.157325E-02 1.535888E-07 3.707963E-06 1.380136E-07 5.477610E-03
-5.934833E-04 -2.157409E-02 1.528349E-07 3.704548E-06 1.403084E-07 5.477545E-03
-5.935982E-04 -2.157491E-02 1.520623E-07 3.701964E-06 1.426033E-07 5.477481E-03
-5.937131E-04 -2.157556E-02 1.512711E-07 3.700189E-06 1.448948E-07 5.477421E-03
-5.938290E-04 -2.157599E-02 1.504595E-07 3.699218E-06 1.471730E-07 5.477368E-03
-5.939462E-04 -2.157621E-02 1.496290E-07 3.699054E-06 1.494385E-07 5.477321E-03
-5.940639E-04 -2.157629E-02 1.487822E-07 3.699697E-06 1.516910E-07 5.477278E-03
-5.941808E-04 -2.157636E-02 1.479212E-07 3.701161E-06 1.539286E-07 5.477233E-03
-5.942959E-04 -2.157655E-02 1.470463E-07 3.703483E-06 1.561174E-07 5.477184E-03
-5.944092E-04 -2.157694E-02 1.461584E-07 3.706664E-06 1.582542E-07 5.477128E-03
-5.945218E-04 -2.157754E-02 1.452557E-07 3.710664E-06 1.603422E-07 5.477066E-03
-5.946354E-04 -2.157831E-02 1.443347E-07 3.715476E-06 1.623691E-07 5.476999E-03
-5.947513E-04 -2.157911E-02 1.433953E-07 3.721053E-06 1.643256E-07 5.476931E-03
-5.948693E-04 -2.157983E-02 1.424407E-07 3.727314E-06 1.662141E-07 5.476865E-03
-5.949883E-04 -2.158036E-02 1.414700E-07 3.734293E-06 1.680445E-07 5.476805E-03
-5.951064E-04 -2.158068E-02 1.404874E-07 3.741949E-06 1.698207E-07 5.476750E-03
-5.952226E-04 -2.158083E-02 1.394967E-07 3.750250E-06 1.715407E-07 5.476699E-03
-5.953367E-04 -2.158091E-02 1.385059E-07 3.759128E-06 1.732017E-07 5.476649E-03
-5.954500E-04 -2.158106E-02 1.375085E-07 3.768667E-06 1.748067E-07 5.476597E-03
-5.955638E-04 -2.158138E-02 1.365052E-07 3.778913E-06 1.763586E-07 5.476539E-03
-5.956790E-04 -2.158191E-02 1.354983E-07 3.789867E-06 1.778585E-07 5.476475E-03
-5.957955E-04 -2.158261E-02 1.344882E-07 3.801522E-06 1.793065E-07 5.476406E-03
-5.959125E-04 -2.158338E-02 1.334745E-07 3.813861E-06 1.807016E-07 5.476335E-03
-5.960292E-04 -2.158411E-02 1.324564E-07 3.826859E-06 1.820414E-07 5.476265E-03
-5.961453E-04 -2.158470E-02 1.314337E-07 3.840492E-06 1.833232E-07 5.476200E-03
-5.962609E-04 -2.158509E-02 1.304064E-07 3.854741E-06 1.845444E-07 5.476140E-03
-5.963767E-04 -2.158532E-02 1.293614E-07 3.869741E-06 1.857082E-07 5.476085E-03
-5.964928E-04 -2.158546E-02 1.282992E-07 3.885563E-06 1.868170E-07 5.476032E-03
-5.966091E-04 -2.158561E-02 1.272256E-07 3.902195E-06 1.878708E-07 5.475977E-03
-5.967250E-04 -2.158589E-02 1.261323E-07 3.919752E-06 1.888711E-07 5.475918E-03
-5.968401E-04 -2.158634E-02 1.250222E-07 3.938278E-06 1.898171E-07 5.475854E-03
-5.969546E-04 -2.158695E-02 1.239127E-07 3.957580E-06 1.907022E-07 5.475784E-03
-5.970691E-04 -2.158766E-02 1.227993E-07 3.977662E-06 1.915258E-07 5.475711E-03
-5.971844E-04 -2.158839E-02 1.216862E-07 3.998294E-06 1.922939E-07 5.475638E-03
-5.973011E-04 -2.158902E-02 1.205674E-07 4.019135E-06 1.930269E-07 5.475568E-03
-5.974188E-04 -2.158950E-02 1.194437E-07 4.040163E-06 1.937273E-07 5.475503E-03
-5.975366E-04 -2.158981E-02 1.183167E-07 4.061373E-06 1.943929E-07 5.475442E-03
-5.976536E-04 -2.159001E-02 1.171873E-07 4.082758E-06 1.950230E-07 5.475385E-03
-5.977691E-04 -2.159018E-02 1.160594E-07 4.104335E-06 1.956176E-07 5.475328E-03
-5.978833E-04 -2.159041E-02 1.149451E-07 4.126231E-06 1.961733E-07 5.475268E-03
-5.979971E-04 -2.159079E-02 1.138416E-07 4.148444E-06 1.966906E-07 5.475204E-03
-5.981116E-04 -2.159133E-02 1.127469E-07 4.170976E-06 1.971691E-07 5.475134E-03
-5.982273E-04 -2.159199E-02 1.116593E-07 4.193824E-06 1.976104E-07 5.475061E-03
-5.983442E-04 -2.159271E-02 1.105785E-07 4.216960E-06 1.980152E-07 5.474987E-03
-5.984616E-04 -2.159337E-02 1.095038E-07 4.240346E-06 1.983831E-07 5.474914E-03
-5.985787E-04 -2.159390E-02 1.084345E-07 4.263947E-06 1.987128E-07 5.474844E-03
-5.986950E-04 -2.159428E-02 1.073710E-07 4.287730E-06 1.990027E-07 5.474780E-03
-5.988106E-04 -2.159453E-02 1.063139E-07 4.311677E-06 1.992501E-07 5.474718E-03
-5.989259E-04 -2.159472E-02 1.052601E-07 4.335772E-06 1.994348E-07 5.474658E-03
-5.990413E-04 -2.159495E-02 1.042092E-07 4.360010E-06 1.995563E-07 5.474597E-03
-5.991570E-04 -2.159529E-02 1.031630E-07 4.384385E-06 1.996169E-07 5.474531E-03
-5.992728E-04 -2.159577E-02 1.021225E-07 4.408884E-06 1.996185E-07 5.474461E-03
-5.993884E-04 -2.159638E-02 1.010875E-07 4.433487E-06 1.995618E-07 5.474387E-03
-5.995040E-04 -2.159705E-02 1.000583E-07 4.458161E-06 1.994512E-07 5.474312E-03
-5.996197E-04 -2.159771E-02 9.903597E-08 4.482866E-06 1.992936E-07 5.474237E-03
-5.997359E-04 -2.159828E-02 9.802745E-08 4.507507E-06 1.991301E-07 5.474164E-03
-5.998526E-04 -2.159872E-02 9.702964E-08 4.532073E-06 1.989587E-07 5.474096E-03
-5.999697E-04 -2.159904E-02 9.604193E-08 4.556555E-06 1.987803E-07 5.474031E-03
-6.000866E-04 -2.159928E-02 9.506975E-08 4.580925E-06 1.986080E-07 5.473968E-03
-6.002028E-04 -2.159951E-02 9.411183E-08 4.605210E-06 1.984427E-07 5.473904E-03
-6.003181E-04 -2.159981E-02 9.317372E-08 4.629406E-06 1.983015E-07 5.473838E-03
-6.004327E-04 -2.160024E-02 9.225458E-08 4.653543E-06 1.981872E-07 5.473768E-03
-6.005475E-04 -2.160078E-02 9.135247E-08 4.677639E-06 1.981002E-07 5.473694E-03
-6.006630E-04 -2.160142E-02 9.046079E-08 4.701665E-06 1.980464E-07 5.473618E-03
-6.007795E-04 -2.160208E-02 8.957088E-08 4.725529E-06 1.980439E-07 5.473541E-03
-6.008968E-04 -2.160268E-02 8.868585E-08 4.749237E-06 1.980915E-07 5.473466E-03
-6.010142E-04 -2.160317E-02 8.780549E-08 4.772781E-06 1.981879E-07 5.473395E-03
-6.011313E-04 -2.160355E-02 8.692921E-08 4.796159E-06 1.983320E-07 5.473327E-03
-6.012475E-04 -2.160382E-02 8.604870E-08 4.819305E-06 1.985254E-07 5.473262E-03
-6.013631E-04 -2.160407E-02 8.515997E-08 4.842157E-06 1.987725E-07 5.473197E-03
-6.014783E-04 -2.160435E-02 8.426644E-08 4.864743E-06 1.990743E-07 5.473130E-03
-6.015938E-04 -2.160473E-02 8.336980E-08 4.887085E-06 1.994315E-07 5.473060E-03
-6.017097E-04 -2.160523E-02 8.248364E-08 4.909315E-06 1.998252E-07 5.472986E-03
-6.018260E-04 -2.160583E-02 8.160511E-08 4.931429E-06 2.002481E-07 5.472910E-03
-6.019425E-04 -2.160647E-02 8.076743E-08 4.953036E-06 2.006901E-07 5.472832E-03
-6.020591E-04 -2.160708E-02 7.997802E-08 4.973901E-06 2.011464E-07 5.472756E-03
-6.021756E-04 -2.160761E-02 7.923744E-08 4.994201E-06 2.016121E-07 5.472681E-03
-6.022922E-04 -2.160803E-02 7.854173E-08 5.014018E-06 2.020821E-07 5.472610E-03
-6.024089E-04 -2.160835E-02 7.788566E-08 5.033367E-06 2.025572E-07 5.472542E-03
-6.025256E-04 -2.160862E-02 7.726715E-08 5.052284E-06 2.030388E-07 5.472474E-03
-6.026420E-04 -2.160891E-02 7.668500E-08 5.070805E-06 2.035386E-07 5.472406E-03
-6.027580E-04 -2.160926E-02 7.614189E-08 5.088958E-06 2.040793E-07 5.472335E-03
-6.028736E-04 -2.160972E-02 7.563601E-08 5.106786E-06 2.046595E-07 5.472260E-03
-6.029892E-04 -2.161026E-02 7.516441E-08 5.124341E-06 2.052696E-07 5.472183E-03
-6.031050E-04 -2.161087E-02 7.472293E-08 5.141685E-06 2.058779E-07 5.472104E-03
-6.032215E-04 -2.161148E-02 7.430911E-08 5.158846E-06 2.064687E-07 5.472024E-03
-6.033385E-04 -2.161204E-02 7.392628E-08 5.175790E-06 2.070460E-07 5.471947E-03
-6.034560E-04 -2.161251E-02 7.357383E-08 5.192522E-06 2.076072E-07 5.471871E-03
-6.035733E-04 -2.161288E-02 7.325166E-08 5.209060E-06 2.081512E-07 5.471798E-03
-6.036901E-04 -2.161318E-02 7.295988E-08 5.225428E-06 2.086771E-07 5.471727E-03
-6.038063E-04 -2.161347E-02 7.269882E-08 5.241660E-06 2.091849E-07 5.471656E-03
-6.039220E-04 -2.161381E-02 7.246893E-08 5.257792E-06 2.096746E-07 5.471583E-03
-6.040377E-04 -2.161422E-02 7.227246E-08 5.273858E-06 2.101612E-07 5.471507E-03
-6.041537E-04 -2.161473E-02 7.211181E-08 5.289908E-06 2.106284E-07 5.471427E-03
-6.042702E-04 -2.161531E-02 7.198451E-08 5.305977E-06 2.110688E-07 5.471346E-03
-6.043872E-04 -2.161591E-02 7.188881E-08 5.322088E-06 2.114471E-07 5.471264E-03
-6.045044E-04 -2.161648E-02 7.181799E-08 5.338263E-06 2.117409E-07 5.471183E-03
-6.046215E-04 -2.161698E-02 7.177288E-08 5.354486E-06 2.119520E-07 5.471104E-03
-6.047385E-04 -2.161739E-02 7.173577E-08 5.370614E-06 2.120811E-07 5.471028E-03
-6.048553E-04 -2.161773E-02 7.170864E-08 5.386599E-06 2.121401E-07 5.470954E-03
-6.049720E-04 -2.161804E-02 7.169528E-08 5.402440E-06 2.121298E-07 5.470880E-03
-6.050886E-04 -2.161836E-02 7.168681E-08 5.418035E-06 2.120577E-07 5.470806E-03
-6.052051E-04 -2.161875E-02 7.167902E-08 5.433263E-06 2.119373E-07 5.470729E-03
-6.053216E-04 -2.161923E-02 7.167612E-08 5.448124E-06 2.117703E-07 5.470650E-03
-6.054381E-04 -2.161977E-02 7.167870E-08 5.462585E-06 2.115586E-07 5.470568E-03
-6.055547E-04 -2.162036E-02 7.169584E-08 5.476696E-06 2.112947E-07 5.470485E-03
-6.056715E-04 -2.162093E-02 7.172957E-08 5.490516E-06 2.109621E-07 5.470403E-03
-6.057887E-04 -2.162145E-02 7.177522E-08 5.503987E-06 2.105627E-07 5.470322E-03
-6.059062E-04 -2.162190E-02 7.183170E-08 5.517073E-06 2.100972E-07 5.470243E-03
-6.060237E-04 -2.162228E-02 7.189862E-08 5.529750E-06 2.095667E-07 5.470166E-03
-6.061410E-04 -2.162261E-02 7.197590E-08 5.542000E-06 2.089724E-07 5.470090E-03
-6.062579E-04 -2.162293E-02 7.206357E-08 5.553811E-06 2.083165E-07 5.470014E-03
-6.063743E-04 -2.162331E-02 7.216158E-08 5.565170E-06 2.076011E-07 5.469936E-03
-6.064906E-04 -2.162374E-02 7.226990E-08 5.576063E-06 2.068284E-07 5.469856E-03
-6.066071E-04 -2.162426E-02 7.238835E-08 5.586470E-06 2.060004E-07 5.469773E-03
-6.067239E-04 -2.162482E-02 7.251514E-08 5.596372E-06 2.051135E-07 5.469689E-03
-6.068412E-04 -2.162539E-02 7.264577E-08 5.605769E-06 2.041555E-07 5.469604E-03
-6.069588E-04 -2.162593E-02 7.278187E-08 5.614611E-06 2.031284E-07 5.469520E-03
-6.070765E-04 -2.162641E-02 7.292363E-08 5.622856E-06 2.020334E-07 5.469438E-03
-6.071940E-04 -2.162681E-02 7.307117E-08 5.630469E-06 2.008715E-07 5.469357E-03
-6.073111E-04 -2.162717E-02 7.322280E-08 5.637433E-06 1.996400E-07 5.469278E-03
-6.074281E-04 -2.162751E-02 7.337254E-08 5.643759E-06 1.983285E-07 5.469199E-03
-6.075449E-04 -2.162787E-02 7.352295E-08 5.649409E-06 1.969399E-07 5.469119E-03
-6.076617E-04 -2.162828E-02 7.367508E-08 5.654352E-06 1.954761E-07 5.469037E-03
-6.077786E-04 -2.162877E-02 7.382948E-08 5.658553E-06 1.939392E-07 5.468952E-03
-6.078957E-04 -2.162931E-02 7.398625E-08 5.661970E-06 1.923302E-07 5.468866E-03
-6.080129E-04 -2.162987E-02 7.414540E-08 5.664558E-06 1.906502E-07 5.468779E-03
-6.081303E-04 -2.163041E-02 7.430674E-08 5.666263E-06 1.889036E-07 5.468692E-03
-6.082478E-04 -2.163091E-02 7.447195E-08 5.667012E-06 1.871044E-07 5.468607E-03
-6.083654E-04 -2.163135E-02 7.464060E-08 5.666762E-06 1.852507E-07 5.468523E-03
-6.084830E-04 -2.163173E-02 7.479311E-08 5.665677E-06 1.833509E-07 5.468440E-03
-6.086005E-04 -2.163208E-02 7.490779E-08 5.664097E-06 1.814066E-07 5.468358E-03
-6.087178E-04 -2.163244E-02 7.499216E-08 5.662023E-06 1.794277E-07 5.468276E-03
-6.088349E-04 -2.163284E-02 7.505748E-08 5.659330E-06 1.774613E-07 5.468192E-03
-6.089519E-04 -2.163330E-02 7.510517E-08 5.656003E-06 1.755272E-07 5.468107E-03
-6.090689E-04 -2.163381E-02 7.513167E-08 5.652004E-06 1.736316E-07 5.468020E-03
-6.091862E-04 -2.163436E-02 7.513828E-08 5.647319E-06 1.717733E-07 5.467932E-03
-6.093038E-04 -2.163491E-02 7.512498E-08 5.642017E-06 1.699567E-07 5.467844E-03
-6.094218E-04 -2.163542E-02 7.508199E-08 5.636190E-06 1.681862E-07 5.467757E-03
-6.095400E-04 -2.163589E-02 7.499225E-08 5.630025E-06 1.664695E-07 5.467671E-03
-6.096581E-04 -2.163629E-02 7.485165E-08 5.623583E-06 1.648229E-07 5.467586E-03
-6.097759E-04 -2.163666E-02 7.466103E-08 5.616804E-06 1.632439E-07 5.467502E-03
-6.098934E-04 -2.163703E-02 7.442907E-08 5.609616E-06 1.617293E-07 5.467418E-03
-6.100108E-04 -2.163742E-02 7.415996E-08 5.601969E-06 1.603044E-07 5.467333E-03
-6.101282E-04 -2.163785E-02 7.386355E-08 5.593791E-06 1.590015E-07 5.467247E-03
-6.102457E-04 -2.163835E-02 7.354542E-08 5.585151E-06 1.578219E-07 5.467159E-03
-6.103634E-04 -2.163888E-02 7.321270E-08 5.576135E-06 1.567577E-07 5.467070E-03
-6.104814E-04 -2.163942E-02 7.286370E-08 5.566765E-06 1.558032E-07 5.466982E-03
-6.105994E-04 -2.163994E-02 7.251047E-08 5.557169E-06 1.549428E-07 5.466894E-03
-6.107176E-04 -2.164042E-02 7.214828E-08 5.547336E-06 1.541718E-07 5.466807E-03
-6.108357E-04 -2.164086E-02 7.177466E-08 5.537296E-06 1.534878E-07 5.466722E-03
-6.109538E-04 -2.164125E-02 7.138918E-08 5.527082E-06 1.528886E-07 5.466638E-03
-6.110718E-04 -2.164162E-02 7.100307E-08 5.516642E-06 1.523772E-07 5.466555E-03
-6.111897E-04 -2.164201E-02 7.063366E-08 5.505825E-06 1.519546E-07 5.466470E-03
-6.113075E-04 -2.164243E-02 7.028237E-08 5.494618E-06 1.516170E-07 5.466385E-03
-6.114253E-04 -2.164290E-02 6.995953E-08 5.482911E-06 1.513602E-07 5.466299E-03
-6.115431E-04 -2.164341E-02 6.965817E-08 5.470777E-06 1.511832E-07 5.466211E-03
-6.116611E-04 -2.164394E-02 6.937133E-08 5.458297E-06 1.510792E-07 5.466123E-03
-6.117792E-04 -2.164447E-02 6.909835E-08 5.445514E-06 1.510476E-07 5.466035E-03
-6.118976E-04 -2.164497E-02 6.883947E-08 5.432460E-06 1.510866E-07 5.465949E-03
-6.120162E-04 -2.164542E-02 6.859434E-08 5.419173E-06 1.511947E-07 5.465863E-03
-6.121347E-04 -2.164584E-02 6.836267E-08 5.405697E-06 1.513638E-07 5.465779E-03
-6.122530E-04 -2.164622E-02 6.814138E-08 5.392106E-06 1.515737E-07 5.465696E-03
-6.123712E-04 -2.164661E-02 6.792491E-08 5.378479E-06 1.518124E-07 5.465613E-03
-6.124892E-04 -2.164702E-02 6.771702E-08 5.364851E-06 1.520782E-07 5.465529E-03
-6.126071E-04 -2.164747E-02 6.752564E-08 5.351307E-06 1.523567E-07 5.465444E-03
-6.127252E-04 -2.164797E-02 6.734802E-08 5.337872E-06 1.526443E-07 5.465358E-03
-6.128436E-04 -2.164849E-02 6.719070E-08 5.324277E-06 1.529295E-07 5.465272E-03
-6.129621E-04 -2.164902E-02 6.707789E-08 5.310190E-06 1.532023E-07 5.465186E-03
-6.130809E-04 -2.164952E-02 6.700674E-08 5.295607E-06 1.534619E-07 5.465101E-03
-6.131997E-04 -2.164999E-02 6.697743E-08 5.280615E-06 1.537107E-07 5.465018E-03
-6.133184E-04 -2.165043E-02 6.698516E-08 5.265246E-06 1.539509E-07 5.464936E-03
-6.134370E-04 -2.165083E-02 6.702004E-08 5.249432E-06 1.541862E-07 5.464855E-03
-6.135556E-04 -2.165122E-02 6.708470E-08 5.233224E-06 1.544168E-07 5.464775E-03
-6.136740E-04 -2.165163E-02 6.717406E-08 5.216629E-06 1.546488E-07 5.464694E-03
-6.137925E-04 -2.165207E-02 6.728530E-08 5.199646E-06 1.548946E-07 5.464613E-03
-6.139110E-04 -2.165254E-02 6.742036E-08 5.182308E-06 1.551536E-07 5.464531E-03
-6.140296E-04 -2.165305E-02 6.757901E-08 5.164636E-06 1.554254E-07 5.464449E-03
-6.141483E-04 -2.165357E-02 6.776093E-08 5.146648E-06 1.557100E-07 5.464366E-03
-6.142672E-04 -2.165408E-02 6.796543E-08 5.128355E-06 1.560069E-07 5.464285E-03
-6.143862E-04 -2.165457E-02 6.818417E-08 5.109709E-06 1.563099E-07 5.464204E-03
-6.145053E-04 -2.165502E-02 6.841719E-08 5.090709E-06 1.566186E-07 5.464125E-03
-6.146244E-04 -2.165543E-02 6.866535E-08 5.071377E-06 1.569327E-07 5.464046E-03
-6.147434E-04 -2.165584E-02 6.892875E-08 5.051734E-06 1.572522E-07 5.463969E-03
-6.148623E-04 -2.165624E-02 6.920722E-08 5.031800E-06 1.575770E-07 5.463891E-03
-6.149811E-04 -2.165667E-02 6.950059E-08 5.011596E-06 1.579074E-07 5.463813E-03
-6.150998E-04 -2.165713E-02 6.980881E-08 4.991142E-06 1.582434E-07 5.463734E-03
-6.152187E-04 -2.165763E-02 7.013153E-08 4.970453E-06 1.585852E-07 5.463654E-03
-6.153377E-04 -2.165814E-02 7.046847E-08 4.949541E-06 1.589328E-07 5.463574E-03
-6.154569E-04 -2.165865E-02 7.081919E-08 4.928417E-06 1.592860E-07 5.463494E-03
-6.155763E-04 -2.165915E-02 7.118319E-08 4.907089E-06 1.596442E-07 5.463415E-03
-6.156957E-04 -2.165961E-02 7.156012E-08 4.885571E-06 1.600074E-07 5.463337E-03
-6.158151E-04 -2.166004E-02 7.194961E-08 4.863874E-06 1.603752E-07 5.463261E-03
-6.159345E-04 -2.166045E-02 7.235143E-08 4.842017E-06 1.607476E-07 5.463185E-03
-6.160537E-04 -2.166086E-02 7.276539E-08 4.820020E-06 1.611248E-07 5.463109E-03
-6.161729E-04 -2.166128E-02 7.319133E-08 4.797902E-06 1.615071E-07 5.463032E-03
-6.162920E-04 -2.166174E-02 7.361060E-08 4.775869E-06 1.619010E-07 5.462955E-03
-6.164113E-04 -2.166222E-02 7.401731E-08 4.754057E-06 1.623097E-07 5.462877E-03
-6.165306E-04 -2.166272E-02 7.441669E-08 4.732448E-06 1.627328E-07 5.462799E-03
-6.166501E-04 -2.166323E-02 7.481026E-08 4.711040E-06 1.631695E-07 5.462721E-03
-6.167698E-04 -2.166373E-02 7.519859E-08 4.689837E-06 1.636192E-07 5.462643E-03
-6.168895E-04 -2.166420E-02 7.557803E-08 4.668888E-06 1.640775E-07 5.462566E-03
-6.170093E-04 -2.166465E-02 7.593792E-08 4.648334E-06 1.645102E-07 5.462490E-03
-6.171290E-04 -2.166507E-02 7.627374E-08 4.628245E-06 1.649193E-07 5.462415E-03
-6.172487E-04 -2.166549E-02 7.658252E-08 4.608697E-06 1.653047E-07 5.462340E-03
-6.173684E-04 -2.166591E-02 7.686421E-08 4.589672E-06 1.656485E-07 5.462265E-03
-6.174880E-04 -2.166635E-02 7.711950E-08 4.571154E-06 1.659524E-07 5.462190E-03
-6.176076E-04 -2.166682E-02 7.735052E-08 4.553121E-06 1.662169E-07 5.462114E-03
-6.177274E-04 -2.166732E-02 7.756851E-08 4.535444E-06 1.664391E-07 5.462037E-03
-6.178473E-04 -2.166782E-02 7.777351E-08 4.518076E-06 1.666183E-07 5.461960E-03
-6.179673E-04 -2.166832E-02 7.796566E-08 4.500794E-06 1.667613E-07 5.461884E-03
-6.180875E-04 -2.166881E-02 7.814284E-08 4.483474E-06 1.669081E-07 5.461808E-03
-6.182077E-04 -2.166927E-02 7.830726E-08 4.466022E-06 1.671090E-07 5.461733E-03
-6.183280E-04 -2.166970E-02 7.846417E-08 4.448443E-06 1.673668E-07 5.461660E-03
-6.184482E-04 -2.167012E-02 7.861189E-08 4.430733E-06 1.676816E-07 5.461587E-03
-6.185683E-04 -2.167055E-02 7.874851E-08 4.412893E-06 1.680520E-07 5.461515E-03
-6.186883E-04 -2.167098E-02 7.887347E-08 4.394918E-06 1.684795E-07 5.461442E-03
-6.188084E-04 -2.167144E-02 7.899240E-08 4.376852E-06 1.689623E-07 5.461370E-03
-6.189286E-04 -2.167193E-02 7.910998E-08 4.358789E-06 1.694885E-07 5.461298E-03
-6.190489E-04 -2.167243E-02 7.922655E-08 4.340800E-06 1.700457E-07 5.461225E-03
-6.191693E-04 -2.167293E-02 7.933701E-08 4.322868E-06 1.706336E-07 5.461153E-03
-6.192898E-04 -2.167342E-02 7.944028E-08 4.304999E-06 1.712525E-07 5.461082E-03
-6.194105E-04 -2.167389E-02 7.953582E-08 4.287200E-06 1.719024E-07 5.461013E-03
-6.195311E-04 -2.167434E-02 7.962332E-08 4.269482E-06 1.725832E-07 5.460944E-03
-6.196517E-04 -2.167477E-02 7.970247E-08 4.251858E-06 1.732951E-07 5.460876E-03
-6.197723E-04 -2.167519E-02 7.978521E-08 4.234216E-06 1.740309E-07 5.460809E-03
-6.198929E-04 -2.167563E-02 7.987484E-08 4.216495E-06 1.747634E-07 5.460743E-03
-6.200135E-04 -2.167608E-02 7.996885E-08 4.198725E-06 1.754931E-07 5.460676E-03
-6.201341E-04 -2.167655E-02 8.006647E-08 4.180916E-06 1.762212E-07 5.460609E-03
-6.202549E-04 -2.167705E-02 8.016249E-08 4.163115E-06 1.769429E-07 5.460542E-03
-6.203757E-04 -2.167755E-02 8.025249E-08 4.145376E-06 1.776535E-07 5.460475E-03
-6.204967E-04 -2.167804E-02 8.033933E-08 4.127678E-06 1.783536E-07 5.460409E-03
-6.206177E-04 -2.167852E-02 8.042348E-08 4.110013E-06 1.790436E-07 5.460344E-03
-6.207389E-04 -2.167898E-02 8.050525E-08 4.092379E-06 1.797231E-07 5.460280E-03
-6.208600E-04 -2.167942E-02 8.058479E-08 4.074772E-06 1.803919E-07 5.460218E-03
-6.209812E-04 -2.167985E-02 8.066222E-08 4.057195E-06 1.810502E-07 5.460156E-03
-6.211023E-04 -2.168028E-02 8.073776E-08 4.039647E-06 1.816979E-07 5.460094E-03
-6.212233E-04 -2.168073E-02 8.081157E-08 4.022131E-06 1.823355E-07 5.460033E-03
-6.213444E-04 -2.168120E-02 8.088386E-08 4.004648E-06 1.829631E-07 5.459972E-03
-6.214656E-04 -2.168168E-02 8.095470E-08 3.987195E-06 1.835810E-07 5.459910E-03
-6.215869E-04 -2.168218E-02 8.102420E-08 3.969771E-06 1.841891E-07 5.459849E-03
-6.217084E-04 -2.168268E-02 8.109233E-08 3.952374E-06 1.847857E-07 5.459788E-03
-6.218299E-04 -2.168316E-02 8.115468E-08 3.934982E-06 1.853690E-07 5.459729E-03
-6.219516E-04 -2.168363E-02 8.119891E-08 3.917441E-06 1.859547E-07 5.459670E-03
-6.220732E-04 -2.168408E-02 8.122871E-08 3.899748E-06 1.865432E-07 5.459612E-03
-6.221949E-04 -2.168451E-02 8.123688E-08 3.881836E-06 1.871367E-07 5.459556E-03
-6.223165E-04 -2.168495E-02 8.123060E-08 3.863682E-06 1.877435E-07 5.459499E-03
-6.224382E-04 -2.168540E-02 8.120318E-08 3.845217E-06 1.883634E-07 5.459444E-03
-6.225598E-04 -2.168586E-02 8.114097E-08 3.826269E-06 1.890111E-07 5.459388E-03
-6.226815E-04 -2.168634E-02 8.104740E-08 3.806810E-06 1.897087E-07 5.459332E-03
-6.228033E-04 -2.168683E-02 8.093649E-08 3.786930E-06 1.904526E-07 5.459276E-03
-6.229252E-04 -2.168732E-02 8.082252E-08 3.766797E-06 1.912273E-07 5.459221E-03
-6.230472E-04 -2.168781E-02 8.070804E-08 3.746470E-06 1.920306E-07 5.459166E-03
-6.231692E-04 -2.168829E-02 8.061080E-08 3.726113E-06 1.928608E-07 5.459112E-03
-6.232913E-04 -2.168875E-02 8.052724E-08 3.705745E-06 1.937137E-07 5.459058E-03
-6.234133E-04 -2.168919E-02 8.045375E-08 3.685364E-06 1.945904E-07 5.459006E-03
-6.235353E-04 -2.168963E-02 8.038898E-08 3.664972E-06 1.954898E-07 5.458953E-03
-6.236573E-04 -2.169008E-02 8.033048E-08 3.644576E-06 1.964047E-07 5.458901E-03
-6.237792E-04 -2.169053E-02 8.027734E-08 3.624179E-06 1.973362E-07 5.458848E-03
-6.239011E-04 -2.169101E-02 8.022941E-08 3.603786E-06 1.982849E-07 5.458795E-03
-6.240231E-04 -2.169149E-02 8.018630E-08 3.583401E-06 1.992514E-07 5.458742E-03
-6.241452E-04 -2.169199E-02 8.014789E-08 3.563025E-06 2.002358E-07 5.458689E-03
-6.242673E-04 -2.169248E-02 8.011397E-08 3.542658E-06 2.012396E-07 5.458637E-03
-6.243895E-04 -2.169296E-02 8.008485E-08 3.522295E-06 2.022629E-07 5.458584E-03
-6.245118E-04 -2.169343E-02 8.005997E-08 3.501943E-06 2.033055E-07 5.458533E-03
-6.246341E-04 -2.169388E-02 8.003932E-08 3.481606E-06 2.043669E-07 5.458482E-03
-6.247563E-04 -2.169433E-02 8.002110E-08 3.461325E-06 2.054155E-07 5.458432E-03
-6.248786E-04 -2.169477E-02 7.998873E-08 3.441272E-06 2.064475E-07 5.458381E-03
-6.250008E-04 -2.169523E-02 7.994075E-08 3.421494E-06 2.074660E-07 5.458331E-03
-6.251230E-04 -2.169569E-02 7.986230E-08 3.402164E-06 2.084644E-07 5.458280E-03
-6.252453E-04 -2.169618E-02 7.975635E-08 3.383311E-06 2.094374E-07 5.458230E-03
-6.253676E-04 -2.169667E-02 7.962778E-08 3.364847E-06 2.103889E-07 5.458179E-03
-6.254901E-04 -2.169716E-02 7.948635E-08 3.346646E-06 2.113361E-07 5.458129E-03
-6.256126E-04 -2.169764E-02 7.932835E-08 3.328698E-06 2.122681E-07 5.458079E-03
-6.257352E-04 -2.169812E-02 7.916400E-08 3.310884E-06 2.131900E-07 5.458030E-03
-6.258578E-04 -2.169858E-02 7.899079E-08 3.293195E-06 2.141020E-07 5.457982E-03
-6.259803E-04 -2.169903E-02 7.880784E-08 3.275627E-06 2.150035E-07 5.457935E-03
-6.261029E-04 -2.169948E-02 7.862709E-08 3.258056E-06 2.159002E-07 5.457888E-03
-6.262254E-04 -2.169993E-02 7.845168E-08 3.240450E-06 2.168017E-07 5.457841E-03
-6.263480E-04 -2.170040E-02 7.827877E-08 3.222820E-06 2.177070E-07 5.457795E-03
-6.264705E-04 -2.170088E-02 7.810722E-08 3.205168E-06 2.186165E-07 5.457749E-03
-6.265931E-04 -2.170136E-02 7.793643E-08 3.187495E-06 2.195311E-07 5.457703E-03
-6.267158E-04 -2.170185E-02 7.776590E-08 3.169797E-06 2.204509E-07 5.457657E-03
-6.268385E-04 -2.170234E-02 7.759520E-08 3.152075E-06 2.213767E-07 5.457613E-03
-6.269613E-04 -2.170282E-02 7.742406E-08 3.134325E-06 2.223087E-07 5.457568E-03
-6.270842E-04 -2.170329E-02 7.725212E-08 3.116545E-06 2.232472E-07 5.457525E-03
-6.272070E-04 -2.170375E-02 7.707925E-08 3.098735E-06 2.241927E-07 5.457482E-03
-6.273298E-04 -2.170420E-02 7.690511E-08 3.080894E-06 2.251456E-07 5.457440E-03
-6.274527E-04 -2.170465E-02 7.672958E-08 3.063021E-06 2.261063E-07 5.457399E-03
-6.275755E-04 -2.170512E-02 7.655325E-08 3.045121E-06 2.270762E-07 5.457357E-03
-6.276983E-04 -2.170559E-02 7.638442E-08 3.027255E-06 2.280551E-07 5.457316E-03
-6.278212E-04 -2.170607E-02 7.621913E-08 3.009426E-06 2.290391E-07 5.457275E-03
-6.279442E-04 -2.170656E-02 7.605638E-08 2.991635E-06 2.300280E-07 5.457234E-03
-6.280672E-04 -2.170705E-02 7.590295E-08 2.973947E-06 2.310194E-07 5.457194E-03
-6.281903E-04 -2.170754E-02 7.574639E-08 2.956274E-06 2.320206E-07 5.457154E-03
-6.283134E-04 -2.170801E-02 7.557138E-08 2.938426E-06 2.330505E-07 5.457116E-03
-6.284366E-04 -2.170847E-02 7.538435E-08 2.920445E-06 2.341065E-07 5.457077E-03
-6.285597E-04 -2.170893E-02 7.518707E-08 2.902351E-06 2.351874E-07 5.457040E-03
-6.286829E-04 -2.170939E-02 7.498027E-08 2.884159E-06 2.362925E-07 5.457003E-03
-6.288060E-04 -2.170985E-02 7.476474E-08 2.865885E-06 2.374210E-07 5.456966E-03
-6.289291E-04 -2.171032E-02 7.453821E-08 2.847566E-06 2.385673E-07 5.456929E-03
-6.290523E-04 -2.171080E-02 7.429550E-08 2.829305E-06 2.397125E-07 5.456892E-03
-6.291755E-04 -2.171129E-02 7.403376E-08 2.811179E-06 2.408440E-07 5.456856E-03
-6.292988E-04 -2.171178E-02 7.375876E-08 2.793169E-06 2.419611E-07 5.456819E-03
-6.294221E-04 -2.171226E-02 7.347298E-08 2.775256E-06 2.430633E-07 5.456784E-03
-6.295456E-04 -2.171274E-02 7.317790E-08 2.757431E-06 2.441476E-07 5.456749E-03
-6.296690E-04 -2.171321E-02 7.287431E-08 2.739681E-06 2.452125E-07 5.456715E-03
-6.297925E-04 -2.171367E-02 7.256260E-08 2.722008E-06 2.462186E-07 5.456681E-03
-6.299160E-04 -2.171413E-02 7.224639E-08 2.704312E-06 2.471510E-07 5.456648E-03
-6.300396E-04 -2.171459E-02 7.192335E-08 2.686451E-06 2.480280E-07 5.456616E-03
-6.301631E-04 -2.171506E-02 7.158240E-08 2.668260E-06 2.488691E-07 5.456584E-03
-6.302867E-04 -2.171554E-02 7.122457E-08 2.649743E-06 2.496765E-07 5.456553E-03
-6.304103E-04 -2.171602E-02 7.083873E-08 2.630751E-06 2.504643E-07 5.456522E-03
-6.305340E-04 -2.171651E-02 7.042769E-08 2.611264E-06 2.512331E-07 5.456491E-03
-6.306578E-04 -2.171700E-02 6.999303E-08 2.591262E-06 2.520056E-07 5.456461E-03
-6.307816E-04 -2.171748E-02 6.953822E-08 2.570720E-06 2.528080E-07 5.456431E-03
-6.309055E-04 -2.171796E-02 6.907438E-08 2.549748E-06 2.536217E-07 5.456402E-03
-6.310294E-04 -2.171842E-02 6.860636E-08 2.528410E-06 2.544568E-07 5.456374E-03
-6.311534E-04 -2.171888E-02 6.814086E-08 2.506758E-06 2.553116E-07 5.456347E-03
-6.312773E-04 -2.171935E-02 6.768560E-08 2.484931E-06 2.561726E-07 5.456320E-03
-6.314012E-04 -2.171981E-02 6.723611E-08 2.462924E-06 2.570401E-07 5.456292E-03
-6.315252E-04 -2.172029E-02 6.679099E-08 2.440745E-06 2.579141E-07 5.456265E-03
-6.316491E-04 -2.172077E-02 6.634957E-08 2.418402E-06 2.587944E-07 5.456238E-03
-6.317732E-04 -2.172126E-02 6.592325E-08 2.396021E-06 2.596684E-07 5.456211E-03
-6.318972E-04 -2.172175E-02 6.553089E-08 2.373868E-06 2.605084E-07 5.456184E-03
-6.320213E-04 -2.172223E-02 6.516420E-08 2.351927E-06 2.613161E-07 5.456157E-03
-6.321455E-04 -2.172271E-02 6.482098E-08 2.330206E-06 2.620915E-07 5.456131E-03
-6.322697E-04 -2.172318E-02 6.450034E-08 2.308717E-06 2.628342E-07 5.456105E-03
-6.323939E-04 -2.172365E-02 6.420173E-08 2.287476E-06 2.635439E-07 5.456079E-03
-6.325180E-04 -2.172411E-02 6.392492E-08 2.266498E-06 2.642199E-07 5.456054E-03
-6.326422E-04 -2.172458E-02 6.366969E-08 2.245801E-06 2.648617E-07 5.456028E-03
-6.327664E-04 -2.172505E-02 6.343595E-08 2.225401E-06 2.654687E-07 5.456003E-03
-6.328906E-04 -2.172553E-02 6.322370E-08 2.205315E-06 2.660401E-07 5.455977E-03
-6.330148E-04 -2.172602E-02 6.303290E-08 2.185559E-06 2.665750E-07 5.455951E-03
-6.331391E-04 -2.172651E-02 6.286382E-08 2.166149E-06 2.670725E-07 5.455926E-03
-6.332634E-04 -2.172699E-02 6.271648E-08 2.147102E-06 2.675316E-07 5.455900E-03
-6.333878E-04 -2.172748E-02 6.259107E-08 2.128434E-06 2.679511E-07 5.455875E-03
-6.335122E-04 -2.172795E-02 6.248776E-08 2.110162E-06 2.683300E-07 5.455850E-03
-6.336367E-04 -2.172842E-02 6.240683E-08 2.092302E-06 2.686672E-07 5.455826E-03
-6.337611E-04 -2.172889E-02 6.235181E-08 2.074850E-06 2.689623E-07 5.455801E-03
-6.338856E-04 -2.172935E-02 6.232603E-08 2.057787E-06 2.692137E-07 5.455777E-03
-6.340100E-04 -2.172983E-02 6.232730E-08 2.041143E-06 2.694201E-07 5.455752E-03
-6.341345E-04 -2.173030E-02 6.235544E-08 2.024942E-06 2.695804E-07 5.455727E-03
-6.342590E-04 -2.173079E-02 6.241051E-08 2.009207E-06 2.696935E-07 5.455702E-03
-6.343836E-04 -2.173128E-02 6.249360E-08 1.993951E-06 2.697593E-07 5.455677E-03
-6.345082E-04 -2.173176E-02 6.261191E-08 1.979137E-06 2.697844E-07 5.455652E-03
-6.346329E-04 -2.173225E-02 6.276338E-08 1.964796E-06 2.697680E-07 5.455627E-03
-6.347576E-04 -2.173273E-02 6.294762E-08 1.950956E-06 2.697093E-07 5.455603E-03
-6.348823E-04 -2.173320E-02 6.317368E-08 1.937558E-06 2.696150E-07 5.455579E-03
-6.350071E-04 -2.173367E-02 6.343533E-08 1.924648E-06 2.694836E-07 5.455555E-03
-6.351318E-04 -2.173414E-02 6.372811E-08 1.912306E-06 2.693146E-07 5.455531E-03
-6.352566E-04 -2.173461E-02 6.404303E-08 1.900451E-06 2.691215E-07 5.455507E-03
-6.353815E-04 -2.173509E-02 6.435902E-08 1.888642E-06 2.689739E-07 5.455483E-03
-6.355063E-04 -2.173557E-02 6.466712E-08 1.876635E-06 2.688966E-07 5.455459E-03
-6.356312E-04 -2.173606E-02 6.497150E-08 1.864537E-06 2.688824E-07 5.455434E-03
-6.357561E-04 -2.173655E-02 6.526853E-08 1.852447E-06 2.689220E-07 5.455410E-03
-6.358811E-04 -2.173703E-02 6.556510E-08 1.840398E-06 2.690118E-07 5.455385E-03
-6.360061E-04 -2.173751E-02 6.586467E-08 1.828428E-06 2.691425E-07 5.455362E-03
-6.361311E-04 -2.173799E-02 6.617037E-08 1.816562E-06 2.693326E-07 5.455338E-03
-6.362562E-04 -2.173846E-02 6.648330E-08 1.804844E-06 2.695798E-07 5.455315E-03
-6.363813E-04 -2.173894E-02 6.680286E-08 1.793317E-06 2.698820E-07 5.455292E-03
-6.365064E-04 -2.173941E-02 6.712897E-08 1.782022E-06 2.702372E-07 5.455270E-03
-6.366315E-04 -2.173988E-02 6.746671E-08 1.771032E-06 2.706532E-07 5.455247E-03
-6.367566E-04 -2.174037E-02 6.781929E-08 1.760416E-06 2.711342E-07 5.455225E-03
-6.368818E-04 -2.174085E-02 6.818436E-08 1.750211E-06 2.716775E-07 5.455203E-03
-6.370070E-04 -2.174134E-02 6.853556E-08 1.740235E-06 2.723165E-07 5.455181E-03
-6.371323E-04 -2.174183E-02 6.887302E-08 1.730454E-06 2.730677E-07 5.455159E-03
-6.372576E-04 -2.174232E-02 6.918473E-08 1.720751E-06 2.739437E-07 5.455138E-03
-6.373830E-04 -2.174280E-02 6.946666E-08 1.711040E-06 2.749542E-07 5.455117E-03
-6.375084E-04 -2.174327E-02 6.972427E-08 1.701380E-06 2.760965E-07 5.455097E-03
-6.376338E-04 -2.174375E-02 6.995924E-08 1.691809E-06 2.773686E-07 5.455076E-03
-6.377592E-04 -2.174422E-02 7.016199E-08 1.682373E-06 2.787523E-07 5.455056E-03
-6.378846E-04 -2.174470E-02 7.032614E-08 1.673180E-06 2.802298E-07 5.455036E-03
-6.380101E-04 -2.174518E-02 7.045824E-08 1.664239E-06 2.817909E-07 5.455016E-03
-6.381356E-04 -2.174566E-02 7.054343E-08 1.655683E-06 2.833870E-07 5.454995E-03
-6.382611E-04 -2.174615E-02 7.058190E-08 1.647494E-06 2.850211E-07 5.454975E-03
-6.383867E-04 -2.174664E-02 7.057590E-08 1.639659E-06 2.866725E-07 5.454956E-03
-6.385124E-04 -2.174713E-02 7.052391E-08 1.632125E-06 2.883453E-07 5.454936E-03
-6.386382E-04 -2.174761E-02 7.042429E-08 1.624810E-06 2.900472E-07 5.454918E-03
-6.387640E-04 -2.174809E-02 7.030274E-08 1.617877E-06 2.917417E-07 5.454900E-03
-6.388899E-04 -2.174857E-02 7.015851E-08 1.611388E-06 2.934069E-07 5.454883E-03
-6.390158E-04 -2.174905E-02 6.999653E-08 1.605383E-06 2.950413E-07 5.454866E-03
-6.391418E-04 -2.174952E-02 6.982428E-08 1.600040E-06 2.966319E-07 5.454850E-03
-6.392677E-04 -2.175001E-02 6.964276E-08 1.595380E-06 2.981765E-07 5.454833E-03
-6.393937E-04 -2.175049E-02 6.945120E-08 1.591375E-06 2.996761E-07 5.454815E-03
-6.395196E-04 -2.175098E-02 6.925220E-08 1.587969E-06 3.011284E-07 5.454798E-03
-6.396456E-04 -2.175147E-02 6.903644E-08 1.585122E-06 3.025130E-07 5.454780E-03
-6.397717E-04 -2.175196E-02 6.880181E-08 1.582763E-06 3.038411E-07 5.454762E-03
-6.398977E-04 -2.175245E-02 6.856533E-08 1.581054E-06 3.050949E-07 5.454744E-03
-6.400238E-04 -2.175293E-02 6.835097E-08 1.580304E-06 3.062347E-07 5.454727E-03
-6.401499E-04 -2.175341E-02 6.817062E-08 1.580696E-06 3.072426E-07 5.454709E-03
-6.402760E-04 -2.175389E-02 6.801264E-08 1.582155E-06 3.081126E-07 5.454692E-03
-6.404020E-04 -2.175436E-02 6.786928E-08 1.584629E-06 3.088353E-07 5.454675E-03
-6.405281E-04 -2.175485E-02 6.774004E-08 1.588072E-06 3.094158E-07 5.454657E-03
-6.406541E-04 -2.175533E-02 6.762439E-08 1.592439E-06 3.098572E-07 5.454639E-03
-6.407802E-04 -2.175582E-02 6.752149E-08 1.597691E-06 3.101623E-07 5.454621E-03
-6.409063E-04 -2.175631E-02 6.743088E-08 1.603787E-06 3.103333E-07 5.454603E-03
-6.410324E-04 -2.175680E-02 6.735185E-08 1.610687E-06 3.103726E-07 5.454585E-03
-6.411585E-04 -2.175729E-02 6.728682E-08 1.618358E-06 3.102840E-07 5.454566E-03
-6.412847E-04 -2.175777E-02 6.723894E-08 1.626774E-06 3.100650E-07 5.454548E-03
-6.414108E-04 -2.175826E-02 6.720542E-08 1.635894E-06 3.097156E-07 5.454530E-03
-6.415370E-04 -2.175874E-02 6.718568E-08 1.645687E-06 3.092375E-07 5.454511E-03
-6.416632E-04 -2.175922E-02 6.717935E-08 1.656123E-06 3.086320E-07 5.454493E-03
-6.417894E-04 -2.175970E-02 6.718826E-08 1.667183E-06 3.079033E-07 5.454474E-03
-6.419155E-04 -2.176018E-02 6.721953E-08 1.678887E-06 3.070598E-07 5.454456E-03
-6.420417E-04 -2.176067E-02 6.727080E-08 1.691202E-06 3.061011E-07 5.454437E-03
-6.421679E-04 -2.176116E-02 6.734121E-08 1.704105E-06 3.050283E-07 5.454417E-03
-6.422941E-04 -2.176165E-02 6.743051E-08 1.717574E-06 3.038425E-07 5.454398E-03
-6.424204E-04 -2.176214E-02 6.753865E-08 1.731587E-06 3.025447E-07 5.454378E-03
-6.425467E-04 -2.176263E-02 6.766565E-08 1.746121E-06 3.011358E-07 5.454359E-03
-6.426730E-04 -2.176312E-02 6.781149E-08 1.761156E-06 2.996165E-07 5.454339E-03
-6.427992E-04 -2.176360E-02 6.797630E-08 1.776670E-06 2.979877E-07 5.454319E-03
-6.429255E-04 -2.176408E-02 6.816011E-08 1.792643E-06 2.962501E-07 5.454299E-03
-6.430518E-04 -2.176456E-02 6.836175E-08 1.809062E-06 2.944033E-07 5.454279E-03
-6.431781E-04 -2.176505E-02 6.857034E-08 1.826045E-06 2.924384E-07 5.454258E-03
-6.433044E-04 -2.176553E-02 6.879179E-08 1.843559E-06 2.903553E-07 5.454237E-03
-6.434307E-04 -2.176602E-02 6.902790E-08 1.861563E-06 2.881546E-07 5.454216E-03
-6.435571E-04 -2.176652E-02 6.927971E-08 1.880021E-06 2.858369E-07 5.454194E-03
-6.436834E-04 -2.176701E-02 6.955893E-08 1.898798E-06 2.834091E-07 5.454172E-03
-6.438098E-04 -2.176750E-02 6.986481E-08 1.917824E-06 2.808734E-07 5.454150E-03
-6.439363E-04 -2.176798E-02 7.019505E-08 1.937094E-06 2.782300E-07 5.454127E-03
-6.440627E-04 -2.176847E-02 7.056163E-08 1.956458E-06 2.755054E-07 5.454104E-03
-6.441891E-04 -2.176895E-02 7.096537E-08 1.975853E-06 2.727180E-07 5.454081E-03
-6.443156E-04 -2.176944E-02 7.140256E-08 1.995292E-06 2.698795E-07 5.454058E-03
-6.444420E-04 -2.176992E-02 7.187703E-08 2.014766E-06 2.670491E-07 5.454034E-03
-6.445685E-04 -2.177041E-02 7.239136E-08 2.034295E-06 2.642401E-07 5.454010E-03
-6.446950E-04 -2.177090E-02 7.294817E-08 2.053908E-06 2.614636E-07 5.453986E-03
-6.448216E-04 -2.177139E-02 7.354400E-08 2.073650E-06 2.587050E-07 5.453961E-03
-6.449481E-04 -2.177188E-02 7.417746E-08 2.093549E-06 2.559640E-07 5.453936E-03
-6.450747E-04 -2.177238E-02 7.484799E-08 2.113625E-06 2.532405E-07 5.453911E-03
-6.452014E-04 -2.177286E-02 7.555510E-08 2.133903E-06 2.505340E-07 5.453886E-03
-6.453280E-04 -2.177335E-02 7.629823E-08 2.154405E-06 2.478443E-07 5.453860E-03
-6.454547E-04 -2.177384E-02 7.707718E-08 2.175154E-06 2.451707E-07 5.453835E-03
-6.455814E-04 -2.177432E-02 7.789093E-08 2.196173E-06 2.425050E-07 5.453809E-03
-6.457080E-04 -2.177481E-02 7.873779E-08 2.217493E-06 2.398396E-07 5.453783E-03
-6.458347E-04 -2.177530E-02 7.962099E-08 2.239150E-06 2.371808E-07 5.453757E-03
-6.459615E-04 -2.177579E-02 8.054171E-08 2.261185E-06 2.345230E-07 5.453730E-03
-6.460882E-04 -2.177628E-02 8.149783E-08 2.283622E-06 2.318627E-07 5.453703E-03
-6.462150E-04 -2.177677E-02 8.248960E-08 2.306505E-06 2.291868E-07 5.453676E-03
-6.463418E-04 -2.177727E-02 8.351336E-08 2.329876E-06 2.264621E-07 5.453649E-03
-6.464687E-04 -2.177776E-02 8.457006E-08 2.353758E-06 2.236894E-07 5.453622E-03
-6.465956E-04 -2.177825E-02 8.566097E-08 2.378179E-06 2.208678E-07 5.453595E-03
-6.467225E-04 -2.177873E-02 8.678697E-08 2.403168E-06 2.179956E-07 5.453568E-03
-6.468494E-04 -2.177922E-02 8.794723E-08 2.428766E-06 2.150701E-07 5.453540E-03
-6.469763E-04 -2.177971E-02 8.913101E-08 2.455116E-06 2.120867E-07 5.453512E-03
-6.471033E-04 -2.178020E-02 9.030851E-08 2.481879E-06 2.090872E-07 5.453484E-03
-6.472303E-04 -2.178069E-02 9.146034E-08 2.508683E-06 2.061139E-07 5.453455E-03
-6.473573E-04 -2.178118E-02 9.259867E-08 2.535600E-06 2.031620E-07 5.453426E-03
-6.474843E-04 -2.178168E-02 9.371722E-08 2.562776E-06 2.002233E-07 5.453396E-03
-6.476113E-04 -2.178217E-02 9.482273E-08 2.590206E-06 1.972954E-07 5.453366E-03
-6.477384E-04 -2.178266E-02 9.591881E-08 2.617883E-06 1.943757E-07 5.453336E-03
-6.478654E-04 -2.178315E-02 9.701525E-08 2.645745E-06 1.914636E-07 5.453306E-03
-6.479925E-04 -2.178364E-02 9.811516E-08 2.673746E-06 1.885565E-07 5.453275E-03
-6.481197E-04 -2.178413E-02 9.921724E-08 2.701906E-06 1.856523E-07 5.453244E-03
-6.482468E-04 -2.178462E-02 1.003222E-07 2.730230E-06 1.827493E-07 5.453212E-03
-6.483739E-04 -2.178511E-02 1.014308E-07 2.758727E-06 1.798457E-07 5.453180E-03
-6.485011E-04 -2.178560E-02 1.025516E-07 2.787333E-06 1.769430E-07 5.453148E-03
-6.486282E-04 -2.178609E-02 1.036885E-07 2.816001E-06 1.740422E-07 5.453115E-03
-6.487554E-04 -2.178659E-02 1.048372E-07 2.844756E-06 1.711411E-07 5.453082E-03
-6.488826E-04 -2.178708E-02 1.059936E-07 2.873610E-06 1.682441E-07 5.453048E-03
-6.490098E-04 -2.178758E-02 1.071600E-07 2.902578E-06 1.653530E-07 5.453015E-03
-6.491370E-04 -2.178807E-02 1.083331E-07 2.931656E-06 1.624561E-07 5.452981E-03
-6.492643E-04 -2.178856E-02 1.095131E-07 2.960849E-06 1.595496E-07 5.452947E-03
-6.493916E-04 -2.178905E-02 1.107017E-07 2.990159E-06 1.566358E-07 5.452913E-03
-6.495189E-04 -2.178954E-02 1.118924E-07 3.019545E-06 1.537027E-07 5.452879E-03
-6.496462E-04 -2.179004E-02 1.130768E-07 3.048946E-06 1.507455E-07 5.452844E-03
-6.497735E-04 -2.179053E-02 1.142590E-07 3.078362E-06 1.477667E-07 5.452810E-03
-6.499008E-04 -2.179102E-02 1.154397E-07 3.107769E-06 1.447679E-07 5.452775E-03
-6.500282E-04 -2.179152E-02 1.166194E-07 3.137143E-06 1.417498E-07 5.452740E-03
-6.501556E-04 -2.179201E-02 1.177980E-07 3.166458E-06 1.387133E-07 5.452704E-03
-6.502830E-04 -2.179251E-02 1.189755E-07 3.195690E-06 1.356592E-07 5.452669E-03
-6.504104E-04 -2.179301E-02 1.201527E-07 3.224803E-06 1.325957E-07 5.452633E-03
-6.505379E-04 -2.179350E-02 1.213306E-07 3.253766E-06 1.295261E-07 5.452598E-03
-6.506654E-04 -2.179399E-02 1.225080E-07 3.282563E-06 1.264469E-07 5.452562E-03
-6.507930E-04 -2.179448E-02 1.236837E-07 3.311174E-06 1.233570E-07 5.452526E-03
-6.509205E-04 -2.179498E-02 1.248577E-07 3.339577E-06 1.202576E-07 5.452490E-03
-6.510480E-04 -2.179547E-02 1.260298E-07 3.367754E-06 1.171495E-07 5.452454E-03
-6.511756E-04 -2.179596E-02 1.271996E-07 3.395683E-06 1.140336E-07 5.452418E-03
-6.513032E-04 -2.179646E-02 1.283684E-07 3.423340E-06 1.109231E-07 5.452382E-03
-6.514308E-04 -2.179696E-02 1.295401E-07 3.450709E-06 1.078322E-07 5.452346E-03
-6.515585E-04 -2.179746E-02 1.307130E-07 3.477776E-06 1.047600E-07 5.452310E-03
-6.516862E-04 -2.179795E-02 1.318864E-07 3.504527E-06 1.017073E-07 5.452274E-03
-6.518139E-04 -2.179845E-02 1.330596E-07 3.530949E-06 9.867518E-08 5.452238E-03
-6.519416E-04 -2.179894E-02 1.342229E-07 3.557110E-06 9.566314E-08 5.452202E-03
-6.520694E-04 -2.179944E-02 1.353769E-07 3.583019E-06 9.267288E-08 5.452166E-03
-6.521972E-04 -2.179993E-02 1.365321E-07 3.608558E-06 8.970878E-08 5.452130E-03
-6.523250E-04 -2.180042E-02 1.376789E-07 3.633392E-06 8.680045E-08 5.452093E-03
-6.524528E-04 -2.180092E-02 1.388060E-07 3.657406E-06 8.396918E-08 5.452057E-03
-6.525807E-04 -2.180142E-02 1.399163E-07 3.680623E-06 8.121342E-08 5.452021E-03
-6.527086E-04 -2.180192E-02 1.410072E-07 3.702997E-06 7.852895E-08 5.451985E-03
-6.528366E-04 -2.180242E-02 1.420810E-07 3.724537E-06 7.590533E-08 5.451949E-03
-6.529645E-04 -2.180291E-02 1.431365E-07 3.745231E-06 7.334493E-08 5.451913E-03
-6.530925E-04 -2.180341E-02 1.441815E-07 3.765148E-06 7.084214E-08 5.451878E-03
-6.532205E-04 -2.180391E-02 1.452287E-07 3.784470E-06 6.838183E-08 5.451842E-03
-6.533485E-04 -2.180440E-02 1.462714E-07 3.803162E-06 6.596579E-08 5.451806E-03
-6.534766E-04 -2.180490E-02 1.473074E-07 3.821210E-06 6.359575E-08 5.451769E-03
-6.536046E-04 -2.180540E-02 1.483357E-07 3.838604E-06 6.127327E-08 5.451733E-03
-6.537326E-04 -2.180589E-02 1.493550E-07 3.855334E-06 5.900004E-08 5.451696E-03
-6.538607E-04 -2.180639E-02 1.503643E-07 3.871390E-06 5.677738E-08 5.451659E-03
-6.539887E-04 -2.180689E-02 1.513627E-07 3.886764E-06 5.460714E-08 5.451622E-03
-6.541168E-04 -2.180739E-02 1.523496E-07 3.901445E-06 5.249047E-08 5.451585E-03
-6.542449E-04 -2.180789E-02 1.533271E-07 3.915452E-06 5.042506E-08 5.451547E-03
-6.543731E-04 -2.180839E-02 1.542994E-07 3.928844E-06 4.840187E-08 5.451510E-03
-6.545013E-04 -2.180889E-02 1.552544E-07 3.941513E-06 4.643523E-08 5.451473E-03
-6.546296E-04 -2.180939E-02 1.561915E-07 3.953439E-06 4.453126E-08 5.451436E-03
-6.547579E-04 -2.180988E-02 1.571107E-07 3.964638E-06 4.266630E-08 5.451399E-03
-6.548862E-04 -2.181038E-02 1.580182E-07 3.975193E-06 4.081987E-08 5.451363E-03
-6.550146E-04 -2.181088E-02 1.589068E-07 3.985017E-06 3.900369E-08 5.451326E-03
-6.551429E-04 -2.181138E-02 1.597769E-07 3.994035E-06 3.724419E-08 5.451289E-03
-6.552713E-04 -2.181188E-02 1.606282E-07 4.002218E-06 3.554294E-08 5.451252E-03
-6.553997E-04 -2.181238E-02 1.614580E-07 4.009541E-06 3.389002E-08 5.451215E-03
-6.555281E-04 -2.181288E-02 1.622694E-07 4.016002E-06 3.228029E-08 5.451177E-03
-6.556565E-04 -2.181338E-02 1.630618E-07 4.021587E-06 3.070741E-08 5.451139E-03
-6.557850E-04 -2.181389E-02 1.638343E-07 4.026288E-06 2.917243E-08 5.451102E-03
-6.559135E-04 -2.181438E-02 1.645863E-07 4.030100E-06 2.767557E-08 5.451064E-03
-6.560420E-04 -2.181488E-02 1.653177E-07 4.033015E-06 2.621753E-08 5.451026E-03
-6.561706E-04 -2.181538E-02 1.660282E-07 4.035028E-06 2.479917E-08 5.450988E-03
-6.562991E-04 -2.181588E-02 1.667204E-07 4.036142E-06 2.343163E-08 5.450950E-03
-6.564277E-04 -2.181638E-02 1.673967E-07 4.036347E-06 2.213247E-08 5.450912E-03
-6.565563E-04 -2.181688E-02 1.680617E-07 4.035685E-06 2.090550E-08 5.450874E-03
-6.566850E-04 -2.181739E-02 1.687388E-07 4.034467E-06 1.971257E-08 5.450836E-03
-6.568137E-04 -2.181789E-02 1.694448E-07 4.032980E-06 1.852322E-08 5.450797E-03
-6.569423E-04 -2.181839E-02 1.701707E-07 4.031253E-06 1.733368E-08 5.450759E-03
-6.570711E-04 -2.181890E-02 1.709120E-07 4.029282E-06 1.614573E-08 5.450721E-03
-6.571998E-04 -2.181940E-02 1.716669E-07 4.027077E-06 1.496036E-08 5.450682E-03
-6.573286E-04 -2.181990E-02 1.724306E-07 4.024652E-06 1.376368E-08 5.450644E-03
-6.574573E-04 -2.182040E-02 1.731978E-07 4.022011E-06 1.253971E-08 5.450605E-03
-6.575861E-04 -2.182090E-02 1.739691E-07 4.019164E-06 1.128986E-08 5.450567E-03
-6.577150E-04 -2.182140E-02 1.747447E-07 4.016111E-06 1.001562E-08 5.450528E-03
-6.578438E-04 -2.182190E-02 1.755223E-07 4.012846E-06 8.713451E-09 5.450489E-03
-6.579727E-04 -2.182241E-02 1.762978E-07 4.009350E-06 7.386570E-09 5.450450E-03
-6.581016E-04 -2.182291E-02 1.770744E-07 4.005623E-06 6.042672E-09 5.450412E-03
-6.582305E-04 -2.182341E-02 1.778509E-07 4.001662E-06 4.679977E-09 5.450373E-03
-6.583595E-04 -2.182392E-02 1.786289E-07 3.997467E-06 3.298597E-09 5.450334E-03
-6.584885E-04 -2.182442E-02 1.794094E-07 3.993034E-06 1.892206E-09 5.450295E-03
-6.586175E-04 -2.182492E-02 1.801915E-07 3.988368E-06 4.605238E-10 5.450256E-03
-6.587465E-04 -2.182543E-02 1.809748E-07 3.983479E-06 -9.965984E-10 5.450217E-03
-6.588756E-04 -2.182593E-02 1.817591E-07 3.978375E-06 -2.479134E-09 5.450178E-03
-6.590047E-04 -2.182643E-02 1.825444E-07 3.973066E-06 -3.987520E-09 5.450139E-03
-6.591338E-04 -2.182693E-02 1.833308E-07 3.967560E-06 -5.520261E-09 5.450100E-03
-6.592629E-04 -2.182744E-02 1.841229E-07 3.961882E-06 -7.061222E-09 5.450061E-03
-6.593921E-04 -2.182794E-02 1.849208E-07 3.956043E-06 -8.609565E-09 5.450022E-03
-6.595213E-04 -2.182845E-02 1.857236E-07 3.950056E-06 -1.016608E-08 5.449983E-03
-6.596505E-04 -2.182895E-02 1.865310E-07 3.943932E-06 -1.173107E-08 5.449944E-03
-6.597797E-04 -2.182946E-02 1.873430E-07 3.937684E-06 -1.330465E-08 5.449905E-03
-6.599090E-04 -2.182996E-02 1.881593E-07 3.931326E-06 -1.488715E-08 5.449866E-03
-6.600383E-04 -2.183047E-02 1.889866E-07 3.924926E-06 -1.648659E-08 5.449826E-03
-6.601677E-04 -2.183097E-02 1.898338E-07 3.918618E-06 -1.812309E-08 5.449787E-03
-6.602970E-04 -2.183147E-02 1.906961E-07 3.912404E-06 -1.979603E-08 5.449748E-03
-6.604265E-04 -2.183198E-02 1.915730E-07 3.906290E-06 -2.148566E-08 5.449710E-03
-6.605559E-04 -2.183248E-02 1.924638E-07 3.900375E-06 -2.316424E-08 5.449671E-03
-6.606854E-04 -2.183299E-02 1.933678E-07 3.895007E-06 -2.484489E-08 5.449632E-03
-6.608149E-04 -2.183350E-02 1.942931E-07 3.890154E-06 -2.650964E-08 5.449593E-03
-6.609445E-04 -2.183400E-02 1.952236E-07 3.886003E-06 -2.816455E-08 5.449553E-03
-6.610741E-04 -2.183451E-02 1.961568E-07 3.882669E-06 -2.981174E-08 5.449513E-03
-6.612038E-04 -2.183501E-02 1.970971E-07 3.880156E-06 -3.145259E-08 5.449472E-03
-6.613335E-04 -2.183552E-02 1.980420E-07 3.878455E-06 -3.308441E-08 5.449431E-03
-6.614632E-04 -2.183602E-02 1.989812E-07 3.877425E-06 -3.468521E-08 5.449389E-03
-6.615930E-04 -2.183653E-02 1.999219E-07 3.877079E-06 -3.625560E-08 5.449348E-03
-6.617228E-04 -2.183704E-02 2.008624E-07 3.877480E-06 -3.779858E-08 5.449307E-03
-6.618527E-04 -2.183754E-02 2.018017E-07 3.878633E-06 -3.931421E-08 5.449266E-03
-6.619825E-04 -2.183805E-02 2.027272E-07 3.880396E-06 -4.079103E-08 5.449226E-03
-6.621123E-04 -2.183856E-02 2.036436E-07 3.882795E-06 -4.223596E-08 5.449184E-03
-6.622422E-04 -2.183906E-02 2.045505E-07 3.885872E-06 -4.367572E-08 5.449143E-03
-6.623721E-04 -2.183957E-02 2.054503E-07 3.889639E-06 -4.511024E-08 5.449102E-03
-6.625021E-04 -2.184008E-02 2.063278E-07 3.893948E-06 -4.651735E-08 5.449061E-03
-6.626320E-04 -2.184058E-02 2.071696E-07 3.898574E-06 -4.786332E-08 5.449019E-03
-6.627620E-04 -2.184109E-02 2.079659E-07 3.903312E-06 -4.912992E-08 5.448978E-03
-6.628920E-04 -2.184160E-02 2.087216E-07 3.908199E-06 -5.033635E-08 5.448936E-03
-6.630220E-04 -2.184210E-02 2.094396E-07 3.913222E-06 -5.148378E-08 5.448894E-03
-6.631520E-04 -2.184261E-02 2.101223E-07 3.918370E-06 -5.257259E-08 5.448852E-03
-6.632820E-04 -2.184312E-02 2.107709E-07 3.923630E-06 -5.360351E-08 5.448810E-03
-6.634121E-04 -2.184363E-02 2.113866E-07 3.928986E-06 -5.457685E-08 5.448767E-03
-6.635422E-04 -2.184414E-02 2.119701E-07 3.934424E-06 -5.549305E-08 5.448724E-03
-6.636722E-04 -2.184464E-02 2.125198E-07 3.939948E-06 -5.635208E-08 5.448681E-03
-6.638024E-04 -2.184515E-02 2.130210E-07 3.945715E-06 -5.715157E-08 5.448638E-03
-6.639325E-04 -2.184566E-02 2.134794E-07 3.951704E-06 -5.789086E-08 5.448594E-03
-6.640627E-04 -2.184617E-02 2.138975E-07 3.957883E-06 -5.856992E-08 5.448550E-03
-6.641929E-04 -2.184668E-02 2.142768E-07 3.964227E-06 -5.918705E-08 5.448506E-03
-6.643232E-04 -2.184718E-02 2.146135E-07 3.970770E-06 -5.971859E-08 5.448461E-03
[...]
1.469754E-03 -2.628799E-02 1.088690E-07 2.285103E-06 3.267882E-07 4.249086E-03
1.469524E-03 -2.628584E-02 1.093075E-07 2.264985E-06 3.261512E-07 4.249886E-03
1.469294E-03 -2.628369E-02 1.097767E-07 2.245369E-06 3.255184E-07 4.250686E-03
1.469065E-03 -2.628154E-02 1.102704E-07 2.226188E-06 3.248919E-07 4.251485E-03
1.468835E-03 -2.627940E-02 1.107755E-07 2.207115E-06 3.242870E-07 4.252284E-03
1.468606E-03 -2.627725E-02 1.112827E-07 2.187954E-06 3.236960E-07 4.253082E-03
1.468376E-03 -2.627511E-02 1.117914E-07 2.168833E-06 3.231212E-07 4.253880E-03
1.468146E-03 -2.627297E-02 1.122937E-07 2.149885E-06 3.225612E-07 4.254678E-03
1.467917E-03 -2.627083E-02 1.127964E-07 2.131169E-06 3.220312E-07 4.255475E-03
1.467687E-03 -2.626868E-02 1.133028E-07 2.112770E-06 3.215509E-07 4.256272E-03
1.467457E-03 -2.626655E-02 1.138163E-07 2.094748E-06 3.211452E-07 4.257069E-03
1.467228E-03 -2.626441E-02 1.143378E-07 2.077161E-06 3.208172E-07 4.257865E-03
1.466998E-03 -2.626227E-02 1.148658E-07 2.060061E-06 3.205707E-07 4.258661E-03
1.466769E-03 -2.626013E-02 1.153996E-07 2.043501E-06 3.204103E-07 4.259457E-03
1.466539E-03 -2.625800E-02 1.159424E-07 2.027563E-06 3.203492E-07 4.260252E-03
1.466310E-03 -2.625587E-02 1.164969E-07 2.012323E-06 3.204002E-07 4.261047E-03
1.466080E-03 -2.625373E-02 1.170606E-07 1.997830E-06 3.205670E-07 4.261841E-03
1.465850E-03 -2.625160E-02 1.176102E-07 1.983902E-06 3.208379E-07 4.262636E-03
1.465621E-03 -2.624947E-02 1.181443E-07 1.970507E-06 3.212136E-07 4.263430E-03
1.465391E-03 -2.624734E-02 1.186516E-07 1.957558E-06 3.216984E-07 4.264224E-03
1.465161E-03 -2.624521E-02 1.191272E-07 1.944997E-06 3.222964E-07 4.265017E-03
1.464932E-03 -2.624309E-02 1.195761E-07 1.932894E-06 3.230122E-07 4.265811E-03
1.464702E-03 -2.624096E-02 1.199992E-07 1.921300E-06 3.238504E-07 4.266604E-03
1.464473E-03 -2.623884E-02 1.203839E-07 1.910288E-06 3.248178E-07 4.267396E-03
1.464243E-03 -2.623671E-02 1.207202E-07 1.899998E-06 3.259530E-07 4.268188E-03
1.464013E-03 -2.623459E-02 1.210178E-07 1.890417E-06 3.272476E-07 4.268980E-03
1.463784E-03 -2.623247E-02 1.212566E-07 1.881609E-06 3.286848E-07 4.269771E-03
1.463554E-03 -2.623035E-02 1.214412E-07 1.873485E-06 3.302436E-07 4.270562E-03
1.463324E-03 -2.622823E-02 1.215743E-07 1.865964E-06 3.319068E-07 4.271352E-03
1.463095E-03 -2.622611E-02 1.216551E-07 1.858983E-06 3.336737E-07 4.272141E-03
1.462865E-03 -2.622399E-02 1.216836E-07 1.852468E-06 3.355404E-07 4.272931E-03
1.462635E-03 -2.622188E-02 1.216866E-07 1.846549E-06 3.374814E-07 4.273721E-03
1.462406E-03 -2.621976E-02 1.216617E-07 1.841282E-06 3.394814E-07 4.274510E-03
1.462176E-03 -2.621765E-02 1.216126E-07 1.836703E-06 3.415440E-07 4.275300E-03
1.461946E-03 -2.621553E-02 1.215433E-07 1.832977E-06 3.436901E-07 4.276089E-03
1.461716E-03 -2.621342E-02 1.214559E-07 1.830115E-06 3.459248E-07 4.276877E-03
1.461486E-03 -2.621131E-02 1.213512E-07 1.828085E-06 3.482468E-07 4.277664E-03
1.461256E-03 -2.620920E-02 1.212341E-07 1.826783E-06 3.506540E-07 4.278451E-03
1.461026E-03 -2.620709E-02 1.210965E-07 1.826035E-06 3.530918E-07 4.279237E-03
1.460796E-03 -2.620499E-02 1.209352E-07 1.825723E-06 3.555113E-07 4.280023E-03
1.460566E-03 -2.620288E-02 1.207626E-07 1.826000E-06 3.579095E-07 4.280808E-03
1.460337E-03 -2.620078E-02 1.206005E-07 1.827151E-06 3.602856E-07 4.281594E-03
1.460107E-03 -2.619867E-02 1.204614E-07 1.829327E-06 3.626420E-07 4.282378E-03
1.459877E-03 -2.619657E-02 1.203349E-07 1.832437E-06 3.649627E-07 4.283163E-03
1.459647E-03 -2.619447E-02 1.202136E-07 1.836407E-06 3.672300E-07 4.283947E-03
1.459417E-03 -2.619236E-02 1.200974E-07 1.841182E-06 3.694430E-07 4.284730E-03
1.459187E-03 -2.619026E-02 1.199867E-07 1.846714E-06 3.715986E-07 4.285513E-03
1.458957E-03 -2.618816E-02 1.198813E-07 1.852952E-06 3.736930E-07 4.286295E-03
1.458727E-03 -2.618607E-02 1.197811E-07 1.859851E-06 3.757227E-07 4.287077E-03
1.458497E-03 -2.618397E-02 1.196863E-07 1.867361E-06 3.776842E-07 4.287859E-03
1.458267E-03 -2.618187E-02 1.195987E-07 1.875463E-06 3.795881E-07 4.288640E-03
1.458037E-03 -2.617978E-02 1.195219E-07 1.884176E-06 3.814571E-07 4.289421E-03
1.457806E-03 -2.617768E-02 1.194541E-07 1.893451E-06 3.832853E-07 4.290201E-03
1.457576E-03 -2.617559E-02 1.193951E-07 1.903247E-06 3.850688E-07 4.290980E-03
1.457346E-03 -2.617350E-02 1.193448E-07 1.913527E-06 3.868042E-07 4.291759E-03
1.457116E-03 -2.617141E-02 1.193046E-07 1.924261E-06 3.884919E-07 4.292538E-03
1.456886E-03 -2.616932E-02 1.192818E-07 1.935460E-06 3.901423E-07 4.293316E-03
1.456656E-03 -2.616723E-02 1.192751E-07 1.947083E-06 3.917519E-07 4.294094E-03
1.456425E-03 -2.616514E-02 1.192838E-07 1.959099E-06 3.933178E-07 4.294871E-03
1.456195E-03 -2.616306E-02 1.193082E-07 1.971477E-06 3.948373E-07 4.295648E-03
1.455965E-03 -2.616097E-02 1.193485E-07 1.984189E-06 3.963077E-07 4.296424E-03
1.455734E-03 -2.615888E-02 1.194050E-07 1.997204E-06 3.977265E-07 4.297199E-03
1.455504E-03 -2.615680E-02 1.194781E-07 2.010494E-06 3.990907E-07 4.297974E-03
1.455274E-03 -2.615472E-02 1.195682E-07 2.024030E-06 4.003976E-07 4.298749E-03
1.455043E-03 -2.615264E-02 1.196757E-07 2.037781E-06 4.016443E-07 4.299523E-03
1.454813E-03 -2.615056E-02 1.197987E-07 2.051733E-06 4.028302E-07 4.300296E-03
1.454583E-03 -2.614848E-02 1.199202E-07 2.066048E-06 4.039963E-07 4.301069E-03
1.454352E-03 -2.614640E-02 1.200512E-07 2.080673E-06 4.051477E-07 4.301841E-03
1.454122E-03 -2.614432E-02 1.201949E-07 2.095546E-06 4.062779E-07 4.302612E-03
1.453891E-03 -2.614224E-02 1.203533E-07 2.110619E-06 4.073813E-07 4.303383E-03
1.453661E-03 -2.614017E-02 1.205469E-07 2.125705E-06 4.084146E-07 4.304153E-03
1.453431E-03 -2.613809E-02 1.207728E-07 2.140720E-06 4.093470E-07 4.304923E-03
1.453200E-03 -2.613602E-02 1.210269E-07 2.155655E-06 4.101793E-07 4.305691E-03
1.452970E-03 -2.613395E-02 1.213287E-07 2.170360E-06 4.109094E-07 4.306459E-03
1.452739E-03 -2.613188E-02 1.216765E-07 2.184844E-06 4.115332E-07 4.307227E-03
1.452509E-03 -2.612980E-02 1.220641E-07 2.199144E-06 4.120629E-07 4.307993E-03
1.452278E-03 -2.612774E-02 1.224947E-07 2.213399E-06 4.125421E-07 4.308759E-03
1.452047E-03 -2.612567E-02 1.229702E-07 2.227690E-06 4.129825E-07 4.309524E-03
1.451817E-03 -2.612360E-02 1.234932E-07 2.242074E-06 4.133985E-07 4.310289E-03
1.451586E-03 -2.612153E-02 1.240585E-07 2.256521E-06 4.137889E-07 4.311052E-03
1.451356E-03 -2.611947E-02 1.246643E-07 2.271035E-06 4.141592E-07 4.311815E-03
1.451125E-03 -2.611740E-02 1.253104E-07 2.285646E-06 4.145115E-07 4.312576E-03
1.450894E-03 -2.611534E-02 1.259955E-07 2.300381E-06 4.148481E-07 4.313337E-03
1.450664E-03 -2.611328E-02 1.267193E-07 2.315268E-06 4.151709E-07 4.314098E-03
1.450433E-03 -2.611122E-02 1.274810E-07 2.330333E-06 4.154817E-07 4.314857E-03
1.450203E-03 -2.610916E-02 1.282792E-07 2.345598E-06 4.157724E-07 4.315615E-03
1.449972E-03 -2.610710E-02 1.291098E-07 2.361102E-06 4.160522E-07 4.316373E-03
1.449741E-03 -2.610504E-02 1.299762E-07 2.376933E-06 4.163745E-07 4.317130E-03
1.449510E-03 -2.610298E-02 1.308807E-07 2.393157E-06 4.167646E-07 4.317886E-03
1.449280E-03 -2.610093E-02 1.318217E-07 2.409803E-06 4.172205E-07 4.318641E-03
1.449049E-03 -2.609887E-02 1.327991E-07 2.426898E-06 4.177348E-07 4.319395E-03
1.448818E-03 -2.609682E-02 1.338091E-07 2.444403E-06 4.182890E-07 4.320148E-03
1.448587E-03 -2.609477E-02 1.348526E-07 2.462337E-06 4.188866E-07 4.320900E-03
1.448356E-03 -2.609271E-02 1.359308E-07 2.480732E-06 4.195288E-07 4.321651E-03
1.448126E-03 -2.609066E-02 1.370446E-07 2.499615E-06 4.202165E-07 4.322401E-03
1.447895E-03 -2.608861E-02 1.381917E-07 2.519035E-06 4.209544E-07 4.323151E-03
1.447664E-03 -2.608656E-02 1.393538E-07 2.539175E-06 4.217942E-07 4.323898E-03
1.447433E-03 -2.608452E-02 1.405094E-07 2.559726E-06 4.227387E-07 4.324645E-03
1.447202E-03 -2.608247E-02 1.416414E-07 2.580347E-06 4.237773E-07 4.325391E-03
1.446971E-03 -2.608042E-02 1.427598E-07 2.601115E-06 4.249112E-07 4.326135E-03
1.446740E-03 -2.607838E-02 1.438524E-07 2.622235E-06 4.261531E-07 4.326879E-03
1.446509E-03 -2.607633E-02 1.449295E-07 2.643689E-06 4.275032E-07 4.327621E-03
1.446278E-03 -2.607429E-02 1.459955E-07 2.665463E-06 4.289592E-07 4.328363E-03
1.446047E-03 -2.607225E-02 1.470665E-07 2.687460E-06 4.304914E-07 4.329103E-03
1.445816E-03 -2.607021E-02 1.481458E-07 2.709619E-06 4.320693E-07 4.329842E-03
1.445584E-03 -2.606817E-02 1.492297E-07 2.731965E-06 4.336965E-07 4.330580E-03
1.445353E-03 -2.606613E-02 1.503185E-07 2.754503E-06 4.353736E-07 4.331317E-03
1.445122E-03 -2.606409E-02 1.514127E-07 2.777238E-06 4.371010E-07 4.332053E-03
1.444891E-03 -2.606205E-02 1.525254E-07 2.800069E-06 4.388762E-07 4.332787E-03
1.444660E-03 -2.606002E-02 1.536603E-07 2.822920E-06 4.406946E-07 4.333521E-03
1.444429E-03 -2.605798E-02 1.548124E-07 2.845811E-06 4.425503E-07 4.334253E-03
1.444197E-03 -2.605595E-02 1.559773E-07 2.868696E-06 4.444215E-07 4.334985E-03
1.443966E-03 -2.605392E-02 1.571564E-07 2.891585E-06 4.463113E-07 4.335716E-03
1.443735E-03 -2.605188E-02 1.583481E-07 2.914442E-06 4.481869E-07 4.336445E-03
1.443504E-03 -2.604985E-02 1.595510E-07 2.937221E-06 4.500189E-07 4.337174E-03
1.443272E-03 -2.604782E-02 1.607666E-07 2.959928E-06 4.518125E-07 4.337902E-03
1.443041E-03 -2.604579E-02 1.619909E-07 2.982518E-06 4.535491E-07 4.338629E-03
1.442810E-03 -2.604377E-02 1.632146E-07 3.004918E-06 4.552011E-07 4.339355E-03
1.442579E-03 -2.604174E-02 1.644403E-07 3.027106E-06 4.567743E-07 4.340080E-03
1.442347E-03 -2.603971E-02 1.656695E-07 3.049056E-06 4.582690E-07 4.340804E-03
1.442116E-03 -2.603769E-02 1.669027E-07 3.070742E-06 4.596839E-07 4.341528E-03
1.441884E-03 -2.603566E-02 1.681402E-07 3.092138E-06 4.610173E-07 4.342250E-03
1.441653E-03 -2.603364E-02 1.693824E-07 3.113217E-06 4.622677E-07 4.342971E-03
1.441421E-03 -2.603162E-02 1.706309E-07 3.133995E-06 4.634343E-07 4.343692E-03
1.441190E-03 -2.602960E-02 1.718872E-07 3.154504E-06 4.645094E-07 4.344411E-03
1.440958E-03 -2.602758E-02 1.731491E-07 3.174722E-06 4.654879E-07 4.345130E-03
1.440727E-03 -2.602556E-02 1.744152E-07 3.194626E-06 4.663672E-07 4.345849E-03
1.440495E-03 -2.602354E-02 1.756854E-07 3.214195E-06 4.671473E-07 4.346566E-03
1.440264E-03 -2.602153E-02 1.769594E-07 3.233407E-06 4.678280E-07 4.347282E-03
1.440032E-03 -2.601951E-02 1.782372E-07 3.252243E-06 4.684085E-07 4.347998E-03
1.439801E-03 -2.601750E-02 1.795204E-07 3.270686E-06 4.689051E-07 4.348713E-03
1.439569E-03 -2.601548E-02 1.808140E-07 3.288730E-06 4.693345E-07 4.349428E-03
1.439337E-03 -2.601347E-02 1.821161E-07 3.306365E-06 4.696943E-07 4.350141E-03
1.439106E-03 -2.601146E-02 1.834258E-07 3.323578E-06 4.699844E-07 4.350854E-03
1.438874E-03 -2.600945E-02 1.847428E-07 3.340354E-06 4.702050E-07 4.351565E-03
1.438642E-03 -2.600744E-02 1.860507E-07 3.356802E-06 4.703909E-07 4.352276E-03
1.438410E-03 -2.600543E-02 1.873512E-07 3.372934E-06 4.705612E-07 4.352985E-03
1.438179E-03 -2.600342E-02 1.886626E-07 3.388585E-06 4.706779E-07 4.353693E-03
1.437947E-03 -2.600141E-02 1.899815E-07 3.403366E-06 4.706578E-07 4.354401E-03
1.437715E-03 -2.599941E-02 1.912913E-07 3.417191E-06 4.704958E-07 4.355108E-03
1.437483E-03 -2.599740E-02 1.925937E-07 3.430092E-06 4.701962E-07 4.355815E-03
1.437251E-03 -2.599540E-02 1.938845E-07 3.442039E-06 4.697625E-07 4.356520E-03
1.437019E-03 -2.599340E-02 1.951653E-07 3.453051E-06 4.691983E-07 4.357225E-03
1.436788E-03 -2.599139E-02 1.964346E-07 3.463122E-06 4.685041E-07 4.357930E-03
1.436556E-03 -2.598939E-02 1.976994E-07 3.472319E-06 4.676810E-07 4.358633E-03
1.436324E-03 -2.598739E-02 1.989713E-07 3.480805E-06 4.667322E-07 4.359336E-03
1.436092E-03 -2.598539E-02 2.002442E-07 3.488556E-06 4.656578E-07 4.360038E-03
1.435860E-03 -2.598340E-02 2.015157E-07 3.495561E-06 4.644582E-07 4.360738E-03
1.435628E-03 -2.598140E-02 2.027847E-07 3.501818E-06 4.631342E-07 4.361438E-03
1.435396E-03 -2.597940E-02 2.040499E-07 3.507323E-06 4.616867E-07 4.362137E-03
1.435164E-03 -2.597741E-02 2.053103E-07 3.512071E-06 4.601165E-07 4.362835E-03
1.434932E-03 -2.597541E-02 2.065647E-07 3.516058E-06 4.584242E-07 4.363532E-03
1.434700E-03 -2.597342E-02 2.078125E-07 3.519283E-06 4.566105E-07 4.364229E-03
1.434468E-03 -2.597143E-02 2.090553E-07 3.521765E-06 4.546776E-07 4.364924E-03
1.434236E-03 -2.596944E-02 2.102963E-07 3.523566E-06 4.526301E-07 4.365618E-03
1.434004E-03 -2.596745E-02 2.115253E-07 3.524590E-06 4.504619E-07 4.366313E-03
1.433771E-03 -2.596546E-02 2.127417E-07 3.524812E-06 4.481699E-07 4.367007E-03
1.433539E-03 -2.596347E-02 2.139443E-07 3.524165E-06 4.457333E-07 4.367700E-03
1.433307E-03 -2.596148E-02 2.151392E-07 3.522649E-06 4.431461E-07 4.368393E-03
1.433075E-03 -2.595950E-02 2.163202E-07 3.520196E-06 4.404140E-07 4.369085E-03
1.432842E-03 -2.595751E-02 2.174876E-07 3.516811E-06 4.375908E-07 4.369776E-03
1.432610E-03 -2.595553E-02 2.186428E-07 3.512524E-06 4.346776E-07 4.370467E-03
1.432378E-03 -2.595354E-02 2.197821E-07 3.507369E-06 4.316641E-07 4.371156E-03
1.432145E-03 -2.595156E-02 2.209071E-07 3.501368E-06 4.285653E-07 4.371845E-03
1.431913E-03 -2.594958E-02 2.220190E-07 3.494515E-06 4.253828E-07 4.372533E-03
1.431681E-03 -2.594760E-02 2.231164E-07 3.486804E-06 4.221154E-07 4.373220E-03
1.431448E-03 -2.594562E-02 2.241987E-07 3.478229E-06 4.187633E-07 4.373906E-03
1.431216E-03 -2.594364E-02 2.252658E-07 3.468788E-06 4.153263E-07 4.374592E-03
1.430983E-03 -2.594166E-02 2.263170E-07 3.458476E-06 4.118050E-07 4.375277E-03
1.430751E-03 -2.593969E-02 2.273543E-07 3.447301E-06 4.082079E-07 4.375961E-03
1.430518E-03 -2.593771E-02 2.283812E-07 3.435265E-06 4.045567E-07 4.376644E-03
1.430285E-03 -2.593574E-02 2.294027E-07 3.422393E-06 4.008514E-07 4.377326E-03
1.430053E-03 -2.593376E-02 2.304383E-07 3.408941E-06 3.970945E-07 4.378008E-03
1.429820E-03 -2.593179E-02 2.315029E-07 3.395169E-06 3.932985E-07 4.378689E-03
1.429588E-03 -2.592982E-02 2.325889E-07 3.381109E-06 3.894655E-07 4.379369E-03
1.429355E-03 -2.592785E-02 2.336916E-07 3.366762E-06 3.855963E-07 4.380049E-03
1.429122E-03 -2.592588E-02 2.348095E-07 3.352141E-06 3.816914E-07 4.380727E-03
1.428889E-03 -2.592391E-02 2.359393E-07 3.337214E-06 3.777149E-07 4.381405E-03
1.428656E-03 -2.592194E-02 2.370746E-07 3.321934E-06 3.736328E-07 4.382083E-03
1.428424E-03 -2.591997E-02 2.382156E-07 3.306318E-06 3.694473E-07 4.382759E-03
1.428191E-03 -2.591801E-02 2.393627E-07 3.290371E-06 3.651593E-07 4.383435E-03
1.427958E-03 -2.591604E-02 2.405146E-07 3.274086E-06 3.607611E-07 4.384110E-03
1.427725E-03 -2.591408E-02 2.416657E-07 3.257452E-06 3.562581E-07 4.384784E-03
1.427492E-03 -2.591211E-02 2.428200E-07 3.240517E-06 3.516841E-07 4.385458E-03
1.427259E-03 -2.591015E-02 2.439767E-07 3.223276E-06 3.470345E-07 4.386131E-03
1.427026E-03 -2.590819E-02 2.451363E-07 3.205753E-06 3.423162E-07 4.386802E-03
1.426793E-03 -2.590623E-02 2.463002E-07 3.187990E-06 3.375374E-07 4.387474E-03
1.426559E-03 -2.590427E-02 2.474674E-07 3.169992E-06 3.326966E-07 4.388144E-03
1.426326E-03 -2.590231E-02 2.486373E-07 3.151769E-06 3.277931E-07 4.388814E-03
1.426093E-03 -2.590035E-02 2.498095E-07 3.133331E-06 3.228270E-07 4.389483E-03
1.425860E-03 -2.589839E-02 2.509840E-07 3.114690E-06 3.177980E-07 4.390151E-03
1.425627E-03 -2.589644E-02 2.521603E-07 3.095856E-06 3.127073E-07 4.390819E-03
1.425393E-03 -2.589448E-02 2.533424E-07 3.076858E-06 3.075693E-07 4.391486E-03
1.425160E-03 -2.589253E-02 2.545305E-07 3.057710E-06 3.023859E-07 4.392152E-03
1.424926E-03 -2.589057E-02 2.557238E-07 3.038424E-06 2.971567E-07 4.392817E-03
1.424693E-03 -2.588862E-02 2.569218E-07 3.019017E-06 2.918816E-07 4.393482E-03
1.424460E-03 -2.588667E-02 2.581242E-07 2.999503E-06 2.865609E-07 4.394146E-03
1.424226E-03 -2.588472E-02 2.593310E-07 2.979899E-06 2.811948E-07 4.394809E-03
1.423993E-03 -2.588277E-02 2.605473E-07 2.960269E-06 2.757869E-07 4.395472E-03
1.423759E-03 -2.588082E-02 2.617805E-07 2.940746E-06 2.703450E-07 4.396134E-03
1.423525E-03 -2.587887E-02 2.630264E-07 2.921331E-06 2.648686E-07 4.396796E-03
1.423292E-03 -2.587692E-02 2.642849E-07 2.902069E-06 2.593702E-07 4.397457E-03
1.423058E-03 -2.587498E-02 2.655499E-07 2.883180E-06 2.538823E-07 4.398118E-03
1.422824E-03 -2.587303E-02 2.668123E-07 2.865083E-06 2.484676E-07 4.398778E-03
1.422590E-03 -2.587109E-02 2.680877E-07 2.847771E-06 2.431211E-07 4.399437E-03
1.422357E-03 -2.586914E-02 2.693504E-07 2.831521E-06 2.378633E-07 4.400095E-03
1.422123E-03 -2.586720E-02 2.705985E-07 2.816495E-06 2.327248E-07 4.400751E-03
1.421889E-03 -2.586526E-02 2.718392E-07 2.802682E-06 2.277039E-07 4.401406E-03
1.421655E-03 -2.586332E-02 2.730711E-07 2.790071E-06 2.227980E-07 4.402060E-03
1.421421E-03 -2.586138E-02 2.742869E-07 2.778520E-06 2.179970E-07 4.402714E-03
1.421187E-03 -2.585944E-02 2.754937E-07 2.768030E-06 2.133001E-07 4.403366E-03
1.420953E-03 -2.585750E-02 2.766875E-07 2.758679E-06 2.087099E-07 4.404019E-03
1.420719E-03 -2.585556E-02 2.778675E-07 2.750478E-06 2.042276E-07 4.404671E-03
1.420484E-03 -2.585363E-02 2.790223E-07 2.743304E-06 1.998534E-07 4.405323E-03
1.420250E-03 -2.585169E-02 2.801554E-07 2.737167E-06 1.955845E-07 4.405975E-03
1.420016E-03 -2.584976E-02 2.812654E-07 2.732011E-06 1.914162E-07 4.406625E-03
1.419782E-03 -2.584782E-02 2.823554E-07 2.727830E-06 1.873506E-07 4.407276E-03
1.419548E-03 -2.584589E-02 2.834131E-07 2.724492E-06 1.833810E-07 4.407926E-03
1.419314E-03 -2.584396E-02 2.844266E-07 2.721794E-06 1.794972E-07 4.408575E-03
1.419079E-03 -2.584203E-02 2.853867E-07 2.719552E-06 1.756849E-07 4.409224E-03
1.418845E-03 -2.584010E-02 2.862957E-07 2.717777E-06 1.719281E-07 4.409872E-03
1.418611E-03 -2.583817E-02 2.871571E-07 2.716448E-06 1.682266E-07 4.410520E-03
1.418377E-03 -2.583624E-02 2.879733E-07 2.715551E-06 1.645792E-07 4.411167E-03
1.418142E-03 -2.583431E-02 2.887459E-07 2.715068E-06 1.609836E-07 4.411814E-03
1.417908E-03 -2.583239E-02 2.894761E-07 2.714983E-06 1.574379E-07 4.412460E-03
1.417674E-03 -2.583046E-02 2.901647E-07 2.715277E-06 1.539403E-07 4.413106E-03
1.417439E-03 -2.582854E-02 2.908087E-07 2.715961E-06 1.504952E-07 4.413751E-03
1.417205E-03 -2.582661E-02 2.913834E-07 2.717280E-06 1.471645E-07 4.414395E-03
1.416970E-03 -2.582469E-02 2.918994E-07 2.719205E-06 1.439537E-07 4.415039E-03
1.416736E-03 -2.582277E-02 2.923613E-07 2.721691E-06 1.408579E-07 4.415682E-03
1.416501E-03 -2.582085E-02 2.927709E-07 2.724706E-06 1.378767E-07 4.416324E-03
1.416267E-03 -2.581893E-02 2.931203E-07 2.728381E-06 1.350723E-07 4.416965E-03
1.416032E-03 -2.581701E-02 2.933962E-07 2.732939E-06 1.324758E-07 4.417606E-03
1.415798E-03 -2.581509E-02 2.936095E-07 2.738343E-06 1.301080E-07 4.418246E-03
1.415563E-03 -2.581317E-02 2.937665E-07 2.744570E-06 1.279723E-07 4.418886E-03
1.415329E-03 -2.581125E-02 2.938677E-07 2.751598E-06 1.260651E-07 4.419525E-03
1.415094E-03 -2.580934E-02 2.939144E-07 2.759408E-06 1.243845E-07 4.420164E-03
1.414859E-03 -2.580742E-02 2.939077E-07 2.767987E-06 1.229290E-07 4.420802E-03
1.414625E-03 -2.580551E-02 2.938490E-07 2.777310E-06 1.216837E-07 4.421439E-03
1.414390E-03 -2.580360E-02 2.937429E-07 2.787368E-06 1.205978E-07 4.422076E-03
1.414155E-03 -2.580168E-02 2.936037E-07 2.798328E-06 1.196500E-07 4.422713E-03
1.413921E-03 -2.579977E-02 2.934206E-07 2.810108E-06 1.188332E-07 4.423349E-03
1.413686E-03 -2.579786E-02 2.931773E-07 2.822463E-06 1.181358E-07 4.423984E-03
1.413451E-03 -2.579595E-02 2.928808E-07 2.835365E-06 1.175559E-07 4.424619E-03
1.413216E-03 -2.579404E-02 2.925208E-07 2.848657E-06 1.170865E-07 4.425253E-03
  300000    2416.2089            0            0        0.064 3.8580247e-10 
Loop time of 44457.7 on 16 procs for 300000 steps with 1280 atoms

Pair  time (%) = 0.525266 (0.0011815)
Neigh time (%) = 0.618118 (0.00139035)
Comm  time (%) = 16.7795 (0.0377425)
Outpt time (%) = 0.125966 (0.000283338)
Other time (%) = 44439.7 (99.9594)

Nlocal:    80 ave 160 max 0 min
Histogram: 8 0 0 0 0 0 0 0 0 8
Nghost:    35 ave 70 max 0 min
Histogram: 8 0 0 0 0 0 0 0 0 8
Neighs:    0 ave 0 max 0 min
Histogram: 16 0 0 0 0 0 0 0 0 0

Total # of neighbors = 0
Ave neighs/atom = 0
Neighbor list builds = 179
Dangerous builds = 0
