LAMMPS (24 Dec 2020)
Processor partition = 0
OMP_NUM_THREADS environment is not set. Defaulting to 1 thread. (src/comm.cpp:94)
  using 1 OpenMP thread(s) per MPI task
units lj
atom_style atomic
atom_modify map yes
boundary f f f
region mybox block -5.0 5.0 -5.0 5.0 -5.0 5.0
create_box 1 mybox
Created orthogonal box = (-5.0000000 -5.0000000 -5.0000000) to (5.0000000 5.0000000 5.0000000)
  1 by 1 by 1 MPI processor grid
create_atoms 1 single 0.0 0.0 0.0 units box
Created 1 atoms
  create_atoms CPU = 0.000 seconds
pair_style zero 2.0 nocoeff
pair_coeff * *
mass 1 1.0
timestep 0.2

#thermo_style custom step ke pe etotal

fix 1 all spring/self 1.0 xyz
fix_modify 1 energy yes
#fix 2 all nve
velocity all set 0.1 0.1 0.1

fix 4 all pimd3 method nmpimd ensemble nvt temp 0.5 thermostat PILE_L 975481
#fix 4 all pimd2 method nmpimd thermostat baoab 975481 fmass 1.0 temp 1.0
#fix 4 all pimd3 method nmpimd ensemble nve

thermo_style custom step f_4[1] f_4[2] f_4[3] f_4[4] f_4[5] f_4[6] f_4[7] f_4[8] f_4[9]
thermo 100

run 1000000
Neighbor list info ...
  update every 1 steps, delay 10 steps, check yes
  max neighbors/atom: 2000, page size: 100000
  master list distance cutoff = 2.3
  ghost atom cutoff = 2.3
  binsize = 1.15, bins = 9 9 9
  1 neighbor lists, perpetual/occasional/extra = 1 0 0
  (1) pair zero, perpetual
      attributes: half, newton on
      pair build: half/bin/atomonly/newton
      stencil: half/bin/3d/newton
      bin: standard
Per MPI rank memory allocation (min/avg/max) = 3.047 | 3.047 | 3.047 Mbytes
Step f_4[1] f_4[2] f_4[3] f_4[4] f_4[5] f_4[6] f_4[7] f_4[8] f_4[9] 
       0            0            0            0            0            3           -0         0.75        0.002       0.0015 
     100    3.5446119    3.1607995   0.19922672    6.9046381  -0.16079951   0.19922672   0.75757388 -0.00024001749 0.0011166943 
     200    4.8900448   0.95318482   0.34292603    6.1861556    2.0468152   0.34292603   0.75221959 0.0011359261 0.00081858712 
     300     3.686128    2.9799394   0.27924748    6.9453149  0.020060583   0.27924748   0.75735779 -0.00017279126 0.00095622062 
     400    4.6313216     1.084306   0.81868012    6.5343078     1.915694   0.81868012   0.75320151 0.00073134256 -0.00013095722 
     500    5.1426213    1.8961845   0.54218071    7.5809866    1.1038155   0.54218071    0.7553657 0.00037442318 0.00042636998 
     600    2.5294795    5.5805361   0.82771924    8.9377348   -2.5805361   0.82771924   0.76533064 -0.0022721702 -0.0001247772 
     700    3.6787917    2.2601179   0.14108514    6.0799947   0.73988212   0.14108514   0.75695962 0.00039919799  0.001231749 
     800     1.881939     1.489467    1.9937118    5.3651178     1.510533    1.9937118   0.75432842 -0.00032211915 -0.0024787667 
     900    2.1930297    2.0327718    1.5220338    5.7478353   0.96722816    1.5220338   0.75503849 -0.00036987042 -0.0015339906 
    1000    2.7081293    6.2646778    1.1826594    10.155466   -3.2646778    1.1826594   0.76674922 -0.0029648914 -0.00083182039 
    1100     1.782994    1.0495316   0.47425541     3.306781    1.9504684   0.47425541   0.75199367 0.00098414201 0.00055547653 
    1200    1.3503397    2.3408371   0.17051746    3.8616942   0.65916292   0.17051746   0.75602993 0.00032576364 0.0011710249 
    1300    3.4732308    3.9118453   0.19107338    7.5761495  -0.91184533   0.19107338   0.76167128 -0.00073527914 0.0011411958 
    1400    2.8048205    3.1982876   0.49946067    6.5025687  -0.19828756   0.49946067   0.75849657 -0.00046516549 0.0005180718 
    1500    2.0694042    1.1714954   0.75879407    3.9996937    1.8285046   0.75879407   0.75245149 0.00071314035 -1.2685163e-05 
    1600    3.0230619   0.45072012   0.44679138    3.9205734    2.5492799   0.44679138   0.75139011  0.001401659 0.00060919746 
    1700    2.7980041    1.9348006    1.8872521    6.6200568    1.0651994    1.8872521    0.7540371 -0.00054803512  -0.00226643 
    1800    3.4719854     1.552378   0.59819786    5.6225613     1.447622   0.59819786   0.75481922 0.00056628273 0.00031324271 
    1900    4.6139183    1.3283667    1.6872534    7.6295384    1.6716333    1.6872534   0.75369943 -1.0413404e-05 -0.0018671079 
    2000    2.0721275    2.2465625   0.19694272    4.5156327   0.75343753   0.19694272   0.75579105 0.00037099654 0.0011176967 
    2100      5.65686    2.3980195   0.25644599    8.3113255   0.60198052   0.25644599   0.75682004 0.00023035636 0.0010007481 
    2200    2.4711786    1.2056978  0.071724115    3.7486005    1.7943022  0.071724115   0.75378315 0.0011483854 0.0013641181 
    2300    2.2220614    1.1261694   0.80340796    4.1516387    1.8738306   0.80340796   0.75302413 0.00071361509 -0.00010076766 
    2400    1.5064551     1.616121     2.216013    5.3385891     1.383879     2.216013    0.7534419 -0.00055475598 -0.0029251421 
    2500    3.6469173    1.9519624   0.76276222    6.3616419    1.0480376   0.76276222   0.75395794 0.0001901836 -1.7608568e-05 
    2600    2.1123934    2.1528512   0.31392331    4.5791679   0.84714877   0.31392331   0.75659037 0.00035548364 0.00088533412 
    2700    3.5113076    1.3120004   0.64915382    5.4724618    1.6879996   0.64915382   0.75348484 0.00069256387 0.00020866204 
    2800     2.154407    3.5889544    1.9382486      7.68161  -0.58895443    1.9382486   0.75949008 -0.001684802 -0.002357517 
    2900    1.6731804    3.1593788   0.33589372     5.168453  -0.15937883   0.33589372   0.75969099 -0.00033018171 0.00084759453 
    3000    4.0304184    1.0057723   0.26046957    5.2966603    1.9942277   0.26046957    0.7527868 0.0011558388 0.00098463446 
    3100    2.1032375     1.768765    1.3269314    5.1989338     1.231235    1.3269314   0.75534551 -6.379756e-05 -0.0011431717 
    3200    1.7288813    2.9532558   0.73299903    5.4151361  0.046744195   0.73299903   0.75740323 -0.00045750322 4.8808412e-05 
    3300    1.8995273     1.646316    1.0976096     4.643453     1.353684    1.0976096   0.75472755 0.00017071622 -0.00068576416 
    3400    3.2685753    1.8871066   0.64611327    5.8017952    1.1128934   0.64611327   0.75425587 0.00031118676 0.00021628521 
    3500    1.6991506    2.0952634   0.42192743    4.2163414   0.90473665   0.42192743   0.75561531 0.00032187281 0.00066737576 
    3600    2.2474543    1.5451547  0.032145799    3.8247548    1.4548453  0.032145799   0.75290161 0.0009484663 0.0014415116 
    3700    2.6179572     3.618521   0.45018029    6.6866585  -0.61852102   0.45018029   0.75984575 -0.00071246754 0.00061933092 
    3800    3.5274002    3.4527143    0.8439236    7.8240381  -0.45271432    0.8439236   0.75945678 -0.00086442528 -0.00016893363 
    3900    3.0625191   0.93772699   0.79867667    4.7989227     2.062273   0.79867667   0.75242818 0.00084239756 -9.2496992e-05 
    4000     2.519595     2.673713   0.51995668    5.7132646   0.32628702   0.51995668   0.75826129 -0.00012911311 0.00047660922 
    4100    2.3611211    2.9181874   0.25563291    5.5349413  0.081812622   0.25563291   0.75810391 -0.00011588019  0.001004942 
    4200    3.0419573    2.1048787    1.2493429    6.3961789    0.8951213    1.2493429   0.75591144 -0.00023614771 -0.00098686286 
    4300    1.9348795    1.5072602   0.27284701    3.7149867    1.4927398   0.27284701   0.75414538 0.00081326188 0.00096259675 
    4400   0.63662198    2.1150788    0.8095759    3.5612767   0.88492117    0.8095759   0.75542797 5.0230179e-05 -0.00010829587 
    4500    2.7785677    1.2557435    1.0414015    5.0757127    1.7442565    1.0414015   0.75234942 0.00046857002 -0.00057810419 
    4600      2.78933    2.0535857    1.1458513     5.988767   0.94641432    1.1458513   0.75509682 -0.00013295802 -0.00078150905 
    4700    3.0722758    2.7195615  0.062719821    5.8545572   0.28043845  0.062719821   0.75549876 0.00014514576 0.0013855579 
    4800    2.8271079     1.037494   0.25187391    4.1164757     1.962506   0.25187391   0.75199368 0.0011404214 0.0010002395 
    4900    1.9450219   0.93571155   0.40473268    3.2854661    2.0642884   0.40473268   0.75287497 0.0011063705 0.00069628457 
    5000    2.2266491    2.1827238   0.42225741    4.8316303   0.81727624   0.42225741   0.75553274 0.00026334588 0.00066655067 
    5100    2.0623989    2.7586946   0.11609841    4.9371919   0.24130545   0.11609841   0.75763463 8.347136e-05 0.0012830724 
    5200    3.7870604    1.7210689   0.26477816    5.7729075    1.2789311   0.26477816   0.75493152 0.00067610198 0.00098030672 
    5300    3.3703914    1.5924901   0.51044996    5.4733315    1.4075099   0.51044996    0.7546186 0.00059803994 0.00048833728 
    5400     4.567459    2.4403689    1.9413459    8.9491738   0.55963113    1.9413459   0.75679975 -0.00092114315 -0.0023690922 
    5500    3.8373957    1.4991287   0.44576054    5.7822849    1.5008713   0.44576054   0.75341497 0.00070340719 0.00061530887 
    5600   0.82862206    1.9468369   0.48346479    3.2589237    1.0531631   0.48346479    0.7554454 0.0003797989 0.00054396122 
    5700    3.5969241     2.061277   0.31929387     5.977495   0.93872298   0.31929387   0.75617576 0.00041295274 0.00087376378 
    5800    3.0018821    3.2435255     1.275218    7.5206256  -0.24352546     1.275218   0.75732772 -0.0010124956 -0.0010357806 
    5900     2.798487    1.7849711   0.39006913    4.9735272    1.2150289   0.39006913   0.75397647 0.00054997319 0.00072781467 
    6000    2.3749772    1.5208102    0.8170168    4.7128042    1.4791898    0.8170168    0.7545157 0.00044144865 -0.00012500219 
    6100    1.1093695     2.004277   0.74693554    3.8605821   0.99572297   0.74693554   0.75414412 0.00016585828 1.4417147e-05 
    6200    2.5512171    3.9046168   0.48522889    6.9410628  -0.90461684   0.48522889   0.76100294 -0.00092656382 0.0005515481 
    6300    2.8280868    2.8254249   0.13881934    5.7923311   0.17457513   0.13881934   0.75742699 2.3837187e-05 0.0012372153 
    6400    1.6804601    1.6081376   0.98830975    4.2769074    1.3918624   0.98830975   0.75506276 0.0002690351 -0.00046649398 
    6500    1.4738388   0.99801369   0.29778688    2.7696393    2.0019863   0.29778688   0.75266249  0.001136133 0.00090975122 
    6600    3.9846895    2.0002007   0.12316222    6.1080524    0.9997993   0.12316222   0.75609653 0.00058442472 0.0012658686 
    6700     3.553378    1.8707396    1.1230607    6.5471784    1.1292604    1.1230607   0.75572741 4.1330945e-06 -0.00073466667 
    6800    2.1232122    2.3837533   0.97760885    5.4845744   0.61624673   0.97760885   0.75704495 -0.00024090808 -0.0004411278 
    6900    2.8910857    2.5438699   0.38186004    5.8168157   0.45613005   0.38186004   0.75614866 4.951334e-05 0.00074857723 
    7000    1.9036886    3.0383927    0.9551948    5.8972761 -0.038392723    0.9551948    0.7581428 -0.00066239168 -0.000394104 
    7100    2.1677623    1.1126491  0.041194342    3.3216057    1.8873509  0.041194342   0.75318222  0.001230771 0.0014239758 
    7200    5.1610533    1.8508975   0.21662816     7.228579    1.1491025   0.21662816   0.75494367 0.00062164954  0.001076631 
    7300    1.3973248   0.60578522  0.033391157    2.0365012    2.3942148  0.033391157   0.75167369 0.0015738824 0.0014365651 
    7400    3.1239709    4.0615401   0.25679374    7.4423048   -1.0615401   0.25679374   0.76138261 -0.00087888926 0.0010091777 
    7500    3.1904375    2.5917164    0.5778012    6.3599551   0.40828357    0.5778012   0.75749126 -0.00011301175 0.00035938013 
    7600     1.646094    3.0665868   0.96209748    5.6747783 -0.066586761   0.96209748   0.75935353 -0.0006857895 -0.00040548791 
    7700    3.9062986   0.90914716    0.2707086    5.0861544    2.0908528    0.2707086     0.752852 0.0012134295 0.00096428681 
    7800    1.7002017    1.5463855   0.71098289    3.9575701    1.4536145   0.71098289   0.75363829 0.00049508773 8.5310801e-05 
    7900    5.6508299   0.46601135   0.16665224    6.2834935    2.5339886   0.16665224   0.75135591 0.0015782243 0.0011694073 
    8000    1.8636553     1.883176   0.14168498    3.8885163     1.116824   0.14168498   0.75323888 0.00065009268 0.0012231078 
    8100    3.1970552    2.2739324  0.014179204    5.4851667   0.72606763  0.014179204   0.75675828 0.00047459229 0.0014851582 
    8200    3.7294859    3.7418676   0.75731706    8.2286706  -0.74186762   0.75731706   0.76098199 -0.00099945646 7.3298571e-06 
    8300    2.1023101    2.0827039   0.45351341    4.6385274   0.91729609   0.45351341    0.7541911 0.00030918846 0.00060135539 
    8400    3.7121496    5.7604126  0.032827365    9.5053896   -2.7604126  0.032827365   0.76735155  -0.00186216 0.0014690484 
    8500    5.8540655     2.033982    0.4693555    8.3574031   0.96601796    0.4693555   0.75565155 0.00033110831 0.00057259209 
    8600    2.1173124    2.8406742   0.75551504    5.7135016   0.15932585   0.75551504   0.75750516 -0.00039745946 3.980231e-06 
    8700    1.4304046    2.3178745   0.78069365    4.5289728   0.68212549   0.78069365   0.75568137 -6.5712108e-05 -5.0024564e-05 
    8800    1.1456059    1.3896524   0.74499775    3.2802561    1.6103476   0.74499775    0.7529567 0.00057689991 1.5917912e-05 
    8900    2.7099015    1.2255607    1.1699075    5.1053697    1.7744393    1.1699075    0.7531704 0.0004030212 -0.00083347417 
    9000    2.2452233    2.7402493    1.9281185    6.9135911   0.25975073    1.9281185   0.75783061 -0.0011122452 -0.0023405757 
    9100   0.50924415    2.2657923   0.15362784    2.9286643   0.73420773   0.15362784   0.75669853 0.00038705326 0.0012061414 
    9200    2.1580199    1.1017249   0.20503852    3.4647833    1.8982751   0.20503852   0.75291088 0.0011288244 0.0010957447 
    9300    2.5663089    1.4023698    0.9413226    4.9100013    1.5976302    0.9413226   0.75311448 0.00043753839 -0.00037641624 
    9400    2.2909642    2.7142249   0.82860449    5.8337936    0.2857751   0.82860449   0.75840826 -0.00036188626 -0.00014039247 
    9500    4.2097861    1.5313792   0.12425547    5.8654207    1.4686208   0.12425547   0.75416735 0.00089624357 0.0012598237 
    9600    3.0389567    1.6407055   0.18255483    4.8622169    1.3592945   0.18255483   0.75393917 0.00078449315 0.0011427687 
    9700     5.718533    1.6769527    0.3198791    7.7153648    1.3230473    0.3198791   0.75478814 0.00066877878 0.00086981808 
    9800    2.2256473    1.5366609   0.41096313    4.1732714    1.4633391   0.41096313   0.75372585 0.00070158398 0.00068552545 
    9900    3.8123703    2.6527061    1.0019663    7.4670427   0.34729395    1.0019663    0.7566695 -0.00043644823 -0.00049059359 
   10000    1.8727044    2.8725637   0.42020082    5.1654689   0.12743635   0.42020082   0.75661759 -0.00019517632 0.00067283354 
   10100    3.1015963   0.55239183   0.45095267    4.1049408    2.4476082   0.45095267   0.75144837 0.0013311037 0.00060099141 
   10200    1.5554109    1.8664498   0.74330313    4.1651637    1.1335502   0.74330313   0.75376239 0.00026016474 2.0918514e-05 
   10300    3.9369664    2.8501268   0.78910479     7.576198   0.14987319   0.78910479   0.75739309 -0.0004261544 -6.3423401e-05 
   10400    2.0464079     2.437981   0.28457282    4.7689617   0.56201901   0.28457282   0.75605581 0.00018496413 0.00094296599 
   10500    2.8288669    1.5977412    2.2051861    6.6317943    1.4022588    2.2051861   0.75397777 -0.0005352849 -0.0029024167 
   10600    3.6856621    3.1137867    1.6400261    8.4394749  -0.11378671    1.6400261   0.75905544 -0.0011692085 -0.0017619413 
   10700    2.3142293    1.4437459     1.128373    4.8863482    1.5562541     1.128373   0.75433845 0.00028525406 -0.00074806914 
   10800    1.3684662    2.5397999   0.17641369    4.0846798   0.46020013   0.17641369   0.75712574 0.00018919096 0.0011614241 
   10900    5.6083753    2.0486371   0.47833336    8.1353457   0.95136291   0.47833336   0.75433837 0.00031535303 0.00055201002 
   11000    1.6430365   0.56955172   0.38548529    2.5980735    2.4304483   0.38548529   0.75177755 0.0013633087 0.00073258452 
   11100    2.2244285    3.4026912   0.09398055    5.7211003  -0.40269123   0.09398055    0.7583802 -0.00033111452 0.0013287993 
   11200    3.1489859    2.0988334    0.5517282    5.7995475   0.90116657    0.5517282   0.75476738 0.00023295891 0.00040607835 
   11300    2.8578125    1.6237913   0.43683111    4.9184349    1.3762087   0.43683111   0.75464694 0.00062625172 0.00063563166 
   11400     1.478745    3.1888124   0.64609491    5.3136523  -0.18881242   0.64609491   0.75647389 -0.00055660489 0.00022075796 
   11500    2.1285657    2.5356433    1.0219845    5.6861934   0.46435668    1.0219845   0.75726243 -0.00037175185 -0.00052944407 
   11600    2.3310608    1.7673253   0.16862904    4.2670152    1.2326747   0.16862904   0.75508211 0.00070936374 0.0011729061 
   11700    4.4635034    2.4373509   0.23433293    7.1351872   0.56264911   0.23433293   0.75705557 0.00021887746 0.0010454453 
   11800    2.7009806    1.7739835    1.0498318    5.5247959    1.2260165    1.0498318   0.75445037 0.0001174565 -0.00059076287 
   11900    4.3154699    3.3583592   0.40515058    8.0789796  -0.35835915   0.40515058   0.75908154 -0.00050900649 0.00070786192 
   12000     2.047916    1.4326721    1.1911265    4.6717146    1.5673279    1.1911265   0.75435473 0.00025080091 -0.00087354356 
   12100    2.7897967    2.2554317   0.61401627    5.6592447   0.74456826   0.61401627   0.75482985 8.7034661e-05 0.00028162716 
   12200    4.2572856    1.8729758    1.6289433    7.7592046    1.1270242    1.6289433    0.7540005 -0.00033461271 -0.0017498856 
   12300    2.2359299    2.3543312   0.64684516    5.2371062   0.64566884   0.64684516   0.75570487 -7.842122e-07 0.00021771942 
   12400    4.4243849    1.5198629    1.3171654    7.2614132    1.4801371    1.3171654   0.75430794 0.00010864781 -0.001125715 
   12500    3.1385573    1.1247599    1.0212613    5.2845785    1.8752401    1.0212613    0.7529353 0.0005693192 -0.00053665195 
   12600    2.7574767    2.0022627   0.64389741    5.4036369    0.9977373   0.64389741   0.75625842 0.00023589326 0.00022472202 
   12700     1.907148    2.0190766    1.6325723    5.5587969    0.9809234    1.6325723   0.75609174 -0.00043443262 -0.0017529612 
   12800    4.4872526    2.1938983   0.20664486    6.8877958   0.80610173   0.20664486    0.7548834 0.00039963791 0.0010964771 
   12900    3.0222466     2.681645   0.37255165    6.0764432   0.31835504   0.37255165   0.75783622 -3.6131067e-05 0.00077056915 
   13000    2.6971162     3.260668   0.47178744    6.4295717  -0.26066801   0.47178744   0.75828687 -0.00048830363 0.00057299885 
   13100    2.0514529    1.8511953   0.47536873    4.3780169    1.1488047   0.47536873   0.75532493 0.00044895733 0.0005599124 
   13200    2.5671096    2.2414571   0.33771451    5.1462812   0.75854294   0.33771451   0.75557097 0.00028055229 0.00083571291 
   13300   0.97233463    2.9349192   0.54982106    4.4570749   0.06508081   0.54982106   0.75920095 -0.00032316017 0.00041875979 
   13400    1.2772714    1.9820216  0.020717668    3.2800106    1.0179784  0.020717668   0.75486178 0.00066484049 0.0014682882 
   13500    3.6219694    1.5088343   0.18887008    5.3196738    1.4911657   0.18887008   0.75434905 0.00086819707 0.0011309579 
   13600    3.0079172     2.982674   0.15338307    6.1439744  0.017325958   0.15338307   0.75714015 -9.0704745e-05 0.0012075142 
   13700    4.4839398    1.0435599   0.25584789    5.7833476    1.9564401   0.25584789   0.75323928 0.0011337282 0.00099478278 
   13800    1.2954461    2.5976959   0.59919181    4.4923339   0.40230406   0.59919181   0.75819725 -0.0001312585 0.00031801087 
   13900    1.4569068    2.4307373    2.1518862    6.0395302   0.56926271    2.1518862   0.75763349 -0.0010550823 -0.0027885054 
   14000    4.4724264    1.8203797   0.52002546    6.8128316    1.1796203   0.52002546   0.75510485 0.00043972992 0.00047015878 
   14100    1.6565312    1.5632788   0.62662974    3.8464397    1.4367212   0.62662974   0.75421829 0.00054006099 0.0002551771 
   14200    1.4129058    2.3759796    1.2554111    5.0442964   0.62402045    1.2554111    0.7550721 -0.00042092708 -0.0010006779 
   14300     2.125431    2.2638905   0.40341141     4.792733   0.73610947   0.40341141   0.75509753 0.0002217987 0.00070337224 
   14400    2.4095221     5.261661   0.64248392     8.313667    -2.261661   0.64248392   0.76512104 -0.0019360966 0.00024527424 
   14500    5.5199525    1.4124105   0.85082486    7.7831879    1.5875895   0.85082486   0.75407324 0.00049117643 -0.00019350324 
   14600    3.2158187    1.8451427    1.8660769    6.9270382    1.1548573    1.8660769   0.75367561 -0.00047414637 -0.0022248025 
   14700    2.5569954    1.8703221     1.354007    5.7813245    1.1296779     1.354007   0.75391613 -0.00014955274 -0.0012001817 
   14800    4.5467426    1.9628234   0.29413277    6.8036988    1.0371766   0.29413277   0.75468262 0.00049536254 0.00092109971 
   14900    4.2888498    1.6180163   0.94588654    6.8527527    1.3819837   0.94588654   0.75446174 0.00029073144 -0.00038284959 
   15000    2.1448103    1.9512265    1.0330165    5.1290533    1.0487735    1.0330165   0.75477738 1.0504663e-05 -0.00055647824 
   15100    1.6470038    4.1813401   0.26911226    6.0974562   -1.1813401   0.26911226   0.76093688 -0.00096696826 0.00098364924 
   15200    2.5219504    2.3494047   0.25009386     5.121449    0.6505953   0.25009386   0.75684863 0.00026700096 0.0010135095 
   15300    3.8771819    3.8113406    1.0121909    8.7007134  -0.81134056    1.0121909   0.76107102 -0.0012156877 -0.00050223983 
   15400      3.91243   0.80993503    1.4480285    6.1703935     2.190065    1.4480285    0.7518601 0.00049469099 -0.0013923368 
   15500    2.2873401    1.6682372   0.98536423    4.9409415    1.3317628   0.98536423   0.75472318 0.00023093237 -0.00046128211 
   15600    4.2394772    2.0750968   0.19350345    6.5080775   0.92490317   0.19350345   0.75446703 0.00048759981 0.0011219272 
   15700    3.7159785    1.7860457  0.026875675    5.5288999    1.2139543  0.026875675   0.75532558 0.00079138573 0.0014568998 
   15800     3.595198    2.2276893   0.34123464    6.1641219   0.77231073   0.34123464   0.75661907 0.00028738406 0.00083076885 
   15900    1.9249073    2.1329826   0.37449362    4.4323835   0.86701741   0.37449362   0.75546133 0.00032834919 0.00076193541 
   16000    1.7486637    2.0968295    2.1570092    6.0025024   0.90317055    2.1570092   0.75524929 -0.00083589245 -0.0028035199 
   16100    3.2371835     1.979979   0.90771001    6.1248725     1.020021   0.90771001   0.75590768 7.4874011e-05 -0.00030360465 
   16200    6.1470376     2.904826    1.1824967     10.23436  0.095173993    1.1824967   0.75646862 -0.0007248818 -0.00085205616 
   16300    1.7285026    1.6329334    1.4163505    4.7777866    1.3670666    1.4163505   0.75398546 -3.285597e-05 -0.0013247301 
   16400    3.6811662    1.0780764    0.2457562    5.0049988    1.9219236    0.2457562   0.75299725 0.0011174449 0.0010144821 
   16500     3.540128    1.6080681    1.2485678    6.3967639    1.3919319    1.2485678   0.75454318 9.5576072e-05 -0.00098804923 
   16600    3.2425502   0.96659409    1.4204618    5.6296061    2.0334059    1.4204618   0.75241585 0.00040862942 -0.0013360919 
   16700    3.5561969    4.0448391  0.081846064     7.682882   -1.0448391  0.081846064   0.76192924 -0.00075112343 0.0013601664 
   16800    1.2804516    1.9805195    1.7725879     5.033559    1.0194805    1.7725879   0.75501422 -0.00050207156 -0.0020351473 
   16900    3.4118725    2.5007506     2.029987    7.9426101   0.49924941     2.029987   0.75604416 -0.0010204917 -0.0025478857 
   17000    1.6854143    2.7935783    1.3351094     5.814102    0.2064217    1.3351094   0.75769037 -0.00075245844 -0.001154838 
   17100    2.0497766    2.9751451   0.88083485    5.9057565  0.024854895   0.88083485   0.75902443 -0.0005706533 -0.00024362083 
   17200    6.3469923     1.942322    1.3130804    9.6023947     1.057678    1.3130804   0.75520258 -0.00017026825 -0.0011157556 
   17300    5.8305143    2.4827349   0.66617283     8.979422    0.5172651   0.66617283   0.75597414 -9.9271819e-05 0.00017960262 
   17400     4.418733    2.4394412   0.07672139    6.9348956   0.56055875   0.07672139   0.75728504 0.00032255824 0.0013611273 
   17500    3.6356446    2.2539618   0.92358545    6.8131919   0.74603821   0.92358545    0.7555532 -0.00011836483 -0.00033606451 
   17600    5.1098862    2.3805121   0.22853305    7.7189313   0.61948794   0.22853305   0.75588786 0.0002606366 0.0010547096 
   17700    2.5773132    2.4036917   0.47953204    5.4605369   0.59630835   0.47953204   0.75727543 7.7850872e-05 0.00055548678 
   17800    2.0354915    1.0541479   0.13444404    3.2240834    1.9458521   0.13444404   0.75232717 0.0012076054 0.0012357663 
   17900    2.4745369    1.3446314   0.45720921    4.2763775    1.6553686   0.45720921   0.75355813 0.00079877295 0.00059269784 
   18000    2.3130506    5.5304971   0.47984709    8.3233947   -2.5304971   0.47984709   0.76733909 -0.0020068961  0.000574984 
   18100     1.080384    1.2931385   0.60053836    2.9740608    1.7068615   0.60053836    0.7536248 0.00073754879 0.00030617289 
   18200    3.9051683    1.9410052    1.0261699    6.8723434    1.0589948    1.0261699    0.7547753 2.1883311e-05 -0.00054278912 
   18300    3.8313566    3.4551602   0.26299388    7.5495107  -0.45516021   0.26299388   0.75913856 -0.00047876939 0.00099228936 
   18400    3.3933884   0.92737085    0.5908117     4.911571    2.0726291    0.5908117   0.75244521 0.0009878783 0.00032326701 
   18500    1.6476878    2.3683821   0.35567074    4.3717406   0.63161792   0.35567074   0.75441479 0.00018396479 0.0007974881 
   18600    2.6800387   0.98146692    1.0232456    4.6847512    2.0185331    1.0232456   0.75236495  0.000663525 -0.00054176125 
   18700    2.1698163    3.8184589   0.12656177     6.114837  -0.81845888   0.12656177   0.76133872 -0.00063001377 0.0012695539 
   18800    3.3500562    2.2799705   0.81047774    6.4405045   0.72002946   0.81047774   0.75507126 -6.0298856e-05 -0.00011081296 
   18900    2.6139554    1.7846755    1.7914784    6.1901094    1.2153245    1.7914784   0.75499508 -0.00038410262 -0.0020729666 
   19000    2.8102818     1.278817   0.96426861    5.0533675     1.721183   0.96426861   0.75361474 0.00050460957 -0.00042130773 
   19100    2.6666459    1.8498682  0.086941526    4.6034556    1.1501318  0.086941526   0.75542535 0.00070879354 0.0013369677 
   19200    2.8534775    2.8342159   0.42576582    6.1134592   0.16578407   0.42576582   0.75879653 -0.00017332117 0.00066606143 
   19300    2.4866532    2.4451378    1.5799702    6.5117612   0.55486221    1.5799702   0.75684192 -0.00068340531 -0.0016462565 
   19400    1.8735649     3.241358   0.38407722    5.4990001  -0.24135797   0.38407722   0.75773642 -0.00041695679 0.00074731841 
   19500     2.127769    2.0338324   0.81105644    4.9726578   0.96616757   0.81105644   0.75563798 0.00010340742 -0.00011083691 
   19600    4.2987181    1.4762949   0.63176506    6.4067781    1.5237051   0.63176506   0.75348849 0.00059462668 0.00024344686 
   19700    3.8913074    2.6610464   0.20863455    6.7609884   0.33895359   0.20863455   0.75513764 8.6879356e-05 0.0010930062 
   19800     1.724399    3.4370791    0.2262303    5.3877084   -0.4370791    0.2262303   0.76062721 -0.00044220627 0.0010687938 
   19900    4.2757217    3.9150157   0.22719737    8.4179348  -0.91501573   0.22719737   0.75806881 -0.0007614754 0.0010617429 
   20000    1.2208793    1.5328146    1.1195134    3.8732072    1.4671854    1.1195134   0.75451016 0.00023178135 -0.00073000645 
   20100    2.9944274    3.9797491   0.50804292    7.4822194   -0.9797491   0.50804292   0.76053948 -0.00099186135 0.00050499312 
   20200    3.7241535    1.0602197   0.70544153    5.4898147    1.9397803   0.70544153   0.75276186 0.00082289248 9.4640667e-05 
   20300    2.9359794    1.1051228  0.043373083    4.0844752    1.8948772  0.043373083   0.75295707 0.0012343361  0.001419168 
   20400    4.3609848    3.2868278   0.36180068    8.0096132  -0.28682775   0.36180068   0.76021728 -0.00043241895 0.0007968332 
   20500    2.0105596   0.90362276   0.68067002    3.5948523    2.0963772   0.68067002   0.75225495 0.00094380482 0.00014316986 
   20600    2.7535263    3.0816897   0.36709446    6.2023104 -0.081689669   0.36709446   0.75804124 -0.00029918942 0.00078189357 
   20700    2.2156899    2.1898307   0.66894478    5.0744654   0.81016934   0.66894478   0.75536134 9.4149705e-05 0.00017283313 
   20800     3.824858    3.5910748   0.95812092    8.3740537  -0.59107482   0.95812092   0.76020665 -0.0010327972 -0.00039582855 
   20900    3.6181722    3.4641806   0.33171863    7.4140715  -0.46418065   0.33171863   0.75819789 -0.00053059952 0.00085295852 
   21000    2.3197328    1.3047741   0.97843581    4.6029427    1.6952259   0.97843581   0.75390522 0.00047786003 -0.00044906118 
   21100    2.5726511    1.5613614   0.69135177    4.8253643    1.4386386   0.69135177   0.75367275 0.00049819124 0.00012464197 
   21200    4.3945936    0.4653773   0.23739511     5.097366    2.5346227   0.23739511   0.75143357 0.0015314851 0.0010280769 
   21300    2.4047872    2.0985286    2.4425075    6.9458233   0.90147144    2.4425075   0.75444559 -0.0010273574 -0.0033761239 
   21400    1.8520108    3.1833372   0.15792518    5.1932733  -0.18333724   0.15792518   0.75600476 -0.00022750828 0.0011961592 
   21500    2.1067454    0.9328269   0.51732349    3.5568958    2.0671731   0.51732349   0.75269847 0.0010332331 0.00047074996 
   21600    2.3247791    1.8494137   0.26732589    4.4415186    1.1505863   0.26732589   0.75486859 0.00058884028 0.0009750854 
   21700    2.9773365    2.5559184   0.76060027    6.2938552   0.44408157   0.76060027    0.7571388 -0.00021101246 -6.922935e-06 
   21800    3.3055046     1.723568   0.27065504    5.2997276     1.276432   0.27065504    0.7536664 0.00067051796 0.00096602271 
   21900    2.0515312    3.1524702    0.3254079    5.5294093  -0.15247021    0.3254079   0.75981842 -0.00031858541 0.00086882105 
   22000    3.1162926    1.0746808    0.5434289    4.7344023    1.9253192    0.5434289   0.75268987 0.00092126022 0.00041852193 
   22100     3.870188    4.2645818   0.53152078    8.6662906   -1.2645818   0.53152078   0.76014743 -0.0011974017 0.00045725331 
   22200    3.0399672    1.8458339   0.15243806    5.0382391    1.1541661   0.15243806   0.75471729 0.00066781871 0.0012045585 
   22300    3.5907152    2.0964474    1.2652911    6.9524536   0.90355261    1.2652911   0.75627614 -0.00024115896 -0.0010180298 
   22400     1.077645    1.7288259  0.015932615    2.8224035    1.2711741  0.015932615   0.75354002 0.00083682768 0.0014752148 
   22500     2.245651    1.2032878   0.47264296    3.9215817    1.7967122   0.47264296   0.75336807 0.00088271284 0.00056145021 
   22600    2.9314707    1.5056325   0.78111149    5.2182147    1.4943675   0.78111149   0.75454715 0.00047550402 -5.3128674e-05 
   22700    2.7848602    3.6948135   0.35548837    6.8351621   -0.6948135   0.35548837   0.75770202 -0.00070020125 0.00080442729 
   22800    2.3212848   0.76401178   0.74441131    3.8297079    2.2359882   0.74441131   0.75198173 0.00099438461 1.5140839e-05 
   22900    4.4255863     1.990995     2.422448    8.8390293     1.009005     2.422448   0.75539797 -0.00094229528   -0.0033341 
   23000    1.6598834    2.2122636    1.7733976    5.6455446    0.7877364    1.7733976   0.75553045 -0.00065710747 -0.0020357343 
   23100    2.4683904    1.3648859    2.3217516     6.155028    1.6351141    2.3217516   0.75407785 -0.00045775837 -0.0031353475 
   23200    1.9211086    3.7871573    1.3506697    7.0589356   -0.7871573    1.3506697   0.76032937 -0.001425218 -0.0011806807 
   23300    2.5526095    2.4943413   0.14252907    5.1894799   0.50565867   0.14252907   0.75577216 0.0002420864 0.0012264862 
   23400     3.805952   0.93973849   0.62450542    5.3701959    2.0602615   0.62450542   0.75231937 0.00095717073 0.00025562791 
   23500     3.157935    1.1777847    1.3477302      5.68345    1.8222153    1.3477302   0.75312626 0.00031632334 -0.001189208 
   23600    5.1214287    2.4044331    1.7153143    9.2411761    0.5955669    1.7153143   0.75696812 -0.00074649827 -0.0019166924 
   23700    1.4300557    1.6705131   0.18357421     3.284143    1.3294869   0.18357421   0.75413371 0.00076394179  0.001141119 
   23800    1.8733608    2.1998704   0.67177264    4.7450039   0.80012957   0.67177264   0.75592588 8.5571288e-05 0.00016830648 
   23900    0.9855922    1.4578709    1.0347893    3.4782524    1.5421291    1.0347893   0.75444947 0.00033822652 -0.00056067963 
   24000    3.2093318    1.6114774   0.69058971    5.5113988    1.3885226   0.69058971   0.75477236 0.00046528862 0.0001283653 
   24100    2.1439277    1.9366318   0.49841741    4.5789769    1.0633682   0.49841741   0.75591907 0.00037663389 0.00051500333 
   24200    6.5326446   0.76609601   0.35389061    7.6526312     2.233904   0.35389061   0.75191836 0.0012533423 0.0007960555 
   24300    3.8904256    1.7550512   0.26971031    5.9151871    1.2449488   0.26971031   0.75544909  0.000650159 0.00097147757 
   24400    3.2293395    2.7026745   0.70201683    6.6340308   0.29732554   0.70201683   0.75799593 -0.00026979419 0.00011195821 
   24500    2.2084203    1.0781789    1.1136416    4.4002407    1.9218211    1.1136416   0.75256711 0.00053878636 -0.0007221489 
   24600   0.67258874    2.0988049     0.945925    3.7173187   0.90119507     0.945925   0.75652017 -2.9819954e-05 -0.00037880966 
   24700    2.0931265    1.7939215   0.45511524    4.3421632    1.2060785   0.45511524    0.7544765 0.00050064219 0.00059872254 
   24800    2.5964121    1.9448086   0.30592057    4.8471412    1.0551914   0.30592057   0.75573309 0.00049951388 0.00089962504 
   24900    3.1996632    3.7984042    1.0173591    8.0154265  -0.79840418    1.0173591   0.76049267 -0.0012105088 -0.0005137328 
   25000    3.0367987    2.2877777    1.0514926     6.376069   0.71222233    1.0514926   0.75676745 -0.00022618016 -0.00058945024 
   25100    1.8841133    1.2385814  0.092704977    3.2153997    1.7614186  0.092704977   0.75351954 0.0011124758 0.0013216291 
   25200    3.4890355    3.0247423   0.23373433    6.7475122 -0.024742342   0.23373433      0.75946 -0.00017231778 0.0010514513 
   25300    0.8274518    3.5515146   0.40116521    4.7801317  -0.55151465   0.40116521   0.76062327 -0.0006351199 0.00071891613 
   25400    1.9284562    1.4419852     1.019789    4.3902304    1.5580148     1.019789   0.75411195 0.00035881716 -0.00053135416 
   25500    1.5543154     1.857662   0.77357472    4.1855521     1.142338   0.77357472   0.75442486 0.00024584216 -3.8299706e-05 
   25600    1.6746813    2.3250709   0.83193123    4.8316835   0.67492905   0.83193123   0.75467711 -0.00010466812 -0.00015450823 
   25700    2.6974023    1.0882151   0.87443302    4.6600504    1.9117849   0.87443302   0.75299259 0.00069156789 -0.00024288086 
   25800    3.8860909   0.93093364   0.64843035    5.4654549    2.0690664   0.64843035   0.75222516 0.00094709068 0.00020758963 
   25900    1.8156422    1.2428298    0.7253063    3.7837782    1.7571702    0.7253063   0.75318887 0.0006879093 5.5765145e-05 
   26000    3.9064958   0.73011928   0.35957826    4.9961933    2.2698807   0.35957826   0.75207025  0.001273535 0.00078498398 
   26100    3.4267565    2.0800872   0.25269279    5.7595365    0.9199128   0.25269279   0.75487936 0.00044481334 0.0010043731 
   26200    1.6072504    1.5862239   0.26838882    3.4618631    1.4137761   0.26838882   0.75429825 0.00076359154 0.00097181886 
   26300    4.4729435    3.5487762   0.50110861    8.5228283  -0.54877621   0.50110861   0.75680372 -0.00069992321 0.00051139021 
   26400    3.8719233    3.4008998   0.50277979     7.775603  -0.40089983   0.50277979   0.75915842 -0.00060245308 0.00051275726 
   26500    4.0018619     2.833163    1.8716599    8.7066848   0.16683698    1.8716599   0.75633541 -0.0011365486 -0.002230649 
   26600    6.3597721    2.0326204    0.6930869    9.0854794   0.96737964    0.6930869    0.7554791 0.00018286182 0.00012478439 
   26700    2.0092618    4.4498229   0.46806034    6.9271451   -1.4498229   0.46806034   0.76352233 -0.0012785889 0.00059092397 
   26800    3.9427013    1.9220851   0.83926229    6.7040487    1.0779149   0.83926229   0.75432758 0.00015910175 -0.00016986942 
   26900     1.376657    2.4706857    1.2071374    5.0544801   0.52931427    1.2071374   0.75601148 -0.00045188206 -0.00090225174 
   27000    6.9581643    2.5100702   0.12062736    9.5888618   0.48992982   0.12062736   0.75713219 0.00024620164 0.0012730097 
   27100    2.3838199   0.70725093   0.14159458    3.2326654    2.2927491   0.14159458   0.75195679  0.001434103 0.0012207244 
   27200    2.4091617     1.535992   0.29684116    4.2419949     1.464008   0.29684116   0.75372292 0.0007781112 0.0009137635 
   27300    2.4696201    2.6820021   0.22370918    5.3753313   0.31799795   0.22370918   0.75736097 6.2859177e-05 0.0010673036 
   27400    5.0716193    2.6484499  0.099252405    7.8193216   0.35155006  0.099252405   0.75641343 0.00016819844  0.001314322 
   27500    1.8918067    2.3179884  0.064891754    4.2746868   0.68201159  0.064891754   0.75697165 0.00041141322 0.0013841598 
   27600    3.7374332    1.3251932    0.3062711    5.3688975    1.6748068    0.3062711    0.7538905 0.00091235712 0.00089523881 
   27700     4.768319   0.91297202   0.44706365    6.1283547     2.087028   0.44706365   0.75247089 0.0010933095 0.00061081448 
   27800    2.8085104     4.288937    1.3103289    8.4077764    -1.288937    1.3103289   0.76173979 -0.0017328439 -0.0010971783 
   27900    3.2134185    5.1397348   0.77442981    9.1275831   -2.1397348   0.77442981   0.76373721 -0.0019427764 -2.1385198e-05 
   28000    3.6942288    2.0994335   0.21452448    6.0081868    0.9005665   0.21452448   0.75630582 0.00045736135 0.0010835627 
   28100    5.2957699    1.2191314   0.50473376    7.0196351    1.7808686   0.50473376   0.75331649 0.00085075653 0.00049716545 
   28200    2.7536087    2.0212865    1.3066043    6.0814995   0.97871355    1.3066043   0.75553911 -0.00021859382 -0.0011021303 
   28300    4.4492882    1.9924564    0.4969241    6.9386687    1.0075436    0.4969241   0.75360448 0.00034041301 0.00051336077 
   28400    2.5568046    2.5000257   0.62008202    5.6769124   0.49997431   0.62008202   0.75680656 -8.0071806e-05 0.00027344907 
   28500    4.7304739    1.7589489    0.7243965    7.2138193    1.2410511    0.7243965    0.7551044 0.00034443638 6.1415793e-05 
   28600    2.1848425    3.4168636   0.11388955    5.7155957  -0.41686362   0.11388955    0.7605504 -0.00035383545 0.0012933217 
   28700    1.4225614    1.9737538   0.25099462    3.6473098    1.0262462   0.25099462   0.75554289 0.0005168344 0.0010090965 
   28800    4.6809505    1.5842726   0.89353421    7.1587574    1.4157274   0.89353421   0.75365902 0.00034812876 -0.00027975037 
   28900     3.333209    3.9838857    0.1577353      7.47483  -0.98388575    0.1577353   0.75898317 -0.00076108069 0.0012024958 
   29000     2.266794    1.3652405    1.4957823    5.1278168    1.6347595    1.4957823   0.75390269 9.2651484e-05 -0.0014837592 
   29100    1.8134253   0.78391229    1.0506931    3.6480307    2.2160877    1.0506931   0.75217205 0.00077692973 -0.00059704213 
   29200    1.7245327    3.3586264   0.59708429    5.6802433  -0.35862639   0.59708429   0.75909019 -0.00063714045 0.00032401181 
   29300    4.1122576    6.1945029     1.901279     12.20804   -3.1945029     1.901279   0.76767218 -0.0033971879 -0.0022672136 
   29400    1.7032859   0.82905354   0.36663143    2.8989708    2.1709465   0.36663143   0.75251433 0.0012028767 0.00077176581 
   29500    1.9314926    2.1238929   0.38591596    4.4413014   0.87610713   0.38591596   0.75581272 0.00032679411 0.00073979351 
   29600    3.8286496     3.171558   0.15377958    7.1539872  -0.17155805   0.15377958   0.75812252 -0.00021689175 0.0012086859 
   29700    4.2441189    2.7168475   0.58087116    7.5418376   0.28315248   0.58087116   0.75836823 -0.00019847912 0.00035499413 
   29800    2.8163013    1.7765521   0.88113924    5.4739926    1.2234479   0.88113924    0.7535668 0.00022820577 -0.00025514489 
   29900    1.6967889    1.9618334     0.254939    3.9135613    1.0381666     0.254939   0.75432651 0.00052215173 0.00099877501 
   30000    2.2073256    2.4082175   0.54905668    5.1645997   0.59178254   0.54905668   0.75575308 2.848391e-05 0.0004133928 
   30100    3.9569792    3.1751009    0.8812415    8.0133216   -0.1751009    0.8812415   0.75804595 -0.00070422827 -0.0002463911 
   30200    2.3997126    2.1888369   0.66673411    5.2552837   0.81116306   0.66673411   0.75609495 9.628596e-05 0.00017872167 
   30300    3.6906335     4.084981   0.16179005    7.9374046    -1.084981   0.16179005   0.76050555 -0.00083118073  0.001197431 
   30400    3.3632631    2.0324777   0.36985898    5.7655997   0.96752233   0.36985898   0.75571908 0.00039844223 0.0007717202 
   30500    2.7799756   0.64744298   0.49568041     3.923099     2.352557   0.49568041   0.75182192 0.0012379177 0.00051228303 
   30600    3.3263174    2.8728614   0.40330646    6.6024852    0.1271386   0.40330646    0.7569786 -0.0001841119 0.00070734428 
   30700    2.6851474    2.5368703   0.20008571    5.4221033   0.46312971   0.20008571     0.757443 0.00017536267 0.0011147146 
   30800    5.5849208    1.8981628    1.4330317    8.9161152    1.1018372    1.4330317   0.75393463 -0.00022079632 -0.001358194 
   30900    2.4477144    1.3375196   0.38987873    4.1751127    1.6624804   0.38987873   0.75384487 0.00084840114 0.0007279323 
   31000    1.8727838    2.1601305   0.12082968     4.153744   0.83986947   0.12082968   0.75491705 0.00047935986 0.0012681747 
   31100    1.6667334    2.4587967   0.50046985    4.6259999   0.54120328   0.50046985    0.7548119 2.7155623e-05 0.0005086841 
   31200    3.2122242    1.5862846   0.59495911    5.3934678    1.4137154   0.59495911   0.75380749 0.00054583756 0.00031769676 
   31300    6.0004732     1.023323   0.80228834    7.8260846     1.976677   0.80228834   0.75319261 0.00078292574 -9.8191455e-05 
   31400    3.9907526    2.9029792    0.2989043    7.1926361  0.097020806    0.2989043   0.75853732 -0.000134589 0.00091926604 
   31500    2.1131303     2.537103   0.20812776     4.858361   0.46289703   0.20812776   0.75685702 0.00016984618 0.0010974585 
   31600    3.0801419    1.5548414   0.18838484    4.8233682    1.4451586   0.18838484   0.75481952 0.00083784916 0.0011328694 
   31700    4.4424421    2.4019625   0.62104147    7.4654461   0.59803748   0.62104147   0.75682674 -1.5335995e-05 0.00027157054 
   31800    3.5109885     1.201905    1.3186116    6.0315051     1.798095    1.3186116   0.75226007 0.00031965556 -0.0011327031 
   31900    3.3184622    4.3958856   0.64666629    8.3610141   -1.3958856   0.64666629   0.76230313 -0.0013617013 0.00023127367 
   32000    3.0903501    1.7836306   0.93700967    5.8109904    1.2163694   0.93700967   0.75461679 0.0001862398 -0.00036478575 
   32100    1.7366866    1.2991535    1.2924954    4.3283356    1.7008465    1.2924954   0.75381063 0.00027223402 -0.0010773696 
   32200    2.7633472    1.6993797   0.19567492    4.6584018    1.3006203   0.19567492   0.75427471 0.00073663023 0.0011171996 
   32300    4.1517359    2.2980485   0.36490709    6.8146915   0.70195148   0.36490709   0.75676946 0.00022469626 0.00078372475 
   32400    4.7199481    1.5101358   0.30496167    6.5350456    1.4898642   0.30496167   0.75355122 0.00078993499 0.00089717911 
   32500    2.3824153    1.6174602   0.46972459    4.4696001    1.3825398   0.46972459   0.75287779 0.00060854344 0.00056630641 
   32600    3.0670324    0.8620065   0.08890709    4.0179459    2.1379935   0.08890709   0.75228373 0.0013660576 0.0013267533 
   32700    9.4319766    2.4237784   0.65950073    12.515256   0.57622159   0.65950073   0.75694542 -5.5519427e-05 0.00019488938 
   32800    2.1851485    0.9792629   0.97552139    4.1399328    2.0207371   0.97552139   0.75275912 0.00069681047 -0.00044552455 
   32900    2.0781046    1.3074407    0.8110225    4.1965678    1.6925593    0.8110225   0.75389329 0.00058769119 -0.00011425842 
   33000    3.6144403    1.5387384   0.83339361    5.9865724    1.4612616   0.83339361   0.75460638 0.00041857865 -0.00015757445 
   33100    3.4233933    3.3053823   0.14472945    6.8735051   -0.3053823   0.14472945   0.75860347 -0.0003000745 0.0012277481 
   33200    3.7729345    4.5139713    0.2365338    8.5234396   -1.5139713    0.2365338   0.76080362 -0.0011670034 0.0010485396 
   33300     2.267413    1.9838598   0.64652793    4.8978007    1.0161402   0.64652793   0.75418734 0.00024640817 0.00021531882 
   33400    2.9030879    1.6830711   0.32990392    4.9160629    1.3169289   0.32990392   0.75416545 0.00065801666 0.00084852307 
   33500     1.052384    2.7123017   0.42266653    4.1873522   0.28769826   0.42266653   0.75835772 -8.997885e-05 0.00067138238 
   33600    2.7200313    1.8452944    1.2360407    5.8013663    1.1547056    1.2360407   0.75476793 -5.4223374e-05 -0.00096254553 
   33700     1.836449    2.1187825    3.8673433    7.8225748   0.88121748    3.8673433   0.75647162 -0.0019907506 -0.0062217434 
   33800      4.97259    1.3629145   0.41369226    6.7491968    1.6370855   0.41369226   0.75395219 0.00081559547 0.00068051986 
   33900    3.1127828   0.40831634    1.3215592    4.8426583    2.5916837    1.3215592   0.75114823 0.00084674963 -0.001140822 
   34000    1.7648521    1.2481875    0.6299091    3.6429487    1.7518125    0.6299091   0.75265342 0.00074793562 0.00024548865 
   34100    2.5716756    1.3402899   0.65290245    4.5648679    1.6597101   0.65290245   0.75266662 0.00067120511 0.00019952835 
   34200     2.118189    1.3624862   0.61483372    4.0955089    1.6375138   0.61483372   0.75317276 0.00068178675 0.00027667808 
   34300    3.3317819    4.5511727   0.15837986    8.0413344   -1.5511727   0.15837986   0.76341206 -0.0011397017 0.0012100644 
   34400     1.614067    2.4329691   0.33474235    4.3817785   0.56703086   0.33474235   0.75670231 0.00015485901 0.00084391994 
   34500    1.4488435    1.3067396   0.72532945    3.4809126    1.6932604   0.72532945   0.75382536 0.00064528727 5.6991818e-05 
   34600    2.6244609   0.69581476    1.2376235    4.5578992    2.3041852    1.2376235   0.75205225 0.00071104117 -0.00097114248 
   34700    4.1699073    2.6684612   0.67630075    7.5146692   0.33153883   0.67630075   0.75761553 -0.00022984128 0.00016262956 
   34800    2.6992068    2.7412118   0.10692126    5.5473399   0.25878818   0.10692126    0.7565894 0.00010124462 0.0012993363 
   34900    3.3020076    3.9087133   0.43805629    7.6487772  -0.90871326   0.43805629   0.75999934 -0.00089784637 0.0006438861 
   35000    3.3721028   0.67341504    1.7385857    5.7841035     2.326585    1.7385857    0.7520809 0.00039199952 -0.0019730096 
   35100    5.3894252    3.2931363   0.83862235    9.5211838  -0.29313625   0.83862235   0.76024201 -0.00075450573 -0.00015676067 
   35200    2.3800159     2.231065   0.64108419    5.2521651   0.76893498   0.64108419   0.75683825 8.5233859e-05 0.00023150812 
   35300    5.9007784    1.8293324    1.0145562     8.744667    1.1706676    1.0145562   0.75399742 0.00010407427 -0.00052111748 
   35400    4.7457529     1.512277    1.4331922    7.6912221     1.487723    1.4331922   0.75451236 3.6353823e-05 -0.0013573598 
   35500    4.7862494    3.5982275  0.084426193    8.4689031  -0.59822747  0.084426193   0.76088848 -0.00045510244 0.0013529246 
   35600    3.4699431    3.2898313   0.20083591    6.9606104  -0.28983135   0.20083591   0.75780871 -0.00032711151 0.0011139456 
   35700    3.8402308    2.1486267  0.045511649    6.0343691   0.85137328  0.045511649   0.75679834 0.00053724109 0.0014225734 
   35800     2.004285    3.4442764   0.58582435    6.0343857  -0.44427642   0.58582435   0.75780398 -0.00068673385 0.00034395926 
   35900    2.6327296     2.036884    0.4843867    5.1540003   0.96311595    0.4843867   0.75631851 0.00031915284 0.00054386362 
   36000    2.1552832    2.0241483    1.1677873    5.3472189   0.97585171    1.1677873   0.75544938 -0.00012795709 -0.00082467594 
   36100    1.8730622    4.7627444   0.91218358    7.5479902   -1.7627444   0.91218358    0.7630461 -0.0017832853 -0.00029827496 
   36200    2.4566467    2.6192914    2.7437756    7.8197136   0.38070858    2.7437756      0.75642 -0.001575378 -0.0039747111 
   36300    5.8851938    5.2535278   0.19630562    11.335027   -2.2535278   0.19630562   0.76348258 -0.0016332223 0.0011343539 
   36400     3.229647   0.76672089   0.17321028    4.1695782    2.2332791   0.17321028   0.75171945 0.0013733792 0.0011570183 
   36500    2.1247051    2.7075229   0.69338807    5.5256161   0.29247709   0.69338807    0.7567429 -0.00026727399 0.00012670966 
   36600    2.6306468    1.7428405   0.34595615    4.7194435    1.2571595   0.34595615    0.7544196 0.00060746891 0.00081692689 
   36700     2.927802    1.5297554   0.21872945    4.6762868    1.4702446   0.21872945   0.75413724 0.00083434346 0.0010708156 
   36800    1.6238881    3.1140889    1.3882643    6.1262413  -0.11408894    1.3882643    0.7589813 -0.0010015688 -0.0012585659 
   36900    4.3812869    1.1200914     1.855814    7.3571923    1.8799086     1.855814   0.75276881 1.6063043e-05 -0.0022060904 
   37000    3.2991691    1.5250913    1.5612983    6.3855587    1.4749087    1.5612983   0.75454185 -5.7593031e-05 -0.0016135129 
   37100    3.4307815    2.0028762   0.39842275    5.8320805   0.99712375   0.39842275   0.75358958  0.000399134 0.00071033366 
   37200    6.6207834    3.9406175   0.69032911     11.25173  -0.94061752   0.69032911   0.75867883 -0.0010872978 0.00013669944 
   37300     2.961466    1.6833517   0.39181936     5.036637    1.3166483   0.39181936   0.75367972 0.00061655263 0.00072372071 
   37400    2.5724945    3.5175575    1.4270826    7.5171346  -0.51755753    1.4270826   0.75895166 -0.0012964267 -0.0013362618 
   37500    2.2247812    5.6098325    1.4897055    9.3243192   -2.6098325    1.4897055   0.76272267 -0.0027330253 -0.0014539656 
   37600    3.5262976    2.4318385   0.50906176    6.4671979   0.56816146   0.50906176   0.75667313 3.9399798e-05 0.00049522274 
   37700    2.4007297   0.75528319   0.47240335    3.6284162    2.2447168   0.47240335   0.75191642 0.0011815423 0.00055902614 
   37800    4.1756853    3.2446255     1.540024    8.9603347  -0.24462547     1.540024   0.75722956 -0.0011897663 -0.0015655888 
   37900    3.4697651    3.7991202    1.1888451    8.4577304  -0.79912016    1.1888451   0.75803986 -0.0013253102 -0.00086161053 
   38000    1.3409039    1.7142914    2.6874724    5.7426677    1.2857086    2.6874724   0.75430617 -0.00093450919 -0.0038663324 
   38100    4.1133829   0.71154675   0.31895929     5.143889    2.2884533   0.31895929   0.75221958  0.001312996 0.00086652059 
   38200    2.8049451    1.7301445    2.6486999    7.1837894    1.2698555    2.6486999   0.75378024 -0.00091922957 -0.0037898393 
   38300    3.8991771    3.4032806  0.056087788    7.3585455  -0.40328063  0.056087788   0.76005976 -0.00030624561 0.0014079439 
   38400    2.8943504    2.6175481   0.23629348     5.748192   0.38245189   0.23629348   0.75726624 9.7438938e-05 0.0010419455 
   38500    3.4965518   0.99782418   0.28578112    4.7801571    2.0021758   0.28578112   0.75307671 0.0011442631 0.00093459118 
   38600    2.3150785    2.1247121   0.23144477    4.6712354   0.87528793   0.23144477   0.75506054 0.00042922877 0.0010472315 
   38700    7.2282533    1.4267305    1.0568121    9.7117958    1.5732695    1.0568121    0.7539957 0.00034430495 -0.00060563271 
   38800    2.8151546     1.090281   0.26410221    4.1695378     1.909719   0.26410221   0.75227536 0.0010970779 0.0009763463 
   38900    3.1233336   0.89461931   0.63437358    4.6523265    2.1053807   0.63437358   0.75260756 0.00098067141 0.00023646796 
   39000    1.9056067    1.5858482   0.84117925    4.3326342    1.4141518   0.84117925   0.75462236 0.00038198169 -0.00017311377 
   39100    3.8157247    1.2786488   0.01911868    5.1134922    1.7213512   0.01911868   0.75271685 0.0011348217 0.0014671963 
   39200    3.5766415   0.89207583    1.1289411    5.5976584    2.1079242    1.1289411   0.75195097 0.00065265536 -0.00075398034 
   39300    1.2072242    1.6350634   0.55355951    3.3958471    1.3649366   0.55355951     0.753463 0.00054091803 0.00039980697 
   39400    2.6206452    1.0717709   0.32650195     4.018918    1.9282291   0.32650195   0.75211051 0.0010678181 0.00085121712 
   39500    2.5907156    1.5475592   0.35130657    4.4895814    1.4524408   0.35130657   0.75373187 0.00073408947 0.0008048506 
   39600    1.7033609    1.7478989      0.16434    3.6155997    1.2521011      0.16434   0.75539981 0.00072517409 0.0011821196 
   39700    2.3421437    1.3599029   0.60219001    4.3042366    1.6400971   0.60219001   0.75350838 0.00069193803 0.00030263675 
   39800    3.2054233   0.87148327     0.583376    4.6602826    2.1285167     0.583376   0.75209687 0.0010300938 0.00033744174 
   39900     1.045825    4.7660837   0.37281627     6.184725   -1.7660837   0.37281627   0.76169605 -0.0014259333 0.00077775956 
   40000     3.460843    3.2639616   0.25029024    6.9750949  -0.26396164   0.25029024   0.75952588 -0.00034283459 0.0010184713 
   40100    4.3968197    3.2537685    0.3389409    7.9895291   -0.2537685    0.3389409   0.75965191 -0.0003951396 0.00084142202 
   40200    2.6274174    1.2652796   0.78065358    4.6733505    1.7347204   0.78065358   0.75358605 0.00063604454 -5.4135069e-05 
   40300    1.4304564   0.81258851   0.19994225    2.4429872    2.1874115   0.19994225   0.75160959 0.0013249795 0.0011033347 
   40400     1.842313     1.976749    2.9574388    6.7765008     1.023251    2.9574388   0.75564434 -0.0012894585 -0.004403589 
   40500    1.4993422    2.3555406   0.62282745    4.4777103   0.64445939   0.62282745   0.75527596 1.4421292e-05 0.00026489702 
   40600    4.4653893    2.3137978   0.85382038    7.6330074   0.68620224   0.85382038   0.75678895 -0.00011174543 -0.00019406286 
   40700    3.4502305    3.3114598    1.1139785    7.8756687  -0.31145977    1.1139785    0.7596453 -0.00095029215 -0.0007086663 
   40800    2.9040629    3.1082732   0.32963449    6.3419706  -0.10827319   0.32963449   0.75746206 -0.00029193846 0.00085565513 
   40900    1.3242195    2.4494637   0.37207502    4.1457582   0.55053631   0.37207502    0.7576389 0.00011897419 0.00077112776 
   41000    2.7142242    1.3884531   0.18332362    4.2860009    1.6115469   0.18332362    0.7537106 0.00095214886  0.001140774 
   41100     3.863205    2.4922684   0.18511715    6.5405906   0.50773158   0.18511715   0.75758388 0.00021507629 0.0011449335 
   41200    1.4521351     1.437316   0.23557029    3.1250215     1.562684   0.23557029   0.75412037 0.00088474245 0.0010371001 
   41300    2.8256509    3.1398109   0.27723548    6.2426973  -0.13981089   0.27723548   0.75836452 -0.00027803092 0.00096225808 
   41400    1.8773753    4.7775914   0.27539518    6.9303619   -1.7775914   0.27539518   0.76101751 -0.0013686577 0.00097124465 
   41500    2.5335866     1.933206   0.71627466    5.1830673     1.066794   0.71627466   0.75527025 0.00023367957 7.7991182e-05 
   41600    7.1290881    2.2760418   0.16472297    9.5698529   0.72395821   0.16472297   0.75712398 0.00037282349  0.001184802 
   41700    1.6549579    3.0434666   0.35441904    5.0528435 -0.043466635   0.35441904   0.75774127 -0.00026525712 0.00080664447 
   41800    1.5746414   0.98333682   0.16062593    2.7186042    2.0166632   0.16062593   0.75204703 0.0012373582 0.0011828422 
   41900    3.3562954    5.7329822   0.95074478    10.040022   -2.7329822   0.95074478   0.76668419 -0.002455818 -0.00036812118 
   42000    3.2719198    1.2365265    1.3431096    5.8515559    1.7634735    1.3431096   0.75340568 0.00028024262 -0.0011794078 
   42100    3.8691846    1.5737091   0.92214694    6.3650407    1.4262909   0.92214694   0.75401135 0.00033609594 -0.00033627118 
   42200    6.0913077    2.8216184   0.45765522    9.3705813   0.17838164   0.45765522   0.75745816 -0.00018618239 0.00059960587 
   42300    2.9922395    1.6017438   0.80136051    5.3953438    1.3982562   0.80136051   0.75362389 0.00039793044 -9.5473249e-05 
   42400    3.5117781    1.9524836   0.43670927    5.9009709    1.0475164   0.43670927   0.75611733 0.00040720475 0.00063881613 
   42500    3.7631305   0.89088386   0.43460507    5.0886194    2.1091161   0.43460507   0.75241595 0.0011163407 0.00063562175 
   42600    1.9617815    1.9091118   0.60079467     4.471688    1.0908882   0.60079467   0.75571807 0.00032672901 0.00030984679 
   42700    2.9861723    2.1607848    0.5374585    5.6844156   0.83921518    0.5374585   0.75566096 0.00020117112 0.00043640492 
   42800    3.0348907    3.0259902   0.54790679    6.6087876 -0.025990175   0.54790679   0.75765413 -0.00038259798 0.00041949468 
   42900    1.1807013    1.2042581   0.68008536    3.0650447    1.7957419   0.68008536   0.75374212 0.00074377101 0.00014731351 
   43000    5.8789456    4.3002108   0.24965158    10.428808   -1.3002108   0.24965158   0.76226074 -0.0010332416 0.0010252183 
   43100    4.5590923    3.5847786    1.6159452    9.7598161  -0.58477863    1.6159452   0.75905895 -0.0014671492 -0.0017137725 
   43200    2.6209119     2.043305   0.31259191    4.9768088   0.95669496   0.31259191   0.75474738 0.00042940203 0.00088431093 
   43300    4.7517698    1.7492378   0.32902566    6.8300332    1.2507622   0.32902566   0.75441933 0.00061449105 0.00085078734 
   43400    2.9271425    1.1733898   0.89113036    4.9916626    1.8266102   0.89113036    0.7530198 0.00062365322 -0.00027622111 
   43500    1.4561399    1.6368361   0.75426805     3.847244    1.3631639   0.75426805   0.75439707 0.00040593059 2.580313e-07 
   43600    2.4301479    2.9046971   0.31443865    5.6492837   0.09530287   0.31443865   0.75629751 -0.00014609052 0.00088371771 
   43700    2.0746921    2.0126622    1.0030007     5.090355   0.98733781    1.0030007   0.75562945 -1.0441918e-05 -0.00049474247 
   43800    1.5597939    3.8564613   0.47802076     5.894276   -0.8564613   0.47802076   0.75927553 -0.00088965471 0.00056250954 
   43900    2.9171077    1.2238624   0.42220503    4.5631752    1.7761376   0.42220503   0.75268588 0.00090262171 0.0006609617 
   44000    4.3597015    3.9969746    0.5599216    8.9165977  -0.99697464    0.5599216   0.76067875 -0.0010379308 0.0004015143 
   44100      2.74589    2.0703016    1.4230383    6.2392298    0.9296984    1.4230383    0.7564301 -0.00032889324 -0.0013332163 
   44200    1.7622773    3.2361571    1.0862775    6.0847119  -0.23615709    1.0862775   0.75868184 -0.00088162305 -0.00065519129 
   44300    4.9406704    4.2896873   0.16656126     9.396919   -1.2896873   0.16656126   0.76208353 -0.00097083237 0.0011910445 
   44400    1.8678416    1.8071473    0.1975822     3.872571    1.1928527    0.1975822   0.75519012 0.0006635137 0.0011152159 
   44500    3.7298261    1.8909352   0.79073489    6.4114962    1.1090648   0.79073489    0.7556315 0.00021221996 -7.0206771e-05 
   44600    3.4072986    1.5555149   0.17859802    5.1414115    1.4444851   0.17859802   0.75324394 0.00084392472 0.0011492918 
   44700    5.8460618    1.6495466   0.63404077    8.1296492    1.3504534   0.63404077   0.75508766 0.00047760841 0.00024209379 
   44800    1.5124416     2.931455   0.65300993    5.0969066  0.068544971   0.65300993    0.7578563 -0.00038964331 0.00020969274 
   44900    3.0804837    3.9262437    2.7205329    9.7272602   -0.9262437    2.7205329   0.76184955 -0.0024311844 -0.0039173667 
   45000    1.0964573    1.4251278   0.32662915    2.8482143    1.5748722   0.32662915   0.75342249 0.00083216203 0.00085358668 
   45100    2.8895916    3.4051237    1.3036059    7.5983212  -0.40512374    1.3036059   0.76027347 -0.0011391531 -0.0010866648 
   45200    5.6864382    1.1690043    1.3431701    8.1986126    1.8309957    1.3431701   0.75313973 0.00032521703 -0.0011800608 
   45300    1.0200679    1.4031601    3.4421999    5.8654278    1.5968399    3.4421999    0.7532906  -0.00123024 -0.0053778186 
   45400    4.1453123    1.8969379   0.61939262    6.6616428    1.1030621   0.61939262    0.7558062 0.00032244632 0.00027282717 
   45500    3.3666605    3.2562854    1.4140168    8.0369627   -0.2562854    1.4140168   0.75944715 -0.0011135348 -0.0013091393 
   45600    4.0502154    3.0830136   0.41196109    7.5451901 -0.083013616   0.41196109   0.75912439 -0.00032998314 0.00069432659 
   45700    2.4012069    1.3102821   0.43502274    4.1465117    1.6897179   0.43502274   0.75326068 0.00083646346 0.00063647589 
   45800    2.0234608    1.1062389   0.47299652    3.6026963    1.8937611   0.47299652   0.75300816 0.00094717636 0.00056002328 
   45900     1.943327    2.9845203    2.0935613    7.0214086  0.015479718    2.0935613   0.75923208 -0.0013853877 -0.0026686585 
   46000    4.5628411    1.3743185    1.4051622    7.3423218    1.6256815    1.4051622   0.75353031 0.00014701283 -0.0013032639 
   46100    1.1767466    7.5396341    1.0949056    9.8112863   -4.5396341    1.0949056    0.7673893 -0.0037563598 -0.00065503262 
   46200    2.3535476   0.92776576   0.58407155    3.8653849    2.0722342   0.58407155   0.75253597 0.00099210846 0.00033692885 
   46300    4.6504441    3.0233391  0.046629195    7.7204124 -0.023339137  0.046629195   0.75753682 -4.6645554e-05 0.0014218153 
   46400    3.9327454    2.5888217    0.8851316    7.4066987   0.41117832    0.8851316   0.75613415 -0.00031596885 -0.00025799491 
   46500    3.8048205    3.7010319   0.41700517    7.9228575   -0.7010319   0.41700517   0.75914042 -0.00074535805 0.0006842705 
   46600    2.3824709    4.3273428    0.4144489    7.1242625   -1.3273428    0.4144489   0.76127079 -0.0011611944 0.00069364377 
   46700    2.9613466    1.8813346    1.5763849    6.4190661    1.1186654    1.5763849   0.75462546 -0.00030514635 -0.0016435189 
   46800    2.3319861    3.4339791   0.28006013    6.0460253  -0.43397908   0.28006013   0.76001513 -0.00047602614   0.00095991 
   46900    1.2828329   0.90617475   0.22136271    2.4103704    2.0938252   0.22136271   0.75269738 0.0012483084 0.0010626693 
   47000     4.488254    3.7118513    1.2193726    9.4194779  -0.71185134    1.2193726     0.757478 -0.0012874826 -0.00092378911 
   47100    1.9354366    2.4352955  0.066083125    4.4368152   0.56470455  0.066083125    0.7563206 0.00033241428 0.0013804749 
   47200    3.3906817     2.890283   0.77177568    7.0527403   0.10971702   0.77177568   0.75718839 -0.00044137244 -2.9174567e-05 
   47300    3.3080733    1.3382343   0.10760574    4.7539134    1.6617657   0.10760574   0.75393512 0.0010361066 0.0012926588 
   47400    1.5149878    2.8825433    0.8351745    5.2327056    0.1174567    0.8351745   0.75641176 -0.00047847854 -0.00015752549 
   47500    4.3359185     1.978631   0.99273315    7.3072827     1.021369   0.99273315   0.75524926 1.9090573e-05 -0.00047496777 
   47600    1.3971386    2.7742543    1.9929601     6.164353   0.22574568    1.9929601   0.75683162 -0.0011781429 -0.0024722569 
   47700    1.2897674    4.9014332   0.61736195    6.8085626   -1.9014332   0.61736195    0.7600966 -0.0016791968 0.00028546929 
   47800    4.4101367    3.9670846   0.75215046    9.1293717  -0.96708459   0.75215046   0.75727627 -0.0011461567 1.025162e-05 
   47900    3.2461629    4.3063214  0.028992048    7.5814763   -1.3063214  0.028992048   0.76199313 -0.00089020894 0.0014660022 
   48000    3.4131834    1.8760271   0.58743295    5.8766435    1.1239729   0.58743295   0.75527403 0.00035769328 0.00033568215 
   48100    2.0406181    1.1013529    1.0113361    4.1533071    1.8986471    1.0113361    0.7532834 0.00059154068 -0.00051610542 
   48200    3.0868942    1.3744637   0.72864687    5.1900047    1.6255363   0.72864687   0.75263245 0.00059792629 4.7971163e-05 
   48300   0.71815372   0.92095125   0.26133539    1.9004404    2.0790488   0.26133539   0.75274783 0.0012118089 0.00098282487 
   48400    2.9340531    2.8112396     0.167627    5.9129197   0.18876035     0.167627   0.75830709 1.4088903e-05 0.0011813602 
   48500    3.3399813    2.5773523   0.37291143     6.290245   0.42264773   0.37291143    0.7563639 3.3157531e-05 0.00076690494 
   48600    4.1145692    2.9226426    1.1393861    8.1765979  0.077357358    1.1393861   0.75760259 -0.00070801914 -0.00076356695 
   48700    2.3252687    2.7322634   0.72134202    5.7788742   0.26773656   0.72134202   0.75817097 -0.00030240364  7.36579e-05 
   48800    3.8918567   0.67486189    1.5632956    6.1300142    2.3251381    1.5632956   0.75149295 0.00050789502 -0.0016236053 
   48900    2.7992984   0.93732736   0.63594624     4.372572    2.0626726   0.63594624   0.75243609 0.00095115094 0.00023297971 
   49000    6.3503166    1.9912565   0.47125706    8.8128302    1.0087435   0.47125706   0.75560467 0.00035832427 0.00056869521 
   49100    2.0248729    2.9963992   0.41556806    5.4368401 0.0036008215   0.41556806   0.75938726 -0.00027464483 0.00068763838 
   49200    4.3834449    1.7811303   0.44279429    6.6073695    1.2188697   0.44279429   0.75469481 0.00051738359 0.00062380104 
   49300    2.4264037    1.8969464   0.52455232    4.8479024    1.1030536   0.52455232   0.75551083 0.00038566755 0.00046191701 
   49400    5.6076891    3.4949541    1.6840875    10.786731  -0.49495413    1.6840875   0.75948323 -0.0014526944 -0.0018492085 
   49500    2.8867053    3.6659486    1.0471001     7.599754  -0.66594857    1.0471001   0.75940865 -0.0011420324 -0.00057538287 
   49600    3.8411655    3.8435206   0.58286992     8.267556  -0.84352057   0.58286992   0.76004102 -0.000950927 0.0003543422 
   49700    2.4137983    2.8712744    0.5937723     5.878845   0.12872557    0.5937723   0.75840347 -0.00031003115 0.00032926234 
   49800    1.3165248     1.997238   0.13272677    3.4464895     1.002762   0.13272677   0.75550124 0.00058002351 0.0012455489 
   49900    1.8156337    3.0968851   0.64112694    5.5536457 -0.096885055   0.64112694   0.75606402 -0.00049200799 0.00022987416 
   50000    1.9458518    2.7742759   0.80928716    5.5294149   0.22572411   0.80928716   0.75728034 -0.00038904203 -0.00010401365 
   50100    2.3340345    1.4025628    1.1767052    4.9133026    1.5974372    1.1767052   0.75436811 0.00028048795 -0.00084467427 
   50200     3.281586    2.4049611   0.76688652    6.4534336   0.59503888   0.76688652   0.75475055 -0.00011456509 -2.4271928e-05 
   50300    3.8654378    2.6376011   0.70811299    7.2111519   0.36239892   0.70811299   0.75760729 -0.00023047605 9.8988596e-05 
   50400    1.4448397   0.89556103   0.24484581    2.5852465     2.104439   0.24484581   0.75281272 0.0012397288 0.0010159338 
   50500    4.0107545    4.0799886   0.98001686      9.07076   -1.0799886   0.98001686   0.76024329 -0.001373337 -0.00043954713 
   50600    4.3221985    4.4286753   0.50778649    9.2586602   -1.4286753   0.50778649   0.76332947 -0.0012909745 0.00051108595 
   50700    2.8183408   0.96328044  0.072582525    3.8542038    2.0367196  0.072582525   0.75248503 0.0013094247  0.001359805 
   50800    2.7392282    1.8458631    0.2682816    4.8533729    1.1541369    0.2682816   0.75412004 0.00059057019 0.00097167688 
   50900    3.3640751    2.1596111   0.17747005    5.7011562   0.84038892   0.17747005   0.75640615 0.00044194591 0.0011578722 
   51000    2.5944554    2.1701256    1.0899871    5.8545681   0.82987441    1.0899871   0.75620943 -0.00017340844 -0.00066755527 
   51100    2.9808192    1.9632514   0.97229587    5.9163664    1.0367486   0.97229587   0.75449257 4.2968519e-05 -0.0004356066 
   51200    3.2223489    1.3334794   0.32049198    4.8763204    1.6665206   0.32049198   0.75364958 0.00089735238 0.00086631519 
   51300    2.6138971    1.5539635   0.18581566    4.3536762    1.4460365   0.18581566   0.75487608 0.00084014723 0.0011381209 
   51400    2.6046161    2.0465032   0.07255164    4.7236709    0.9534968   0.07255164   0.75589686 0.00058729677 0.0013666904 
   51500    2.0555105   0.86011583    2.2172726    5.1328989    2.1398842    2.2172726   0.75214487 -5.1592267e-05 -0.0029302554 
   51600    4.1470125    5.4730403    1.4958974     11.11595   -2.4730403    1.4958974   0.76156465 -0.0026459584 -0.0014686655 
   51700    3.2166998    2.5610253   0.19157465    5.9692998   0.43897465   0.19157465   0.75789648 0.00016493333 0.0011326437 
   51800    2.9447433    4.3512834   0.30110327      7.59713   -1.3512834   0.30110327   0.75987592 -0.0011015911 0.0009175453 
   51900   0.96181366    2.1575833   0.71934857    3.8387455   0.84241673   0.71934857   0.75554157 8.2045436e-05 7.2386002e-05 
   52000    4.7817242    2.4413238    0.3485788    7.5716268   0.55867622    0.3485788   0.75675727 0.00014006495 0.00081635694 
   52100    1.5984976    1.8346388   0.38346997    3.8166064    1.1653612   0.38346997    0.7551801 0.0005212608 0.00074342026 
   52200    2.9700284    2.9673433    1.1114201    7.0487918  0.032656674    1.1114201   0.75583759 -0.00071917561 -0.00071116499 
   52300    3.2223292    1.6973409   0.96869561    5.8883657    1.3026591   0.96869561   0.75452415 0.00022264231 -0.00042834291 
   52400    2.3180999    2.0805422   0.92497101    5.3236132   0.91945776   0.92497101   0.75420584 -3.6754969e-06 -0.00034153034 
   52500    1.8384543     1.121914   0.20442986    3.1647981     1.878086   0.20442986    0.7530647 0.0011157708 0.0010972697 
   52600    1.7169144    2.6033814   0.13524351    4.4555393    0.3966186   0.13524351   0.75747116 0.00017425006 0.0012444553 
   52700    3.4168325    2.4290416   0.20283471    6.0487087   0.57095845   0.20283471    0.7574007 0.00024541582  0.001109132 
   52800     4.196719    2.7563349    1.1666939    8.1197479   0.24366507    1.1666939   0.75665481 -0.00061535257 -0.00082007823 
   52900    2.4570191    2.3972103    2.4318143    7.2860437   0.60278971    2.4318143   0.75676675 -0.0012193497 -0.0033500951 
   53000    2.8772612    1.5213722    1.4543549    5.8529883    1.4786278    1.4543549   0.75367261 1.618194e-05 -0.0014013646 
   53100    5.7601228     1.243129    1.9217992     8.925051     1.756871    1.9217992   0.75323466 -0.00010995212 -0.002337129 
   53200    1.2466856    3.8365849    1.3095238    6.3927943  -0.83658486    1.3095238   0.76137677 -0.0014307391 -0.0010962941 
   53300    2.1017509    1.3693951   0.47577426    3.9469202    1.6306049   0.47577426    0.7536212 0.0007698871 0.00055569388 
   53400    1.0283896   0.74483312   0.56763353    2.3408563    2.2551669   0.56763353   0.75198519 0.0011250222 0.00036870333 
   53500    3.4522848    2.7681728    0.1629575    6.3834151   0.23182718    0.1629575   0.75601308 4.591312e-05 0.0011861112 
   53600    3.1394225   0.85060454   0.56501765    4.5550447    2.1493955   0.56501765   0.75168779 0.0010562519 0.00037334029 
   53700    4.6594525    1.3510582    1.7002006    7.7107113    1.6489418    1.7002006   0.75383424 -3.417253e-05 -0.0018927327 
   53800    2.7141783   0.85839983  0.014203577    3.5867817    2.1416002  0.014203577   0.75208979 0.0014182644 0.0014757724 
   53900    1.5214414    1.8900835   0.23078068    3.6423057    1.1099165   0.23078068   0.75562972 0.00058609051 0.0010496981 
   54000     2.713066    1.4425378   0.29504833    4.4506522    1.5574622   0.29504833   0.75331047 0.00084160921 0.00091652427 
   54100    2.8531567    2.7285862    2.4612822    8.0430251    0.2714138    2.4612822   0.75735375 -0.0014599123 -0.0034078569 
   54200    2.8501875    1.2631518   0.85898622    4.9723255    1.7368482   0.85898622   0.75293444 0.00058524134 -0.00021210356 
   54300    1.3574877    1.6428527   0.62796219    3.6283026    1.3571473   0.62796219   0.75410291 0.00048612338 0.00025228143 
   54400    3.8573293    0.8135526    1.0180252     5.688907    2.1864474    1.0180252   0.75220961 0.00077894817 -0.00053163108 
   54500    4.0943938    2.2402667   0.72097926    7.0556398   0.75973325   0.72097926   0.75694221 2.5835995e-05 7.1925896e-05 
   54600    2.8655501    2.9756775    1.1095185    6.9507461  0.024322479    1.1095185   0.75684107 -0.00072346401 -0.00070535487 
   54700    1.9610761    1.8862527   0.78990669    4.6372354    1.1137473   0.78990669   0.75590927 0.00021589377 -6.7994836e-05 
   54800    4.8685858   0.93901204   0.55204426    6.3596421     2.060988   0.55204426   0.75252019 0.0010059625 0.00040095186 
   54900     2.907424    3.5651108   0.53462833     7.007163  -0.56511075   0.53462833   0.76064953 -0.00073315939 0.00045204239 
   55000    3.9275589     2.228372    1.2766625    7.4325934   0.77162796    1.2766625    0.7556348 -0.00033668968 -0.0010420554 
   55100    2.5972111    2.3189097    1.4211753    6.3372961   0.68109034    1.4211753   0.75629043  -0.00049339 -0.0013297698 
   55200    5.4414099   0.63877532   0.62413331    6.7043185    2.3612247   0.62413331   0.75152878 0.0011580609 0.00025479094 
   55300    3.0932963    7.5410614    1.0152338    11.649592   -4.5410614    1.0152338   0.76585353 -0.0037041968 -0.00049876061 
   55400    1.9199884    3.0600602    2.4943089    7.4743575 -0.060060169    2.4943089   0.75695334 -0.0017029127 -0.0034747111 
   55500    2.9880782    2.2454333    1.6227333    6.8562449   0.75456667    1.6227333   0.75463171 -0.00057877778 -0.0017362033 
   55600    1.8621794   0.80357974    1.5130338    4.1787929    2.1964203    1.5130338   0.75206818 0.00045559099 -0.0015219312 
   55700    1.4488622    1.4168626  0.020351856    2.8860767    1.5831374  0.020351856   0.75351742  0.001041857 0.0014663311 
   55800    3.5685078    2.3367232  0.062692666    5.9679237   0.66327683  0.062692666   0.75620098 0.00040038944 0.0013870166 
   55900    3.7446774    2.1121513   0.64358891    6.5004177   0.88784865   0.64358891   0.75576042 0.00016283983 0.00022434302 
   56000    1.1030813    1.7151869    2.5864672    5.4047354    1.2848131    2.5864672   0.75459344 -0.00086776942 -0.0036637476 
   56100    5.5739015    1.7351476   0.56650626    7.8755554    1.2648524   0.56650626   0.75330341 0.00046556409 0.00037359429 
   56200    1.7618866    2.0973257   0.38026228    4.2394745   0.90267433   0.38026228   0.75631491 0.0003482747 0.00075210525 
   56300    2.9484404    1.3793847   0.72486158    5.0526867    1.6206153   0.72486158   0.75428712 0.00059716913 5.8851081e-05 
   56400    2.4112341    3.5894534  0.011009154    6.0116966  -0.58945341  0.011009154   0.75766707 -0.00040030838 0.0014933158 
   56500    2.0407019    3.2327592   0.12477938    5.3982405  -0.23275915   0.12477938   0.75767253 -0.00023835902 0.0012657863 
   56600    2.8766141     2.545936    0.9002153    6.3227654   0.45406396    0.9002153   0.75576221 -0.00029743423 -0.00028890618 
   56700    2.2847445    1.2676432   0.32981502    3.8822027    1.7323568   0.32981502   0.75351293 0.00093502784 0.00084739582 
   56800    1.9351965    2.9074369  0.050084997    4.8927184  0.092563081  0.050084997   0.75686094 2.8318723e-05 0.0014135519 
   56900    1.3595611   0.84795003    1.2353157    3.4428269      2.15205    1.2353157   0.75266842 0.00061115615 -0.00096529465 
   57000    1.6509593    3.9433478    2.3291959     7.923503  -0.94334776    2.3291959   0.76011184 -0.0021816957 -0.003138168 
   57100    2.4851383    1.9951445   0.64628121     5.126564    1.0048555   0.64628121   0.75525765 0.00023904953 0.00021795287 
   57200     3.159943   0.40362601   0.45097854    4.0145475     2.596374   0.45097854   0.75101098 0.0014302636 0.00060006488 
   57300    3.1348979   0.88792129   0.80671831    4.8295375    2.1120787   0.80671831   0.75185719 0.00087024026 -0.00010972224 
   57400    2.7918557    2.5665928    1.5177921    6.8762406   0.43340722    1.5177921   0.75618795 -0.00072292326 -0.0015232083 
   57500    1.9234546    1.2567916   0.35695756    3.5372038    1.7432084   0.35695756   0.75345609 0.00092416723 0.00079299705 
   57600    2.8329837    3.6500307    1.3308077     7.813822  -0.65003068    1.3308077    0.7582689 -0.0013205589 -0.0011450775 
   57700    3.1778328    1.8359907   0.86561052     5.879434    1.1640093   0.86561052   0.75474512 0.00019893252 -0.00022173081 
   57800    4.2834372     1.464092   0.12567951    5.8732087     1.535908   0.12567951    0.7540724 0.00094015231 0.0012567858 
   57900     4.410654    3.3239664   0.32836971    8.0629901  -0.32396638   0.32836971   0.75863429 -0.00043489073 0.00086052916 
   58000      3.48273   0.64557622   0.36257678     4.490883    2.3544238   0.36257678   0.75166054  0.001327898 0.00077816753 
   58100    2.5307609    1.1689632   0.48574036    4.1854645    1.8310368   0.48574036   0.75299589 0.00089686429 0.00053451106 
   58200     3.485225    1.2491957   0.20156625     4.935987    1.7508043   0.20156625   0.75356735 0.0010328254 0.0011040022 
   58300    2.9655369    2.9681411    0.6268379    6.5605158  0.031858921    0.6268379   0.75857627 -0.00039665265 0.00026347675 
   58400    4.1891849    2.3936737   0.43881831    7.0216768   0.60632633   0.43881831   0.75732117 0.00011167202 0.00063700573 
   58500    5.0961367    1.5904408   0.11667943     6.803257    1.4095592   0.11667943   0.75482742 0.00086191984  0.001276296 
   58600    3.5622352    1.5628939  0.065908969     5.191038    1.4371061  0.065908969   0.75297808 0.00091413143 0.0013741382 
   58700    4.8952947    1.5502972  0.076298643    6.5218905    1.4497028  0.076298643   0.75465622 0.0009156028 0.0013567152 
   58800    2.2403112     2.169943  0.072177349    4.4824315     0.830057  0.072177349   0.75599842 0.0005052531 0.0013676421 
   58900    1.4922556     3.045072    1.4026073    5.9399349 -0.045071984    1.4026073   0.75825884 -0.0009651195 -0.0012886968 
   59000    1.5566155    1.4331061   0.22614128    3.2158629    1.5668939   0.22614128   0.75409808 0.00089383505 0.0010559136 
   59100    5.0997126      1.55056   0.82108511    7.4713577      1.44944   0.82108511   0.75437819 0.00041890326 -0.00013341384 
   59200    3.1066273    2.8430037    0.5785367    6.5281677   0.15699633    0.5785367   0.75746441 -0.00028102692 0.00035785542 
   59300    1.7481463     2.201763   0.52104689    4.4709562   0.79823696   0.52104689    0.7559546 0.00018479338 0.00046981543 
   59400    2.0867522    1.8192188   0.27248693    4.1784579    1.1807812   0.27248693   0.75512475 0.00060552954 0.00096527564 
   59500    2.1377063    2.1522267    1.1997311    5.4896641   0.84777335    1.1997311   0.75619501 -0.00023463849 -0.00088707214 
   59600    3.3615783    1.7222345    1.1033882     6.187201    1.2777655    1.1033882   0.75423632 0.00011625155 -0.00069830375 
   59700     1.961071    2.3093532    0.4310897    4.7015139   0.69064681    0.4310897   0.75665061 0.00017303807 0.00065112181 
   59800    4.4256142    1.3621191   0.85181213    6.6395455    1.6378809   0.85181213   0.75395244 0.00052404582 -0.0001957194 
   59900    2.5962364    2.3983372   0.63690789    5.6314815   0.60166281   0.63690789    0.7570498 -2.3496722e-05 0.00024028382 
   60000    4.1644355    1.5397961    1.6401128    7.3443445    1.4602039    1.6401128   0.75434458 -0.00011993929 -0.0017715365 
   60100    4.7828441    3.5426037    2.3282252    10.653673  -0.54260375    2.3282252   0.75692807 -0.0019138859 -0.0031425942 
   60200    3.4747597    2.1930897    1.1203228    6.7881721   0.80691033    1.1203228   0.75657672 -0.00020894164 -0.00072749212 
   60300     3.759695    1.2187772   0.13880237    5.1172745    1.7812228   0.13880237   0.75357144  0.001094947 0.0012295381 
   60400     1.619858    2.0518849   0.23308849    3.9048314    0.9481151   0.23308849   0.75613091 0.0004766844 0.0010460848 
   60500    1.8987297    2.6530122    1.2121077    5.7638496   0.34698785    1.2121077   0.75491574 -0.0005767466 -0.000914384 
   60600    1.4610503    1.5584124   0.91636286    3.9358256    1.4415876   0.91636286   0.75422733 0.00035014982 -0.00032427105 
[...]
  985500    2.7406697     2.480715    1.0429637    6.2643485   0.51928497    1.0429637   0.75772976 -0.00034911917 -0.00057046794 
  985600    2.1310051    2.0442883   0.17340743    4.3487009   0.95571166   0.17340743   0.75517362 0.00052153615 0.0011635324 
  985700    2.3273177    1.2739936   0.28361907    3.8849304    1.7260064   0.28361907   0.75356943 0.00096159157 0.00093990072 
  985800    3.4942101    2.6113186   0.22222353    6.3277523   0.38868136   0.22222353   0.75670823 0.00011097189 0.0010689694 
  985900    1.9666419    1.0770494    0.3180182    3.3617095    1.9229506    0.3180182   0.75287165  0.001069955 0.00086970691 
  986000      4.25851   0.91869517    1.3203484    6.4975535    2.0813048    1.3203484    0.7524778 0.00050730428 -0.0011357412 
  986100     2.702114    1.2622172   0.18665086    4.1509821    1.7377828   0.18665086   0.75398237 0.0010340879  0.001134663 
  986200    3.3103385    1.8345886   0.84579158    5.9907186    1.1654114   0.84579158   0.75549082 0.00021307989 -0.00018060152 
  986300    6.4799331    1.4653754     0.863031    8.8083395    1.5346246     0.863031   0.75393706 0.00044772904 -0.00021818789 
  986400     2.253535    1.1988514   0.49597308    3.9483595    1.8011486   0.49597308   0.75362873 0.00087011704 0.0005153113 
  986500    2.3111467    2.3236028   0.30136717    4.9361166   0.67639722   0.30136717   0.75475516 0.00025002004 0.00090677598 
  986600    2.8403994    1.1528794    1.1384894    5.1317682    1.8471206    1.1384894   0.75355458 0.00047242075 -0.00076986968 
  986700    2.2916089    1.8714433   0.95359509    5.1166472    1.1285567   0.95359509   0.75497072 0.00011664111 -0.00039724873 
  986800    1.7258598    1.4006731   0.20355666    3.3300896    1.5993269   0.20355666   0.75304077 0.00093051346 0.0010989682 
  986900     3.668053    1.6840684   0.85733047    6.2094519    1.3159316   0.85733047   0.75470774 0.00030573408 -0.00020524547 
  987000    3.8073458    2.1986103  0.090593084    6.0965492    0.8013897  0.090593084   0.75579387 0.00047386441 0.0013304016 
  987100    2.3761859    2.7129403  0.045050377    5.1341766   0.28705966  0.045050377   0.75727746 0.00016133952 0.0014244542 
  987200    1.6543516    2.9454132   0.65155142    5.2513163  0.054586801   0.65155142   0.75914021 -0.00039797641 0.00021517757 
  987300    2.1799352    1.5271256   0.19466335    3.9017241    1.4728744   0.19466335   0.75475268 0.00085214071 0.0011201787 
  987400    3.6016048    3.1830344    0.2707141    7.0553533  -0.18303441    0.2707141    0.7578445 -0.00030249901 0.00097426079 
  987500    2.1559389    2.1992529  0.065147542    4.4203393   0.80074713  0.065147542   0.75552842 0.00049039973 0.0013807618 
  987600    2.5576526    7.3767634    2.8812625    12.815679   -4.3767634    2.8812625   0.77303705 -0.004838684 -0.0042164509 
  987700    1.4954243     1.744077    1.9547142    5.1942154     1.255923    1.9547142   0.75491467 -0.00046586076 -0.002399599 
  987800    3.5427227    5.6808783   0.73720412    9.9608052   -2.6808783   0.73720412   0.76197333 -0.0022787216 4.9538414e-05 
  987900    4.3673799    1.9336307    0.9594189    7.2604295    1.0663693    0.9594189   0.75581973 7.130029e-05 -0.00040719835 
  988000    6.1529725   0.47256154   0.24695882    6.8724929    2.5274385   0.24695882   0.75123309 0.0015203198 0.0010085485 
  988100     4.394424    2.6014399   0.69564436    7.6915082   0.39856015   0.69564436   0.75798627 -0.00019805614 0.00012468382 
  988200    3.4636888    1.6493636    0.8483881    5.9614405    1.3506364    0.8483881   0.75445614 0.00033483221 -0.00018786392 
  988300    6.4906314   0.63749314   0.74761011    7.8757346    2.3625069   0.74761011    0.7514131 0.0010765978 7.605986e-06 
  988400    4.6611766    1.6319418    1.7404337    8.0335521    1.3680582    1.7404337   0.75488007 -0.00024825035 -0.0019711073 
  988500    4.0759961    2.1005019   0.11286827    6.2893663   0.89949808   0.11286827   0.75452025 0.00052441987  0.001283304 
  988600    3.2372333    2.7421854   0.48305766    6.4624764   0.25781462   0.48305766    0.7567134 -0.00015016203 0.00054731147 
  988700    1.4926723    2.3261557    0.1746443    3.9934723   0.67384434    0.1746443   0.75617536 0.00033280003 0.0011630621 
  988800    4.7348986    2.5443022   0.05351558    7.3327163    0.4556978   0.05351558   0.75652254 0.00026812148 0.0014060139 
  988900    2.4016009    2.5268915    1.3217252    6.2502177   0.47310848    1.3217252   0.75766392 -0.00056574449 -0.0011281226 
  989000    3.0048068    1.1085845    1.1252527    5.2386439    1.8914155    1.1252527   0.75216143 0.00051077525 -0.00074618248 
  989100    4.2882443    3.6539641    1.5358094    9.4780178  -0.65396412    1.5358094   0.75815605 -0.001459849 -0.0015553066 
  989200    1.5995408   0.53002831   0.58889596    2.7184651    2.4699717   0.58889596   0.75137813 0.0012540505 0.00032496435 
  989300    3.5497692    1.9457398   0.65729466    6.1528037    1.0542602   0.65729466   0.75612929 0.00026464367 0.00019766926 
  989400    2.2918707    3.8174979   0.31539161    6.4247602  -0.81749788   0.31539161   0.76030172 -0.00075525966 0.00088982021 
  989500    2.1765789    1.2852072   0.32795128    3.7897374    1.7147928   0.32795128   0.75309944  0.000924561 0.00085029633 
  989600     1.969172   0.74938869   0.17791408    2.8964748    2.2506113   0.17791408   0.75233694 0.0013817982 0.0011488457 
  989700    1.1394482   0.77257371     2.001416    3.9134379    2.2274263     2.001416   0.75232556 0.00015067353 -0.0024981809 
  989800     1.177228    2.4447873   0.49881554    4.1208308    0.5552127   0.49881554   0.75725398 3.7598103e-05 0.00051687687 
  989900    3.8590177    1.4483206   0.69315953    6.0004978    1.5516794   0.69315953   0.75419732 0.00057234656 0.00012207559 
  990000    3.1274225    1.4132078   0.33840886    4.8790392    1.5867922   0.33840886   0.75415922 0.00083225556 0.00083150071 
  990100     4.288575    3.0382622    1.1475662    8.4744035 -0.038262235    1.1475662   0.75786436 -0.00079055232 -0.00077940377 
  990200    1.5824878    1.6116346    1.2217493    4.4158717    1.3883654    1.2217493   0.75297015 0.00011107741 -0.00093755825 
  990300    1.5092973    3.6209495   0.16790866    5.2981555   -0.6209495   0.16790866   0.75756884 -0.00052590544 0.0011793204 
  990400    4.7961517     2.963038   0.52622226     8.285412  0.036961976   0.52622226   0.75643256 -0.00032617352 0.00046042061 
  990500    2.0637011    1.7668267    1.2476796    5.0782074    1.2331733    1.2476796   0.75461337 -9.6708648e-06 -0.00098613248 
  990600    4.3990492    1.3033022  0.010464137    5.7128155    1.6966978  0.010464137   0.75322158 0.0011241558 0.0014855149 
  990700    1.2000783    1.6857143    1.1192275    4.0050201    1.3142857    1.1192275    0.7549245 0.00013003881 -0.00072860597 
  990800    2.3786233    3.9132358   0.13636386     6.428223  -0.91323583   0.13636386   0.75901463 -0.00069973313 0.0012453015 
  990900    2.9930989    3.9542336   0.13793922    7.0852717  -0.95423356   0.13793922   0.76104037 -0.00072811518 0.0012462023 
  991000    1.5029152     3.960299   0.81723872    6.2804529  -0.96029905   0.81723872   0.76139405 -0.0011850252 -0.00011168934 
  991100    1.8718376     3.109573   0.94413106    5.9255417  -0.10957299   0.94413106    0.7570652 -0.00070246937 -0.00037413171 
  991200    4.7980811    1.3806437   0.75885613     6.937581    1.6193563   0.75885613   0.75422857 0.00057366679 -9.2551178e-06 
  991300    3.1530709    1.5176957    3.3996569    8.0704235    1.4823043    3.3996569   0.75423392 -0.001278235 -0.0052908459 
  991400    2.0639476     3.837127   0.78047672    6.6815513  -0.83712697   0.78047672    0.7581943 -0.0010784025 -4.456484e-05 
  991500    5.7644268    3.4733057    1.4222047    10.659937  -0.47330573    1.4222047   0.75923202 -0.0012636736 -0.0013259453 
  991600    3.1555981    2.1655446   0.22424199    5.5453847   0.83445538   0.22424199   0.75582199 0.00040680893   0.00106316 
  991700    2.0511535    4.1440323   0.58734445    6.7825302   -1.1440323   0.58734445   0.76042745 -0.0011542511  0.000346166 
  991800    4.1216481   0.60382177   0.13880449    4.8642744    2.3961782   0.13880449   0.75124727 0.0015049158 0.0012248856 
  991900    2.4666531    1.2966287   0.55248405    4.3157658    1.7033713   0.55248405   0.75310108 0.00076725816 0.00040123406 
  992000      5.20823    1.5851926   0.15940352    6.9528262    1.4148074   0.15940352   0.75477948 0.0008369359 0.0011907519 
  992100    4.4064465    2.9478083    0.7312916    8.0855464  0.052191678    0.7312916   0.75785312 -0.00045273328 5.3123051e-05 
  992200     3.353899    1.7694678   0.52635725     5.649724    1.2305322   0.52635725      0.75388   0.00046945 0.00045504551 
  992300    2.9206968   0.84510526   0.15854838    3.9243504    2.1548947   0.15854838   0.75205409 0.0013308976 0.0011870114 
  992400    1.0374221     2.364295   0.43665645    3.8383735   0.63570502   0.43665645   0.75672265 0.00013269904 0.0006401324 
  992500    4.2567689    3.0501445   0.30655103    7.6134645 -0.050144502   0.30655103   0.75587425 -0.00023779702 0.00089864643 
  992600    6.0639054    2.8980633   0.85280878    9.8147774   0.10193669   0.85280878   0.75871918 -0.00050058139 -0.00018817919 
  992700    3.4438556    1.4288514   0.15060727    5.0233142    1.5711486   0.15060727   0.75303109 0.00094702757 0.0012048476 
  992800   0.68059239   0.63481005    1.0682932    2.3836956      2.36519    1.0682932   0.75176181 0.00086459783 -0.0006330628 
  992900    3.2975667    2.0493216   0.90725439    6.2541427    0.9506784   0.90725439   0.75571713 2.8949341e-05 -0.00030307452 
  993000    2.5885367     2.078479    1.1211637    5.7881794     0.921521    1.1211637   0.75623307 -0.00013309515 -0.00072986128 
  993100    2.1433237    5.5748059   0.13162454    7.8497541   -2.5748059   0.13162454    0.7620997 -0.001804287 0.0012609503 
  993200    1.6650738    1.4773201   0.12281212     3.265206    1.5226799   0.12281212   0.75424956 0.00093324521 0.0012628749 
  993300    1.9437455    1.3599593   0.31605372    3.6197586    1.6400407   0.31605372   0.75373082 0.00088265798 0.0008753542 
  993400    1.9909221    1.3758043   0.21610834    3.5828348    1.6241957   0.21610834   0.75310352 0.00093872488 0.0010739904 
  993500    4.1406079   0.40944857   0.55099552    5.1010519    2.5905514   0.55099552   0.75072699 0.0013597039 0.00039946295 
  993600    2.6206107    2.2636783    0.1911601    5.0754491   0.73632172    0.1911601   0.75584039 0.00036344108 0.0011293606 
  993700    1.6741767    4.5487112   0.82717847    7.0500664   -1.5487112   0.82717847   0.76080664 -0.0015839265 -0.00013274366 
  993800    4.1121234    1.9924212   0.53003713    6.6345817    1.0075788   0.53003713   0.75476237 0.0003183611 0.00044945048 
  993900    2.2309028    0.6383555   0.29190325    3.1611615    2.3616445   0.29190325   0.75135297 0.0013798275 0.00091889945 
  994000    4.2940404    1.6478201    0.9058573    6.8477178    1.3521799    0.9058573   0.75470341 0.00029754842 -0.00030230777 
  994100    2.8036438    3.3779474    1.1619788      7.34357  -0.37794738    1.1619788   0.75750938 -0.0010266174 -0.00080893879 
  994200    2.2375086    2.6159866    1.1465229    6.0000181   0.38401343    1.1465229    0.7577516 -0.00050833967 -0.00077754267 
  994300    3.6127993   0.58919429   0.43905415    4.6410478    2.4108057   0.43905415   0.75162035  0.001314501 0.0006251324 
  994400    4.0946528    1.9216699    1.4169899    7.4333126    1.0783301    1.4169899   0.75436862 -0.00022577314 -0.0013252425 
  994500    2.4726432    3.4388574   0.11588764    6.0273882  -0.43885739   0.11588764   0.76076339 -0.00036983002 0.0012897515 
  994600    2.4330096    1.5999277    2.6529019    6.6858392    1.4000723    2.6529019   0.75460245 -0.00083521971 -0.0037965989 
  994700    3.5736767    3.7444188   0.67344486    7.9915403  -0.74441879   0.67344486   0.75965744 -0.00094524243 0.00017242516 
  994800    2.6892765    1.4647469   0.95106407    5.1050875    1.5352531   0.95106407   0.75398236 0.00038945935 -0.00039416341 
  994900    2.8091165    2.3343187    1.2540917    6.3975269    0.6656813    1.2540917   0.75538053 -0.00039227359 -0.0009974223 
  995000    5.3165259    6.5800858    1.2360427    13.132654   -3.5800858    1.2360427   0.76526189 -0.0032107523 -0.00094156156 
  995100    3.3632556     1.869251  0.011534268    5.2440409     1.130749  0.011534268   0.75499994 0.00074614315 0.0014869313 
  995200    3.6465675    2.5094166    1.4232543    7.5792384   0.49058342    1.4232543    0.7569056 -0.00062178061 -0.0013326975 
  995300    3.8910727    2.3806016   0.84393451    7.1156089   0.61939839   0.84393451   0.75691194 -0.00014969075 -0.00017404513 
  995400    5.6784028    1.9680968   0.71903072    8.3655302    1.0319032   0.71903072   0.75507353 0.00020858167 7.2085619e-05 
  995500    5.3156242    1.6843096   0.81354138    7.8134751    1.3156904   0.81354138   0.75464527 0.00033476603 -0.00011779223 
  995600     5.637007    2.8632779   0.68689196    9.1871768   0.13672211   0.68689196   0.75690876 -0.0003667799 0.0001400336 
  995700    1.5471463   0.91351674    1.0495074    3.5101704    2.0864833    1.0495074   0.75160441 0.00069131727 -0.00059580589 
  995800    3.6057785    2.4485938   0.70825839    6.7626306   0.55140623   0.70825839   0.75756016 -0.00010456811 9.8603542e-05 
  995900    3.9420162    2.7249957   0.23091797    6.8979299   0.27500431   0.23091797   0.75665747 2.9390893e-05  0.001051479 
  996000    4.2510446    2.3610789   0.10377301    6.7158965    0.6389211   0.10377301   0.75496239 0.00035676539 0.0013023788 
  996100    2.9438663    1.6427963   0.33759652    4.9242591    1.3572037   0.33759652   0.75365525 0.00067973814 0.00083211747 
  996200    3.3052294    1.5837035   0.14543358    5.0343664    1.4162965   0.14543358   0.75489646 0.00084724196 0.0012189258 
  996300    3.7586457    4.7311964    1.1489693    9.6388113   -1.7311964    1.1489693   0.76188141 -0.0019201104 -0.00077417577 
  996400    3.1811226    1.8902677   0.42264309    5.4940334    1.1097323   0.42264309   0.75483381 0.00045805944 0.00066438143 
  996500    3.9597624      3.60106    1.3340087    8.8948311  -0.60105998    1.3340087   0.76005887 -0.0012900458 -0.0011478997 
  996600    3.1743618    3.3567826   0.38784895    6.9189933  -0.35678256   0.38784895   0.76048884 -0.000496421 0.00074527979 
  996700    1.5327134    2.1480195   0.54102961    4.2217626   0.85198045   0.54102961   0.75635669 0.00020730056 0.00043065416 
  996800     3.371015    2.1665425     3.175507    8.7130646   0.83345746     3.175507   0.75619372 -0.0015613664 -0.0048386266 
  996900    3.0860652    1.2713082   0.47811534    4.8354887    1.7286918   0.47811534   0.75384705 0.00083371765 0.00055146342 
  997000    4.7786542    3.4134238   0.60973554    8.8018135  -0.41342383   0.60973554   0.75996524 -0.00068210624 0.0003004594 
  997100    2.9967421    3.3779149   0.14320423    6.5178612  -0.37791488   0.14320423   0.76044375 -0.00034741274  0.001234479 
  997200    1.3505834    1.1008128   0.41156363    2.8629599    1.8991872   0.41156363   0.75271206 0.00099174903 0.00068229686 
  997300     3.111748     2.533746     0.649834     6.295328   0.46625398     0.649834    0.7574788 -0.00012238669 0.0002152896 
  997400    2.1042827    1.4429743    0.2272112    3.7744682    1.5570257    0.2272112   0.75416868 0.00088654303 0.0010539149 
  997500    1.7310195    1.6176408   0.65913303    4.0077933    1.3823592   0.65913303   0.75432152 0.00048215081 0.00019037699 
  997600    3.2166095    3.2629932   0.99574226     7.475345  -0.26299325   0.99574226   0.75990215 -0.000839157 -0.00047168022 
  997700    3.9070426    1.1540503  0.082207366    5.1433002    1.8459497  0.082207366   0.75267771 0.0011758282 0.0013409407 
  997800    3.3160526    3.5939898     1.340672    8.2507144  -0.59398985     1.340672   0.76096812 -0.0012897745 -0.0011594077 
  997900     1.917207    3.3568563    0.9707084    6.2447717  -0.35685631    0.9707084   0.75974864 -0.00088504314 -0.00042191954 
  998000    7.3837966    1.1191541   0.25680002    8.7597507    1.8808459   0.25680002    0.7523911 0.0010826973 0.00099118215 
  998100    4.1011074    1.6911369    1.1359776    6.9282219    1.3088631    1.1359776   0.75397697 0.00011525698 -0.00076400129 
  998200    2.8157064    1.7393327   0.29600835    4.8510475    1.2606673   0.29600835   0.75545374 0.00064310597 0.00091889078 
  998300     1.538303   0.70574878   0.16646053    2.4105123    2.2942512   0.16646053   0.75184071 0.0014185271 0.0011707604 
  998400    1.0451896    1.3830646   0.12134514    2.5495993    1.6169354   0.12134514   0.75347176 0.00099706019 0.0012642532 
  998500    1.8756162    3.7511054   0.75220047    6.3789221  -0.75110543   0.75220047   0.76007657 -0.0010022039 1.5752214e-05 
  998600    5.2095913    2.2590381    1.7853111    9.2539404   0.74096191    1.7853111   0.75632829 -0.00069623277 -0.0020579656 
  998700     3.416965    2.2355999  0.018174296    5.6707392   0.76440011  0.018174296   0.75648277 0.00049748388 0.0014766169 
  998800    1.8961659    2.7364144   0.45121022    5.0837905   0.26358563   0.45121022   0.75576771 -0.00012508306 0.00060911496 
  998900    4.4133572    1.6307621    1.4283909    7.4725102    1.3692379    1.4283909   0.75439316 -3.9435301e-05 -0.0013479955 
  999000    3.3210038    3.3920999     2.448156    9.1612597  -0.39209992     2.448156   0.75803751 -0.0018935039 -0.003380237 
  999100    7.3207159    1.4354125   0.22551948    8.9816479    1.5645875   0.22551948   0.75323747  0.000892712  0.001055436 
  999200    2.2398554    2.2492319   0.39450385    4.8835911   0.75076813   0.39450385   0.75575435 0.00023750952 0.00072250099 
  999300    3.0715345   0.52641674    0.3830309    3.9809821    2.4735833    0.3830309   0.75119298 0.0013937016 0.00073632414 
  999400    2.6327687    1.8158535   0.47915476     4.927777    1.1841465   0.47915476   0.75459335 0.00046999447 0.00055087718 
  999500     2.041294    2.4380994    0.8008784    5.2802719   0.56190057    0.8008784   0.75623823 -0.00015931856 -8.9280343e-05 
  999600    3.9105211    3.6422313    1.4649107    9.0176631  -0.64223134    1.4649107   0.76102517 -0.0014047614 -0.001407771 
  999700    2.1018183    2.0043464    1.4693702     5.575535    0.9956536    1.4693702   0.75565149 -0.00031581108 -0.0014274375 
  999800    3.4611106    1.3451394     1.439644    6.2458941    1.6548606     1.439644   0.75418507 0.00014347771 -0.0013709179 
  999900    2.7867025    1.6763431     1.455459    5.9185046    1.3236569     1.455459   0.75463311 -8.7868079e-05 -0.0014016518 
 1000000   0.99850724    2.1291375   0.49429422     3.621939   0.87086247   0.49429422   0.75576888 0.0002510455 0.00052294932 
Loop time of 25.9029 on 1 procs for 1000000 steps with 1 atoms

Performance: 667106565.796 tau/day, 38605.704 timesteps/s
99.4% CPU use with 1 MPI tasks x 1 OpenMP threads

MPI task timing breakdown:
Section |  min time  |  avg time  |  max time  |%varavg| %total
---------------------------------------------------------------
Pair    | 0.051854   | 0.051854   | 0.051854   |   0.0 |  0.20
Neigh   | 0.11524    | 0.11524    | 0.11524    |   0.0 |  0.44
Comm    | 0.085892   | 0.085892   | 0.085892   |   0.0 |  0.33
Output  | 0.051971   | 0.051971   | 0.051971   |   0.0 |  0.20
Modify  | 25.45      | 25.45      | 25.45      |   0.0 | 98.25
Other   |            | 0.1475     |            |       |  0.57

Nlocal:        1.00000 ave           1 max           1 min
Histogram: 1 0 0 0 0 0 0 0 0 0
Nghost:         0.00000 ave           0 max           0 min
Histogram: 1 0 0 0 0 0 0 0 0 0
Neighs:         0.00000 ave           0 max           0 min
Histogram: 1 0 0 0 0 0 0 0 0 0

Total # of neighbors = 0
Ave neighs/atom = 0.0000000
Neighbor list builds = 99470
Dangerous builds = 96275
Total wall time: 0:00:25
