53
Lattice="9.450121 0.0 0.0 0.0 9.450121 0.0 0.0 0.0 9.450121" Properties=species:S:1:pos:R:3:forces:R:3 energy=-569.56177802 stress="50.97085 51.18426 51.20837 5.72081 5.79388 4.89313 4.89313 5.79388 5.72081" pbc="T T T"
Mo  9.404514716053999  9.404741518958  3.104704952856  0.62737967  0.61553514  0.50337361
Mo  9.398665091155  9.406055085777  6.298515096620999  0.67928488  0.58991092  0.76121351
Mo  9.402530190643999  3.0958218391159997  9.408994073408  0.65054693  0.57570951  0.56401081
Mo  9.406253538318  3.116328601686  3.123038187596  0.54840876  0.21804662  0.16336519
Mo  9.404977771982999  3.1143157259129994  6.226514624721999  0.60882331  0.42792014  1.33655269
Mo  9.398598940307998  6.2960958656449995  9.405554229363998  0.68577033  0.79876552  0.6083062
Mo  9.409617781394  6.221534410955  3.113597516717  0.56319211  1.39094233  0.44260005
Mo  9.408833421351  6.2421545749769995  6.242466428969999  0.62786247  1.08193786  1.06348494
Mo  3.0965494984329998  9.408625518688998  9.410647844583  0.63330399  0.5519824  0.53684184
Mo  3.1163002513229996  9.413095425922  3.1246447081659996  0.2733854  0.4937166  0.13868276
Mo  3.1042607971689997  9.413605732456  6.222394371966  0.56581201  0.47259556  1.41602091
Mo  3.113191161514  3.121346615937  9.414796447701999  0.28082261  0.17723692  0.43231438
Mo  3.0949240776209996  3.1049979066069997  3.103665439546  0.48516324  0.39708736  0.40391853
Mo  3.0925237468869997  3.0997625395729997  6.26013815524  0.65788949  0.57806954  0.79926787
Mo  3.104421449226  6.222167569061999  9.416591970692  0.54491509  1.43284949  0.43669104
Mo  3.095802938874  6.261602923995  3.1019644177659997  0.64512838  0.78845115  0.53246155
Mo  3.098373371786  6.258522184548999  6.256206904903999  0.79959939  0.7544561  0.7849406
Mo  6.291068401273  9.408738920141  9.406584292553  0.9189909  0.5574105  0.54849595
Mo  6.216705399124  9.413964837054  3.1100631714629996  1.54791437  0.49695549  0.49511264
Mo  6.229396911626999  9.41789608739  6.239782594606  1.2594362  0.47463207  1.07042377
Mo  6.2172346059  3.107539989156  9.413256077979  1.51706925  0.54978822  0.46579914
Mo  6.245792871561999  3.101595863047  3.1020022182499996  0.996303  0.57368947  0.5602711
Mo  6.252993863764  3.1027298775669996  6.25824813104  0.79287825  0.77721537  0.71437105
Mo  6.2284991501319995  6.2428916844149995  9.423906364346  1.29420447  1.03874422  0.4080029
Mo  6.254742136149  6.256613260106999  3.1035236877309997  0.81032324  0.74675871  0.77812862
Mo  6.258144179708999  6.26590272905  6.268501512325  0.68690745  0.57425375  0.55208858
Mo  1.6176528125379999  1.5979493102529998  1.601219052119  -0.46385828  -0.23955706  -0.26284399
Mo  1.5799184793849999  1.574635861746  4.790426986956999  -0.08825149  0.05163797  -1.02513394
Mo  1.61956173698  1.60670957242  7.934047538090999  -0.63212754  -0.48421881  -0.64068774
Mo  1.580768990275  4.791683853049999  1.571318869275  -0.07519115  -1.0643057  0.08095725
Mo  1.605121952092  4.769428818094999  4.765507017879999  -0.38607641  -0.85528962  -0.79899107
Mo  1.5993573782819999  4.7886314639670005  7.931307003001  -0.41468542  -0.97322875  -0.99945378
Mo  1.6187962771789999  7.935238253336999  1.6153658832559998  -0.60050288  -0.67092079  -0.57556577
Mo  1.60122850224  7.934368842205  4.783329946086  -0.42371027  -1.03588513  -0.87268367
Mo  1.645748022271  7.922886945189999  7.922546740834  -1.09033812  -0.41580036  -0.40681784
Mo  4.797845331942  1.582781866048  1.5745035600519999  -1.13762686  -0.07946836  -0.00363535
Mo  4.769192565069999  1.5972500012989999  4.762983835573  -0.91158717  -0.23797794  -0.77144767
Mo  4.795917507257999  1.5993101276769999  7.923869757773999  -1.08850732  -0.39771661  -0.90914881
Mo  4.772207153669  4.768086900913  1.596002585327  -0.93048827  -0.808817  -0.21711746
Mo  4.769381567489999  4.765885022719999  4.767066287845  -0.75381571  -0.67826067  -0.69363202
Mo  4.763229538719  4.761169412340999  7.949574086894  -0.77651579  -0.71962978  -1.26373602
Mo  4.8001133609819995  7.934056988211999  1.597779208075  -1.1248718  -1.00902492  -0.37492021
Mo  4.76541251667  7.948581824189  4.757483865150999  -0.79248545  -1.27966042  -0.67055598
Mo  4.799621954689999  7.9118303036199995  7.914429086894999  -1.08211478  -0.6475435  -0.68814149
Mo  7.942514846506999  1.609894263197  1.610442370215  -0.72202237  -0.55407334  -0.54724405
Mo  7.930333640538  1.5976658066229998  4.785843678271999  -1.00912139  -0.38172465  -0.9397594
Mo  7.931127450701999  1.643215389843  7.913446274310999  -0.49566326  -1.0912737  -0.29452768
Mo  7.93564460854  4.787544700051999  1.5999905363889997  -1.06380566  -0.97797063  -0.40877734
Mo  7.954573200903  4.758220974588999  4.758636779913  -1.37308616  -0.69242711  -0.68479302
Mo  7.9211859234099995  4.791646052566  7.909354371917999  -0.8411484  -0.95421413  -0.60593603
Mo  7.933905786275999  7.920023558526999  1.642034124718  -0.50316771  -0.35433851  -1.08674857
Mo  7.923075947609999  7.908371559333999  4.7886503642089995  -0.84826479  -0.6255947  -0.91563121
Mo  7.91031828426  7.903013340726999  7.901236717979  -0.07228074  0.0426233  0.06023262
53
Lattice="9.450121 0.0 0.0 0.0 9.450121 0.0 0.0 0.0 9.450121" Properties=species:S:1:pos:R:3:forces:R:3 energy=-568.07099758 stress="55.52231 55.77874 56.42027 -3.69789 1.54735 -3.85372 -3.85372 1.54735 -3.69789" pbc="T T T"
Mo  0.072406827102  9.394100682711999  3.026722554364  -1.08681761  0.31957424  0.81021729
Mo  9.403031047057  9.393306872548  6.313115533566  0.73200059  0.803229  -0.28331738
Mo  0.010829838666  3.1157048937  0.000481956171  0.13564447  0.31204388  0.15637334
Mo  0.18266138880899999  3.0578701531799997  3.097551211259  -2.23159142  0.77724277  -0.01881128
Mo  0.043546157567999996  3.136655811957  6.319229761852999  -0.79973815  -0.06769816  -0.42687652
Mo  9.42167613579  6.360649642196  0.004961313524999999  0.33300333  0.2093005  0.03702875
Mo  0.046938751007  6.248637357982999  3.1708557998559996  -0.62790859  1.01330546  -0.42361389
Mo  0.12854999596299999  6.179103367665  6.318152448059  -1.88832232  2.12443045  -0.28454816
Mo  3.0512739687219996  9.344175693469  9.386512235548999  0.11171054  1.22937793  0.43721951
Mo  3.174985502733  9.417933887874  3.24885709859  -0.34717468  0.39152447  -1.33171075
Mo  3.2173503951759996  9.403210599356  6.272187059515  -1.38428499  0.6760074  0.46611419
Mo  3.213740448954  3.148251110424  0.006407182038  -1.6145274  -0.22955643  0.42618847
Mo  3.2993963456979998  3.178803351617  3.21086761217  -1.50798261  -0.55423183  -0.90483316
Mo  3.1904648009309997  3.1688240238409997  6.301983291028  -0.54890808  -0.0772983  0.08898517
Mo  3.1910129079489997  6.2321657970799995  0.10240151115599999  -1.07682385  1.21063516  -1.42116249
Mo  3.215913976784  6.237089310120999  3.137515772968  -0.87520788  1.15912297  0.88789702
Mo  3.187204509186  6.19899587237  6.334019201218  -0.48028792  1.4189581  -0.30259861
Mo  6.268255809178999  0.04017246437099999  9.385368770908  -0.09455625  -0.71643651  0.58402489
Mo  6.364287938781  9.428121118312  3.1474478501389997  -1.03334526  0.04649572  -0.44512405
Mo  6.381940764808999  0.005509420542999999  6.316404175674  -1.25081257  0.05857408  -0.27075337
Mo  6.3049884295059995  3.108125896658  0.038669895132  -0.0245102  0.69476433  0.21961629
Mo  6.380485446174999  3.05768115076  3.169976938603  -0.07875249  0.84626141  -0.35069
Mo  6.344282032624  3.1672931042389996  6.480392125387  -0.25582994  -0.12108945  -2.07494327
Mo  6.349489049294999  6.272583964597  0.130912526213  -0.89124043  0.5411672  -1.57742114
Mo  6.384794701351  6.311216059245  3.281025310474  -0.76928404  0.0273843  -1.95872241
Mo  6.297286580891  6.268047906516999  6.278924995788  0.44416844  0.81658294  1.06766818
Mo  1.56635755575  1.437108250833  1.577404747199  0.09705997  1.19278945  -0.74250184
Mo  1.490302981942  1.6924788706159999  4.705791703280999  1.39746424  -1.58942522  0.32727973
Mo  1.562256203236  1.712683229314  7.831986231290999  -0.06425836  -1.46696619  0.35851443
Mo  1.4919945536009998  4.812256766467  1.609913163439  1.24183994  -1.37658296  -0.25519041
Mo  1.4595050376029999  4.730692772116  4.741229657031  2.63311936  -0.24493911  -0.21353493
Mo  1.5391979079959999  4.820194868107  7.967756119698  0.98401865  -1.04593503  -0.4933224
Mo  1.5862406103339999  7.916404162184  1.5499521456939997  -0.61710061  -0.70027213  -0.15401075
Mo  1.5325072223279999  7.932790671997999  4.689074439232  0.82884783  -0.83271805  0.38382167
Mo  1.442343617867  7.904563160570999  7.801556841671  0.83491949  0.10038614  0.88252085
Mo  4.588326699251  1.5068973944179997  1.488176704717  1.53173878  0.5876026  1.23639498
Mo  4.68215695066  1.6036855336999998  4.74632327225  1.00515292  -0.16054528  0.00559814
Mo  4.6257869788949995  1.6084011440789998  7.88792149749  1.13341386  -0.34655202  -0.44355666
Mo  4.662037643051  4.772150452942999  1.555697819262  1.44071311  -1.31712459  0.71660277
Mo  4.796314412339999  4.785607425247  4.663852066283  -0.56879099  -1.03967624  1.23235274
Mo  4.659788514253  4.726355166577  7.935616258176999  1.40821441  0.30930336  -0.51127008
Mo  4.6270721953509995  7.848797996549999  1.5700809034239998  1.21304159  0.4445989  0.45152438
Mo  4.706481562113999  7.933792384823999  4.731703935063  0.56292883  -0.78951406  0.17687191
Mo  4.609891875373  7.948364471405999  7.877384612574999  1.16843941  -1.3151579  -0.19724959
Mo  7.866838277538999  1.5580508993909998  1.4537782642769999  0.12213483  -0.09092789  0.81025803
Mo  7.842617617415999  1.496095906115  4.661867540873  0.56332353  1.11899119  0.45900238
Mo  7.848665694856  1.6556422989579997  7.866507523304  0.39984255  -0.85330975  0.06928421
Mo  7.8629448276869995  4.781146968135  1.544102520795  -0.03383453  -1.1141687  0.48688961
Mo  7.895179190417999  4.770647883704  4.691578721297  -0.04034535  -1.32490077  0.40623111
Mo  7.981817899745999  4.783405547054  7.831334172942  -1.6556411  -0.4243519  0.85832829
Mo  7.768840522768999  7.891777146858  1.5383473971059998  1.19217397  0.25965096  0.08740965
Mo  7.894168027470999  7.897154265707  4.672111472037  0.03816996  -0.38454054  0.7197335
Mo  7.811526719325999  7.9270638986719995  7.8559895386309995  0.29479302  -0.50538591  0.23581169
53
Lattice="9.450121 0.0 0.0 0.0 9.450121 0.0 0.0 0.0 9.450121" Properties=species:S:1:pos:R:3:forces:R:3 energy=-568.94673727 stress="51.67088 48.07905 47.42845 -3.08727 -3.82895 2.50154 2.50154 -3.82895 -3.08727" pbc="T T T"
Mo  9.433469886798  9.398920244422  3.0322792255119997  0.1144972  0.80474717  1.30516268
Mo  0.027887307070999998  9.407482054048  6.30256919853  -0.35942935  0.5548693  0.38042017
Mo  9.44085988142  3.0378075462969996  9.378923788385999  0.10517012  1.10730208  1.10456306
Mo  0.045067627049  3.174758699829  3.1563120636369995  -0.27159548  -0.64289384  -0.37451611
Mo  0.037970586178  3.1076628407289997  6.209428805954  -0.20331545  0.29884099  1.61792392
Mo  0.026942294970999998  6.33800715228  9.387532848616999  -0.30072165  -0.07451321  0.8001566
Mo  0.038764396342  6.239111636014999  3.0902368176049997  -0.2661879  1.18276223  0.42786507
Mo  0.011595298467  6.255318593529999  6.222299870755999  -0.1583892  0.79039572  1.16830132
Mo  3.070996371249  9.399156497446999  9.38293063969  0.15574373  0.95902014  1.17204454
Mo  3.234190510798  9.447890771444  3.152267411849  -1.61178239  0.5238421  -0.0369761
Mo  3.162435742045  9.409844584298  6.222195919425  -0.4669861  0.91018556  1.27190328
Mo  3.223691426367  3.163938311284  9.443420864211  -1.39889305  -0.23170374  0.62281552
Mo  3.166848948552  3.115950596846  3.108721254281  -0.3850882  0.30177276  0.49618427
Mo  3.2275187253719997  3.173653035672  6.295538308505999  -1.33073599  -0.44126785  0.2432213
Mo  3.1664331432279997  6.250678584118999  9.400829168864  -0.5932261  0.78803624  1.03993602
Mo  3.2359671335459996  6.308768477906  3.156973572107  -1.52121606  0.0138974  -0.21032634
Mo  3.1908806062549995  6.269191371158  6.245339265753999  -0.95373157  0.50853708  0.86871821
Mo  6.373265553731  9.423424408175  9.407425353322  -0.93762014  0.50428844  0.74996633
Mo  6.3012178312269995  9.418378043560999  3.1181335747969996  0.20705054  0.79261804  -0.0253499
Mo  6.307114706730999  9.396812867439  6.211923637897999  0.11150735  0.71406623  1.31961668
Mo  6.308390473065999  3.119777895851  9.409107474859999  0.07192328  -0.10517358  0.97188138
Mo  6.360999296673  3.191523214483  3.178652149681  -0.40696092  -0.8575777  -0.62627661
Mo  6.302011641390999  3.138848240029  6.241398565296999  0.36943097  -0.32858382  1.08054678
Mo  6.301709237518999  6.220296445104  9.380577559560999  0.18576459  1.11313443  0.96591926
Mo  6.285908635206999  6.251670846824  3.117169662455  0.64608141  0.90761217  -0.08532465
Mo  6.255224092319999  6.219578235907999  6.201235551047  0.86101759  1.22991213  1.50232096
Mo  1.4547232763769997  1.5535620919159998  1.5709786649189998  1.14698432  0.00454751  -0.27124508
Mo  1.5113956520139997  1.568927988662  4.731401531191  1.32548012  0.18988829  -0.0750061
Mo  1.5854278999279998  1.659242795059  7.970912460111999  -0.28542336  -1.37476261  -1.37811859
Mo  1.509420576725  4.713559702743  1.5887921430039997  1.34533972  0.24222978  -0.13087127
Mo  1.5240399139119998  4.753004507797  4.766565431431999  1.14287181  -0.17458115  -0.48071526
Mo  1.599442429371  4.710337211482  7.968795633007999  -0.21062918  0.34397738  -1.4557557
Mo  1.572519034642  7.972518980682  1.6697796799739997  -0.09810647  -1.36288822  -1.47565269
Mo  1.5844167369809998  7.961802543468  4.73233709317  -0.01958908  -1.39915964  -0.03570012
Mo  1.5885180894949997  7.882648329972  7.900924863985999  -0.89612203  -0.12039575  -0.38277621
Mo  4.62876376701  1.560233877342  1.576781039213  1.30236729  0.44481927  0.21626594
Mo  4.716517590615999  1.589576503047  4.782403834227999  0.4276012  -0.1212011  -0.73227811
Mo  4.621808477954  1.6320547969419998  7.971479467371999  1.44429192  -0.79009682  -1.46047688
Mo  4.720637843372  4.758920283543  1.609903713318  0.34530636  -0.44463948  -0.4137009
Mo  4.695339869454999  4.728585395132999  4.747599038584999  0.47712946  -0.20740856  -0.53535005
Mo  4.731363730707  4.756510502687999  7.933395479741999  0.22573858  -0.33282816  -1.04621127
Mo  4.616809363944999  7.9635413657319996  1.637205112887  1.55520018  -1.34501471  -0.87985019
Mo  4.725703108227999  7.915997806980999  4.771148740117  0.31222994  -0.80989927  -0.58610843
Mo  4.613426220627  7.915345748631999  7.944348169981  1.61343543  -0.6436781  -1.09395315
Mo  7.931325903243  1.62173526481  1.6430074871809999  -1.16811024  -0.58415606  -0.83784998
Mo  7.957578339380999  1.6106030222719998  4.717481502957999  -1.270905  -0.37065368  0.20013638
Mo  7.832581588913999  1.5869493694089998  7.917661028277  0.34705529  -0.64577676  -0.8700361
Mo  7.960271623865999  4.687893174107  1.615441484224  -1.24313759  0.62526252  -0.42562951
Mo  7.895434343684999  4.76579052151  4.778406433044999  -0.34319251  -0.29666795  -0.61392613
Mo  7.872177595904  4.671308211752  7.973756946532999  0.09484309  0.80847163  -1.59465675
Mo  7.8398487319629995  7.912595763420999  1.5902285613959999  0.14754931  -0.81013135  -0.61162964
Mo  7.870315922066999  7.950037142823  4.692495383033999  -0.00060996  -1.24578883  0.46519751
Mo  7.830823866408  7.9469564033769995  7.972055924753  0.62009417  -0.90359464  -1.24479933
53
Lattice="9.450121 0.0 0.0 0.0 9.450121 0.0 0.0 0.0 9.450121" Properties=species:S:1:pos:R:3:forces:R:3 energy=-571.38293694 stress="35.77023 35.77123 35.8732 -0.00821 0.0759 0.07432 0.07432 0.0759 -0.00821" pbc="T T T"
Mo  9.445329788653  0.000481956171  3.050036002871  0.06472455  0.02695695  0.88933608
Mo  9.446529954019999  9.445821194945  6.393829017027  0.04907193  0.06499735  -0.76808586
Mo  9.448041973379999  3.0560840803109994  9.447739569507998  0.03146076  0.84952878  0.05213457
Mo  9.445556591556999  3.1621522384149996  3.157606730214  0.07707414  -0.28172173  -0.24360813
Mo  9.445991297123  3.1537983314509996  6.285568430851  0.06398917  -0.19741021  0.35873188
Mo  9.445858995428999  6.397212160345  9.447389915031  0.06593439  -0.79378993  0.02567554
Mo  9.442882207314  6.289112226226  3.155310350811  0.10342015  0.34518084  -0.20701288
Mo  9.447229262973998  6.284462766693999  6.285521180246  0.03156123  0.34704546  0.33378442
Mo  3.051585822715  9.448835783543998  9.447938022049  0.87829607  0.04145906  0.03697215
Mo  3.155102448149  9.446284250874  3.1575311292459998  -0.2279864  0.03964697  -0.24112862
Mo  3.1551496987539998  9.444139073407  6.285974786054  -0.2045817  0.09989544  0.36211413
Mo  3.157068073317  3.158693494129  9.446889058618  -0.22302559  -0.25746416  0.05213141
Mo  3.174475196199  3.1712905054219998  3.172830875145  -0.51733864  -0.50484765  -0.50953421
Mo  3.17316162938  3.1735301840989996  6.267405298289  -0.49426102  -0.52207081  0.62416645
Mo  3.1544314895579997  6.286967048758999  9.445273087927  -0.18087644  0.34404711  0.05789611
Mo  3.172018164739  6.264683663441  3.1728214250239994  -0.50791368  0.65682005  -0.49642418
Mo  3.1707045979199995  6.269824529265  6.272083108183999  -0.46263662  0.56308003  0.54200396
Mo  6.3944810753759995  9.444148523528  9.44747496612  -0.76470478  0.06534327  0.04782158
Mo  6.283470503988999  9.444857282603  3.158164287353  0.38263667  0.07944476  -0.23831506
Mo  6.285426679036  9.444460377520999  6.287893160616999  0.36404884  0.08351868  0.32695723
Mo  6.284443866452  3.1557639566189994  9.44700246007  0.37870062  -0.22994168  0.06505513
Mo  6.271100295599999  3.1735112838569997  3.174286193779  0.5812509  -0.50463324  -0.50471343
Mo  6.268671614503  3.171186554091  6.271771254191  0.61154953  -0.4945622  0.56452745
Mo  6.287666357712999  6.283924109797  9.44218289836  0.30482738  0.35313902  0.0877353
Mo  6.267244646231999  6.272016957337  3.172443420184  0.59158048  0.54351337  -0.5091099
Mo  6.267282446716  6.268047906516999  6.266053930986  0.61026013  0.57687404  0.60774611
Mo  1.6009638988519999  1.6068040736299998  1.602693270995  -0.39913196  -0.45787769  -0.42179699
Mo  1.556916884871  1.5539211965139998  4.729530407232999  0.30307563  0.32197294  -0.04980445
Mo  1.6044509935009998  1.6084200443209997  7.857170803755999  -0.4541443  -0.50886814  0.31623868
Mo  1.5572854395899998  4.730484869453999  1.556567230394  0.2856778  -0.0319509  0.30271787
Mo  1.531420458413  4.7249092980639995  4.727347429281999  0.71945046  -0.01003597  -0.04390918
Mo  1.558863609797  4.7297761103789995  7.901217817736999  0.25790166  -0.03417201  -0.41425504
Mo  1.6047628474939999  7.859023027471999  1.599697582638  -0.49070039  0.30440987  -0.39960845
Mo  1.558117050238  7.899932601280999  4.732601696558  0.24487637  -0.4109913  -0.11786622
Mo  1.6066906721779999  7.856594346374999  7.853249003540999  -0.51559998  0.34881364  0.38443704
Mo  4.732544995832  1.551568116385  1.557181488259  -0.09152963  0.34332942  0.30621893
Mo  4.729653258806  1.52969108627  4.729719409653  -0.0675304  0.72823856  -0.05457612
Mo  4.732384343774999  1.558164300843  7.905489272429  -0.08560392  0.24693717  -0.45186514
Mo  4.727092276014999  4.725797609438  1.5308251007899998  -0.03119768  -0.0331247  0.71165808
Mo  4.727536431701999  4.724890397822  4.7245501934659995  -0.06541417  -0.03282492  -0.01905829
Mo  4.729766660258  4.725429054719  7.921856882001  -0.08570522  -0.01598278  -0.80125509
Mo  4.728509794164999  7.896596708568  1.558948660886  -0.04707217  -0.38187376  0.23291228
Mo  4.728075088598999  7.923983159225999  4.727857735815999  -0.08153654  -0.84346972  -0.05676586
Mo  4.730881774535999  7.8974661197  7.893090713676999  -0.0642378  -0.37189632  -0.29099364
Mo  7.855242979071999  1.6086657474669999  1.6066623218149998  0.32685801  -0.50349893  -0.48210737
Mo  7.9052341191619995  1.5618120475489998  4.731552733127  -0.46093932  0.21274274  -0.05338583
Mo  7.856320292866  1.6055472075369999  7.858966326745999  0.3563316  -0.51709246  0.33164569
Mo  7.9012934187049995  4.731325930222999  1.558117050238  -0.42335482  -0.04289539  0.25297467
Mo  7.923954808863  4.728566494891  4.726430767544999  -0.82792187  -0.04198336  -0.02750494
Mo  7.8974661197  4.725948811374  7.896549457962999  -0.34638595  -0.00906743  -0.35256717
Mo  7.852965499911  7.854165665278  1.605660608989  0.37827966  0.38483488  -0.51939016
Mo  7.894536582189999  7.8984111318  4.727574232186  -0.31154137  -0.3538713  -0.03553973
Mo  7.854846073989999  7.849402804293999  7.8485522934039995  0.37003422  0.41614826  0.43658922
53
Lattice="9.450121 0.0 0.0 0.0 9.450121 0.0 0.0 0.0 9.450121" Properties=species:S:1:pos:R:3:forces:R:3 energy=-569.03997738 stress="49.62924 49.54159 48.43593 -4.45958 2.21301 -1.60498 -1.60498 2.21301 -4.45958" pbc="T T T"
Mo  0.051833913684999997  9.44388392014  3.138791539303  -0.34030596  0.21957338  -0.08263492
Mo  9.377052664428  9.42356615999  6.375231178898999  0.99479311  0.29973535  -0.22020762
Mo  0.06839997579799999  3.088894900423  0.09100466522999999  -0.77405576  0.78790099  -1.15931223
Mo  0.087196266467  3.1226507326349995  3.1838780665939996  -1.4975398  0.5828715  -0.24686052
Mo  0.007115941112999999  3.082761771894  6.376223441603999  -0.47883162  0.97072202  -0.08081769
Mo  0.020478412207  6.347712426547  0.052325319977  -0.2137427  0.51725775  -0.82048108
Mo  0.004829011830999999  6.315015007887  3.1349453400559995  -0.35271552  0.25481905  0.3344346
Mo  0.022954343909  6.249062613427999  6.330598257416  -0.15707103  0.70581705  -0.47592124
Mo  3.2453038530939997  9.389876478624998  0.013182918794999998  -1.44283151  0.66883653  -0.0554434
Mo  3.258297769469  9.357472013715999  3.253223054492  -1.64155976  1.21270494  -1.16507764
Mo  3.1892362852009994  9.364739156765  6.393318710493  -0.95177305  0.83604557  -0.95292737
Mo  3.2023908536329997  3.0940452163679995  9.411602306804  -0.80996842  0.50713062  0.26896058
Mo  3.165951187057  3.1202409517799996  3.1226318323929996  -0.47879201  -0.2689267  -0.41349496
Mo  3.16512902653  3.121894722955  6.290926649458  -0.64891457  -0.30380747  0.13596458
Mo  3.19773194398  6.268359760509999  9.416913274806  -0.59113345  0.72007237  0.29567983
Mo  3.1806461252119997  6.263096043113  3.1717252109879994  -0.83855746  0.57231102  -1.06526383
Mo  3.1753446073309997  6.165136088827  6.2609697658879995  -0.48802069  1.72294175  0.18688281
Mo  6.427821102264  0.054895752889  0.056587324548  -0.96327642  -0.39267136  -0.86337235
Mo  6.381335957065  9.375398893253  3.157616180335  -0.80044562  1.22916673  -0.42667574
Mo  6.337638597561  9.3830251409  6.262226631980999  -0.73196699  0.74461979  0.6947622
Mo  6.314126696512999  3.1749193518859995  9.410364340953  0.10941442  -0.4577209  0.60236454
Mo  6.303835514744  3.124465155867  3.160734720265  0.20411218  0.01901098  -0.5619872
Mo  6.272347711571999  3.1220553750119997  6.353013944428  0.56023048  -0.19174902  -0.88926795
Mo  6.3674442791949994  6.227582488395  9.446690606076999  -0.96419195  1.91751338  0.18728053
Mo  6.291096751635999  6.307171407457  3.193932995338  0.18618674  -0.142573  -0.96792379
Mo  6.360706342921999  6.216525846824999  6.333376592989999  -0.71259376  1.45263594  -0.63202477
Mo  1.5140794863779998  1.543025207001  1.550916058036  1.11949439  0.05407826  0.45158892
Mo  1.3983060540069998  1.6521930047929998  4.792713916239  2.36803602  -1.27656852  -0.2839848
Mo  1.5389238544869999  1.551700418079  7.946928053013999  0.47103991  -0.02987499  -0.44612023
Mo  1.440973350322  4.848998836914999  1.5753351706999998  1.97085205  -1.19648047  0.08547505
Mo  1.565960650668  4.707653377118  4.667197409117  -0.29260407  0.20064203  0.82928625
Mo  1.5728119883929998  4.814269642239999  7.914684240161999  0.20939114  -1.37095334  -0.43717785
Mo  1.5572854395899998  7.983660673341  1.5341893438659997  0.23830699  -0.78350447  0.14845848
Mo  1.514013335531  7.9031267421789995  4.710176559424999  0.8090953  -0.55680596  0.3407158
Mo  1.4907754879919999  7.888233351483  7.813813648608  0.67652393  -0.00219906  0.83580741
Mo  4.669843442997  1.5200425127289998  1.4950091422  0.99369187  0.89930905  1.29720305
Mo  4.667669915167  1.5803720851929999  4.690047801694999  0.60534121  -0.27617368  0.54098832
Mo  4.717179099086  1.5903419628479998  7.885077011069  0.27868078  -0.09113573  -0.52744188
Mo  4.677431890159999  4.719371527158  1.4674431392429998  0.30791132  -0.12886067  0.9045948
Mo  4.646643395941999  4.719815682845  4.60665048387  1.19391919  -0.44474414  1.14645607
Mo  4.755688342161  4.779115192119999  7.802029347721  -0.46277872  -0.98224306  0.53996259
Mo  4.703448073273  7.929086224565999  1.541995143812  0.66423732  -1.3254929  0.43195902
Mo  4.700518535763  7.866583124271999  4.697806351035999  0.58916943  -0.49887795  0.74247883
Mo  4.677753194274  7.927678156537  7.863644136641  0.99912058  -1.14571308  -0.1634012
Mo  7.948865327818999  1.64602207578  1.5715740225419998  -0.80671914  -0.45058258  0.44791612
Mo  7.864211143900999  1.4983544850339998  4.6987797134989995  -0.56790818  1.48330662  0.48648459
Mo  7.862812525992999  1.6155548856759998  7.9364195184619994  0.15570784  0.05231034  -0.49279467
Mo  7.827667525993999  4.774163328715999  1.4812592161449998  0.25146223  -0.42354888  1.64696093
Mo  7.824917540782999  4.7667355336099995  4.726364616698  0.67883229  -0.87671598  -0.14793862
Mo  7.874256622523999  4.849206739576999  7.90795575401  0.56603712  -1.69782042  -0.61778154
Mo  7.861773012682999  7.970222601279  1.5510294594879999  0.58205643  -0.79783799  0.27166843
Mo  7.875239435107999  7.962577453389999  4.708173133773  -0.00767331  -1.81838831  0.26942893
Mo  7.852530794345  7.965998397192  7.898940338576  0.2323272  -0.69936238  0.07257182
53
Lattice="9.450121 0.0 0.0 0.0 9.450121 0.0 0.0 0.0 9.450121" Properties=species:S:1:pos:R:3:forces:R:3 energy=-570.81925051 stress="42.88549 42.87308 42.66952 1.55388 1.65688 1.79684 1.79684 1.65688 1.55388" pbc="T T T"
Mo  1.8900241999999997e-5  9.447749019628999  3.118303676975  -0.04832287  -0.01660007  0.51357452
Mo  9.436815229632  9.438109896209  6.361812007078999  0.18241168  0.15643591  -0.0314507
Mo  9.447909671686  3.1265725328499996  9.446501603657  -0.05695603  0.44115035  -0.02068743
Mo  9.418368593439999  3.1027960284139997  3.0961053427459997  0.2358954  0.68244379  0.75707908
Mo  9.407160749933999  3.138999441965  6.277979983688  0.38459491  0.27906412  0.41095851
Mo  9.439735317021  6.359109272472999  9.439168309761  0.12049997  -0.00524561  0.1431098
Mo  9.405506978759  6.278802144215  3.138441884826  0.39930419  0.40283675  0.31341986
Mo  9.433573838129  6.280389764543  6.283092499149  0.12795297  0.36034298  0.31845764
Mo  3.120250401901  9.443014509008  9.444441477279  0.50573622  -0.02770114  -0.04781679
Mo  3.104204096443  9.418812749127  3.0953965836709996  0.67019912  0.11767458  0.77406392
Mo  3.1394152472889996  9.422507746437999  6.278065034776999  0.27190682  0.11249231  0.44654092
Mo  3.1065477264509997  3.0997814398149997  9.41874659828  0.65076603  0.71260567  0.11771589
Mo  3.147599052075  3.1322993061759994  3.132365457023  -0.03033171  0.16035145  0.16602426
Mo  3.102134519944  3.099101031103  6.236210448868  0.52267621  0.61699327  1.09111181
Mo  3.1391978945059997  6.2755513025909995  9.419341955903  0.31369699  0.4608367  0.14396684
Mo  3.099384534733  6.237127110604999  3.098921478804  0.55537097  1.04643405  0.63907636
Mo  3.1292941676979997  6.260393308507  6.263861502914  0.27419718  0.49989023  0.46868699
Mo  6.357209798152  9.429255132832  9.432458723851  0.05564972  0.20187315  0.15092138
Mo  6.277611428969  9.419606559291  3.1313259437129997  0.41474617  0.18058183  0.41933222
Mo  6.287590756744999  9.443676017478  6.282430990679  0.31156394  -0.07267897  0.35385199
Mo  6.2744361883129995  3.1389332911179997  9.419152953483  0.46645973  0.3059088  0.17297715
Mo  6.249998175407  3.097721313437  3.096445547102  0.84884345  0.66731935  0.67555018
Mo  6.267395848167999  3.130324230887  6.262755838756999  0.33130562  0.32414396  0.47369145
Mo  6.2890177250159995  6.281457628215999  9.441048883839999  0.28915385  0.38393373  -0.07244423
Mo  6.2661956828009995  6.266337434616  3.130465982702  0.32816978  0.42678193  0.33649856
Mo  6.275929307430999  6.26769825204  6.2663752351  0.14122046  0.33294729  0.32933587
Mo  1.6609060163549998  1.6484224065139998  1.6408056089879999  -1.12488693  -0.94144062  -0.84852314
Mo  1.584662440127  1.5772157447789998  4.798535190775  -0.30407581  -0.16574122  -1.05584301
Mo  1.608060939723  1.606747372904  7.876477400958999  -0.51585033  -0.48828916  0.40110115
Mo  1.5836323769379999  4.794877993947999  1.5764880854619998  -0.29770908  -0.99748864  -0.1154973
Mo  1.546162647173  4.746039768619999  4.751624790130999  0.15526145  -0.51181699  -0.57121462
Mo  1.548818131174  4.797902032668  7.901113866405999  0.20873737  -0.97080992  -0.33200798
Mo  1.6165093478969998  7.868785002465  1.6028728232939997  -0.62294106  0.47917074  -0.43213777
Mo  1.552116223403  7.892514256296  4.802948397281999  0.13506395  -0.22454556  -1.01931319
Mo  1.6310152836319998  7.891351891413  7.894442080979999  -0.671334  0.241823  0.21366312
Mo  4.789028369049  1.5792664210359997  1.5842938854079998  -0.86446623  -0.24038016  -0.29011229
Mo  4.746880829389  1.5541574495389998  4.750074970286999  -0.44853343  0.10782822  -0.52362497
Mo  4.801493078648  1.557994198665  7.897825224297999  -0.97130778  0.08248624  -0.26810954
Mo  4.744300946356  4.747655739311  1.5549418095819998  -0.42519035  -0.49671521  0.10577405
Mo  4.738413520972999  4.747391135922999  4.745227058214  -0.38718767  -0.50118656  -0.47590459
Mo  4.710346661603  4.714778768352  7.929700482431  -0.08548004  -0.1401615  -0.86039359
Mo  4.800614217394999  7.889906022899999  1.5591471134269999  -0.95882583  -0.19945718  0.04856572
Mo  4.70587675437  7.931250302274999  4.714514164963999  -0.04067452  -0.84806486  -0.14986577