LAMMPS (24 Dec 2020)
Reading data file ...
  orthogonal box = (-50.000000 -50.000000 -50.000000) to (50.000000 50.000000 50.000000)
  1 by 1 by 1 MPI processor grid
  reading atoms ...
  160 atoms
  scanning bonds ...
  1 = max bonds/atom
  reading bonds ...
  79 bonds
Finding 1-2 1-3 1-4 neighbors ...
  special bond factors lj:    0        0        0       
  special bond factors coul:  0        0        0       
     2 = max # of 1-2 neighbors
     2 = max # of 1-3 neighbors
     4 = max # of 1-4 neighbors
     6 = max # of special neighbors
  special bonds CPU = 0.000 seconds
  read_data CPU = 0.004 seconds
PPPM initialization ...
  using 12-bit tables for long-range coulomb (../kspace.cpp:339)
  G vector (1/distance) = 0.077106934
  grid = 8 8 8
  stencil order = 5
  estimated absolute RMS force accuracy = 0.00074388331
  estimated relative force accuracy = 0.00074388331
  using double precision KISS FFT
  3d grid and FFT values/proc = 2197 512
0 atoms in group Fix_CR:exclusion_group:chareg1
0 atoms in group Fix_CR:exclusion_group:chareg2
0 atoms in group Fix_CR:exclusion_group:chareg3
WARNING: Neighbor exclusions used with KSpace solver may give inconsistent Coulombic energies (../neighbor.cpp:486)
Neighbor list info ...
  update every 1 steps, delay 10 steps, check yes
  max neighbors/atom: 2000, page size: 100000
  master list distance cutoff = 23
  ghost atom cutoff = 23
  binsize = 11.5, bins = 9 9 9
  1 neighbor lists, perpetual/occasional/extra = 1 0 0
  (1) pair lj/cut/coul/long, perpetual
      attributes: half, newton on
      pair build: half/bin/newton
      stencil: half/bin/3d/newton
      bin: standard
Setting up Verlet run ...
  Unit style    : lj
  Current step  : 0
  Time step     : 0.005
Per MPI rank memory allocation (min/avg/max) = 6.962 | 6.962 | 6.962 Mbytes
Step PotEng c_dtemp f_chareg1[3] f_chareg1[4] f_chareg1[7] f_chareg1[8] f_chareg2[7] f_chareg2[8] 
       0   0.49903297            1            0           80           80            0            0            0 
     100   0.63380666   0.87307225            8           72           77            6            1            0 
     200    0.5865464    1.0048645           16           64           81           16            0            1 
     300   0.55802913    1.0499142           19           61           91           29            0            1 
     400   0.44734087    1.0838048           24           56           98           41            0            1 
     500   0.47010775     1.005226           23           57          106           48            0            1 
     600    0.3452105   0.97814306           28           52          109           56            0            1 
     700   0.29208955   0.99766419           32           48          115           67            0            0 
     800   0.27821915    1.0091641           31           49          128           80            1            0 
     900   0.28943788   0.93619239           26           54          145           91            0            0 
    1000   0.22963142    1.0162138           27           53          150           97            0            0 
    1100   0.24238916   0.99146577           31           49          149          100            0            0 
    1200   0.17029095    1.0406453           38           42          144          102            0            0 
    1300   0.15830969   0.94661447           34           46          155          109            0            0 
    1400   0.16698712    1.0116563           35           45          159          114            0            0 
    1500   0.15432936   0.95600941           36           44          162          118            0            0 
    1600   0.16973501   0.98326602           31           49          171          122            0            0 
    1700   0.19725116    0.9915273           33           47          175          128            0            0 
    1800   0.15278999    1.0304873           29           51          193          142            0            0 
    1900   0.17418479   0.99490216           30           50          194          144            0            0 
    2000   0.14238391    0.9638301           32           48          189          141            0            0 
    2100   0.13054378   0.97164976           32           48          192          144            0            0 
    2200  0.092083069    1.0112059           40           40          191          151            0            0 
    2300  0.085175091    1.0070667           39           41          200          159            0            0 
    2400  0.083367076    0.9934796           35           45          208          163            0            0 
    2500   0.11494744   0.97650855           31           49          220          172            1            0 
    2600   0.10796032   0.97047046           34           46          221          175            0            0 
    2700   0.11080141   0.93570013           36           44          223          179            0            0 
    2800  0.096699277   0.97702627           35           45          223          178            0            0 
    2900  0.079403783    1.0870961           32           48          229          181            0            0 
    3000   0.08288836    1.0642515           35           45          231          186            0            0 
    3100  0.094000833    1.0241111           38           42          229          187            0            0 
    3200   0.10011052     1.043594           34           46          235          189            0            0 
    3300  0.096782103   0.99549134           34           46          234          188            0            0 
    3400  0.057703946      1.00292           34           46          236          190            0            0 
    3500  0.074345642   0.95064523           36           44          234          190            0            0 
    3600  0.085872341    0.9759514           35           45          238          192            0            1 
    3700  0.086427565   0.99843063           35           45          240          194            0            1 
    3800  0.076091357   0.98516844           32           48          252          203            0            1 
    3900  0.047187813    1.0063336           37           43          247          204            0            0 
    4000  0.068269223    1.0390369           35           45          248          203            0            0 
    4100  0.074209582   0.99912762           36           44          249          205            0            0 
    4200  0.087016078     1.050265           36           44          246          202            0            0 
    4300  0.081325479    1.0417103           35           45          245          200            0            0 
    4400  0.047345973   0.96517298           39           41          243          202            0            0 
    4500  0.041856955   0.94569673           38           42          245          203            0            0 
    4600  0.049588267   0.99046371           42           38          249          211            0            0 
    4700  0.043079897    1.0098538           43           37          245          208            0            0 
    4800  0.049122913    1.0229995           41           39          247          208            0            0 
    4900  0.059151797    1.0236679           36           44          249          205            0            0 
    5000  0.053806841    1.0308397           42           38          243          205            0            0 
    5100  0.053623833    1.0638841           39           41          246          205            0            0 
    5200  0.086215806    1.0027613           37           43          243          200            0            0 
    5300  0.031422797    1.0338154           38           42          245          203            0            0 
    5400  0.051341116   0.92205149           34           46          246          200            0            0 
    5500  0.039292708   0.97530704           32           48          251          203            0            0 
    5600  0.035215415     1.023123           33           47          246          199            0            0 
    5700  0.054553598   0.95833063           30           50          253          203            0            0 
    5800  0.035699456    1.0721613           37           43          248          205            0            0 
    5900  0.062426908    1.0612245           38           42          252          210            0            0 
    6000  0.056362902    1.0002968           36           44          248          204            0            0 
    6100  0.061550208   0.97270904           38           42          245          203            0            0 
    6200  0.051825485   0.98187623           36           44          253          209            0            0 
    6300  0.052137885   0.98906723           36           44          253          210            1            0 
    6400  0.068218075    1.0511584           36           44          256          212            0            0 
    6500  0.080167413   0.97270144           36           44          252          208            0            0 
    6600  0.052169204    1.0160108           41           39          249          210            0            0 
    6700  0.057313326   0.98033894           38           42          251          209            0            0 
    6800  0.073008094   0.96239565           35           45          256          211            0            0 
    6900  0.060159599    1.0063892           37           43          264          221            0            0 
    7000  0.061738744    1.0031443           39           41          259          218            0            0 
    7100  0.043263424    1.0425248           44           36          255          219            0            0 
    7200  0.052179167   0.99512151           39           41          261          220            0            0 
    7300  0.053258707    1.0171204           43           37          256          219            0            0 
    7400  0.026037532   0.93786837           45           35          259          224            0            0 
    7500  0.029731213    1.0172281           46           34          250          216            0            0 
    7600  0.023118288   0.95628439           42           38          262          224            0            0 
    7700  0.037021854   0.99991854           42           38          263          225            0            0 
    7800  0.050404736    1.0130826           40           40          260          220            0            0 
    7900  0.035658921   0.95772506           40           40          259          219            0            0 
    8000  0.034426806    1.0028052           40           40          254          214            0            0 
    8100  0.041427611    1.0347682           40           40          256          216            0            0 
    8200   0.05986843    0.9804614           38           42          262          220            0            0 
    8300  0.041419023    1.0613186           37           43          264          221            0            0 
    8400  0.065701758    1.0511531           40           40          256          216            0            0 
    8500  0.091954526   0.97190676           37           43          257          214            0            0 
    8600  0.056982532     1.017813           35           45          252          207            0            0 
    8700  0.075615111    1.0148527           29           51          263          212            0            0 
    8800  0.066070082    1.0259454           33           47          260          213            0            0 
    8900  0.055054194    1.0183535           37           43          247          204            0            0 
    9000  0.063070816    1.0266115           39           41          244          203            0            0 
    9100   0.10174156   0.99457684           34           46          246          200            0            0 
    9200  0.071667261     1.033159           33           47          249          202            0            0 
    9300   0.05520096   0.99821492           38           42          243          201            0            0 
    9400  0.050355422   0.99148522           37           43          243          200            0            0 
    9500  0.062314961    1.0042937           36           44          252          208            0            0 
    9600  0.061148899    1.0052132           37           43          254          211            0            0 
    9700  0.078695273    1.0175164           37           43          252          209            0            0 
    9800  0.067487202    1.0110138           35           45          258          213            0            0 
    9900  0.070340779   0.99640142           31           49          263          214            0            0 
   10000  0.037252172   0.99863894           32           48          259          211            0            0 
Loop time of 23.0419 on 1 procs for 10000 steps with 550 atoms

Performance: 187484.206 tau/day, 433.991 timesteps/s
100.0% CPU use with 1 MPI tasks x no OpenMP threads

MPI task timing breakdown:
Section |  min time  |  avg time  |  max time  |%varavg| %total
---------------------------------------------------------------
Pair    | 2.5444     | 2.5444     | 2.5444     |   0.0 | 11.04
Bond    | 0.025075   | 0.025075   | 0.025075   |   0.0 |  0.11
Kspace  | 4.7385     | 4.7385     | 4.7385     |   0.0 | 20.56
Neigh   | 0.2058     | 0.2058     | 0.2058     |   0.0 |  0.89
Comm    | 0.073087   | 0.073087   | 0.073087   |   0.0 |  0.32
Output  | 0.003464   | 0.003464   | 0.003464   |   0.0 |  0.02
Modify  | 15.417     | 15.417     | 15.417     |   0.0 | 66.91
Other   |            | 0.03479    |            |       |  0.15

Nlocal:        550.000 ave         550 max         550 min
Histogram: 1 0 0 0 0 0 0 0 0 0
Nghost:        1023.00 ave        1023 max        1023 min
Histogram: 1 0 0 0 0 0 0 0 0 0
Neighs:        9644.00 ave        9644 max        9644 min
Histogram: 1 0 0 0 0 0 0 0 0 0

Total # of neighbors = 9644
Ave neighs/atom = 17.534545
Ave special neighs/atom = 0.85090909
Neighbor list builds = 7576
Dangerous builds = 0
Total wall time: 0:00:23