LAMMPS data file for SiO2 zeolite with one methane moleclue

77 atoms
4 atom types
-5.9266 5.9926 xlo xhi
-5.9266 5.9926 ylo yhi
-5.9266 5.9926 zlo zhi

Masses

1  28.0855
2  15.999
3  12.011
4  1.008

Atoms

1 1    1.910418    0.00000    4.38651    2.18123
2 1    1.910418    0.00000   -4.38651    2.18123
3 1    1.910418    0.00000    4.38651   -2.18123
4 1    1.910418    0.00000   -4.38651   -2.18123
5 1    1.910418    2.18123    0.00000    4.38651
6 1    1.910418    2.18123    0.00000   -4.38651
7 1    1.910418   -2.18123    0.00000    4.38651
8 1    1.910418   -2.18123    0.00000   -4.38651
9 1    1.910418    4.38651    2.18123    0.00000
10 1   1.910418   -4.38651    2.18123    0.00000
11 1   1.910418    4.38651   -2.18123    0.00000
12 1   1.910418   -4.38651   -2.18123    0.00000
13 1   1.910418    4.38651    0.00000   -2.18123
14 1   1.910418   -4.38651    0.00000   -2.18123
15 1   1.910418    4.38651    0.00000    2.18123
16 1   1.910418   -4.38651    0.00000    2.18123
17 1   1.910418    0.00000    2.18123   -4.38651
18 1   1.910418    0.00000    2.18123    4.38651
19 1   1.910418    0.00000   -2.18123   -4.38651
20 1   1.910418    0.00000   -2.18123    4.38651
21 1   1.910418    2.18123    4.38651    0.00000
22 1   1.910418    2.18123   -4.38651    0.00000
23 1   1.910418   -2.18123    4.38651    0.00000
24 1   1.910418   -2.18123   -4.38651    0.00000
25 2   0.955209    0.00000   -5.92660    2.64860
26 2   0.955209    0.00000   -5.92660   -2.64860
27 2   0.955209    2.64860    0.00000   -5.92660
28 2   0.955209   -2.64860    0.00000   -5.92660
29 2   0.955209   -5.92660    2.64860    0.00000
30 2   0.955209   -5.92660   -2.64860    0.00000
31 2   0.955209   -5.92660    0.00000   -2.64860
32 2   0.955209   -5.92660    0.00000    2.64860
33 2   0.955209    0.00000    2.64860   -5.92660
34 2   0.955209    0.00000   -2.64860   -5.92660
35 2   0.955209    2.64860   -5.92660    0.00000
36 2   0.955209   -2.64860   -5.92660    0.00000
37 2   0.955209    0.00000    3.45272    3.45272
38 2   0.955209    0.00000   -3.45272    3.45272
39 2   0.955209    0.00000    3.45272   -3.45272
40 2   0.955209    0.00000   -3.45272   -3.45272
41 2   0.955209    3.45272    0.00000    3.45272
42 2   0.955209    3.45272    0.00000   -3.45272
43 2   0.955209   -3.45272    0.00000    3.45272
44 2   0.955209   -3.45272    0.00000   -3.45272
45 2   0.955209    3.45272    3.45272    0.00000
46 2   0.955209   -3.45272    3.45272    0.00000
47 2   0.955209    3.45272   -3.45272    0.00000
48 2   0.955209   -3.45272   -3.45272    0.00000
49 2   0.955209    1.28702    1.28702    4.12598
50 2   0.955209   -1.28702   -1.28702    4.12598
51 2   0.955209   -1.28702    1.28702   -4.12598
52 2   0.955209    1.28702   -1.28702   -4.12598
53 2   0.955209    4.12598    1.28702    1.28702
54 2   0.955209    4.12598   -1.28702   -1.28702
55 2   0.955209   -4.12598   -1.28702    1.28702
56 2   0.955209   -4.12598    1.28702   -1.28702
57 2   0.955209    1.28702    4.12598    1.28702
58 2   0.955209   -1.28702    4.12598   -1.28702
59 2   0.955209    1.28702   -4.12598   -1.28702
60 2   0.955209   -1.28702   -4.12598    1.28702
61 2   0.955209    1.28702    1.28702   -4.12598
62 2   0.955209   -1.28702   -1.28702   -4.12598
63 2   0.955209    1.28702   -1.28702    4.12598
64 2   0.955209   -1.28702    1.28702    4.12598
65 2   0.955209    1.28702    4.12598   -1.28702
66 2   0.955209   -1.28702    4.12598    1.28702
67 2   0.955209   -1.28702   -4.12598   -1.28702
68 2   0.955209    1.28702   -4.12598    1.28702
69 2   0.955209    4.12598    1.28702   -1.28702
70 2   0.955209    4.12598   -1.28702    1.28702
71 2   0.955209   -4.12598    1.28702    1.28702
72 2   0.955209   -4.12598   -1.28702   -1.28702
73 3  -0.66        0.00000    0.00000    0.00000
74 4   0.165       0.00000   -0.89000   -0.62930
75 4   0.165       0.00000    0.89000   -0.62930
76 4   0.165      -0.89000    0.00000    0.62930
77 4   0.165       0.89000    0.00000    0.62930
