LAMMPS data file from VASP file POSCAR/POSCAR_bcc

2 atoms
1 atom types
0.0 3.16540624294 xlo xhi
0.0 3.16540624294 ylo yhi
0.0 3.16540624294 zlo zhi

Atoms

1 1 0.0000000000000000 0.0000000000000000 0.0000000000000000
2 1 1.5827031214696532 1.5827031214696532 1.5827031214696532
