LAMMPS data file for water dimer in large box

6 atoms
2 bonds
1 angles
2 atom types
1 bond types
1 angle types
-5.0 5.0 xlo xhi
-5.0 5.0 ylo yhi
-5.0 5.0 zlo zhi

Masses

1 15.9994
2 1.008

Bond Coeffs

1 1.0 1.0

Angle Coeffs

1 1.0 109.47

Atoms

1 1 1 -0.8476   0.13513   -0.05627    0.09445
2 1 2  0.4238   0.79058    0.37197   -0.48187
3 1 2  0.4238  -0.33549   -0.65246   -0.50563
4 2 1 -0.8476   0.02105    0.48666    2.81228
5 2 2  0.4238  -0.73085    1.07786    2.68447
6 2 2  0.4238   0.21349    0.19973    1.90016

Bonds

1 1 1 2
2 1 1 3

Angles

1 1 2 1 3
