ITEM: TIMESTEP
0
ITEM: NUMBER OF ATOMS
6
ITEM: BOX BOUNDS pp pp pp
-5.0000000000000000e+00 5.0000000000000000e+00
-5.0000000000000000e+00 5.0000000000000000e+00
-5.0000000000000000e+00 5.0000000000000000e+00
ITEM: ATOMS id x y z q fx fy fz
1              0.13513             -0.05627  0.09445000000000001              -0.8476   -1.074376566237102    7.775620147251701    32.74789761345844
2   0.7905799999999999              0.37197             -0.48187               0.4238    25.94873654857489    19.31453682620071   -13.87391819287413
3             -0.33549             -0.65246             -0.50563               0.4238   -23.80832788385925   -26.68732066152253   -17.11667939056418
4              0.02105              0.48666              2.81228  -0.7165609912813125   -33.89757500043049   -2.843726477001624   -222.2096895143923
5             -0.73085              1.07786              2.68447    0.310552091167402    65.17859326258946   -49.45629842466482    25.59884254529721
6              0.21349              0.19973              1.90016   0.4060089001086453   -32.30547162790906    52.41206799911859    195.4849464125021
ITEM: TIMESTEP
1
ITEM: NUMBER OF ATOMS
6
ITEM: BOX BOUNDS pp pp pp
-5.0000000000000000e+00 5.0000000000000000e+00
-5.0000000000000000e+00 5.0000000000000000e+00
-5.0000000000000000e+00 5.0000000000000000e+00
ITEM: ATOMS id x y z q fx fy fz
1   0.1351480312055195 -0.05638465922994114  0.09389523003664448              -0.8476   0.9464101677501198    10.86072279787933    36.95596312477461
2   0.7904489771469668   0.3709375838207992  -0.4816178015540499               0.4238    26.68434818644981    19.74894918606937    -14.5505764067481
3  -0.3331894490537472   -0.649644385263153  -0.5026165970341778               0.4238   -26.57715430996567    -30.1928292551364   -20.63766039447113
4  0.02098194858935452   0.4866824077003633    2.812650772346396  -0.7158903269109942   -33.96166128102556   -2.892152375873593   -222.6338323791952
5  -0.7315502071339608    1.076370512387868    2.684652154634838    0.310453731544257    64.92811538121195   -49.01274234799689    25.71359159166838
6   0.2128147070691149   0.2009016127152524    1.899634041930052   0.4054365953534216   -31.89216186864425    51.88389059233826    195.3637739667303
ITEM: TIMESTEP
2
ITEM: NUMBER OF ATOMS
6
ITEM: BOX BOUNDS pp pp pp
-5.0000000000000000e+00 5.0000000000000000e+00
-5.0000000000000000e+00 5.0000000000000000e+00
-5.0000000000000000e+00 5.0000000000000000e+00
ITEM: ATOMS id x y z q fx fy fz
1    0.135166309906579 -0.05649647827436386  0.09335012442005844              -0.8476     2.97394151941178    13.89091902276002    40.91225027175416
2   0.7904287155169544   0.3699871414544844  -0.4814259995482604               0.4238    27.30385582176397    20.10373724902484   -15.12806814857862
3  -0.3309992143908531  -0.6469540947302695  -0.4996888567380826               0.4238   -29.23943391558434   -33.56607747537944   -24.02349518654967
4   0.0209050158712356    0.486704059074518    2.812963323762344  -0.7154562153996267   -34.00426737320441   -2.935217504151385   -222.4736337150892
5  -0.7319809110588569    1.074677582996003    2.684941041082386    0.310405956506898    64.42757169636158   -48.45285868074928    25.87576873615096
6    0.212007036355244   0.2022885847541399    1.899918998572627   0.4050502588906966   -31.42513496086435    51.31390901437108    194.9991501920067
ITEM: TIMESTEP
3
ITEM: NUMBER OF ATOMS
6
ITEM: BOX BOUNDS pp pp pp
-5.0000000000000000e+00 5.0000000000000000e+00
-5.0000000000000000e+00 5.0000000000000000e+00
-5.0000000000000000e+00 5.0000000000000000e+00
ITEM: ATOMS id x y z q fx fy fz
1   0.1351853663225101 -0.05660466470723944  0.09281571775812857              -0.8476    4.997091258260032    16.85104047717028    44.59228674738972
2   0.7905217865583216   0.3691201455530946  -0.4812969910316866               0.4238    27.80414068743986    20.37708864243536   -15.60265122835333
3  -0.3289303465846007  -0.6444031300586437  -0.4968608330132711               0.4238   -31.78164355132247   -36.79032044793349   -27.25646009684141
4  0.02081919070373232    0.486724942860511    2.813217696141366  -0.7152412364648626   -33.83455956072596   -3.009865765514245   -222.0194767216375
5  -0.7321441894282372    1.072783535785976    2.685337332506506   0.3104977145404035    63.75092793102189   -47.73028657347207    26.04588159086754
6   0.2110689263907107   0.2038885502407476    1.901013356449676   0.4047435219281397   -30.84799573344657    50.62085363644125    194.3545902919956
ITEM: TIMESTEP
4
ITEM: NUMBER OF ATOMS
6
ITEM: BOX BOUNDS pp pp pp
-5.0000000000000000e+00 5.0000000000000000e+00
-5.0000000000000000e+00 5.0000000000000000e+00
-5.0000000000000000e+00 5.0000000000000000e+00
ITEM: ATOMS id x y z q fx fy fz
1   0.1352057295268096 -0.05670844442777882  0.09229297241648189              -0.8476    7.006111756590712    19.72655354940141    47.98082082149374
2   0.7907302668503124   0.3683377307418579  -0.4812327459007628               0.4238    28.18291446061527    20.56801639228675    -15.9729055848459
3  -0.3269933978226042  -0.6420048744155338  -0.4941459452299652               0.4238   -34.19146246405499   -39.84987672200557   -30.32103747829732
4   0.0207245174671019   0.4867450395370897    2.813414008249968  -0.7153023983778439   -33.58666516638849   -3.108549705544178   -221.1016170242245
5  -0.7320428508507466    1.070691370005503    2.685841735010556   0.3107413864378614    62.89431594353752   -46.86684235580059    26.22366718199755
6   0.2100027727613558   0.2056986324452135    1.902914440126058   0.4045610119383127    -30.1736939661597     49.8208618330876    193.4469719910383
ITEM: TIMESTEP
5
ITEM: NUMBER OF ATOMS
6
ITEM: BOX BOUNDS pp pp pp
-5.0000000000000000e+00 5.0000000000000000e+00
-5.0000000000000000e+00 5.0000000000000000e+00
-5.0000000000000000e+00 5.0000000000000000e+00
ITEM: ATOMS id x y z q fx fy fz
1   0.1352279248980397 -0.05680706546111459  0.09178277453000877              -0.8476    8.990960875928954    22.50431986815415    51.06790644992675
2   0.7910557286046996   0.3676406895224661  -0.4812348010049209               0.4238    28.43891986452671    20.67593362496953   -16.23875185379756
3  -0.3251983707659056  -0.6397720273876957  -0.4915569138165015               0.4238   -36.45724258409637   -42.73028329295962   -33.20330065289245
4  0.02062106098815946   0.4867643232974361    2.813552500117463  -0.7158964208624639   -33.29459636251961   -3.155100898184205   -220.9263997216513
5  -0.7316804509459838    1.068404669633359    2.686454986545839   0.3112511917553107    61.85942560084274   -45.82194085725896    26.42319166748704
6   0.2088113743546733   0.2077155107666396    1.905618482265494   0.4046452291031528   -29.38949389091375    48.92674046057394     192.378703663555
ITEM: TIMESTEP
6
ITEM: NUMBER OF ATOMS
6
ITEM: BOX BOUNDS pp pp pp
-5.0000000000000000e+00 5.0000000000000000e+00
-5.0000000000000000e+00 5.0000000000000000e+00
-5.0000000000000000e+00 5.0000000000000000e+00
ITEM: ATOMS id x y z q fx fy fz
1   0.1352524714937096 -0.05689980139411396  0.09128593140187487              -0.8476    10.94232314080177    25.16956683668415    53.83689245807515
2   0.7914992344470881   0.3670294698370835  -0.4813042598171661               0.4238    28.57052888023343    20.70059097585272   -16.39891825240036
3  -0.3235546702002405   -0.637716544948435  -0.4891057024525641               0.4238    -38.5678167438225   -45.41698446824105   -35.88883862564697
4  0.02050889764576141   0.4867827819679569    2.813633217564895  -0.7168634532167744   -33.20473609422074   -3.287545121012275   -219.1049469433494
5   -0.731061285330212     1.06592777184005    2.687177915297321   0.3119312572063677    60.65482241818002   -44.63907044578204    26.61975901342406
6   0.2074979862233564   0.2099354738917102    1.909121048706592    0.404932196005575   -28.52175556783151     47.9244871546432    191.0877524821362
ITEM: TIMESTEP
7
ITEM: NUMBER OF ATOMS
6
ITEM: BOX BOUNDS pp pp pp
-5.0000000000000000e+00 5.0000000000000000e+00
-5.0000000000000000e+00 5.0000000000000000e+00
-5.0000000000000000e+00 5.0000000000000000e+00
ITEM: ATOMS id x y z q fx fy fz
1   0.1352798796141878 -0.05698595523855766  0.09080316714907566              -0.8476    12.85065077064967    27.70741643713796    56.26787596130551
2   0.7920613306593448   0.3665041740332855  -0.4814417871551689               0.4238    28.57638067056119    20.64195492376567   -16.45157362362804
3  -0.3220710566834302  -0.6358495790399309  -0.4868034582521186               0.4238   -40.51242994958106   -47.89597018428113   -38.36338609411767
4  0.02038805093924913   0.4868003809131888    2.813656636920026  -0.7179165014008504   -32.74779761289923   -3.455307804570488   -217.8161880636831
5  -0.7301903540626733     1.06326558647657    2.688011337175495   0.3126686372854124    59.25063821954232   -43.35687911689441    26.82329172050334
6   0.2060662101701269   0.2123543616737668    1.913416780977385   0.4052478640996924   -27.55940688947867    46.80454830231662    189.3994582469121
ITEM: TIMESTEP
8
ITEM: NUMBER OF ATOMS
6
ITEM: BOX BOUNDS pp pp pp
-5.0000000000000000e+00 5.0000000000000000e+00
-5.0000000000000000e+00 5.0000000000000000e+00
-5.0000000000000000e+00 5.0000000000000000e+00
ITEM: ATOMS id x y z q fx fy fz
1   0.1353106483058637 -0.05706486332188748  0.09033511749763691              -0.8476    14.70643501946415    30.10669130294304    58.35837499022509
2   0.7927420415310437   0.3660645587249194  -0.4816476015805097               0.4238    28.45718411327404    20.50068661005466   -16.39883381400215
3  -0.3207556019036218  -0.6341814194203532  -0.4846604525510851               0.4238   -42.28170341556381   -50.15572222554101    -40.6166380181694
4  0.02025864036251652   0.4868170762615451    2.813623095205942  -0.7193903332345144   -32.10473118182461   -3.647054113763524    -215.775331363584
5  -0.7290734856222236    1.060423435654545    2.688956097002628    0.313594868246831    57.65078213372867   -41.90032169451256    27.03803844857763
6   0.2045200407057683   0.2149675254777321    1.918498671316881   0.4057954649733801   -26.47174654542428    45.54137806377848     187.382779986351
ITEM: TIMESTEP
9
ITEM: NUMBER OF ATOMS
6
ITEM: BOX BOUNDS pp pp pp
-5.0000000000000000e+00 5.0000000000000000e+00
-5.0000000000000000e+00 5.0000000000000000e+00
-5.0000000000000000e+00 5.0000000000000000e+00
ITEM: ATOMS id x y z q fx fy fz
1   0.1353452628745173 -0.05713589821019727  0.08988232913355539              -0.8476    16.50043372268647    32.35572799025297    60.10181887186737
2   0.7935408723018716   0.3657100375363656  -0.4819214841811216               0.4238    28.21370023865934    20.27771767161922   -16.24209143518955
3  -0.3196156497498839  -0.6327214458541266   -0.482686038133243               0.4238   -43.86683917774489   -52.18520341836866   -42.63842722229511
4  0.02012083408374158   0.4868328178694853    2.813533126126683  -0.7213918789807394   -30.84559641414499   -3.894468453333694   -212.9187395799696
5  -0.7277173206813458    1.057407365243276    2.690013086148077   0.3147493846974498    55.90055299552836   -40.32652417610932    27.27842304223709
6   0.2028639924839308   0.2177697221446006    1.924358348909762   0.4066424942557205   -25.27287850246601    44.15353537666491    185.0778438582082
ITEM: TIMESTEP
10
ITEM: NUMBER OF ATOMS
6
ITEM: BOX BOUNDS pp pp pp
-5.0000000000000000e+00 5.0000000000000000e+00
-5.0000000000000000e+00 5.0000000000000000e+00
-5.0000000000000000e+00 5.0000000000000000e+00
ITEM: ATOMS id x y z q fx fy fz
1   0.1353841924684026 -0.05719847175833792  0.08944525798450338              -0.8476     18.2237990621899    34.44051715411248     61.4779678499398
2    0.794456812320508   0.3654396849695702  -0.4822627843517339               0.4238     27.8458484947416    19.97406316274053   -15.97988985196052
3  -0.3186577797936735  -0.6314780822989001  -0.4808886070283833               0.4238   -45.25927115444335   -53.97297817218489   -44.41696910253295
4   0.0199749613790139   0.4868475410357336    2.813387476709016  -0.7234133340084554     -30.212223174083   -4.043039961756364    -210.020363285073
5  -0.7261291240800334    1.054223907751509    2.691183302398685   0.3159388914728964     53.8942099612977   -38.58625395062034    27.51239503097361
6   0.2011030417584749   0.2207551910257586    1.930986246441782   0.4074744425552126   -23.92049054956204     42.5778951423754    182.1718621424048
ITEM: TIMESTEP
11
ITEM: NUMBER OF ATOMS
6
ITEM: BOX BOUNDS pp pp pp
-5.0000000000000000e+00 5.0000000000000000e+00
-5.0000000000000000e+00 5.0000000000000000e+00
-5.0000000000000000e+00 5.0000000000000000e+00
ITEM: ATOMS id x y z q fx fy fz
1   0.1354278877644562 -0.05725203877349837  0.08902426392693402              -0.8476    19.86795520076523    36.35184077772284     62.4892394175771
2   0.7954883347102697   0.3652522406173259  -0.4826704137476797               0.4238    27.35603777151941    19.59154118429749   -15.61584038764667
3  -0.3178877717327981  -0.6304587494387706  -0.4792755415968499               0.4238   -46.45218920799543   -55.51073029433125   -45.94557401165115
4  0.01982118788164699   0.4868612069073833    2.813186904906764  -0.7257506588048273   -29.42496175506287   -4.159110577221433   -206.4606262815516
5  -0.7243172237342138    1.050880286681846    2.692467716923898    0.317266601694028    51.65994962329754   -36.66837118767243    27.75220698509612
6   0.1992428020127285   0.2239173919637261    1.938370301782486   0.4084840571067616   -22.39828426647732    40.79580611446806    178.6881339871688
ITEM: TIMESTEP
12
ITEM: NUMBER OF ATOMS
6
ITEM: BOX BOUNDS pp pp pp
-5.0000000000000000e+00 5.0000000000000000e+00
-5.0000000000000000e+00 5.0000000000000000e+00
-5.0000000000000000e+00 5.0000000000000000e+00
ITEM: ATOMS id x y z q fx fy fz
1   0.1354767787256319 -0.05729609942580746  0.08861961141827937              -0.8476    21.42460273153412    38.07992810213493    63.13233638226235
2   0.7966334063679168   0.3651461167098333  -0.4831428612747541               0.4238    26.74660116624224    19.13216315241208   -15.15240339420064
3  -0.3173105771239401  -0.6296698301654825  -0.4778531867621936               0.4238   -47.43937557482256   -56.79064182166088   -47.21748605664059
4  0.01965971946822228   0.4868737851308304    2.812932341626062  -0.7284222540242808   -28.74749203720445   -4.213136180966735   -202.5488621361049
5  -0.7222908935975115    1.047384462769883    2.693867325133653   0.3187392893676806    49.22356910394644    -34.6154869785539    28.01057836577557
6   0.1972895916108662   0.2272489278746815    1.946496054695168   0.4096829646432525   -20.70920856646481     38.8161077443575    174.6216138352075
ITEM: TIMESTEP
13
ITEM: NUMBER OF ATOMS
6
ITEM: BOX BOUNDS pp pp pp
-5.0000000000000000e+00 5.0000000000000000e+00
-5.0000000000000000e+00 5.0000000000000000e+00
-5.0000000000000000e+00 5.0000000000000000e+00
ITEM: ATOMS id x y z q fx fy fz
1   0.1355312724305244  -0.0573302018034832  0.08823146863470228              -0.8476    22.88592137979185    39.61592830226214    63.40638243672252
2   0.7978894976478578   0.3651194064636745  -0.4836782033016273               0.4238    26.02046705309319    18.59832276781936   -14.59266118940803
3  -0.3169302935740028  -0.6291166371276767  -0.4766268219688548               0.4238   -48.21561739761956   -57.80615501996949   -48.22740232522953
4  0.01949073330371467   0.4868852615778496    2.812624809831596  -0.7314544154828582    -27.9562150146505   -4.176195212409265   -197.7247075206878
5  -0.7200602465827166    1.043744957114359    2.695383199474236   0.3203585096523369    46.54556900165535   -32.37581919439918    28.27767332017862
6   0.1952504215575789   0.2307415814392001      1.9553466258938   0.4110959058325534   -18.80175155815333    36.56510513403803    169.7639623210054
ITEM: TIMESTEP
14
ITEM: NUMBER OF ATOMS
6
ITEM: BOX BOUNDS pp pp pp
-5.0000000000000000e+00 5.0000000000000000e+00
-5.0000000000000000e+00 5.0000000000000000e+00
-5.0000000000000000e+00 5.0000000000000000e+00
ITEM: ATOMS id x y z q fx fy fz
1   0.1355917510282908 -0.05735394422741031  0.08785990724193347              -0.8476    24.24445771862052    40.95183615004575    63.31165820632659
2   0.7992535945172263   0.3651698940175706  -0.4842741164539097               0.4238    25.18107855603155    17.99272775502795   -13.94000780729475
3  -0.3167501431026155  -0.6288033855110889  -0.4756006391708686               0.4238   -48.77664003789226   -58.55192444181708   -48.97125745874589
4   0.0193144363148253   0.4868956459088665    2.812265571087106  -0.7348560638993149     -27.159552233725    -4.00863390063488   -191.9968302672335
5  -0.7176363985156498    1.039971066114092    2.697016448601688   0.3221245972998759    43.63499144241587   -29.96849854080723    28.55855179772862
6   0.1931332093133054   0.2343860092099397    1.964901852269322   0.4127314665947779   -16.65536559640704    34.01717221854506    164.0091803296743
ITEM: TIMESTEP
15
ITEM: NUMBER OF ATOMS
6
ITEM: BOX BOUNDS pp pp pp
-5.0000000000000000e+00 5.0000000000000000e+00
-5.0000000000000000e+00 5.0000000000000000e+00
-5.0000000000000000e+00 5.0000000000000000e+00
ITEM: ATOMS id x y z q fx fy fz
1   0.1356585697895063 -0.05736697734458588  0.08750490246865776              -0.8476    25.49324542081934    42.08064590445105    62.85052176027639
2   0.8007222128475785   0.3652950656715879  -0.4849278917020868               0.4238    24.23243380453317    17.31842013556534   -13.19834055707392
3  -0.3167724543989912     -0.6287331708507  -0.4747777259574003               0.4238   -49.11919034930196   -59.02391094641691   -49.44641226995132
4  0.01913103683668393   0.4869049819428072    2.811856123288665  -0.7386411652150855    -26.3970388942716   -3.658853021709838   -185.1875259099448
5  -0.7150314306031632    1.036072782060367    2.698768238384611    0.324037726839066    40.48626239466952   -27.39150809237376    28.85361579441729
6   0.1909468640832671   0.2381716352431327    1.975137846909183   0.4146034384084487   -14.23035294517424    31.11895362498554     157.173793662888
ITEM: TIMESTEP
16
ITEM: NUMBER OF ATOMS
6
ITEM: BOX BOUNDS pp pp pp
-5.0000000000000000e+00 5.0000000000000000e+00
-5.0000000000000000e+00 5.0000000000000000e+00
-5.0000000000000000e+00 5.0000000000000000e+00
ITEM: ATOMS id x y z q fx fy fz
1   0.1357320552844014 -0.05736900596018935  0.08716633372317233              -0.8476    26.62582509153175    42.99636021527532    62.02717161906773
2   0.8022914150103032   0.3654921225139409  -0.4856364505384457               0.4238    23.17905130475627    16.57875212051767   -12.37198846092122
3  -0.3169986493187876  -0.6289079522650964  -0.4741600545980231               0.4238   -49.24104089175128   -59.21938642794715    -49.6516200039599
4  0.01894073427400648   0.4869133611508019    2.811398247136138  -0.7428223739916575     -25.721664399001   -3.061328897790975   -177.0806054158295
5  -0.7122584125697955    1.032060801508774    2.700639793572767   0.3260971897239386     37.0943654284217   -24.64369229690684    29.16287647015985
6   0.1887014515945794   0.2420864296314432    1.986026237533809   0.4167251842845872   -11.47723594585882    27.80401414382706    149.0278749455787
ITEM: TIMESTEP
17
ITEM: NUMBER OF ATOMS
6
ITEM: BOX BOUNDS pp pp pp
-5.0000000000000000e+00 5.0000000000000000e+00
-5.0000000000000000e+00 5.0000000000000000e+00
-5.0000000000000000e+00 5.0000000000000000e+00
ITEM: ATOMS id x y z q fx fy fz
1   0.1358125036936668  -0.0573597906059484  0.08684398569134097              -0.8476    27.63625849573046    43.69406908845572    60.84777547948396
2   0.8039568286320089   0.3657579943353294  -0.4863963629459525               0.4238    22.02596726599007    15.77736753563266   -11.46572138955136
3  -0.3174292336384625  -0.6293285411326658  -0.4737484768676964               0.4238    -49.1410046706461   -59.13696864883217   -49.58705525377257
4  0.01874370524384661   0.4869209397912686    2.810894062668736  -0.7474200914448375   -25.19249317388222   -2.134086520118558   -167.3974885277272
5  -0.7093314234799374    1.027946530075669    2.702632397843406   0.3283062606123792    33.45829474132594   -21.72684075671178    29.48622734427556
6   0.1864083994678021   0.2461166327451209    1.997533212115509   0.4191138308378868   -8.334932632022209    23.99054922479195    139.2885163419853
ITEM: TIMESTEP
18
ITEM: NUMBER OF ATOMS
6
ITEM: BOX BOUNDS pp pp pp
-5.0000000000000000e+00 5.0000000000000000e+00
-5.0000000000000000e+00 5.0000000000000000e+00
-5.0000000000000000e+00 5.0000000000000000e+00
ITEM: ATOMS id x y z q fx fy fz
1   0.1359001792555466 -0.05733914882415053  0.08653754994950733              -0.8476    28.51920027489905    44.16990169088962    59.32020110916371
2   0.8057136674987888   0.3660893547537067  -0.4872038671970016               0.4238    20.77867688883838    14.91818489013751    -10.4846753305588
3  -0.3180637921283045  -0.6299945953542138  -0.4735427247714652               0.4238    -48.8189432548063     -58.776597628156   -49.25426116421926
4  0.01854008812966905   0.4869279603471822    2.810346102116484  -0.7524455497168674   -24.88267638651673  -0.7728537328979321   -155.7695241641782
5  -0.7062655559127097    1.023742075009906    2.704747393359284   0.3306635808158944    29.57339906532741    -18.6396468119453    29.82182906016995
6   0.1840807507555782   0.2502464156781933    2.009618344586433   0.4217819688910822   -4.725046926650897     19.5735761136077     127.592000656442
ITEM: TIMESTEP
19
ITEM: NUMBER OF ATOMS
6
ITEM: BOX BOUNDS pp pp pp
-5.0000000000000000e+00 5.0000000000000000e+00
-5.0000000000000000e+00 5.0000000000000000e+00
-5.0000000000000000e+00 5.0000000000000000e+00
ITEM: ATOMS id x y z q fx fy fz
1   0.1359953128679747  -0.0573069561799039  0.08624662702199325              -0.8476    29.26988729761168    44.42112425100714    57.45419296372945
2   0.8075567543656651   0.3664826374792033  -0.4880548911718406               0.4238    19.44313884711301    14.00537349023588   -9.434370613247545
3  -0.3189009879778338   -0.630904619103996  -0.4735414169497355               0.4238   -48.27576937667786   -58.13956905706982    -48.6561751088323
4  0.01832996395160195   0.4869347787942655    2.809757406306093  -0.7579153747428791    -24.8898050664966    1.150047715583209   -141.7707390484505
5  -0.7030769352684173    1.019460250616508    2.706986173133872   0.3331718467680389    25.44176692288843   -15.38683388832029    30.16823252724587
6   0.1817334893485728   0.2544574444867161    2.022233085123538   0.4247435279776255  -0.5535529426297163    14.42874911173021    113.5061096479674
ITEM: TIMESTEP
20
ITEM: NUMBER OF ATOMS
6
ITEM: BOX BOUNDS pp pp pp
-5.0000000000000000e+00 5.0000000000000000e+00
-5.0000000000000000e+00 5.0000000000000000e+00
-5.0000000000000000e+00 5.0000000000000000e+00
ITEM: ATOMS id x y z q fx fy fz
1   0.1360981008429692 -0.05726314697604542  0.08597072892936951              -0.8476    29.88399957912648    44.44616933514699    55.26070426348291
2   0.8094805456898142   0.3669340536200564  -0.4889450752723178               0.4238    18.02574200058619    13.04328841357087   -8.320530866345145
3  -0.3199385665843658  -0.6320559682078642  -0.4737420708707062               0.4238   -47.51337475610058   -57.22851326807802    -47.7969867519984
4  0.01811333084542558   0.4869418979901045    2.809131636057153  -0.7638523777777664   -25.81340564461945    3.707725967559913   -126.9170971985365
5  -0.6997827110995233    1.015114558650704    2.709350175016481   0.3358540930541949    21.18588973361334    -12.1004506894241    30.54902211800815
6   0.1793839302575279   0.2587283640554369    2.035318966099866   0.4279982847365318    4.216432250735036    8.520054902552062    96.84195145669261
ITEM: TIMESTEP
21
ITEM: NUMBER OF ATOMS
6
ITEM: BOX BOUNDS pp pp pp
-5.0000000000000000e+00 5.0000000000000000e+00
-5.0000000000000000e+00 5.0000000000000000e+00
-5.0000000000000000e+00 5.0000000000000000e+00
ITEM: ATOMS id x y z q fx fy fz
1   0.1362087037769141 -0.05720771466303996  0.08570928205283032              -0.8476    30.35847391466721    44.24442902908186    52.75389829749413
2   0.8114791581494053   0.3674396097596384   -0.489869796179484               0.4238    16.53321335219904    12.03663423645249   -7.149584418420585
3  -0.3211733634051503  -0.6334448610612344  -0.4741411202208012               0.4238   -46.53492053264301   -56.04738461410746   -46.68250836743247
4  0.01788994728053139   0.4869499867926442    2.808472675742669  -0.7702392478558977    -26.8242283829883     7.23752160461647   -106.5927433733916
5  -0.6964005486740423     1.01071864021101    2.711840979586127   0.3386672614773261    16.56903172924331    -8.52998227452877    30.90727990434353
6   0.1770518727066972   0.2630346486139493    2.048806818033404   0.4315719863807317    9.876568584607039    1.442521066816671    76.32713326742497
ITEM: TIMESTEP
22
ITEM: NUMBER OF ATOMS
6
ITEM: BOX BOUNDS pp pp pp
-5.0000000000000000e+00 5.0000000000000000e+00
-5.0000000000000000e+00 5.0000000000000000e+00
-5.0000000000000000e+00 5.0000000000000000e+00
ITEM: ATOMS id x y z q fx fy fz
1   0.1363272457495011 -0.05714071199795596  0.08546163083803235              -0.8476    30.69040611696718    43.81662625675779    49.94842144690705
2   0.8135463965660014   0.3679951274841827  -0.4908241935362579               0.4238    14.97269105889168    10.99018032047994   -5.927932958007583
3  -0.3226013170786092  -0.6350663950427892  -0.4747339390302182               0.4238   -45.34441549584209    -54.6014682495552   -45.31961508890586
4  0.01765954891686055    0.486959968278059    2.807785840380482  -0.7770885312511382   -28.56150054410303    11.86753347959819   -82.05685095886737
5  -0.6929496116168644    1.006287315575052    2.714460073896956   0.3416279063454226    11.71553398131191   -4.810987111978349      31.264259116388
6   0.1747608107540364   0.2673469207797466    2.062611488147071   0.4354606249162316    16.50173813620389   -6.882400073788631    51.62627377129074
ITEM: TIMESTEP
23
ITEM: NUMBER OF ATOMS
6
ITEM: BOX BOUNDS pp pp pp
-5.0000000000000000e+00 5.0000000000000000e+00
-5.0000000000000000e+00 5.0000000000000000e+00
-5.0000000000000000e+00 5.0000000000000000e+00
ITEM: ATOMS id x y z q fx fy fz
1   0.1364538135642563 -0.05706225085541367  0.08522704162526695              -0.8476    30.87776206714611    43.16457036552566    46.86086708038006
2   0.8156757835335759   0.3685962631794194  -0.4918031965195148               0.4238    13.35161171696689    9.908894745550061   -4.662324005112547
3  -0.3242174860639948  -0.6369145684520633  -0.4755148702101902               0.4238    -43.9469477179145   -52.89733048164418   -43.71650020965389
4   0.0174216814407062    0.486973053239859    2.807077546347069  -0.7843887448725582   -31.20598734231594    17.80996502075942   -52.63063205200767
5  -0.6894500457956244    1.001836021524337    2.717208939696012   0.3447332801854941    6.635801203100058  -0.9545926460472884    31.61320282984946
6    0.172538244111254   0.2716306255230172    2.076630448270108   0.4396554647046287    24.25636624250857   -16.65684988474901     22.0461795778459
ITEM: TIMESTEP
24
ITEM: NUMBER OF ATOMS
6
ITEM: BOX BOUNDS pp pp pp
-5.0000000000000000e+00 5.0000000000000000e+00
-5.0000000000000000e+00 5.0000000000000000e+00
-5.0000000000000000e+00 5.0000000000000000e+00
ITEM: ATOMS id x y z q fx fy fz
1   0.1365884562165979 -0.05697250175442308  0.08500470698878888              -0.8476    30.91927066170349    42.29122204426065    43.50954812262623
2   0.8178605902862895   0.3692385286520496  -0.4928015518476487               0.4238    11.67769790834141    8.797892897418443   -3.359773955399658
3  -0.3260160697609277  -0.6389823077648302  -0.4764772595616554               0.4238    -42.3486249296511   -50.94280597156812   -41.88259610926846
4  0.01717565329283717    0.486990795682167    2.806355488887248  -0.7921153265242538   -34.92754545899434     25.2663403210242   -17.66280855054077
5  -0.6859229361328845   0.9973807651565277    2.720089025376648    0.347977074426808    1.342658677681214    3.026021144354466    31.94601199698263
6   0.1704163606394556   0.2758451911195485    2.090740917535355   0.4441382521272317     33.3011085220602   -28.06841012368263   -13.04958061149935
ITEM: TIMESTEP
25
ITEM: NUMBER OF ATOMS
6
ITEM: BOX BOUNDS pp pp pp
-5.0000000000000000e+00 5.0000000000000000e+00
-5.0000000000000000e+00 5.0000000000000000e+00
-5.0000000000000000e+00 5.0000000000000000e+00
ITEM: ATOMS id x y z q fx fy fz
1   0.1367311845614304  -0.0568716930841348  0.08479375052582565              -0.8476     30.8144565855829     41.2006792951919    39.91446558283917
2   0.8200938687533338   0.3699173123626563  -0.4938138529041838               0.4238    9.958917892660715    7.662415857150226   -2.027547281829506
3   -0.327990433861327  -0.6412615001531636  -0.4776134949271184               0.4238   -40.55655587446913   -48.74696194551132   -39.82852804243581
4  0.01692049124931014   0.4870151455202458    2.805628812429778  -0.8002253362965348   -39.87697186638613    34.39175560989441     23.3170876471217
5  -0.6823902533710303   0.9929380691780708     2.72310171236104   0.3513471489172844   -4.149035205526545    7.115983228956729    32.25275823175028
6    0.168432703197466   0.2799432505375583    2.104797220684258   0.4488781873933476    43.76893700329019   -41.25680082315213    -54.1245529401132
ITEM: TIMESTEP
26
ITEM: NUMBER OF ATOMS
6
ITEM: BOX BOUNDS pp pp pp
-5.0000000000000000e+00 5.0000000000000000e+00
-5.0000000000000000e+00 5.0000000000000000e+00
-5.0000000000000000e+00 5.0000000000000000e+00
ITEM: ATOMS id x y z q fx fy fz
1   0.1368819711888452 -0.05676011003217223  0.08459323208703755              -0.8476     30.5636428816709    39.89818311056601    36.09729508334297