ITEM: TIMESTEP
0
ITEM: NUMBER OF ATOMS
6
ITEM: BOX BOUNDS pp pp pp
-5.0000000000000000e+00 5.0000000000000000e+00
-5.0000000000000000e+00 5.0000000000000000e+00
-5.0000000000000000e+00 5.0000000000000000e+00
ITEM: ATOMS id x y z q fx fy fz
1              0.13513             -0.05627  0.09445000000000001              -0.8476   -1.880210314450263    8.446175000124001    32.73051962666985
2   0.7905799999999999              0.37197             -0.48187               0.4238    26.20729086872784    19.15360239188853   -13.80644712608554
3             -0.33549             -0.65246             -0.50563               0.4238   -23.60609467838663   -26.89489330311197   -17.10457980784259
4              0.02105              0.48666              2.81228              -0.8476    15.66155284242855   -6.517580211214168    34.00891123005901
5             -0.73085              1.07786              2.68447               0.4238   -29.13251847169515    23.70621326797773    3.300626071723796
6              0.21349              0.19973              1.90016               0.4238    12.74997975337565   -17.89351714566411   -39.12902999452453
ITEM: TIMESTEP
1
ITEM: NUMBER OF ATOMS
6
ITEM: BOX BOUNDS pp pp pp
-5.0000000000000000e+00 5.0000000000000000e+00
-5.0000000000000000e+00 5.0000000000000000e+00
-5.0000000000000000e+00 5.0000000000000000e+00
ITEM: ATOMS id x y z q fx fy fz
1   0.1351479258388057 -0.05638457155160619   0.0938952277643875              -0.8476   0.1438948676882892    11.53623183596523    36.98807436616701
2    0.790449513749782   0.3709372498179851  -0.4816176615248121               0.4238     26.9461513124738    19.59008510352186   -14.49272291020029
3  -0.3331890293395946  -0.6496448160587543  -0.5026165719227422               0.4238   -26.37667549447695     -30.404171151517   -20.63363630679099
4  0.02098842868832326   0.4866819273259735     2.81268427418476              -0.8476    15.91622540153423   -6.863689877006784     32.7763682817823
5  -0.7317459401158409    1.076522353632363    2.684605876987159               0.4238   -29.31443083960264    23.79727432913196    3.470132471466195
6   0.2129082150098723   0.2007557007270449    1.899147124828255               0.4238    12.68483475238328   -17.65573024009527   -38.10821590242422
ITEM: TIMESTEP
2
ITEM: NUMBER OF ATOMS
6
ITEM: BOX BOUNDS pp pp pp
-5.0000000000000000e+00 5.0000000000000000e+00
-5.0000000000000000e+00 5.0000000000000000e+00
-5.0000000000000000e+00 5.0000000000000000e+00
ITEM: ATOMS id x y z q fx fy fz
1   0.1351658893075305 -0.05649612626545607  0.09335012827294902              -0.8476    2.178846438880999    14.57441557388694    41.02445145368393
2   0.7904308754133379   0.3699858140368312  -0.4814254793518586               0.4238    27.57032929456972    19.94809131605449   -15.08460833158488
3  -0.3309975428163535  -0.6469558335580737  -0.4996887898120539               0.4238   -29.04234213493833   -33.78287788544142   -24.03130437912472
4  0.02093101962567308   0.4867020597297347    2.813097119711251              -0.8476    16.07594732939086   -7.161278816560775    31.33349892002284
5  -0.7327635583850796    1.075283484839911    2.684756157778148               0.4238   -29.35614563408923    23.77706405329151    3.657092996029643
6   0.2123790821512926   0.2017081161611138    1.897976070315909               0.4238    12.57336470618598   -17.35541424123075   -36.89913065902682
ITEM: TIMESTEP
3
ITEM: NUMBER OF ATOMS
6
ITEM: BOX BOUNDS pp pp pp
-5.0000000000000000e+00 5.0000000000000000e+00
-5.0000000000000000e+00 5.0000000000000000e+00
-5.0000000000000000e+00 5.0000000000000000e+00
ITEM: ATOMS id x y z q fx fy fz
1   0.1351844225659661  -0.0566038696267079  0.09281575707787608              -0.8476    4.214618506259269    17.54569320197053    44.82031176064531
2   0.7905266758246725   0.3691171786664519  -0.4812959102753885               0.4238    28.07677427909051    20.22610388435489   -15.57958327099477
3  -0.3289266050624424  -0.6444070768124164  -0.4968607566869961               0.4238    -31.5900537196338   -37.01445526612819   -27.28084071368074
4  0.02087781458089994   0.4867203193888576    2.813518159254984              -0.8476    16.13871726828411   -7.408544379955209     29.6862801233665
5  -0.7339030279572198    1.074143309733959    2.684921618407523               0.4238   -29.25705580934785    23.64622922652516    3.861279578238097
6   0.2119021387351011   0.2025884928519481    1.896651855126315               0.4238    12.41699947534777   -16.99502666676719    -35.5074474775744
ITEM: TIMESTEP
4
ITEM: NUMBER OF ATOMS
6
ITEM: BOX BOUNDS pp pp pp
-5.0000000000000000e+00 5.0000000000000000e+00
-5.0000000000000000e+00 5.0000000000000000e+00
-5.0000000000000000e+00 5.0000000000000000e+00
ITEM: ATOMS id x y z q fx fy fz
1   0.1352040579884721 -0.05670702461712381  0.09229310683386345              -0.8476    6.241162873002376    20.43533157979878    48.35758112719553
2   0.7907390171324119   0.3683324976796505  -0.4812310088342374               0.4238    28.46297741974773    20.42297338335695   -15.97562388063889
3  -0.3269867911029304  -0.6420119594326552  -0.4941459607023536               0.4238    -34.0072907279688   -40.08301632300313   -30.36628568911363
4   0.0208288299689584   0.4867366416409725    2.813946962052092              -0.8476    16.10304394340613   -7.603980133515275    27.84171902926536
5  -0.7351639375308465    1.073101285246139    2.685103106411655               0.4238   -29.01723546398692    23.40594655633612    4.082342286442774
6   0.2114767357214904   0.2033983266940036    1.895180255849184               0.4238    12.21734195579948   -16.57725506297344   -33.93973287315114
ITEM: TIMESTEP
5
ITEM: NUMBER OF ATOMS
6
ITEM: BOX BOUNDS pp pp pp
-5.0000000000000000e+00 5.0000000000000000e+00
-5.0000000000000000e+00 5.0000000000000000e+00
-5.0000000000000000e+00 5.0000000000000000e+00
ITEM: ATOMS id x y z q fx fy fz
1    0.135225325536274 -0.05680483556793046  0.09178310257153906              -0.8476    8.248455280035843    23.22896805648564    51.61953819044625
2   0.7910695023861001   0.3676325882410936  -0.4812324189112531               0.4238    28.72698495479225    20.53792363211758    -16.2712089211188
3  -0.3251881343898435  -0.6397832183825413  -0.4915572089035394               0.4238   -36.28211445996337   -42.97342159974117   -33.27254491269733
4  0.02078405646092419   0.4867509753777132    2.814383045731758              -0.8476    15.96795844328275   -7.746383287745204    25.80782126269453
5  -0.7365452916611929     1.07215641401267    2.685301539376229               0.4238   -28.63744218541044    23.05791394116378    4.319809030387747
6   0.2111020443732961   0.2041393517710005    1.893567779744343               0.4238    11.97615796726296   -16.10500074228064   -32.20341464971239
ITEM: TIMESTEP
6
ITEM: NUMBER OF ATOMS
6
ITEM: BOX BOUNDS pp pp pp
-5.0000000000000000e+00 5.0000000000000000e+00
-5.0000000000000000e+00 5.0000000000000000e+00
-5.0000000000000000e+00 5.0000000000000000e+00
ITEM: ATOMS id x y z q fx fy fz
1    0.135248750136021 -0.05689657191579313  0.09128659732466367              -0.8476    10.22654176914149    25.91267960936179    54.59089495236471
2   0.7915192274265372   0.3670179274855438   -0.481301367418945               0.4238    28.86740899415085    20.57055540336275   -16.46532356717277
3  -0.3235400772470844  -0.6377328511379448  -0.4891065645728855               0.4238    -38.4032240262852   -45.67135208541886   -35.98546610747088
4  0.02074345873061429   0.4867632833592586    2.814825878409771              -0.8476     15.7330236473327   -7.834860209838778     23.5935541710782
5  -0.7380455139047296    1.071307251421983    2.685517902976697               0.4238   -28.11911600987552    22.60433921624891    4.573085999348235
6   0.2107770635855499   0.2048135283131748    1.891821633910449               0.4238    11.69536562553568   -15.58136193371582    -30.3067454481475
ITEM: TIMESTEP
7
ITEM: NUMBER OF ATOMS
6
ITEM: BOX BOUNDS pp pp pp
-5.0000000000000000e+00 5.0000000000000000e+00
-5.0000000000000000e+00 5.0000000000000000e+00
-5.0000000000000000e+00 5.0000000000000000e+00
ITEM: ATOMS id x y z q fx fy fz
1   0.1352748490767282 -0.05698153184382265  0.09080436813216942              -0.8476    12.16558500630298    28.47305022687901    57.25786970719104
2   0.7920887751249344   0.3664886508607499  -0.4814386600871532               0.4238    28.88343561451499    20.52084827480272   -16.55746073181979
3  -0.3220514239627733   -0.635872056251595  -0.4868052884864615               0.4238   -40.36001062080363     -48.163378510425   -38.49191090951639
4  0.02070697534027564   0.4867735424480257    2.815274881033573              -0.8476     15.3983407108139   -7.868830007674608    21.20880511394067
5  -0.7396624527964584    1.070551914778988    2.685753248513495               0.4238   -27.46437497729525    22.04792646480358     4.84145886140166
6   0.2105006278471827   0.2054230298371681     1.88994969102998               0.4238      11.377024266467    -15.0096164483857    -28.2587620411972
ITEM: TIMESTEP
8
ITEM: NUMBER OF ATOMS
6
ITEM: BOX BOUNDS pp pp pp
-5.0000000000000000e+00 5.0000000000000000e+00
-5.0000000000000000e+00 5.0000000000000000e+00
-5.0000000000000000e+00 5.0000000000000000e+00
ITEM: ATOMS id x y z q fx fy fz
1   0.1353041294372176 -0.05705904578999402  0.09033711243410866              -0.8476    14.05591039985812    30.89723626247538    59.60825199170092
2   0.7927782120044854   0.3660445520426784  -0.4816446793582358               0.4238    28.77483019176857    20.38916058951268   -16.54761997019683
3  -0.3207302967542819  -0.6342111776109541  -0.4846637843794371               0.4238   -42.14260883852621   -50.43702670095655   -40.77982116590724
4  0.02067451876703825   0.4867817437605793    2.815729429967898              -0.8476    14.96455253645733   -7.848026187408126    18.66433498339872
5  -0.7413933906414584    1.069888094529171    2.686008689946993               0.4238   -26.67600727818583    21.39185999483567    5.124094748527913
6   0.2102714157889026   0.2059702295405108     1.88796045185946               0.4238      11.023322988628   -14.39320395845906   -26.06924058752348
ITEM: TIMESTEP
9
ITEM: NUMBER OF ATOMS
6
ITEM: BOX BOUNDS pp pp pp
-5.0000000000000000e+00 5.0000000000000000e+00
-5.0000000000000000e+00 5.0000000000000000e+00
-5.0000000000000000e+00 5.0000000000000000e+00
ITEM: ATOMS id x y z q fx fy fz
1   0.1353370855561172 -0.05712847980588589  0.08988544487849806              -0.8476    15.88805184276259    33.17302948860392    61.63145926674628
2   0.7935870872664913   0.3656850844229214  -0.4819193843852219               0.4238    28.54193991500912    20.17622750469067   -16.43630403395096
3  -0.3195840948189739  -0.6327596526604947  -0.4826915488951776               0.4238    -43.7419448112852   -52.48083870036734   -42.83827935651762
4  0.02064597557104053   0.4867878927373225    2.816188859808855              -0.8476    14.43284418208447   -7.772496401359727    15.97172715904244
5    -0.74323505508809    1.069313067475993    2.686285400440439               0.4238     -25.757460008909    20.63978609221968    5.420045047188298
6   0.2100879592696913    0.206457686024252    1.885863004650635               0.4238    10.63656888033802   -13.73570798378721   -23.74864808250845
ITEM: TIMESTEP
10
ITEM: NUMBER OF ATOMS
6
ITEM: BOX BOUNDS pp pp pp
-5.0000000000000000e+00 5.0000000000000000e+00
-5.0000000000000000e+00 5.0000000000000000e+00
-5.0000000000000000e+00 5.0000000000000000e+00
ITEM: ATOMS id x y z q fx fy fz
1   0.1353741965563816 -0.05718923874925184  0.08944989455388082              -0.8476    17.65279690211373    35.28891758193952    63.31858508506752
2   0.7945144342314699   0.3654093641601822  -0.4822623131186302               0.4238     28.1856934423814    19.88315712099421   -16.22451315449929
3    -0.31861945667045  -0.6315259648420868  -0.4808971262688704               0.4238   -45.14978094325954   -54.28442938030648   -44.65756279923956
4  0.02062120670533356    0.486792009130035    2.816652466413092              -0.8476     13.8049401742153   -7.642600316681352    13.14333212772203
5  -0.7451836334361801    1.068823711915874    2.686584608422452               0.4238   -24.71282457036106    19.79579266965037    5.728249008137301
6   0.2099486529530519   0.2068881284185086     1.88366698170414               0.4238    10.21917499491017   -13.04083767559626     -21.308090267188
ITEM: TIMESTEP
11
ITEM: NUMBER OF ATOMS
6
ITEM: BOX BOUNDS pp pp pp
-5.0000000000000000e+00 5.0000000000000000e+00
-5.0000000000000000e+00 5.0000000000000000e+00
-5.0000000000000000e+00 5.0000000000000000e+00
ITEM: ATOMS id x y z q fx fy fz
1   0.1354159239361497 -0.05724076929460579  0.08903090266020339              -0.8476     19.3412312723028    37.23414177217131    64.66243854808653
2   0.7955587741938248   0.3652161747797732   -0.482672586458223               0.4238    27.70759767582489    19.51142469823669   -15.91373713885757
3  -0.3178422259459878  -0.6305176004884728  -0.4792880679706781               0.4238   -46.35875703843088    -55.8385382795278   -46.22919133793832
4  0.02060004796686169   0.4867941269078166    2.817119510127572              -0.8476     13.0830987188972   -7.459005648136189    10.19220802503333
5  -0.7472347896195833    1.068416524606276    2.686907593184077               0.4238   -23.54681876436578    18.86438693898559    6.047538182532934
6   0.2098517643230949    0.207264440986544     1.88138251327186               0.4238    9.773648135771776   -12.31240948172959    -18.7592562788569
ITEM: TIMESTEP
12
ITEM: NUMBER OF ATOMS
6
ITEM: BOX BOUNDS pp pp pp
-5.0000000000000000e+00 5.0000000000000000e+00
-5.0000000000000000e+00 5.0000000000000000e+00
-5.0000000000000000e+00 5.0000000000000000e+00
ITEM: ATOMS id x y z q fx fy fz
1   0.1354627092375673 -0.05728256274674597  0.08862882062832499              -0.8476    20.94478230102137    38.99875138800991    65.65757490296639
2   0.7967181226766836   0.3651039732971142  -0.4831489144368878               0.4238    27.10973164948342    19.06286497731216   -15.50594536524355
3  -0.3172574208558868   -0.629741010385004    -0.47787089750636               0.4238   -47.36242762247793   -57.13507642354156   -47.54596825528559
4  0.02058231058700553   0.4867942940824739    2.817589219204402              -0.8476    12.27010282246702   -7.222682410124327    7.132057380647332
5  -0.7493836837888037    1.068087639474205    2.687255680028791               0.4238   -22.26476566105655    17.85047124119979    6.376641684020656
6   0.2097954440897623   0.2075896472834799    1.879020179037729               0.4238    9.302576510562663   -11.55432877285598   -16.11436034710523
ITEM: TIMESTEP
13
ITEM: NUMBER OF ATOMS
6
ITEM: BOX BOUNDS pp pp pp
-5.0000000000000000e+00 5.0000000000000000e+00
-5.0000000000000000e+00 5.0000000000000000e+00
-5.0000000000000000e+00 5.0000000000000000e+00
ITEM: ATOMS id x y z q fx fy fz
1   0.1355149718049537 -0.05731415764295301  0.08824390869616133              -0.8476    22.45526139023498    40.57365503548166    66.30031718027419
2   0.7979899980615405   0.3650708978333639    -0.48368960439512               0.4238    26.39473754468812     18.5396626425609   -15.00357476747217
3  -0.3168692074296345  -0.6292015761939759  -0.4766510805451838               0.4238   -48.15529527255122   -58.16716789405253   -48.60201419794728
4  0.02056778195936544   0.4867925724548509    2.818060793384177              -0.8476    11.36924835647948   -6.934895453767076    3.977160373814964
5  -0.7516249944059603    1.067832847964821    2.687630234997319               0.4238   -20.87256932932471    16.75931717378738    6.714192268479593
6   0.2097777369319433   0.2078668939459095    1.876590957418987               0.4238    8.808617310473354   -10.77057150401035   -13.38608085714928
ITEM: TIMESTEP
14
ITEM: NUMBER OF ATOMS
6
ITEM: BOX BOUNDS pp pp pp
-5.0000000000000000e+00 5.0000000000000000e+00
-5.0000000000000000e+00 5.0000000000000000e+00
-5.0000000000000000e+00 5.0000000000000000e+00
ITEM: ATOMS id x y z q fx fy fz
1   0.1355731066434034 -0.05733514213047863  0.08787633494712105              -0.8476    23.86490506752841    41.95066814565592    66.58876882176042
2    0.799371432555405    0.365114776683593  -0.4842925710962322               0.4238    25.56580886290088    17.94434097316401    -14.4095158975822
3  -0.3166808766972384  -0.6289035819141113   -0.475633000515943               0.4238   -48.73283978000901   -58.92918593357398   -49.39279394888665
4  0.02055622650166425    0.486789037284059    2.818533407630394              -0.8476    10.38432912234644   -6.597195364377022   0.7423049281376741
5  -0.7539529427513592    1.067647620922749    2.688032659192483               0.4238   -19.37668754078951    15.59653816003856    7.058733214679107
6   0.2097965925269264   0.2080994341885277    1.874106172940817               0.4238    8.294484268022778   -9.965165980907496   -10.58749711810835
ITEM: TIMESTEP
15
ITEM: NUMBER OF ATOMS
6
ITEM: BOX BOUNDS pp pp pp
-5.0000000000000000e+00 5.0000000000000000e+00
-5.0000000000000000e+00 5.0000000000000000e+00
-5.0000000000000000e+00 5.0000000000000000e+00
ITEM: ATOMS id x y z q fx fy fz
1   0.1356374823885619 -0.05734515610689072  0.08752617481413712              -0.8476    25.16641451737232    43.12255663214652    66.52281729661959
2    0.800858985446368   0.3652331387903964  -0.4849553487244391               0.4238    24.62667580651404    17.27974874628136   -13.72709715546197
3  -0.3166948259267731  -0.6288501905250502  -0.4748199397822067               0.4238    -49.0915429837032   -59.41678338793211   -49.91513593010811
4  0.02054738664786352   0.4867837768819833    2.819006215996628              -0.8476    9.319618992129721   -6.211407802993002   -2.557286004197401
5  -0.7563613197283704    1.067527131892242    2.688464382732656               0.4238    -17.7841015755575    14.36806060824351    7.408725980337942
6   0.2098498768145436   0.2082906110834659    1.871577441946835               0.4238    7.762935243244614   -9.142174795746282   -7.732024187190035
ITEM: TIMESTEP
16
ITEM: NUMBER OF ATOMS
6
ITEM: BOX BOUNDS pp pp pp
-5.0000000000000000e+00 5.0000000000000000e+00
-5.0000000000000000e+00 5.0000000000000000e+00
-5.0000000000000000e+00 5.0000000000000000e+00
ITEM: ATOMS id x y z q fx fy fz
1   0.1357084393979137 -0.05734389311185781  0.08719341105023895              -0.8476    26.35299335726661    44.08307640352812     66.1041287527468
2   0.8024487585869022   0.3654232255685785  -0.4856751047003591               0.4238    23.58158793572019      16.549045468286   -12.96006727285587
3  -0.3169125440212188  -0.6290434259432101   -0.474214066477754               0.4238   -49.22890912497054   -59.62691730782966   -50.16724436831988
4  0.02054098396582302   0.4867768921358543    2.819478355607494              -0.8476    8.179851222172704   -5.779621382850238   -5.906029599312719
5  -0.7588435148412818    1.067466281716478    2.688926858365586               0.4238   -16.10228327511329    13.08009381163896    7.762558599180325
6   0.2099353834444778   0.2084438406973101    1.869016616915951               0.4238    7.216759884924314   -8.305676992773186   -4.833346111438662
ITEM: TIMESTEP
17
ITEM: NUMBER OF ATOMS
6
ITEM: BOX BOUNDS pp pp pp
-5.0000000000000000e+00 5.0000000000000000e+00
-5.0000000000000000e+00 5.0000000000000000e+00
-5.0000000000000000e+00 5.0000000000000000e+00
ITEM: ATOMS id x y z q fx fy fz
1   0.1357862879734617 -0.05733110196004026  0.08687793416426641              -0.8476    27.41838344082925    44.82700848272573    65.33613379649019
2   0.8041364140329093   0.3656820040196125  -0.4864486552412255               0.4238    22.43529418751164    15.75568502332889   -12.11257613736367
3  -0.3173346011590826  -0.6294841603911314  -0.4738164270526896               0.4238   -49.14348059027886   -59.55786755046481   -50.14870410501015
4  0.02053672039509365   0.4867684959620552    2.819948950733702              -0.8476     6.97019505568103   -5.304174177751015   -9.288060373133707
5  -0.7613925472093703    1.067459724311055    2.689421554777461               0.4238   -14.33915950390179    11.73909874190303    8.118554775697241
6   0.2100508453555198   0.2085625951598293    1.866435729662717               0.4238    6.658767410158733   -7.459750519741824   -1.905347956679903
ITEM: TIMESTEP
18
ITEM: NUMBER OF ATOMS
6
ITEM: BOX BOUNDS pp pp pp
-5.0000000000000000e+00 5.0000000000000000e+00
-5.0000000000000000e+00 5.0000000000000000e+00
-5.0000000000000000e+00 5.0000000000000000e+00
ITEM: ATOMS id x y z q fx fy fz
1   0.1358713067251605 -0.05730658810590391  0.08657954331800702              -0.8476    28.35689846905631    45.35018949489444    64.22400453983595
2   0.8059171937555774   0.3660061810680009  -0.4872724825862144               0.4238    21.19302036003072    14.90339784037624   -11.18915404027434
3   -0.317960642744145  -0.6301721072575199   -0.473626944550206               0.4238   -48.83484892364003   -59.20924924361486   -49.86047808059094
4  0.02053427959872525   0.4867587126946928    2.820417116941037              -0.8476       5.696229748757   -4.787638964343265   -12.68730904614613
5  -0.7640010984696814    1.067501893482153     2.68994994963495               0.4238   -12.50307419636163    10.35175589029721    8.474983625627075
6   0.2101939464360481   0.2086503857372567    1.863846933703283               0.4238    6.091774542157633   -6.608455017609768    1.037953001548405
ITEM: TIMESTEP
19
ITEM: NUMBER OF ATOMS
6
ITEM: BOX BOUNDS pp pp pp
-5.0000000000000000e+00 5.0000000000000000e+00
-5.0000000000000000e+00 5.0000000000000000e+00
-5.0000000000000000e+00 5.0000000000000000e+00
ITEM: ATOMS id x y z q fx fy fz
1   0.1359637410838939 -0.05727021473248345  0.08629794767875396              -0.8476     29.1634551925474    45.64953729774121    62.77462309746609
2   0.8077859413325913   0.3663922190455164  -0.4881427538007483               0.4238    19.86044418172437    13.99617169057706   -10.19468943060777
3  -0.3187893877100438  -0.6311058194997209  -0.4736444226035514               0.4238   -48.30366100856276   -58.58201899781082   -49.30489756891299
4  0.02053332842229681   0.4867476774127907    2.820881965292638              -0.8476    4.363916171634589   -4.232807304404201   -16.08758264774024
5  -0.7666615474109789    1.067587030655873    2.690513522400661               0.4238   -10.60274818026877    8.924932311258569    8.830070001819571
6   0.2103623332156664   0.2087107459815573    1.861262446072576               0.4238    5.518593642925167   -5.755814997361821    3.982476547975344
ITEM: TIMESTEP
20
ITEM: NUMBER OF ATOMS
6
ITEM: BOX BOUNDS pp pp pp
-5.0000000000000000e+00 5.0000000000000000e+00
-5.0000000000000000e+00 5.0000000000000000e+00
-5.0000000000000000e+00 5.0000000000000000e+00
ITEM: ATOMS id x y z q fx fy fz
1   0.1360638019721544 -0.05722190355739284  0.08603276821904654              -0.8476    29.83360199167767    45.72307154391418    60.99654175735967
2   0.8097371255152113   0.3668363522436167  -0.4890553410674398               0.4238    18.44366809988778    13.03823123618747   -9.134405256879687
3  -0.3198186312053539  -0.6322826936144127  -0.4738665551126654               0.4238     -47.551620338536    -57.6784747773652   -48.48564528297024
4  0.02053351845274243    0.486735535210269    2.821342606583612              -0.8476    2.979566152781601   -3.642672576417815   -19.47264543669794
5   -0.769366006172101    1.067709213381961     2.69111374696487               0.4238   -8.647236980118585    7.465648023418505     9.18200533729958
6   0.2105536265387376   0.2087472150255133    1.858694488880239               0.4238    4.942021074307531   -4.905803449737142    6.914148881888616
ITEM: TIMESTEP
21
ITEM: NUMBER OF ATOMS
6
ITEM: BOX BOUNDS pp pp pp
-5.0000000000000000e+00 5.0000000000000000e+00
-5.0000000000000000e+00 5.0000000000000000e+00
-5.0000000000000000e+00 5.0000000000000000e+00
ITEM: ATOMS id x y z q fx fy fz
1    0.136171664639902 -0.05716163535070561  0.08578353995317739              -0.8476    30.36354462870617    45.56992898423017    58.89993508729635
2   0.8117648655582725   0.3673346044491462  -0.4900058433654729               0.4238    16.94918993703144    12.03401646015991   -8.013833978071531
3  -0.3210452516644371  -0.6336989791759822  -0.4742899415303614               0.4238   -46.58148331584476   -56.50224936816603   -47.40773151449604
4  0.02053448766895642   0.4867224404131464    2.821798155586844              -0.8476    1.549809748045433   -3.020412068151243    -22.8263002073808
5  -0.7721063578295748    1.067862384472462    2.691752084138531               0.4238   -6.645886815843285     5.98104192274675    9.528958930142597
6   0.2107654331715047   0.2087633210916593    1.856155230893179               0.4238    4.364825817905012    -4.06232593081955    9.818971682509439
ITEM: TIMESTEP
22
ITEM: NUMBER OF ATOMS
6
ITEM: BOX BOUNDS pp pp pp
-5.0000000000000000e+00 5.0000000000000000e+00
-5.0000000000000000e+00 5.0000000000000000e+00
-5.0000000000000000e+00 5.0000000000000000e+00
ITEM: ATOMS id x y z q fx fy fz
1   0.1362874676723331  -0.0570894501607029  0.08554971459794171              -0.8476    30.75016897569704    45.19037334317773    56.49654427555728
2   0.8138629581913059   0.3678828073737889  -0.4909896094346984               0.4238    15.38387157596327    10.98816011182894   -6.838791326262021
3  -0.3224652222486997  -0.6353497939154692  -0.4749101076590133               0.4238   -45.39705054089155   -55.05829740930201   -46.07746350899528
4  0.02053586217561789    0.486708555748648    2.822247735288723              -0.8476  0.08156063002957836   -2.369368243648791   -26.13246954690339
5  -0.7748742951918459    1.068040381633799    2.692429974054416               0.4238     -4.6082890223779    4.478337361860119    9.869089588329178
6   0.2109953572955625   0.2087625652811254    1.853656729431433               0.4238    3.789738381579565   -3.229205163915995    12.68309051827423
ITEM: TIMESTEP
23
ITEM: NUMBER OF ATOMS
6
ITEM: BOX BOUNDS pp pp pp
-5.0000000000000000e+00 5.0000000000000000e+00
-5.0000000000000000e+00 5.0000000000000000e+00
-5.0000000000000000e+00 5.0000000000000000e+00
ITEM: ATOMS id x y z q fx fy fz
1    0.136411312175506 -0.05700544724490701  0.08533066364307312              -0.8476    30.99106053488618    44.58579962427038    53.79961403716069
2   0.8160249061007973   0.3684766198836546  -0.4920017619155383               0.4238    13.75490584544073    9.905464308847424   -5.615348905447774
3  -0.3240736266220998  -0.6372291442862512  -0.4757215318306305               0.4238     -44.003153078035   -53.35287598664494   -44.50240831326302
4  0.02053725801118395   0.4866940514711184    2.822690481093545              -0.8476   -1.418020195691756   -1.693029299157812   -29.37527660718495
5  -0.7776613606109308    1.068236967449423      2.6931488285247               0.4238   -2.544233124361691    2.964807548513301    10.20055754717276
6   0.2112410118416316   0.2087484057063009     1.85121087286128               0.4238    3.219440017761534   -2.410166195828343    15.49286224156228
ITEM: TIMESTEP
24
ITEM: NUMBER OF ATOMS
6
ITEM: BOX BOUNDS pp pp pp
-5.0000000000000000e+00 5.0000000000000000e+00
-5.0000000000000000e+00 5.0000000000000000e+00
-5.0000000000000000e+00 5.0000000000000000e+00
ITEM: ATOMS id x y z q fx fy fz
1   0.1365432611449257 -0.05690978470527425  0.08512568181486659              -0.8476    31.08452058365675    43.75873273224943    50.82382244706699
2   0.8182439477861353   0.3691115479318789  -0.4930372225509603               0.4238     12.0697817876687    8.790876438658099   -4.349805714279892
3  -0.3258646790038991  -0.6393299514359156  -0.4767176763161074               0.4238   -42.40563370913558   -51.39351881932105   -42.69134936446161
4  0.02053828302056287   0.4866791044498242    2.823125544975463              -0.8476   -2.941562131104124  -0.9950091230633999   -32.53912495717093
5  -0.7804589866167138    1.068445859569394    2.693910023404483               0.4238  -0.4636588075973171    1.447740914967985    10.52153656729146
6   0.2115000296188847    0.208724242028934    1.848829323965347               0.4238    2.656552276511571   -1.608822143491063    18.23492102155396
ITEM: TIMESTEP
25
ITEM: NUMBER OF ATOMS
6
ITEM: BOX BOUNDS pp pp pp
-5.0000000000000000e+00 5.0000000000000000e+00
-5.0000000000000000e+00 5.0000000000000000e+00
-5.0000000000000000e+00 5.0000000000000000e+00
ITEM: ATOMS id x y z q fx fy fz
1   0.1366833390213116 -0.05680267882790759  0.08493399091463888              -0.8476    31.02957879439794    42.71282033153395    47.58520408895983
2   0.8205130886450808   0.3697829650942074  -0.4940907383323222               0.4238    10.33624849677891    7.649464504379477   -3.048658684733729
3  -0.3278317484208447  -0.6416440824771733  -0.4778910237834584               0.4238    -40.6113232123148   -49.18900410428941   -40.65423711830866
4  0.02053853878259778   0.4866638972238867    2.823552099557106              -0.8476   -4.481523958446164  -0.2790267750148185   -35.60877708475645
5  -0.7832585371745313    1.068660760963163    2.694714891011443               0.4238    1.623392965252125 -0.06559339167479772    10.83022611748424
6   0.2117700741964595   0.2086934004628291    1.846523464463809               0.4238    2.103626914331988  -0.8286605649343963    20.89624268135478
ITEM: TIMESTEP
26
ITEM: NUMBER OF ATOMS
6
ITEM: BOX BOUNDS pp pp pp
-5.0000000000000000e+00 5.0000000000000000e+00
-5.0000000000000000e+00 5.0000000000000000e+00
-5.0000000000000000e+00 5.0000000000000000e+00
ITEM: ATOMS id x y z q fx fy fz
1   0.1368315314368468 -0.05668440312915666  0.08475474401192953              -0.8476    30.82600219996297    41.45281989527069    44.10106693253577