ITEM: TIMESTEP
0
ITEM: NUMBER OF ATOMS
6
ITEM: BOX BOUNDS pp pp pp
-5.0000000000000000e+00 5.0000000000000000e+00
-5.0000000000000000e+00 5.0000000000000000e+00
-5.0000000000000000e+00 5.0000000000000000e+00
ITEM: ATOMS id x y z q fx fy fz
1              0.13513             -0.05627  0.09445000000000001              -0.8476   -1.880210314450263    8.446175000124001    32.73051962666985
2   0.7905799999999999              0.37197             -0.48187               0.4238    26.20729086872784    19.15360239188853   -13.80644712608554
3             -0.33549             -0.65246             -0.50563               0.4238   -23.60609467838663   -26.89489330311197   -17.10457980784259
4              0.02105              0.48666              2.81228              -0.8476    15.66155284242855   -6.517580211214168    34.00891123005901
5             -0.73085              1.07786              2.68447               0.4238   -29.13251847169515    23.70621326797773    3.300626071723796
6              0.21349              0.19973              1.90016               0.4238    12.74997975337565   -17.89351714566411   -39.12902999452453
ITEM: TIMESTEP
1
ITEM: NUMBER OF ATOMS
6
ITEM: BOX BOUNDS pp pp pp
-5.0000000000000000e+00 5.0000000000000000e+00
-5.0000000000000000e+00 5.0000000000000000e+00
-5.0000000000000000e+00 5.0000000000000000e+00
ITEM: ATOMS id x y z q fx fy fz
1   0.1351318147100852  -0.0562815565492522  0.09439413760560517              -0.8476   -1.678741205856913    8.756831391303479    33.16530722776363
2    0.790562056227434   0.3718631473624949  -0.4818421873053932               0.4238     26.2861805981557    19.20069324984692   -13.87918591358848
3  -0.3352554936527037  -0.6521734580240195  -0.5053254623011175               0.4238    -23.8872648518561   -27.25092414035663   -17.46261626433957
4  0.02104365856459785   0.4866622694310986    2.812320027203605              -0.8476    15.69119449058294   -6.554281435294799    33.89534644393861
5  -0.7309341524733127    1.077721807381258    2.684482971188918               0.4238   -29.15697009669331    23.72031990409296    3.316786783873525
6    0.213429439986912   0.1998359123260854    1.900066021226642               0.4238    12.74560106566768   -17.87263896959193   -39.03563827764771
ITEM: TIMESTEP
2
ITEM: NUMBER OF ATOMS
6
ITEM: BOX BOUNDS pp pp pp
-5.0000000000000000e+00 5.0000000000000000e+00
-5.0000000000000000e+00 5.0000000000000000e+00
-5.0000000000000000e+00 5.0000000000000000e+00
ITEM: ATOMS id x y z q fx fy fz
1   0.1351336250300975 -0.05629309019853157  0.09433836194174111              -0.8476   -1.477073960245065    9.067106338521986    33.59806712619408
2   0.7905452035399834    0.371757091706146   -0.481814950707154               0.4238     26.3639554676137    19.24701608624355   -13.95100764079228
3  -0.3350219788164803  -0.6518880471776679  -0.5050216494394021               0.4238   -24.16750722172793   -27.60580339941769   -17.81949551909361
4  0.02103735816320807   0.4866645217221086    2.812360143046865              -0.8476    15.71990887734031   -6.590516117804465    33.77963360137926
5  -0.7310195151922889    1.077584599344049    2.684496080050811               0.4238   -29.18003098673588    23.73331258622849    3.333123069977061
6   0.2133694090174238   0.1999410827958073    1.899970422164489               0.4238    12.74074782375486   -17.85111549377187   -38.94032063766452
ITEM: TIMESTEP
3
ITEM: NUMBER OF ATOMS
6
ITEM: BOX BOUNDS pp pp pp
-5.0000000000000000e+00 5.0000000000000000e+00
-5.0000000000000000e+00 5.0000000000000000e+00
-5.0000000000000000e+00 5.0000000000000000e+00
ITEM: ATOMS id x y z q fx fy fz
1   0.1351354314874165 -0.05630460013643869  0.09428267414011743              -0.8476   -1.275218493714013    9.376984527449402    34.02877843876807
2   0.7905294451659223   0.3716518349537187  -0.4817882931864542               0.4238    26.44061172272736    19.29256890075359    -14.0219091342529
3   -0.334789467123612   -0.651603782191251  -0.5047185762281753               0.4238   -24.44680815009189   -27.95951375278889   -18.17519991770041
4   0.0210310988709216   0.4866667567782726     2.81240034722718              -0.8476      15.747693337592   -6.626282072664362    33.66177724456603
5  -0.7311060891141385    1.077448376427672    2.684509327263764               0.4238   -29.20169962510809    23.74519123761403    3.349634864829712
6   0.2133099068900873   0.2000455123025607    1.899873206769979               0.4238    12.73542120859463   -17.82894884036377    -38.8430814962105
ITEM: TIMESTEP
4
ITEM: NUMBER OF ATOMS
6
ITEM: BOX BOUNDS pp pp pp
-5.0000000000000000e+00 5.0000000000000000e+00
-5.0000000000000000e+00 5.0000000000000000e+00
-5.0000000000000000e+00 5.0000000000000000e+00
ITEM: ATOMS id x y z q fx fy fz
1   0.1351372346099141 -0.05631608555261171  0.09422707532708642              -0.8476   -1.073184732836265     9.68645066074644    34.45742039129423
2   0.7905147842870938   0.3715473789960164  -0.4817622176862684               0.4238     26.5161456602518    19.33734972838905   -14.09188726836749
3  -0.3345579701673042  -0.6513206777465557  -0.5044162574319926               0.4238   -24.72515403992675   -28.31203792563549   -18.52971186842605
4  0.02102488076039752   0.4866689745060592    2.812440639436343              -0.8476    15.77454525434607   -6.661577141613409      33.541782023086
5   -0.731193875138282    1.077313139125185    2.684522713513149               0.4238   -29.22197456194889    23.75595583538499    3.366322091265685
6   0.2132509333838056   0.2001492017664377    1.899774379079309               0.4238    12.72962242011402   -17.80614115727158   -38.74392536885237
ITEM: TIMESTEP
5
ITEM: NUMBER OF ATOMS
6
ITEM: BOX BOUNDS pp pp pp
-5.0000000000000000e+00 5.0000000000000000e+00
-5.0000000000000000e+00 5.0000000000000000e+00
-5.0000000000000000e+00 5.0000000000000000e+00
ITEM: ATOMS id x y z q fx fy fz
1   0.1351390349259284 -0.05632754563776633  0.09417156662358885              -0.8476  -0.8709826142052504    9.995489458792376    34.88397231960877
2   0.7905012240387557   0.3714437256917987  -0.4817367271112445               0.4238    26.59055362826141    19.38135663959321   -14.16093896549657
3  -0.3343274995011204  -0.6510387484761329  -0.5041147077659136               0.4238    -25.0025313357401   -28.66335869661777   -18.88301384310895
4  0.02101870390185622   0.4866711748131683    2.812481019360555              -0.8476    15.80046205890999   -6.696399194324462    33.41965269372842
5  -0.7312828741062902    1.077178887883404    2.684536239491618               0.4238   -29.24085441434824    23.76560641055394     3.38318466013993
6   0.2131924882578831   0.2002521521341381    1.899673943208245               0.4238    12.72335267712218   -17.78269461799729   -38.64285686487162
ITEM: TIMESTEP
6
ITEM: NUMBER OF ATOMS
6
ITEM: BOX BOUNDS pp pp pp
-5.0000000000000000e+00 5.0000000000000000e+00
-5.0000000000000000e+00 5.0000000000000000e+00
-5.0000000000000000e+00 5.0000000000000000e+00
ITEM: ATOMS id x y z q fx fy fz
1   0.1351408329642378 -0.05633897958373581  0.09411614914509982              -0.8476  -0.6686220839802095    10.30408566041395    35.30841367059475
2   0.7904887675094292   0.3713408768677019  -0.4817118243275761               0.4238    26.66383202633605    19.42458774033268   -14.22906119608213
3  -0.3340980666384197  -0.6507580089625828  -0.5038139418947742               0.4238   -25.27892652420753    -29.0134588987136   -19.23508837805982
4  0.02101256836307269   0.4866733576085368    2.812521486680437              -0.8476    15.82544123107061   -6.730746128517861    33.29539412028381
5  -0.7313730868018268    1.077045623102905      2.6845499058991               0.4238   -29.25833786644186    23.77414304797979    3.400222470310398
6   0.2131345712520757   0.2003543643788794    1.899571903351931               0.4238    12.71661321722296   -17.75861142149495     -38.539880687047
ITEM: TIMESTEP
7
ITEM: NUMBER OF ATOMS
6
ITEM: BOX BOUNDS pp pp pp
-5.0000000000000000e+00 5.0000000000000000e+00
-5.0000000000000000e+00 5.0000000000000000e+00
-5.0000000000000000e+00 5.0000000000000000e+00
ITEM: ATOMS id x y z q fx fy fz
1   0.1351426292540348  -0.0563503865835108  0.09406082400157509              -0.8476   -0.466113097432399    10.61222402361162    35.73072400319434
2   0.7904774177407495   0.3712388343181596  -0.4816875121628764               0.4238    26.73597730574524    19.46704117218799   -14.29625097876385
3  -0.3338696830517962  -0.6504784737378426  -0.5035139744324619               0.4238   -25.55432613480862   -29.36232142003674   -19.58591807495653
4  0.02100647420936992   0.4866755228023441    2.812562041071039              -0.8476    15.84948029927221   -6.764615870074087    33.16901127333529
5  -0.7314645139505938    1.076913345138026    2.684563713442801               0.4238   -29.27442366950298    23.78156588633465    3.417435408621104
6   0.2130771820866423   0.2004558395003055    1.899468263784697               0.4238    12.70940529672654   -17.73389379202345   -38.43500163143035
ITEM: TIMESTEP
8
ITEM: NUMBER OF ATOMS
6
ITEM: BOX BOUNDS pp pp pp
-5.0000000000000000e+00 5.0000000000000000e+00
-5.0000000000000000e+00 5.0000000000000000e+00
-5.0000000000000000e+00 5.0000000000000000e+00
ITEM: ATOMS id x y z q fx fy fz
1   0.1351444243249004 -0.05636176583127927  0.09400559229739761              -0.8476  -0.2634656184897839    10.91988932628616    36.15088298941571
2   0.7904671777273182   0.3711375998053263  -0.4816637934060546               0.4238    26.80698596963038    19.50871511244288   -14.36250538049242
3  -0.3336423601725192  -0.6502001572824756  -0.5032148199411934               0.4238   -25.82871674046221   -29.70992920465404   -19.93548560173633
4  0.02100042150361243   0.4866776703060176    2.812602682201858              -0.8476    15.87257684079213   -6.798006373144871    33.04050923004294
5  -0.7315571562202796    1.076782054296874    2.684577662837194               0.4238    -29.2891106420306    23.78787511806774    3.434823349885866
6   0.2130203204623969    0.200556578524394    1.899363028859856               0.4238    12.70173019056008   -17.70854397899786   -38.32822458711576
ITEM: TIMESTEP
9
ITEM: NUMBER OF ATOMS
6
ITEM: BOX BOUNDS pp pp pp
-5.0000000000000000e+00 5.0000000000000000e+00
-5.0000000000000000e+00 5.0000000000000000e+00
-5.0000000000000000e+00 5.0000000000000000e+00
ITEM: ATOMS id x y z q fx fy fz
1   0.1351462187067775 -0.05637311652246628   0.0939504551313243              -0.8476 -0.06068961928131067     11.2270663669645    36.56887041533422
2   0.7904580504165585   0.3710371750590011  -0.4816406708071941               0.4238    26.87685457318394    19.54960777417126   -14.42782151664053
3  -0.3334161093899767  -0.6499230740249635  -0.5029164929307955               0.4238   -26.10208495815944   -30.05626525339989   -20.28377369348511
4  0.02099441030619994   0.4866798000322377    2.812643409736849              -0.8476    15.89472848191243   -6.830915620261046    32.90989317392565
5  -0.7316510142205104    1.076651750841332    2.684591754804016               0.4238   -29.30239766983362    23.79307098936589    3.452386156872677
6   0.2129639860607618   0.2006565825033634    1.899256203009502               0.4238      12.693589192178   -17.68256425684072   -38.21955453600689
ITEM: TIMESTEP
10
ITEM: NUMBER OF ATOMS
6
ITEM: BOX BOUNDS pp pp pp
-5.0000000000000000e+00 5.0000000000000000e+00
-5.0000000000000000e+00 5.0000000000000000e+00
-5.0000000000000000e+00 5.0000000000000000e+00
ITEM: ATOMS id x y z q fx fy fz
1   0.1351480129299454 -0.05638443785377375   0.0938954135964333              -0.8476   0.1422049203185991    11.53373996552381    36.98466618208609
2   0.7904500387085718   0.3709375617765542  -0.4816181470774331               0.4238    26.94557972382697    19.58971740632315   -14.49219655111115
3  -0.3331909420511194  -0.6496472383410012  -0.5026190078579882               0.4238   -26.37441744959466   -30.40131262468746   -20.63076515332177
4  0.02098844067506116   0.4866819118949435    2.812684223334438              -0.8476    15.91593289809108   -6.863341622440284    32.77716839463679
5   -0.731746088502803     1.07652243498707    2.684605990072264               0.4238   -29.31428370611365    23.79715380011302    3.470123680288538
6   0.2129081785438209   0.2007558525155785    1.899147790744306               0.4238    12.68498361347166   -17.65595692483224    -38.1089965525785
ITEM: TIMESTEP
11
ITEM: NUMBER OF ATOMS
6
ITEM: BOX BOUNDS pp pp pp
-5.0000000000000000e+00 5.0000000000000000e+00
-5.0000000000000000e+00 5.0000000000000000e+00
-5.0000000000000000e+00 5.0000000000000000e+00
ITEM: ATOMS id x y z q fx fy fz
1    0.135149807524993 -0.05639572902322014  0.09384046878007131              -0.8476   0.3452080131472668     11.8398949639162    37.39825030685715
2   0.7904431454559974   0.3708387616228535  -0.4815962248888463               0.4238    27.01315808138362    19.62904229380841   -14.55562769644301
3  -0.3329668694599068   -0.649372664552793  -0.5023223791256709               0.4238   -26.64570092179513   -30.74505443531856    -20.9764428532805
4  0.02098251266564773    0.486684005809338    2.812725122647537              -0.8476    15.93618781412874   -6.895282419291807    32.64234028773313
5  -0.7318423795605224    1.076394106903557    2.684620369378185               0.4238   -29.32476777154247    23.80012390384512    3.488035758765294
6   0.2128528975543744   0.2008543896654545      1.8990377966533               0.4238    12.67591478467798   -17.62872430695936   -37.99655580363207
ITEM: TIMESTEP
12
ITEM: NUMBER OF ATOMS
6
ITEM: BOX BOUNDS pp pp pp
-5.0000000000000000e+00 5.0000000000000000e+00
-5.0000000000000000e+00 5.0000000000000000e+00
-5.0000000000000000e+00 5.0000000000000000e+00
ITEM: ATOMS id x y z q fx fy fz
1   0.1351516030227935 -0.05640698923018011  0.09378562176380137              -0.8476   0.5483096652104669    12.14551622689123    37.80960292386402
2   0.7904373734638734   0.3707407762301939  -0.4815749068743298               0.4238    27.07958635825346    19.66758075757897    -14.6181122139137
3  -0.3327439028767563  -0.6490993669283521  -0.5020266210822116               0.4238   -26.91592212774805   -31.08747386128983   -21.32078973518819
4  0.02097662633092822   0.4866860816918928    2.812766107323557              -0.8476    15.95549100433442   -6.926736079120177    32.50541435444067
5  -0.7319398878288406    1.076266766714076    2.684634893465273               0.4238   -29.33384895433803    23.80198170770423    3.506122218845693
6   0.2127981427159939   0.2009521950833613    1.898926225403668               0.4238    12.66638405428774   -17.60086875176442   -37.88223754804851
ITEM: TIMESTEP
13
ITEM: NUMBER OF ATOMS
6
ITEM: BOX BOUNDS pp pp pp
-5.0000000000000000e+00 5.0000000000000000e+00
-5.0000000000000000e+00 5.0000000000000000e+00
-5.0000000000000000e+00 5.0000000000000000e+00
ITEM: ATOMS id x y z q fx fy fz
1   0.1351533999544775 -0.05641821767542408   0.0937308736233509              -0.8476   0.7514998761393605    12.45058864271771    38.21870428532969
2   0.7904327254895006   0.3706436071982277  -0.4815541956274869               0.4238     27.1448613195819    19.70533115470968   -14.67964741364034
3  -0.3325220535179925  -0.6488273596808024  -0.5017317480207389               0.4238   -27.18506786702597    -31.4285541385966   -21.66378881153841
4  0.02097078172138238   0.4866881394603534    2.812807177004424              -0.8476    15.97384029268655   -6.957700699025651    32.36639620141401
5  -0.7320386136846986     1.07614041449574     2.68464956308426               0.4238   -29.34152641033519    23.80272767238798    3.524382874970652
6   0.2127439136330785   0.2010492699255256    1.898813081740526               0.4238    12.65639278895335   -17.57239263219311    -37.7660471365356
ITEM: TIMESTEP
14
ITEM: NUMBER OF ATOMS
6
ITEM: BOX BOUNDS pp pp pp
-5.0000000000000000e+00 5.0000000000000000e+00
-5.0000000000000000e+00 5.0000000000000000e+00
-5.0000000000000000e+00 5.0000000000000000e+00
ITEM: ATOMS id x y z q fx fy fz
1   0.1351551988514074 -0.05642941356115778  0.09367622542856011              -0.8476   0.9547686396490289    12.75509712390552    38.62553476245284
2   0.7904292042423079   0.3705472560938959  -0.4815340937025167               0.4238    27.20897978342738    19.74229187847685   -14.74023065467738
3  -0.3323013325552995  -0.6485566569676823  -0.5014377741784367               0.4238   -27.45312498641045   -31.76827856403469   -22.00542316636255
4   0.0209649788849954   0.4866901790337445     2.81284833132659              -0.8476    15.99123355299376   -6.988174405004827    32.22529154049054
5  -0.7321385574467717    1.076015050279513    2.684664378993106               0.4238   -29.34779936305523    23.80236231209831     3.54281752946663
6   0.2126902098909114   0.2011456153739322    1.898698370486697               0.4238    12.64594237339552   -17.54329834544117   -37.64799001137008
ITEM: TIMESTEP
15
ITEM: NUMBER OF ATOMS
6
ITEM: BOX BOUNDS pp pp pp
-5.0000000000000000e+00 5.0000000000000000e+00
-5.0000000000000000e+00 5.0000000000000000e+00
-5.0000000000000000e+00 5.0000000000000000e+00
ITEM: ATOMS id x y z q fx fy fz
1   0.1351570002451509 -0.05644057609106165  0.09362167824333056              -0.8476     1.15810594399612    13.05902660792521    39.03007484637001
2   0.7904268123837204   0.3704517244513618  -0.4815146036141045               0.4238    27.27193862092681    19.77846135843564   -14.79985934511195
3  -0.3320817511151754  -0.6482872728902517   -0.501144713735842               0.4238    -27.7200803805133   -32.10663049599859   -22.34567595609573
4  0.02095921786725235   0.4866922003323741    2.812889569921054              -0.8476    16.00766870905157   -7.018155352048275    32.08210618843747
5  -0.7322397193754374     1.07589067405023    2.684679341956998               0.4238   -29.35266710377059    23.80088619448617    3.561425972534122
6   0.2126370310557174   0.2012412326362251    1.898582096542489               0.4238    12.63503421030939   -17.51358831280016   -37.52807170613392
ITEM: TIMESTEP
16
ITEM: NUMBER OF ATOMS
6
ITEM: BOX BOUNDS pp pp pp
-5.0000000000000000e+00 5.0000000000000000e+00
-5.0000000000000000e+00 5.0000000000000000e+00
-5.0000000000000000e+00 5.0000000000000000e+00
ITEM: ATOMS id x y z q fx fy fz
1    0.135158804667455  -0.0564517044703303  0.09356723312557427              -0.8476    1.361501772437709    13.36236205792723    39.43230514911124
2   0.7904255525270295    0.370357013771946  -0.4814957278373144               0.4238    27.33373475645801    19.81383806049528   -14.85853094215644
3  -0.3318633202783876  -0.6480192214928011  -0.5008525808161461               0.4238   -27.98592099239587   -32.44359335527727    -22.6845304104397
4  0.02095349871113279   0.4866942032778392    2.812930892413371              -0.8476    16.02314373479609   -7.047641724235602    31.93684606669795
5  -0.7323420996727456    1.075767285746619    2.684694452748333               0.4238   -29.35612899156659    23.79829994059401    3.580207982236683
6    0.212584376674721   0.2013361229456062    1.898464264885463               0.4238    12.62366972027064   -17.48326497950365   -37.40629784544975
ITEM: TIMESTEP
17
ITEM: NUMBER OF ATOMS
6
ITEM: BOX BOUNDS pp pp pp
-5.0000000000000000e+00 5.0000000000000000e+00
-5.0000000000000000e+00 5.0000000000000000e+00
-5.0000000000000000e+00 5.0000000000000000e+00
ITEM: ATOMS id x y z q fx fy fz
1   0.1351606126502198 -0.05646279790571177  0.09351289112716291              -0.8476    1.564946103690716    13.66508846346067    39.83220640455016
2   0.7904254272372654   0.3702631255240623  -0.4814774688074832               0.4238    27.39436516779985    19.84842048699264   -14.91624295223865
3  -0.3316460510794314  -0.6477525167619635  -0.5005613894844981               0.4238   -28.25063381418668   -32.77915062584773   -23.02196983322218
4  0.02094782145710542   0.4866961877930301    2.812972298423674              -0.8476     16.0376566544571   -7.076631734830783    31.78951720112797
5  -0.7324456984823918    1.075644885261332    2.684709712146714               0.4238   -29.35818445340105    23.79460422479643    3.599163324490323
6    0.212532246276206   0.2014302875607347    1.898344880570202               0.4238    12.61185034164006   -17.45233081457122   -37.28267414470763
ITEM: TIMESTEP
18
ITEM: NUMBER OF ATOMS
6
ITEM: BOX BOUNDS pp pp pp
-5.0000000000000000e+00 5.0000000000000000e+00
-5.0000000000000000e+00 5.0000000000000000e+00
-5.0000000000000000e+00 5.0000000000000000e+00
ITEM: ATOMS id x y z q fx fy fz
1   0.1351624247254721 -0.05647385560554683  0.09345865329387748              -0.8476    1.768428912389943    13.96719084118903    40.22975946934625
2   0.7904264390310712   0.3701700611431559  -0.4814598289201173               0.4238    27.45382688629099     19.8822071767649   -14.97299293108985
3  -0.3314299545059898  -0.6474871726260288  -0.5002711537473122               0.4238   -28.51420588769638   -33.11328585566469   -23.35797760325094
4  0.02094218614312295   0.4866981538021351    2.813013787566681              -0.8476    16.05120554270508    -7.10512362637259    31.64012572173024
5  -0.7325505158896943    1.075523472440965    2.684725120938938               0.4238   -29.35883298415791     23.7897997747361    3.618291753054139
6   0.2124806393695741   0.2015237277656239     1.89822394872807               0.4238    12.59957753046826   -17.42078831065276   -37.15720640978982
ITEM: TIMESTEP
19
ITEM: NUMBER OF ATOMS
6
ITEM: BOX BOUNDS pp pp pp
-5.0000000000000000e+00 5.0000000000000000e+00
-5.0000000000000000e+00 5.0000000000000000e+00
-5.0000000000000000e+00 5.0000000000000000e+00
ITEM: ATOMS id x y z q fx fy fz
1   0.1351642414253394 -0.05648487677980814  0.09340452066535823              -0.8476    1.971940169549321    14.26865423560776    40.62494532388142
2   0.7904285903765803   0.3700778220316425  -0.4814428105307914               0.4238    27.51211699698404    19.91519670521892   -15.02877848382911
3  -0.3312150414983956  -0.6472232029542609  -0.4999818875515776               0.4238   -28.77662430503114   -33.44598265744861   -23.69253717516558
4  0.02093659280461705    0.486700101230645    2.813055359451719              -0.8476    16.06378852479936   -7.133115670766657    31.48867786238032
5  -0.7326565519215722    1.075403047086097    2.684740679918986               0.4238   -29.35807414670082    23.78388737125983    3.637593009521286
6   0.2124295554454063   0.2016164448695379    1.898101474566973               0.4238    12.58685276039925   -17.38863998387124   -37.02990053678833
ITEM: TIMESTEP
20
ITEM: NUMBER OF ATOMS
6
ITEM: BOX BOUNDS pp pp pp
-5.0000000000000000e+00 5.0000000000000000e+00
-5.0000000000000000e+00 5.0000000000000000e+00
-5.0000000000000000e+00 5.0000000000000000e+00
ITEM: ATOMS id x y z q fx fy fz
1   0.1351660632820236 -0.05649586064013935  0.09335049427505493              -0.8476    2.175469843020908    14.56946371975798    41.01774507318884
2   0.7904318836932948   0.3699864095588495  -0.4814264159550484               0.4238    27.56923263879908    19.94738768440019   -15.08359726504601
3   -0.331001322949096  -0.6469606215562175  -0.4996936047841716               0.4238   -29.03787620920341   -33.77722470946976   -24.02563208028373
4  0.02093104147449346   0.4867020300053579    2.813097013682738              -0.8476       16.07540377673   -7.160606169372227    31.33517996055122
5  -0.7327638065465277    1.075283608951316    2.684756389888013               0.4238   -29.35590757192032    23.77686784834931    3.657066823310673
6   0.2123789939755237   0.2017084402068877    1.897977463371116               0.4238    12.57367752257374    -17.3558883736655   -36.90076251172099
ITEM: TIMESTEP
21
ITEM: NUMBER OF ATOMS
6
ITEM: BOX BOUNDS pp pp pp
-5.0000000000000000e+00 5.0000000000000000e+00
-5.0000000000000000e+00 5.0000000000000000e+00
-5.0000000000000000e+00 5.0000000000000000e+00
ITEM: ATOMS id x y z q fx fy fz
1   0.1351678908277749 -0.05650680639989416  0.09329657515017745              -0.8476    2.379007897955513    14.86960439594067    41.40813994787606
2   0.7904363213519672    0.369895825060958   -0.481410647468303               0.4238    27.62517100467397    19.97877876305955   -15.13744697888055
3  -0.3307888097021183  -0.6466994421810727  -0.4994063192711766               0.4238   -29.29794879474092   -34.10699575633011   -24.35724592744416
4  0.02092553218312719   0.4867039400543834    2.813138749858326              -0.8476    16.08604952536009   -7.187593453089915    31.17963845702948
5  -0.7328722796746308    1.075165157745257    2.684772251654338               0.4238   -29.35233295878039     23.7687420930516    3.676712911659372
6   0.2123289544130493   0.2017997151371248    1.897851920500751               0.4238    12.56005332553174   -17.32253604263179    -36.7697984102402
ITEM: TIMESTEP
22
ITEM: NUMBER OF ATOMS
6
ITEM: BOX BOUNDS pp pp pp
-5.0000000000000000e+00 5.0000000000000000e+00
-5.0000000000000000e+00 5.0000000000000000e+00
-5.0000000000000000e+00 5.0000000000000000e+00
ITEM: ATOMS id x y z q fx fy fz
1    0.135169724594865 -0.05651771327417528  0.09324276431164666              -0.8476    2.582544297263268    15.16906139642925    41.79611130504111
2   0.7904419056744836   0.3698060698409468  -0.4813955073057457               0.4238    27.67992934171223    20.00936862671813   -15.19032537910042
3  -0.3305775125525389  -0.6464396785169421  -0.4991200447771989               0.4238   -29.55682930829335    -34.4352796097421   -24.68736240384544
4  0.02092006495835792   0.4867058313071472    2.813180567571726              -0.8476    16.09572404856372   -7.214075882446428    31.02205989562662
5  -0.7329819711575065    1.075047693130634    2.684788266033429               0.4238   -29.34735007436019    23.75951104540571    3.696530979615641
6   0.2122794361924709   0.2018902710446358    1.897724851391929               0.4238    12.54598169511431   -17.28858557636455   -36.63701439733751
ITEM: TIMESTEP
23
ITEM: NUMBER OF ATOMS
6
ITEM: BOX BOUNDS pp pp pp
-5.0000000000000000e+00 5.0000000000000000e+00
-5.0000000000000000e+00 5.0000000000000000e+00
-5.0000000000000000e+00 5.0000000000000000e+00
ITEM: ATOMS id x y z q fx fy fz
1   0.1351715651155618 -0.05652858047987327  0.09318906277404571              -0.8476    2.786069002074776    15.46781988418089    42.18164062918049
2   0.7904486389337495    0.369717145168538  -0.4813809976622497               0.4238    27.73350495132803    20.03915599773037   -15.24223026917536
3  -0.3303674422459538   -0.646181344190211  -0.4988347950046924               0.4238   -29.81450504923659   -34.76206014930411   -25.01596527588013
4  0.02091463982548549   0.4867077036943951    2.813222466410855              -0.8476    16.10442567535956   -7.240051847675512    30.86245092288801
5  -0.7330928807883258    1.074931214724288    2.684804433847893               0.4238   -29.34095875389128    23.74917569836579    3.716520720033106
6   0.2122304387297041   0.2019801093386344     1.89759626155624               0.4238     12.5314641743655   -17.25403958329742   -36.50241672704612
ITEM: TIMESTEP
24
ITEM: NUMBER OF ATOMS
6
ITEM: BOX BOUNDS pp pp pp
-5.0000000000000000e+00 5.0000000000000000e+00
-5.0000000000000000e+00 5.0000000000000000e+00
-5.0000000000000000e+00 5.0000000000000000e+00
ITEM: ATOMS id x y z q fx fy fz
1   0.1351734129221022  -0.0565394072357054  0.09313547154557159              -0.8476    2.989571972201566     15.7658650535464    42.56470953309284
2   0.7904565233535781   0.3696290522801441  -0.4813671206922799               0.4238    27.78589518938991    20.06813963534603   -15.29315950235002
3  -0.3301586094779511  -0.6459244527648654  -0.4985505835932841               0.4238   -30.07096337027514   -35.08732132327341   -25.34303838996525
4  0.02090925680726549   0.4867095571481975    2.813264445958319              -0.8476    16.11215278604598   -7.265519768801065    30.70081828779286
5   -0.733205008301798    1.074815722097218    2.684820755927464               0.4238    -29.3331589007949    23.73773709772421    3.736681813564758
6   0.2121819614221565   0.2020692314530535    1.897466156580554               0.4238    12.51650232343259   -17.21890069454216   -36.36601174213519
ITEM: TIMESTEP
25
ITEM: NUMBER OF ATOMS
6
ITEM: BOX BOUNDS pp pp pp
-5.0000000000000000e+00 5.0000000000000000e+00
-5.0000000000000000e+00 5.0000000000000000e+00
-5.0000000000000000e+00 5.0000000000000000e+00
ITEM: ATOMS id x y z q fx fy fz
1   0.1351752685466666 -0.05655019276225432  0.09308199162798704              -0.8476    3.193043166598308    16.06318213097945    42.94529975877275
2   0.7904655611085799   0.3695417923788159  -0.4813538785098037               0.4238    27.83709746636004    20.09631833576922    -15.3431109817127
3  -0.3299510248935867  -0.6456690177418255  -0.4982674241191042               0.4238   -30.32619167804183   -35.41104714933556   -25.66856567336794
4  0.02090391592390509   0.4867113916019531    2.813306505791434              -0.8476    16.11890381232913   -7.290478095714741    30.53716884145059
5  -0.7333183533741674    1.074701214774632    2.684837233108986               0.4238   -29.32395048671239    23.72519634202959    3.757013928658649
6   0.2121340036487927   0.2021576388464359    1.897334542126763               0.4238    12.50109771946675   -17.18317156372796   -36.22780587380135
ITEM: TIMESTEP
26
ITEM: NUMBER OF ATOMS
6
ITEM: BOX BOUNDS pp pp pp
-5.0000000000000000e+00 5.0000000000000000e+00
-5.0000000000000000e+00 5.0000000000000000e+00
-5.0000000000000000e+00 5.0000000000000000e+00
ITEM: ATOMS id x y z q fx fy fz
1   0.1351771325213519 -0.05656093628200672  0.09302862401657284              -0.8476      3.3964725438243    16.35975637574429    43.32339317829975