ITEM: TIMESTEP
0
ITEM: NUMBER OF ATOMS
77
ITEM: BOX BOUNDS pp pp pp
-5.9265999999999996e+00 5.9926000000000004e+00
-5.9265999999999996e+00 5.9926000000000004e+00
-5.9265999999999996e+00 5.9926000000000004e+00
ITEM: ATOMS id x y z q v_fx v_fy v_fz
1                    0              4.38651              2.18123             1.910418 1.745010827851807e-06 0.001270205727323951 0.001244410152031328
2                    0             -4.38651              2.18123             1.910418 1.745010827851339e-06 -0.0001200863175585988 0.000942218721524953
3                    0              4.38651             -2.18123             1.910418 1.256677751486989e-06 0.001317287595673032 -0.001295822143719831
4                    0             -4.38651             -2.18123             1.910418 1.256677751487738e-06 -0.0001706524685401937 -0.0009937175781957279
5              2.18123                    0              4.38651             1.910418 0.001241919825442288 1.090643507861375e-06 0.001319085033803091
6              2.18123                    0             -4.38651             1.910418 0.0009494787687874058 2.128013288239483e-06 -0.0001295298943123137
7             -2.18123                    0              4.38651             1.910418 -0.001275225670750422 1.090643507861375e-06 0.001294973703517242
8             -2.18123                    0             -4.38651             1.910418 -0.0009828849043358487 2.128013288238781e-06 -0.000102168372371645
9              4.38651              2.18123                    0             1.910418 0.001292386626040253 0.001250222365722468 -1.062386209691537e-05
10             -4.38651              2.18123                    0             1.910418 -0.0001435969837173673 0.0009481586162239036 -1.174228643669132e-05
11              4.38651             -2.18123                    0             1.910418 0.001266105063147973 -0.001283490080655325 -1.012663714605232e-05
12             -4.38651             -2.18123                    0             1.910418 -0.0001173154208250852 -0.0009814263311567666 -1.124506148582813e-05
13              4.38651                    0             -2.18123             1.910418 0.001244122216311469 1.745704288782341e-06 -0.001276131679899934
14             -4.38651                    0             -2.18123             1.910418 -9.400164393894838e-05 1.745704288782902e-06 -0.0009739387601809531
15              4.38651                    0              2.18123             1.910418 0.001340370396899037 1.257177150635081e-06 0.001261404005990265
16             -4.38651                    0              2.18123             1.910418 -0.0001937327230678699 1.257177150636111e-06 0.0009592979167474495
17                    0              2.18123             -4.38651             1.910418 1.090210262283977e-06 0.0009401678799177232 -0.0001725305785031469
18                    0              2.18123              4.38651             1.910418 2.127167959459166e-06 0.001250502296351909 0.001277701753723685
19                    0             -2.18123             -4.38651             1.910418 1.090210262283415e-06 -0.0009734732046792924 -0.0001484214879903537
20                    0             -2.18123              4.38651             1.910418 2.127167959460664e-06 -0.001283907951208765 0.001250341179941777
21              2.18123              4.38651                    0             1.910418 0.001251926606976473 0.001293059022732214 1.492489248394002e-05
22              2.18123             -4.38651                    0             1.910418 0.0009498643980222848 -0.0001442710719232359 1.60437612814635e-05
23             -2.18123              4.38651                    0             1.910418 -0.001285194857395965 0.001266776083056524 1.44278650499618e-05
24             -2.18123             -4.38651                    0             1.910418 -0.0009831326484417808 -0.0001179881322475471 1.554673384748677e-05
25                    0              -5.9266               2.6486            -0.955209 -7.229318843773151e-07 -0.002032067840248246 -0.001546545930884067
26                    0              -5.9266              -2.6486            -0.955209 9.362649895641394e-20 -0.002033908339330341 0.001394772397661084
27               2.6486                    0              -5.9266            -0.955209 -0.001487133117468463 -4.319799460625303e-07 -0.002037638006215042
28              -2.6486                    0              -5.9266            -0.955209 0.001494881092225137 -4.31979946062741e-07 -0.002039034485936718
29              -5.9266               2.6486                    0            -0.955209 -0.002032793521747405 -0.001461020634676269 6.095802331379776e-06
30              -5.9266              -2.6486                    0            -0.955209 -0.002033139469436122 0.001470645133792775 5.557026857120212e-06
31              -5.9266                    0              -2.6486            -0.955209 -0.002032414935978331 -7.232191748678774e-07 0.001554825515680958
32              -5.9266                    0               2.6486            -0.955209 -0.002033576682300996 -2.340662473910349e-20 -0.001384269078558438
33                    0               2.6486              -5.9266            -0.955209 -4.194073520657786e-07 -0.001486935472057879 -0.002024505660146191
34                    0              -2.6486              -5.9266            -0.955209 -4.194073520657786e-07 0.001494681714334653 -0.002023860581711445
35               2.6486              -5.9266                    0            -0.955209 -0.001462303003589018 -0.002032793271245812 -7.225091450541106e-06
36              -2.6486              -5.9266                    0            -0.955209 0.001471926904612862 -0.002033139238367271 -6.686529998635569e-06
37                    0              3.45272              3.45272            -0.955209 -9.859989114747236e-07 -0.0003592286672662809 -0.0003550203904149622
38                    0             -3.45272              3.45272            -0.955209 -9.859989114752852e-07 0.0006404541004499086 -0.0002319394174892276
39                    0              3.45272             -3.45272            -0.955209 -5.825957324947222e-07 -0.0002555716076691898 0.0006675073631954063
40                    0             -3.45272             -3.45272            -0.955209 -5.825957324946286e-07 0.0005381111239911536 0.0005458273863922624
41              3.45272                    0              3.45272            -0.955209 -0.000377172593329006 -5.828272539112354e-07 -0.0003846148535601684
42              3.45272                    0             -3.45272            -0.955209 -0.0002372345953056338 -9.863907438421417e-07 0.0006364094332879613
43             -3.45272                    0              3.45272            -0.955209 0.000659711489230399 -5.828272539112354e-07 -0.0002629336087863143
44             -3.45272                    0             -3.45272            -0.955209 0.0005184599300730855 -9.863907438420479e-07 0.0005133277489210965
45              3.45272              3.45272                    0            -0.955209 -0.000365463946624919 -0.0003649144303778374 -1.082246480950831e-06
46             -3.45272              3.45272                    0            -0.955209 0.0006470961590212079 -0.0002423601867244255 -6.598182397261142e-07
47              3.45272             -3.45272                    0            -0.955209 -0.0002429106240156515 0.0006465469028819851 -1.504842593617731e-06
48             -3.45272             -3.45272                    0            -0.955209 0.0005245428364119404 0.0005239926592285744 -1.082414352391984e-06
49              1.28702              1.28702              4.12598            -0.955209 -0.000612737902254792 -0.0006305407211112396 -0.0001484034279381843
50             -1.28702             -1.28702              4.12598            -0.955209 0.0006189627044203476 0.0006383202545133532 -0.0001344701408670824
51             -1.28702              1.28702             -4.12598            -0.955209 0.0006386518838802552 -0.00060804531430205 0.000380802440931218
52              1.28702             -1.28702             -4.12598            -0.955209 -0.0006271965832023681 0.0006192006171534432 0.0003822622495712105
53              4.12598              1.28702              1.28702            -0.955209 -0.0001651258831268446 -0.0006370130219487042 -0.0006169454237618943
54              4.12598             -1.28702             -1.28702            -0.955209 -0.0001201818572777992 0.0006226047649384834 0.0006344859312564913
55             -4.12598             -1.28702              1.28702            -0.955209 0.0003978059557175622 0.0006447388712701782 -0.0006120887864659677
56             -4.12598              1.28702             -1.28702            -0.955209 0.0003656150087875538 -0.0006110902472025272 0.0006351891091509531
57              1.28702              4.12598              1.28702            -0.955209 -0.0006163926781496043 -0.0001343967752136746 -0.0006287666087789548
58             -1.28702              4.12598             -1.28702            -0.955209 0.0006453005465981643 -0.0001521442174976642 0.0006239922912302734
59              1.28702             -4.12598             -1.28702            -0.955209 -0.0006342416428510526 0.0003997573355917309 0.0006234916693409819
60             -1.28702             -4.12598              1.28702            -0.955209 0.0006231125012734474 0.0003659822995855985 -0.0006245776839268279
61              1.28702              1.28702             -4.12598            -0.955209 -0.0006290340714438247 -0.0006105110195591026 0.0003884986989143311
62             -1.28702             -1.28702             -4.12598            -0.955209 0.0006368143956388007 0.0006167349118963923 0.0003745659915880972
63              1.28702             -1.28702              4.12598            -0.955209 -0.0006102722973638274 0.0006401580926330009 -0.0001407075407875755
64             -1.28702              1.28702              4.12598            -0.955209 0.0006214283093113099 -0.00062870288299159 -0.0001421660280176924
65              1.28702              4.12598             -1.28702            -0.955209 -0.0006359074935897657 -0.0001596101962916328 0.0006261701960815003
66             -1.28702              4.12598              1.28702            -0.955209 0.0006255099024452941 -0.0001274721729141307 -0.0006263201072581742
67             -1.28702             -4.12598             -1.28702            -0.955209 0.000643634695859454 0.0003922913567977633 0.0006213137644897521
68              1.28702             -4.12598              1.28702            -0.955209 -0.000613995276977761 0.000372906901885145 -0.0006270241854476089
69              4.12598              1.28702             -1.28702            -0.955209 -0.0001271057820916897 -0.0006134881804893599 0.000636932324779691
70              4.12598             -1.28702              1.28702            -0.955209 -0.0001576603666774906 0.0006464055447238616 -0.0006147677336475829
71             -4.12598              1.28702              1.28702            -0.955209 0.0004052714721669168 -0.0006353463484950208 -0.0006142664765802799
72             -4.12598             -1.28702             -1.28702            -0.955209 0.0003586910839736638 0.0006202068316516501 0.0006327427156277529
73                    0                    0                    0   -1.525536967379594 0.001507495163797454 0.001508380063370147 0.001506094840844311
74                    0                -0.89              -0.6293   0.3900135354868723 -2.373883683082676e-05 9.569299440464563e-05 -7.512260122697966e-05
75                    0                 0.89              -0.6293   0.3810246486194586 -2.410955345942603e-05 -6.761386966143871e-05 -0.0001277342681943355
76                -0.89                    0               0.6293   0.3817420497055792 2.346843118405941e-05 -2.423349493380457e-05 6.237722861290957e-05
77                 0.89                    0               0.6293    0.372756733569986 4.502110581354988e-06 -2.460423477397213e-05 0.0001141483412066273
ITEM: TIMESTEP
1
ITEM: NUMBER OF ATOMS
77
ITEM: BOX BOUNDS pp pp pp
-5.9265999999999996e+00 5.9926000000000004e+00
-5.9265999999999996e+00 5.9926000000000004e+00
-5.9265999999999996e+00 5.9926000000000004e+00
ITEM: ATOMS id x y z q v_fx v_fy v_fz
1                    0              4.38651              2.18123             1.910418 8.881634175474315e-07 0.001270612489947001 0.001244490928778764
2                    0             -4.38651              2.18123             1.910418 8.856444796268869e-07 -0.0001201052168045847 0.0009419053400455119
3                    0              4.38651             -2.18123             1.910418 2.635132576553007e-07 0.001317208681276661 -0.001295995005396333
4                    0             -4.38651             -2.18123             1.910418 5.29821647432508e-07 -0.0001700161906234824 -0.0009933963394952218
5              2.18123                    0              4.38651             1.910418 0.001241789307259124 9.885219748657304e-07 0.001320193020909395
6              2.18123                    0             -4.38651             1.910418 0.0009490412845118109 1.924063925018736e-06 -0.0001304521242081887
7             -2.18123                    0              4.38651             1.910418 -0.001275890823766462 9.059569930260305e-07 0.001294204332572048
8             -2.18123                    0             -4.38651             1.910418 -0.0009831670025729972 2.090386115800442e-06 -0.00010115694338385
9              4.38651              2.18123                    0             1.910418 0.001293806705133495 0.001251192475355017 -1.068041534749998e-05
10             -4.38651              2.18123                    0             1.910418 -0.0001424541148116402 0.0009470179431370828 -1.186597923813604e-05
11              4.38651             -2.18123                    0             1.910418 0.001267125286606337 -0.001284645055211815 -1.029911791741526e-05
12             -4.38651             -2.18123                    0             1.910418 -0.0001159091791740164 -0.0009803819512875735 -1.123860416806523e-05
13              4.38651                    0             -2.18123             1.910418 0.001245245711843517 1.523821942918278e-06 -0.00127723801860724
14             -4.38651                    0             -2.18123             1.910418 -9.280274925260895e-05 1.698987353254933e-06 -0.0009729137684046975
15              4.38651                    0              2.18123             1.910418  0.00134151431047538 1.148912649715775e-06 0.001262308977636906
16             -4.38651                    0              2.18123             1.910418 -0.0001924526157653749 1.073428616391062e-06 0.0009580206281845089
17                    0              2.18123             -4.38651             1.910418 1.648508451605153e-07 0.0009400393315860603 -0.0001724520315278826
18                    0              2.18123              4.38651             1.910418 1.328405294812578e-06 0.001250686347518551 0.001278149047751299
19                    0             -2.18123             -4.38651             1.910418 3.490099290474849e-07 -0.0009735234984556042 -0.0001480660430154256
20                    0             -2.18123              4.38651             1.910418 1.258659087987565e-06 -0.001284226582333127 0.001250465304285847
21              2.18123              4.38651                    0             1.910418 0.001251743561568035 0.001294366835253879 1.482179370962695e-05
22              2.18123             -4.38651                    0             1.910418 0.0009492195922115834 -0.0001449585228394842 1.579181639080692e-05
23             -2.18123              4.38651                    0             1.910418 -0.001285678915281236 0.001265820825609796 1.420165749162755e-05
24             -2.18123             -4.38651                    0             1.910418 -0.0009832363938161851 -0.0001167766861423196 1.542998545886181e-05
25                    0              -5.9266               2.6486            -0.955209 -4.243409363673276e-07 -0.00203243214357748 -0.00154663817753977
26                    0              -5.9266              -2.6486            -0.955209 8.72044456884055e-08 -0.002034168195594601 0.001394493601281751
27               2.6486                    0              -5.9266            -0.955209 -0.001487093152457809 -3.933230635016224e-07 -0.002038598934334853
28              -2.6486                    0              -5.9266            -0.955209 0.001495034543731443 -4.04226017930493e-07 -0.002039935919368801
29              -5.9266               2.6486                    0            -0.955209 -0.002034196791922165 -0.001460915826048688 6.138954142959173e-06
30              -5.9266              -2.6486                    0            -0.955209 -0.002034456641621996 0.001470656419684491 5.56046684225285e-06
31              -5.9266                    0              -2.6486            -0.955209 -0.002033733687864209 -6.698628426565628e-07 0.001554731501535914
32              -5.9266                    0               2.6486            -0.955209 -0.00203494997538755 1.650739673996086e-08 -0.001384238019986407
33                    0               2.6486              -5.9266            -0.955209  -2.247342443509e-07 -0.001486975126362509 -0.002025456234164674
34                    0              -2.6486              -5.9266            -0.955209 -2.369446448246941e-07 0.001494760043650539 -0.002024849902764396
35               2.6486              -5.9266                    0            -0.955209 -0.001462440123505582 -0.002033073291541628 -7.156522790392105e-06
36              -2.6486              -5.9266                    0            -0.955209 0.001471642193865187 -0.002033491760920757 -6.650192916755552e-06
37                    0              3.45272              3.45272            -0.955209 -5.891387375070687e-07 -0.0003594334617450284 -0.0003551926940523437
38                    0             -3.45272              3.45272            -0.955209 -5.521270462189686e-07 0.0006406009528811918 -0.0002318824146752821
39                    0              3.45272             -3.45272            -0.955209 -8.678398091785426e-08 -0.0002554757281252386 0.0006675131574686379
40                    0             -3.45272             -3.45272            -0.955209 -2.292342358813557e-07 0.0005379704539511517 0.0005455696763708999
41              3.45272                    0              3.45272            -0.955209 -0.0003774601010431719 -5.370930976036134e-07 -0.0003852211925858604
42              3.45272                    0             -3.45272            -0.955209 -0.00023736034526889 -8.632571109534098e-07 0.0006370236168775641
43             -3.45272                    0              3.45272            -0.955209 0.0006596733931513474 -4.792821803246994e-07 -0.0002622716673904638
44             -3.45272                    0             -3.45272            -0.955209 0.0005182285273773397 -9.78350981002766e-07 0.0005126998269719718
45              3.45272              3.45272                    0            -0.955209 -0.00036580803181344 -0.0003656032849806684 -1.052544628851771e-06
46             -3.45272              3.45272                    0            -0.955209 0.000646958187469904 -0.000241716143345309 -5.484948513062108e-07
47              3.45272             -3.45272                    0            -0.955209 -0.0002429362453291584 0.0006471358290854396 -1.386790320138814e-06
48             -3.45272             -3.45272                    0            -0.955209 0.0005242310071148875 0.0005233228780807302 -1.056617651569768e-06
49              1.28702              1.28702              4.12598            -0.955209 -0.0006125233151002382 -0.000630690478777636 -0.0001490190609321928
50             -1.28702             -1.28702              4.12598            -0.955209 0.0006195108040532032 0.0006384060984823524 -0.000134217080084799
51             -1.28702              1.28702             -4.12598            -0.955209 0.0006390193356779946 -0.000607884358425436 0.0003802753067041719
52              1.28702             -1.28702             -4.12598            -0.955209 -0.0006267377486074438 0.0006194158223700114 0.0003824329862805444
53              4.12598              1.28702              1.28702            -0.955209 -0.0001659778317047386 -0.0006373459095210884 -0.0006173576911884767
54              4.12598             -1.28702             -1.28702            -0.955209 -0.0001208030963381427 0.0006231330490484376 0.0006349506680893735
55             -4.12598             -1.28702              1.28702            -0.955209 0.0003968565976218437 0.0006443271151542614 -0.0006115516617791936
56             -4.12598              1.28702             -1.28702            -0.955209 0.0003647703764284561 -0.0006106232065678652 0.0006347895273725153
57              1.28702              4.12598              1.28702            -0.955209 -0.0006160860365232577 -0.0001350474632456863 -0.0006289134811056861
58             -1.28702              4.12598             -1.28702            -0.955209 0.0006457619363108928 -0.000151620255527017 0.0006240004893495409
59              1.28702             -4.12598             -1.28702            -0.955209 -0.000633659568580053 0.0003997165485545904 0.0006235724823087252
60             -1.28702             -4.12598              1.28702            -0.955209 0.0006234586542534042 0.0003655055315180307 -0.0006242565405558536
61              1.28702              1.28702             -4.12598            -0.955209 -0.0006285604401220871 -0.000610537514835461 0.0003889038904789212
62             -1.28702             -1.28702             -4.12598            -0.955209 0.000637119679585045 0.0006166707926810428 0.0003740828448134068
63              1.28702             -1.28702              4.12598            -0.955209 -0.0006099987487002198 0.000640437682594669 -0.0001412567322032801
64             -1.28702              1.28702              4.12598            -0.955209 0.0006219984973325017 -0.0006286327554985867 -0.0001421241504112137
65              1.28702              4.12598             -1.28702            -0.955209 -0.0006354761834553054 -0.0001601554271622647 0.0006264602934964684
66             -1.28702              4.12598              1.28702            -0.955209 0.0006260438928116793 -0.0001272997933426737 -0.000626123466073473
67             -1.28702             -4.12598             -1.28702            -0.955209 0.0006438112707352152 0.0003916283231429891 0.0006211423613493063
68              1.28702             -4.12598              1.28702            -0.955209 -0.0006135244773269659 0.0003732548723635277 -0.0006269004200555764
69              4.12598              1.28702             -1.28702            -0.955209 -0.0001279842927265945 -0.0006138039549410142 0.0006374218385613761
70              4.12598             -1.28702              1.28702            -0.955209 -0.0001584455635292193 0.0006468948147669915 -0.0006151024481458896
71             -4.12598              1.28702              1.28702            -0.955209 0.0004045455999873982 -0.0006347983943398851 -0.0006137368627601153
72             -4.12598             -1.28702             -1.28702            -0.955209 0.0003578478258703388 0.0006198193163937339 0.0006322739726958528
73 -0.0007863173239432191 -7.732868785864854e-05 0.0005120002431834504   -1.526801096485542   0.0014718178449378 0.001535645341041593 0.001458540516884722
74 -0.001192244479771498  -0.8880905048351977  -0.6291982167754433   0.3898883034040068 -1.553884196999244e-06 6.017826057390719e-05 -9.638547019475587e-05
75  0.00264185041894994   0.8901163628568847   -0.628480566653641   0.3806157206227567 9.453854497719405e-07 -5.978180274039879e-05 -0.0001295113989883402
76    -0.88787862051638 0.001480615317360435   0.6307546668905576   0.3811871205316777 -1.469863696438278e-05 -2.683430211741898e-05 0.0001176035784778859
77   0.8879576983964532 -0.001118475556643314   0.6269216412811238   0.3751099519449781 3.645201222932382e-05 -2.075072520038443e-05 0.0001339943007301482
ITEM: TIMESTEP
2
ITEM: NUMBER OF ATOMS
77
ITEM: BOX BOUNDS pp pp pp
-5.9265999999999996e+00 5.9926000000000004e+00
-5.9265999999999996e+00 5.9926000000000004e+00
-5.9265999999999996e+00 5.9926000000000004e+00
ITEM: ATOMS id x y z q v_fx v_fy v_fz
1                    0              4.38651              2.18123             1.910418 2.023128357319153e-08 0.001270998682920491 0.001244560265424546
2                    0             -4.38651              2.18123             1.910418 1.473222681883197e-08 -0.0001201254154787597 0.0009416001777784004
3                    0              4.38651             -2.18123             1.910418 -7.359019272997988e-07 0.001317125520169752 -0.001296154897026317
4                    0             -4.38651             -2.18123             1.910418 -2.046931039987967e-07 -0.0001694010405222144 -0.0009930828038293351
5              2.18123                    0              4.38651             1.910418 0.001241650202627984 8.941175857932836e-07 0.001321321431423984
6              2.18123                    0             -4.38651             1.910418 0.0009486057669551429 1.728543886127568e-06 -0.0001313833354818198
7             -2.18123                    0              4.38651             1.910418 -0.001276554964732797 7.289927094325425e-07 0.001293414643762198
8             -2.18123                    0             -4.38651             1.910418 -0.0009834583887738412 2.060410334976999e-06 -0.0001001446333763834
9              4.38651              2.18123                    0             1.910418 0.001295228496058435 0.001252178713790636 -1.074032071012542e-05
10             -4.38651              2.18123                    0             1.910418 -0.0001412884001471342 0.0009458703650044739 -1.198274872449786e-05
11              4.38651             -2.18123                    0             1.910418 0.001268167361193174 -0.001285809500459879 -1.047457562014692e-05
12             -4.38651             -2.18123                    0             1.910418 -0.0001144997640514322 -0.000979324846031466 -1.122580043236046e-05
13              4.38651                    0             -2.18123             1.910418 0.001246377405315837 1.310396701912652e-06 -0.001278353471938888
14             -4.38651                    0             -2.18123             1.910418 -9.159931852173391e-05 1.659940104511776e-06 -0.000971875907315843
15              4.38651                    0              2.18123             1.910418 0.001342685226773373 1.04866676326625e-06 0.001263229366178082
16             -4.38651                    0              2.18123             1.910418 -0.0001911538087737979 8.979658946588745e-07 0.0009567357506613612
17                    0              2.18123             -4.38651             1.910418 -7.651612872672997e-07 0.0009399191026693535 -0.0001723723707932925
18                    0              2.18123              4.38651             1.910418 5.151547972278168e-07 0.001250870792436225 0.001278579217322142
19                    0             -2.18123             -4.38651             1.910418 -3.977553514130183e-07 -0.0009735752856927957 -0.0001477291947964117
20                    0             -2.18123              4.38651             1.910418 3.755435030984094e-07 -0.001284539002899982 0.001250590423507196
21              2.18123              4.38651                    0             1.910418 0.001251544463712348 0.001295670862210373 1.472148084819393e-05
22              2.18123             -4.38651                    0             1.910418 0.0009485787466554603 -0.0001456665728915933 1.554364884832055e-05
23             -2.18123              4.38651                    0             1.910418 -0.001286155198223886 0.001264842001775114 1.398307232669997e-05
24             -2.18123             -4.38651                    0             1.910418 -0.000983351871377492 -0.000115563758689415 1.532098123418715e-05
25                    0              -5.9266               2.6486            -0.955209 -1.202410230946092e-07 -0.002032844097831828 -0.001546745677000297
26                    0              -5.9266              -2.6486            -0.955209 1.735286226468616e-07 -0.002034474394946204  0.00139420411607164
27               2.6486                    0              -5.9266            -0.955209 -0.001487059073701989 -3.564749303097696e-07 -0.002039624181057657
28              -2.6486                    0              -5.9266            -0.955209 0.001495196178765823 -3.781961788405385e-07 -0.002040890795410652
29              -5.9266               2.6486                    0            -0.955209 -0.002035679080566268 -0.00146081466696408 6.182382331382995e-06
30              -5.9266              -2.6486                    0            -0.955209 -0.00203585129649458 0.001470671513482828 5.563877258549212e-06
31              -5.9266                    0              -2.6486            -0.955209 -0.00203512608310016 -6.187081088827343e-07 0.001554650366564166
32              -5.9266                    0               2.6486            -0.955209 -0.002036406820053363 3.146755375712104e-08 -0.001384201409228139
33                    0               2.6486              -5.9266            -0.955209 -2.742285362660165e-08 -0.001487022842742699 -0.002026464987385573
34                    0              -2.6486              -5.9266            -0.955209 -5.174879438322296e-08 0.001494844645898405 -0.002025895178710648
35               2.6486              -5.9266                    0            -0.955209 -0.001462587577352536 -0.002033400405032233 -7.08720338814086e-06
36              -2.6486              -5.9266                    0            -0.955209  0.00147135072082658 -0.002033890938145559 -6.617725587203938e-06