ITEM: TIMESTEP
0
ITEM: NUMBER OF ATOMS
6
ITEM: BOX BOUNDS pp pp pp
-5.0000000000000000e+00 5.0000000000000000e+00
-5.0000000000000000e+00 5.0000000000000000e+00
-5.0000000000000000e+00 5.0000000000000000e+00
ITEM: ATOMS id x y z q fx fy fz
1              0.13513             -0.05627  0.09445000000000001              -0.8476   -1.074376566237102    7.775620147251701    32.74789761345844
2   0.7905799999999999              0.37197             -0.48187               0.4238    25.94873654857489    19.31453682620071   -13.87391819287413
3             -0.33549             -0.65246             -0.50563               0.4238   -23.80832788385925   -26.68732066152253   -17.11667939056418
4              0.02105              0.48666              2.81228  -0.7165609912813125   -33.89757500043049   -2.843726477001624   -222.2096895143923
5             -0.73085              1.07786              2.68447    0.310552091167402    65.17859326258946   -49.45629842466482    25.59884254529721
6              0.21349              0.19973              1.90016   0.4060089001086453   -32.30547162790906    52.41206799911859    195.4849464125021
ITEM: TIMESTEP
1
ITEM: NUMBER OF ATOMS
6
ITEM: BOX BOUNDS pp pp pp
-5.0000000000000000e+00 5.0000000000000000e+00
-5.0000000000000000e+00 5.0000000000000000e+00
-5.0000000000000000e+00 5.0000000000000000e+00
ITEM: ATOMS id x y z q fx fy fz
1   0.1351318157637523 -0.05628155742603556  0.09439413762832774              -0.8476  -0.8738003032187782    8.085761824191724    33.17498646483405
2    0.790562050861406    0.371863150702523  -0.4818421887056856               0.4238    26.02723202476329    19.36123586940543   -13.94496454174747
3  -0.3352554978498453  -0.6521734537160635  -0.5053254625522319               0.4238   -24.08904401743333    -27.0428623028128    -17.4733473682412
4  0.02104359376360817   0.4866622742348425    2.812319692185221  -0.7164461464517444   -33.81407586175477   -2.908354589080666   -221.9523119420745
5  -0.7309321951434939    1.077720288968813    2.684483433965394    0.310582843764422    65.23076673643023   -49.37755620717939      25.573868444831
6   0.2134285049075045   0.1998373714459675     1.90007089039766   0.4058633026688767   -32.23106134894266    52.31875760021337    195.5053660962996
ITEM: TIMESTEP
2
ITEM: NUMBER OF ATOMS
6
ITEM: BOX BOUNDS pp pp pp
-5.0000000000000000e+00 5.0000000000000000e+00
-5.0000000000000000e+00 5.0000000000000000e+00
-5.0000000000000000e+00 5.0000000000000000e+00
ITEM: ATOMS id x y z q fx fy fz
1   0.1351336292424312   -0.056293093707011  0.09433836201249841              -0.8476  -0.6732371465246922    8.395055859984588    33.59667008220383
2   0.7905451820595062   0.3717571050499951  -0.4818149562380739               0.4238    26.10437377787169    19.40705538878811   -14.01437308127583
3  -0.3350219955862001  -0.6518880299255384  -0.5050216503870568               0.4238   -24.36864988042699   -27.39699517562547    -17.8282822804098
4  0.02103709910009195   0.4866645408640526    2.812358803943381  -0.7162432843970237    -32.9179878775973   -3.038612861034416   -225.1445781603837
5  -0.7310116826924641    1.077578528377159    2.684497929449297   0.3105916017265713    65.31225132757567   -49.15447759527731    25.49722002044214
6   0.2133656719701609   0.1999469145356035    1.899989895819642   0.4056516826531151   -32.11317138376295    52.16418114341877     195.604224265744
ITEM: TIMESTEP
3
ITEM: NUMBER OF ATOMS
6
ITEM: BOX BOUNDS pp pp pp
-5.0000000000000000e+00 5.0000000000000000e+00
-5.0000000000000000e+00 5.0000000000000000e+00
-5.0000000000000000e+00 5.0000000000000000e+00
ITEM: ATOMS id x y z q fx fy fz
1   0.1351354409605288  -0.0563046080340921  0.09428267425525605              -0.8476  -0.4713512250335019    8.704952960563315    34.02669109607308
2   0.7905293967962957     0.37165186494429  -0.4817883054781703               0.4238    26.18097541939851     19.4525576033224   -14.08520247062314
3  -0.3347895048149269  -0.6516037433277495  -0.5047185782370907               0.4238   -24.64802148475079   -27.75062712013565   -18.18388479089879
4  0.02103051835280929   0.4866667995469922     2.81239732692639  -0.7162624424063324    -33.7146028162979   -2.873064966907016   -221.8071270435393
5   -0.731088459264653    1.077434727484569    2.684513483270188   0.3105969805551325    65.24754742033085   -49.22685664165329    25.55732359837351
6   0.2133015060813386   0.2000586228527582    1.899917020369345   0.4056654618289031   -32.10239899295446    52.15464833670082    195.4822865768071
ITEM: TIMESTEP
4
ITEM: NUMBER OF ATOMS
6
ITEM: BOX BOUNDS pp pp pp
-5.0000000000000000e+00 5.0000000000000000e+00
-5.0000000000000000e+00 5.0000000000000000e+00
-5.0000000000000000e+00 5.0000000000000000e+00
ITEM: ATOMS id x y z q fx fy fz
1   0.1351372514459968 -0.05631609959686756  0.09422707548114775              -0.8476  -0.2704543960801802    9.013351011696589    34.44372379439253
2   0.7905146982513507   0.3715474322741109  -0.4817622393659564               0.4238     26.2558387659927    19.49682373212232   -14.15269264055943
3  -0.3345580371321644  -0.6513206086012291  -0.5044162608626598               0.4238   -24.92571336571344   -28.10236550372638   -18.53639102555169
4  0.02102384943853401    0.486669050716585     2.81243526986201  -0.7160595203463345   -32.75325677993514   -3.017068145658619   -225.1504098781865
5  -0.7311625275457866     1.07728888328674    2.684530097922845    0.310601053010501    65.31043763615361   -48.99060385723757    25.48134781468625
6   0.2132360076881773   0.2001724960017445    1.899852258985388   0.4054584673376667   -31.97859855100572    51.99018915628159     195.549265816086
ITEM: TIMESTEP
5
ITEM: NUMBER OF ATOMS
6
ITEM: BOX BOUNDS pp pp pp
-5.0000000000000000e+00 5.0000000000000000e+00
-5.0000000000000000e+00 5.0000000000000000e+00
-5.0000000000000000e+00 5.0000000000000000e+00
ITEM: ATOMS id x y z q fx fy fz
1   0.1351390612242001 -0.05632756758884621  0.09417156678075495              -0.8476 -0.06714253977545059    9.322998521407673    34.87756994506383
2    0.790501089532094   0.3714438088768532  -0.4817367607028101               0.4238    26.33057035739863    19.54117259231416   -14.22351590017336
3  -0.3343276040643297  -0.6510386403459116  -0.5041147128955706               0.4238   -25.20376532798465   -28.45406940046449   -18.89103340337041
4  0.02101709487128027   0.4866712939962488    2.812472624007228  -0.7162243315328851   -33.94513180797612   -2.852325404483381   -222.3690109642558
5  -0.7312338849254216    1.077141005590037    2.684547770253669   0.3105735276330961    65.14482578200301   -49.26378528122407    25.63396400752718
6   0.2131691819293777   0.2002885271562013    1.899795614447939   0.4056508038866014   -32.07447671959104    52.11931834698781    195.4070303879994
ITEM: TIMESTEP
6
ITEM: NUMBER OF ATOMS
6
ITEM: BOX BOUNDS pp pp pp
-5.0000000000000000e+00 5.0000000000000000e+00
-5.0000000000000000e+00 5.0000000000000000e+00
-5.0000000000000000e+00 5.0000000000000000e+00
ITEM: ATOMS id x y z q fx fy fz
1   0.1351408708268189 -0.05633901120026946  0.09411614928862784              -0.8476   0.1341786632881883    9.630638417492177     35.2915008524626
2   0.7904885737404798   0.3713409965933467  -0.4817118724284586               0.4238    26.40324709537203    19.58393849046049     -14.289436516605
3  -0.3340982171527859  -0.6507578531603001  -0.5038139490562965               0.4238   -25.47958753005458   -28.80346192447029   -19.24132835473836
4  0.02101025153417799    0.486673529816802    2.812509396635676  -0.7160626905001664   -33.47536343045266   -2.925244448329025   -223.0382936675951
5  -0.7313025382777644    1.076991083055262    2.684566506597443   0.3105791170659415    65.17688341232002   -49.06038649531803     25.5760719316582
6   0.2131010248252351   0.2004067216760146    1.899747080853101   0.4054835734168591   -31.96601291605297    51.97777318165946    195.4495846288591
ITEM: TIMESTEP
7
ITEM: NUMBER OF ATOMS
6
ITEM: BOX BOUNDS pp pp pp
-5.0000000000000000e+00 5.0000000000000000e+00
-5.0000000000000000e+00 5.0000000000000000e+00
-5.0000000000000000e+00 5.0000000000000000e+00
ITEM: ATOMS id x y z q fx fy fz
1   0.1351426807803282 -0.05635042962662881  0.09406082408723637              -0.8476   0.3365333661211611    9.938479127086694    35.71075522868743
2   0.7904771538931695   0.3712389971987157  -0.4816875772791308               0.4238     26.4751832497834    19.62626609009817   -14.35611761015779
3  -0.3338698878463435  -0.6504782615469573   -0.503513983884858               0.4238   -25.75494191453661   -29.15207868289315   -19.59170897374768
4  0.02100332065571755    0.486675757987554    2.812545585997114  -0.7160505941774318   -33.82833304177529   -2.861809227374682   -221.9281815185731
5  -0.7313684862721689    1.076839124125079    2.684586304551187   0.3105718638195611       65.12698276819    -49.0683031741863    25.61311217814207
6    0.213031540877858   0.2005270736859369    1.899706659967211   0.4054787303648482   -31.94398145870301    51.95373435552668    195.4058189568457
ITEM: TIMESTEP
8
ITEM: NUMBER OF ATOMS
6
ITEM: BOX BOUNDS pp pp pp
-5.0000000000000000e+00 5.0000000000000000e+00
-5.0000000000000000e+00 5.0000000000000000e+00
-5.0000000000000000e+00 5.0000000000000000e+00
ITEM: ATOMS id x y z q fx fy fz
1   0.1351444916139052 -0.05636182206289062  0.09400559227297184              -0.8476   0.5378341633628771    10.24485632411931    36.11735865918939
2   0.7904668329760847   0.3711378124498913  -0.4816638780226211               0.4238    26.54541311783841    19.66735503332672   -14.41953382807694
3  -0.3336426275743948  -0.6501998799762455  -0.5032148319248316               0.4238   -26.02857218322427   -29.49877770465249   -19.93899230640341
4  0.02099630131284879   0.4866779786743942    2.812581194994593  -0.7158371313989846     -32.831659618651   -2.995460047109514   -224.7429093292025
5  -0.7314317309799079    1.076685128470884    2.684607165652365   0.3105736211136474    65.15795091086449   -48.80239424650628    25.53159494166519
6   0.2129607310017267    0.200649582188166    1.899674349973647   0.4052635102998465   -31.80346393547294    51.76664178594278    195.4048239536856
ITEM: TIMESTEP
9
ITEM: NUMBER OF ATOMS
6
ITEM: BOX BOUNDS pp pp pp
-5.0000000000000000e+00 5.0000000000000000e+00
-5.0000000000000000e+00 5.0000000000000000e+00
-5.0000000000000000e+00 5.0000000000000000e+00
ITEM: ATOMS id x y z q fx fy fz
1   0.1351463038539713 -0.05637318770784846  0.09395045490914208              -0.8476   0.7413627491529935     10.5523498401046    36.53963139297972
2   0.7904576139043219   0.3710374440523909  -0.4816407772912061               0.4238    26.61544821359197    19.70846589649581    -14.4860339144725
3  -0.3334164476947675  -0.6499227228389256  -0.5029165075912319               0.4238   -26.30243080278218   -29.84531518866802    -20.2881612525434
4  0.02098919611197046   0.4866801915278127    2.812616216267324    -0.71597383546532   -33.96342054864302   -2.834993724158359   -222.1483653055974
5  -0.7314922711155577    1.076529107130007    2.684629086517365   0.3105478436765168    65.03769274215696   -49.01787150114006    25.66461947904839
6   0.2128886010294339   0.2007742394168755    1.899650150831109   0.4054259917975287   -31.87805076663553    51.87206583686542    195.3414346110023
ITEM: TIMESTEP
10
ITEM: NUMBER OF ATOMS
6
ITEM: BOX BOUNDS pp pp pp
-5.0000000000000000e+00 5.0000000000000000e+00
-5.0000000000000000e+00 5.0000000000000000e+00
-5.0000000000000000e+00 5.0000000000000000e+00
ITEM: ATOMS id x y z q fx fy fz
1   0.1351481180327737 -0.05638452575737665  0.09389541310003172              -0.8476   0.9428074816378738     10.8576400120273    36.94098655822284
2   0.7904494995848937   0.3709378937126415   -0.481618277845167               0.4238    26.68334812723647    19.74795776951799   -14.54741454757984
3   -0.333191359574768  -0.6496468045190535  -0.5026190253773412               0.4238     -26.573953772921   -30.18939999811122   -20.63274430473516
4  0.02098200209341674   0.4866823969674446    2.812650656600296  -0.7157582147515313   -33.01279363142551   -2.960286310083717   -224.3451619567605
5  -0.7315501116707867    1.076371051158432    2.684652072667761   0.3105495982649416    65.05214268565356   -48.74000642790928    25.58122296863344
6   0.2128151478650338   0.2009010497480001    1.899634059908435    0.405208616469281   -31.73131381856924    51.67713740737942     195.312128327933
ITEM: TIMESTEP
11
ITEM: NUMBER OF ATOMS
6
ITEM: BOX BOUNDS pp pp pp
-5.0000000000000000e+00 5.0000000000000000e+00
-5.0000000000000000e+00 5.0000000000000000e+00
-5.0000000000000000e+00 5.0000000000000000e+00
ITEM: ATOMS id x y z q fx fy fz
1   0.1351499346771101 -0.05639583541311143  0.09384046789522385              -0.8476    1.146295398779815    11.16394506113112    37.35685349214936
2   0.7904424928361854   0.3708391630698692  -0.4815963822322872               0.4238    26.75099810001226    19.78741082873155   -14.61162138431554
3  -0.3329673744847543  -0.6493721392988797   -0.502322399586091               0.4238   -26.84559298497829   -30.53322924114071   -20.97898401282675
4  0.02097472174317023   0.4866845946656375    2.812684510248668  -0.7158763680777156    -34.0196874196718   -2.832442664755863   -222.0481681279788
5  -0.7316052520458075    1.076210972089765    2.684676120641935   0.3105298560963945    64.95259831952168   -48.91877917711083    25.69778381724898
6   0.2127403775992746    0.201030005090463    1.899626075989183   0.4053465119814064   -31.79420548016767    51.76942316783253    195.2955802455666
ITEM: TIMESTEP
12
ITEM: NUMBER OF ATOMS
6
ITEM: BOX BOUNDS pp pp pp
-5.0000000000000000e+00 5.0000000000000000e+00
-5.0000000000000000e+00 5.0000000000000000e+00
-5.0000000000000000e+00 5.0000000000000000e+00
ITEM: ATOMS id x y z q fx fy fz
1   0.1351517543191214 -0.05640711587403508   0.0937856203822513              -0.8476    1.347858701790977    11.46808979554874    37.75295917741992
2   0.7904365964662076   0.3707412537616893  -0.4815750931176601               0.4238    26.81655727550487     19.8253034935789   -14.67097312044249
3  -0.3327445036999098  -0.6490987414500465  -0.5020266445891772               0.4238   -27.11496223811721   -30.87463574017918   -21.32081170969909
4  0.02096735242810495    0.486686784956715    2.812717783219305  -0.7156592502574313   -33.05288387623242   -2.954425836068406   -224.0886172330234
5  -0.7316576963725014    1.076048862503519    2.684701235278088   0.3105308059422356    64.95009757605547   -48.63269192798319    25.61446167509882
6   0.2126642876216531   0.2011611092748556    1.899626198386475   0.4051284443157783   -31.64137261892154    51.56630334086322    195.2306279239844
ITEM: TIMESTEP
13
ITEM: NUMBER OF ATOMS
6
ITEM: BOX BOUNDS pp pp pp
-5.0000000000000000e+00 5.0000000000000000e+00
-5.0000000000000000e+00 5.0000000000000000e+00
-5.0000000000000000e+00 5.0000000000000000e+00
ITEM: ATOMS id x y z q fx fy fz
1   0.1351535774859154 -0.05641836634477929  0.09373087159696929              -0.8476    1.551434985886358    11.77326869679638    38.16374260600037
2   0.7904318131961864    0.370644167360948  -0.4815544129648537               0.4238    26.88188203236891      19.863155811486   -14.73319028284644
3  -0.3325227584011961  -0.6488266251436333  -0.5017317745751622               0.4238   -27.38442783634681   -31.21577552423109   -21.66430107714556
4  0.02095989667650697   0.4866889675216793    2.812750470176232  -0.7157851256679351   -34.06612216968654   -2.829502167515585   -222.0597499085214
5  -0.7317074447546692    1.075884734274583     2.68472741311769   0.3105144527691976    64.85750382695632    -48.8225781691598    25.73514766975112
6   0.2125868842759459   0.2012943538700932    1.899634424404275   0.4052706728843987   -31.70895075802268     51.6664291013531    195.2318930185871
ITEM: TIMESTEP
14
ITEM: NUMBER OF ATOMS
6
ITEM: BOX BOUNDS pp pp pp
-5.0000000000000000e+00 5.0000000000000000e+00
-5.0000000000000000e+00 5.0000000000000000e+00
-5.0000000000000000e+00 5.0000000000000000e+00
ITEM: ATOMS id x y z q fx fy fz
1    0.135155404709864 -0.05642958602727129  0.09367622261361674              -0.8476    1.753072533863222    12.07620547041036     38.5544915621488
2   0.7904281457376178   0.3705479054388169  -0.4815343443563742               0.4238    26.94508650655902    19.89944135345532   -14.79049577440461
3  -0.3323021497735743  -0.6485558045396485  -0.5014378038015805               0.4238    -27.6515883228522   -31.55443513330841   -22.00330010093451
4  0.02095235183865879   0.4866911426872179    2.812782576425137  -0.7155661341098494     -33.097040777116    -2.94660291826241   -223.8549461224998
5  -0.7317545010356863    1.075718579521173    2.684754659170168   0.3105148354286626    64.83979600923242   -48.52216830194159    25.65045420234987
6   0.2125081647571241   0.2014297430321893    1.899650754095094   0.4050512986977992   -31.54753554218585    51.45096255825153    195.1322987421271
ITEM: TIMESTEP
15
ITEM: NUMBER OF ATOMS
6
ITEM: BOX BOUNDS pp pp pp
-5.0000000000000000e+00 5.0000000000000000e+00
-5.0000000000000000e+00 5.0000000000000000e+00
-5.0000000000000000e+00 5.0000000000000000e+00
ITEM: ATOMS id x y z q fx fy fz
1   0.1351572365182692 -0.05644077412930173  0.09362167445404053              -0.8476     1.95667671697769    12.38019300062284    38.95999875935573
2    0.790425596713989   0.3704524695014341  -0.4815148896708541               0.4238    27.00806967701149    19.93568012957454     -14.850686382817
3  -0.3320826889063249  -0.6482862936951536  -0.5011447463395825               0.4238   -27.91881794646942   -31.89281334535691   -22.34395090360708
4  0.02094472044880328   0.4866933101471009    2.812814097271405  -0.7156986927207072   -34.10295563028836   -2.830182753207772   -222.0697352066328
5  -0.7317988659505675    1.075550410712682     2.68478296992007   0.3105030725546953    64.75649135867754   -48.71739867483381    25.77226309994347
6   0.2124281357652001   0.2015672678175724     1.89967518332498   0.4051956201756184   -31.61853554444851    51.55709147559933    195.1588797496233
ITEM: TIMESTEP
16
ITEM: NUMBER OF ATOMS
6
ITEM: BOX BOUNDS pp pp pp
-5.0000000000000000e+00 5.0000000000000000e+00
-5.0000000000000000e+00 5.0000000000000000e+00
-5.0000000000000000e+00 5.0000000000000000e+00
ITEM: ATOMS id x y z q fx fy fz
1   0.1351590734435759 -0.05645192985591339  0.09356722817868172              -0.8476    2.158338334201969    12.68185061483635    39.34521224500314
2   0.7904241687396015   0.3703578610529962  -0.4814960514066814               0.4238    27.06890121257014    19.97034824001783   -14.90591261191415
3  -0.3318643868915981  -0.6480181066555301  -0.5008526163288798               0.4238   -28.18371061155268   -32.22865275992842   -22.68003568010788
4  0.02093699987637446   0.4866954702057785    2.812845037383538  -0.7154756216896203   -33.10550552710137   -2.945136875606259   -223.7280648987028
5  -0.7318405429571172      1.0753802197455    2.684812350423432   0.3105028627006163    64.72267293938833   -48.40284770156143     25.6854783897844
6   0.2123467943531103   0.2017069326314349    1.899707713197254   0.4049727589990653   -31.44831597912204     51.3293469443385    195.0220697933673
ITEM: TIMESTEP
17
ITEM: NUMBER OF ATOMS
6
ITEM: BOX BOUNDS pp pp pp
-5.0000000000000000e+00 5.0000000000000000e+00
-5.0000000000000000e+00 5.0000000000000000e+00
-5.0000000000000000e+00 5.0000000000000000e+00
ITEM: ATOMS id x y z q fx fy fz
1   0.1351609160131491 -0.05646305241824204  0.09351288479491136              -0.8476    2.361913238626592    12.98457414447286    39.74522623930127
2   0.7904238643394469    0.370264081532505   -0.481477831856183               0.4238    27.12952350269737    20.00496111543699   -14.96403498745612
3  -0.3316472547245418  -0.6477512573607789  -0.5005614277196581               0.4238   -28.44864208750175    -32.5641945730236   -23.01775579939222
4  0.02092919272980216   0.4866976225626343    2.812875392424842  -0.7156123224067414   -34.13403165042872   -2.831086533993201   -222.0360130530276
5  -0.7318795334590681    1.075208019675989       2.684842797078   0.3104960570641708    64.64814071271154   -48.60190351022224    25.80710062509008
6   0.2122641475863176   0.2018487280205712    1.899748338033219   0.4051162653449865   -31.52137188824998    51.43980241732991    195.0698621637272
ITEM: TIMESTEP
18
ITEM: NUMBER OF ATOMS
6
ITEM: BOX BOUNDS pp pp pp
-5.0000000000000000e+00 5.0000000000000000e+00
-5.0000000000000000e+00 5.0000000000000000e+00
-5.0000000000000000e+00 5.0000000000000000e+00
ITEM: ATOMS id x y z q fx fy fz
1   0.1351627647593569 -0.05647414102463595  0.09345864534880527              -0.8476    2.563562432443336    13.28489359875409    40.12485067838848
2   0.7904246860298312   0.3701711323766696  -0.4814602334318988               0.4238    27.18797117309873    20.03800717012037   -15.01717712881582
3   -0.331431303401915  -0.6474857597385484  -0.5002711945299825               0.4238    -28.7112167234898   -32.89714897009136   -23.35086329636103
4   0.0209212963193897   0.4866997675159212    2.812905166820197  -0.7153854905609478   -33.10624230044144   -2.944134023788965   -223.5596468152829
5  -0.7319158405500991    1.075033802241753    2.684874314932063   0.3104951655746362     64.5989962312796   -48.27135353518118    25.71807711599874
6   0.2121801924324221   0.2019926585697601    1.899797059816636   0.4048903249931755   -31.34155565059029    51.19828083971362    194.8961971228671
ITEM: TIMESTEP
19
ITEM: NUMBER OF ATOMS
6
ITEM: BOX BOUNDS pp pp pp
-5.0000000000000000e+00 5.0000000000000000e+00
-5.0000000000000000e+00 5.0000000000000000e+00
-5.0000000000000000e+00 5.0000000000000000e+00
ITEM: ATOMS id x y z q fx fy fz
1   0.1351646202095319 -0.05648519488973031  0.09340451083311858              -0.8476    2.767100535059262    13.58632048023767    40.51958501942299
2   0.7904266362367967   0.3700790149571635  -0.4814432583396492               0.4238    27.24623675720552    20.07100110837045   -15.07328638958704
3  -0.3312165438226489  -0.6472216276090886   -0.499981930586458               0.4238   -28.97381812074593   -33.22980708881352   -23.68563736179618
4  0.02091331333290703   0.4867019047700089    2.812934356585151  -0.7155321452323733   -34.16972483994991   -2.832356396937957   -221.9879300569301
5  -0.7319494662700962     1.07485758116324    2.684906900290438   0.3104931203541099     64.5332887608253   -48.48017588747686    25.84217667425378
6   0.2120949363552246   0.2021387142539393    1.899853871339029   0.4050390248867188    -31.4199745519061    51.31719685414917    194.9696319564139
ITEM: TIMESTEP
20
ITEM: NUMBER OF ATOMS
6
ITEM: BOX BOUNDS pp pp pp
-5.0000000000000000e+00 5.0000000000000000e+00
-5.0000000000000000e+00 5.0000000000000000e+00
-5.0000000000000000e+00 5.0000000000000000e+00
ITEM: ATOMS id x y z q fx fy fz
1   0.1351664828959462 -0.05649621322526425  0.09335048228012033              -0.8476     2.96869136570839    13.88523445489255    40.89348103124411
2   0.7904297173788274    0.369987730643497  -0.4814269089084141               0.4238     27.3022852286371     20.1024170603396   -15.12432059270104
3  -0.3310029868867857  -0.6469588747803515  -0.4996936497848652               0.4238    -29.2340190604156   -33.55980656087451   -24.01568979466064
4  0.02090524098924302   0.4867040346172069      2.8129629658299  -0.7153000767275444   -33.09121271952235   -2.945693662823068   -223.4373317169803
5  -0.7319804133464409    1.074679347772664    2.684940558304241   0.3104914844019646    64.46720365676035   -48.13419811938326     25.7504019914811
6   0.2120083760997184    0.202286900009067    1.899918775648526   0.4048085923204781    -31.2306477452067    51.06239460195508    194.7561479762479
ITEM: TIMESTEP
21
ITEM: NUMBER OF ATOMS
6
ITEM: BOX BOUNDS pp pp pp
-5.0000000000000000e+00 5.0000000000000000e+00
-5.0000000000000000e+00 5.0000000000000000e+00
-5.0000000000000000e+00 5.0000000000000000e+00
ITEM: ATOMS id x y z q fx fy fz
1   0.1351683533457795 -0.05650719524954843  0.09329656066758522              -0.8476    3.172142415676819    14.18529837601183    41.28278249256354
2   0.7904339317823799   0.3698972807396815  -0.4814111872565178               0.4238    27.35817906489364    20.13378300199846   -15.17838972319166
3  -0.3307906433947295  -0.6466975149499343  -0.4994063658249996               0.4238   -29.49423328352968   -33.88951115279455   -24.34743789823535
4  0.02089708210881263   0.4867061567611271    2.812990990764114  -0.7154553632030911   -34.20706010755559   -2.833767884333749   -221.8998672823147
5  -0.7320086845221896    1.074499116430849    2.684975285164095   0.3104945054162016    64.40996235027038   -48.35132911377735    25.87594239308712
6   0.2119205195244686   0.2024372052588278    1.899991763883846   0.4049608578025072   -31.31380998955568    51.18922799897511    194.8547608732248
ITEM: TIMESTEP
22
ITEM: NUMBER OF ATOMS
6
ITEM: BOX BOUNDS pp pp pp
-5.0000000000000000e+00 5.0000000000000000e+00
-5.0000000000000000e+00 5.0000000000000000e+00
-5.0000000000000000e+00 5.0000000000000000e+00
ITEM: ATOMS id x y z q fx fy fz
1   0.1351702320910763 -0.05651814017788626  0.09324274701357477              -0.8476    3.373640421964677    14.48275156645138    41.65092474225486
2   0.7904392817674919   0.3698076665476525  -0.4813960956282584               0.4238    27.41182001828185    20.16356579821603   -15.22731778473488
3  -0.3305795241474356  -0.6464375618031942  -0.4991200924770403               0.4238   -29.75201273536055   -34.21649385348074    -24.6743781363284
4   0.0208888337735655   0.4867082714944663    2.813018435408415  -0.7152190337556021   -33.08298395910184   -2.946782407223882   -223.2495333533809
5  -0.7320342821733107    1.074316878125134    2.685011086080922    0.310492135084445    64.32831754373828    -47.9883851677272    25.78162596463309
6   0.2118313631775821    0.202589635267814    1.900072840138209   0.4047268986914787   -31.11436713153053     50.9198927416866    194.6032501710151
ITEM: TIMESTEP
23
ITEM: NUMBER OF ATOMS
6
ITEM: BOX BOUNDS pp pp pp
-5.0000000000000000e+00 5.0000000000000000e+00
-5.0000000000000000e+00 5.0000000000000000e+00
-5.0000000000000000e+00 5.0000000000000000e+00
ITEM: ATOMS id x y z q fx fy fz
1   0.1351721196587737 -0.05652904723240847  0.09318904228081706              -0.8476    3.576985452443752     14.7814165971001     42.0349382040019
2   0.7904457695606887   0.3697188893036323  -0.4813816360545388               0.4238    27.46534442226857    20.19330751180276   -15.27938665537617
3  -0.3303696398447973  -0.6461790289125084  -0.4988348433116019               0.4238    -30.0098030111212   -34.54319513736972   -25.00307376427394
4    0.020880498923071   0.4867103785216806    2.813045296233293  -0.7153878953290587   -34.24773837115474   -2.836364300598895    -221.817944954766
5  -0.7320572096887117    1.074132647920576    2.685047957139843   0.3105005536955474    64.28068131984979   -48.21800402746424     25.9105608148457
6   0.2117409153375202   0.2027441788564751    1.900161993971923   0.4048873416322749   -31.20460778894599    51.05762341256261    194.7320423498812
ITEM: TIMESTEP
24
ITEM: NUMBER OF ATOMS
6
ITEM: BOX BOUNDS pp pp pp
-5.0000000000000000e+00 5.0000000000000000e+00
-5.0000000000000000e+00 5.0000000000000000e+00
-5.0000000000000000e+00 5.0000000000000000e+00
ITEM: ATOMS id x y z q fx fy fz
1   0.1351740165806387 -0.05653991563207673  0.09313544747354496              -0.8476    3.778347728374107    15.07734522099172    42.39721904908549
2   0.7904533973836579   0.3696309502421381  -0.4813678106966302               0.4238    27.51656513086906    20.22145095133534   -15.32619216518488
3  -0.3301610011871569  -0.6459219298385731  -0.4985506319721619               0.4238    -30.2651081254144   -34.86709422066279   -25.32683055197354
4  0.02087207451138213   0.4867124781315241    2.813071576982492  -0.7151464601533917   -33.06740040792292   -2.949961792130456   -223.0873170977998
5  -0.7320774690456739    1.073946416286168    2.685085903692678   0.3104974003409069    64.18149696346785   -47.83911720001706    25.81341891598862
6   0.2116491722585795   0.2029008417417268    1.900259230730887   0.4046490598075252   -30.99533980670479    50.77450076793818    194.4390741456402
ITEM: TIMESTEP
25
ITEM: NUMBER OF ATOMS
6
ITEM: BOX BOUNDS pp pp pp
-5.0000000000000000e+00 5.0000000000000000e+00
-5.0000000000000000e+00 5.0000000000000000e+00
-5.0000000000000000e+00 5.0000000000000000e+00
ITEM: ATOMS id x y z q fx fy fz
1   0.1351759233832537 -0.05655074460300866   0.0930819635391584              -0.8476    3.981534731716742    15.37454541236643    42.77578497639439
2   0.7904621673624654   0.3695438505313461  -0.4813546214973329               0.4238    27.56770575317871    20.24955945787459   -15.37623264270913
3  -0.3299536187717028  -0.6456662780257708  -0.4982674718971962               0.4238   -30.52041744772589   -35.19072315198217   -25.65239361921689
4  0.02086356362519839   0.4867145700269282    2.813097274336479  -0.7153275296250285   -34.28883828689672   -2.839961734309288   -221.7139198075749
5  -0.7320950643611355     1.07375819894872    2.685124921707266   0.3105116375782728    64.14324829986032   -48.07910121094164    25.94465010882082
6   0.2115561426270423   0.2030596121717326    1.900364538254595   0.4048158920513742   -31.09169240784334    50.92210399771133    194.5974543118245
ITEM: TIMESTEP
26
ITEM: NUMBER OF ATOMS
6
ITEM: BOX BOUNDS pp pp pp
-5.0000000000000000e+00 5.0000000000000000e+00
-5.0000000000000000e+00 5.0000000000000000e+00
-5.0000000000000000e+00 5.0000000000000000e+00
ITEM: ATOMS id x y z q fx fy fz
1   0.1351778405979724 -0.05656153336799662   0.0930285914676444              -0.8476    4.182725855783943    15.66889415149643    43.13217415113339