ITEM: TIMESTEP
0
ITEM: NUMBER OF ATOMS
6
ITEM: BOX BOUNDS pp pp pp
-5.0000000000000000e+00 5.0000000000000000e+00
-5.0000000000000000e+00 5.0000000000000000e+00
-5.0000000000000000e+00 5.0000000000000000e+00
ITEM: ATOMS id x y z q fx fy fz
1              0.13513             -0.05627  0.09445000000000001              -0.8476   -1.880210314450263    8.446175000124001    32.73051962666985
2   0.7905799999999999              0.37197             -0.48187               0.4238    26.20729086872784    19.15360239188853   -13.80644712608554
3             -0.33549             -0.65246             -0.50563               0.4238   -23.60609467838663   -26.89489330311197   -17.10457980784259
4              0.02105              0.48666              2.81228              -0.8476    15.66155284242855   -6.517580211214168    34.00891123005901
5             -0.73085              1.07786              2.68447               0.4238   -29.13251847169515    23.70621326797773    3.300626071723796
6              0.21349              0.19973              1.90016               0.4238    12.74997975337565   -17.89351714566411   -39.12902999452453
ITEM: TIMESTEP
1
ITEM: NUMBER OF ATOMS
6
ITEM: BOX BOUNDS pp pp pp
-5.0000000000000000e+00 5.0000000000000000e+00
-5.0000000000000000e+00 5.0000000000000000e+00
-5.0000000000000000e+00 5.0000000000000000e+00
ITEM: ATOMS id x y z q fx fy fz
1   0.1352871321834507 -0.05731632142447608  0.08928744847746273              -0.8476    19.34768080572575    37.66410528894414    66.27040517279188
2   0.7941702850419086   0.3652201174835302  -0.4819254623361455               0.4238    28.55402128569734    20.11328285120123   -16.57217882103379
3  -0.3168895746516553  -0.6293317424434738  -0.4786906103841777               0.4238   -47.20792693874606   -56.88758888897046   -47.24319380168561
4  0.02061859111770256   0.4868025747584109    2.816722956718535              -0.8476    13.91246286419655   -7.888802033984186    11.97483258003258
5  -0.7452509394297294    1.068911518301606    2.686445279669948               0.4238   -24.60954551733532    19.72155813624189    5.775895968682109
6    0.210053664173929   0.2066447538895315    1.882722504466195               0.4238    10.00330750046173   -12.72255535343261   -20.20576109878717
ITEM: TIMESTEP
2
ITEM: NUMBER OF ATOMS
6
ITEM: BOX BOUNDS pp pp pp
-5.0000000000000000e+00 5.0000000000000000e+00
-5.0000000000000000e+00 5.0000000000000000e+00
-5.0000000000000000e+00 5.0000000000000000e+00
ITEM: ATOMS id x y z q fx fy fz
1   0.1359502251934689 -0.05737768955996254  0.08585793303893341              -0.8476    32.06838821219801    48.62853206172118    64.08742269715744
2   0.8096127551087695   0.3668188436420508   -0.488859694134856               0.4238    18.55922298265215    13.09829292989151   -9.285102474039078
3  -0.3178841856424727   -0.629816349162328  -0.4713608956545938               0.4238   -49.89297347499875   -60.63796357164674   -51.38211365165276
4  0.02055100678270052      0.4867388496074    2.821479067052279              -0.8476    2.736743989879763   -3.770470282004958    -21.7413494791969
5  -0.7698667933870159    1.068149048432242    2.690818014571183               0.4238   -8.012608091331348    7.004264065538408      9.3325109180282
6   0.2107694948735708   0.2082786375811196    1.856898014445111               0.4238    4.541226381600175   -4.322655203499396    8.988631989703091
ITEM: TIMESTEP
3
ITEM: NUMBER OF ATOMS
6
ITEM: BOX BOUNDS pp pp pp
-5.0000000000000000e+00 5.0000000000000000e+00
-5.0000000000000000e+00 5.0000000000000000e+00
-5.0000000000000000e+00 5.0000000000000000e+00
ITEM: ATOMS id x y z q fx fy fz
1   0.1374519380034236 -0.05616737389397589  0.08410436655191048              -0.8476    29.61641377426482    35.48359608546222    28.57529198906062
2   0.8327587756671305   0.3738544009131776  -0.4996479803729347               0.4238   0.7691089486090488    1.425722293073005    4.090815169079598
3  -0.3395883403838553  -0.6554705232985556  -0.4853588360345744               0.4238   -29.59700510162473   -35.65154838077878   -28.26437009488678
4  0.02055499098684935   0.4865765229609651    2.825666619776268              -0.8476   -12.84375856066292    3.640053750003831   -51.22951456969591
5  -0.7978085156232637    1.070293904043859    2.699064482178616               0.4238    12.84165348521923   -8.063890413811453    12.33626018226417
6   0.2133702949362453   0.2081182762954999       1.834804520083               0.4238  -0.7864125458054509    3.166066666051178     34.4915173241783
ITEM: TIMESTEP
4
ITEM: NUMBER OF ATOMS
6
ITEM: BOX BOUNDS pp pp pp
-5.0000000000000000e+00 5.0000000000000000e+00
-5.0000000000000000e+00 5.0000000000000000e+00
-5.0000000000000000e+00 5.0000000000000000e+00
ITEM: ATOMS id x y z q fx fy fz
1   0.1397281490772094 -0.05402912739300896    0.083098071973049              -0.8476    12.73992662450905    4.365768550466643    -21.4829909679363
2   0.8562240374795361   0.3814817460884539  -0.5087382536480861               0.4238   -16.64386502763758    -9.64761700766185    16.72139981227778
3  -0.3735776012102651  -0.6959229194998021   -0.511088733207139               0.4238    4.709807457724455    6.615992701957712    9.746078039861356
4  0.02022309830927582   0.4865093872897481    2.828514470455521              -0.8476   -25.06996450121824    10.44231420571388   -62.33536346765123
5  -0.8204199324846473    1.069091605142661     2.71243147682962               0.4238    27.85906919769097   -18.30958950569939    13.10296620074312
6   0.2156446713787377   0.2092720839513374    1.827027742831493               0.4238   -3.594973751068657    6.533131055223004    44.24791038270529
ITEM: TIMESTEP
5
ITEM: NUMBER OF ATOMS
6
ITEM: BOX BOUNDS pp pp pp
-5.0000000000000000e+00 5.0000000000000000e+00
-5.0000000000000000e+00 5.0000000000000000e+00
-5.0000000000000000e+00 5.0000000000000000e+00
ITEM: ATOMS id x y z q fx fy fz
1   0.1423375217257633 -0.05177671176311249   0.0815299761128648              -0.8476   -10.45146904793613   -29.24925177591935   -60.47684182413782
2   0.8727807743642566   0.3851045645219237  -0.5108878189063745               0.4238   -25.78703359868031   -15.46694363088797    22.14098607604927
3  -0.4056119181476047  -0.7336291536511306  -0.5327732344951694               0.4238    37.00575759071165    45.99367747600513    43.23534724690553
4  0.01923560147488256    0.486715328375371    2.829732190250294              -0.8476   -27.50861299648719    13.17383678426942   -49.70958810687072
5  -0.8314676245925099    1.060289373455073    2.731237242371529               0.4238    29.63765791420672   -19.15517575900134    11.00451704811957
6   0.2164268483992576   0.2131376594973792    1.837617360126523               0.4238   -2.896299861814741    4.703856905534105    33.80557955993417
ITEM: TIMESTEP
6
ITEM: NUMBER OF ATOMS
6
ITEM: BOX BOUNDS pp pp pp
-5.0000000000000000e+00 5.0000000000000000e+00
-5.0000000000000000e+00 5.0000000000000000e+00
-5.0000000000000000e+00 5.0000000000000000e+00
ITEM: ATOMS id x y z q fx fy fz
1   0.1446735782093754 -0.05028919275072928  0.07838035153175614              -0.8476   -28.43074752145341   -48.20409870851389   -68.59652710929657
2   0.8786338457162589   0.3823073738137874  -0.5038471177225883               0.4238   -22.73744485558222   -14.04009100312286     17.3665557678695
3  -0.4222859087209188  -0.7522443613593063  -0.5365116353001459               0.4238     51.8684387751314    63.34609115696703    55.47455174472292
4  0.01752872743403312   0.4872657782119581    2.829649955567864              -0.8476   -18.41082250704545    10.55081681018657   -19.35209508185703
5  -0.8302133364717114    1.043536223575976    2.754610755862476               0.4238    17.17275989534917   -10.68490367326523    6.904220210201657
6   0.2160068311121348   0.2189557089810662     1.86223897592051               0.4238   0.5378162136005011  -0.9678145822516098    8.203294468359536
ITEM: TIMESTEP
7
ITEM: NUMBER OF ATOMS
6
ITEM: BOX BOUNDS pp pp pp
-5.0000000000000000e+00 5.0000000000000000e+00
-5.0000000000000000e+00 5.0000000000000000e+00
-5.0000000000000000e+00 5.0000000000000000e+00
ITEM: ATOMS id x y z q fx fy fz
1    0.146266142764403 -0.05006225819140799  0.07343686049686504              -0.8476    -32.1328932108942   -42.38556412695235   -41.43523773723269
2   0.8750490728946982   0.3736824310468008  -0.4895979175975324               0.4238   -9.288121804068592   -6.758473799270094    4.332812866598093
3  -0.4174303806612059  -0.7445659137715137  -0.5172236943903712               0.4238    42.07783772027949    50.01349147078945    40.50518450284539
4  0.01534039232986616   0.4880921422548962    2.829061644621218              -0.8476   -1.570609380531918    3.948377778721192    14.63949757901742
5  -0.8218309900773586    1.022347990664537    2.780850068694454               0.4238   -3.563588252414868    2.531926967855226    2.524291081744406
6    0.215810050237468    0.224372038602464    1.890265609973759               0.4238    4.477374927630088   -7.349758291143433   -20.56654829297261
ITEM: TIMESTEP
8
ITEM: NUMBER OF ATOMS
6
ITEM: BOX BOUNDS pp pp pp
-5.0000000000000000e+00 5.0000000000000000e+00
-5.0000000000000000e+00 5.0000000000000000e+00
-5.0000000000000000e+00 5.0000000000000000e+00
ITEM: ATOMS id x y z q fx fy fz
1   0.1470184006505207 -0.05094374769983633  0.06740979736126262              -0.8476   -19.67589860229338   -13.94175049381041     8.22536422436969
2   0.8676089923721779   0.3622521852664917  -0.4735502562589193               0.4238    7.969150244838344    2.387339048955816   -11.19318134090392
3  -0.3951092104377928  -0.7161278978999858  -0.4811228872158361               0.4238     12.3793774035025    12.20662604261391    5.734849013449652
4   0.0131109842501644   0.4890217602487643    2.828856170892633              -0.8476    15.61323766045894   -3.520477127681094    37.29440672866993
5  -0.8149278156321254    1.002210708391273     2.80813716266585               0.4238   -22.46490003519983    13.78398906438879   -0.792874604441955
6   0.2174717353048622   0.2267376352190874    1.909755494220247               0.4238    6.179033328693412   -10.91572653446701    -39.2685640211434
ITEM: TIMESTEP
9
ITEM: NUMBER OF ATOMS
6
ITEM: BOX BOUNDS pp pp pp
-5.0000000000000000e+00 5.0000000000000000e+00
-5.0000000000000000e+00 5.0000000000000000e+00
-5.0000000000000000e+00 5.0000000000000000e+00
ITEM: ATOMS id x y z q fx fy fz
1   0.1472561144928206 -0.05218982765579566  0.06159783556641364              -0.8476    2.531150424959025    23.58976414700015    57.22354728075885
2   0.8634767416732901   0.3518128746627873  -0.4621486535242019               0.4238    20.75281891570704    8.725049270753582   -22.55653034235815
3  -0.3676496161019933  -0.6826231634412608  -0.4426416625541284               0.4238   -22.53290907341067   -31.81634358944819   -32.10372395637967
4  0.01128987764656221   0.4898593143133522    2.829625982473138              -0.8476    25.67362971726784   -8.683975854284608    40.01646064580601
5  -0.8173493576294625   0.9877948755467422    2.835095150749867               0.4238   -30.18385567888158    17.57941084379224   -2.924266517683755
6   0.2216982096029665   0.2245723389967015     1.91294580784633               0.4238    3.759165694358347    -9.39390481781316   -39.65548711014328
ITEM: TIMESTEP
10
ITEM: NUMBER OF ATOMS
6
ITEM: BOX BOUNDS pp pp pp
-5.0000000000000000e+00 5.0000000000000000e+00
-5.0000000000000000e+00 5.0000000000000000e+00
-5.0000000000000000e+00 5.0000000000000000e+00
ITEM: ATOMS id x y z q fx fy fz
1   0.1475600204009312 -0.05281901214577144  0.05728232564980375              -0.8476    22.96867205456686    51.71091281266649    83.45455599810333
2   0.8679585578729759   0.3449951519704359  -0.4601098010817697               0.4238    22.97121199519497    9.162393728538705   -25.24087157680182
3  -0.3495429673571624  -0.6623247366779245  -0.4174860312480437               0.4238   -45.07013325828691   -60.45246532433946   -55.37302546120637
4   0.0101401616371698   0.4904697738933223    2.831442263742075              -0.8476    24.46683070773329   -9.768722379514594    24.09137833590909
5   -0.832299595276815   0.9806758933932427    2.860839336144481               0.4238   -22.71975293537735     12.2955684034501   -4.709322352519084
6   0.2274850360106108   0.2185078267271776    1.899675947061902               0.4238   -2.616828563830856   -2.947687240801246   -22.22271494348514
