ITEM: TIMESTEP
0
ITEM: NUMBER OF ATOMS
6
ITEM: BOX BOUNDS pp pp pp
-5.0000000000000000e+00 5.0000000000000000e+00
-5.0000000000000000e+00 5.0000000000000000e+00
-5.0000000000000000e+00 5.0000000000000000e+00
ITEM: ATOMS id x y z q fx fy fz
1              0.13513             -0.05627  0.09445000000000001              -0.8476   -1.074376566237102    7.775620147251701    32.74789761345844
2   0.7905799999999999              0.37197             -0.48187               0.4238    25.94873654857489    19.31453682620071   -13.87391819287413
3             -0.33549             -0.65246             -0.50563               0.4238   -23.80832788385925   -26.68732066152253   -17.11667939056418
4              0.02105              0.48666              2.81228  -0.7165609912813125   -33.89757500043049   -2.843726477001624   -222.2096895143923
5             -0.73085              1.07786              2.68447    0.310552091167402    65.17859326258946   -49.45629842466482    25.59884254529721
6              0.21349              0.19973              1.90016   0.4060089001086453   -32.30547162790906    52.41206799911859    195.4849464125021
ITEM: TIMESTEP
1
ITEM: NUMBER OF ATOMS
6
ITEM: BOX BOUNDS pp pp pp
-5.0000000000000000e+00 5.0000000000000000e+00
-5.0000000000000000e+00 5.0000000000000000e+00
-5.0000000000000000e+00 5.0000000000000000e+00
ITEM: ATOMS id x y z q fx fy fz
1   0.1352976688548331 -0.05732508925797056  0.08928767570316094              -0.8476    19.90972782642178    36.80866996894898    64.33803963183402
2   0.7941166247603882   0.3652535177649348  -0.4819394652599265               0.4238    28.20044974516814    20.19446122459615   -16.30360246052456
3  -0.3169315460669153  -0.6292886628833372  -0.4786931215277345               0.4238   -47.30565492387354   -56.56153796939774    -46.9796776077314
4  0.01997058122082856   0.4868506121973865    2.813372772882128  -0.7230525403756474   -30.41239793866885   -4.151173710732273   -209.8771285991508
5  -0.7256776412417156    1.053727393852105    2.691073044437771   0.3158727421603444    53.48075652520309   -38.35066846499369    27.61425278402549
6   0.2007028700981886    0.221235952710289    1.931414214645887   0.4071797981951022   -23.70184094244205    42.35975735844451    181.8736437405902
ITEM: TIMESTEP
2
ITEM: NUMBER OF ATOMS
6
ITEM: BOX BOUNDS pp pp pp
-5.0000000000000000e+00 5.0000000000000000e+00
-5.0000000000000000e+00 5.0000000000000000e+00
-5.0000000000000000e+00 5.0000000000000000e+00
ITEM: ATOMS id x y z q fx fy fz
1   0.1359859966170019 -0.05741759569946064  0.08580785423644008              -0.8476     32.0943558908426    47.33503863078918    58.15302117937129
2   0.8093586742951855   0.3669193396725449  -0.4887762194772298               0.4238    18.11754801123594    13.08539573568341   -8.423234188874069
3  -0.3180086933430072  -0.6295948530333839  -0.4712565378072399               0.4238   -49.83137900038604   -60.16032499070879   -50.64616451250247
4  0.01809584841133698   0.4869326671313471     2.80897705303327  -0.7649414013121714   -25.37752677787157    4.276668897070152   -121.2475488486413
5  -0.6983065240224424    1.013676216588436    2.709138195387523   0.3364070795160501    19.20235694348865   -10.52131174585046    30.89892660206285
6   0.1780775951074217   0.2603245666086834    2.038160425855336   0.4285343217943591    6.040114003232073    6.421515239282023    91.77595961300631
ITEM: TIMESTEP
3
ITEM: NUMBER OF ATOMS
6
ITEM: BOX BOUNDS pp pp pp
-5.0000000000000000e+00 5.0000000000000000e+00
-5.0000000000000000e+00 5.0000000000000000e+00
-5.0000000000000000e+00 5.0000000000000000e+00
ITEM: ATOMS id x y z q fx fy fz
1   0.1375136232593693 -0.05627224446117381  0.08384879130190495              -0.8476    29.13709786543793    33.75718287983133    19.14028644774641
2    0.832120944154788   0.3740166393335783  -0.4991092843933365               0.4238   0.5137020777043129      1.4940673964206    5.225109325797696
3  -0.3397698177742515  -0.6548723526819039  -0.4848421318949205               0.4238   -29.58486238605954   -35.30253261495366   -27.40625843562623
4  0.01555746838987714   0.4871265611509245    2.801410590879393  -0.8522355980840075   -106.5638225393005    134.2152419423434     416.712779218603
5  -0.6629649046755616   0.9692578599257842    2.740028853172053   0.3716398987304501   -37.85193957502757    31.59458323262568    34.34695727920096
6   0.1579594468019589   0.3020786189752716    2.183000944108002   0.4805956993823202     144.521940112026   -165.3953867191802   -447.4693480662103
ITEM: TIMESTEP
4
ITEM: NUMBER OF ATOMS
6
ITEM: BOX BOUNDS pp pp pp
-5.0000000000000000e+00 5.0000000000000000e+00
-5.0000000000000000e+00 5.0000000000000000e+00
-5.0000000000000000e+00 5.0000000000000000e+00
ITEM: ATOMS id x y z q fx fy fz
1   0.1398032135845059 -0.05424410978625844  0.08239026562809283              -0.8476    12.60111768982252    2.726929324476093    -28.4313272298741
2     0.85509644114663    0.381734095540863   -0.507273514248163               0.4238    -16.2131111346342   -9.094508697133762    16.78678107185577
3   -0.373811008099856   -0.694803205152971  -0.5098034983325155               0.4238    4.097367744164167    6.256720611176167    9.566818503415682
4   0.0102323399061301   0.4908303153668213     2.80474157655566  -0.8637400849638652    54.44008157517385    -26.0813737130722    74.45301409953933
5  -0.6433348443734748    0.937953762810417    2.785176224175506   0.3914866113252629   -104.7405956851291    74.60356431631331    22.10029895663471
6   0.1978293736342979   0.2751804592399109    2.142106169485054   0.4722534736392845    49.83168304650881   -48.14431306086931    -93.8684720801179
ITEM: TIMESTEP
5
ITEM: NUMBER OF ATOMS
6
ITEM: BOX BOUNDS pp pp pp
-5.0000000000000000e+00 5.0000000000000000e+00
-5.0000000000000000e+00 5.0000000000000000e+00
-5.0000000000000000e+00 5.0000000000000000e+00
ITEM: ATOMS id x y z q fx fy fz
1   0.1424223354946443 -0.05214466323531734  0.08018823286575247              -0.8476   -9.834599550646026   -30.73530486994569   -63.16637183576422
2   0.8713422102631884   0.3856766088526803  -0.5084698976744145               0.4238    -24.7083348517003   -14.42996689965331    20.86506745230535
3  -0.4061514656238277  -0.7321370220054425  -0.5307938758201437               0.4238    35.80616375209386     44.9477014387667    41.86580865815746
4 0.006330872942787469   0.4938520160831597    2.810019581563727  -0.8532921423729931    120.8084114243907   -99.45732085444052   -163.1349208555106
5  -0.6671804440235534   0.9376160658020909    2.839496973237341     0.39510808348723   -67.92034953433271    44.98094669736534    6.198153821659933
6   0.2583834038250608   0.2282985886083735    2.062248529072677   0.4581840588543855   -54.00798891798087    54.86838132353726    157.2147798907981
ITEM: TIMESTEP
6
ITEM: NUMBER OF ATOMS
6
ITEM: BOX BOUNDS pp pp pp
-5.0000000000000000e+00 5.0000000000000000e+00
-5.0000000000000000e+00 5.0000000000000000e+00
-5.0000000000000000e+00 5.0000000000000000e+00
ITEM: ATOMS id x y z q fx fy fz
1   0.1447842729821342 -0.05084897504761121  0.07633433753516894              -0.8476   -27.33474333292136   -49.75120491631694    -69.3919069270124
2   0.8773320594380076   0.3836295406660664  -0.5010056221507933               0.4238   -21.61672903162384   -12.94493697818459    15.56254097118821
3  -0.4236295234326277   -0.750813975484158  -0.5344066200325499               0.4238     50.6920445060004      62.235684906937     53.6796437148567
4 0.005588664410176525   0.4942728103253323    2.811031448411522  -0.8573699392754861    61.74968699424264   -62.53893743823508   -176.4227771273413
5  -0.7192183792324616    0.955949031588351    2.896390448051966   0.3950262335631578    24.65430135322481   -17.34773031641629   -13.33845983431347
6   0.2965198322680057   0.2041914508580482    2.047647499674183   0.4623437057052797   -87.94786814590395    80.48909220052199    190.6499536527033
ITEM: TIMESTEP
7
ITEM: NUMBER OF ATOMS
6
ITEM: BOX BOUNDS pp pp pp
-5.0000000000000000e+00 5.0000000000000000e+00
-5.0000000000000000e+00 5.0000000000000000e+00
-5.0000000000000000e+00 5.0000000000000000e+00
ITEM: ATOMS id x y z q fx fy fz
1   0.1464313801253773 -0.05085432965748632  0.07066577578857249              -0.8476   -31.15294097738186   -44.19895203263125   -43.96150877774936
2   0.8743492504518765   0.3762092962579077  -0.4870816570022534               0.4238   -8.887212029708598   -6.140334602673237    3.158672554258482
3  -0.4200663595946827  -0.7436581803881176  -0.5157380518155689               0.4238     41.6102360302644    49.61576625706643    39.29931797067351
4 0.006461270747916716   0.4930581500240571    2.807429686626666  -0.8855963524283652   -4.336039203986942   -12.20900908003458     -101.13416259978
5  -0.7610228226898693   0.9670813124897774     2.94774740342779   0.4044977588547454    82.28134984985265   -53.40862699562715   -31.16866198571552
6   0.2981509154432603   0.2134936743919379    2.112181331985071    0.481098593574643   -79.18676633477102     66.3654520102083    134.0656198562263
ITEM: TIMESTEP
8
ITEM: NUMBER OF ATOMS
6
ITEM: BOX BOUNDS pp pp pp
-5.0000000000000000e+00 5.0000000000000000e+00
-5.0000000000000000e+00 5.0000000000000000e+00
-5.0000000000000000e+00 5.0000000000000000e+00
ITEM: ATOMS id x y z q fx fy fz
1   0.1472638073116168 -0.05201553020716164   0.0638475774761421              -0.8476   -19.08317703630879    -16.1634440396145     1.88233715705056
2   0.8676775431393703   0.3662403256616637  -0.4718465920554844               0.4238    7.248596416342879    2.273259361466344   -11.07280694285822
3  -0.3992316454056263  -0.7159079045375191  -0.4807571476483388               0.4238    12.87770200576066    12.95526478787469    5.723062295297537
4 0.007220485408292187   0.4915242121624513    2.801183167311592  -0.9557286331873911   -194.3372861036581    159.4640421302317    297.4556790486893
5   -0.768673975695968   0.9560447744095527     2.98616689037706   0.4295803204213371    106.5149484802848   -66.76632173019443   -43.04419268971909
6   0.2669132059277466   0.2503428276076226    2.232363036661202   0.5261483127433166    86.58992870569216   -91.40336794303602   -250.6340105539982
ITEM: TIMESTEP
9
ITEM: NUMBER OF ATOMS
6
ITEM: BOX BOUNDS pp pp pp
-5.0000000000000000e+00 5.0000000000000000e+00
-5.0000000000000000e+00 5.0000000000000000e+00
-5.0000000000000000e+00 5.0000000000000000e+00
ITEM: ATOMS id x y z q fx fy fz
1   0.1475971907042474 -0.05359942066931687  0.05707860412630145              -0.8476    3.581364175482164    21.00504961201931    50.01082124193735
2   0.8640145786248787    0.357214938117776  -0.4612076207839018               0.4238    19.19674247612669    8.210632417954853   -21.94993802962333
3  -0.3730516628446882  -0.6827801656046874  -0.4434007184174229               0.4238   -21.70469742048479   -30.21850846858203   -31.47987564110318
4 0.002897589458242544   0.4941604153825682    2.802715405706544  -0.9848795447414886   -171.6248637335472    147.0579574493228    303.8831853773273
5  -0.7321129715183096   0.9172949138986927    3.006719621155499   0.4486987248101286    71.37084546669446   -44.52270969485569   -37.98535338076544
6    0.271617189039301   0.2492523288938856     2.24851173537611   0.5361808199486404    98.82611382188469   -101.3430784704044   -261.8649975628567
ITEM: TIMESTEP
10
ITEM: NUMBER OF ATOMS
6
ITEM: BOX BOUNDS pp pp pp
-5.0000000000000000e+00 5.0000000000000000e+00
-5.0000000000000000e+00 5.0000000000000000e+00
-5.0000000000000000e+00 5.0000000000000000e+00
ITEM: ATOMS id x y z q fx fy fz
1   0.1480242302821677  -0.0546340084853046  0.05161746279555238              -0.8476    25.11829036999388    49.00283186085002    78.92750242872715
2   0.8683197857884472   0.3515976146646095  -0.4596796158525888               0.4238    21.27487652023569    8.730264301478766    -25.3361338603973
3  -0.3558808523076936  -0.6621955059798171  -0.4191109359795361               0.4238   -44.73795015034731   -58.70899982312272   -55.14471435403873
4 -0.005913464984088348   0.5006423284038499    2.812194487405217  -0.9705165563573246    195.8184141393851   -129.7949638647047   -166.4565355404839
5  -0.6659274021211019   0.8600645953172916     3.01150541557137   0.4627678041247236   -91.84283487323518    45.76233439689545    7.149773934127673
6   0.3173418527266128   0.2060964095162249     2.15596567717325   0.5077487522339652   -105.4541835124851    84.83852452329842    160.7811693445657
