Created by AJB

15 atoms
3 atom types

-500.0 500.0 xlo xhi
-500.0 500.0 ylo yhi
-500.0 500.0 zlo zhi

Masses

1 12.01070 # C nuclei mass
2 1.000794 # H nuclei mass
3 1.000000 # electron mass

Atoms
#tag|type|x|y|z|q|spin|r
1 1 0.0 0.0 0.0 6.0 0 0.0
2 2 1.0 1.0 1.0 1.0 0 0.0
3 2 -1.0 -1.0 1.0 1.0 0 0.0
4 2 1.0 -1.0 -1.0 1.0 0 0.0
5 2 -1.0 1.0 -1.0 1.0 0 0.0
6 3 0.0 0.0 0.0 0.0 -1 0.5
7 3 1.0 1.0 1.0 0.0 -1 1.0
8 3 -1.0 -1.0 1.0 0.0 -1 1.0
9 3 1.0 -1.0 -1.0 0.0 -1 1.0
10 3 -1.0 1.0 -1.0 0.0 -1 1.0
11 3 0.0 0.0 0.0 0.0 1 0.5
12 3 1.0 1.0 1.0 0.0 1 1.0
13 3 -1.0 -1.0 1.0 0.0 1 1.0
14 3 1.0 -1.0 -1.0 0.0 1 1.0
15 3 -1.0 1.0 -1.0 0.0 1 1.0
