LAMMPS data file via write_data, version 27 Nov 2018, timestep = 110000

3000 atoms
3 atom types

0.0000000000000000e+00 1.0000000000000000e+01 xlo xhi
0.0000000000000000e+00 1.0000000000000000e+01 ylo yhi
0.0000000000000000e+00 1.0000000000000000e+01 zlo zhi

Masses

1 1
2 1
3 1

Atoms # charge

19 1 0.0000000000000000e+00 7.5187051494075097e-01 2.0905597410953747e+00 8.9368906594943753e-01 -3 1 7
1837 1 0.0000000000000000e+00 2.4079878273901700e+00 1.5894674966997427e-01 1.2396627731014433e+00 2 -4 10
1141 1 0.0000000000000000e+00 1.2771116528188356e-01 2.3349393851557374e+00 3.8518525010489157e-01 6 -1 -5
2623 1 0.0000000000000000e+00 4.7245255482036119e-01 1.2409407456107373e+00 1.0892325910963225e+00 1 3 5
399 1 0.0000000000000000e+00 1.6394944064715502e-02 6.7330715219373094e-01 1.0799113438893224e+00 -7 -2 1
2653 1 0.0000000000000000e+00 9.1449041699715439e-01 2.4017328867827983e+00 1.6887984620553140e+00 -7 6 1
810 1 0.0000000000000000e+00 9.9951234091558860e-01 1.8876734392365806e+00 2.0196100364556062e+00 0 4 -5
117 1 0.0000000000000000e+00 1.1575079935429848e+00 1.9967780121776293e+00 5.6418169177971567e-01 4 -1 2
2626 1 0.0000000000000000e+00 2.0408906200611892e+00 2.2382919483803527e+00 1.6209928365546817e+00 7 4 -2
2717 1 0.0000000000000000e+00 1.2903504856649775e+00 7.1967766325139948e-01 2.4484072413942592e-01 1 -1 -4
2238 1 0.0000000000000000e+00 6.9645100926305592e-01 8.4899676722682715e-01 1.3941328283419346e-01 7 -3 -2
1028 1 0.0000000000000000e+00 5.2099155341071501e-01 1.3569061559627065e+00 1.2071750324463572e-01 -6 2 8
2244 1 0.0000000000000000e+00 1.6161533817585623e+00 1.7074378127559602e+00 2.2207444205161844e+00 -2 -5 1
683 1 0.0000000000000000e+00 1.9802085063673878e+00 2.4852855232872857e+00 7.7804544955829780e-01 -5 -1 0
1708 1 0.0000000000000000e+00 2.1298614169258498e+00 1.4787133063155760e+00 1.6876966221909275e+00 3 2 -1
106 1 0.0000000000000000e+00 6.3212371930047562e-01 3.1898766193202012e-02 2.3795315466359898e-01 -1 2 4
244 1 0.0000000000000000e+00 2.1625340773871859e+00 5.6126129890661969e-01 9.3761334571009214e-01 -3 -2 -3
2343 1 0.0000000000000000e+00 3.4913916986122123e-01 1.1596523641862642e+00 2.0233901337387623e+00 7 2 3
109 1 0.0000000000000000e+00 1.8877314844179121e+00 7.4014683764236378e-01 4.2958998868816589e-01 3 2 1
2603 1 0.0000000000000000e+00 3.8963298024559784e-01 1.3362525681927812e-01 2.1507798894101565e-01 5 -1 3
345 1 0.0000000000000000e+00 1.9102444100822842e+00 1.1881779874699319e+00 9.0226993325569205e-01 -3 2 4
2812 2 -1.0000000000000000e+00 1.8737361878544001e+00 1.0673094149266005e+00 2.4075845270403344e+00 1 2 -2
1495 1 0.0000000000000000e+00 1.1375966630630674e+00 2.1316060855521839e-02 1.1877979624755810e+00 0 -1 -1
489 1 0.0000000000000000e+00 9.1336827046601377e-01 4.2186496611789870e-01 5.8285148762903172e-01 3 -2 3
1928 1 0.0000000000000000e+00 9.5382100282831905e-01 6.4568172941581692e-01 1.5079537542335133e+00 -3 -2 2
1878 1 0.0000000000000000e+00 2.1284457143187820e+00 1.5107107725394375e+00 1.0500410580339243e+00 1 3 0
1542 1 0.0000000000000000e+00 8.6594514545973567e-01 1.7414444463202041e+00 1.5364557056914236e+00 -3 7 -1
1535 1 0.0000000000000000e+00 1.1535885238218720e-01 1.7650147205198587e+00 1.7649029055684320e+00 2 4 1
1290 1 0.0000000000000000e+00 9.0633984369853027e-01 1.3096472580961449e+00 1.9710584569613168e+00 1 -1 3
1443 1 0.0000000000000000e+00 1.9223074928421398e+00 7.3584860308896882e-01 1.5888107588414018e+00 -1 -1 -10
1530 1 0.0000000000000000e+00 5.8688216662222521e-02 2.1552428429214858e+00 2.0829760402816047e+00 -4 -9 -3
955 1 0.0000000000000000e+00 2.0151650262440550e+00 1.7359466450410073e+00 2.2516442039294396e-01 1 0 0
2584 1 0.0000000000000000e+00 1.4720840159523454e+00 2.1243452843481268e+00 1.6890226624883953e-01 4 1 -1
312 1 0.0000000000000000e+00 2.4539549867870964e+00 3.5913272897497006e-01 1.3726548709575229e-01 5 5 8
1129 1 0.0000000000000000e+00 1.5496190021132403e+00 2.3002307889408349e+00 1.5735350882722994e+00 -1 -1 5
1964 1 0.0000000000000000e+00 1.5481243437804775e+00 3.1664670624238778e-01 1.1129360061940878e+00 -1 -4 3
2923 3 1.0000000000000000e+00 4.4152636030284803e-01 3.4208707349295125e-01 1.7681250659569263e+00 -3 1 7
1148 1 0.0000000000000000e+00 2.5476572639268685e-01 5.7686711714977623e-01 2.2926212604932972e+00 0 1 0
738 1 0.0000000000000000e+00 1.9614736620063316e+00 4.9314962525645528e-01 2.1680196061840897e+00 3 7 2
1523 1 0.0000000000000000e+00 2.1325142436104882e+00 1.1488798033631773e+00 9.4910381816324219e-02 4 -4 0
2765 1 0.0000000000000000e+00 1.6379002999364247e+00 1.7051094887092322e+00 1.1993620115215609e+00 3 5 5
1696 1 0.0000000000000000e+00 1.5527909429831608e+00 1.6654077362540770e-01 2.1500337883657155e+00 7 -2 1
1359 1 0.0000000000000000e+00 7.8277452101307432e-03 1.7603522238062537e+00 7.5289767387463769e-01 -3 4 6
1024 1 0.0000000000000000e+00 1.2674376388222481e+00 1.0507898049382196e+00 1.3152422918383284e+00 2 4 4
183 1 0.0000000000000000e+00 1.1780467789712916e+00 1.1861885641577543e+00 7.2307322622818104e-01 0 0 1
585 1 0.0000000000000000e+00 2.7640020828803800e+00 3.2604411438234626e-01 2.4108050738451570e+00 -6 3 1
1220 1 0.0000000000000000e+00 3.6671729632866157e+00 8.3199701056081643e-01 2.3565347914868524e+00 -3 5 -1
1412 1 0.0000000000000000e+00 3.0889341256139433e+00 1.2298097893840818e+00 1.6726853112666358e+00 5 1 5
1764 1 0.0000000000000000e+00 2.9229934529634218e+00 1.9320742902623798e+00 1.2255520460960516e+00 1 1 -1
2450 1 0.0000000000000000e+00 2.6910451298466240e+00 2.3382389074065459e+00 2.3499885597385739e+00 1 5 1
1023 1 0.0000000000000000e+00 3.6603922747717035e+00 1.4980697950069166e+00 6.7335428343966153e-01 -4 -1 -1
2370 1 0.0000000000000000e+00 4.0273169233959285e+00 1.1146235113655234e+00 2.1856868667861176e-01 0 -2 -11
1896 1 0.0000000000000000e+00 2.6490783284317487e+00 1.9544344708212431e+00 3.5456333568975795e-01 5 -4 5
2767 1 0.0000000000000000e+00 4.0998737125814086e+00 2.0973164235633313e+00 1.6437442645597322e+00 -2 -3 7
950 1 0.0000000000000000e+00 4.3261215821545713e+00 1.6280055177668531e+00 4.0157869510004510e-02 0 -5 -5
2065 1 0.0000000000000000e+00 4.7519297420520772e+00 8.8202366811542476e-01 8.3471271040278860e-01 1 3 0
1798 1 0.0000000000000000e+00 3.7548411044943077e+00 2.4182851987140279e+00 1.0074170343615860e+00 4 0 -1
341 1 0.0000000000000000e+00 4.9807430465703559e+00 1.2192715101874703e+00 3.4779795668503610e-01 1 -2 -5
1407 1 0.0000000000000000e+00 4.2980366087312492e+00 2.2652065895643014e+00 7.2951106504019758e-01 4 -1 4
2463 1 0.0000000000000000e+00 3.2381186309812522e+00 6.1083392136723880e-01 1.9217043747829510e+00 11 -1 -3
2819 2 -1.0000000000000000e+00 3.9242453151499976e+00 1.5952619408745727e+00 2.1083201315068969e+00 -3 2 2
2126 1 0.0000000000000000e+00 4.0591275797840742e+00 2.0859094741285049e+00 2.5489040455002726e-01 -1 -2 -5
532 1 0.0000000000000000e+00 3.4111513817582328e+00 1.0152587042428054e+00 3.0190523296057109e-01 -3 -4 -3
832 1 0.0000000000000000e+00 3.1665131230946586e+00 1.3705384753554648e+00 1.3849754676678525e+00 -2 8 -7
2153 1 0.0000000000000000e+00 3.4814243961918305e+00 2.0339696787044601e+00 1.4095001472150253e+00 0 -4 -5
674 1 0.0000000000000000e+00 4.1098774892988930e+00 2.7121893820511517e-01 1.5219934117764478e-01 -7 0 1
44 1 0.0000000000000000e+00 2.5856963026632398e+00 1.1534100563558911e+00 7.8855432165941131e-01 -3 -3 -1
560 1 0.0000000000000000e+00 4.4743850168474797e+00 1.8201748730473293e+00 1.2649319550521121e+00 0 10 1
786 1 0.0000000000000000e+00 3.9530643454612311e+00 8.8974062145958888e-01 1.3155705344965034e+00 1 7 -1
2736 1 0.0000000000000000e+00 3.0701048835224487e+00 8.6929350229425661e-02 1.6015178282610731e+00 1 1 -4
583 1 0.0000000000000000e+00 2.9415108264617595e+00 1.6391850469547788e+00 2.4591049351408878e+00 4 3 0
755 1 0.0000000000000000e+00 4.2616403429705745e+00 2.2191678403837365e+00 1.8923366562569064e+00 -4 -3 2
2823 2 -1.0000000000000000e+00 2.7763844317800643e+00 6.1457301412021537e-01 1.0592591891043839e+00 -2 -2 -2
2215 1 0.0000000000000000e+00 4.8560475072438614e+00 2.3477654444431675e+00 8.2176936210454998e-01 -3 0 3
148 1 0.0000000000000000e+00 3.3368273428279873e+00 5.7114729922422236e-01 9.1308060469818364e-01 3 0 -4
1887 1 0.0000000000000000e+00 4.2481414885031592e+00 6.9760001898053337e-01 1.0553266678264295e+00 5 -1 6
876 1 0.0000000000000000e+00 4.1273727123083042e+00 2.8037589318937971e-02 7.7515808760923954e-01 5 7 0
1063 1 0.0000000000000000e+00 4.2415584723879434e+00 1.5428126650662759e+00 9.2634919641542812e-01 0 9 0
2000 1 0.0000000000000000e+00 2.5953091157661952e+00 5.5794167933303418e-01 1.9368563350975203e+00 7 -1 3
2668 1 0.0000000000000000e+00 2.6288318368458530e+00 1.9398564922968795e+00 1.4667531812816865e+00 -5 0 -3
2491 1 0.0000000000000000e+00 4.4484928267389146e+00 4.4969742963534259e-01 4.3652327265793595e-01 1 4 -6
1385 1 0.0000000000000000e+00 3.2327517644130146e+00 2.3632459484249120e+00 8.1617862237314709e-01 4 -7 0
2994 3 1.0000000000000000e+00 2.6743855272077117e+00 1.1822047392102715e+00 2.2933576685363541e+00 -2 -4 2
1073 1 0.0000000000000000e+00 4.1046212984996604e+00 2.3630079626077441e-01 1.7736457000498522e+00 3 5 0
2297 1 0.0000000000000000e+00 3.0740830623019346e+00 1.9326867589403394e+00 2.2695289553403422e+00 0 1 3
82 1 0.0000000000000000e+00 2.9517130940953811e+00 1.7065994608855106e+00 4.6581282579119915e-01 -5 4 4
2945 3 1.0000000000000000e+00 4.5236775203852178e+00 1.0131768437535431e+00 2.4700795162320364e+00 -2 2 5
1069 1 0.0000000000000000e+00 4.1713560353189045e+00 5.4919256123336047e-01 1.8824363554882564e+00 1 0 4
1849 1 0.0000000000000000e+00 4.2950445603454970e+00 1.0818139230049069e+00 1.6384446443133480e+00 -3 0 3
2406 1 0.0000000000000000e+00 4.6995576404975878e+00 2.3869580161702468e+00 2.1644446916537308e+00 -1 1 2
186 1 0.0000000000000000e+00 4.5246713650074852e+00 1.7965743940069470e+00 1.9507415765739047e+00 -5 0 3
491 1 0.0000000000000000e+00 3.5998362602518181e+00 3.1358104320843572e-02 1.8456033482260112e-01 -1 3 2
1456 1 0.0000000000000000e+00 4.8955803356635057e+00 2.1415780508394366e+00 1.4076070171252997e-01 -6 1 2
2498 1 0.0000000000000000e+00 3.9883627349888080e+00 2.1698250209566816e+00 2.4904344638938114e+00 -6 -4 2
2562 1 0.0000000000000000e+00 4.8426333138373181e+00 1.4836659262020182e+00 1.4070458398575856e+00 1 -2 0
86 1 0.0000000000000000e+00 1.0474551001807451e+00 4.3768184042036777e+00 6.6068873744071421e-01 -5 3 0
2897 2 -1.0000000000000000e+00 4.8768786963480892e-01 3.3805694332120066e+00 1.4912752436941339e+00 2 -6 0
2112 1 0.0000000000000000e+00 1.3091746326724334e+00 3.7028624851431160e+00 2.5862616855199878e-02 -2 8 -1
2026 1 0.0000000000000000e+00 9.5277775081507379e-02 3.8982142144788390e+00 2.0586954443842500e+00 4 -10 2
2189 1 0.0000000000000000e+00 1.9642169236883580e+00 4.9455872775765348e+00 7.1145750502086691e-01 1 -1 3
1993 1 0.0000000000000000e+00 2.3913264760350055e+00 2.7860177741582532e+00 1.0934108807929022e+00 2 0 -3
26 1 0.0000000000000000e+00 2.4696457334806401e+00 4.5973031296042084e+00 9.4917876856056427e-01 3 -1 5
2818 2 -1.0000000000000000e+00 9.8281149764821873e-01 4.5639217056398618e+00 2.0683058161934205e+00 -1 0 1
1587 1 0.0000000000000000e+00 2.4260355515680123e+00 2.5628603982400615e+00 6.0084919645982093e-01 1 5 3
1258 1 0.0000000000000000e+00 2.3733857431817174e+00 3.3034179296677642e+00 1.8978666925069685e+00 -1 -2 -3
2379 1 0.0000000000000000e+00 2.2881829455613700e-01 3.2988760386065108e+00 1.8505582315578595e+00 5 -1 -3
2174 1 0.0000000000000000e+00 1.5990686189137100e+00 3.7154492324602733e+00 1.8138044583074808e+00 -7 2 -1
1017 1 0.0000000000000000e+00 6.9001562902323066e-01 4.1158648227424361e+00 1.3621332442808258e+00 3 -2 -1
2870 2 -1.0000000000000000e+00 1.4791070458048408e+00 2.8694321512072931e+00 8.4614018602994989e-01 -1 -2 -1
1471 1 0.0000000000000000e+00 1.5511262843877383e-01 3.6937690886084109e+00 7.7733947454013597e-01 3 -3 5
1981 1 0.0000000000000000e+00 2.0552539984661183e-01 2.8697291776614571e+00 8.6410919006780884e-01 -3 -1 1
1351 1 0.0000000000000000e+00 2.4700334373458754e+00 3.4252628048168310e+00 3.4640781881578114e-01 5 0 -1
2043 1 0.0000000000000000e+00 1.2525967185255109e+00 4.6795710529584653e+00 7.1790025881717109e-02 4 4 0
2901 2 -1.0000000000000000e+00 4.4460831793348360e-01 4.9475431331860067e+00 1.2818004670358596e+00 -5 -1 2
1952 1 0.0000000000000000e+00 1.3751770398134306e+00 4.7024161899193082e+00 9.8781354218691675e-01 1 -7 0
2984 3 1.0000000000000000e+00 1.8860189786024695e+00 3.2178807873281365e+00 6.2610445194742947e-01 0 4 1
37 1 0.0000000000000000e+00 1.0581166175595589e+00 3.2081308903469825e+00 1.7847689673641489e+00 2 1 2
407 1 0.0000000000000000e+00 2.0500793655745748e+00 4.6170625017978963e+00 1.9734312067650854e+00 7 0 1
1264 1 0.0000000000000000e+00 1.2746947583003001e+00 3.0150435808831846e+00 2.2577320551387792e+00 3 -4 4
572 1 0.0000000000000000e+00 2.0128001587081359e+00 3.0207174308335865e+00 2.3621701363921308e+00 7 4 5
2261 1 0.0000000000000000e+00 8.9120267407608678e-01 3.5669609172587302e+00 8.6719579519852885e-01 2 5 0
1943 1 0.0000000000000000e+00 9.7927298784303862e-01 2.5845553442421116e+00 1.2635628247887352e+00 -3 -1 2
677 1 0.0000000000000000e+00 3.5934247388268559e-01 3.0092099706319306e+00 1.1485567725270979e-01 1 0 4
781 1 0.0000000000000000e+00 1.5580697362264959e+00 3.6898788226463779e+00 1.3007538608699238e+00 1 -3 -1
273 1 0.0000000000000000e+00 9.4829163006080719e-01 3.3892182075110528e+00 2.3189788644890448e+00 -6 -6 -3
2291 1 0.0000000000000000e+00 2.3372749119579002e+00 3.9987133179314527e+00 1.6825910999268576e+00 -2 -3 -8
986 1 0.0000000000000000e+00 2.4298368439720148e+00 4.7681617389885211e+00 1.5901072740537295e-01 -2 -4 1
945 1 0.0000000000000000e+00 9.2628423972805918e-01 2.8967205926560178e+00 5.5341149786518906e-01 -2 4 6
910 1 0.0000000000000000e+00 1.8078467079224136e-01 4.2990375292581717e+00 1.2239581764872949e+00 -3 -1 2
2607 1 0.0000000000000000e+00 2.6989401224527945e-02 3.1704475533059164e+00 5.3758775925211277e-01 2 1 1
854 1 0.0000000000000000e+00 1.6698633202990230e+00 4.5312959761909424e+00 1.4167450622661160e+00 -5 4 -1
2931 3 1.0000000000000000e+00 9.3006493543957147e-01 4.1580905293046238e+00 1.6830532324641860e+00 -4 -5 3
1144 1 0.0000000000000000e+00 1.9256332710510258e+00 3.7488533996535662e+00 2.4101985260470782e+00 -10 4 2
477 1 0.0000000000000000e+00 3.5634749210646882e-01 4.8130074980092381e+00 2.4406919539369341e+00 -4 -1 7
2318 1 0.0000000000000000e+00 8.1301360574089798e-01 3.7699225899879938e+00 3.8280273619743199e-01 3 -6 -1
1259 1 0.0000000000000000e+00 1.5992181166679378e+00 4.2189130436148830e+00 2.4174739989261131e+00 -1 -5 -2
1621 1 0.0000000000000000e+00 1.6764703643681613e+00 4.0768699842853202e+00 4.0987661925903263e-01 3 -7 0
1054 1 0.0000000000000000e+00 1.5598897733600667e+00 4.0346312990541282e+00 9.1864351408590161e-01 0 1 1
1421 1 0.0000000000000000e+00 2.7638360277536961e-01 4.1059700937531192e+00 3.6154633668643493e-01 1 0 5
897 1 0.0000000000000000e+00 2.5939321176305846e-01 4.6123506605590538e+00 1.5714080269767683e+00 -1 0 0
2851 2 -1.0000000000000000e+00 1.8577075639850658e+00 2.5580725005125906e+00 1.9659475730448139e+00 -3 -1 1
1809 1 0.0000000000000000e+00 5.3431088492265655e-01 2.5829736620077726e+00 1.9392752557908401e+00 0 7 1
100 1 0.0000000000000000e+00 3.0004507632121546e-01 4.8137872195018341e+00 4.1317032792051639e-01 6 1 2
2175 1 0.0000000000000000e+00 8.6802271962623534e-01 3.7835564649198399e+00 2.4028665071881452e+00 4 1 3
138 1 0.0000000000000000e+00 1.6450418741067037e+00 3.0114286737316998e+00 4.4886023050935364e-02 1 2 -3
2482 1 0.0000000000000000e+00 4.4511477355847386e+00 3.4352590266810878e+00 1.3144186918041492e+00 9 0 2
547 1 0.0000000000000000e+00 3.6821210064340422e+00 3.2441554986278849e+00 1.2372951529349481e+00 -1 0 2
2019 1 0.0000000000000000e+00 2.6308877733238831e+00 3.9795552841489106e+00 9.9010016491957975e-01 2 3 8
2831 2 -1.0000000000000000e+00 4.4690696906009988e+00 3.2362402706182438e+00 1.9287730385720370e+00 -1 -1 0
240 1 0.0000000000000000e+00 4.5224494485251787e+00 4.4203783852261243e+00 1.7963931219827756e+00 -3 -2 -2
1971 1 0.0000000000000000e+00 3.9851339793549125e+00 4.5593133841085267e+00 1.7490593659742628e+00 -2 8 8
254 1 0.0000000000000000e+00 4.6163407193480968e+00 3.6807646117297774e+00 7.8998244769176207e-01 5 7 1
307 1 0.0000000000000000e+00 4.2461461875544417e+00 4.7679044161821178e+00 1.1697194504753836e+00 -4 5 3
842 1 0.0000000000000000e+00 4.7156282656996140e+00 4.7927385966718843e+00 2.2944745032801785e+00 -5 2 2
2369 1 0.0000000000000000e+00 2.9451450369044503e+00 3.0473949085165670e+00 2.4011953885108004e+00 -1 6 1
85 1 0.0000000000000000e+00 2.8972111116882759e+00 2.6261093677175484e+00 1.8562616469680515e+00 4 5 1
2916 3 1.0000000000000000e+00 2.5877870414360267e+00 3.2418647426987146e+00 1.4798223286177419e+00 -1 -2 1
468 1 0.0000000000000000e+00 2.8188974541932197e+00 3.0699095225131434e+00 3.4366216834827662e-01 -4 -4 3
255 1 0.0000000000000000e+00 3.1166710122664356e+00 3.6195963219722906e+00 5.8806654039367012e-01 -2 -1 -3
2996 3 1.0000000000000000e+00 3.2844167423025281e+00 2.9413882795708042e+00 1.4389072766558197e+00 12 -4 0
268 1 0.0000000000000000e+00 3.5715481077381144e+00 2.5428598760631109e+00 1.9994015604428452e+00 1 5 4
360 1 0.0000000000000000e+00 3.7581323209546085e+00 3.8902339833393138e+00 2.5675086194365471e-02 -1 -6 3
646 1 0.0000000000000000e+00 4.2642587166668706e+00 3.0123722645627549e+00 3.3144608396201286e-01 4 -6 -5
2021 1 0.0000000000000000e+00 3.0562122941315706e+00 3.5517828325068730e+00 2.4944764537841984e+00 4 -5 1
390 1 0.0000000000000000e+00 3.0028610149367458e+00 4.4250795287784621e+00 1.3960209003404611e+00 -1 -2 -1
115 1 0.0000000000000000e+00 3.7796391818237249e+00 3.9430954791569905e+00 9.6504297959302898e-01 0 3 -1
1883 1 0.0000000000000000e+00 3.5810201007039111e+00 2.9461801416478259e+00 9.9436736474951082e-01 4 -2 6
790 1 0.0000000000000000e+00 4.5933801473815237e+00 3.9820380877642836e+00 2.4444897253348832e+00 -5 11 0
2921 3 1.0000000000000000e+00 2.5766042619504428e+00 3.2439211017154004e+00 2.1931679693482016e+00 -3 0 -6
2230 1 0.0000000000000000e+00 4.9549002279003709e+00 3.0900378380695344e+00 2.3169385676046997e-01 -5 0 -5
882 1 0.0000000000000000e+00 3.3766341342460584e+00 4.9997976053130380e+00 2.3840712254462231e+00 2 0 0
602 1 0.0000000000000000e+00 4.3136575133244408e+00 2.9770224716742995e+00 1.1642569634282773e+00 -8 -3 -2
535 1 0.0000000000000000e+00 3.1625827224575644e+00 3.6870269574064314e+00 1.7638411878349094e+00 2 5 -3
2226 1 0.0000000000000000e+00 3.8719279918624983e+00 4.3843723454073791e+00 2.2541674709572548e+00 -2 4 -2
1744 1 0.0000000000000000e+00 3.0911847451375301e+00 4.6634343941814427e+00 1.9428679483445963e+00 7 -2 -4
223 1 0.0000000000000000e+00 4.8398302718053632e+00 3.3420728709548961e+00 1.2492710607153608e+00 -5 -5 -4
892 1 0.0000000000000000e+00 3.6093893433894997e+00 4.5433025914197334e+00 5.4444429937318439e-01 5 -5 2
505 1 0.0000000000000000e+00 4.1294906836967797e+00 3.7872831203320132e+00 1.9416033613769599e+00 1 -1 -7
1047 1 0.0000000000000000e+00 4.6852563321756202e+00 4.3716217035220923e+00 1.0758272233120325e+00 -1 1 5
2731 1 0.0000000000000000e+00 2.8273050690001589e+00 4.5187695639770356e+00 2.4085583396873629e+00 0 3 5
529 1 0.0000000000000000e+00 3.5702783167689116e+00 4.1245260199279681e+00 1.5221968831410964e+00 -1 -9 3
131 1 0.0000000000000000e+00 3.0435243353922266e+00 3.2723461078964453e+00 1.1455272628268132e-01 2 -3 -5
887 1 0.0000000000000000e+00 3.3791634216755830e+00 3.3923082792719281e+00 1.8180605560772154e+00 2 6 0
1253 1 0.0000000000000000e+00 2.6271930828541570e+00 4.0333628905125334e+00 2.1753352345939319e+00 -4 1 5
2612 1 0.0000000000000000e+00 4.1316314078056067e+00 3.0352624851624870e+00 2.1380751197235428e+00 -2 -1 0
495 1 0.0000000000000000e+00 3.1912245919239295e+00 4.2532916512663794e+00 5.5748523861514643e-01 -2 3 3
1176 1 0.0000000000000000e+00 2.8003357655993000e+00 3.9917680090788026e+00 1.6113545428596932e-01 11 0 -1
287 1 0.0000000000000000e+00 4.0483522425880665e+00 4.6607475913314254e+00 4.9369497811454177e-01 -1 2 -6
989 1 0.0000000000000000e+00 4.2259564058052366e+00 3.8631023044464006e+00 4.9712631148303865e-01 -7 2 -1
416 1 0.0000000000000000e+00 4.9276701733128032e+00 3.1091472010355181e+00 5.6816912411480480e-01 -3 -3 -1
1061 1 0.0000000000000000e+00 4.9781901305208454e+00 3.9898878466387830e+00 1.3209824051740190e-01 2 -1 -1
1513 1 0.0000000000000000e+00 4.0648380049176707e+00 4.0575872257688177e+00 8.7791530286818187e-03 2 7 6
2461 1 0.0000000000000000e+00 1.9954726105523684e+00 2.0973180473619695e+00 2.6431877118421738e+00 0 8 1
719 1 0.0000000000000000e+00 1.3246635234337518e+00 1.2271814420903244e+00 3.5724735487455597e+00 -4 -6 5
1598 1 0.0000000000000000e+00 4.4457311909703229e-01 1.0260690153301033e+00 4.9730761027939101e+00 -2 -3 -3
1439 1 0.0000000000000000e+00 2.1698406403452366e+00 8.2815141273618420e-01 3.8631822135126708e+00 -1 4 -5
1661 1 0.0000000000000000e+00 1.9805472534438731e+00 5.1353982678434240e-01 3.2338851160059394e+00 2 0 0
118 1 0.0000000000000000e+00 8.3734450979267672e-01 1.6906486738214397e+00 3.6801411248851306e+00 -10 -7 0
1732 1 0.0000000000000000e+00 1.3107933053871481e+00 1.3532071007849762e+00 2.7895861726983107e+00 -4 6 -1
2386 1 0.0000000000000000e+00 1.1156477709164515e-01 9.9452292293319688e-01 3.9464681361485359e+00 2 6 -5
637 1 0.0000000000000000e+00 1.6081691439267238e+00 1.9828909507425065e+00 4.2357860493342292e+00 4 2 -1
1079 1 0.0000000000000000e+00 1.0486538826596199e+00 4.4300614355795076e-01 2.5152982300244355e+00 2 0 -1
286 1 0.0000000000000000e+00 3.5569994879681027e-01 1.7542340655237512e-01 4.5691558732985200e+00 -3 1 1
2514 1 0.0000000000000000e+00 4.6342604389827474e-01 8.6209878712364019e-01 3.4468513313349032e+00 1 0 9
1718 1 0.0000000000000000e+00 2.2377146388024668e-01 1.1623682045558245e-01 3.3903949855175060e+00 6 -1 0
949 1 0.0000000000000000e+00 2.2656364791515773e+00 9.0628176837086361e-01 3.2263059469247124e+00 3 3 2
2025 1 0.0000000000000000e+00 7.0149329234879501e-02 1.4946934785280508e+00 2.7534526564647717e+00 1 1 -2
2020 1 0.0000000000000000e+00 3.4327364982607456e-01 2.2864773181096343e+00 4.5466513053356117e+00 -1 -7 -4
388 1 0.0000000000000000e+00 1.7834987593226086e+00 1.5318398984461494e+00 3.3088500533002820e+00 0 5 2
1502 1 0.0000000000000000e+00 2.5757033027076021e-01 4.6158312874790874e-01 2.9747589924701034e+00 4 -2 0
2137 1 0.0000000000000000e+00 8.3670901488572957e-01 8.2112892516824743e-01 2.8702717699367644e+00 -1 1 -1
2183 1 0.0000000000000000e+00 3.9384340747681740e-01 2.1611329209078067e+00 3.9716056473693673e+00 -4 -4 -5
2658 1 0.0000000000000000e+00 3.2090540332995426e-01 1.4262655588414790e+00 2.9533505395463031e+00 4 0 2
2983 3 1.0000000000000000e+00 1.3941597851280392e+00 7.1972057457159552e-02 4.0657251967464427e+00 -2 -1 6
1828 1 0.0000000000000000e+00 1.4591041219791951e+00 4.9915981524895392e-01 2.9634039112231347e+00 1 0 0
1729 1 0.0000000000000000e+00 2.1469887818591875e+00 2.2304290084011349e+00 4.4408538886075481e+00 0 0 6
2624 1 0.0000000000000000e+00 8.8132447451702345e-01 5.2031840444507504e-01 3.8940591909932283e+00 9 7 3
1525 1 0.0000000000000000e+00 9.2930107765452452e-01 1.8788808229099070e+00 4.8196602003435478e+00 -1 -2 7
2337 1 0.0000000000000000e+00 1.2182031204409036e+00 2.3642870782116829e+00 3.8831400996229215e+00 -5 4 11
323 1 0.0000000000000000e+00 2.1285764819220461e+00 2.0937783318415106e+00 3.4035117692691741e+00 4 -2 0
2900 2 -1.0000000000000000e+00 1.4695339707164718e+00 1.5759560967720498e+00 3.0369674738410608e+00 -1 5 2
987 1 0.0000000000000000e+00 1.4174605752309410e+00 4.8343146919142704e-01 3.5653967920396732e+00 -2 0 1
906 1 0.0000000000000000e+00 2.4346179568806821e+00 1.7497677275539238e+00 2.8155703915216583e+00 5 -1 -4
2339 1 0.0000000000000000e+00 4.0223568277536970e-01 1.5291629823677451e+00 4.1500810249799658e+00 0 0 6
2905 3 1.0000000000000000e+00 1.1950963946572786e+00 1.1272562342249810e-01 4.9780862772637589e+00 -1 5 2
1646 1 0.0000000000000000e+00 2.2658054124102804e+00 1.5071577403032774e+00 3.8660548983048524e+00 3 8 0
1867 1 0.0000000000000000e+00 1.0722848485399643e+00 8.9581401466391430e-01 4.0781758855182897e+00 0 0 3
649 1 0.0000000000000000e+00 2.0530609131259014e+00 1.1480244389074707e+00 3.0170696872777572e+00 -9 6 -1
1532 1 0.0000000000000000e+00 1.7660692664886752e+00 4.0845780902184409e-02 2.9071632032494401e+00 2 1 -2
1338 1 0.0000000000000000e+00 1.7123472852593018e+00 9.6555435119048116e-01 4.7312081909320067e+00 3 6 6
2466 1 0.0000000000000000e+00 7.9703239779603485e-01 2.1209785591818977e+00 2.7951501903713210e+00 5 7 -2
1925 1 0.0000000000000000e+00 1.0903821917447556e-01 2.4273079522114598e+00 3.0699921252203213e+00 1 0 -7
724 1 0.0000000000000000e+00 1.6740511596086229e+00 5.5451977159148180e-02 4.7257878594831997e+00 3 -2 3
395 1 0.0000000000000000e+00 1.6437773723314533e+00 2.2954827196799195e+00 2.7745351428357883e+00 3 2 4
2402 1 0.0000000000000000e+00 6.1837361648597466e-01 2.2839585868047627e+00 3.6123105403975146e+00 6 5 4
1779 1 0.0000000000000000e+00 2.1578912900821514e+00 2.1854284848529977e+00 4.9515571791906057e+00 5 -5 0
1980 1 0.0000000000000000e+00 2.3293307776054699e+00 1.4296872443222988e+00 4.5922535069900672e+00 -4 -1 6
1521 1 0.0000000000000000e+00 1.4382528061636439e+00 1.0125588490032300e+00 4.4996540031702228e+00 0 -4 7
1357 1 0.0000000000000000e+00 9.0776243577163662e-01 2.3421338648808772e+00 2.5909386176702247e+00 4 -1 -4
993 1 0.0000000000000000e+00 2.4679104237636409e+00 8.4931327056377470e-01 2.8636197043336611e+00 -2 -3 1
2128 1 0.0000000000000000e+00 1.9508266549845572e+00 2.4242652578006627e-01 4.0058490238242754e+00 -2 4 -4
2713 1 0.0000000000000000e+00 2.5040996856421014e+00 3.7552818089457390e-01 4.2975894476286749e+00 5 3 -2
448 1 0.0000000000000000e+00 3.6910749368033877e+00 1.9633099166808756e+00 3.9682645764836240e+00 -1 -7 2
2127 1 0.0000000000000000e+00 3.3898574123481131e+00 7.8932251700830985e-02 4.0837715853050574e+00 2 1 -1
553 1 0.0000000000000000e+00 4.5603780997334331e+00 1.5579291042652690e+00 4.2790083849384057e+00 4 -2 -4
2177 1 0.0000000000000000e+00 3.4133490091924217e+00 1.6863542374680629e+00 3.3773586576838084e+00 6 3 0
279 1 0.0000000000000000e+00 4.8479318337467960e+00 2.2019633991669788e-01 3.4818281306841015e+00 2 3 0
1776 1 0.0000000000000000e+00 4.3085619232334862e+00 7.8179167016071216e-01 3.3224720069278635e+00 4 -1 -3
2196 1 0.0000000000000000e+00 4.6177351094041557e+00 1.0366615964506218e+00 3.2440980554605425e+00 2 2 -1
1109 1 0.0000000000000000e+00 4.9767287883044355e+00 1.4880648433857970e+00 2.9348635164347980e+00 -3 5 3
2796 1 0.0000000000000000e+00 3.4219085370620204e+00 6.3146755940024213e-01 3.7976530829193393e+00 -3 2 2
2125 1 0.0000000000000000e+00 4.2443940038847243e+00 5.2099974498748522e-02 4.5560768371067599e+00 -2 -3 1
2400 1 0.0000000000000000e+00 3.6156640002472695e+00 7.1247391251463621e-01 3.1668661462911127e+00 -4 2 4
430 1 0.0000000000000000e+00 3.4360539961988699e+00 1.0885389339175948e+00 4.4736124279083498e+00 -4 -5 3
846 1 0.0000000000000000e+00 4.9801400300628620e+00 1.2641306422516690e-01 4.1261981880352021e+00 2 -1 -2
1316 1 0.0000000000000000e+00 2.8145664506216637e+00 5.5320082894622880e-01 3.5126288044395899e+00 3 -6 0
1578 1 0.0000000000000000e+00 4.0669510142176017e+00 3.6003089345569850e-01 3.6559731397869908e+00 0 -5 -4
1422 1 0.0000000000000000e+00 3.3150406738470575e+00 6.3779529162109516e-01 4.6469471918972758e+00 -2 -2 3
1975 1 0.0000000000000000e+00 2.7051303518576884e+00 7.2384908053927638e-02 4.3144343415674600e+00 -6 -2 4
1336 1 0.0000000000000000e+00 3.9030221330016328e+00 1.5117545360871243e+00 4.2496095144757913e+00 0 1 2
935 1 0.0000000000000000e+00 4.1969413473893571e+00 1.0730966707724701e+00 3.8556466724546232e+00 1 0 -8
2193 1 0.0000000000000000e+00 4.2330404083299591e+00 2.4646662642439749e+00 3.9659016988306912e+00 -4 0 -4
1550 1 0.0000000000000000e+00 2.9171886198681780e+00 1.8547126751951795e+00 4.0698101008842569e+00 0 3 -5
873 1 0.0000000000000000e+00 3.9394486759335705e+00 5.8162305932977176e-01 4.6198822615563344e+00 4 1 3
2365 1 0.0000000000000000e+00 2.7571968186572784e+00 1.7494177619424256e+00 4.5888327967331222e+00 2 5 -2
1249 1 0.0000000000000000e+00 3.2395967897474720e+00 1.2687493121275140e-01 4.8937873458641636e+00 3 -2 2
1790 1 0.0000000000000000e+00 4.4234801074907173e+00 1.9324859769187230e+00 3.6091953570923110e+00 2 -2 10
1146 1 0.0000000000000000e+00 4.8647342156390225e+00 9.8341054352205370e-01 4.1335108518073902e+00 -3 -2 -3
242 1 0.0000000000000000e+00 4.5423659146203601e+00 2.1257714775085068e+00 2.7766056069117746e+00 3 1 1
1689 1 0.0000000000000000e+00 4.6894657895307033e+00 1.7231185753366893e+00 4.8531590477185480e+00 9 0 -2
2411 1 0.0000000000000000e+00 4.0279887384710511e+00 2.1743800956093664e+00 3.4031293892553656e+00 -2 3 2
1606 1 0.0000000000000000e+00 4.2698583936994057e+00 1.6176432506875613e+00 3.2408026350065930e+00 -5 1 4
1209 1 0.0000000000000000e+00 2.9242495475395716e+00 1.0754703983812433e+00 3.2366289575803400e+00 0 2 1
1409 1 0.0000000000000000e+00 3.5885017049139973e+00 1.1648848458692034e+00 3.7127776311455030e+00 4 3 8
1811 1 0.0000000000000000e+00 3.3857377046546366e+00 1.8178410370559794e+00 2.7086359680957433e+00 -5 -3 0
1719 1 0.0000000000000000e+00 4.4022736822586452e+00 6.7264943497441376e-01 4.2389431546582639e+00 1 3 0
112 1 0.0000000000000000e+00 4.5829967185586113e+00 4.6533795847186049e-01 2.7170013530408048e+00 -4 -6 2
2743 1 0.0000000000000000e+00 2.8103287462970532e+00 1.5674794019436045e-01 3.1846109265291518e+00 4 -1 3
2951 3 1.0000000000000000e+00 2.5656519703694234e+00 7.0231912396192531e-01 4.8340785276432676e+00 2 3 3
2936 3 1.0000000000000000e+00 3.5854031840607634e+00 1.8969956690731846e+00 4.7015835202313037e+00 6 1 4