LAMMPS (27 Nov 2018)
# INPUT FILE FOR DPD_Fluid

boundary        p p p

units           lj
atom_style      charge

region 		my_sim_box block 0.0 10.0 0.0 10.0 0.0 10.0
create_box 	3 my_sim_box
Created orthogonal box = (0 0 0) to (10 10 10)
  2 by 2 by 4 MPI processor grid

create_atoms 	1 random 2804 100 my_sim_box
Created 2804 atoms
  Time spent = 0.000952728 secs
create_atoms    2 random 98 200 my_sim_box
Created 98 atoms
  Time spent = 0.000162095 secs
create_atoms    3 random 98 300 my_sim_box
Created 98 atoms
  Time spent = 9.44212e-05 secs

set		type 2 charge -1.0
  98 settings made for charge
set 		type 3 charge  1.0
  98 settings made for charge

comm_modify     mode single vel yes

mass            1 1.0
mass		2 1.0
mass		3 1.0

pair_style      hybrid/overlay dpd 1.0 1.0 245455 coul/slater/long 0.929 3.0
pair_coeff      * * dpd 25.0 4.5
pair_coeff	* * coul/slater/long

kspace_style    ewald 0.00001
dielectric      1.0

neighbor        2.0 bin
neigh_modify    every 1 delay 0 check no once no

timestep        0.02

fix             2 all nve

thermo          10
thermo_style    custom step spcpu temp press etotal pe ke ecoul elong evdwl
thermo_modify   line one

run             100000
Ewald initialization ...
  using 12-bit tables for long-range coulomb (../kspace.cpp:321)
  G vector (1/distance) = 1.0262
  estimated absolute RMS force accuracy = 1.01103e-05
  estimated relative force accuracy = 1.01103e-05
  KSpace vectors: actual max1d max3d = 2787 11 6083
                  kxmax kymax kzmax  = 11 11 11
Neighbor list info ...
  update every 1 steps, delay 0 steps, check no
  max neighbors/atom: 2000, page size: 100000
  master list distance cutoff = 5
  ghost atom cutoff = 5
  binsize = 2.5, bins = 4 4 4
  2 neighbor lists, perpetual/occasional/extra = 2 0 0
  (1) pair dpd, perpetual
      attributes: half, newton on
      pair build: half/bin/atomonly/newton
      stencil: half/bin/3d/newton
      bin: standard
  (2) pair coul/slater/long, perpetual, copy from (1)
      attributes: half, newton on
      pair build: copy
      stencil: none
      bin: none
Per MPI rank memory allocation (min/avg/max) = 22.65 | 22.66 | 22.68 Mbytes
Step S/CPU Temp Press TotEng PotEng KinEng E_coul E_long E_vdwl 
       0            0            0    23.709678    7.8987828    7.8987828            0 2.8532817e-05 -0.0091211487    7.9078754 
      10    17.569541    1.7790281    26.374992    7.5064872    4.8388345    2.6676527 9.9844199e-05 -0.0099367447    4.8486714 
      20    20.031454    1.5002692    25.759384    7.1718722    4.9222186    2.2496537 0.00036282778 -0.012042147    4.9338979 
      30    19.798839    1.3622045    24.737966    6.8990916     4.856466    2.0426256 0.00058998748   -0.0140032    4.8698792 
      40    20.054382    1.2724856    24.583275    6.6824302     4.774338    1.9080922 0.00090968293 -0.016391181    4.7898195 
      50    20.084003    1.2186257    24.424877    6.5368602     4.709531    1.8273292  0.001028852 -0.017524842     4.726027 
      60    19.935403    1.1542008    24.073261    6.4025557    4.6718316    1.7307241 0.00085025495  -0.01678293    4.6877643 
      70    20.160588    1.1294404    23.953567    6.3153328    4.6217369    1.6935959 0.00086908553 -0.016840848    4.6377087 
      80    19.756844    1.1028844    24.044958     6.271123    4.6173478    1.6537752 0.00099340445 -0.017997422    4.6343518 
      90    19.939125    1.0918347    24.335751    6.2262626    4.5890565    1.6372061 0.0014572469 -0.020252213    4.6078515 
     100    20.427477    1.0987806    23.981304    6.2401353    4.5925139    1.6476214 0.0016000656 -0.020685211     4.611599 
     110    19.826259     1.089493    24.004129    6.1996945    4.5659997    1.6336948 0.0016337289 -0.021118051     4.585484 
     120      19.9383    1.0713708    23.867734    6.1742533    4.5677327    1.6065206 0.0016310428 -0.020718338      4.58682 
     130    20.086792    1.0535647    24.231249    6.1716844    4.5918641    1.5798203 0.0014321718 -0.019394609    4.6098266 
     140    19.916983    1.0522327    24.022423    6.1522769     4.574454    1.5778229 0.0013298772  -0.01952675    4.5926509 
     150    20.247366    1.0600282    24.107764    6.1388985    4.5493862    1.5895123 0.0012754897 -0.019683927    4.5677946 
     160    20.131687    1.0482029    24.040332    6.1167675    4.5449873    1.5717802 0.0015089732 -0.020949103    4.5644274 
     170    20.347962    1.0267746    23.725364    6.1016092    4.5619607    1.5396484 0.0017636206 -0.022357462    4.5825546 
     180    20.044592    1.0413167    23.769122    6.1163015    4.5548471    1.5614544 0.0019050301 -0.023431206    4.5763733 
     190    20.169256    1.0574458    23.848936    6.1345013    4.5488613    1.5856399 0.0020967107 -0.024082696    4.5708473 
     200    20.313327    1.0813797    24.072612    6.1391115    4.5175827    1.6215288 0.0021318856  -0.02415731    4.5396081 
     210    20.502547    1.0589526    23.872439    6.1318395    4.5439401    1.5878994 0.0021140439 -0.023886297    4.5657124 
     220     20.02281    1.0177906    23.607793    6.0945259     4.568349    1.5261769 0.0020151523 -0.023649415    4.5899832 
     230     19.82144    1.0396332    23.679142    6.0900951    4.5311652    1.5589299 0.0020205339 -0.023837306    4.5529819 
     240    20.376959    1.0217382    23.556112     6.093491    4.5613946    1.5320964 0.0019577926 -0.023014322    4.5824512 
     250    19.982708     1.033377    23.947879    6.0865756    4.5370269    1.5495488 0.0020068783 -0.022979404    4.5579994 
     260    20.157351     1.009243    23.745468    6.0509247    4.5375648    1.5133599 0.0020583333 -0.023154716    4.5586612 
     270    20.375402    1.0134035    23.689967    6.0608723    4.5412738    1.5195985 0.0019543299  -0.02265718    4.5619766 
     280    20.243895   0.99951168    23.789506    6.0409869    4.5422191    1.4987678 0.0017787077 -0.021614999    4.5620554 
     290    20.257812    1.0196121    23.765889    6.0563207    4.5274123    1.5289084 0.0017444584 -0.021421781    4.5470896 
     300    19.860617    1.0363081    23.681076    6.0836673    4.5297233     1.553944 0.0017754871 -0.021633846    4.5495817 
     310    19.802983    1.0284379    23.829162    6.0897194    4.5475768    1.5421426 0.0019245786 -0.022727709      4.56838 
     320    19.976769    1.0120338    23.536548    6.0649237     4.547379    1.5175446 0.0018685193 -0.022566003    4.5680765 
     330    20.119657    1.0108692    23.546935    6.0798601    4.5640618    1.5157983 0.0018402376 -0.022619023    4.5848405 
     340    20.068881    1.0238065    23.853296    6.0737527    4.5385549    1.5351979 0.0019601747 -0.022823355    4.5594181 
     350    20.420941    1.0196714     23.56192     6.078893    4.5498957    1.5289973 0.0019167665   -0.0226736    4.5706525 
     360    19.959505    1.0156398    23.432356    6.0579495    4.5349976    1.5229518 0.0019197195 -0.022763663    4.5558416 
     370    20.088928    1.0012792    23.561575    6.0463294    4.5449113    1.5014181 0.0018510586 -0.022678502    4.5657388 
     380    20.178014    1.0121673    23.698657    6.0489355    4.5311907    1.5177448 0.0019512332 -0.023119281    4.5523587 
     390    20.256603   0.99833129     23.72817    6.0378828     4.540885    1.4969978 0.0018870155 -0.022763387    4.5617614 
     400    20.163587      1.00014    23.892306    6.0474526    4.5477426      1.49971 0.0016637755 -0.021797543    4.5678764 
     410    19.764462    1.0007022    23.763336    6.0372208    4.5366678     1.500553 0.0018544245 -0.022080571    4.5568939 
     420    19.817595    1.0030417    23.529407    6.0353029    4.5312419     1.504061 0.0018744347 -0.022197474    4.5515649 
     430     19.96785   0.99562252    23.617419    6.0242728    4.5313369     1.492936  0.001706477 -0.021437964    4.5510684 
     440    20.086509   0.97559743    23.533481     6.015453    4.5525446    1.4629083 0.0015346031 -0.020633083    4.5716431 
     450    20.264245   0.99284582    23.703902    6.0018678    4.5130955    1.4887723 0.0014337697 -0.020056354    4.5317181 
     460    20.350606    1.0009671    23.947347    6.0238797    4.5229295    1.5009502 0.0014818983 -0.020414812    4.5418624 
     470    20.246083    1.0030408    23.633574    6.0432614    4.5392017    1.5040596  0.001640374 -0.021112386    4.5586737 
     480    20.031936    1.0029914    23.939825    6.0477612    4.5437756    1.5039856 0.0016542589 -0.020872346    4.5629937 
     490    20.182181    1.0193123    23.832649    6.0626068    4.5341481    1.5284588 0.0016468582 -0.020491522    4.5529927 
     500    20.013054    1.0117453    23.813509    6.0533351     4.536223     1.517112 0.0016980106 -0.020721231    4.5552462 
     510     20.02909    1.0222326     23.91345     6.062037    4.5291992    1.5328379 0.0016401439 -0.020467155    4.5480262 
     520    20.182938    1.0013105     23.64064    6.0503499    4.5488848    1.5014651 0.0015837114 -0.020074454    4.5673755 
     530     19.78036    1.0088761    23.681679    6.0538014    4.5409917    1.5128097 0.0016118298 -0.020551991    4.5599319 
     540    20.231386    1.0077423    23.699246    6.0421999    4.5310902    1.5111096 0.0016414726 -0.020773913    4.5502227 
     550    20.180427    1.0214614    23.762014     6.065414    4.5337327    1.5316813 0.0016643588 -0.020917128    4.5529855 
     560    20.303335   0.98891912    23.920853     6.040023    4.5571388    1.4828842 0.0016893949 -0.021125901    4.5765753 
     570    20.279388    1.0085803    23.525604    6.0489494    4.5365832    1.5123662  0.001452098 -0.019992291    4.5551234 
     580    20.015732    1.0039313    23.556346     6.040577     4.535182     1.505395 0.0012209739 -0.018901336    4.5528624 
     590    20.158971   0.97825068    23.493599    6.0162257    4.5493388    1.4668869 0.0011653907 -0.018737263    4.5669107 
     600    20.083414    1.0042706    23.616431    6.0236842    4.5177804    1.5059038  0.001192702 -0.018628921    4.5352166 
     610    20.226394   0.98888954    23.466902    6.0194727    4.5366328    1.4828399 0.0012589321 -0.019118593    4.5544924 
     620    20.497774   0.99300361    23.559141    6.0390623    4.5500534    1.4890089   0.00131453 -0.019626799    4.5683657 
     630    20.345016   0.99104403    23.927047    6.0118214    4.5257508    1.4860705 0.0013262344 -0.019645776    4.5440704 
     640    20.405929    1.0019004    23.629469    6.0285419    4.5261922    1.5023496 0.0013592539 -0.019989745    4.5448227 
     650    19.678348   0.98993601    23.816384    6.0035387    4.5191296    1.4844091 0.0013978356 -0.020031633    4.5377634 
     660    19.794865   0.98762348    23.518556    5.9905672    4.5096258    1.4809414 0.0014888179 -0.020236983     4.528374 
     670    20.322889   0.99168945    23.625646     6.004989    4.5179507    1.4870383 0.0015246978 -0.020397024     4.536823 
     680     20.31147   0.98218447    23.735236    6.0059687     4.533183    1.4727856 0.0014087776 -0.020097914    4.5518722 
     690    20.439735     1.014918    23.649043    6.0494108    4.5275412    1.5218696 0.0015013336 -0.021079624    4.5471195 
     700    20.411154   0.99149989    23.619443    6.0207827    4.5340286    1.4867541 0.0015934843 -0.021764276    4.5541994 
     710    20.289574   0.98902538    23.931232    5.9970032    4.5139596    1.4830436 0.0017136042  -0.02246972    4.5347157 
     720     19.86192    1.0025517    23.883487     6.026656    4.5233298    1.5033262 0.0017585568 -0.022619362    4.5441906 
     730    19.702785   0.99505388    23.479099    6.0088152    4.5167319    1.4920833  0.001868408 -0.023334785    4.5381983 
     740    19.695781    1.0071439    23.776025    6.0386926    4.5284803    1.5102123 0.0019403103 -0.023661805    4.5502018 
     750    20.316196    1.0054501    23.845237    6.0384003    4.5307279    1.5076725 0.0017031702 -0.022597561    4.5516223 
     760     20.25838   0.98979904    23.548366    6.0151068    4.5309031    1.4842037 0.0014328943 -0.021572753     4.551043 
     770    20.225678    1.0118683    23.864783    6.0599562    4.5426596    1.5172966  0.001442126  -0.02165946     4.562877 
     780    20.198841    1.0146301    23.617622    6.0864074    4.5649697    1.5214378 0.0016728694 -0.022560071    4.5858569 
     790    20.060475    1.0241376     23.75804    6.0881138    4.5524194    1.5356944 0.0016187848 -0.021962665    4.5727633 
     800    19.830969    1.0456454    23.750719     6.097253    4.5293078    1.5679453 0.0017257156 -0.022027165    4.5496092 
     810    20.363968    1.0150981    23.506662    6.0753266    4.5531869    1.5221397 0.0016414421 -0.021092728    4.5726382 
     820    20.232053    1.0331003    23.722841    6.1025837    4.5534498    1.5491339 0.0017046441 -0.021009093    4.5727542 
     830    20.293506     1.026814    23.911795    6.0854888    4.5457813    1.5397075 0.0017228015 -0.021350839    4.5654093 
     840    19.751622    1.0351395     23.97236     6.088333    4.5361414    1.5521916 0.0015368866 -0.020904347    4.5555088 
     850    20.008232    1.0165624    23.669354    6.0662202    4.5418849    1.5243353 0.0014825203 -0.020563666     4.560966 
     860    19.856466    1.0152849    23.517364    6.0826036    4.5601839    1.5224197 0.0015147228 -0.020702607    4.5793718 
     870    20.263129     1.033739    23.650342    6.0804246    4.5303329    1.5500916 0.0015837304 -0.021503948    4.5502532 
     880     20.38537    1.0317177    23.907593    6.0928852    4.5458245    1.5470606 0.0016637806 -0.021758304     4.565919 
     890    20.086399     1.021706    23.707376    6.0882113    4.5561631    1.5320482  0.001654957 -0.021739098    4.5762473 
     900    19.856607    1.0179512    23.573177    6.0650896    4.5386718    1.5264178 0.0016837175 -0.022115639    4.5591037 
     910    20.258564    1.0161892    23.702731    6.0567145    4.5329387    1.5237757 0.0017040382 -0.022270815    4.5535055 
     920     20.47285    1.0230721    23.998275    6.0605891    4.5264926    1.5340966 0.0016382693 -0.021813331    4.5466676 
     930    20.214265    1.0158727    23.801805    6.0594787    4.5361776    1.5233011 0.0015291696  -0.02078426    4.5554327 
     940    20.260747    1.0318471    24.058856    6.0600079    4.5127531    1.5472548 0.0016072894 -0.020768665    4.5319145 
     950    20.324324    1.0364855    23.931794    6.0760985    4.5218884      1.55421 0.0017259535 -0.021799342    4.5419618 
     960    19.936481    1.0290842    23.761361    6.0606017    4.5174899    1.5431118 0.0016327976 -0.021106003    4.5369631 
     970    20.221066    1.0173232    24.048784    6.0644435    4.5389674    1.5254761 0.0015064475 -0.021230817    4.5586918 
     980    20.072042     1.019526    23.905845     6.065904    4.5371248    1.5287793 0.0016602653 -0.021930717    4.5573952 
     990    19.541991    1.0165858    23.996152    6.0342052    4.5098348    1.5243704 0.0017203889 -0.021863324    4.5299777 
    1000    20.165608   0.99838069    23.529442    6.0115368    4.5144649    1.4970718 0.0018775489 -0.022264264    4.5348516 
    1010    19.828921    1.0051979    23.547177    6.0369294    4.5296352    1.5072942 0.0019517996 -0.022504296    4.5501877 
    1020    20.195916    1.0133968    23.539991     6.049044    4.5294555    1.5195885 0.0017095559 -0.021422524    4.5491685 
    1030    20.002669    1.0022795     23.33566     6.056247     4.553329    1.5029181 0.0014704166 -0.020237593    4.5720962 
    1040    20.204298    1.0106216    23.801386    6.0737489    4.5583219     1.515427  0.001508019 -0.020388667    4.5772025 
    1050      20.4881    1.0263449    23.698326    6.0909074    4.5519032    1.5390041 0.0015057225 -0.020189463     4.570587 
    1060    20.464741    1.0312092    23.742946    6.0847107    4.5384125    1.5462983 0.0014810041 -0.020258996    4.5571905 
    1070    20.329995    1.0133931    23.688214    6.0687503    4.5491673     1.519583 0.0014938026 -0.020040925    4.5677145 
    1080    19.835524    1.0159006    23.973236     6.076406     4.553063    1.5233429 0.0015526884 -0.020309304    4.5718196 
    1090    19.991565    1.0045022     23.85003    6.0669776    4.5607266     1.506251 0.0014575863 -0.020197677    4.5794667 
    1100    20.204216    1.0043428    23.716554    6.0497582    4.5437462     1.506012  0.001605362 -0.021157181    4.5632981 
    1110    20.395082   0.99991045    23.768678    6.0349042    4.5355385    1.4993657 0.0014368243 -0.020839603    4.5549412 
    1120    20.162743    1.0125036    23.901915    6.0531818    4.5349327    1.5182491 0.0012196265 -0.020119304    4.5538324 
    1130    19.852719   0.99683164    23.770668    6.0405193    4.5457703     1.494749 0.0012736021 -0.020779796    4.5652765 
    1140    20.322277    1.0006898    23.464666    6.0285231    4.5279888    1.5005343 0.0014392159 -0.021416662    4.5479663 
    1150    20.246411   0.98711931    23.491067     6.007489    4.5273036    1.4801854 0.0014542261 -0.021364482    4.5472139 
    1160    20.485618     1.008019    23.783817    6.0077412    4.4962167    1.5115245 0.0014270701 -0.021030223    4.5158198 
    1170    20.274338   0.98493475    23.527866    6.0116186    4.5347089    1.4769097 0.0014417048 -0.020814572    4.5540818 
    1180     20.39316   0.98872234    23.573322    6.0243992    4.5418101    1.4825891 0.0014145239 -0.020591199    4.5609867 
    1190    20.121735    1.0058565    23.597932    6.0336307    4.5253488    1.5082818 0.0013824773  -0.02065071    4.5446171 
    1200    20.157602    1.0227999    23.697602    6.0458492    4.5121608    1.5336884  0.001371387 -0.020343341    4.5311328 
    1210    20.359516    1.0048194    23.554307    6.0426509    4.5359242    1.5067267 0.0015835347 -0.021412734    4.5557534 
    1220    20.305725    1.0093263     23.75165    6.0370961    4.5236114    1.5134847 0.0015811962 -0.021225208    4.5432554 
    1230    20.397362   0.98622762    23.254349    6.0305059    4.5516576    1.4788483 0.0015556637 -0.021402096     4.571504 
    1240    20.399965     1.013169    23.694711    6.0348219     4.515575    1.5192469  0.001750922 -0.022211002    4.5360351 
    1250     20.31915    1.0012034     23.59728    6.0271102    4.5258057    1.5013045 0.0017303175 -0.021918094    4.5459935 
    1260    20.111035   0.98879549    23.738964    6.0173107    4.5346119    1.4826988 0.0017101805 -0.021843802    4.5547455 
    1270    19.962296   0.99363866    23.681617    6.0376403    4.5476791    1.4899612 0.0015606983 -0.021281464    4.5673999 
    1280    20.214667   0.99190697    23.666607    6.0243017    4.5369372    1.4873645 0.0013971879 -0.020467016    4.5560071 
    1290    20.383582     1.003059     23.88756    6.0322537    4.5281667     1.504087 0.0014011992 -0.020446257    4.5472117 
    1300    19.881757    1.0029022    23.380119    6.0268012    4.5229494    1.5038518 0.0016120234 -0.021160441    4.5424978 
    1310    19.743049    1.0198295     23.82374    6.0734414     4.544207    1.5292344 0.0016862468 -0.021554918    4.5640757 
    1320    20.174004    1.0199786    23.723075     6.061808      4.53235     1.529458 0.0016189206 -0.021392856     4.552124 
    1330    20.339953    1.0052573    23.632593    6.0588114    4.5514282    1.5073832  0.001762657 -0.021938582    4.5716041 
    1340    20.486049    0.9951931    23.803473    6.0257342    4.5334421    1.4922921 0.0020485427 -0.023563052    4.5549566 
    1350    20.410147   0.99924802    23.449797    6.0437995    4.5454271    1.4983724  0.002010393 -0.023475773    4.5668924 
    1360    20.364126    1.0046912    23.542615    6.0565067    4.5499722    1.5065344  0.001927269  -0.02316167    4.5712066 
    1370    20.165348    1.0053128    23.446675    6.0367369    4.5292703    1.5074666 0.0019923886 -0.023413412    4.5506914 
    1380    20.013587    1.0198474    24.047123    6.0696353    4.5403741    1.5292612 0.0020538336 -0.023749436    4.5620697 
    1390     20.02326   0.99312218     23.53797     6.026323    4.5371363    1.4891867  0.001990696 -0.022978368     4.558124 
    1400    20.445736    1.0185843    23.973767    6.0410015    4.5136342    1.5273672 0.0018656125 -0.022712142    4.5344808 
    1410    20.352367    1.0143888    23.995063    6.0444468    4.5233709    1.5210759 0.0020717422 -0.023638894     4.544938 
    1420    20.411706    1.0260033    23.954531    6.0553378    4.5168459     1.538492 0.0021221427 -0.023467899    4.5381916 
    1430     20.01811     1.030367    23.824915    6.0755512    4.5305159    1.5450353 0.0021775871 -0.024013004    4.5523513 
    1440    20.146249    1.0075063    24.057025    6.0636996    4.5529439    1.5107557 0.0020714644 -0.024069121    4.5749416 
    1450    20.210774    1.0186809    23.612155    6.0827279     4.555216    1.5275119 0.0020065213 -0.023918934    4.5771284 
    1460    20.124529     1.050927    23.589248    6.1089396    4.5330745    1.5758651 0.0018469128 -0.023494647    4.5547223 
    1470    19.998079    1.0376979    23.523554     6.113931    4.5579029     1.556028 0.0019589466 -0.023604207    4.5795482 
    1480    20.301943    1.0313843    24.126929    6.0895722    4.5430115    1.5465607 0.0018425089 -0.023132005     4.564301 
    1490    20.224255    1.0193982    23.352702    6.0752911    4.5467035    1.5285876 0.0017633792 -0.022313878     4.567254 
    1500    20.148447    1.0305539    23.797152    6.0890791    4.5437636    1.5453155 0.0017485916 -0.022164059    4.5641791 
    1510    20.187788    1.0506218    24.201039    6.1393738    4.5639664    1.5754074 0.0018446177 -0.022288353    4.5844101 
    1520    20.290924    1.0340054    23.743909     6.103769    4.5532779    1.5504911 0.0017451143 -0.021957354    4.5734901 
    1530     20.07959    1.0298869    23.847486    6.0719264    4.5276111    1.5443153 0.0017763616  -0.02173713    4.5475718 
    1540    20.488884    1.0046688    23.861228     6.073712    4.5672111    1.5065009 0.0018516435 -0.021795934    4.5871554 
    1550    20.437002    1.0312818    23.854505    6.0717283    4.5253212    1.5464071  0.001686045 -0.021702941    4.5453381 
    1560    20.367477    1.0327625    23.646422    6.0750008    4.5263734    1.5486274 0.0017493964 -0.022041519    4.5466655 
    1570    20.358716    1.0319395    23.700225    6.0656968    4.5183036    1.5473932 0.0019256943 -0.022666723    4.5390446 
    1580    20.318517    1.0186999    24.117609    6.0512496    4.5237091    1.5275405 0.0019905669 -0.022814171    4.5445327 
    1590    20.109427    1.0216724    23.895383     6.049546    4.5175482    1.5319978 0.0018019321 -0.021876676    4.5376229 
    1600    20.262266    1.0180627    23.675826    6.0382708    4.5116857     1.526585 0.0014718219 -0.020622959    4.5308369 
    1610    20.323649    1.0021182    23.669424    6.0591411    4.5564649    1.5026762 0.0014150502 -0.019758683    4.5748085 
    1620    20.165766    1.0082154    23.607504    6.0738802    4.5620612     1.511819   0.00152017 -0.020379637    4.5809207 
    1630    20.121855    1.0083805    23.663074    6.0509157    4.5388492    1.5120665 0.0016548104 -0.021118517    4.5583129 
    1640    19.818833    1.0151994    23.753902    6.0629344    4.5406428    1.5222916 0.0018556631 -0.022231535    4.5610187 
    1650    19.896274   0.99991576    23.909943    6.0300776    4.5307039    1.4993737 0.0020260596 -0.023274378    4.5519522 
    1660    19.884546    1.0148587    23.708757    6.0507604    4.5289798    1.5217806 0.0020074749 -0.023418235    4.5503906 
    1670    20.041582    1.0081468    23.414578    6.0400643    4.5283482    1.5117161 0.0018551715 -0.022796894    4.5492899 
    1680     20.32354    1.0004035     23.93244    6.0324677    4.5323627     1.500105 0.0016362042 -0.021675136    4.5524016 
    1690     20.30974    0.9927811    23.700608    6.0605827    4.5719074    1.4886753 0.0013825236 -0.020245648    4.5907706 
    1700    20.359923    1.0172794    23.744487      6.09863    4.5732195    1.5254105 0.0014232743  -0.02028303    4.5920793 
    1710    19.842054     1.010151    23.436287      6.04097    4.5262486    1.5147214 0.0015549355  -0.02113645    4.5458301 
    1720    20.106727    1.0033926    23.623408    6.0469368    4.5423497    1.5045871 0.0018206107 -0.022463819    4.5629929 
    1730    20.361124    1.0264814     23.83875    6.0610271    4.5218183    1.5392088 0.0019338762 -0.022909109    4.5427935 
    1740    20.407986    1.0119539    23.713665    6.0720149    4.5545901    1.5174248 0.0020254769 -0.023168201    4.5757328 
    1750    20.177228    1.0058373     23.58136    6.0411591     4.532906     1.508253 0.0019748919 -0.023078755    4.5540099 
    1760    20.234782   0.99947692    23.475343    6.0630762    4.5643606    1.4987156 0.0016292796 -0.021334442    4.5840657 
    1770    20.033887    1.0138112    23.546265    6.0485033    4.5282934      1.52021 0.0016414172 -0.021303788    4.5479557 
    1780    20.168666    1.0010804    23.645649     6.036183     4.535063      1.50112  0.001589016 -0.021445872    4.5549199 
    1790    20.423215    1.0226772    23.601837    6.0455335     4.512029    1.5335045 0.0015104362  -0.02102547    4.5315441 
    1800    20.140277    0.9999371    23.753032     6.015773    4.5163673    1.4994057 0.0014207837   -0.0207459    4.5356924 
    1810    19.727346   0.98838742    23.736895    6.0041885    4.5221016    1.4820869 0.0014729824 -0.020912612    4.5415412 
    1820     20.07692    1.0091638    23.856939    6.0455794    4.5323383    1.5132411 0.0015579371 -0.021377654     4.552158 
    1830     20.46107    1.0178485    23.845018    6.0512939    4.5250301    1.5262638 0.0017809823 -0.022153613    4.5454027 
    1840     20.12227    1.0108549    23.644188    6.0652073    4.5494304    1.5157769 0.0019556032 -0.022863375    4.5703382 
    1850    20.238507     1.044026    23.781373    6.0974406    4.5319236    1.5655169 0.0021087906 -0.023333797    4.5531486 
    1860    19.953265    1.0179692    23.949776     6.059523    4.5330782    1.5264448 0.0020213093 -0.023114902    4.5541718 
    1870    20.327935     1.016315    23.694269    6.0510609    4.5270965    1.5239644 0.0019558101 -0.023115022    4.5482558 
    1880    20.248794    1.0289056    23.966187    6.0757055    4.5328615     1.542844 0.0018267982 -0.022629007    4.5536637 
    1890    20.121162    1.0059894    23.578128    6.0643189    4.5558378     1.508481 0.0016448915  -0.02170769    4.5759006 
    1900     19.92841    1.0162959    24.039481    6.0565854    4.5326497    1.5239357 0.0016353218 -0.021799345    4.5528138 
    1910      19.9838    1.0168836    24.089828    6.0567024    4.5318855    1.5248169 0.0017208525 -0.022168427    4.5523331 
    1920    20.156795   0.99950269    23.613347    6.0547947    4.5560404    1.4987543 0.0018491826  -0.02238479     4.576576 
    1930    19.869758    1.0200664     23.90545     6.031301    4.5017115    1.5295895 0.0019911383 -0.022991131    4.5227115 
    1940    20.139271   0.99563769    23.807313    6.0132875    4.5203288    1.4929587  0.001924573 -0.023039405    4.5414437 
    1950    20.200809    1.0023368    23.651074    6.0326889     4.529685     1.503004 0.0017155629 -0.022406593     4.550376 
    1960    20.291424    1.0016138    23.803326    6.0433527    4.5414328    1.5019198 0.0016362606 -0.021867443     4.561664 
    1970    20.228252    1.0138151    23.295746    6.0603052    4.5400895    1.5202157 0.0016443995 -0.022058616    4.5605037 
    1980    20.309531    1.0135552    23.888562    6.0808584    4.5610324     1.519826 0.0015084744 -0.021209604    4.5807335 
    1990    20.106425    1.0173676    23.689877     6.075133    4.5495902    1.5255427 0.0015491967 -0.021479364    4.5695204 
    2000    20.132693    1.0085872    23.341302    6.0462802    4.5339037    1.5123765 0.0016179097 -0.021803134    4.5540889 
    2010    20.433364    1.0168269    23.733078    6.0316504    4.5069185     1.524732  0.001782012 -0.022034832    4.5271713 
    2020    20.579894    1.0194653    23.422689    6.0447926    4.5161044    1.5286882 0.0018515839 -0.022340992    4.5365938 
    2030    20.231109    1.0175079    23.701986    6.0666981    4.5409451    1.5257531 0.0017750307 -0.021849284    4.5610193 
    2040     20.47517     1.010786    23.683411    6.0609991    4.5453255    1.5156736 0.0017988897  -0.02175155    4.5652781 
    2050     20.33691    1.0035173    23.660929    6.0373372    4.5325629    1.5047742 0.0017831434 -0.021851974    4.5526318 
    2060    20.346407    1.0026354    23.710928    6.0337431    4.5302913    1.5034518 0.0018729226 -0.021989589     4.550408 
    2070    20.523912    1.0172116    23.966336    6.0419045    4.5165957    1.5253088 0.0017198211 -0.021678876    4.5365547 
    2080    20.418452    1.0080582    23.639827    6.0366202     4.525037    1.5115833 0.0015714506 -0.021206816    4.5446723 
    2090    20.056415    1.0099312    23.766639    6.0337486    4.5193567    1.5143919 0.0016648028 -0.021468442    4.5391603 
    2100     20.29543   0.99820068    23.783994    6.0217597    4.5249578    1.4968019 0.0018359403 -0.022453265    4.5455751 
    2110       20.305    1.0004849    23.799499     6.036485    4.5362579    1.5002271 0.0019430153 -0.022958881    4.5572738 
    2120    20.601632   0.99028955    23.658699    6.0362019    4.5512627    1.4849392 0.0017574432 -0.021911033    4.5714163 
    2130    20.371119    1.0072677    23.546134    6.0509514    4.5405534     1.510398 0.0015430681 -0.020944484    4.5599549 
    2140     20.23982    1.0212312    23.680133    6.0598811     4.528545    1.5313361 0.0016334995 -0.021423417    4.5483349 
    2150    20.440816    1.0071693     23.59072    6.0288696    4.5186192    1.5102504 0.0016325018 -0.021503962    4.5384907 
    2160    20.206882   0.99682621    23.703635    6.0266413    4.5319004    1.4947409 0.0014562419 -0.020980389    4.5514246 
    2170    19.966949   0.99636846    23.631412    6.0444014    4.5503469    1.4940545 0.0013464569 -0.020600093    4.5696006 
    2180    20.105097      1.02891    23.926677    6.0591514    4.5163009    1.5428505 0.0011450636 -0.019492301    4.5346482 
    2190    20.244272    1.0272967     23.26635    6.0724248    4.5319934    1.5404314 0.0012485683  -0.01999494    4.5507398 
    2200    20.365539    1.0096198    23.386753    6.0628309     4.548906    1.5139249  0.001481191 -0.020995491    4.5684203 
    2210    20.233042     1.011286    23.611277    6.0471343    4.5307109    1.5164234 0.0017138925 -0.021904722    4.5509018 
    2220    20.375486    1.0210071    23.828152    6.0774292     4.546429    1.5310002 0.0018450328 -0.022577721    4.5671617 
    2230    20.201967     1.040763    23.782916    6.0963374    4.5357132    1.5606242 0.0016284547 -0.021904389    4.5559892 
    2240    20.233976    1.0190505    24.012804    6.0703273     4.542261    1.5280663 0.0014413296 -0.020924401    4.5617441 
    2250    20.303513    1.0069638    23.998604    6.0640657    4.5541236    1.5099422 0.0015207151 -0.021661978    4.5742648 
    2260    20.318662    1.0152463    23.859204    6.0737404    4.5513786    1.5223619 0.0016397541 -0.022492608    4.5722314 
    2270    20.374224    1.0317087    23.819433    6.0761303    4.5290831    1.5470472 0.0016684209  -0.02233018    4.5497449 
    2280    20.228415    1.0167281    23.895584    6.0548588     4.530275    1.5245838 0.0015003014 -0.021372904    4.5501476 
    2290    20.354302    1.0158421    23.853532    6.0528381    4.5295829    1.5232552 0.0014287371 -0.020694174    4.5488483 
    2300    20.263405   0.99258288    23.674329    6.0362835    4.5479054     1.488378 0.0013245488 -0.020252889    4.5668338 
    2310    20.317011   0.99464107    23.550361     6.031973    4.5405087    1.4914643 0.0013150413 -0.020115608    4.5593092 
    2320    20.169176     1.006547    23.851024    6.0475222    4.5382049    1.5093173 0.0013411708 -0.019964689    4.5568284 
    2330    20.192029    1.0007594    23.786412    6.0329425    4.5323038    1.5006388 0.0015926262 -0.021418485    4.5521296 
    2340    20.165873   0.99544112    23.604859    6.0456121    4.5529481     1.492664 0.0019586023 -0.023457556    4.5744471 
    2350    20.067412    1.0200141    23.785626    6.0631976    4.5336865    1.5295112 0.0021369629 -0.024315017    4.5558645 
    2360    20.255089    1.0098193    23.719647    6.0681613    4.5539372    1.5142241 0.0022028311 -0.024776203    4.5765105 
    2370    20.437756    1.0338124    23.935793    6.0638106     4.513609    1.5502017 0.0021104018 -0.024109675    4.5356082 
    2380    20.333429    1.0005501    23.719964    6.0565361    4.5562113    1.5003249 0.0020264733 -0.023544678    4.5777295 
    2390    20.250092     1.006554    23.673376    6.0439398    4.5346121    1.5093278 0.0021292623 -0.023384293    4.5558671 
    2400    19.820239    1.0093137    23.824881    6.0384123    4.5249464    1.5134659 0.0021458391 -0.023292053    4.5460927 
    2410    20.157523   0.99434444    23.432234    5.9976937    4.5066742    1.4910195 0.0019673234 -0.022425943    4.5271328 
    2420    20.449905    1.0026045    23.340147    6.0219823    4.5185769    1.5034054 0.0019608727  -0.02237193    4.5389879 
    2430    20.238652   0.99310431    23.943715    6.0205065    4.5313465    1.4891599 0.0018901909 -0.022306591    4.5517629 
    2440    20.150546   0.99357865    23.471988    6.0067572     4.516886    1.4898712 0.0018440129  -0.02222166    4.5372637 
    2450    20.048617   0.99283535    23.652753    6.0018862    4.5131296    1.4887566  0.002002107 -0.022994209    4.5341217 
    2460    20.124031     1.005017    23.719734    6.0291445    4.5221215     1.507023 0.0019349399 -0.022604733    4.5427913 
    2470    20.397614    1.0117397    23.668714    6.0311627    4.5140591    1.5171036 0.0018974774  -0.02239618    4.5345578 
    2480    20.443165    1.0190567    23.607778    6.0345083    4.5064328    1.5280756  0.001962308  -0.02273419    4.5272046 
    2490    20.216587    1.0024427    23.714074    6.0487056    4.5455428    1.5031628 0.0020821538 -0.023423723    4.5668844 
    2500    20.333185   0.99373818    23.478761     6.032684    4.5425736    1.4901104 0.0019806704 -0.023002691    4.5635957 
    2510    20.258133    1.0109234    23.781097    6.0603716    4.5444919    1.5158797 0.0018029576 -0.022071099      4.56476 
    2520     20.18178    1.0208666    23.745266    6.0638095    4.5330201    1.5307894 0.0016453098 -0.021321713    4.5526965 
    2530    20.057492    1.0118999    23.504536    6.0545648    4.5372209    1.5173439 0.0018277784 -0.022242759    4.5576359 
    2540    20.229988   0.99661525    23.445342    6.0643685    4.5699439    1.4944246 0.0019751836 -0.022542211    4.5905109 
    2550    20.212691    1.0257302    23.739433    6.0546378    4.5165554    1.5380825 0.0022355738 -0.023754246     4.538074 
    2560    20.269717    1.0219721    23.606462    6.0499351    4.5174879    1.5324472 0.0023025136  -0.02443755    4.5396229 
    2570    20.232715    1.0253733    23.700733    6.0620653     4.524518    1.5375473 0.0023542074 -0.024421238     4.546585 
    2580    19.981627    1.0235035    24.129355    6.0774954    4.5427519    1.5347435  0.002095096 -0.023306347    4.5639632 
    2590    19.696218    1.0228961    23.623707    6.0831832    4.5493505    1.5338327  0.001936449 -0.022577825    4.5699919 
    2600    20.061237    1.0245989     23.97006    6.0748586    4.5384726     1.536386 0.0020348224 -0.023396653    4.5598344 
    2610     20.46422    1.0208274     23.84233     6.043587    4.5128562    1.5307307 0.0021741627 -0.024022117    4.5347042 
    2620    20.141589    1.0024685    23.756912    6.0471791    4.5439776    1.5032015 0.0022456502 -0.024186325    4.5659183 
    2630    20.135721    1.0240285    23.563838    6.0969361    4.5614055    1.5355307  0.002224844  -0.02418842     4.583369 
    2640    20.156181    1.0301767    23.628465    6.0823805    4.5376305      1.54475 0.0021094439 -0.023413295    4.5589343 
    2650      19.9186     1.018806    23.475059    6.0565673    4.5288677    1.5276996 0.0019296737 -0.022400378    4.5493384 
    2660    20.447462    1.0068931    23.647854    6.0629708    4.5531347    1.5098362 0.0017723609 -0.021302977    4.5726653 
    2670    20.383884    1.0077703    23.717171    6.0456672    4.5345156    1.5111516 0.0017897057  -0.02116018    4.5538861 
    2680    20.140104   0.99382011    23.705492    6.0183942     4.528161    1.4902332 0.0017279722 -0.020753741    4.5471867 
    2690    19.922453    1.0071346    23.866088     6.033355    4.5231567    1.5101983 0.0020486302 -0.022584537    4.5436926 
    2700    20.241978   0.99179235    23.527469    6.0295368    4.5423442    1.4871926 0.0020199556 -0.022898736     4.563223 
    2710    20.236814   0.99827379    23.698283    6.0187905     4.521879    1.4969116 0.0019746592 -0.023355684      4.54326 
    2720    20.322662    0.9879061    23.529708    6.0109657    4.5296005    1.4813652 0.0018056315  -0.02272607    4.5505209 
    2730    20.094023   0.99146421    23.890676    6.0208887    4.5341881    1.4867006 0.0018170545 -0.022967654    4.5553387 
    2740    19.931049    1.0089343    23.698735    6.0398955    4.5269985     1.512897 0.0017650496 -0.022921944    4.5481554 
    2750    20.343134    1.0020754    23.898989    6.0322608    4.5296488     1.502612 0.0018032885  -0.02316036    4.5510058 
    2760    20.178875   0.99219528    24.032678     6.024672    4.5368752    1.4877968 0.0016903781 -0.022613104    4.5577979 
    2770    20.363953   0.96821267    23.614653    6.0008628    4.5490279    1.4518349 0.0015165247 -0.021627163    4.5691386 
    2780    20.273222   0.97030048     23.62651    5.9801734    4.5252078    1.4549656 0.0016071851 -0.021413697    4.5450144 
    2790    20.355464   0.99015971    23.694438    6.0113138    4.5265693    1.4847445 0.0017460421 -0.021383868    4.5462071 
    2800    20.228349   0.97463621     23.52592     5.993435     4.531968     1.461467 0.0016065575 -0.020605784    4.5509672 
    2810     20.10949   0.99593373    23.332425    6.0290304    4.5356278    1.4934026 0.0015257168 -0.020289063    4.5543911 
    2820    20.067106    1.0116875     23.55846    6.0576966    4.5406712    1.5170254 0.0016666517 -0.020280221    4.5592847 
    2830    19.848633    1.0323377     23.85421    6.0547914     4.506801    1.5479904 0.0018226099 -0.021274923    4.5262533 
    2840    20.267283   0.99752162    23.712296    6.0408631    4.5450794    1.4957837 0.0015077681 -0.020047534    4.5636192 
    2850     20.10135     1.023678     23.37046    6.0503093    4.5153041    1.5350052 0.0016221083 -0.020459904    4.5341419 
    2860    19.875722    1.0107221    23.315823    6.0683759    4.5527982    1.5155777  0.001534105 -0.019802326    4.5710664 
    2870    19.970258    1.0075165    24.048601    6.0347663    4.5239953     1.510771 0.0015376328 -0.019765567    4.5422232 
    2880      19.9291    1.0050967    23.531061    6.0497407    4.5425982    1.5071425 0.0015662482 -0.020388378    4.5614203 
    2890    20.120483    0.9987024    23.941549    6.0573609    4.5598067    1.4975543 0.0018000487 -0.021372617    4.5793793 
    2900    20.247456    1.0371857    23.910189    6.0840361    4.5287761      1.55526 0.0019236632 -0.022250262    4.5491027 
    2910    20.141721    1.0119424    23.982095    6.0644218    4.5470142    1.5174076  0.001728177 -0.021233047    4.5665191 
    2920    20.272939    1.0025289    23.766515     6.041691     4.538399     1.503292 0.0015230336 -0.020535323    4.5574113 
    2930    20.082261   0.99758447    23.858455    6.0387932    4.5429153    1.4958779  0.001678793 -0.021506421    4.5627429 
    2940    20.061674    1.0086575    23.898762    6.0459669    4.5334849     1.512482 0.0017894922  -0.02181691    4.5535123 
    2950    20.374928    1.0235129    23.584861    6.0730805    4.5383229    1.5347577 0.0017067297 -0.021528574    4.5581447 
    2960    19.816923    1.0336795     23.81017    6.0624953    4.5124929    1.5500024 0.0016988228 -0.021675312    4.5324693 
    2970     20.35156    1.0358275    23.837453     6.089007    4.5357836    1.5532234 0.0017405837 -0.022357942     4.556401 
    2980     20.06135    1.0344968    23.929858    6.1015093    4.5502814    1.5512279 0.0018983821 -0.023070184    4.5714532 
    2990    20.117724    1.0161656    23.785529    6.0613171    4.5375767    1.5237404 0.0019805248 -0.023630396    4.5592266 
    3000    20.331391    1.0128318    23.833739    6.0529186    4.5341773    1.5187413 0.0021480792 -0.024181432    4.5562106 
    3010    20.422349    1.0021222    23.882206    6.0524965    4.5498143    1.5026823 0.0019695849 -0.022912703    4.5707574 
    3020     20.33075    1.0184969    23.855482     6.047628     4.520392    1.5272361 0.0016788048 -0.021554548    4.5402677 
    3030    20.421613    1.0060846    23.588335    6.0444814    4.5358575    1.5086239 0.0016776129 -0.021275773    4.5554557 
    3040    20.245694   0.99707383    23.622872    6.0355944    4.5404822    1.4951122 0.0016652901 -0.021796944    4.5606139 
    3050    20.412693    1.0226365    23.874861    6.0601707    4.5267273    1.5334434 0.0017774186 -0.022258546    4.5472085 
    3060    20.317309    1.0382783    23.714202    6.0935122    4.5366139    1.5568984 0.0017309487 -0.022347408    4.5572303 
    3070    20.323334    1.0095157    23.867538    6.0669471    4.5531784    1.5137687 0.0017758428 -0.022625385    4.5740279 
    3080    20.183675    1.0161835    23.760488    6.0598595    4.5360924    1.5237671 0.0017679526 -0.021959506    4.5562839 
    3090    20.279699    1.0083237    23.663597    6.0534689    4.5414875    1.5119814 0.0017449902 -0.021951765    4.5616943 
    3100    20.311822    1.0162146    23.633661    6.0810775    4.5572637    1.5238138 0.0017197078 -0.021896693    4.5774407 
    3110    20.428846    1.0303083    23.986133     6.079392    4.5344447    1.5449473 0.0017427985 -0.022189561    4.5548914 
    3120    20.283794    1.0266828    23.820563    6.0859517    4.5464408    1.5395109 0.0019462844 -0.022868878    4.5673634 
    3130    20.268477    1.0137848    23.867297     6.065153    4.5449827    1.5201703 0.0018920438 -0.022783546    4.5658742 
    3140    20.279038    1.0077133    23.410317    6.0767519    4.5656859     1.511066 0.0019830177  -0.02316618     4.586869 
    3150    20.336201    1.0036458    23.624312    6.0533035    4.5483367    1.5049668 0.0020755414 -0.023395963    4.5696571 
    3160    20.075778    1.0274826    23.851019    6.0505841    4.5098739    1.5407102 0.0020501302 -0.023581097    4.5314049 
    3170    20.219846    1.0081177    23.971065    6.0451096    4.5334371    1.5116725 0.0018818841 -0.022405254    4.5539604 
    3180    20.291961    1.0394178    24.047801    6.0941927    4.5355857    1.5586071 0.0017025159 -0.021594178    4.5554773 
    3190    20.171896    1.0231701    23.926469    6.0858018    4.5515582    1.5342436  0.001635934 -0.021325809    4.5712481 
    3200    20.459051    1.0133448    23.911639    6.0516655    4.5321551    1.5195105 0.0016626249 -0.021392187    4.5518847 
    3210    20.095451    1.0229734    23.674607    6.0529526     4.519004    1.5339486 0.0016632438 -0.021180887    4.5385217 
    3220    20.238759   0.98759259    23.667996    6.0184471     4.537552    1.4808951 0.0017114137 -0.021165128    4.5570057 
    3230    20.332469     1.017709    23.743505     6.045858    4.5198034    1.5260547 0.0017765831 -0.021933183      4.53996 
    3240    20.480827   0.99238351    23.922353    6.0226435    4.5345644    1.4880791 0.0017106652 -0.021883743    4.5547375 
    3250    20.480836    1.0049834     23.70313    6.0206775    4.5137049    1.5069726 0.0015859464 -0.021542138     4.533661 
    3260    20.195021   0.99606001    23.935544    6.0271147    4.5335227     1.493592 0.0016400847 -0.021711326    4.5535939 
    3270    20.419599   0.98808658    23.656136    6.0291579    4.5475221    1.4816358 0.0016510107 -0.021317218    4.5671883 
    3280    20.292569    1.0288918    23.676037    6.0733903     4.530567    1.5428233 0.0016561077 -0.021383811    4.5502947 
    3290    20.262061    1.0051179    23.890845    6.0586757    4.5515014    1.5071743 0.0017764147 -0.022232955    4.5719579 
    3300    20.165966    1.0132524    23.830861    6.0549628    4.5355907     1.519372 0.0017872425 -0.022807169    4.5566107 
    3310    20.384279    1.0107719     23.67696    6.0420571    4.5264046    1.5156525 0.0016730293 -0.022438947    4.5471705 
    3320    20.104748   0.98508958     23.68537    6.0322844    4.5551426    1.4771418 0.0016617405 -0.022866808    4.5763477 
    3330     20.03328    1.0167157    23.674911    6.0513358    4.5267706    1.5245652 0.0015539772 -0.022325745    4.5475424 
    3340    20.178276    1.0200252    23.660695    6.0667096    4.5371818    1.5295278 0.0016179134 -0.022327915    4.5578918 
    3350    20.144619   0.99140774    23.554019    6.0265043    4.5398884    1.4866159 0.0017211352 -0.023003213    4.5611705 
    3360    20.519067   0.99262911    23.856421    6.0423902    4.5539429    1.4884474 0.0018574695 -0.023798842    4.5758842 
    3370    20.352193    1.0190661    23.563372    6.0550998    4.5270102    1.5280896 0.0018775834 -0.023658588    4.5487912 
    3380    19.765296    1.0260255    23.778289    6.0675878    4.5290626    1.5385252 0.0019641345 -0.024144962    4.5512434 
    3390    20.165301    1.0359543    23.518897    6.0878315    4.5344181    1.5534134  0.002012851 -0.023901518    4.5563068 
    3400    19.954829    1.0384914     23.92723    6.1041821    4.5469641    1.5572179 0.0020101588 -0.023738057     4.568692 
    3410    20.128565    1.0395691    23.893331    6.1160064    4.5571726    1.5588338 0.0018041372 -0.023025481    4.5783939 
    3420    19.757062    1.0209201    23.829866    6.0985056    4.5676359    1.5308697  0.001764494 -0.022983219    4.5888547 
    3430    19.997626    1.0383315    23.797266    6.0966456    4.5396675    1.5569781 0.0016602008 -0.022248517    4.5602558 
    3440    20.242643   0.99853128    23.699529      6.04264    4.5453424    1.4972976  0.001573447 -0.021751417    4.5655203 
    3450    20.430114    1.0186486    23.948753    6.0538794    4.5264158    1.5274636 0.0014849406 -0.021527948    4.5464588 
    3460    19.931005     1.006988    23.907544    6.0486224     4.538644    1.5099785 0.0015454459 -0.021938893    4.5590374 
    3470     20.14179    1.0166369     23.68294    6.0417428    4.5172959     1.524447 0.0013869424 -0.021331968    4.5372409 
    3480    20.325046    1.0012228    23.488869    6.0393841    4.5380504    1.5013336 0.0011443822 -0.019936425    4.5568425 
    3490    20.394288    1.0196275    23.585183     6.059409    4.5304777    1.5289314 0.0012464594 -0.019980036    4.5492112 
    3500    20.200316   0.99073988    23.665719    6.0271884     4.541574    1.4856144 0.0013429323 -0.020190459    4.5604215 
    3510    20.278212   0.98774044    23.381022    6.0231399    4.5420231    1.4811168 0.0014586032 -0.020263659    4.5608282 
    3520    20.336283    1.0263192    23.707576    6.0491803    4.5102147    1.5389656 0.0013296352   -0.0197707    4.5286557 
    3530     20.08582   0.99901282    23.707847    6.0346946    4.5366749    1.4980197 0.0013403066  -0.01964495    4.5549795 
    3540    20.444676    1.0030182    23.561504    6.0375205    4.5334947    1.5040258 0.0013557822 -0.019567665    4.5517066 
    3550    20.457162     1.001824    23.641061    6.0365738    4.5343387    1.5022351 0.0014824555 -0.020491384    4.5533476 
    3560    20.311039    1.0014702    23.577267      6.03508    4.5333754    1.5017046 0.0016753145 -0.021658964     4.553359 
    3570    20.221397    1.0161804    23.666645    6.0520218    4.5282593    1.5237625 0.0017786029 -0.022274797    4.5487555 
    3580    20.574439    1.0180643    24.099431    6.0586818    4.5320944    1.5265874 0.0017516363 -0.022641805    4.5529845 
    3590    20.181687    1.0205783    23.695535    6.0623482     4.531991    1.5303571 0.0017709002 -0.022730028    4.5529502 
    3600    19.977577   0.99981189     23.87203    6.0478578    4.5486399    1.4992179 0.0016481058 -0.021936286    4.5689281 
    3610    20.193126    1.0230888     23.81056    6.0618275    4.5277058    1.5341217  0.001676183 -0.022048231    4.5480779 
    3620    19.826034    1.0245697    23.668223    6.0631594    4.5268172    1.5363422 0.0017691783 -0.022091662    4.5471397 
    3630    20.143803    1.0150515     23.80234    6.0530205    4.5309508    1.5220698 0.0020737693 -0.023504598    4.5523816 
    3640    20.041362    1.0362965    23.869979    6.0664698    4.5125432    1.5539266 0.0021603545 -0.024238777    4.5346216 
    3650    20.001568    1.0068769    23.537713    6.0545042    4.5446923     1.509812  0.002238285 -0.024296208    4.5667502 
    3660    19.727009    1.0008579    23.680002    6.0238244     4.523038    1.5007865 0.0020499189 -0.023009446    4.5439975 
    3670    20.374034    1.0201135    23.572726    6.0470958    4.5174356    1.5296603  0.001952213 -0.022252689    4.5377361 
    3680    20.296894    1.0237809     23.90897    6.0598342    4.5246747    1.5351595 0.0016913824 -0.020915789    4.5438991 
    3690    20.316008    1.0148317    23.958155    6.0504215    4.5286813    1.5217402 0.0015051752 -0.020173117    4.5473493 
    3700    20.055079    1.0322813     23.78552    6.0671344    4.5192285    1.5479059 0.0015796613 -0.020618687    4.5382675 
    3710    20.054461    1.0116664     23.73721    6.0640621    4.5470684    1.5169937 0.0015963586 -0.020934991     4.566407 
    3720    20.357581    1.0346553    23.857699    6.0802083    4.5287427    1.5514656 0.0015314413 -0.020411221    4.5476225 
    3730     20.29551    1.0275362    24.039217    6.0740786    4.5332881    1.5407905 0.0015020074 -0.020508597    4.5522947 
    3740    20.275807    1.0281322    23.710995    6.0722898    4.5306055    1.5416843 0.0014596576 -0.020616316    4.5497622 
    3750    20.312561    1.0140023    23.802105     6.042665    4.5221686    1.5204964 0.0015166979 -0.020965892    4.5416178 
    3760    20.366681    1.0114703    23.617253    6.0516583    4.5349586    1.5166997 0.0014751232 -0.021016946    4.5545005 
    3770    19.998677     1.020904    23.585938    6.0530597    4.5222141    1.5308456 0.0015170879  -0.02179571    4.5424927 
    3780    19.883023    1.0239318    23.984436    6.0499942    4.5146084    1.5353858 0.0016238797 -0.022452967    4.5354375 
    3790    19.956034   0.99431251    23.428538    6.0385397    4.5475681    1.4909716 0.0017456741 -0.022877303    4.5686997 
    3800    20.219861    1.0282278    23.893084    6.0580303    4.5162027    1.5418276 0.0017234252 -0.022637446    4.5371167 
    3810    20.160137    1.0209515    23.524434    6.0796816    4.5487648    1.5309168  0.001721332  -0.02272116    4.5697646 
    3820    20.120903    1.0218998    23.884909    6.0559703    4.5236315    1.5323388 0.0016002481 -0.022096938    4.5441282 
    3830    20.380743   0.99973927    23.981799      6.03925    4.5401409     1.499109 0.0017694944 -0.022747992    4.5611194 
    3840    20.349023    1.0213274    23.620254     6.053797    4.5223166    1.5314805 0.0019228693   -0.0231328    4.5435265 
    3850    20.455187    1.0325207     23.73917    6.0690185    4.5207538    1.5482648 0.0018260342 -0.022421502    4.5413492 
    3860    20.472264    1.0263787    23.738683    6.0945296    4.5554748    1.5390549 0.0017426813 -0.021910846    4.5756429 
    3870    20.331024    1.0191243    23.872424    6.0630148     4.534838    1.5281768 0.0016375752 -0.021138765    4.5543392 
    3880     20.21689   0.99895581    23.720917    6.0384541    4.5405199    1.4979342 0.0012696083 -0.019429576    4.5586799 
    3890     20.04722     1.017153    23.717598    6.0635836    4.5383627    1.5252209 0.0011702597 -0.019464542     4.556657 
    3900    19.962447    1.0197195    23.734328    6.0563608    4.5272914    1.5290695 0.0011774951 -0.019726599    4.5458405 
    3910    20.347235     1.011076    23.850717    6.0472073    4.5310988    1.5161085 0.0014292758 -0.020831666    4.5505012 
    3920    20.287304     1.007203    23.636544    6.0275963    4.5172955    1.5103009 0.0016663481 -0.021973732    4.5376028 
    3930    20.275545   0.99321157    23.357857    6.0112799    4.5219591    1.4893208 0.0018983688 -0.023093064    4.5431538 
    3940    20.129516   0.97865145    23.763956    5.9752515    4.5077637    1.4674878  0.001879965 -0.023018873    4.5289026 
    3950     20.45958   0.98309044    23.449919    5.9856452    4.5115011    1.4741441 0.0017810155 -0.022162812    4.5318829 
    3960    20.146002   0.98426576    23.695273    5.9997487    4.5238422    1.4759065 0.0016826639  -0.02149739    4.5436569 
    3970    20.275259    1.0002999    23.659287    6.0253189    4.5253691    1.4999498 0.0015088387 -0.020567213    4.5444275 
    3980    20.375861     1.023953    23.909171    6.0546298    4.5192122    1.5354176 0.0014611227 -0.019789037    4.5375402 
    3990    20.399314    1.0014005    23.647646    6.0559523    4.5543523       1.5016 0.0015699841 -0.020299891    4.5730822 
    4000    20.102606    1.0034969    23.582197    6.0618479    4.5571043    1.5047436  0.001743879 -0.021573012    4.5769334 
    4010    20.178139    1.0292536    23.711951    6.0671575    4.5237916    1.5433658 0.0017249631 -0.021979185    4.5440458 
    4020    20.116776    1.0254835    23.543628    6.0696817    4.5319692    1.5377124 0.0016531088 -0.022086044    4.5524022 
    4030    20.421203    1.0096963    23.750336    6.0474477    4.5334081    1.5140396 0.0016983484 -0.022479151    4.5541889 
    4040    20.525112    1.0062133    23.732223    6.0515784    4.5427615    1.5088169 0.0016969875 -0.022622838    4.5636874 
    4050    20.378417    1.0010887    23.773433    6.0286535    4.5275209    1.5011325 0.0016313353 -0.022416607    4.5483062 
    4060    20.155485    0.9967565    23.779601    6.0458684     4.551232    1.4946364  0.001735347 -0.023017522    4.5725142 
    4070    20.142012    1.0153368    23.645577    6.0472991    4.5248015    1.5224976 0.0018863517 -0.023290492    4.5462056 
    4080    20.127851    1.0098013     23.69284    6.0227488    4.5085518     1.514197 0.0019245573 -0.022833662     4.529461 
    4090    20.595518    1.0164172    23.862189    6.0408034    4.5166859    1.5241175 0.0018423211 -0.022148131    4.5369917 
    4100    20.522923    1.0201014    23.832843    6.0626017    4.5329596     1.529642 0.0018747638 -0.022140368    4.5532252 
    4110    20.437792    1.0421809    23.943281    6.0869772     4.524227    1.5627503 0.0020256481 -0.022933697     4.545135 
    4120     20.40493     1.009251    23.701391    6.0467629     4.533391    1.5133718 0.0020237902 -0.023204789     4.554572 
    4130    20.256841    1.0186978    23.658029    6.0538465    4.5263092    1.5275373 0.0019707633 -0.023388271    4.5477267 
    4140    19.762145    1.0301741    23.855319    6.0778696    4.5331234    1.5447461 0.0019509269 -0.023279556    4.5544521 
    4150    20.247034    1.0249484    23.768964    6.0752528    4.5383427    1.5369101 0.0020919031 -0.023696619    4.5599474 
    4160    19.932551    1.0120151    23.777774    6.0463641    4.5288474    1.5175167 0.0020734138 -0.023629048     4.550403 
    4170    20.404964   0.99178321    23.565002    6.0181927    4.5310138    1.4871789 0.0018668958 -0.022811378    4.5519582 
    4180    20.522091    1.0079628    23.607408    6.0120195    4.5005793    1.5114402 0.0018482283 -0.022713823    4.5214449 
    4190    20.341024   0.99294659    23.609428    6.0140386    4.5251152    1.4889234 0.0017098246 -0.021996436    4.5454018 
    4200    20.333004    1.0107035     23.68449    6.0228366    4.5072867    1.5155498 0.0015269238 -0.021004704    4.5267645 
    4210    20.043492    1.0013012    23.614388     6.018083    4.5166318    1.5014512 0.0015057155 -0.020952722    4.5360788 
    4220    20.102977    1.0094603     24.00008      6.03398    4.5202942    1.5136857 0.0017034079 -0.021752341    4.5403432 
    4230    19.987327    1.0022762    23.840403    6.0320624    4.5291492    1.5029132 0.0017898468 -0.021879448    4.5492388 
    4240    19.716014    1.0181196    23.678387    6.0599817    4.5333114    1.5266703 0.0017918404 -0.021813925    4.5533335 
    4250    20.011092     1.021448    23.867789    6.0655325    4.5338712    1.5316613 0.0017634846  -0.02195334     4.554061 
    4260    20.171336    1.0207226    23.739029    6.0667828    4.5362093    1.5305735  0.001754246 -0.022095503    4.5565506 
    4270    20.225662     1.004737    23.565452    6.0359135    4.5293103    1.5066032  0.001978497 -0.023216431    4.5505483 
    4280    19.616572   0.99591448    23.794845    6.0453888     4.552015    1.4933738 0.0018879577  -0.02270041    4.5728275 
    4290    20.208954   0.99622883    23.890001    6.0358533    4.5420082    1.4938451 0.0017211064 -0.022045365    4.5623324 
    4300    20.189136    1.0165747    23.898191    6.0424254    4.5180716    1.5243538  0.001783418 -0.022201962    4.5384902 
    4310    20.327851    1.0010688    23.462407    6.0219799    4.5208773    1.5011026 0.0017513913 -0.021969863    4.5410958 
    4320    20.519596   0.99154544     23.36037    6.0125037    4.5256813    1.4868224 0.0016960878 -0.022195672    4.5461809 
    4330    20.133981   0.99804129    23.874668    6.0225336    4.5259707    1.4965629 0.0016724731 -0.022084502    4.5463828 
    4340    20.045973    0.9924146     23.57343    6.0217858    4.5336601    1.4881257 0.0016169698 -0.021762354    4.5538054 
    4350    20.227415    1.0054992    23.638736    6.0482613    4.5405153    1.5077461 0.0015232617 -0.020939491    4.5599315 
    4360     20.39007    1.0141049    23.859285    6.0550906    4.5344404    1.5206502 0.0015681456 -0.021450032    4.5543223 
    4370    20.315654    1.0258703    23.880387     6.087494    4.5492014    1.5382926 0.0015450314 -0.021095828    4.5687522 
    4380    20.182498    1.0158431     23.67433    6.0952383    4.5719816    1.5232567 0.0015928999  -0.02117999    4.5915687 
    4390    20.198141    1.0337074    23.944434    6.0635641    4.5135198    1.5500442 0.0019103647 -0.022918638    4.5345281 
    4400    20.177519      1.00972    23.613756    6.0296328    4.5155577    1.5140751 0.0020543182 -0.023408056    4.5369114 
    4410    20.230843    1.0160429    23.645615    6.0615452     4.537989    1.5235563  0.001929053 -0.022870935    4.5589309 
    4420    20.194135   0.99658256    23.508236    6.0428187    4.5484432    1.4943755  0.001874646 -0.022469326    4.5690379 
    4430    20.212127   0.99644564    23.812537    6.0342489    4.5400787    1.4941702 0.0017367983 -0.022116364    4.5604582 
    4440    20.291578    1.0212963    23.878987    6.0609613    4.5295275    1.5314338 0.0015542871   -0.0213334    4.5493066 
    4450    20.264387    1.0239287     23.72403    6.0729062    4.5375251    1.5353811 0.0016234283  -0.02172189    4.5576236 
    4460    20.389679    1.0176224    23.946717    6.0599036    4.5339788    1.5259247 0.0016242289 -0.021634365     4.553989 
    4470    20.358777    1.0105669    23.741037    6.0616717    4.5463267     1.515345 0.0015558567 -0.021316246    4.5660871 
    4480    20.077303     1.030594    23.800776    6.0860187     4.540643    1.5453757 0.0016456937 -0.021726214    4.5607235 
    4490    20.412666   0.99931505    23.753837    6.0485289    4.5500559    1.4984729 0.0017234546 -0.021546847    4.5698793 
    4500    20.027286    1.0293628    23.843617    6.0335819    4.4900524    1.5435295 0.0017892187 -0.021897372    4.5101605 
    4510    20.332896    1.0092151    23.995322    6.0309493    4.5176312    1.5133181 0.0016893983 -0.021646673    4.5375885 
    4520    20.378086   0.98812737    23.588051    6.0198629    4.5381659     1.481697 0.0015694147 -0.021498078    4.5580946 
    4530    20.059954    1.0057657    23.707487    6.0235616     4.515416    1.5081456 0.0016800902 -0.021856379    4.5355923 
    4540    20.019913    0.9919924    23.583798     6.006508    4.5190155    1.4874926 0.0016768993 -0.021792092    4.5391306 
    4550    20.322609   0.98927879    23.745142    6.0033807    4.5199571    1.4834235   0.00165119  -0.02165179    4.5399577 
    4560    20.400957   0.99263087    23.877678    6.0178034    4.5293534      1.48845 0.0016088226 -0.021339897    4.5490844 
    4570    19.973948    1.0112756    23.593127    6.0375297    4.5211219    1.5164078 0.0017655157 -0.021619486    4.5409758 
    4580     20.28867    1.0152653    23.726787    6.0351068    4.5127164    1.5223904 0.0017313947 -0.021870049    4.5328551 
    4590    20.144048   0.99666219    23.792145    6.0207015    4.5262066     1.494495 0.0017714725 -0.022246536    4.5466816 
    4600    19.948813    1.0220838    23.779912    6.0369173    4.5043027    1.5326146 0.0018589942 -0.022214009    4.5246577 
    4610     20.22739   0.99888802    23.378425    6.0492846     4.551452    1.4978326 0.0018315722 -0.021787707    4.5714081 
    4620    20.554447   0.97961763    23.812521    6.0041222    4.5351856    1.4689366 0.0015713439  -0.02071549    4.5543297 
    4630    20.209864    1.0002044    23.527775    6.0113891    4.5115827    1.4998065 0.0013450156 -0.019639882    4.5298775 
    4640    20.386247   0.97774299     23.62431    6.0130031    4.5468775    1.4661256 0.0011414713 -0.018610588    4.5643466 
    4650     20.15832   0.99424705     23.71465    6.0347966    4.5439232    1.4908734 0.0012041493 -0.018842929    4.5615619 
    4660    20.268328   0.99761657    23.618824    6.0404937    4.5445677    1.4959261 0.0012835686 -0.019877393    4.5631615 
    4670    20.293892    1.0014016    23.575299    6.0380516    4.5364498    1.5016017  0.001613988 -0.021426626    4.5562625 
    4680    20.281502   0.99971935    23.523847    6.0177967    4.5187175    1.4990792 0.0017789947 -0.021952721    4.5388913 
    4690     20.22411    0.9959397    23.659525    6.0011988    4.5077873    1.4934116 0.0018287015 -0.021740527    4.5276991 
    4700    20.354244   0.99515157    23.673874    5.9950922    4.5028624    1.4922298 0.0017350419 -0.020959034    4.5220864 
    4710    20.239314    1.0003638    23.413239    6.0360688    4.5360233    1.5000455 0.0015543981 -0.019922287    4.5543912 
    4720     20.23917   0.99888697    23.927168    6.0251818    4.5273508     1.497831 0.0016757192 -0.020821565    4.5464966 
    4730    20.206064    1.0081673     23.53158    6.0306459     4.518899    1.5117469 0.0017602729 -0.021417177    4.5385559 
    4740    20.469778   0.97294739    23.521365    5.9811034    4.5221688    1.4589346 0.0017680231  -0.02160143    4.5420022 
    4750    20.360928   0.97936634    23.706532    5.9820606    4.5135008    1.4685598 0.0017330035 -0.021748426    4.5335162 
    4760    20.279271   0.98074744    23.626393    6.0021402    4.5315094    1.4706308  0.001917502 -0.022800981    4.5523929 
    4770    20.019407   0.99174447    23.629402    6.0051863    4.5180654    1.4871208 0.0019275899 -0.022753463    4.5388913 
    4780    19.676801     0.976527    23.604438    5.9864585    4.5221562    1.4643022 0.0019940286 -0.023092431    4.5432546 
    4790    20.377514   0.98954155    23.740414    5.9951977    4.5113802    1.4838175 0.0019473559 -0.023163482    4.5325963 
    4800    20.233744    1.0018564    23.889247    6.0176432    4.5153595    1.5022837 0.0020067542  -0.02310706    4.5364598 
    4810    20.265788   0.98795783    23.806419    6.0122179    4.5307751    1.4814428 0.0018832274 -0.022202128     4.551094 
    4820    20.099476    0.9940881    23.812567    6.0395758    4.5489407    1.4906351 0.0018073804 -0.021694631    4.5688279 
    4830    19.804356    1.0060163    23.803257    6.0326243    4.5241029    1.5085214 0.0016898874 -0.021056729    4.5434697 
    4840    20.249631    1.0248437    23.978786    6.0511738    4.5144208    1.5367531 0.0014604693 -0.020174203    4.5331345 
    4850    20.227516     1.030456    23.590483    6.0722922    4.5271234    1.5451688 0.0015323351  -0.02063896      4.54623 
    4860    20.180285    1.0156868    23.256348    6.0904034    4.5673811    1.5230224 0.0017620265 -0.022019093    4.5876382 
    4870    20.442825    1.0409316     23.70419    6.1012835    4.5404066    1.5608769 0.0019013737 -0.022749328    4.5612546 
    4880      20.3029    1.0151492    23.534239    6.0578678    4.5356515    1.5222162 0.0019439684 -0.023352526    4.5570601 
    4890    20.312194    1.0174627    23.633515     6.061646    4.5359607    1.5256853 0.0019356419 -0.023503296    4.5575284 
    4900     19.80192    1.0314602    23.751607    6.0574433    4.5107686    1.5466746 0.0018877005 -0.022999251    4.5318802 
    4910    20.044066    1.0153091    23.788742    6.0692463    4.5467903     1.522456 0.0019228596 -0.023425803    4.5682933 
    4920    20.243162    1.0257634    24.017066    6.0623999    4.5242676    1.5381322 0.0018996994 -0.023083057     4.545451 
    4930    20.288856    1.0256303    24.009041    6.0588367     4.520904    1.5379327 0.0019124119 -0.022625782    4.5416174 
    4940    20.404328   0.99760719    23.640548    6.0117021    4.5157901     1.495912 0.0018696769 -0.022277889    4.5361983 
    4950    20.102476    1.0094722    23.387917    6.0367829    4.5230794    1.5137035 0.0017610387 -0.021522181    4.5428405 
    4960    20.100895   0.99916944    23.642693    6.0360635    4.5378089    1.4982546 0.0018274936 -0.021682047    4.5576635 
    4970    20.131621    1.0111816     23.90724     6.035589    4.5193223    1.5162668 0.0018769629 -0.021961696     4.539407 
    4980    20.001096    1.0032433    23.785376    6.0427639    4.5384006    1.5043633 0.0018961686 -0.022359033    4.5588634 
    4990    20.574539    1.0147723    23.617254    6.0566145    4.5349633    1.5216511 0.0018223175 -0.022254461    4.5553955 
    5000    20.390197   0.98644341    23.311789    6.0191862    4.5400144    1.4791719 0.0015891364  -0.02151768    4.5599429 
    5010    20.203858    1.0244147    23.408369    6.0582312    4.5221213    1.5361099 0.0013764787  -0.02101889    4.5417637 
    5020    19.940971    1.0159411    23.694402    6.0642715    4.5408678    1.5234037 0.0013651174 -0.020882347     4.560385 
    5030     20.08505    1.0072553    23.996958    6.0537634    4.5433841    1.5103793 0.0015347992  -0.02144306    4.5632924 
    5040    20.404274   0.98564784    23.772053    6.0269361    4.5489571    1.4779789 0.0015622712 -0.021164808    4.5685596 
    5050    20.262099     1.010804     23.75059    6.0444269    4.5287264    1.5157006 0.0016043245 -0.020947144    4.5480692 
    5060    20.081671    1.0020505     23.70978    6.0307255    4.5281507    1.5025748 0.0015201361 -0.020029403      4.54666 
    5070     20.27761    1.0148503    23.638579    6.0700464    4.5482784     1.521768 0.0013281956 -0.018834639    4.5657849 
    5080    20.291935    1.0225477    23.772451    6.0716525    4.5383423    1.5333103 0.0012543766 -0.018405665    4.5554936 
    5090    20.179643    1.0274745    23.674614    6.0769288    4.5362308     1.540698 0.0013817884  -0.01908549    4.5539345 
    5100    20.248495    1.0207147      23.5895    6.0557756    4.5252138    1.5305617 0.0016363988 -0.020339908    4.5439174 
    5110     20.20453   0.99758116    23.625617    6.0452392    4.5493663     1.495873 0.0018476192 -0.021697622    4.5692163 
    5120    20.142618    1.0070076    23.326249    6.0097112    4.4997033    1.5100079    0.0019747 -0.023169705    4.5208984 
    5130    20.313272   0.99521133    23.639807    6.0372294      4.54491    1.4923194 0.0019536858 -0.023267776    4.5662241 
    5140    20.140754    1.0119138    23.789476    6.0371765    4.5198118    1.5173647 0.0016442359 -0.021227216    4.5393948 
    5150    20.055663   0.99226779    23.696127    6.0297548    4.5418492    1.4879056  0.001582015 -0.020975024    4.5612422 
    5160    20.290942   0.99578579    23.759355    6.0141572    4.5209764    1.4931808 0.0016890387 -0.021871842    4.5411592 
    5170    20.097312   0.98868623    23.599431    6.0059563    4.5234213     1.482535 0.0016514448 -0.021538466    4.5433083 
    5180    20.098165   0.99653935    23.680945    6.0053558     4.511045    1.4943108 0.0016319741 -0.020930121    4.5303431 
    5190    20.190587    1.0115867    23.453665    6.0324743       4.5156    1.5168743 0.0016237169 -0.021049138    4.5350254 
    5200    20.090216    1.0050861    23.782974    6.0493831    4.5422565    1.5071266 0.0016364151 -0.021456507    4.5620766 
    5210    20.011476    1.0116311    23.828326    6.0547556    4.5378148    1.5169408 0.0014882648 -0.020977226    4.5573037 
    5220    20.160975    1.0059717    23.624243    6.0381801    4.5297254    1.5084546 0.0015015659 -0.020751896    4.5489758 
    5230    20.266032    1.0097556    23.555668    6.0642716    4.5501431    1.5141285 0.0016485562 -0.021578099    4.5700726 
    5240    20.117431    1.0256463    23.880783    6.0645185    4.5265619    1.5379566  0.001680464 -0.021987814    4.5468692 
    5250    20.192545    1.0266277    23.872175    6.0729298    4.5335016    1.5394282 0.0017813901  -0.02238359    4.5541038 
    5260    20.273298    1.0163914     23.66671     6.067606    4.5435271    1.5240788 0.0019412573 -0.023191318    4.5647772 
    5270    20.160627    1.0338042    23.623111    6.0774526    4.5272632    1.5501894 0.0019165347 -0.022632924    4.5479796 
    5280    20.136633    1.0075267    23.863173    6.0459876    4.5352012    1.5107863 0.0017673754 -0.021687262    4.5551211 
    5290    20.286334   0.99700227    23.607064    6.0222261    4.5272212    1.4950049 0.0017469468 -0.021390558    4.5468648 
    5300    20.337858     1.003088    23.394605    6.0153635    4.5112331    1.5041304 0.0017617525 -0.021719186    4.5311906 
    5310    20.178234    1.0126334    23.753863    6.0533134    4.5348695    1.5184438 0.0017315558 -0.021628842    4.5547668 
    5320    19.961427    1.0258203     23.94348    6.0456039    4.5073864    1.5382175 0.0014058198 -0.020302483    4.5262831 
    5330    20.200807   0.99789958    23.495749    5.9890286    4.4926782    1.4963504 0.0012109239 -0.019911645    4.5113789 
    5340    20.264344   0.98472866     23.51189    5.9866398    4.5100392    1.4766006 0.0012351096 -0.019854149    4.5286582 
    5350    20.360501   0.99113568    23.968789      5.99817    4.5119621    1.4862079  0.001463571  -0.02066918    4.5311677 
    5360    20.199887    1.0018342    23.799314    6.0304748    4.5282245    1.5022503 0.0015754555   -0.0214486    4.5480976 
    5370    20.241137    1.0117495    23.970139    6.0435444     4.526426    1.5171184  0.001578892 -0.021740206    4.5465873 
    5380    20.088276     1.000006    23.741582    6.0193515    4.5198425     1.499509 0.0014425422 -0.020818251    4.5392182 
    5390    20.281615   0.99489754    23.703819    6.0491377    4.5572888    1.4918489 0.0014429973 -0.020916322    4.5767621 
    5400    20.305196   0.99227567    23.585165    6.0226961    4.5347787    1.4879174 0.0014919687 -0.021031622    4.5543184 
    5410    19.991403    1.0091465    23.821842    6.0408903    4.5276752    1.5132151 0.0015209463 -0.021055601    4.5472099 
    5420    20.174616     1.014676     23.84495    6.0432442    4.5217376    1.5215066 0.0015836068 -0.021718936    4.5418729 
    5430    20.271262    1.0201324    23.805183     6.051526    4.5218374    1.5296886 0.0017219934  -0.02222279    4.5423382 
    5440    20.118054   0.98352837    23.655094    5.9983896    4.5235888    1.4748008 0.0018183989 -0.022788474    4.5445589 
    5450    20.045835   0.97642496    23.805637    5.9680726    4.5039234    1.4641492 0.0018129401 -0.022821093    4.5249315 
    5460    20.211421   0.96767299    23.638487     5.963269    4.5122434    1.4510256 0.0017237358 -0.022311952    4.5328316 
    5470    20.289746   0.97758393    23.964947    5.9945397    4.5286526    1.4658871 0.0016841709 -0.022261473    4.5492299 
    5480    20.392186   0.97247148    23.911556    5.9708782    4.5126573     1.458221  0.001725635 -0.022431489    4.5333631 
    5490    20.497315   0.97180592     23.23089    5.9750706    4.5178476     1.457223 0.0016679579 -0.022167363     4.538347 
    5500    20.156082   0.98453787    23.700198    6.0013674    4.5250529    1.4763145 0.0017076465 -0.022488629    4.5458339 
    5510    20.156927    1.0006969      23.6783    6.0270391    4.5264942     1.500545 0.0017822281 -0.022791328    4.5475033 
    5520    19.806102    1.0151135    23.976405    6.0610416    4.5388788    1.5221627 0.0018090706 -0.022998689    4.5600685 
    5530    20.115882    1.0188974    23.689725    6.0518095    4.5239728    1.5278367 0.0018426235 -0.023139544    4.5452697 
    5540    20.001102   0.99149819    23.664045    6.0246731    4.5379216    1.4867515    0.0018123 -0.022875455    4.5589848 
    5550    20.051078     1.000945    23.644006    6.0512657    4.5503487    1.5009171 0.0016834831 -0.022540932    4.5712061 
    5560    20.288717    1.0068226     23.48717    6.0336139    4.5238834    1.5097306  0.001704323  -0.02226492     4.544444 
    5570    20.357593    1.0138834    23.792894    6.0526276    4.5323094    1.5203182 0.0016842374 -0.022278091    4.5529033 
    5580    20.185731    1.0152856    24.017128    6.0696381    4.5472173    1.5224207  0.001730271 -0.022678361    4.5681654 
    5590    19.967997    1.0302259    23.850029    6.0696252    4.5248014    1.5448238 0.0017238202 -0.022726827    4.5458044 
    5600    20.088808    1.0215384    23.755598    6.0677701    4.5359733    1.5317968 0.0015265354 -0.021892015    4.5563388 
    5610    20.182278    1.0281058    23.721618    6.0899112    4.5482665    1.5416447 0.0013705257 -0.021143445    4.5680395 
    5620    20.240773    1.0306302    23.670038     6.094032    4.5486019      1.54543 0.0014247759 -0.021214365    4.5683915 
    5630    19.948794    1.0365514    23.757589    6.0956288    4.5413199    1.5543089 0.0012511753 -0.020059049    4.5601278 
    5640    20.465059    1.0250699    23.843376    6.0700045    4.5329123    1.5370923 0.0011080369 -0.019247797     4.551052 
    5650     20.46319    1.0198587    23.403759    6.0573414    4.5280633    1.5292781 0.0012126317 -0.019476954    4.5463276 
    5660    20.264393    1.0188441    23.701474    6.0479951    4.5202384    1.5277568 0.0011859978 -0.019096403    4.5381488 
    5670    20.362566    1.0016238    23.598462    6.0349929     4.533058    1.5019349 0.0013976742 -0.020119182    4.5517795 
    5680    20.426481    1.0119307    23.630514    6.0614782    4.5440881    1.5173901 0.0015974376  -0.02095203    4.5634427 
    5690    20.092615    1.0132786    23.977376     6.032398    4.5129868    1.5194112  0.001855234 -0.022344016    4.5334756 
    5700    19.873818    1.0131208    23.651853    6.0561993    4.5370246    1.5191747  0.001893937   -0.0228184    4.5579491 
    5710    20.100729   0.99682382    23.743357    6.0392991    4.5445618    1.4947373 0.0017323733 -0.022286023    4.5651155 
    5720    19.901806   0.98169012    23.601607    6.0028307    4.5307864    1.4720443 0.0015331404 -0.021648437    4.5509017 
    5730    20.048265   0.98899442    23.851659    5.9847293    4.5017321    1.4829971 0.0014446583 -0.021424276    4.5217118 
    5740    20.330305    0.9951691    23.714842     6.005635     4.513379    1.4922561 0.0013686689 -0.020823459    4.5328337 
    5750     20.35226    1.0235619    23.635802     6.065718     4.530887     1.534831  0.001623162 -0.021884191     4.551148 
    5760    20.427304    1.0402909     23.87086    6.0852682    4.5253519    1.5599163 0.0016633793 -0.022390435     4.546079 
    5770    20.358055    1.0233771    23.706909    6.0668237    4.5322698    1.5345539 0.0017572192 -0.022520657    4.5530332 
    5780    20.248181    1.0117661    23.787198    6.0782293     4.561086    1.5171433 0.0020313587 -0.023156818    4.5822114 
    5790    20.169604    1.0276295    23.791321    6.0963602    4.5554297    1.5409305 0.0020612406  -0.02280932    4.5761778 
    5800    20.158143    1.0258279    23.637906    6.0666155    4.5283866    1.5382289  0.002095481 -0.022659472    4.5489506 
    5810    19.987323    1.0265549    23.901792      6.08195    4.5426309    1.5393191 0.0020482495 -0.022581044    4.5631637 
    5820    19.948055    1.0303831    23.597615    6.0753065    4.5302471    1.5450594 0.0020370985 -0.022316096    4.5505261 
    5830    20.109377    1.0113339    23.939333    6.0586466    4.5421515    1.5164951 0.0018708025 -0.021857479    4.5621381 
    5840    20.284211   0.99731297    23.612985      6.03207    4.5365992    1.4954708 0.0016480554 -0.020941066    4.5558923 
    5850    20.289243    1.0040222    23.939887    6.0426127    4.5370815    1.5055312 0.0013961516 -0.019975638     4.555661 
    5860    20.122293    1.0139601    23.636759    6.0538632      4.53343    1.5204332 0.0011725291 -0.019007423    4.5512649 
    5870    20.020738    1.0028083     23.75918       6.0309     4.527189     1.503711 0.0011592168 -0.018549164    4.5445789 
    5880    19.844827   0.99463798    23.705036    6.0281482    4.5366886    1.4914596 0.0010195791 -0.017476602    4.5531456 
    5890    20.188925   0.99215233    23.582727    6.0288626    4.5411302    1.4877324  0.001008014 -0.017211634    4.5573338 
    5900    19.751303    1.0055314    23.663611    6.0374104     4.529616    1.5077944 0.0012644655 -0.018801447     4.547153 
    5910    20.298512    0.9886218    23.797941    6.0409893    4.5585509    1.4824384 0.0013190862 -0.019199569    4.5764314 
    5920    20.112756     1.014278    23.628136    6.0739293    4.5530195    1.5209098 0.0013818042 -0.019578737    4.5712165 
    5930    19.662675    1.0121418    23.602904    6.0861761    4.5684695    1.5177067 0.0014945923 -0.019953279    4.5869282 
    5940     20.27353    1.0448164    24.109943    6.1034183    4.5367161    1.5667022 0.0014087851 -0.019599578    4.5549069 
    5950    19.924874    1.0415608    23.804784    6.0838163    4.5219959    1.5618204 0.0013839663 -0.019125121    4.5397371 
    5960     20.11878    1.0018867    23.558041    6.0689428    4.5666137    1.5023291  0.001335868 -0.018790858    4.5840687 
    5970    20.202177   0.99975165    23.652035    6.0345905    4.5354629    1.4991276 0.0013695477 -0.019031959    4.5531253 
    5980    20.187988   0.99842663    23.542953    6.0496639    4.5525231    1.4971407 0.0014927401 -0.019275619     4.570306 
    5990    20.143192    1.0062075    23.615526    6.0515864    4.5427783    1.5088081 0.0015976173 -0.019850114    4.5610308 
    6000    20.313038   0.99062696    23.567003    6.0104993    4.5250542    1.4854451 0.0017142309 -0.020086814    4.5434268 
    6010    20.443106   0.98763708    23.677861    6.0028527    4.5218909    1.4809618 0.0016361214 -0.019408352    4.5396632 
    6020    20.415671    1.0148105    23.882214    6.0483009    4.5265926    1.5217083 0.0015045234 -0.018554632    4.5436427 
    6030    20.391724    1.0203523    23.691622    6.0501063     4.520088    1.5300183 0.0015789582 -0.018956336    4.5374654 
    6040    20.218272    1.0142608    23.821327    6.0527077    4.5318237     1.520884 0.0018167776 -0.020966289    4.5509732 
    6050    20.213238    1.0036392    23.650078    6.0121746    4.5072176     1.504957 0.0018518627 -0.021052101    4.5264178 
    6060    20.070538     1.000472     23.52432    5.9950045    4.4947967    1.5002078  0.001655652 -0.020370904    4.5135119 
    6070     20.35057   0.98955607     23.73273    6.0059882    4.5221489    1.4838393 0.0017125991 -0.020985628    4.5414219 
    6080    20.392662    0.9796934    23.535933    6.0026883    4.5336381    1.4690502 0.0016767934 -0.021210919    4.5531722 
    6090    20.108232   0.99220648    23.567414    6.0180688    4.5302552    1.4878136 0.0017061235 -0.021398493    4.5499476 
    6100    19.986333   0.98037492    23.632267     5.998636    4.5285638    1.4700722 0.0014562521 -0.020250037    4.5473576 
    6110    20.089134   0.98341106    23.581104    5.9825474    4.5079225    1.4746249 0.0013093146 -0.019556589    4.5261697 
[...]
  108560    19.647954    1.0277383    24.024247    6.0904715    4.5493779    1.5410936 0.0015481675 -0.020567739    4.5683975 
  108570    19.558019    1.0163035    23.692217    6.1023087    4.5783616    1.5239471 0.0017558484 -0.021838759    4.5984445 
  108580     19.52338    1.0352474    23.648489    6.1000397    4.5476862    1.5523535 0.0019284558 -0.022614042    4.5683717 
  108590    19.353932    1.0179045    23.769495    6.0693887    4.5430409    1.5263478 0.0021423839  -0.02346202    4.5643605 
  108600    17.155075    1.0202416    23.946547    6.0723552     4.542503    1.5298522 0.0020566439 -0.022856854    4.5633032 
  108610    19.443471     1.021533    23.681236    6.0462357    4.5144469    1.5317888 0.0018488498 -0.022383639    4.5349817 
  108620    19.393054    1.0155595    23.744082    6.0642221    4.5413905    1.5228315 0.0017247614 -0.021521484    4.5611873 
  108630    19.379071    1.0323845    23.861018     6.075604    4.5275435    1.5480605  0.001557635 -0.020896613    4.5468825 
  108640    19.581948    1.0139707    23.515067    6.0600968    4.5396478     1.520449 0.0014300997 -0.020462436    4.5586801 
  108650    17.498552    1.0070043    23.478164    6.0544295    4.5444265     1.510003 0.0015312241 -0.020939568    4.5638348 
  108660    19.596691    1.0154757    23.698864     6.046587    4.5238812    1.5227058 0.0014484607 -0.020399184    4.5428319 
  108670    19.753349    1.0162596    23.624847    6.0645065    4.5406252    1.5238812 0.0014030493 -0.019829368    4.5590516 
  108680    19.732657    1.0078147    23.866591    6.0396332     4.528415    1.5112182 0.0013091783 -0.019266782    4.5463726 
  108690    19.682873    1.0088232    23.751135    6.0486239    4.5358935    1.5127304 0.0014440498 -0.019710307    4.5541597 
  108700    17.495237    1.0137437    23.983403    6.0446592    4.5245506    1.5201086 0.0012992737 -0.018943421    4.5421947 
  108710     19.51386   0.99409985    23.739359     6.054332    4.5636793    1.4906527 0.0012745537 -0.018969626    4.5813744 
  108720    19.636633    1.0386186    23.746612    6.0895163    4.5321076    1.5574087 0.0013765805 -0.019998237    4.5507293 
  108730    19.720978    1.0191923    23.667792    6.0855284    4.5572495    1.5282788 0.0013971116 -0.020237824    4.5760902 
  108740    19.762183    1.0088608    23.651389    6.0861749    4.5733881    1.5127867 0.0013160512 -0.020359872     4.592432 
  108750    17.349858     1.025833     23.52833    6.0534577    4.5152211    1.5382367 0.0012977144 -0.020203351    4.5341267 
  108760    19.556501    1.0219749    23.634177    6.0672741    4.5348227    1.5324513 0.0012212924 -0.020024883    4.5536263 
  108770    19.499573    1.0300467    23.917228    6.0567169    4.5121619     1.544555 0.0012109301 -0.019959989     4.530911 
  108780    19.609645    1.0133548    23.718032    6.0540708    4.5345453    1.5195255 0.0012619293 -0.020168412    4.5534518 
  108790    19.457771    1.0101094    23.693992    6.0566723    4.5420132     1.514659 0.0014970276 -0.021077886    4.5615941 
  108800    17.369597    1.0046817    23.950449    6.0380453     4.531525    1.5065203 0.0016459651 -0.021377833    4.5512569 
  108810    19.617013    1.0094439     23.45902    6.0246036    4.5109426    1.5136611 0.0018608346 -0.022321525    4.5314033 
  108820    19.693771   0.99117495    23.499757    6.0128907    4.5266238    1.4862668 0.0021911388  -0.02420529     4.548638 
  108830    19.340082    1.0189418    23.987085    6.0491616    4.5212583    1.5279033 0.0022306165 -0.024556692    4.5435843 
  108840    19.590152    1.0268491     23.79258     6.058041    4.5182809    1.5397602 0.0022380728 -0.024546174     4.540589 
  108850    17.578972    1.0126152    24.112745    6.0532051    4.5347886    1.5184165 0.0023332749 -0.024953764    4.5574091 
  108860    19.729711    1.0139193    23.585569    6.0555177    4.5351457     1.520372 0.0021995493 -0.024313024    4.5572592 
  108870    19.543025    1.0123805     23.82233    6.0312351    4.5131705    1.5180645 0.0020206607 -0.023300952    4.5344508 
  108880    19.442389    1.0077543    23.766277    6.0436029    4.5324753    1.5111276 0.0018866977 -0.022260248    4.5528489 
  108890     19.55859    1.0083484     23.55192    6.0418842    4.5298657    1.5120184 0.0018978888 -0.021917629    4.5498854 
  108900    17.355396     1.003102    23.553831    6.0435192    4.5393677    1.5041515 0.0019489909 -0.022208533    4.5596273 
  108910    19.330039    1.0057944    23.571838    6.0394587      4.53127    1.5081887 0.0021549077 -0.022894072    4.5520091 
  108920     19.38233    1.0035883    23.512976    6.0247267    4.5198461    1.5048806 0.0021267871 -0.022594181    4.5403135 
  108930    19.013071    1.0119551    23.601139     6.046445    4.5290183    1.5174267 0.0019769044 -0.021997104    4.5490385 
  108940    19.402898   0.98703288    23.592265    6.0241737    4.5441179    1.4800558 0.0018815994 -0.021383407    4.5636197 
  108950    17.228279    1.0116266    23.873713    6.0345302    4.5175962     1.516934 0.0018900156 -0.021530683    4.5372369 
  108960    19.532868    1.0137482    23.666067    6.0439996    4.5238842    1.5201154 0.0019714197 -0.021923592    4.5438364 
  108970    19.602646    1.0262359    23.627481     6.059935    4.5210942    1.5388407 0.0021946248  -0.02303725    4.5419369 
  108980    19.331607    1.0210695    23.911731    6.0503162    4.5192226    1.5310937 0.0022355315 -0.023591025    4.5405781 
  108990    19.512434    1.0164306    23.624151    6.0650671    4.5409294    1.5241377 0.0022044552 -0.023348396    4.5620733 
  109000    17.464884    1.0076453    23.317095    6.0632055    4.5522413    1.5109642  0.002110393 -0.022980788    4.5731117 
  109010    19.701381    1.0120232    23.957566    6.0662503    4.5487215    1.5175288 0.0021228069 -0.022859291     4.569458 
  109020     19.76062    1.0127543    23.554097    6.0591117    4.5404866    1.5186251 0.0021382507 -0.022854384    4.5612028 
  109030    19.459414    1.0208129    23.902877    6.0619748    4.5312659    1.5307089 0.0019925483 -0.022414509    4.5516879 
  109040    19.780789   0.99724506    23.623369     6.028937    4.5335681     1.495369 0.0017747071 -0.021807726    4.5536011 
  109050    17.383174    1.0047037    24.008114    6.0458432    4.5392901    1.5065531 0.0015028882 -0.020825791     4.558613 
  109060    19.524299   0.99010652    23.542304    6.0295431    4.5448784    1.4846647 0.0014566867 -0.020296054    4.5637178 
  109070    19.785864    1.0006024    23.536147    6.0252576    4.5248543    1.5004033 0.0014875573 -0.020439743    4.5438065 
  109080     19.62013    1.0095711    23.661169    6.0246705    4.5108187    1.5138518 0.0015021045 -0.020418379    4.5297349 
  109090    19.694543    1.0077367     23.65646    6.0464006    4.5352994    1.5111012 0.0014832664 -0.020111181    4.5539273 
  109100    17.334988    1.0075309    23.410504    6.0562612    4.5454685    1.5107926 0.0013264549 -0.019193242    4.5633353 
  109110    19.432625    1.0124247     23.41613    6.0798535    4.5617227    1.5181308 0.0013699507 -0.019343586    4.5796963 
  109120    19.561848     1.026341    23.871217    6.0638173    4.5248189    1.5389984 0.0017271858 -0.021608841    4.5447005 
  109130    19.253373    1.0273117    23.623925    6.0953083    4.5548544    1.5404539 0.0017878215 -0.022436746    4.5755033 
  109140    19.175051    1.0231802    23.793673    6.0672277    4.5329689    1.5342587 0.0017510216 -0.022338798    4.5535567 
  109150    17.568728    1.0424857    23.803212    6.0822224    4.5190151    1.5632073  0.001878025 -0.022504542    4.5396416 
  109160    19.625397    1.0182323    23.530178    6.0729757    4.5461365    1.5268393 0.0021539632 -0.023658778    4.5676413 
  109170    19.459592    1.0152538    23.725531    6.0431553    4.5207823     1.522373 0.0021144204 -0.023374996    4.5420429 
  109180    19.508428    1.0002775    23.587365    6.0272989    4.5273828     1.499916 0.0020958032  -0.02346714    4.5487542 
  109190    19.378122   0.99859295    23.550684    6.0308501      4.53346    1.4973901 0.0020485706 -0.022990489    4.5544019 
  109200     17.54326    1.0083843      23.7539    6.0627071    4.5506349    1.5120722  0.001892068  -0.02276095    4.5715037 
  109210    19.656923    1.0051106    23.843521    6.0516193    4.5444559    1.5071634 0.0018212997 -0.022326028    4.5649606 
  109220    19.551894    1.0194241    23.614218    6.0726118    4.5439853    1.5286265 0.0019061421 -0.022398104    4.5644773 
  109230    19.648575    1.0114375      23.7218    6.0572997    4.5406491    1.5166506 0.0017523894 -0.021643295      4.56054 
  109240    19.675301    1.0098953    23.818406    6.0737535    4.5594155     1.514338 0.0018060938 -0.022281661     4.579891 
  109250     17.34761    1.0327426    23.627177    6.0966931    4.5480956    1.5485975 0.0018437377 -0.022730795    4.5689826 
  109260     19.59703    1.0322153     23.86119    6.1012305    4.5534236    1.5478069 0.0016656626  -0.02210372    4.5738617 
  109270    19.543829    1.0363377    23.792717    6.0973283      4.54334    1.5539883 0.0015527336 -0.021532177    4.5633194 
  109280    19.799441      1.03363    23.455318    6.0972476    4.5473194    1.5499281 0.0016503791 -0.022269257    4.5679383 
  109290    19.782561    1.0232651    23.933803    6.1016623    4.5672762    1.5343861 0.0017401707 -0.022689522    4.5882256 
  109300    17.264384    1.0141626    23.684973    6.0732865    4.5525497    1.5207368 0.0016914649 -0.022464198    4.5733224 
  109310    19.775557    1.0137244    23.542253    6.0692924    4.5492127    1.5200797  0.001917747 -0.023190324    4.5704853 
  109320     19.74266    1.0052451    23.833385    6.0484323    4.5410673     1.507365 0.0019988399 -0.023596037    4.5626645 
  109330    19.804503    1.0143287     23.79748    6.0520297    4.5310438    1.5209859 0.0019122399 -0.023084129    4.5522157 
  109340     19.79391    1.0238752    23.856976    6.0799375    4.5446366    1.5353009 0.0016839173  -0.02232507    4.5652777 
  109350    17.536692    1.0345892    23.786877    6.0627093    4.5113428    1.5513665 0.0013761394 -0.020919653    4.5308863 
  109360    19.692736    1.0088422    23.700429    6.0549803    4.5422214    1.5127589 0.0012873364 -0.020418387    4.5613524 
  109370    19.473835     1.028856    23.604675    6.0840439    4.5412743    1.5427696 0.0013387151 -0.020306388     4.560242 
  109380    19.495974    1.0448885    23.363523    6.0941381    4.5273277    1.5668104 0.0012906668 -0.020037907     4.546075 
  109390    19.680202    1.0173206    23.586101    6.0817117    4.5562394    1.5254723 0.0014257434 -0.020378487    4.5751922 
  109400    17.445333    1.0362417     23.75722     6.093819    4.5399746    1.5538444 0.0016812449 -0.021207188    4.5595006 
  109410    19.040206    1.0104955    23.577009    6.0480558    4.5328178     1.515238 0.0017356218 -0.021635171    4.5527174 
  109420    19.181956    1.0137976    23.962729    6.0512367    4.5310473    1.5201895 0.0018000798  -0.02211504    4.5513622 
  109430    19.587181    1.0017795    23.702462    6.0418045    4.5396361    1.5021683 0.0017454712 -0.021743865    4.5596345 
  109440    19.504302   0.99972003    23.952479    6.0594888    4.5604086    1.4990802 0.0015581611 -0.020905891    4.5797564 
  109450    17.290454    1.0028194    23.950908    6.0151053    4.5113776    1.5037277  0.001585161 -0.020879292    4.5306717 
  109460    19.271733    1.0073248    23.713776    6.0297217    4.5192381    1.5104835 0.0017282836 -0.021881135     4.539391 
  109470    19.396197    1.0016148    23.665637    6.0373902    4.5354688    1.5019215 0.0019531133 -0.023079673    4.5565953 
  109480    19.641451    1.0234069    23.775386    6.0407093    4.5061106    1.5345987 0.0017825512 -0.022769355    4.5270974 
  109490    19.737967    1.0123566    23.925904    6.0470347    4.5290061    1.5180287   0.00167673 -0.022241628     4.549571 
  109500    17.560178     0.998362    23.686736    6.0419699    4.5449261    1.4970438 0.0017176394 -0.022204443    4.5654129 
  109510    19.328696   0.98172678    23.718311    6.0184567    4.5463574    1.4720993  0.001751661 -0.022061119    4.5666669 
  109520    19.013913   0.99256722    23.708563    6.0286829    4.5403284    1.4883545 0.0017136645 -0.022045643    4.5606603 
  109530    19.400702    1.0052482    23.662992    6.0103495    4.5029798    1.5073697 0.0016765418 -0.021708201    4.5230115 
  109540    19.587599    0.9949178    23.658644    6.0178758    4.5259966    1.4918792 0.0014665803 -0.020458911    4.5449889 
  109550    17.458784   0.99545982    24.006434    5.9920451    4.4993531     1.492692 0.0013800897 -0.020561669    4.5185347 
  109560    19.521276    1.0045066    23.918562    6.0258228    4.5195652    1.5062576 0.0014499499  -0.02075921    4.5388745 
  109570    19.793408    1.0180256    23.687822    6.0474269    4.5208975    1.5265293 0.0014356918 -0.020431775    4.5398936 
  109580    19.719067    1.0089688    23.845968     6.043872    4.5309233    1.5129487 0.0014331319 -0.020837594    4.5503277 
  109590    19.561411    1.0194691    23.671897    6.0655175    4.5368236    1.5286939 0.0015637555   -0.0212939    4.5565538 
  109600    17.446102    1.0080593    23.877667    6.0562972    4.5447123    1.5115849  0.001676641  -0.02157176    4.5646075 
  109610    19.568013    1.0236868    23.708216    6.0707946    4.5357763    1.5350183 0.0016977584   -0.0218993    4.5559779 
  109620    19.656028    1.0084895    23.742655    6.0499711     4.537741    1.5122301 0.0017462981 -0.022365059    4.5583598 
  109630    19.621037    1.0143142    23.675243    6.0421556    4.5211914    1.5209642 0.0016644826 -0.021793118    4.5413201 
  109640    19.262851    1.0052254    23.920615    6.0383251    4.5309895    1.5073355 0.0015170732 -0.021101625    4.5505741 
  109650    17.158296    1.0155648    23.829396    6.0382813    4.5154419    1.5228394 0.0017331192 -0.021734944    4.5354438 
  109660    19.711846    1.0090223     24.05423    6.0488129     4.535784    1.5130289 0.0017222802 -0.021555798    4.5556175 
  109670     19.74784   0.99655896    23.804934    6.0335562     4.539216    1.4943402 0.0017190235 -0.021466221    4.5589632 
  109680    19.574183   0.99740736    23.599282    5.9984646    4.5028522    1.4956123 0.0018649308 -0.021771424    4.5227587 
  109690    19.638075   0.97775736    23.725215    5.9827661     4.516619    1.4661472 0.0018200342 -0.021622598    4.5364215 
  109700    17.332946   0.98981199    23.758932    6.0026189    4.5183958    1.4842231 0.0017795888 -0.021496986    4.5381132 
  109710    19.573693   0.98966616     23.61776    5.9897084     4.505704    1.4840044 0.0018874145 -0.022024084    4.5258407 
  109720    19.510379   0.98615591    23.741843    5.9979786    4.5192378    1.4787408 0.0016378566  -0.02128464    4.5388846 
  109730    19.127755   0.97606903    23.694643    5.9898015     4.526186    1.4636155 0.0013376929 -0.020068606    4.5449169 
  109740    19.503239    1.0046749     24.06383    6.0009579    4.4944479      1.50651 0.0011737535 -0.018833878     4.512108 
  109750    17.302852   0.98077948    23.889579    5.9832182    4.5125393    1.4706788 0.0010665859 -0.018210975    4.5296837 
  109760    19.302984   0.99034123    23.712324     6.001201    4.5161843    1.4850167 0.0012624438 -0.019440837    4.5343627 
  109770    19.450835    0.9980853    23.734459    5.9987679     4.502139    1.4966289 0.0014177345  -0.02005152    4.5207728 
  109780    19.521713    1.0029463     23.76402    6.0294826    4.5255647     1.503918 0.0014697234 -0.020014647    4.5441096 
  109790    19.397151    1.0156657     23.86267    6.0438487    4.5208579    1.5229908 0.0015103783 -0.020328479     4.539676 
  109800    17.499645    1.0157693    23.770817    6.0519334    4.5287874     1.523146 0.0015037254 -0.020191705    4.5474754 
  109810    19.756196    1.0250417     23.72677    6.0793014    4.5422514      1.53705  0.001468554  -0.01978624    4.5605691 
  109820    19.654902    1.0390618    23.965474    6.0785627    4.5204896    1.5580731 0.0013013566 -0.019608795     4.538797 
  109830    19.649625    1.0206497    23.652616    6.0677503    4.5372861    1.5304642   0.00128314 -0.019596268    4.5555992 
  109840    19.714351    1.0142587    23.734763    6.0498431    4.5289622    1.5208809 0.0014873563 -0.021111183     4.548586 
  109850    17.274679      1.00297    23.556066    6.0432362    4.5392827    1.5039535 0.0016429132  -0.02185095    4.5594908 
  109860    19.661368    1.0097925    23.720189    6.0353582    4.5211744    1.5141838  0.001579574 -0.020965092    4.5405599 
  109870    19.602927    1.0148735    23.327771     6.031846    4.5100433    1.5218027  0.001410087 -0.020138408    4.5287716 
  109880    19.503178    1.0165581    23.718826    6.0387698    4.5144409    1.5243289 0.0015696451 -0.020702431    4.5335737 
  109890    19.792094    1.0039223    23.542534    6.0218956    4.5165141    1.5053815  0.001756241 -0.021501782    4.5362596 
  109900    17.204613   0.97978181    23.734286    6.0081716    4.5389888    1.4691828 0.0018183453 -0.021933883    4.5591043 
  109910    19.112287    1.0153103    23.651999    6.0538622    4.5314045    1.5224578 0.0018962317 -0.022797162    4.5523054 
  109920    19.395097    1.0340971    23.776639    6.0779379    4.5273092    1.5506287 0.0018793498 -0.022933501    4.5483634 
  109930    19.488394    1.0277157    23.948518    6.0611576     4.520098    1.5410596 0.0018678198 -0.023037619    4.5412678 
  109940    19.578822     1.020977    23.723486    6.0685162    4.5375611     1.530955 0.0017648225 -0.022320436    4.5581168 
  109950    17.452493    1.0160453    23.790701       6.0685    4.5449401    1.5235599  0.001449306 -0.020621341    4.5641121 
  109960    19.674913    1.0075557    23.731245    6.0579629    4.5471331    1.5108297 0.0014293254 -0.020743636    4.5664475 
  109970    19.715002    1.0224029    23.892133    6.0637008    4.5306076    1.5330932 0.0014657369  -0.02115211     4.550294 
  109980     19.02083    1.0144547    23.631891    6.0520466    4.5308718    1.5211748 0.0014891567 -0.021133485    4.5505161 
  109990    19.186055    1.0102697    23.942081    6.0545916    4.5396922    1.5148995 0.0016368168   -0.0217256    4.5597809 
  110000    17.635277   0.99508236    23.495257    6.0282044    4.5360784     1.492126 0.0016780979 -0.021861709     4.556262 
Loop time of 525.071 on 16 procs for 10000 steps with 3000 atoms

Performance: 32909.810 tau/day, 19.045 timesteps/s
99.6% CPU use with 16 MPI tasks x no OpenMP threads

MPI task timing breakdown:
Section |  min time  |  avg time  |  max time  |%varavg| %total
---------------------------------------------------------------
Pair    | 77.195     | 77.454     | 77.948     |   2.2 | 14.75
Kspace  | 316.71     | 319.8      | 322.73     |   9.7 | 60.91
Neigh   | 91.009     | 91.602     | 93.194     |   5.6 | 17.45
Comm    | 21.181     | 23.262     | 25.834     |  30.5 |  4.43
Output  | 0.046175   | 0.04717    | 0.054478   |   0.9 |  0.01
Modify  | 12.64      | 12.643     | 12.651     |   0.1 |  2.41
Other   |            | 0.2675     |            |       |  0.05

Nlocal:    187.5 ave 193 max 176 min
Histogram: 1 0 1 0 0 3 3 1 4 3
Nghost:    8250 ave 8306 max 8195 min
Histogram: 3 1 0 1 2 3 2 1 1 2
Neighs:    147148 ave 152801 max 137611 min
Histogram: 1 0 1 0 1 3 2 6 1 1

Total # of neighbors = 2354367
Ave neighs/atom = 784.789
Neighbor list builds = 10000
Dangerous builds not checked
write_data	data.after_production_run
Ewald initialization ...
  using 12-bit tables for long-range coulomb (../kspace.cpp:321)
  G vector (1/distance) = 1.0262
  estimated absolute RMS force accuracy = 1.01103e-05
  estimated relative force accuracy = 1.01103e-05
  KSpace vectors: actual max1d max3d = 2787 11 6083
                  kxmax kymax kzmax  = 11 11 11

Total wall time: 1:31:15
