LAMMPS data file: a cylindrical interface along z axis with radius R = 5.0, and an ion away from center line d = 7.0, epsilon in = 80, out = 5, normal vectors pointing outward
3601 atoms
2 atom types

0 100.0 xlo xhi
0 100.0 ylo yhi
0 100.0 zlo zhi

Masses

1 1.0
2 1.0

Atoms # dielectric: id mol type q x y z normx normy normz area_per_patch ed em epsilon curvature

1 1 1 0 55.0 50.0 0.0 1.0 0.0 0 0.872664625997 -75 42.5 42.5 0.2
2 1 1 0 54.9240387651 50.8682408883 0.0 0.984807753012 0.173648177667 0 0.872664625997 -75 42.5 42.5 0.2
3 1 1 0 54.6984631039 51.7101007166 0.0 0.939692620786 0.342020143326 0 0.872664625997 -75 42.5 42.5 0.2
4 1 1 0 54.3301270189 52.5 0.0 0.866025403784 0.5 0 0.872664625997 -75 42.5 42.5 0.2
5 1 1 0 53.8302222156 53.2139380484 0.0 0.766044443119 0.642787609687 0 0.872664625997 -75 42.5 42.5 0.2
6 1 1 0 53.2139380484 53.8302222156 0.0 0.642787609687 0.766044443119 0 0.872664625997 -75 42.5 42.5 0.2
7 1 1 0 52.5 54.3301270189 0.0 0.5 0.866025403784 0 0.872664625997 -75 42.5 42.5 0.2
8 1 1 0 51.7101007166 54.6984631039 0.0 0.342020143326 0.939692620786 0 0.872664625997 -75 42.5 42.5 0.2
9 1 1 0 50.8682408883 54.9240387651 0.0 0.173648177667 0.984807753012 0 0.872664625997 -75 42.5 42.5 0.2
10 1 1 0 50.0 55.0 0.0 6.12323399574e-17 1.0 0 0.872664625997 -75 42.5 42.5 0.2
11 1 1 0 49.1317591117 54.9240387651 0.0 -0.173648177667 0.984807753012 0 0.872664625997 -75 42.5 42.5 0.2
12 1 1 0 48.2898992834 54.6984631039 0.0 -0.342020143326 0.939692620786 0 0.872664625997 -75 42.5 42.5 0.2
13 1 1 0 47.5 54.3301270189 0.0 -0.5 0.866025403784 0 0.872664625997 -75 42.5 42.5 0.2
14 1 1 0 46.7860619516 53.8302222156 0.0 -0.642787609687 0.766044443119 0 0.872664625997 -75 42.5 42.5 0.2
15 1 1 0 46.1697777844 53.2139380484 0.0 -0.766044443119 0.642787609687 0 0.872664625997 -75 42.5 42.5 0.2
16 1 1 0 45.6698729811 52.5 0.0 -0.866025403784 0.5 0 0.872664625997 -75 42.5 42.5 0.2
17 1 1 0 45.3015368961 51.7101007166 0.0 -0.939692620786 0.342020143326 0 0.872664625997 -75 42.5 42.5 0.2
18 1 1 0 45.0759612349 50.8682408883 0.0 -0.984807753012 0.173648177667 0 0.872664625997 -75 42.5 42.5 0.2
19 1 1 0 45.0 50.0 0.0 -1.0 1.22464679915e-16 0 0.872664625997 -75 42.5 42.5 0.2
20 1 1 0 45.0759612349 49.1317591117 0.0 -0.984807753012 -0.173648177667 0 0.872664625997 -75 42.5 42.5 0.2
21 1 1 0 45.3015368961 48.2898992834 0.0 -0.939692620786 -0.342020143326 0 0.872664625997 -75 42.5 42.5 0.2
22 1 1 0 45.6698729811 47.5 0.0 -0.866025403784 -0.5 0 0.872664625997 -75 42.5 42.5 0.2
23 1 1 0 46.1697777844 46.7860619516 0.0 -0.766044443119 -0.642787609687 0 0.872664625997 -75 42.5 42.5 0.2
24 1 1 0 46.7860619516 46.1697777844 0.0 -0.642787609687 -0.766044443119 0 0.872664625997 -75 42.5 42.5 0.2
25 1 1 0 47.5 45.6698729811 0.0 -0.5 -0.866025403784 0 0.872664625997 -75 42.5 42.5 0.2
26 1 1 0 48.2898992834 45.3015368961 0.0 -0.342020143326 -0.939692620786 0 0.872664625997 -75 42.5 42.5 0.2
27 1 1 0 49.1317591117 45.0759612349 0.0 -0.173648177667 -0.984807753012 0 0.872664625997 -75 42.5 42.5 0.2
28 1 1 0 50.0 45.0 0.0 -1.83697019872e-16 -1.0 0 0.872664625997 -75 42.5 42.5 0.2
29 1 1 0 50.8682408883 45.0759612349 0.0 0.173648177667 -0.984807753012 0 0.872664625997 -75 42.5 42.5 0.2
30 1 1 0 51.7101007166 45.3015368961 0.0 0.342020143326 -0.939692620786 0 0.872664625997 -75 42.5 42.5 0.2
31 1 1 0 52.5 45.6698729811 0.0 0.5 -0.866025403784 0 0.872664625997 -75 42.5 42.5 0.2
32 1 1 0 53.2139380484 46.1697777844 0.0 0.642787609687 -0.766044443119 0 0.872664625997 -75 42.5 42.5 0.2
33 1 1 0 53.8302222156 46.7860619516 0.0 0.766044443119 -0.642787609687 0 0.872664625997 -75 42.5 42.5 0.2
34 1 1 0 54.3301270189 47.5 0.0 0.866025403784 -0.5 0 0.872664625997 -75 42.5 42.5 0.2
35 1 1 0 54.6984631039 48.2898992834 0.0 0.939692620786 -0.342020143326 0 0.872664625997 -75 42.5 42.5 0.2
36 1 1 0 54.9240387651 49.1317591117 0.0 0.984807753012 -0.173648177667 0 0.872664625997 -75 42.5 42.5 0.2
37 1 1 0 54.9809734905 50.4357787137 1.0 0.996194698092 0.0871557427477 0 0.872664625997 -75 42.5 42.5 0.2
38 1 1 0 54.8296291314 51.2940952255 1.0 0.965925826289 0.258819045103 0 0.872664625997 -75 42.5 42.5 0.2
39 1 1 0 54.5315389352 52.1130913087 1.0 0.906307787037 0.422618261741 0 0.872664625997 -75 42.5 42.5 0.2
40 1 1 0 54.0957602214 52.8678821818 1.0 0.819152044289 0.573576436351 0 0.872664625997 -75 42.5 42.5 0.2
41 1 1 0 53.5355339059 53.5355339059 1.0 0.707106781187 0.707106781187 0 0.872664625997 -75 42.5 42.5 0.2
42 1 1 0 52.8678821818 54.0957602214 1.0 0.573576436351 0.819152044289 0 0.872664625997 -75 42.5 42.5 0.2
43 1 1 0 52.1130913087 54.5315389352 1.0 0.422618261741 0.906307787037 0 0.872664625997 -75 42.5 42.5 0.2
44 1 1 0 51.2940952255 54.8296291314 1.0 0.258819045103 0.965925826289 0 0.872664625997 -75 42.5 42.5 0.2
45 1 1 0 50.4357787137 54.9809734905 1.0 0.0871557427477 0.996194698092 0 0.872664625997 -75 42.5 42.5 0.2
46 1 1 0 49.5642212863 54.9809734905 1.0 -0.0871557427477 0.996194698092 0 0.872664625997 -75 42.5 42.5 0.2
47 1 1 0 48.7059047745 54.8296291314 1.0 -0.258819045103 0.965925826289 0 0.872664625997 -75 42.5 42.5 0.2
48 1 1 0 47.8869086913 54.5315389352 1.0 -0.422618261741 0.906307787037 0 0.872664625997 -75 42.5 42.5 0.2
49 1 1 0 47.1321178182 54.0957602214 1.0 -0.573576436351 0.819152044289 0 0.872664625997 -75 42.5 42.5 0.2
50 1 1 0 46.4644660941 53.5355339059 1.0 -0.707106781187 0.707106781187 0 0.872664625997 -75 42.5 42.5 0.2
51 1 1 0 45.9042397786 52.8678821818 1.0 -0.819152044289 0.573576436351 0 0.872664625997 -75 42.5 42.5 0.2
52 1 1 0 45.4684610648 52.1130913087 1.0 -0.906307787037 0.422618261741 0 0.872664625997 -75 42.5 42.5 0.2
53 1 1 0 45.1703708686 51.2940952255 1.0 -0.965925826289 0.258819045103 0 0.872664625997 -75 42.5 42.5 0.2
54 1 1 0 45.0190265095 50.4357787137 1.0 -0.996194698092 0.0871557427477 0 0.872664625997 -75 42.5 42.5 0.2
55 1 1 0 45.0190265095 49.5642212863 1.0 -0.996194698092 -0.0871557427477 0 0.872664625997 -75 42.5 42.5 0.2
56 1 1 0 45.1703708686 48.7059047745 1.0 -0.965925826289 -0.258819045103 0 0.872664625997 -75 42.5 42.5 0.2
57 1 1 0 45.4684610648 47.8869086913 1.0 -0.906307787037 -0.422618261741 0 0.872664625997 -75 42.5 42.5 0.2
58 1 1 0 45.9042397786 47.1321178182 1.0 -0.819152044289 -0.573576436351 0 0.872664625997 -75 42.5 42.5 0.2
59 1 1 0 46.4644660941 46.4644660941 1.0 -0.707106781187 -0.707106781187 0 0.872664625997 -75 42.5 42.5 0.2
60 1 1 0 47.1321178182 45.9042397786 1.0 -0.573576436351 -0.819152044289 0 0.872664625997 -75 42.5 42.5 0.2
61 1 1 0 47.8869086913 45.4684610648 1.0 -0.422618261741 -0.906307787037 0 0.872664625997 -75 42.5 42.5 0.2
62 1 1 0 48.7059047745 45.1703708686 1.0 -0.258819045103 -0.965925826289 0 0.872664625997 -75 42.5 42.5 0.2
63 1 1 0 49.5642212863 45.0190265095 1.0 -0.0871557427477 -0.996194698092 0 0.872664625997 -75 42.5 42.5 0.2
64 1 1 0 50.4357787137 45.0190265095 1.0 0.0871557427477 -0.996194698092 0 0.872664625997 -75 42.5 42.5 0.2
65 1 1 0 51.2940952255 45.1703708686 1.0 0.258819045103 -0.965925826289 0 0.872664625997 -75 42.5 42.5 0.2
66 1 1 0 52.1130913087 45.4684610648 1.0 0.422618261741 -0.906307787037 0 0.872664625997 -75 42.5 42.5 0.2
67 1 1 0 52.8678821818 45.9042397786 1.0 0.573576436351 -0.819152044289 0 0.872664625997 -75 42.5 42.5 0.2
68 1 1 0 53.5355339059 46.4644660941 1.0 0.707106781187 -0.707106781187 0 0.872664625997 -75 42.5 42.5 0.2
69 1 1 0 54.0957602214 47.1321178182 1.0 0.819152044289 -0.573576436351 0 0.872664625997 -75 42.5 42.5 0.2
70 1 1 0 54.5315389352 47.8869086913 1.0 0.906307787037 -0.422618261741 0 0.872664625997 -75 42.5 42.5 0.2
71 1 1 0 54.8296291314 48.7059047745 1.0 0.965925826289 -0.258819045103 0 0.872664625997 -75 42.5 42.5 0.2
72 1 1 0 54.9809734905 49.5642212863 1.0 0.996194698092 -0.0871557427477 0 0.872664625997 -75 42.5 42.5 0.2
73 1 1 0 54.9240387651 50.8682408883 2.0 0.984807753012 0.173648177667 0 0.872664625997 -75 42.5 42.5 0.2
74 1 1 0 54.6984631039 51.7101007166 2.0 0.939692620786 0.342020143326 0 0.872664625997 -75 42.5 42.5 0.2
75 1 1 0 54.3301270189 52.5 2.0 0.866025403784 0.5 0 0.872664625997 -75 42.5 42.5 0.2
76 1 1 0 53.8302222156 53.2139380484 2.0 0.766044443119 0.642787609687 0 0.872664625997 -75 42.5 42.5 0.2
77 1 1 0 53.2139380484 53.8302222156 2.0 0.642787609687 0.766044443119 0 0.872664625997 -75 42.5 42.5 0.2
78 1 1 0 52.5 54.3301270189 2.0 0.5 0.866025403784 0 0.872664625997 -75 42.5 42.5 0.2
79 1 1 0 51.7101007166 54.6984631039 2.0 0.342020143326 0.939692620786 0 0.872664625997 -75 42.5 42.5 0.2
80 1 1 0 50.8682408883 54.9240387651 2.0 0.173648177667 0.984807753012 0 0.872664625997 -75 42.5 42.5 0.2
81 1 1 0 50.0 55.0 2.0 6.12323399574e-17 1.0 0 0.872664625997 -75 42.5 42.5 0.2
82 1 1 0 49.1317591117 54.9240387651 2.0 -0.173648177667 0.984807753012 0 0.872664625997 -75 42.5 42.5 0.2
83 1 1 0 48.2898992834 54.6984631039 2.0 -0.342020143326 0.939692620786 0 0.872664625997 -75 42.5 42.5 0.2
84 1 1 0 47.5 54.3301270189 2.0 -0.5 0.866025403784 0 0.872664625997 -75 42.5 42.5 0.2
85 1 1 0 46.7860619516 53.8302222156 2.0 -0.642787609687 0.766044443119 0 0.872664625997 -75 42.5 42.5 0.2
86 1 1 0 46.1697777844 53.2139380484 2.0 -0.766044443119 0.642787609687 0 0.872664625997 -75 42.5 42.5 0.2
87 1 1 0 45.6698729811 52.5 2.0 -0.866025403784 0.5 0 0.872664625997 -75 42.5 42.5 0.2
88 1 1 0 45.3015368961 51.7101007166 2.0 -0.939692620786 0.342020143326 0 0.872664625997 -75 42.5 42.5 0.2
89 1 1 0 45.0759612349 50.8682408883 2.0 -0.984807753012 0.173648177667 0 0.872664625997 -75 42.5 42.5 0.2
90 1 1 0 45.0 50.0 2.0 -1.0 5.66553889765e-16 0 0.872664625997 -75 42.5 42.5 0.2
91 1 1 0 45.0759612349 49.1317591117 2.0 -0.984807753012 -0.173648177667 0 0.872664625997 -75 42.5 42.5 0.2
92 1 1 0 45.3015368961 48.2898992834 2.0 -0.939692620786 -0.342020143326 0 0.872664625997 -75 42.5 42.5 0.2
93 1 1 0 45.6698729811 47.5 2.0 -0.866025403784 -0.5 0 0.872664625997 -75 42.5 42.5 0.2
94 1 1 0 46.1697777844 46.7860619516 2.0 -0.766044443119 -0.642787609687 0 0.872664625997 -75 42.5 42.5 0.2
95 1 1 0 46.7860619516 46.1697777844 2.0 -0.642787609687 -0.766044443119 0 0.872664625997 -75 42.5 42.5 0.2
96 1 1 0 47.5 45.6698729811 2.0 -0.5 -0.866025403784 0 0.872664625997 -75 42.5 42.5 0.2
97 1 1 0 48.2898992834 45.3015368961 2.0 -0.342020143326 -0.939692620786 0 0.872664625997 -75 42.5 42.5 0.2
98 1 1 0 49.1317591117 45.0759612349 2.0 -0.173648177667 -0.984807753012 0 0.872664625997 -75 42.5 42.5 0.2
99 1 1 0 50.0 45.0 2.0 -1.83697019872e-16 -1.0 0 0.872664625997 -75 42.5 42.5 0.2
100 1 1 0 50.8682408883 45.0759612349 2.0 0.173648177667 -0.984807753012 0 0.872664625997 -75 42.5 42.5 0.2
101 1 1 0 51.7101007166 45.3015368961 2.0 0.342020143326 -0.939692620786 0 0.872664625997 -75 42.5 42.5 0.2
102 1 1 0 52.5 45.6698729811 2.0 0.5 -0.866025403784 0 0.872664625997 -75 42.5 42.5 0.2
103 1 1 0 53.2139380484 46.1697777844 2.0 0.642787609687 -0.766044443119 0 0.872664625997 -75 42.5 42.5 0.2
104 1 1 0 53.8302222156 46.7860619516 2.0 0.766044443119 -0.642787609687 0 0.872664625997 -75 42.5 42.5 0.2
105 1 1 0 54.3301270189 47.5 2.0 0.866025403784 -0.5 0 0.872664625997 -75 42.5 42.5 0.2
106 1 1 0 54.6984631039 48.2898992834 2.0 0.939692620786 -0.342020143326 0 0.872664625997 -75 42.5 42.5 0.2
107 1 1 0 54.9240387651 49.1317591117 2.0 0.984807753012 -0.173648177667 0 0.872664625997 -75 42.5 42.5 0.2
108 1 1 0 55.0 50.0 2.0 1.0 -2.44929359829e-16 0 0.872664625997 -75 42.5 42.5 0.2
109 1 1 0 54.8296291314 51.2940952255 3.0 0.965925826289 0.258819045103 0 0.872664625997 -75 42.5 42.5 0.2
110 1 1 0 54.5315389352 52.1130913087 3.0 0.906307787037 0.422618261741 0 0.872664625997 -75 42.5 42.5 0.2
111 1 1 0 54.0957602214 52.8678821818 3.0 0.819152044289 0.573576436351 0 0.872664625997 -75 42.5 42.5 0.2
112 1 1 0 53.5355339059 53.5355339059 3.0 0.707106781187 0.707106781187 0 0.872664625997 -75 42.5 42.5 0.2
113 1 1 0 52.8678821818 54.0957602214 3.0 0.573576436351 0.819152044289 0 0.872664625997 -75 42.5 42.5 0.2
114 1 1 0 52.1130913087 54.5315389352 3.0 0.422618261741 0.906307787037 0 0.872664625997 -75 42.5 42.5 0.2
115 1 1 0 51.2940952255 54.8296291314 3.0 0.258819045103 0.965925826289 0 0.872664625997 -75 42.5 42.5 0.2
116 1 1 0 50.4357787137 54.9809734905 3.0 0.0871557427477 0.996194698092 0 0.872664625997 -75 42.5 42.5 0.2
117 1 1 0 49.5642212863 54.9809734905 3.0 -0.0871557427477 0.996194698092 0 0.872664625997 -75 42.5 42.5 0.2
118 1 1 0 48.7059047745 54.8296291314 3.0 -0.258819045103 0.965925826289 0 0.872664625997 -75 42.5 42.5 0.2
119 1 1 0 47.8869086913 54.5315389352 3.0 -0.422618261741 0.906307787037 0 0.872664625997 -75 42.5 42.5 0.2
120 1 1 0 47.1321178182 54.0957602214 3.0 -0.573576436351 0.819152044289 0 0.872664625997 -75 42.5 42.5 0.2
121 1 1 0 46.4644660941 53.5355339059 3.0 -0.707106781187 0.707106781187 0 0.872664625997 -75 42.5 42.5 0.2
122 1 1 0 45.9042397786 52.8678821818 3.0 -0.819152044289 0.573576436351 0 0.872664625997 -75 42.5 42.5 0.2
123 1 1 0 45.4684610648 52.1130913087 3.0 -0.906307787037 0.422618261741 0 0.872664625997 -75 42.5 42.5 0.2
124 1 1 0 45.1703708686 51.2940952255 3.0 -0.965925826289 0.258819045103 0 0.872664625997 -75 42.5 42.5 0.2
125 1 1 0 45.0190265095 50.4357787137 3.0 -0.996194698092 0.0871557427477 0 0.872664625997 -75 42.5 42.5 0.2
126 1 1 0 45.0190265095 49.5642212863 3.0 -0.996194698092 -0.0871557427477 0 0.872664625997 -75 42.5 42.5 0.2
127 1 1 0 45.1703708686 48.7059047745 3.0 -0.965925826289 -0.258819045103 0 0.872664625997 -75 42.5 42.5 0.2
128 1 1 0 45.4684610648 47.8869086913 3.0 -0.906307787037 -0.422618261741 0 0.872664625997 -75 42.5 42.5 0.2
129 1 1 0 45.9042397786 47.1321178182 3.0 -0.819152044289 -0.573576436351 0 0.872664625997 -75 42.5 42.5 0.2
130 1 1 0 46.4644660941 46.4644660941 3.0 -0.707106781187 -0.707106781187 0 0.872664625997 -75 42.5 42.5 0.2
131 1 1 0 47.1321178182 45.9042397786 3.0 -0.573576436351 -0.819152044289 0 0.872664625997 -75 42.5 42.5 0.2
132 1 1 0 47.8869086913 45.4684610648 3.0 -0.422618261741 -0.906307787037 0 0.872664625997 -75 42.5 42.5 0.2
133 1 1 0 48.7059047745 45.1703708686 3.0 -0.258819045103 -0.965925826289 0 0.872664625997 -75 42.5 42.5 0.2
134 1 1 0 49.5642212863 45.0190265095 3.0 -0.0871557427477 -0.996194698092 0 0.872664625997 -75 42.5 42.5 0.2
135 1 1 0 50.4357787137 45.0190265095 3.0 0.0871557427477 -0.996194698092 0 0.872664625997 -75 42.5 42.5 0.2
136 1 1 0 51.2940952255 45.1703708686 3.0 0.258819045103 -0.965925826289 0 0.872664625997 -75 42.5 42.5 0.2
137 1 1 0 52.1130913087 45.4684610648 3.0 0.422618261741 -0.906307787037 0 0.872664625997 -75 42.5 42.5 0.2
138 1 1 0 52.8678821818 45.9042397786 3.0 0.573576436351 -0.819152044289 0 0.872664625997 -75 42.5 42.5 0.2
139 1 1 0 53.5355339059 46.4644660941 3.0 0.707106781187 -0.707106781187 0 0.872664625997 -75 42.5 42.5 0.2
140 1 1 0 54.0957602214 47.1321178182 3.0 0.819152044289 -0.573576436351 0 0.872664625997 -75 42.5 42.5 0.2
141 1 1 0 54.5315389352 47.8869086913 3.0 0.906307787037 -0.422618261741 0 0.872664625997 -75 42.5 42.5 0.2
142 1 1 0 54.8296291314 48.7059047745 3.0 0.965925826289 -0.258819045103 0 0.872664625997 -75 42.5 42.5 0.2
143 1 1 0 54.9809734905 49.5642212863 3.0 0.996194698092 -0.0871557427477 0 0.872664625997 -75 42.5 42.5 0.2
144 1 1 0 54.9809734905 50.4357787137 3.0 0.996194698092 0.0871557427477 0 0.872664625997 -75 42.5 42.5 0.2
145 1 1 0 54.6984631039 51.7101007166 4.0 0.939692620786 0.342020143326 0 0.872664625997 -75 42.5 42.5 0.2
146 1 1 0 54.3301270189 52.5 4.0 0.866025403784 0.5 0 0.872664625997 -75 42.5 42.5 0.2
147 1 1 0 53.8302222156 53.2139380484 4.0 0.766044443119 0.642787609687 0 0.872664625997 -75 42.5 42.5 0.2
148 1 1 0 53.2139380484 53.8302222156 4.0 0.642787609687 0.766044443119 0 0.872664625997 -75 42.5 42.5 0.2
149 1 1 0 52.5 54.3301270189 4.0 0.5 0.866025403784 0 0.872664625997 -75 42.5 42.5 0.2
150 1 1 0 51.7101007166 54.6984631039 4.0 0.342020143326 0.939692620786 0 0.872664625997 -75 42.5 42.5 0.2
151 1 1 0 50.8682408883 54.9240387651 4.0 0.173648177667 0.984807753012 0 0.872664625997 -75 42.5 42.5 0.2
152 1 1 0 50.0 55.0 4.0 6.12323399574e-17 1.0 0 0.872664625997 -75 42.5 42.5 0.2
153 1 1 0 49.1317591117 54.9240387651 4.0 -0.173648177667 0.984807753012 0 0.872664625997 -75 42.5 42.5 0.2
154 1 1 0 48.2898992834 54.6984631039 4.0 -0.342020143326 0.939692620786 0 0.872664625997 -75 42.5 42.5 0.2
155 1 1 0 47.5 54.3301270189 4.0 -0.5 0.866025403784 0 0.872664625997 -75 42.5 42.5 0.2
156 1 1 0 46.7860619516 53.8302222156 4.0 -0.642787609687 0.766044443119 0 0.872664625997 -75 42.5 42.5 0.2
157 1 1 0 46.1697777844 53.2139380484 4.0 -0.766044443119 0.642787609687 0 0.872664625997 -75 42.5 42.5 0.2
158 1 1 0 45.6698729811 52.5 4.0 -0.866025403784 0.5 0 0.872664625997 -75 42.5 42.5 0.2
159 1 1 0 45.3015368961 51.7101007166 4.0 -0.939692620786 0.342020143326 0 0.872664625997 -75 42.5 42.5 0.2
160 1 1 0 45.0759612349 50.8682408883 4.0 -0.984807753012 0.173648177667 0 0.872664625997 -75 42.5 42.5 0.2
161 1 1 0 45.0 50.0 4.0 -1.0 1.22464679915e-16 0 0.872664625997 -75 42.5 42.5 0.2
162 1 1 0 45.0759612349 49.1317591117 4.0 -0.984807753012 -0.173648177667 0 0.872664625997 -75 42.5 42.5 0.2
163 1 1 0 45.3015368961 48.2898992834 4.0 -0.939692620786 -0.342020143326 0 0.872664625997 -75 42.5 42.5 0.2
164 1 1 0 45.6698729811 47.5 4.0 -0.866025403784 -0.5 0 0.872664625997 -75 42.5 42.5 0.2
165 1 1 0 46.1697777844 46.7860619516 4.0 -0.766044443119 -0.642787609687 0 0.872664625997 -75 42.5 42.5 0.2
166 1 1 0 46.7860619516 46.1697777844 4.0 -0.642787609687 -0.766044443119 0 0.872664625997 -75 42.5 42.5 0.2
167 1 1 0 47.5 45.6698729811 4.0 -0.5 -0.866025403784 0 0.872664625997 -75 42.5 42.5 0.2
168 1 1 0 48.2898992834 45.3015368961 4.0 -0.342020143326 -0.939692620786 0 0.872664625997 -75 42.5 42.5 0.2
169 1 1 0 49.1317591117 45.0759612349 4.0 -0.173648177667 -0.984807753012 0 0.872664625997 -75 42.5 42.5 0.2
170 1 1 0 50.0 45.0 4.0 -1.07187543957e-15 -1.0 0 0.872664625997 -75 42.5 42.5 0.2
171 1 1 0 50.8682408883 45.0759612349 4.0 0.173648177667 -0.984807753012 0 0.872664625997 -75 42.5 42.5 0.2
172 1 1 0 51.7101007166 45.3015368961 4.0 0.342020143326 -0.939692620786 0 0.872664625997 -75 42.5 42.5 0.2
173 1 1 0 52.5 45.6698729811 4.0 0.5 -0.866025403784 0 0.872664625997 -75 42.5 42.5 0.2
174 1 1 0 53.2139380484 46.1697777844 4.0 0.642787609687 -0.766044443119 0 0.872664625997 -75 42.5 42.5 0.2
175 1 1 0 53.8302222156 46.7860619516 4.0 0.766044443119 -0.642787609687 0 0.872664625997 -75 42.5 42.5 0.2
176 1 1 0 54.3301270189 47.5 4.0 0.866025403784 -0.5 0 0.872664625997 -75 42.5 42.5 0.2
177 1 1 0 54.6984631039 48.2898992834 4.0 0.939692620786 -0.342020143326 0 0.872664625997 -75 42.5 42.5 0.2
178 1 1 0 54.9240387651 49.1317591117 4.0 0.984807753012 -0.173648177667 0 0.872664625997 -75 42.5 42.5 0.2
179 1 1 0 55.0 50.0 4.0 1.0 -1.13310777953e-15 0 0.872664625997 -75 42.5 42.5 0.2
180 1 1 0 54.9240387651 50.8682408883 4.0 0.984807753012 0.173648177667 0 0.872664625997 -75 42.5 42.5 0.2
181 1 1 0 54.5315389352 52.1130913087 5.0 0.906307787037 0.422618261741 0 0.872664625997 -75 42.5 42.5 0.2
182 1 1 0 54.0957602214 52.8678821818 5.0 0.819152044289 0.573576436351 0 0.872664625997 -75 42.5 42.5 0.2
183 1 1 0 53.5355339059 53.5355339059 5.0 0.707106781187 0.707106781187 0 0.872664625997 -75 42.5 42.5 0.2
184 1 1 0 52.8678821818 54.0957602214 5.0 0.573576436351 0.819152044289 0 0.872664625997 -75 42.5 42.5 0.2
185 1 1 0 52.1130913087 54.5315389352 5.0 0.422618261741 0.906307787037 0 0.872664625997 -75 42.5 42.5 0.2
186 1 1 0 51.2940952255 54.8296291314 5.0 0.258819045103 0.965925826289 0 0.872664625997 -75 42.5 42.5 0.2
187 1 1 0 50.4357787137 54.9809734905 5.0 0.0871557427477 0.996194698092 0 0.872664625997 -75 42.5 42.5 0.2
188 1 1 0 49.5642212863 54.9809734905 5.0 -0.0871557427477 0.996194698092 0 0.872664625997 -75 42.5 42.5 0.2
189 1 1 0 48.7059047745 54.8296291314 5.0 -0.258819045103 0.965925826289 0 0.872664625997 -75 42.5 42.5 0.2
190 1 1 0 47.8869086913 54.5315389352 5.0 -0.422618261741 0.906307787037 0 0.872664625997 -75 42.5 42.5 0.2
191 1 1 0 47.1321178182 54.0957602214 5.0 -0.573576436351 0.819152044289 0 0.872664625997 -75 42.5 42.5 0.2
192 1 1 0 46.4644660941 53.5355339059 5.0 -0.707106781187 0.707106781187 0 0.872664625997 -75 42.5 42.5 0.2
193 1 1 0 45.9042397786 52.8678821818 5.0 -0.819152044289 0.573576436351 0 0.872664625997 -75 42.5 42.5 0.2
194 1 1 0 45.4684610648 52.1130913087 5.0 -0.906307787037 0.422618261741 0 0.872664625997 -75 42.5 42.5 0.2
195 1 1 0 45.1703708686 51.2940952255 5.0 -0.965925826289 0.258819045103 0 0.872664625997 -75 42.5 42.5 0.2
196 1 1 0 45.0190265095 50.4357787137 5.0 -0.996194698092 0.0871557427477 0 0.872664625997 -75 42.5 42.5 0.2
197 1 1 0 45.0190265095 49.5642212863 5.0 -0.996194698092 -0.0871557427477 0 0.872664625997 -75 42.5 42.5 0.2
198 1 1 0 45.1703708686 48.7059047745 5.0 -0.965925826289 -0.258819045103 0 0.872664625997 -75 42.5 42.5 0.2
199 1 1 0 45.4684610648 47.8869086913 5.0 -0.906307787037 -0.422618261741 0 0.872664625997 -75 42.5 42.5 0.2
200 1 1 0 45.9042397786 47.1321178182 5.0 -0.819152044289 -0.573576436351 0 0.872664625997 -75 42.5 42.5 0.2
201 1 1 0 46.4644660941 46.4644660941 5.0 -0.707106781187 -0.707106781187 0 0.872664625997 -75 42.5 42.5 0.2
202 1 1 0 47.1321178182 45.9042397786 5.0 -0.573576436351 -0.819152044289 0 0.872664625997 -75 42.5 42.5 0.2
203 1 1 0 47.8869086913 45.4684610648 5.0 -0.422618261741 -0.906307787037 0 0.872664625997 -75 42.5 42.5 0.2
204 1 1 0 48.7059047745 45.1703708686 5.0 -0.258819045103 -0.965925826289 0 0.872664625997 -75 42.5 42.5 0.2
205 1 1 0 49.5642212863 45.0190265095 5.0 -0.0871557427477 -0.996194698092 0 0.872664625997 -75 42.5 42.5 0.2
206 1 1 0 50.4357787137 45.0190265095 5.0 0.0871557427477 -0.996194698092 0 0.872664625997 -75 42.5 42.5 0.2
207 1 1 0 51.2940952255 45.1703708686 5.0 0.258819045103 -0.965925826289 0 0.872664625997 -75 42.5 42.5 0.2
208 1 1 0 52.1130913087 45.4684610648 5.0 0.422618261741 -0.906307787037 0 0.872664625997 -75 42.5 42.5 0.2
209 1 1 0 52.8678821818 45.9042397786 5.0 0.573576436351 -0.819152044289 0 0.872664625997 -75 42.5 42.5 0.2
210 1 1 0 53.5355339059 46.4644660941 5.0 0.707106781187 -0.707106781187 0 0.872664625997 -75 42.5 42.5 0.2
211 1 1 0 54.0957602214 47.1321178182 5.0 0.819152044289 -0.573576436351 0 0.872664625997 -75 42.5 42.5 0.2
212 1 1 0 54.5315389352 47.8869086913 5.0 0.906307787037 -0.422618261741 0 0.872664625997 -75 42.5 42.5 0.2
213 1 1 0 54.8296291314 48.7059047745 5.0 0.965925826289 -0.258819045103 0 0.872664625997 -75 42.5 42.5 0.2
214 1 1 0 54.9809734905 49.5642212863 5.0 0.996194698092 -0.0871557427477 0 0.872664625997 -75 42.5 42.5 0.2
215 1 1 0 54.9809734905 50.4357787137 5.0 0.996194698092 0.0871557427477 0 0.872664625997 -75 42.5 42.5 0.2
216 1 1 0 54.8296291314 51.2940952255 5.0 0.965925826289 0.258819045103 0 0.872664625997 -75 42.5 42.5 0.2
217 1 1 0 54.3301270189 52.5 6.0 0.866025403784 0.5 0 0.872664625997 -75 42.5 42.5 0.2
218 1 1 0 53.8302222156 53.2139380484 6.0 0.766044443119 0.642787609687 0 0.872664625997 -75 42.5 42.5 0.2
219 1 1 0 53.2139380484 53.8302222156 6.0 0.642787609687 0.766044443119 0 0.872664625997 -75 42.5 42.5 0.2
220 1 1 0 52.5 54.3301270189 6.0 0.5 0.866025403784 0 0.872664625997 -75 42.5 42.5 0.2
221 1 1 0 51.7101007166 54.6984631039 6.0 0.342020143326 0.939692620786 0 0.872664625997 -75 42.5 42.5 0.2
222 1 1 0 50.8682408883 54.9240387651 6.0 0.173648177667 0.984807753012 0 0.872664625997 -75 42.5 42.5 0.2
223 1 1 0 50.0 55.0 6.0 6.12323399574e-17 1.0 0 0.872664625997 -75 42.5 42.5 0.2
224 1 1 0 49.1317591117 54.9240387651 6.0 -0.173648177667 0.984807753012 0 0.872664625997 -75 42.5 42.5 0.2
225 1 1 0 48.2898992834 54.6984631039 6.0 -0.342020143326 0.939692620786 0 0.872664625997 -75 42.5 42.5 0.2
226 1 1 0 47.5 54.3301270189 6.0 -0.5 0.866025403784 0 0.872664625997 -75 42.5 42.5 0.2
227 1 1 0 46.7860619516 53.8302222156 6.0 -0.642787609687 0.766044443119 0 0.872664625997 -75 42.5 42.5 0.2
228 1 1 0 46.1697777844 53.2139380484 6.0 -0.766044443119 0.642787609687 0 0.872664625997 -75 42.5 42.5 0.2
229 1 1 0 45.6698729811 52.5 6.0 -0.866025403784 0.5 0 0.872664625997 -75 42.5 42.5 0.2
230 1 1 0 45.3015368961 51.7101007166 6.0 -0.939692620786 0.342020143326 0 0.872664625997 -75 42.5 42.5 0.2
231 1 1 0 45.0759612349 50.8682408883 6.0 -0.984807753012 0.173648177667 0 0.872664625997 -75 42.5 42.5 0.2
232 1 1 0 45.0 50.0 6.0 -1.0 1.22464679915e-16 0 0.872664625997 -75 42.5 42.5 0.2
233 1 1 0 45.0759612349 49.1317591117 6.0 -0.984807753012 -0.173648177667 0 0.872664625997 -75 42.5 42.5 0.2
234 1 1 0 45.3015368961 48.2898992834 6.0 -0.939692620786 -0.342020143326 0 0.872664625997 -75 42.5 42.5 0.2
235 1 1 0 45.6698729811 47.5 6.0 -0.866025403784 -0.5 0 0.872664625997 -75 42.5 42.5 0.2
236 1 1 0 46.1697777844 46.7860619516 6.0 -0.766044443119 -0.642787609687 0 0.872664625997 -75 42.5 42.5 0.2
237 1 1 0 46.7860619516 46.1697777844 6.0 -0.642787609687 -0.766044443119 0 0.872664625997 -75 42.5 42.5 0.2
238 1 1 0 47.5 45.6698729811 6.0 -0.5 -0.866025403784 0 0.872664625997 -75 42.5 42.5 0.2
239 1 1 0 48.2898992834 45.3015368961 6.0 -0.342020143326 -0.939692620786 0 0.872664625997 -75 42.5 42.5 0.2
240 1 1 0 49.1317591117 45.0759612349 6.0 -0.173648177667 -0.984807753012 0 0.872664625997 -75 42.5 42.5 0.2
241 1 1 0 50.0 45.0 6.0 -1.83697019872e-16 -1.0 0 0.872664625997 -75 42.5 42.5 0.2
242 1 1 0 50.8682408883 45.0759612349 6.0 0.173648177667 -0.984807753012 0 0.872664625997 -75 42.5 42.5 0.2
243 1 1 0 51.7101007166 45.3015368961 6.0 0.342020143326 -0.939692620786 0 0.872664625997 -75 42.5 42.5 0.2
244 1 1 0 52.5 45.6698729811 6.0 0.5 -0.866025403784 0 0.872664625997 -75 42.5 42.5 0.2
245 1 1 0 53.2139380484 46.1697777844 6.0 0.642787609687 -0.766044443119 0 0.872664625997 -75 42.5 42.5 0.2
246 1 1 0 53.8302222156 46.7860619516 6.0 0.766044443119 -0.642787609687 0 0.872664625997 -75 42.5 42.5 0.2
247 1 1 0 54.3301270189 47.5 6.0 0.866025403784 -0.5 0 0.872664625997 -75 42.5 42.5 0.2
248 1 1 0 54.6984631039 48.2898992834 6.0 0.939692620786 -0.342020143326 0 0.872664625997 -75 42.5 42.5 0.2
249 1 1 0 54.9240387651 49.1317591117 6.0 0.984807753012 -0.173648177667 0 0.872664625997 -75 42.5 42.5 0.2
250 1 1 0 55.0 50.0 6.0 1.0 -2.44929359829e-16 0 0.872664625997 -75 42.5 42.5 0.2
251 1 1 0 54.9240387651 50.8682408883 6.0 0.984807753012 0.173648177667 0 0.872664625997 -75 42.5 42.5 0.2
252 1 1 0 54.6984631039 51.7101007166 6.0 0.939692620786 0.342020143326 0 0.872664625997 -75 42.5 42.5 0.2
253 1 1 0 54.0957602214 52.8678821818 7.0 0.819152044289 0.573576436351 0 0.872664625997 -75 42.5 42.5 0.2
254 1 1 0 53.5355339059 53.5355339059 7.0 0.707106781187 0.707106781187 0 0.872664625997 -75 42.5 42.5 0.2
255 1 1 0 52.8678821818 54.0957602214 7.0 0.573576436351 0.819152044289 0 0.872664625997 -75 42.5 42.5 0.2
256 1 1 0 52.1130913087 54.5315389352 7.0 0.422618261741 0.906307787037 0 0.872664625997 -75 42.5 42.5 0.2
257 1 1 0 51.2940952255 54.8296291314 7.0 0.258819045103 0.965925826289 0 0.872664625997 -75 42.5 42.5 0.2
258 1 1 0 50.4357787137 54.9809734905 7.0 0.0871557427477 0.996194698092 0 0.872664625997 -75 42.5 42.5 0.2
259 1 1 0 49.5642212863 54.9809734905 7.0 -0.0871557427477 0.996194698092 0 0.872664625997 -75 42.5 42.5 0.2
260 1 1 0 48.7059047745 54.8296291314 7.0 -0.258819045103 0.965925826289 0 0.872664625997 -75 42.5 42.5 0.2
261 1 1 0 47.8869086913 54.5315389352 7.0 -0.422618261741 0.906307787037 0 0.872664625997 -75 42.5 42.5 0.2
262 1 1 0 47.1321178182 54.0957602214 7.0 -0.573576436351 0.819152044289 0 0.872664625997 -75 42.5 42.5 0.2
263 1 1 0 46.4644660941 53.5355339059 7.0 -0.707106781187 0.707106781187 0 0.872664625997 -75 42.5 42.5 0.2
264 1 1 0 45.9042397786 52.8678821818 7.0 -0.819152044289 0.573576436351 0 0.872664625997 -75 42.5 42.5 0.2
265 1 1 0 45.4684610648 52.1130913087 7.0 -0.906307787037 0.422618261741 0 0.872664625997 -75 42.5 42.5 0.2
266 1 1 0 45.1703708686 51.2940952255 7.0 -0.965925826289 0.258819045103 0 0.872664625997 -75 42.5 42.5 0.2
267 1 1 0 45.0190265095 50.4357787137 7.0 -0.996194698092 0.0871557427477 0 0.872664625997 -75 42.5 42.5 0.2
268 1 1 0 45.0190265095 49.5642212863 7.0 -0.996194698092 -0.0871557427477 0 0.872664625997 -75 42.5 42.5 0.2
269 1 1 0 45.1703708686 48.7059047745 7.0 -0.965925826289 -0.258819045103 0 0.872664625997 -75 42.5 42.5 0.2
270 1 1 0 45.4684610648 47.8869086913 7.0 -0.906307787037 -0.422618261741 0 0.872664625997 -75 42.5 42.5 0.2
271 1 1 0 45.9042397786 47.1321178182 7.0 -0.819152044289 -0.573576436351 0 0.872664625997 -75 42.5 42.5 0.2
272 1 1 0 46.4644660941 46.4644660941 7.0 -0.707106781187 -0.707106781187 0 0.872664625997 -75 42.5 42.5 0.2
273 1 1 0 47.1321178182 45.9042397786 7.0 -0.573576436351 -0.819152044289 0 0.872664625997 -75 42.5 42.5 0.2
274 1 1 0 47.8869086913 45.4684610648 7.0 -0.422618261741 -0.906307787037 0 0.872664625997 -75 42.5 42.5 0.2
275 1 1 0 48.7059047745 45.1703708686 7.0 -0.258819045103 -0.965925826289 0 0.872664625997 -75 42.5 42.5 0.2
276 1 1 0 49.5642212863 45.0190265095 7.0 -0.0871557427477 -0.996194698092 0 0.872664625997 -75 42.5 42.5 0.2
277 1 1 0 50.4357787137 45.0190265095 7.0 0.0871557427477 -0.996194698092 0 0.872664625997 -75 42.5 42.5 0.2
278 1 1 0 51.2940952255 45.1703708686 7.0 0.258819045103 -0.965925826289 0 0.872664625997 -75 42.5 42.5 0.2
279 1 1 0 52.1130913087 45.4684610648 7.0 0.422618261741 -0.906307787037 0 0.872664625997 -75 42.5 42.5 0.2
280 1 1 0 52.8678821818 45.9042397786 7.0 0.573576436351 -0.819152044289 0 0.872664625997 -75 42.5 42.5 0.2
281 1 1 0 53.5355339059 46.4644660941 7.0 0.707106781187 -0.707106781187 0 0.872664625997 -75 42.5 42.5 0.2
282 1 1 0 54.0957602214 47.1321178182 7.0 0.819152044289 -0.573576436351 0 0.872664625997 -75 42.5 42.5 0.2
283 1 1 0 54.5315389352 47.8869086913 7.0 0.906307787037 -0.422618261741 0 0.872664625997 -75 42.5 42.5 0.2
284 1 1 0 54.8296291314 48.7059047745 7.0 0.965925826289 -0.258819045103 0 0.872664625997 -75 42.5 42.5 0.2