LAMMPS data file via write_data, version 22 Nov 2016, timestep = 0

32 atoms
3 atom types

0.0000000000000000e+00 5.0000007843669128e+00 xlo xhi
0.0000000000000000e+00 5.1961532151380023e+00 ylo yhi
0.0000000000000000e+00 1.0000000000000000e+01 zlo zhi

Masses

1 1
2 1
3 1

Atoms # dielectric: id mol type q x y z normx normy normz area_per_patch ed em epsilon curvature

1 1 1 0 0 0 5 0 0 1 1 8 6 1 0
2 1 1 0 0.5 0.866026 5 0 0 1 1 8 6 1 0
3 1 1 0 1 0 5 0 0 1 1 8 6 1 0
4 1 1 0 1.5 0.866026 5 0 0 1 1 8 6 1 0
5 1 1 0 2 0 5 0 0 1 1 8 6 1 0
6 1 1 0 2.5 0.866026 5 0 0 1 1 8 6 1 0
7 1 1 0 3 0 5 0 0 1 1 8 6 1 0
8 1 1 0 3.5 0.866026 5 0 0 1 1 8 6 1 0
9 1 1 0 4 0 5 0 0 1 1 8 6 1 0
10 1 1 0 4.5 0.866026 5 0 0 1 1 8 6 1 0
11 1 1 0 0 1.73205 5 0 0 1 1 8 6 1 0
12 1 1 0 0.5 2.59808 5 0 0 1 1 8 6 1 0
13 1 1 0 1 1.73205 5 0 0 1 1 8 6 1 0
14 1 1 0 1.5 2.59808 5 0 0 1 1 8 6 1 0
15 1 1 0 2 1.73205 5 0 0 1 1 8 6 1 0
16 1 1 0 2.5 2.59808 5 0 0 1 1 8 6 1 0
17 1 1 0 3 1.73205 5 0 0 1 1 8 6 1 0
18 1 1 0 3.5 2.59808 5 0 0 1 1 8 6 1 0
19 1 1 0 4 1.73205 5 0 0 1 1 8 6 1 0
20 1 1 0 4.5 2.59808 5 0 0 1 1 8 6 1 0
21 1 1 0 0 3.4641 5 0 0 1 1 8 6 1 0
22 1 1 0 0.5 4.33013 5 0 0 1 1 8 6 1 0
23 1 1 0 1 3.4641 5 0 0 1 1 8 6 1 0
24 1 1 0 1.5 4.33013 5 0 0 1 1 8 6 1 0
25 1 1 0 2 3.4641 5 0 0 1 1 8 6 1 0
26 1 1 0 2.5 4.33013 5 0 0 1 1 8 6 1 0
27 1 1 0 3 3.4641 5 0 0 1 1 8 6 1 0
28 1 1 0 3.5 4.33013 5 0 0 1 1 8 6 1 0
29 1 1 0 4 3.4641 5 0 0 1 1 8 6 1 0
30 1 1 0 4.5 4.33013 5 0 0 1 1 8 6 1 0
31 2 2 1 1 1 7 0 0 1 1 8 6 10 0
32 2 3 -1 3 3 7 0 0 1 1 8 6 10 0

