LAMMPS data file: 2563 atoms for a single point charge near a dielectric sphere, 2564 for two opposite charges

2563 atoms
3 atom types

0.000000 100.000000 xlo xhi
0.000000 100.000000 ylo yhi
0.000000 100.000000 zlo zhi


Masses

1 1
2 1
3 1

Atoms # dielectric: id mol type q x y z normx normy normz area_per_patch ed em epsilon curvature

1 1 1 0 50 55.2573 41.4935 0 0.525731 -0.850651 0.490491 45 57.5 57.5 0
2 1 1 0 50.4064 55.7206 41.8079 0.0406403 0.572055 -0.819208 0.490491 45 57.5 57.5 0
3 1 1 0 49.5936 55.7206 41.8079 -0.0406403 0.572055 -0.819208 0.490491 45 57.5 57.5 0
4 1 1 0 50.8109 56.1564 42.1616 0.081086 0.615642 -0.783843 0.490491 45 57.5 57.5 0
5 1 1 0 50 56.1768 42.1357 0 0.617676 -0.786433 0.490491 45 57.5 57.5 0
6 1 1 0 49.1891 56.1564 42.1616 -0.081086 0.615642 -0.783843 0.490491 45 57.5 57.5 0
7 1 1 0 51.2114 56.5628 42.5527 0.121144 0.656282 -0.744727 0.490491 45 57.5 57.5 0
8 1 1 0 50.4064 56.6088 42.5061 0.0406418 0.660883 -0.749387 0.490491 45 57.5 57.5 0
9 1 1 0 51.6062 56.9378 42.9795 0.160622 0.69378 -0.702047 0.490491 45 57.5 57.5 0
10 1 1 0 50.8057 57.0062 42.9103 0.0805729 0.700622 -0.708969 0.490491 45 57.5 57.5 0
11 1 1 0 50 57.0291 42.8872 0 0.702907 -0.711282 0.490491 45 57.5 57.5 0
12 1 1 0 49.5936 56.6088 42.5061 -0.0406418 0.660883 -0.749387 0.490491 45 57.5 57.5 0
13 1 1 0 48.7886 56.5628 42.5527 -0.121144 0.656282 -0.744727 0.490491 45 57.5 57.5 0
14 1 1 0 49.1943 57.0062 42.9103 -0.0805729 0.700622 -0.708969 0.490491 45 57.5 57.5 0
15 1 1 0 48.3938 56.9378 42.9795 -0.160622 0.69378 -0.702047 0.490491 45 57.5 57.5 0
16 1 1 0 51.9933 57.2796 43.4399 0.199331 0.727959 -0.656006 0.490491 45 57.5 57.5 0
17 1 1 0 51.2119 57.3889 43.3716 0.121192 0.738887 -0.662842 0.490491 45 57.5 57.5 0
18 1 1 0 52.3709 57.5865 43.9317 0.237086 0.758652 -0.606825 0.490491 45 57.5 57.5 0
19 1 1 0 51.5961 57.7184 43.8454 0.159613 0.771841 -0.615456 0.490491 45 57.5 57.5 0
20 1 1 0 50.8114 57.802 43.7976 0.0811417 0.780205 -0.620239 0.490491 45 57.5 57.5 0
21 1 1 0 52.7371 57.8572 44.4526 0.273706 0.785715 -0.55474 0.490491 45 57.5 57.5 0
22 1 1 0 51.9727 58.015 44.3549 0.197274 0.801504 -0.564513 0.490491 45 57.5 57.5 0
23 1 1 0 53.0902 58.0902 45 0.309017 0.809017 -0.5 0.490491 45 57.5 57.5 0
24 1 1 0 52.3345 58.2715 44.888 0.233445 0.827147 -0.511205 0.490491 45 57.5 57.5 0
25 1 1 0 51.5643 58.4018 44.8074 0.156434 0.840178 -0.519259 0.490491 45 57.5 57.5 0
26 1 1 0 51.1908 58.1217 44.2886 0.119078 0.81217 -0.57114 0.490491 45 57.5 57.5 0
27 1 1 0 50.4067 58.1752 44.2554 0.040675 0.817523 -0.574458 0.490491 45 57.5 57.5 0
28 1 1 0 50.7846 58.4803 44.7589 0.0784592 0.848029 -0.52411 0.490491 45 57.5 57.5 0
29 1 1 0 50 58.5065 44.7427 0 0.850651 -0.525731 0.490491 45 57.5 57.5 0
30 1 1 0 48.7881 57.3889 43.3716 -0.121192 0.738887 -0.662842 0.490491 45 57.5 57.5 0
31 1 1 0 48.0067 57.2796 43.4399 -0.199331 0.727959 -0.656006 0.490491 45 57.5 57.5 0
32 1 1 0 49.1886 57.802 43.7976 -0.0811417 0.780205 -0.620239 0.490491 45 57.5 57.5 0
33 1 1 0 48.4039 57.7184 43.8454 -0.159613 0.771841 -0.615456 0.490491 45 57.5 57.5 0
34 1 1 0 47.6291 57.5865 43.9317 -0.237086 0.758652 -0.606825 0.490491 45 57.5 57.5 0
35 1 1 0 49.5933 58.1752 44.2554 -0.040675 0.817523 -0.574458 0.490491 45 57.5 57.5 0
36 1 1 0 48.8092 58.1217 44.2886 -0.119078 0.81217 -0.57114 0.490491 45 57.5 57.5 0
37 1 1 0 49.2154 58.4803 44.7589 -0.0784592 0.848029 -0.52411 0.490491 45 57.5 57.5 0
38 1 1 0 48.4357 58.4018 44.8074 -0.156434 0.840178 -0.519259 0.490491 45 57.5 57.5 0
39 1 1 0 48.0273 58.015 44.3549 -0.197274 0.801504 -0.564513 0.490491 45 57.5 57.5 0
40 1 1 0 47.2629 57.8572 44.4526 -0.273706 0.785715 -0.55474 0.490491 45 57.5 57.5 0
41 1 1 0 47.6655 58.2715 44.888 -0.233445 0.827147 -0.511205 0.490491 45 57.5 57.5 0
42 1 1 0 46.9098 58.0902 45 -0.309017 0.809017 -0.5 0.490491 45 57.5 57.5 0
43 1 1 0 50.4068 57.435 43.325 0.0406769 0.743496 -0.667502 0.490491 45 57.5 57.5 0
44 1 1 0 50 57.8279 43.7771 0 0.782786 -0.622291 0.490491 45 57.5 57.5 0
45 1 1 0 49.5932 57.435 43.325 -0.0406769 0.743496 -0.667502 0.490491 45 57.5 57.5 0
46 1 1 0 53.4285 58.2845 45.5713 0.342848 0.828447 -0.442867 0.490491 45 57.5 57.5 0
47 1 1 0 52.7469 58.5264 45.5554 0.274694 0.85264 -0.444464 0.490491 45 57.5 57.5 0
48 1 1 0 53.7504 58.4391 46.1639 0.375038 0.843912 -0.383614 0.490491 45 57.5 57.5 0
49 1 1 0 53.0766 58.6973 46.1409 0.307659 0.869725 -0.385906 0.490491 45 57.5 57.5 0
50 1 1 0 52.3868 58.9101 46.1381 0.238677 0.891007 -0.386187 0.490491 45 57.5 57.5 0
51 1 1 0 54.0543 58.5534 46.7748 0.405434 0.855337 -0.322525 0.490491 45 57.5 57.5 0
52 1 1 0 53.3921 58.8284 46.7514 0.339209 0.882837 -0.324863 0.490491 45 57.5 57.5 0
53 1 1 0 54.3389 58.6267 47.4011 0.433888 0.862669 -0.259892 0.490491 45 57.5 57.5 0
54 1 1 0 53.6852 58.9174 47.3734 0.368518 0.891742 -0.262661 0.490491 45 57.5 57.5 0
55 1 1 0 53.0126 59.1624 47.3592 0.301258 0.916244 -0.264082 0.490491 45 57.5 57.5 0
56 1 1 0 52.7063 59.0583 46.7407 0.270627 0.905832 -0.325929 0.490491 45 57.5 57.5 0
57 1 1 0 52.0119 59.2388 46.7447 0.201189 0.92388 -0.32553 0.490491 45 57.5 57.5 0
58 1 1 0 52.3245 59.3605 47.3585 0.232455 0.93605 -0.264151 0.490491 45 57.5 57.5 0
59 1 1 0 51.6246 59.5106 47.3713 0.16246 0.951057 -0.262865 0.490491 45 57.5 57.5 0
60 1 1 0 54.6027 58.6587 48.0398 0.460266 0.865871 -0.196015 0.490491 45 57.5 57.5 0
61 1 1 0 53.9735 58.964 48.0359 0.39735 0.896401 -0.196412 0.490491 45 57.5 57.5 0
62 1 1 0 54.8444 58.6493 48.688 0.484441 0.864929 -0.1312 0.490491 45 57.5 57.5 0
63 1 1 0 54.2236 58.968 48.6825 0.422363 0.896801 -0.131749 0.490491 45 57.5 57.5 0
64 1 1 0 53.5823 59.243 48.6834 0.358229 0.924305 -0.131656 0.490491 45 57.5 57.5 0
65 1 1 0 55.063 58.5985 49.3424 0.506298 0.859848 -0.0657577 0.490491 45 57.5 57.5 0
66 1 1 0 54.4537 58.9293 49.3418 0.445365 0.892927 -0.0658169 0.490491 45 57.5 57.5 0
67 1 1 0 55.2573 58.5065 50 0.525731 0.850651 0 0.490491 45 57.5 57.5 0
68 1 1 0 54.6566 58.8497 50 0.465657 0.884965 0 0.490491 45 57.5 57.5 0
69 1 1 0 54.0336 59.1504 50 0.403355 0.915043 0 0.490491 45 57.5 57.5 0
70 1 1 0 53.8172 59.2192 49.3401 0.381722 0.921919 -0.0659886 0.490491 45 57.5 57.5 0
71 1 1 0 53.1678 59.462 49.3396 0.316778 0.946198 -0.0660427 0.490491 45 57.5 57.5 0
72 1 1 0 53.3912 59.4074 50 0.339122 0.940742 0 0.490491 45 57.5 57.5 0
73 1 1 0 52.7327 59.6194 50 0.273267 0.961938 0 0.490491 45 57.5 57.5 0
74 1 1 0 51.9178 59.6119 48.0166 0.19178 0.961188 -0.198337 0.490491 45 57.5 57.5 0
75 1 1 0 51.2273 59.7237 48.0142 0.122729 0.97237 -0.198581 0.490491 45 57.5 57.5 0
76 1 1 0 52.2012 59.6639 48.6721 0.220117 0.966393 -0.132792 0.490491 45 57.5 57.5 0
77 1 1 0 51.5155 59.7943 48.6674 0.151549 0.979426 -0.133256 0.490491 45 57.5 57.5 0
78 1 1 0 50.8224 59.8769 48.6693 0.0822422 0.987688 -0.133071 0.490491 45 57.5 57.5 0
79 1 1 0 52.4733 59.6664 49.3343 0.247326 0.966643 -0.0665668 0.490491 45 57.5 57.5 0
80 1 1 0 51.796 59.8148 49.334 0.179596 0.981483 -0.0666046 0.490491 45 57.5 57.5 0
81 1 1 0 52.061 59.7853 50 0.206103 0.97853 0 0.490491 45 57.5 57.5 0
82 1 1 0 51.3795 59.9044 50 0.137952 0.990439 0 0.490491 45 57.5 57.5 0
83 1 1 0 51.1039 59.9165 49.3329 0.110385 0.991648 -0.0667095 0.490491 45 57.5 57.5 0
84 1 1 0 50.4125 59.9692 49.3326 0.0412479 0.996917 -0.0667412 0.490491 45 57.5 57.5 0
85 1 1 0 50.6914 59.9761 50 0.0691418 0.997607 0 0.490491 45 57.5 57.5 0
86 1 1 0 50 60 50 0 1 0 0.490491 45 57.5 57.5 0
87 1 1 0 53.3061 59.2268 48.0161 0.330606 0.922682 -0.198387 0.490491 45 57.5 57.5 0
88 1 1 0 52.8993 59.4782 48.6743 0.289929 0.947822 -0.13257 0.490491 45 57.5 57.5 0
89 1 1 0 52.6155 59.4443 48.0091 0.26155 0.944433 -0.199094 0.490491 45 57.5 57.5 0
90 1 1 0 47.2531 58.5264 45.5554 -0.274694 0.85264 -0.444464 0.490491 45 57.5 57.5 0
91 1 1 0 46.5715 58.2845 45.5713 -0.342848 0.828447 -0.442867 0.490491 45 57.5 57.5 0
92 1 1 0 47.6132 58.9101 46.1381 -0.238677 0.891007 -0.386187 0.490491 45 57.5 57.5 0
93 1 1 0 46.9234 58.6973 46.1409 -0.307659 0.869725 -0.385906 0.490491 45 57.5 57.5 0
94 1 1 0 46.2496 58.4391 46.1639 -0.375038 0.843912 -0.383614 0.490491 45 57.5 57.5 0
95 1 1 0 47.9881 59.2388 46.7447 -0.201189 0.92388 -0.32553 0.490491 45 57.5 57.5 0
96 1 1 0 47.2937 59.0583 46.7407 -0.270627 0.905832 -0.325929 0.490491 45 57.5 57.5 0
97 1 1 0 48.3754 59.5106 47.3713 -0.16246 0.951057 -0.262865 0.490491 45 57.5 57.5 0
98 1 1 0 47.6755 59.3605 47.3585 -0.232455 0.93605 -0.264151 0.490491 45 57.5 57.5 0
99 1 1 0 46.9874 59.1624 47.3592 -0.301258 0.916244 -0.264082 0.490491 45 57.5 57.5 0
100 1 1 0 46.6079 58.8284 46.7514 -0.339209 0.882837 -0.324863 0.490491 45 57.5 57.5 0
101 1 1 0 45.9457 58.5534 46.7748 -0.405434 0.855337 -0.322525 0.490491 45 57.5 57.5 0
102 1 1 0 46.3148 58.9174 47.3734 -0.368518 0.891742 -0.262661 0.490491 45 57.5 57.5 0
103 1 1 0 45.6611 58.6267 47.4011 -0.433888 0.862669 -0.259892 0.490491 45 57.5 57.5 0
104 1 1 0 48.7727 59.7237 48.0142 -0.122729 0.97237 -0.198581 0.490491 45 57.5 57.5 0
105 1 1 0 48.0822 59.6119 48.0166 -0.19178 0.961188 -0.198337 0.490491 45 57.5 57.5 0
106 1 1 0 49.1776 59.8769 48.6693 -0.0822422 0.987688 -0.133071 0.490491 45 57.5 57.5 0
107 1 1 0 48.4845 59.7943 48.6674 -0.151549 0.979426 -0.133256 0.490491 45 57.5 57.5 0
108 1 1 0 47.7988 59.6639 48.6721 -0.220117 0.966393 -0.132792 0.490491 45 57.5 57.5 0
109 1 1 0 49.5875 59.9692 49.3326 -0.0412479 0.996917 -0.0667412 0.490491 45 57.5 57.5 0
110 1 1 0 48.8961 59.9165 49.3329 -0.110385 0.991648 -0.0667095 0.490491 45 57.5 57.5 0
111 1 1 0 49.3086 59.9761 50 -0.0691418 0.997607 0 0.490491 45 57.5 57.5 0
112 1 1 0 48.6205 59.9044 50 -0.137952 0.990439 0 0.490491 45 57.5 57.5 0
113 1 1 0 48.204 59.8148 49.334 -0.179596 0.981483 -0.0666046 0.490491 45 57.5 57.5 0
114 1 1 0 47.5267 59.6664 49.3343 -0.247326 0.966643 -0.0665668 0.490491 45 57.5 57.5 0
115 1 1 0 47.939 59.7853 50 -0.206103 0.97853 0 0.490491 45 57.5 57.5 0
116 1 1 0 47.2673 59.6194 50 -0.273267 0.961938 0 0.490491 45 57.5 57.5 0
117 1 1 0 46.0265 58.964 48.0359 -0.39735 0.896401 -0.196412 0.490491 45 57.5 57.5 0
118 1 1 0 45.3973 58.6587 48.0398 -0.460266 0.865871 -0.196015 0.490491 45 57.5 57.5 0
119 1 1 0 46.4177 59.243 48.6834 -0.358229 0.924305 -0.131656 0.490491 45 57.5 57.5 0
120 1 1 0 45.7764 58.968 48.6825 -0.422363 0.896801 -0.131749 0.490491 45 57.5 57.5 0
121 1 1 0 45.1556 58.6493 48.688 -0.484441 0.864929 -0.1312 0.490491 45 57.5 57.5 0
122 1 1 0 46.8322 59.462 49.3396 -0.316778 0.946198 -0.0660427 0.490491 45 57.5 57.5 0
123 1 1 0 46.1828 59.2192 49.3401 -0.381722 0.921919 -0.0659886 0.490491 45 57.5 57.5 0
124 1 1 0 46.6088 59.4074 50 -0.339122 0.940742 0 0.490491 45 57.5 57.5 0
125 1 1 0 45.9664 59.1504 50 -0.403355 0.915043 0 0.490491 45 57.5 57.5 0
126 1 1 0 45.5463 58.9293 49.3418 -0.445365 0.892927 -0.0658169 0.490491 45 57.5 57.5 0
127 1 1 0 44.937 58.5985 49.3424 -0.506298 0.859848 -0.0657577 0.490491 45 57.5 57.5 0
128 1 1 0 45.3434 58.8497 50 -0.465657 0.884965 0 0.490491 45 57.5 57.5 0
129 1 1 0 44.7427 58.5065 50 -0.525731 0.850651 0 0.490491 45 57.5 57.5 0
130 1 1 0 47.3845 59.4443 48.0091 -0.26155 0.944433 -0.199094 0.490491 45 57.5 57.5 0
131 1 1 0 47.1007 59.4782 48.6743 -0.289929 0.947822 -0.13257 0.490491 45 57.5 57.5 0
132 1 1 0 46.6939 59.2268 48.0161 -0.330606 0.922682 -0.198387 0.490491 45 57.5 57.5 0
133 1 1 0 51.9823 58.6853 45.4574 0.198227 0.868535 -0.454262 0.490491 45 57.5 57.5 0
134 1 1 0 51.6101 59.0484 46.0586 0.161007 0.904839 -0.394136 0.490491 45 57.5 57.5 0
135 1 1 0 51.228 59.3513 46.6766 0.1228 0.93513 -0.332342 0.490491 45 57.5 57.5 0
136 1 1 0 50.8232 59.1298 46.0039 0.0823235 0.912983 -0.399607 0.490491 45 57.5 57.5 0
137 1 1 0 51.1976 58.7934 45.3912 0.119755 0.879344 -0.460882 0.490491 45 57.5 57.5 0
138 1 1 0 50.413 58.8476 45.3579 0.0412991 0.88476 -0.464213 0.490491 45 57.5 57.5 0
139 1 1 0 50.815 59.6065 47.3448 0.081501 0.960655 -0.265519 0.490491 45 57.5 57.5 0
140 1 1 0 50.4125 59.7885 47.9963 0.0412506 0.978852 -0.200368 0.490491 45 57.5 57.5 0
141 1 1 0 50 59.6386 47.336 0 0.963861 -0.266405 0.490491 45 57.5 57.5 0
142 1 1 0 50 59.9105 48.6648 0 0.991046 -0.133524 0.490491 45 57.5 57.5 0
143 1 1 0 49.5875 59.7885 47.9963 -0.0412506 0.978852 -0.200368 0.490491 45 57.5 57.5 0
144 1 1 0 49.185 59.6065 47.3448 -0.081501 0.960655 -0.265519 0.490491 45 57.5 57.5 0
145 1 1 0 49.587 58.8476 45.3579 -0.0412991 0.88476 -0.464213 0.490491 45 57.5 57.5 0
146 1 1 0 49.1768 59.1298 46.0039 -0.0823235 0.912983 -0.399607 0.490491 45 57.5 57.5 0
147 1 1 0 48.8024 58.7934 45.3912 -0.119755 0.879344 -0.460882 0.490491 45 57.5 57.5 0
148 1 1 0 48.772 59.3513 46.6766 -0.1228 0.93513 -0.332342 0.490491 45 57.5 57.5 0
149 1 1 0 48.3899 59.0484 46.0586 -0.161007 0.904839 -0.394136 0.490491 45 57.5 57.5 0
150 1 1 0 48.0177 58.6853 45.4574 -0.198227 0.868535 -0.454262 0.490491 45 57.5 57.5 0
151 1 1 0 50.413 59.4162 46.6586 0.0413021 0.941618 -0.33414 0.490491 45 57.5 57.5 0
152 1 1 0 49.587 59.4162 46.6586 -0.0413021 0.941618 -0.33414 0.490491 45 57.5 57.5 0
153 1 1 0 50 59.1609 45.9903 0 0.916092 -0.400968 0.490491 45 57.5 57.5 0
154 1 1 0 50 55.2573 58.5065 0 0.525731 0.850651 0.490491 45 57.5 57.5 0
155 1 1 0 49.5936 55.7206 58.1921 -0.0406403 0.572055 0.819208 0.490491 45 57.5 57.5 0
156 1 1 0 50.4064 55.7206 58.1921 0.0406403 0.572055 0.819208 0.490491 45 57.5 57.5 0
157 1 1 0 49.1891 56.1564 57.8384 -0.081086 0.615642 0.783843 0.490491 45 57.5 57.5 0
158 1 1 0 50 56.1768 57.8643 0 0.617676 0.786433 0.490491 45 57.5 57.5 0
159 1 1 0 50.8109 56.1564 57.8384 0.081086 0.615642 0.783843 0.490491 45 57.5 57.5 0
160 1 1 0 48.7886 56.5628 57.4473 -0.121144 0.656282 0.744727 0.490491 45 57.5 57.5 0
161 1 1 0 49.5936 56.6088 57.4939 -0.0406418 0.660883 0.749387 0.490491 45 57.5 57.5 0
162 1 1 0 48.3938 56.9378 57.0205 -0.160622 0.69378 0.702047 0.490491 45 57.5 57.5 0
163 1 1 0 49.1943 57.0062 57.0897 -0.0805729 0.700622 0.708969 0.490491 45 57.5 57.5 0
164 1 1 0 50 57.0291 57.1128 0 0.702907 0.711282 0.490491 45 57.5 57.5 0
165 1 1 0 50.4064 56.6088 57.4939 0.0406418 0.660883 0.749387 0.490491 45 57.5 57.5 0
166 1 1 0 51.2114 56.5628 57.4473 0.121144 0.656282 0.744727 0.490491 45 57.5 57.5 0
167 1 1 0 50.8057 57.0062 57.0897 0.0805729 0.700622 0.708969 0.490491 45 57.5 57.5 0
168 1 1 0 51.6062 56.9378 57.0205 0.160622 0.69378 0.702047 0.490491 45 57.5 57.5 0
169 1 1 0 48.0067 57.2796 56.5601 -0.199331 0.727959 0.656006 0.490491 45 57.5 57.5 0
170 1 1 0 48.7881 57.3889 56.6284 -0.121192 0.738887 0.662842 0.490491 45 57.5 57.5 0
171 1 1 0 47.6291 57.5865 56.0683 -0.237086 0.758652 0.606825 0.490491 45 57.5 57.5 0
172 1 1 0 48.4039 57.7184 56.1546 -0.159613 0.771841 0.615456 0.490491 45 57.5 57.5 0
173 1 1 0 49.1886 57.802 56.2024 -0.0811417 0.780205 0.620239 0.490491 45 57.5 57.5 0
174 1 1 0 47.2629 57.8572 55.5474 -0.273706 0.785715 0.55474 0.490491 45 57.5 57.5 0
175 1 1 0 48.0273 58.015 55.6451 -0.197274 0.801504 0.564513 0.490491 45 57.5 57.5 0
176 1 1 0 46.9098 58.0902 55 -0.309017 0.809017 0.5 0.490491 45 57.5 57.5 0
177 1 1 0 47.6655 58.2715 55.112 -0.233445 0.827147 0.511205 0.490491 45 57.5 57.5 0
178 1 1 0 48.4357 58.4018 55.1926 -0.156434 0.840178 0.519259 0.490491 45 57.5 57.5 0
179 1 1 0 48.8092 58.1217 55.7114 -0.119078 0.81217 0.57114 0.490491 45 57.5 57.5 0
180 1 1 0 49.5933 58.1752 55.7446 -0.040675 0.817523 0.574458 0.490491 45 57.5 57.5 0
181 1 1 0 49.2154 58.4803 55.2411 -0.0784592 0.848029 0.52411 0.490491 45 57.5 57.5 0
182 1 1 0 50 58.5065 55.2573 0 0.850651 0.525731 0.490491 45 57.5 57.5 0
183 1 1 0 51.2119 57.3889 56.6284 0.121192 0.738887 0.662842 0.490491 45 57.5 57.5 0
184 1 1 0 51.9933 57.2796 56.5601 0.199331 0.727959 0.656006 0.490491 45 57.5 57.5 0
185 1 1 0 50.8114 57.802 56.2024 0.0811417 0.780205 0.620239 0.490491 45 57.5 57.5 0
186 1 1 0 51.5961 57.7184 56.1546 0.159613 0.771841 0.615456 0.490491 45 57.5 57.5 0
187 1 1 0 52.3709 57.5865 56.0683 0.237086 0.758652 0.606825 0.490491 45 57.5 57.5 0
188 1 1 0 50.4067 58.1752 55.7446 0.040675 0.817523 0.574458 0.490491 45 57.5 57.5 0
189 1 1 0 51.1908 58.1217 55.7114 0.119078 0.81217 0.57114 0.490491 45 57.5 57.5 0
190 1 1 0 50.7846 58.4803 55.2411 0.0784592 0.848029 0.52411 0.490491 45 57.5 57.5 0
191 1 1 0 51.5643 58.4018 55.1926 0.156434 0.840178 0.519259 0.490491 45 57.5 57.5 0
192 1 1 0 51.9727 58.015 55.6451 0.197274 0.801504 0.564513 0.490491 45 57.5 57.5 0
193 1 1 0 52.7371 57.8572 55.5474 0.273706 0.785715 0.55474 0.490491 45 57.5 57.5 0
194 1 1 0 52.3345 58.2715 55.112 0.233445 0.827147 0.511205 0.490491 45 57.5 57.5 0
195 1 1 0 53.0902 58.0902 55 0.309017 0.809017 0.5 0.490491 45 57.5 57.5 0
196 1 1 0 49.5932 57.435 56.675 -0.0406769 0.743496 0.667502 0.490491 45 57.5 57.5 0
197 1 1 0 50 57.8279 56.2229 0 0.782786 0.622291 0.490491 45 57.5 57.5 0
198 1 1 0 50.4068 57.435 56.675 0.0406769 0.743496 0.667502 0.490491 45 57.5 57.5 0
199 1 1 0 46.5715 58.2845 54.4287 -0.342848 0.828447 0.442867 0.490491 45 57.5 57.5 0
200 1 1 0 47.2531 58.5264 54.4446 -0.274694 0.85264 0.444464 0.490491 45 57.5 57.5 0
201 1 1 0 46.2496 58.4391 53.8361 -0.375038 0.843912 0.383614 0.490491 45 57.5 57.5 0
202 1 1 0 46.9234 58.6973 53.8591 -0.307659 0.869725 0.385906 0.490491 45 57.5 57.5 0
203 1 1 0 47.6132 58.9101 53.8619 -0.238677 0.891007 0.386187 0.490491 45 57.5 57.5 0
204 1 1 0 45.9457 58.5534 53.2252 -0.405434 0.855337 0.322525 0.490491 45 57.5 57.5 0
205 1 1 0 46.6079 58.8284 53.2486 -0.339209 0.882837 0.324863 0.490491 45 57.5 57.5 0
206 1 1 0 45.6611 58.6267 52.5989 -0.433888 0.862669 0.259892 0.490491 45 57.5 57.5 0
207 1 1 0 46.3148 58.9174 52.6266 -0.368518 0.891742 0.262661 0.490491 45 57.5 57.5 0
208 1 1 0 46.9874 59.1624 52.6408 -0.301258 0.916244 0.264082 0.490491 45 57.5 57.5 0
209 1 1 0 47.2937 59.0583 53.2593 -0.270627 0.905832 0.325929 0.490491 45 57.5 57.5 0
210 1 1 0 47.9881 59.2388 53.2553 -0.201189 0.92388 0.32553 0.490491 45 57.5 57.5 0
211 1 1 0 47.6755 59.3605 52.6415 -0.232455 0.93605 0.264151 0.490491 45 57.5 57.5 0
212 1 1 0 48.3754 59.5106 52.6287 -0.16246 0.951057 0.262865 0.490491 45 57.5 57.5 0
213 1 1 0 45.3973 58.6587 51.9602 -0.460266 0.865871 0.196015 0.490491 45 57.5 57.5 0
214 1 1 0 46.0265 58.964 51.9641 -0.39735 0.896401 0.196412 0.490491 45 57.5 57.5 0
215 1 1 0 45.1556 58.6493 51.312 -0.484441 0.864929 0.1312 0.490491 45 57.5 57.5 0
216 1 1 0 45.7764 58.968 51.3175 -0.422363 0.896801 0.131749 0.490491 45 57.5 57.5 0
217 1 1 0 46.4177 59.243 51.3166 -0.358229 0.924305 0.131656 0.490491 45 57.5 57.5 0
218 1 1 0 44.937 58.5985 50.6576 -0.506298 0.859848 0.0657577 0.490491 45 57.5 57.5 0
219 1 1 0 45.5463 58.9293 50.6582 -0.445365 0.892927 0.0658169 0.490491 45 57.5 57.5 0
220 1 1 0 46.1828 59.2192 50.6599 -0.381722 0.921919 0.0659886 0.490491 45 57.5 57.5 0
221 1 1 0 46.8322 59.462 50.6604 -0.316778 0.946198 0.0660427 0.490491 45 57.5 57.5 0
222 1 1 0 48.0822 59.6119 51.9834 -0.19178 0.961188 0.198337 0.490491 45 57.5 57.5 0
223 1 1 0 48.7727 59.7237 51.9858 -0.122729 0.97237 0.198581 0.490491 45 57.5 57.5 0
224 1 1 0 47.7988 59.6639 51.3279 -0.220117 0.966393 0.132792 0.490491 45 57.5 57.5 0
225 1 1 0 48.4845 59.7943 51.3326 -0.151549 0.979426 0.133256 0.490491 45 57.5 57.5 0
226 1 1 0 49.1776 59.8769 51.3307 -0.0822422 0.987688 0.133071 0.490491 45 57.5 57.5 0
227 1 1 0 47.5267 59.6664 50.6657 -0.247326 0.966643 0.0665668 0.490491 45 57.5 57.5 0
228 1 1 0 48.204 59.8148 50.666 -0.179596 0.981483 0.0666046 0.490491 45 57.5 57.5 0
229 1 1 0 48.8961 59.9165 50.6671 -0.110385 0.991648 0.0667095 0.490491 45 57.5 57.5 0
230 1 1 0 49.5875 59.9692 50.6674 -0.0412479 0.996917 0.0667412 0.490491 45 57.5 57.5 0
231 1 1 0 46.6939 59.2268 51.9839 -0.330606 0.922682 0.198387 0.490491 45 57.5 57.5 0
232 1 1 0 47.1007 59.4782 51.3257 -0.289929 0.947822 0.13257 0.490491 45 57.5 57.5 0
233 1 1 0 47.3845 59.4443 51.9909 -0.26155 0.944433 0.199094 0.490491 45 57.5 57.5 0
234 1 1 0 52.7469 58.5264 54.4446 0.274694 0.85264 0.444464 0.490491 45 57.5 57.5 0
235 1 1 0 53.4285 58.2845 54.4287 0.342848 0.828447 0.442867 0.490491 45 57.5 57.5 0
236 1 1 0 52.3868 58.9101 53.8619 0.238677 0.891007 0.386187 0.490491 45 57.5 57.5 0
237 1 1 0 53.0766 58.6973 53.8591 0.307659 0.869725 0.385906 0.490491 45 57.5 57.5 0
238 1 1 0 53.7504 58.4391 53.8361 0.375038 0.843912 0.383614 0.490491 45 57.5 57.5 0
239 1 1 0 52.0119 59.2388 53.2553 0.201189 0.92388 0.32553 0.490491 45 57.5 57.5 0
240 1 1 0 52.7063 59.0583 53.2593 0.270627 0.905832 0.325929 0.490491 45 57.5 57.5 0
241 1 1 0 51.6246 59.5106 52.6287 0.16246 0.951057 0.262865 0.490491 45 57.5 57.5 0
242 1 1 0 52.3245 59.3605 52.6415 0.232455 0.93605 0.264151 0.490491 45 57.5 57.5 0
243 1 1 0 53.0126 59.1624 52.6408 0.301258 0.916244 0.264082 0.490491 45 57.5 57.5 0
244 1 1 0 53.3921 58.8284 53.2486 0.339209 0.882837 0.324863 0.490491 45 57.5 57.5 0
245 1 1 0 54.0543 58.5534 53.2252 0.405434 0.855337 0.322525 0.490491 45 57.5 57.5 0
246 1 1 0 53.6852 58.9174 52.6266 0.368518 0.891742 0.262661 0.490491 45 57.5 57.5 0
247 1 1 0 54.3389 58.6267 52.5989 0.433888 0.862669 0.259892 0.490491 45 57.5 57.5 0
248 1 1 0 51.2273 59.7237 51.9858 0.122729 0.97237 0.198581 0.490491 45 57.5 57.5 0
249 1 1 0 51.9178 59.6119 51.9834 0.19178 0.961188 0.198337 0.490491 45 57.5 57.5 0
250 1 1 0 50.8224 59.8769 51.3307 0.0822422 0.987688 0.133071 0.490491 45 57.5 57.5 0
251 1 1 0 51.5155 59.7943 51.3326 0.151549 0.979426 0.133256 0.490491 45 57.5 57.5 0
252 1 1 0 52.2012 59.6639 51.3279 0.220117 0.966393 0.132792 0.490491 45 57.5 57.5 0
253 1 1 0 50.4125 59.9692 50.6674 0.0412479 0.996917 0.0667412 0.490491 45 57.5 57.5 0
254 1 1 0 51.1039 59.9165 50.6671 0.110385 0.991648 0.0667095 0.490491 45 57.5 57.5 0
255 1 1 0 51.796 59.8148 50.666 0.179596 0.981483 0.0666046 0.490491 45 57.5 57.5 0
256 1 1 0 52.4733 59.6664 50.6657 0.247326 0.966643 0.0665668 0.490491 45 57.5 57.5 0
257 1 1 0 53.9735 58.964 51.9641 0.39735 0.896401 0.196412 0.490491 45 57.5 57.5 0
258 1 1 0 54.6027 58.6587 51.9602 0.460266 0.865871 0.196015 0.490491 45 57.5 57.5 0
259 1 1 0 53.5823 59.243 51.3166 0.358229 0.924305 0.131656 0.490491 45 57.5 57.5 0
260 1 1 0 54.2236 58.968 51.3175 0.422363 0.896801 0.131749 0.490491 45 57.5 57.5 0
261 1 1 0 54.8444 58.6493 51.312 0.484441 0.864929 0.1312 0.490491 45 57.5 57.5 0
262 1 1 0 53.1678 59.462 50.6604 0.316778 0.946198 0.0660427 0.490491 45 57.5 57.5 0
263 1 1 0 53.8172 59.2192 50.6599 0.381722 0.921919 0.0659886 0.490491 45 57.5 57.5 0
264 1 1 0 54.4537 58.9293 50.6582 0.445365 0.892927 0.0658169 0.490491 45 57.5 57.5 0
265 1 1 0 55.063 58.5985 50.6576 0.506298 0.859848 0.0657577 0.490491 45 57.5 57.5 0
266 1 1 0 52.6155 59.4443 51.9909 0.26155 0.944433 0.199094 0.490491 45 57.5 57.5 0
267 1 1 0 52.8993 59.4782 51.3257 0.289929 0.947822 0.13257 0.490491 45 57.5 57.5 0
268 1 1 0 53.3061 59.2268 51.9839 0.330606 0.922682 0.198387 0.490491 45 57.5 57.5 0
269 1 1 0 48.0177 58.6853 54.5426 -0.198227 0.868535 0.454262 0.490491 45 57.5 57.5 0
270 1 1 0 48.3899 59.0484 53.9414 -0.161007 0.904839 0.394136 0.490491 45 57.5 57.5 0
271 1 1 0 48.772 59.3513 53.3234 -0.1228 0.93513 0.332342 0.490491 45 57.5 57.5 0
272 1 1 0 49.1768 59.1298 53.9961 -0.0823235 0.912983 0.399607 0.490491 45 57.5 57.5 0
273 1 1 0 48.8024 58.7934 54.6088 -0.119755 0.879344 0.460882 0.490491 45 57.5 57.5 0
274 1 1 0 49.587 58.8476 54.6421 -0.0412991 0.88476 0.464213 0.490491 45 57.5 57.5 0
275 1 1 0 49.185 59.6065 52.6552 -0.081501 0.960655 0.265519 0.490491 45 57.5 57.5 0
276 1 1 0 49.5875 59.7885 52.0037 -0.0412506 0.978852 0.200368 0.490491 45 57.5 57.5 0
277 1 1 0 50 59.6386 52.664 0 0.963861 0.266405 0.490491 45 57.5 57.5 0
278 1 1 0 50 59.9105 51.3352 0 0.991046 0.133524 0.490491 45 57.5 57.5 0
279 1 1 0 50.4125 59.7885 52.0037 0.0412506 0.978852 0.200368 0.490491 45 57.5 57.5 0
280 1 1 0 50.815 59.6065 52.6552 0.081501 0.960655 0.265519 0.490491 45 57.5 57.5 0
281 1 1 0 50.413 58.8476 54.6421 0.0412991 0.88476 0.464213 0.490491 45 57.5 57.5 0
282 1 1 0 50.8232 59.1298 53.9961 0.0823235 0.912983 0.399607 0.490491 45 57.5 57.5 0
283 1 1 0 51.1976 58.7934 54.6088 0.119755 0.879344 0.460882 0.490491 45 57.5 57.5 0
284 1 1 0 51.228 59.3513 53.3234 0.1228 0.93513 0.332342 0.490491 45 57.5 57.5 0
285 1 1 0 51.6101 59.0484 53.9414 0.161007 0.904839 0.394136 0.490491 45 57.5 57.5 0
286 1 1 0 51.9823 58.6853 54.5426 0.198227 0.868535 0.454262 0.490491 45 57.5 57.5 0
287 1 1 0 49.587 59.4162 53.3414 -0.0413021 0.941618 0.33414 0.490491 45 57.5 57.5 0
288 1 1 0 50.413 59.4162 53.3414 0.0413021 0.941618 0.33414 0.490491 45 57.5 57.5 0
289 1 1 0 50 59.1609 54.0097 0 0.916092 0.400968 0.490491 45 57.5 57.5 0
290 1 1 0 50 54.6566 58.8497 0 0.465657 0.884965 0.490491 45 57.5 57.5 0
291 1 1 0 49.3424 55.063 58.5985 -0.0657577 0.506298 0.859848 0.490491 45 57.5 57.5 0
292 1 1 0 50 54.0336 59.1504 0 0.403355 0.915043 0.490491 45 57.5 57.5 0
293 1 1 0 49.3418 54.4537 58.9293 -0.0658169 0.445365 0.892927 0.490491 45 57.5 57.5 0
294 1 1 0 48.688 54.8444 58.6493 -0.1312 0.484441 0.864929 0.490491 45 57.5 57.5 0
295 1 1 0 50 53.3912 59.4074 0 0.339122 0.940742 0.490491 45 57.5 57.5 0
296 1 1 0 49.3401 53.8172 59.2192 -0.0659885 0.381722 0.921919 0.490491 45 57.5 57.5 0
297 1 1 0 50 52.7327 59.6194 0 0.273267 0.961938 0.490491 45 57.5 57.5 0
298 1 1 0 49.3396 53.1678 59.462 -0.0660427 0.316778 0.946198 0.490491 45 57.5 57.5 0
299 1 1 0 48.6834 53.5823 59.243 -0.131656 0.358229 0.924305 0.490491 45 57.5 57.5 0
300 1 1 0 48.6825 54.2236 58.968 -0.131749 0.422363 0.896801 0.490491 45 57.5 57.5 0
301 1 1 0 48.0398 54.6027 58.6587 -0.196015 0.460266 0.865871 0.490491 45 57.5 57.5 0
302 1 1 0 48.0359 53.9735 58.964 -0.196412 0.39735 0.896401 0.490491 45 57.5 57.5 0
303 1 1 0 47.4011 54.3389 58.6267 -0.259892 0.433888 0.862669 0.490491 45 57.5 57.5 0
304 1 1 0 50 52.061 59.7853 0 0.206103 0.97853 0.490491 45 57.5 57.5 0
305 1 1 0 49.3343 52.4733 59.6664 -0.0665668 0.247326 0.966643 0.490491 45 57.5 57.5 0
306 1 1 0 50 51.3795 59.9044 0 0.137952 0.990439 0.490491 45 57.5 57.5 0
307 1 1 0 49.334 51.796 59.8148 -0.0666046 0.179596 0.981483 0.490491 45 57.5 57.5 0
308 1 1 0 48.6721 52.2012 59.6639 -0.132792 0.220117 0.966393 0.490491 45 57.5 57.5 0
309 1 1 0 50 50.6914 59.9761 0 0.0691418 0.997607 0.490491 45 57.5 57.5 0
310 1 1 0 49.3329 51.1039 59.9165 -0.0667095 0.110385 0.991648 0.490491 45 57.5 57.5 0
311 1 1 0 50 50 60 0 0 1 0.490491 45 57.5 57.5 0
312 1 1 0 49.3326 50.4125 59.9692 -0.0667412 0.0412479 0.996917 0.490491 45 57.5 57.5 0
313 1 1 0 48.6693 50.8224 59.8769 -0.133071 0.0822422 0.987688 0.490491 45 57.5 57.5 0
314 1 1 0 48.6674 51.5155 59.7943 -0.133256 0.151549 0.979426 0.490491 45 57.5 57.5 0
315 1 1 0 48.0166 51.9178 59.6119 -0.198337 0.19178 0.961188 0.490491 45 57.5 57.5 0
316 1 1 0 48.0142 51.2273 59.7237 -0.198581 0.122729 0.97237 0.490491 45 57.5 57.5 0
317 1 1 0 47.3713 51.6246 59.5106 -0.262865 0.16246 0.951057 0.490491 45 57.5 57.5 0
318 1 1 0 47.3734 53.6852 58.9174 -0.262661 0.368518 0.891742 0.490491 45 57.5 57.5 0
319 1 1 0 46.7748 54.0543 58.5534 -0.322525 0.405434 0.855337 0.490491 45 57.5 57.5 0
320 1 1 0 47.3592 53.0126 59.1624 -0.264082 0.301258 0.916244 0.490491 45 57.5 57.5 0
321 1 1 0 46.7514 53.3921 58.8284 -0.324863 0.339209 0.882837 0.490491 45 57.5 57.5 0
322 1 1 0 46.1639 53.7504 58.4391 -0.383614 0.375038 0.843912 0.490491 45 57.5 57.5 0
323 1 1 0 47.3585 52.3245 59.3605 -0.264151 0.232455 0.93605 0.490491 45 57.5 57.5 0
324 1 1 0 46.7407 52.7063 59.0583 -0.325929 0.270627 0.905832 0.490491 45 57.5 57.5 0
325 1 1 0 46.7447 52.0119 59.2388 -0.32553 0.201189 0.92388 0.490491 45 57.5 57.5 0
326 1 1 0 46.1381 52.3868 58.9101 -0.386187 0.238677 0.891007 0.490491 45 57.5 57.5 0
327 1 1 0 46.1409 53.0766 58.6973 -0.385906 0.307659 0.869725 0.490491 45 57.5 57.5 0
328 1 1 0 45.5713 53.4285 58.2845 -0.442867 0.342848 0.828447 0.490491 45 57.5 57.5 0
329 1 1 0 45.5554 52.7469 58.5264 -0.444464 0.274694 0.85264 0.490491 45 57.5 57.5 0
330 1 1 0 45 53.0902 58.0902 -0.5 0.309017 0.809017 0.490491 45 57.5 57.5 0
331 1 1 0 48.6743 52.8993 59.4782 -0.13257 0.289929 0.947822 0.490491 45 57.5 57.5 0
332 1 1 0 48.0091 52.6155 59.4443 -0.199094 0.26155 0.944433 0.490491 45 57.5 57.5 0
333 1 1 0 48.0161 53.3061 59.2268 -0.198387 0.330606 0.922682 0.490491 45 57.5 57.5 0
334 1 1 0 50 49.3086 59.9761 0 -0.0691418 0.997607 0.490491 45 57.5 57.5 0
335 1 1 0 49.3326 49.5875 59.9692 -0.0667412 -0.0412479 0.996917 0.490491 45 57.5 57.5 0
336 1 1 0 50 48.6205 59.9044 0 -0.137952 0.990439 0.490491 45 57.5 57.5 0
337 1 1 0 49.3329 48.8961 59.9165 -0.0667095 -0.110385 0.991648 0.490491 45 57.5 57.5 0
338 1 1 0 48.6693 49.1776 59.8769 -0.133071 -0.0822422 0.987688 0.490491 45 57.5 57.5 0
339 1 1 0 50 47.939 59.7853 0 -0.206103 0.97853 0.490491 45 57.5 57.5 0
340 1 1 0 49.334 48.204 59.8148 -0.0666046 -0.179596 0.981483 0.490491 45 57.5 57.5 0
341 1 1 0 50 47.2673 59.6194 0 -0.273267 0.961938 0.490491 45 57.5 57.5 0
342 1 1 0 49.3343 47.5267 59.6664 -0.0665668 -0.247326 0.966643 0.490491 45 57.5 57.5 0
343 1 1 0 48.6721 47.7988 59.6639 -0.132792 -0.220117 0.966393 0.490491 45 57.5 57.5 0
344 1 1 0 48.6674 48.4845 59.7943 -0.133256 -0.151549 0.979426 0.490491 45 57.5 57.5 0
345 1 1 0 48.0142 48.7727 59.7237 -0.198581 -0.122729 0.97237 0.490491 45 57.5 57.5 0
346 1 1 0 48.0166 48.0822 59.6119 -0.198337 -0.19178 0.961188 0.490491 45 57.5 57.5 0
347 1 1 0 47.3713 48.3754 59.5106 -0.262865 -0.16246 0.951057 0.490491 45 57.5 57.5 0
348 1 1 0 50 46.6088 59.4074 0 -0.339122 0.940742 0.490491 45 57.5 57.5 0
349 1 1 0 49.3396 46.8322 59.462 -0.0660427 -0.316778 0.946198 0.490491 45 57.5 57.5 0
350 1 1 0 50 45.9664 59.1504 0 -0.403355 0.915043 0.490491 45 57.5 57.5 0
351 1 1 0 49.3401 46.1828 59.2192 -0.0659885 -0.381722 0.921919 0.490491 45 57.5 57.5 0
352 1 1 0 48.6834 46.4177 59.243 -0.131656 -0.358229 0.924305 0.490491 45 57.5 57.5 0
353 1 1 0 50 45.3434 58.8497 0 -0.465657 0.884965 0.490491 45 57.5 57.5 0
354 1 1 0 49.3418 45.5463 58.9293 -0.0658169 -0.445365 0.892927 0.490491 45 57.5 57.5 0
355 1 1 0 50 44.7427 58.5065 0 -0.525731 0.850651 0.490491 45 57.5 57.5 0