LAMMPS data file via write_data, version 3 Aug 2023, timestep = 0, units = metal

3000 atoms
3 atom types

0 34.33782 xlo xhi
0 34.33782 ylo yhi
0 34.33782 zlo zhi

Masses

1 30.973762
2 22.98976928
3 15.9994

Atoms # charge

8 1 3 1.8228596003598336 5.87510492688523 3.5062216239063626 0 0 0
17 1 3 33.5723745447357 0.5375481258233651 3.8861638381362598 -1 0 0
34 1 3 3.184933838096731 2.8311921099836765 5.164134822893228 0 0 0
122 1 3 0.2370455745732013 4.372425131512704 7.54150797495957 0 0 0
2961 3 -1.2 30.697407751732634 12.621061288706011 10.877176004694533 0 0 0
1707 3 -1.2 12.3866317679469 11.97008050069813 10.482129353238545 0 0 0
318 1 3 3.4858438136007606 4.520547981195128 1.363444333226657 0 0 0
2958 3 -1.2 28.400787036084672 16.093543678904396 13.83941720223406 0 0 0
458 1 3 33.749416075600095 4.741468617297005 4.6740969760068705 -1 0 0
582 1 3 3.0593218994819846 3.5998240999490476 7.959064854740526 0 0 0
2928 3 -1.2 27.93491158508066 12.130073721291792 13.565876649432077 0 0 0
2807 3 -1.2 30.944427068568565 14.427453685922131 9.19235161047031 0 0 0
782 2 0.6 0.28288503013923894 7.188860597571288 6.003881058807563 0 0 0
2651 3 -1.2 27.50283296936166 15.480351807341014 8.923498916017095 0 0 0
2619 3 -1.2 29.560955108562094 13.010220958747707 15.214294796064776 0 0 0
1081 2 0.6 2.1001400722641788 1.4407841249642783 2.6310621865527515 0 0 0
2596 3 -1.2 28.206227044747862 13.670025701498188 11.680622025211967 0 0 0
584 1 3 19.910813483394687 14.765538517207547 12.498288312580092 0 0 0
2592 3 -1.2 30.24617420399123 15.720368595458117 17.126420533088975 0 0 0
1418 3 -1.2 34.026842304390044 3.010028930026641 7.503038098214573 -1 0 0
1468 3 -1.2 1.1129934358525364 6.999764658255995 2.8670269774364625 0 0 0
289 1 3 0.7971138163005053 3.720423599365621 0.3203086740122359 0 0 0
2450 3 -1.2 27.83994140550279 11.222021949910367 11.22495605557564 0 0 0
1547 3 -1.2 34.127502022299 1.569280415791703 3.0220282639712077 -1 0 0
1576 3 -1.2 2.3957808294164895 6.2772727415252625 4.821112884850933 0 0 0
1664 3 -1.2 32.78545834371478 3.6200071646788192 4.613386796565437 -1 0 0
1686 3 -1.2 5.187414626819637 5.809560215560438 6.828801754128944 0 0 0
1704 3 -1.2 3.718249398587753 3.036722961891026 6.678678942613548 0 0 0
1932 3 -1.2 0.7518754594183069 4.756883054720914 3.8017697660892433 0 0 0
569 1 3 25.765866719197614 9.15789898544425 12.973470090013436 0 0 0
191 1 3 20.47898434174292 8.870649134062761 10.612831154514424 0 0 0
2086 3 -1.2 2.9558995063443207 5.455654934825284 2.462137804241733 0 0 0
2157 3 -1.2 34.24983807359828 5.033781002280117 6.169927897434142 -1 0 0
6 1 3 21.06882093883699 15.884831991448587 16.83547943279087 0 0 0
2225 3 -1.2 5.151075983865144 1.2402032969078276 0.6837811819178949 0 0 0
2398 3 -1.2 29.246657760866544 10.606949877527057 15.205574302728138 0 0 0
2088 3 -1.2 10.3049162634082 3.6176100147280743 0.8506571757770954 0 0 0
2317 3 -1.2 5.59707186075629 6.054378880723959 2.1477523521609925 0 0 0
2318 3 -1.2 3.4033169644554495 1.5541425495222554 4.448975001106595 0 0 0
2333 3 -1.2 4.7327075340583455 3.5914226675211354 1.22692651098072 0 0 0
2891 3 -1.2 16.49446327774468 11.844102607816644 8.839289765033168 0 0 0
2541 3 -1.2 1.7349557060090126 2.926142730564026 5.482756437635006 0 0 0
2548 3 -1.2 5.629882876940062 6.868190197095866 4.58639897539239 0 0 0
2656 3 -1.2 31.936250635835666 6.188240192140672 7.086542776075716 -1 0 0
1363 3 -1.2 10.02812650523174 1.228975179586754 0.7578128940749129 0 0 0
2906 3 -1.2 3.796844383004932 3.866175669665926 4.308257722475782 0 0 0
2916 3 -1.2 0.06387627177346021 4.814565327885862 0.9453037463439108 0 0 0
2998 3 -1.2 33.05358421716851 5.973900637111086 4.194018532156243 -1 0 0
11 1 3 5.125385690643427 5.7084809905452545 8.410933828301461 0 0 0
2148 3 -1.2 29.636357987071232 7.504182611122242 12.980479879837201 0 0 0
203 1 3 10.634289131337653 2.34594791856994 1.7316816963443238 0 0 0
222 1 3 14.879656798461301 0.2958188477203788 7.488830394817911 0 0 0
225 1 3 5.764391784399813 7.262132317661055 3.0439498642692486 0 0 0
342 1 3 12.629127890393836 3.725023438061583 7.982760509092106 0 0 0
2124 3 -1.2 31.116008337586443 14.182901017241301 12.856869594537924 0 0 0
1940 3 -1.2 26.158199155880396 9.343830525683826 11.41488470181813 0 0 0
505 1 3 13.216210333802689 3.2921898239118965 2.561753634990455 0 0 0
549 1 3 9.152954560978827 5.634224636313086 5.921240953248451 0 0 0
2219 3 -1.2 30.944947561366018 0.3163886539575838 3.4838084627097836 0 0 0
573 1 3 6.196203823902112 5.819928137239532 5.597537073065396 0 0 0
1966 3 -1.2 3.4927380069567433 5.451395349821202 0.08965098226947106 0 0 0
588 1 3 11.593170788536568 8.238513625008896 3.0680629301141082 0 0 0
596 1 3 5.2262369704180385 2.5690915364034423 0.05761374226515607 0 0 0
623 2 0.6 10.787356338330996 8.565121414195154 6.473338045443549 0 0 0
649 2 0.6 15.077085401221376 1.7138922627443811 0.3128346335307952 0 0 0
684 2 0.6 10.666500249206777 3.5591567949675635 4.70166733076542 0 0 0
716 2 0.6 13.203642475698972 0.5099672283760172 4.2994422826146215 0 0 0
735 2 0.6 13.341897976904448 7.799817850452832 0.29172316243779417 0 0 0
2503 3 -1.2 2.202092827720077 3.5881443041544583 1.1105000889744994 0 0 0
2840 3 -1.2 19.670212193466593 8.353895876329942 13.425602487452794 0 0 0
815 2 0.6 12.618339240196994 2.379314216157603 5.5873233436255125 0 0 0
845 2 0.6 6.845076220158212 0.6157769344531513 6.685728577784767 0 0 0
1001 2 0.6 7.691160893215583 4.973779078257769 2.9037324169636425 0 0 0
1023 2 0.6 14.77808445445625 3.72347714760589 5.379378133679625 0 0 0
1041 2 0.6 9.348505986446199 6.833416160263685 2.4534289204924407 0 0 0
1666 3 -1.2 10.354671089943698 12.713915786686298 11.845613247705973 0 0 0
1089 2 0.6 8.078052841742835 2.426185054636776 5.410175156181848 0 0 0
1135 2 0.6 6.061592363516195 2.8824404664415098 3.4483709829785965 0 0 0
1082 2 0.6 33.067195708943885 14.326925029155769 16.85186245579751 -1 0 0
1202 3 -1.2 7.7300627334886505 0.6128797235614499 1.5893680414579219 0 0 0
1273 3 -1.2 10.041182931367445 6.459930488394309 6.752118264252442 0 0 0
2790 3 -1.2 18.698663552789284 10.352107863221546 8.696923055984517 0 0 0
1308 3 -1.2 14.008478627759914 0.7563970512501356 6.410523602876454 0 0 0
1344 3 -1.2 13.910512670453327 2.459991563665669 3.5785446874682187 0 0 0
2496 3 -1.2 14.26275196533474 12.55437432957031 0.057049817919180394 0 0 0
1599 3 -1.2 30.3934761763685 11.811096653218904 13.221594172156172 0 0 0
1453 3 -1.2 7.598057635818902 6.16897169319817 6.1733185397543835 0 0 0
1645 3 -1.2 9.11288571171751 0.5032320155394738 6.389345313591313 0 0 0
560 1 3 8.956225366522052 4.263972780787976 0.42138041054240266 0 0 0
2763 3 -1.2 17.915430169372115 10.892609163940012 13.452742223281668 0 0 0
1888 3 -1.2 14.935255379938596 6.792014286636484 1.8909144763129722 0 0 0
1915 3 -1.2 14.744406093871604 7.610211712186383 8.111338604936435 0 0 0
1998 3 -1.2 13.942714325429854 3.7396674998662247 1.3493745015296459 0 0 0
2684 3 -1.2 18.31042134805579 11.333352881153932 10.92161099281336 0 0 0
2085 3 -1.2 6.456771896304846 4.584630133017286 4.831658121295312 0 0 0
2580 3 -1.2 16.532573776555584 12.901815344045703 15.42859041555858 0 0 0
2164 3 -1.2 9.171585482380756 5.622176168018752 4.423916832858168 0 0 0
2173 3 -1.2 12.11300781317177 2.1390336280135736 1.946992000654117 0 0 0
2188 3 -1.2 11.73915450864615 7.086373018379213 2.137315483015844 0 0 0
2387 3 -1.2 11.910863381919985 9.665135335491941 0.043617148205173616 0 0 0
2204 3 -1.2 9.28186238877823 4.20449401967803 6.333880612061862 0 0 0
2215 3 -1.2 11.187871457479789 0.8856134417791364 5.0918611139144785 0 0 0
2234 3 -1.2 7.834962301662877 3.5993618365517723 1.1604472494671545 0 0 0
2302 3 -1.2 13.072601858437853 7.552983140970049 5.635940502101293 0 0 0
2446 3 -1.2 18.31216539758974 7.074186446591256 15.07778959983515 0 0 0
2330 3 -1.2 5.0709405865282156 13.122581416169801 0.7550178311680203 0 0 0
2455 3 -1.2 7.358168985606684 0.5430731020399615 3.942240768461119 0 0 0
693 2 0.6 23.64510051654558 16.85088238082749 9.233917287134679 0 0 0
2523 3 -1.2 12.100811330686883 4.117383013989126 3.0842753884279475 0 0 0
2549 3 -1.2 9.782854897759485 2.3575693007868823 2.921077135195698 0 0 0
1930 3 -1.2 22.785932961046914 0.09118353013740653 15.257340503312522 0 0 0
2957 3 -1.2 12.768260575061184 4.329532391969262 6.624577591065975 0 0 0
213 1 3 20.19711279325501 5.031568286855892 6.641786910149037 0 0 0
1498 3 -1.2 30.685169592917255 11.948002274493305 8.473450089298108 0 0 0
464 1 3 15.435080932292966 6.357110619331396 3.231251730634334 0 0 0
512 1 3 17.098416327823067 2.2273321576210647 6.810066808729312 0 0 0
1199 2 0.6 23.01704455167944 1.8460378058308333 9.671691780904007 0 0 0
615 2 0.6 18.140502106360138 1.6776064085734577 0.26363526691198486 0 0 0
619 2 0.6 18.361303784581477 7.859461434749044 2.5618864760772437 0 0 0
779 2 0.6 17.3261645886555 6.640682104898295 1.014836720901021 0 0 0
835 2 0.6 18.531106780313802 4.324259965007819 2.6883202268587447 0 0 0
1045 2 0.6 18.208294227414285 1.381646179992118 3.4304115979114185 0 0 0
1191 2 0.6 16.28651569673256 3.8753290338420885 0.937442232616161 0 0 0
1467 3 -1.2 27.28104490452926 9.878764583499917 9.186789580670752 0 0 0
1345 3 -1.2 28.57681130631935 8.799479828136409 11.008805666034675 0 0 0
1351 3 -1.2 16.878383718624406 8.235660543720002 6.943020663478171 0 0 0
1406 3 -1.2 20.264272641793983 2.382358498268816 3.5499644342898518 0 0 0
1293 3 -1.2 27.152035261746736 9.397595375027551 13.484448832656165 0 0 0
1137 2 0.6 30.083486815125166 15.187899518599686 14.780481713938116 0 0 0
2401 3 -1.2 15.036776106431523 15.210693037606696 10.786141661501212 0 0 0
1905 3 -1.2 18.490499375925605 1.4758783434425842 6.9726334982061 0 0 0
2267 3 -1.2 15.787820563070165 8.014740798868225 14.321498325771165 0 0 0
1995 3 -1.2 16.719603319289924 2.1316933116198635 5.385914282619352 0 0 0
2008 3 -1.2 20.050852161175186 4.0120939613664355 5.405757901089055 0 0 0
2015 3 -1.2 16.91156689502158 6.073525123528359 3.1340481287857855 0 0 0
2356 3 -1.2 14.749868491357551 5.139288382210879 3.7548570006848507 0 0 0
2381 3 -1.2 16.649525647303083 1.7314622552489785 1.8743953461959773 0 0 0
917 2 0.6 27.143670604968314 9.681447285762887 15.997220238114913 0 0 0
2473 3 -1.2 16.989450285935945 3.5915396400375452 7.329022706162237 0 0 0
910 2 0.6 26.450286162691434 13.30643739883064 15.592138668258315 0 0 0
2673 3 -1.2 19.34173285755745 6.214248909579634 6.52179745065282 0 0 0
2734 3 -1.2 21.18932691275593 7.463852745990761 3.6327475087984333 0 0 0
2922 3 -1.2 15.137485700483756 7.503806333858288 4.27470062197817 0 0 0
2951 3 -1.2 18.359236884467634 4.619873376051784 0.26122340837061997 0 0 0
38 1 3 24.816988756166324 4.160958904445498 6.905368602865206 0 0 0
63 1 3 22.129279715850583 5.792184560366883 1.7258760439413 0 0 0
868 2 0.6 29.844640538271136 15.950067416368196 11.646522957324878 0 0 0
285 1 3 23.260336226129755 1.804396044571201 5.926679989260175 0 0 0
1654 3 -1.2 11.503804005659727 8.278931569974432 16.17615432794268 0 0 0
703 2 0.6 31.50402532327435 17.05771223951092 9.279599763035264 0 0 0
372 1 3 21.030496793958093 3.128600083629055 4.569472060759473 0 0 0
2205 3 -1.2 17.167236941528504 16.262620570630578 10.24892627824235 0 0 0
629 2 0.6 25.41145871697226 6.650980675312553 2.5324447774882324 0 0 0
672 2 0.6 24.431448252000397 4.1838646078887 3.502175023663834 0 0 0
660 2 0.6 27.4372644663658 15.972114927668642 11.742575060508866 0 0 0
719 2 0.6 21.903874324800395 2.81438757104636 1.8805569633193675 0 0 0
752 2 0.6 22.732830830118207 6.373778841378722 4.853180891874569 0 0 0
627 2 0.6 30.935112973012266 9.707819140347835 10.053110003878716 0 0 0
603 2 0.6 26.852668040812517 15.637842880595832 15.377269219366996 0 0 0
1871 3 -1.2 19.206844940554202 13.891634378498571 13.469180199305672 0 0 0
934 2 0.6 34.20545704676974 0.37993301613661085 1.019934709266085 -1 0 0
762 2 0.6 7.389705778524074 17.118990107149518 15.888560298979044 0 0 0
1538 3 -1.2 24.10314051087794 1.8162424145039802 4.697187009822323 0 0 0
1626 3 -1.2 21.76491818818874 2.100247350326784 5.535270593923806 0 0 0
1657 3 -1.2 19.899057036739958 4.116062417160987 7.870819241158122 0 0 0
1741 3 -1.2 25.068359558255533 4.013191372005472 0.5671485688760626 0 0 0
692 2 0.6 6.717646557480478 9.197210513884611 1.1850044101999335 0 0 0
1987 3 -1.2 23.768865690162635 2.9988477928595354 6.848911206921669 0 0 0
2087 3 -1.2 23.33798148096364 6.044667912476271 2.531974985465457 0 0 0
2104 3 -1.2 22.21325173211058 3.877401990277711 4.086946268154399 0 0 0
2222 3 -1.2 24.592364393192106 7.495951095474721 5.379186724796142 0 0 0
2282 3 -1.2 22.764891861561303 4.712741210707209 0.6633079795207264 0 0 0
2309 3 -1.2 21.64592022210278 5.3253980745912575 6.617966640852154 0 0 0
1758 3 -1.2 16.62861785314105 9.159019113750952 9.223313856097084 0 0 0
1724 3 -1.2 19.211671709781616 16.201406376238065 12.50593471851688 0 0 0
2659 3 -1.2 21.716339345800833 6.960875484332111 0.7650451363813008 0 0 0
2699 3 -1.2 22.551222241637795 0.6500636821567315 1.8072497502838032 0 0 0
891 2 0.6 9.981668319834668 17.085614621179452 0.9939152739129233 0 0 0
1695 3 -1.2 18.8866672093461 8.894372714271833 10.552089215583093 0 0 0
2846 3 -1.2 24.220543649421433 5.393693203082043 7.666267175183327 0 0 0
2151 3 -1.2 7.649319392583413 13.370772877335787 8.217932606990376 0 0 0
2908 3 -1.2 23.47751594569011 0.507806700937784 6.614001512568061 0 0 0
2242 3 -1.2 10.671628661819751 9.044682671440839 14.049714344732488 0 0 0
2940 3 -1.2 20.845441860260575 5.162523737022697 2.126749268092696 0 0 0
145 1 3 28.221177842544627 0.3911404140810752 5.459463655677135 0 0 0
159 1 3 28.506399659282717 1.9532541195051996 0.9117370541153925 0 0 0
531 1 3 27.40629627179996 9.821430234140855 10.651071354273506 0 0 0
1573 3 -1.2 16.78286293242739 10.085992840488297 11.375013139207619 0 0 0
284 1 3 27.696171077741095 4.7789713169058246 0.3464529556665972 0 0 0
2456 3 -1.2 27.756270800816807 3.1860363321056577 0.28093718881104024 0 0 0
656 2 0.6 31.04298922685021 4.127017923815153 2.862017235501279 0 0 0
658 2 0.6 29.115643170053673 6.114788210125984 2.892737299652025 0 0 0
1572 3 -1.2 19.989499640979194 16.09764163171018 15.814323731953337 0 0 0
811 2 0.6 28.67450336617217 6.384916399908791 5.9395130975475015 0 0 0
836 2 0.6 28.168045087665206 3.8562236892281754 6.494967213281092 0 0 0
972 2 0.6 31.00078988415413 6.4179824978227655 4.853598421833192 0 0 0
998 2 0.6 30.595416447965164 2.568540218062925 4.528098091364968 0 0 0
1125 2 0.6 27.561171585851874 3.673400364546202 3.9694631376863625 0 0 0
1184 2 0.6 31.02672435453094 4.06639037549849 7.051161665199886 0 0 0
1461 3 -1.2 27.393696057086437 0.7750347987784595 0.8768261500932388 0 0 0
2753 3 -1.2 11.066882521375806 1.5436257303651941 17.126470420092467 0 0 0
1791 3 -1.2 22.192907816518446 16.90284759389284 16.605002157828803 0 0 0
1543 3 -1.2 33.651136123770726 0.5606327941722694 5.319791250232987 -1 0 0
2002 3 -1.2 25.293428153511687 4.496253887843739 5.553647226443952 0 0 0
2080 3 -1.2 27.743141245545694 1.7661481967080417 5.3552697776445095 0 0 0
2423 3 -1.2 25.223419010657725 16.805361151933894 1.9494341430740598 0 0 0
2264 3 -1.2 29.530916101615585 4.665729894341677 4.486494888591105 0 0 0
2429 3 -1.2 29.24381165335954 5.14426401554394 0.1859015181510137 0 0 0
1319 3 -1.2 19.26326580794803 11.414772082660203 16.91410095665116 0 0 0
2463 3 -1.2 26.650606076792183 7.136250897858355 6.745781515036149 0 0 0
2494 3 -1.2 30.42547123815706 8.088607669085949 6.664179646845857 0 0 0
2698 3 -1.2 29.631071045059315 0.3049619146754569 6.13990670031101 0 0 0
2825 3 -1.2 28.958540243049022 2.3431804657991218 2.249896354783249 0 0 0
2834 3 -1.2 27.306355031725392 5.400209061391878 1.62891323739481 0 0 0
163 1 3 27.40609807645922 12.5069231996507 12.10331143382893 0 0 0
2966 3 -1.2 30.065794171407465 8.025315694176975 3.6168946099041146 0 0 0
12 1 3 1.6220059168633032 14.613397822152786 2.137565484370139 0 0 0
53 1 3 34.10218895163492 10.858257676407556 2.964541469755975 -1 0 0
126 1 3 0.2098135881608339 9.85408071715391 5.664070030296013 0 0 0
209 1 3 2.6217891895067953 11.957920551762607 2.853951283574642 0 0 0
2391 3 -1.2 8.925114384163926 16.225364076026906 14.406478573274374 0 0 0
1253 3 -1.2 16.394335878347242 12.43889956911168 12.15556741690782 0 0 0
426 1 3 1.964343044347403 12.122750379390265 6.5964139519322265 0 0 0
548 1 3 4.042651190847374 12.181160299353666 0.2505307825503917 0 0 0
718 2 0.6 33.763329870115385 13.802908022018148 4.9688795714723595 -1 0 0
774 2 0.6 4.7845013810466535 12.242921294341409 5.262186973085306 0 0 0
557 1 3 5.454316121777518 8.078615659380779 16.409913118322134 0 0 0
873 2 0.6 5.0852795714249055 9.908854774201167 5.899257301527475 0 0 0
923 2 0.6 5.523172160277404 10.951031853092395 2.668644146773366 0 0 0
1347 3 -1.2 11.852613169320815 15.605360501322147 10.752587596352669 0 0 0
976 2 0.6 2.872195914698283 8.711262505400228 3.9724610559785374 0 0 0
1170 2 0.6 2.655879064030566 15.556006545435208 5.333866653012758 0 0 0
1187 2 0.6 3.1248978810241264 9.05434076068433 7.178046941577896 0 0 0
1404 3 -1.2 1.4170997815328406 9.58013715715741 1.8297419153653036 0 0 0
1421 3 -1.2 5.6172224452265835 13.376803523881339 3.4014540209129773 0 0 0
1435 3 -1.2 33.24429774376179 9.546158199553354 6.2893341733041055 -1 0 0
1499 3 -1.2 1.4043173137759493 8.993758848787095 5.872017880962093 0 0 0
1533 3 -1.2 31.694044922444338 14.239980292062926 5.599241836434841 -1 0 0
1539 3 -1.2 0.8231365812889085 15.228742460685625 3.2185649491136115 0 0 0
1042 2 0.6 16.43575020015038 14.295008593103923 13.531238169133472 0 0 0
1622 3 -1.2 4.34879063294917 15.479327210783381 3.8971855675574933 0 0 0
1722 3 -1.2 1.7856562152982423 15.16789826008646 7.4559402903682335 0 0 0
1763 3 -1.2 3.101039513712694 11.199798281891479 6.802173262471717 0 0 0
1766 3 -1.2 1.1151764522943395 11.745868794933294 3.1533801947654694 0 0 0
1025 2 0.6 14.671627256549009 11.511289941803854 15.810298946662574 0 0 0
1813 3 -1.2 3.16352469732681 11.623302780654235 1.4024735338648942 0 0 0
1825 3 -1.2 5.672513105772113 15.395463575605875 1.7944138279943833 0 0 0
1012 2 0.6 17.100078172474873 10.76993193331919 15.786767836388053 0 0 0
2156 3 -1.2 2.3978949016133346 15.487447280411425 1.2248882437205943 0 0 0
690 2 0.6 17.672315819581463 13.725817831958995 9.82356496611769 0 0 0
2251 3 -1.2 0.6780050926363054 11.322940315761715 6.048094838015902 0 0 0
2281 3 -1.2 34.326109577863996 9.76028067450365 4.101063598879842 -1 0 0
2303 3 -1.2 2.67619021345124 13.516583387875 2.7133884410406153 0 0 0
686 2 0.6 14.709993035054392 14.456721591461074 15.430953209472964 0 0 0
2419 3 -1.2 33.09118659188431 11.699781689287772 3.7694990595182225 -1 0 0
2498 3 -1.2 33.15481333817167 17.035422796749096 0.37485650318401165 -1 0 0
2515 3 -1.2 4.8001034475511215 8.294639936690308 2.591348872524802 0 0 0
2597 3 -1.2 2.284067094156926 13.082870773834115 5.520253982615054 0 0 0
621 2 0.6 18.152115050963754 14.545496722707949 15.669729371706962 0 0 0
2736 3 -1.2 33.56199018857875 10.810057942290012 1.5789496024904957 -1 0 0
2743 3 -1.2 3.4468734506916476 11.169509307374188 3.775006222983322 0 0 0
2751 3 -1.2 0.7787222975551522 13.654151573320712 1.3134340996787754 0 0 0
2949 3 -1.2 4.39100617067191 16.74425930090203 7.2679032134947 0 0 0
2991 3 -1.2 1.5005314314771256 12.840535260021406 7.8994390500273575 0 0 0
93 1 3 5.5251004820425695 14.853014281869871 3.2898451575148684 0 0 0
113 1 3 9.357159783290546 14.409820172885402 2.504591007627544 0 0 0
125 1 3 13.698210345660765 12.39192962609301 1.4563135878800573 0 0 0
498 1 3 17.32911916441924 11.311655386234838 12.181263708524865 0 0 0
176 1 3 7.649996430583427 9.9669102517475 7.597887943781673 0 0 0
248 1 3 10.512721638203779 9.189046740091621 0.5145828588369955 0 0 0
493 1 3 19.704979303444116 11.343280358097777 7.973806073291758 0 0 0
354 1 3 13.9409176582109 8.415852682250383 4.8108974940155 0 0 0
356 1 3 10.658535989107017 11.512424274751867 5.059616036713927 0 0 0
459 1 3 7.880542756387041 14.68226710430678 5.13285679240167 0 0 0
475 1 3 11.116424655463083 12.065858732914755 7.825842346967625 0 0 0
515 1 3 5.905805828224932 15.201665655521213 0.2226524946642345 0 0 0
452 1 3 15.108335213457853 12.014949000542016 8.214167796362021 0 0 0
1768 3 -1.2 6.378645280523506 11.801054396371576 15.85115498028605 0 0 0
643 2 0.6 13.371176580149273 13.769773065689371 4.960673753659656 0 0 0
651 2 0.6 8.853423909575097 15.459527125705208 8.233347510933857 0 0 0
307 1 3 17.752761744502596 10.013413635762143 10.001316755321112 0 0 0
819 2 0.6 11.337884871667493 14.654790570108824 6.234406445762218 0 0 0
842 2 0.6 10.812828979675967 15.032426593532104 0.29006282771660824 0 0 0
888 2 0.6 8.357986460498209 9.754460499854503 2.9435410840763923 0 0 0
941 2 0.6 11.08126023596597 11.623527793763676 2.2841690814096305 0 0 0
943 2 0.6 8.420227794144337 8.7139765092658 4.699203188208425 0 0 0
970 2 0.6 12.705478094553884 15.55001265376947 2.4929128986588505 0 0 0
1166 2 0.6 7.516801678667312 11.900362296177786 3.550034678748337 0 0 0
1217 3 -1.2 9.647690947278262 13.168141691207184 1.7240978715428343 0 0 0
1400 3 -1.2 6.243969858998785 16.880732062958835 0.06499158898306741 0 0 0
1641 3 -1.2 9.195713009543681 11.594960419981419 14.416325704928365 0 0 0
1442 3 -1.2 7.161514881936357 13.42980358354603 5.789061842422809 0 0 0
2091 3 -1.2 6.899910215317973 9.98401418180627 11.42944975601543 0 0 0
1596 3 -1.2 7.204718313604991 7.618270013701662 2.8916596565255466 0 0 0
1603 3 -1.2 8.683226316363557 9.496254132393396 6.641562359529139 0 0 0
1634 3 -1.2 6.65942137004763 15.892401812270904 6.752252529148516 0 0 0
1678 3 -1.2 15.827444000368605 12.353251696593984 4.117088848707607 0 0 0
1714 3 -1.2 9.05582440812752 15.072934348478551 5.9171633763670535 0 0 0
1732 3 -1.2 15.33828603322244 12.41867579909505 6.659667498643708 0 0 0
1786 3 -1.2 6.885724110871477 11.271689945685669 7.015434258746191 0 0 0
1840 3 -1.2 14.825181564175713 15.966231269006704 3.613207199170957 0 0 0
1868 3 -1.2 10.299788272907398 8.503940308029884 9.214954631589173 0 0 0
670 2 0.6 16.98364587908929 0.32598574942205155 12.708396377019408 0 0 0
1956 3 -1.2 16.127342427945283 15.923581014796639 5.760805680893282 0 0 0
2016 3 -1.2 11.368784840075628 12.62445903772358 4.365051890876006 0 0 0
2063 3 -1.2 10.187310927233826 11.970192361710424 6.505668299394642 0 0 0
2102 3 -1.2 12.296966318528975 12.683079400208037 7.175689274586963 0 0 0
2123 3 -1.2 10.597975996766333 15.20874004795201 2.6276510986077755 0 0 0
10 1 3 15.697871012294561 16.34860249620227 10.117366072909244 0 0 0
2177 3 -1.2 13.520539705995125 11.088896453849145 2.0013265589433265 0 0 0
2942 3 -1.2 8.25016177800817 10.473278615163403 8.851686317180144 0 0 0
2178 3 -1.2 24.63368185929118 0.27842141618328364 13.565629649558966 0 0 0
2470 3 -1.2 8.434677386341638 15.334182519249369 1.7646198567942926 0 0 0
2472 3 -1.2 13.034047847417835 8.619123257155909 3.521123455025941 0 0 0
2937 3 -1.2 15.166241592517405 7.693292106015787 11.959974407348513 0 0 0
2883 3 -1.2 13.224333415072573 13.038853665244028 15.398065043953338 0 0 0
2505 3 -1.2 12.37482496856758 15.860929583153142 4.79364316218136 0 0 0
2556 3 -1.2 8.647126838796451 14.006856085436548 3.8435484293039566 0 0 0
2628 3 -1.2 9.017450028241095 8.840132210842107 0.9693992493443016 0 0 0
2660 3 -1.2 10.550528421142733 8.038655436477297 4.08863837877901 0 0 0
2689 3 -1.2 9.510711019300182 11.12052791259004 4.187491816021347 0 0 0
1649 3 -1.2 9.358115862478844 16.87422604270051 11.96733530604074 0 0 0
2759 3 -1.2 7.675905738150477 11.38606443916342 1.0308112758370624 0 0 0
2815 3 -1.2 10.974003153591296 9.321233397515643 2.1062001297043023 0 0 0
2858 3 -1.2 14.524348522479807 9.643881351386474 5.34654778891758 0 0 0
2863 3 -1.2 6.779457851221646 15.34299549990603 4.181231836942948 0 0 0
2936 3 -1.2 11.549920014177694 10.356308457292243 5.341603355853948 0 0 0
2967 3 -1.2 6.505186435657284 10.039005929397982 4.274244557675488 0 0 0
60 1 3 15.495970530331466 15.773122550251424 7.26951593770238 0 0 0
89 1 3 20.915924969003544 8.913716377787894 3.5176396533616168 0 0 0
154 1 3 18.641042926314285 15.883189561740872 2.8548094879269454 0 0 0
200 1 3 16.339367755978017 12.23766836974287 5.505319955209417 0 0 0
218 1 3 16.18013045515762 7.99673590118485 8.232232511834146 0 0 0
277 1 3 16.086333154651445 16.368133104838762 4.256463305165464 0 0 0
2871 3 -1.2 15.250988499594165 16.6190462743386 8.646524158928058 0 0 0
491 1 3 18.867981111433604 13.59550936248926 6.219981702638131 0 0 0
669 2 0.6 14.89124294068493 9.256764705228388 1.5297530357482763 0 0 0
1475 3 -1.2 14.510410879186521 13.160086990698964 8.93045061570829 0 0 0
788 2 0.6 16.914453965748915 9.020601123882352 4.831532203241428 0 0 0
851 2 0.6 18.953349937364813 8.73806910126358 6.266275606562154 0 0 0
911 2 0.6 18.182654907740417 10.88288498191213 3.7659462216920208 0 0 0
999 2 0.6 18.9200002287705 15.841497660972857 8.76665570960279 0 0 0
1200 2 0.6 16.862979294929346 11.427546697250941 1.9482412663697013 0 0 0
1320 3 -1.2 19.393694548905977 11.537873074080075 2.0267092309446713 0 0 0
1323 3 -1.2 16.548009573216554 14.904377949341653 7.902262257163476 0 0 0
946 2 0.6 9.596768550324851 1.9682309837327467 8.15717668645043 0 0 0
1434 3 -1.2 17.22363418920935 15.562603725832583 3.404867638745535 0 0 0
1623 3 -1.2 16.187880446743346 15.95581395764611 16.312657078228966 0 0 0
1723 3 -1.2 19.64257838468673 9.24923649788804 4.215199794734691 0 0 0
1802 3 -1.2 16.842083651093045 9.364370602102408 2.5860390121585657 0 0 0
1955 3 -1.2 19.558518476240625 15.926129859675314 3.9999109629880305 0 0 0
2058 3 -1.2 19.28791487902189 14.696885979533324 1.9849260855605617 0 0 0
2175 3 -1.2 17.398414796912785 13.444297505320865 5.678967482735201 0 0 0
2193 3 -1.2 19.69565055568496 13.014325168937322 5.1413932812645315 0 0 0
755 2 0.6 29.74086160186781 8.575774638609255 16.664177956657007 0 0 0
2504 3 -1.2 19.40603063961719 14.861347755991765 6.753976318662836 0 0 0
2081 3 -1.2 12.079406572321084 11.128203443403324 12.765121207242503 0 0 0
2725 3 -1.2 19.29751834930337 7.4200095182725505 0.3915055928699 0 0 0
2767 3 -1.2 17.227061016103484 11.071520021606098 5.7342897821776875 0 0 0
2987 3 -1.2 13.499474306154388 13.610089315787619 2.1512639256121817 0 0 0
23 1 3 25.271564738007648 9.847082168023848 1.997345520468332 0 0 0
2676 3 -1.2 13.116365619038376 9.34178131966574 14.64232770325298 0 0 0
1618 3 -1.2 14.388668788941118 10.737046703984408 8.276580778655099 0 0 0
322 1 3 20.180176896761125 10.592632433767365 1.202807883480694 0 0 0
412 1 3 24.653569823455683 13.143192358615735 9.121912569797823 0 0 0
437 1 3 26.621126388502805 9.89237736680894 4.698004173192933 0 0 0
570 1 3 20.782777477458765 14.454039527869542 1.5542210868601567 0 0 0
590 1 3 23.51388717455849 13.697889338905995 6.383777938843604 0 0 0
652 2 0.6 23.95340505482794 15.294607060581798 1.2972792794516144 0 0 0
681 2 0.6 25.227811603396724 16.76603577398321 6.049300484942883 0 0 0
699 2 0.6 21.126497161342687 11.460797873120045 4.950231064151637 0 0 0
700 2 0.6 22.88325533238183 12.024959860683346 3.2959205170232257 0 0 0
2608 3 -1.2 6.388123050736264 16.262372710638715 12.284379903628082 0 0 0
810 2 0.6 22.629934241790096 10.366173017458834 8.625853902192777 0 0 0
2567 3 -1.2 14.129972422463915 15.291025504555268 6.993223236128789 0 0 0
2502 3 -1.2 6.236480023282383 11.225274351607137 13.397286398808218 0 0 0
1070 2 0.6 21.329615340449074 15.656814428480535 5.131180162516522 0 0 0
1525 3 -1.2 6.982070753771091 12.476202106862566 11.320578063136894 0 0 0
1207 3 -1.2 24.16837578779941 13.016262976822963 7.54513761106032 0 0 0
1241 3 -1.2 20.299954364812 10.609247110349129 6.83208290000257 0 0 0
1370 3 -1.2 23.40855702525213 15.125100766080193 6.147059157037812 0 0 0
1882 3 -1.2 21.64302945563939 13.79110098028925 2.56112927764941 0 0 0
1937 3 -1.2 24.704030472801225 11.15766220020758 2.278674360498426 0 0 0
2031 3 -1.2 21.56690218573319 11.266000863796942 0.834193643929693 0 0 0
359 1 3 8.95346367619213 0.09909928971016169 0.806183759437379 0 0 0
2089 3 -1.2 22.069221290606738 9.792742508258165 3.8455560632033796 0 0 0
2127 3 -1.2 20.955348478944256 13.502226599354424 0.27598384320323255 0 0 0
2488 3 -1.2 4.796622430356143 16.599533792234634 16.603576305821292 0 0 0
2321 3 -1.2 24.5167723165236 8.787789436796787 1.3261473022554626 0 0 0
2367 3 -1.2 20.559853702520282 9.325183566216614 2.0048023151866308 0 0 0
2909 3 -1.2 21.30118519706563 15.798027208833584 1.193519262099006 0 0 0
2974 3 -1.2 22.907871645870188 12.771491089368798 5.491601289910581 0 0 0
16 1 3 28.093092227663213 10.41125245925158 1.1203934612999824 0 0 0
61 1 3 25.433589010195007 7.948623242321133 6.500260841364083 0 0 0
2097 3 -1.2 12.493774676891679 9.044742015582612 10.067499990224862 0 0 0
327 1 3 31.292809086184306 7.377549918195232 7.602821787267629 0 0 0
362 1 3 28.134618896877416 13.330044655330969 1.69673300264818 0 0 0
401 1 3 30.500739783253593 14.917828777723699 0.9609118286174586 0 0 0
451 1 3 27.138442398606024 14.361587144837006 8.045414337467728 0 0 0
466 1 3 29.35938098655492 9.3089875927496 3.666009393456217 0 0 0
2038 3 -1.2 7.475289052500883 15.036742385002226 16.92261969868044 0 0 0
725 2 0.6 31.97254816228217 15.99828959784927 4.3756348484439895 0 0 0
749 2 0.6 30.661613388350855 15.394039957537155 7.155194878464862 0 0 0
778 2 0.6 27.68199316723105 13.585754331445449 5.109388452951252 0 0 0
2370 3 -1.2 7.289971727139639 8.026011108804532 13.668199371883437 0 0 0
898 2 0.6 31.162777657401765 12.698678728276603 4.228785845009721 0 0 0
1054 2 0.6 31.5585100402116 11.115720736764844 6.230700192891273 0 0 0
1058 2 0.6 28.579094414422606 11.269114203617258 7.692852173401253 0 0 0
2257 3 -1.2 13.199227166725548 16.334116880374026 12.559324830566723 0 0 0
1426 3 -1.2 27.161706361678164 13.632029236563325 0.6338558515813065 0 0 0
1602 3 -1.2 26.246637666700607 14.755420889317213 6.889800815798162 0 0 0