LAMMPS 2005 data file for example nb3b

   1400 atoms
    560 bonds
      0 angles
      0 dihedrals
      0 impropers

   3 atom types
   1 bond types

     0.000000000    22.590700000 xlo xhi
     0.000000000    22.359000000 ylo yhi
     0.000000000    23.470800000 zlo zhi

Masses

   1  24.305000
   2  15.999400
   3   1.007970

Bond Coeffs

  1     132.2491  2.1350     0.9572 

Atoms

      1      0   1  1.050000     0.000000262     0.000106849     0.000000568
      2      0   2 -0.950000     0.000000225     1.863354892     1.213706850
      3      0   3  0.425000     0.000001447     1.863360598     2.195781620
      4      0   2 -0.950000     1.613621236     0.931731439    -1.213704488
      5      0   3  0.425000     1.613621167     0.931734584    -2.195778520
      6      0   1  1.050000     3.227242289     0.000106860     0.000000485
      7      0   2 -0.950000     3.227242325     1.863355025     1.213706762
      8      0   3  0.425000     3.227242057     1.863358941     2.195781569
      9      0   2 -0.950000     4.840863318     0.931731440    -1.213704511
     10      0   3  0.425000     4.840863137     0.931735319    -2.195778539
     11      0   1  1.050000     6.454484299     0.000106840     0.000000446
     12      0   2 -0.950000     6.454484364     1.863354991     1.213706788
     13      0   3  0.425000     6.454484080     1.863358928     2.195781586
     14      0   2 -0.950000     8.068105260     0.931731407    -1.213704574
     15      0   3  0.425000     8.068105401     0.931736261    -2.195778606
     16      0   1  1.050000     9.681726311     0.000106832     0.000000315
     17      0   2 -0.950000     9.681726249     1.863354958     1.213706756
     18      0   3  0.425000     9.681727013     1.863358298     2.195781581
     19      0   2 -0.950000    11.295347151     0.931731353    -1.213704540
     20      0   3  0.425000    11.295349400     0.931737018    -2.195778610
     21      0   1  1.050000    12.908968296     0.000106822     0.000000442
     22      0   2 -0.950000    12.908968062     1.863354976     1.213706758
     23      0   3  0.425000    12.908970867     1.863358801     2.195781676
     24      0   2 -0.950000    14.522589020     0.931731441    -1.213704446
     25      0   3  0.425000    14.522591962     0.931735382    -2.195778597
     26      0   1  1.050000    16.136210287     0.000106848     0.000000478
     27      0   2 -0.950000    16.136210056     1.863354978     1.213706750
     28      0   3  0.425000    16.136212717     1.863358947     2.195781668
     29      0   2 -0.950000    17.749831034     0.931731382    -1.213704460
     30      0   3  0.425000    17.749833990     0.931735503    -2.195778550
     31      0   1  1.050000    19.363452276     0.000106831     0.000000502
     32      0   2 -0.950000    19.363451967     1.863355049     1.213706917
     33      0   3  0.425000    19.363455339     1.863358022     2.195781612
     34      0   2 -0.950000    20.977072983     0.931731581    -1.213704467
     35      0   3  0.425000    20.977076228     0.931733597    -2.195778450
     36      0   1  1.050000    -1.613620722     2.794979691     0.000001834
     37      0   2 -0.950000    -1.613620547     4.658227863     1.213707356
     38      0   3  0.425000    -1.613621531     4.658231935     2.195781735
     39      0   2 -0.950000     0.000000387     3.726603701    -1.213703507
     40      0   3  0.425000    -0.000000733     3.726608981    -2.195778085
     41      0   1  1.050000     1.613621318     2.794979700     0.000001736
     42      0   2 -0.950000     1.613621317     4.658228007     1.213707308
     43      0   3  0.425000     1.613621361     4.658230379     2.195781688
     44      0   2 -0.950000     3.227242332     3.726603860    -1.213703517
     45      0   3  0.425000     3.227242450     3.726607718    -2.195778091
     46      0   1  1.050000     4.840863335     2.794979720     0.000001771
     47      0   2 -0.950000     4.840863331     4.658227991     1.213707357
     48      0   3  0.425000     4.840863361     4.658230718     2.195781700
     49      0   2 -0.950000     6.454484353     3.726603840    -1.213703497
     50      0   3  0.425000     6.454484456     3.726607807    -2.195778054
     51      0   1  1.050000     8.068105339     2.794979722     0.000001796
     52      0   2 -0.950000     8.068105342     4.658227993     1.213707381
     53      0   3  0.425000     8.068105446     4.658230772     2.195781735
     54      0   2 -0.950000     9.681726388     3.726603866    -1.213703434
     55      0   3  0.425000     9.681726252     3.726607442    -2.195778041
     56      0   1  1.050000    11.295347305     2.794979711     0.000001836
     57      0   2 -0.950000    11.295347370     4.658227998     1.213707347
     58      0   3  0.425000    11.295347101     4.658230735     2.195781829
     59      0   2 -0.950000    12.908968378     3.726603818    -1.213703367
     60      0   3  0.425000    12.908967925     3.726607757    -2.195778096
     61      0   1  1.050000    14.522589284     2.794979700     0.000001808
     62      0   2 -0.950000    14.522589381     4.658227964     1.213707304
     63      0   3  0.425000    14.522589179     4.658230748     2.195781822
     64      0   2 -0.950000    16.136210390     3.726603792    -1.213703452
     65      0   3  0.425000    16.136209843     3.726607820    -2.195778100
     66      0   1  1.050000    17.749831268     2.794979701     0.000001816
     67      0   2 -0.950000    17.749831304     4.658228087     1.213707341
     68      0   3  0.425000    17.749831640     4.658229781     2.195781725
     69      0   2 -0.950000    19.363452290     3.726603927    -1.213703444
     70      0   3  0.425000    19.363452453     3.726606726    -2.195778003
     71      0   1  1.050000    -3.227241639     5.589852888     0.000001656
     72      0   2 -0.950000    -3.227241593     7.453101145     1.213706104
     73      0   3  0.425000    -3.227242192     7.453105232     2.195780851
     74      0   2 -0.950000    -1.613620608     6.521476288    -1.213704047
     75      0   3  0.425000    -1.613621178     6.521479676    -2.195778584
     76      0   1  1.050000     0.000000351     5.589852872     0.000001620
     77      0   2 -0.950000     0.000000293     7.453101307     1.213706103
     78      0   3  0.425000     0.000000628     7.453103659     2.195780822
     79      0   2 -0.950000     1.613621312     6.521476436    -1.213704074
     80      0   3  0.425000     1.613621615     6.521478379    -2.195778568
     81      0   1  1.050000     3.227242330     5.589852889     0.000001640
     82      0   2 -0.950000     3.227242302     7.453101253     1.213706192
     83      0   3  0.425000     3.227242391     7.453104029     2.195780814
     84      0   2 -0.950000     4.840863341     6.521476412    -1.213704066
     85      0   3  0.425000     4.840863407     6.521478575    -2.195778490
     86      0   1  1.050000     6.454484341     5.589852886     0.000001672
     87      0   2 -0.950000     6.454484325     7.453101262     1.213706236
     88      0   3  0.425000     6.454484401     7.453103948     2.195780840
     89      0   2 -0.950000     8.068105350     6.521476399    -1.213704024
     90      0   3  0.425000     8.068105446     6.521478593    -2.195778490
     91      0   1  1.050000     9.681726346     5.589852881     0.000001692
     92      0   2 -0.950000     9.681726321     7.453101257     1.213706163
     93      0   3  0.425000     9.681726446     7.453103903     2.195780920
     94      0   2 -0.950000    11.295347337     6.521476383    -1.213703930
     95      0   3  0.425000    11.295347499     6.521478503    -2.195778568
     96      0   1  1.050000    12.908968340     5.589852860     0.000001703
     97      0   2 -0.950000    12.908968325     7.453101233     1.213706099
     98      0   3  0.425000    12.908968356     7.453104057     2.195780968
     99      0   2 -0.950000    14.522589318     6.521476349    -1.213703934
    100      0   3  0.425000    14.522589202     6.521478649    -2.195778595
    101      0   1  1.050000    16.136210321     5.589852878     0.000001650
    102      0   2 -0.950000    16.136210254     7.453101352     1.213706104
    103      0   3  0.425000    16.136210955     7.453102782     2.195780896
    104      0   2 -0.950000    17.749831231     6.521476485    -1.213704008
    105      0   3  0.425000    17.749832115     6.521477448    -2.195778565
    106      0   1  1.050000    -4.840862672     8.384726544     0.000000904
    107      0   2 -0.950000    -4.840862622    10.247975593     1.213705455
    108      0   3  0.425000    -4.840863359    10.247981174     2.195780241
    109      0   2 -0.950000    -3.227241620     9.316350574    -1.213704222
    110      0   3  0.425000    -3.227242402     9.316354176    -2.195779002
    111      0   1  1.050000    -1.613620661     8.384726557     0.000000868
    112      0   2 -0.950000    -1.613620725    10.247975777     1.213705465
    113      0   3  0.425000    -1.613620524    10.247979502     2.195780210
    114      0   2 -0.950000     0.000000313     9.316350739    -1.213704260
    115      0   3  0.425000     0.000000428     9.316352843    -2.195778982
    116      0   1  1.050000     1.613621317     8.384726562     0.000000882
    117      0   2 -0.950000     1.613621288    10.247975713     1.213705558
    118      0   3  0.425000     1.613621241    10.247979812     2.195780164
    119      0   2 -0.950000     3.227242330     9.316350683    -1.213704290
    120      0   3  0.425000     3.227242310     9.316353071    -2.195778884
    121      0   1  1.050000     4.840863322     8.384726548     0.000000928
    122      0   2 -0.950000     4.840863290    10.247975715     1.213705614
    123      0   3  0.425000     4.840863319    10.247979759     2.195780165
    124      0   2 -0.950000     6.454484328     9.316350679    -1.213704259
    125      0   3  0.425000     6.454484360     9.316353005    -2.195778869
    126      0   1  1.050000     8.068105321     8.384726542     0.000000939
    127      0   2 -0.950000     8.068105294    10.247975713     1.213705551
    128      0   3  0.425000     8.068105361    10.247979714     2.195780228
    129      0   2 -0.950000     9.681726314     9.316350668    -1.213704179
    130      0   3  0.425000     9.681726367     9.316352926    -2.195778952
    131      0   1  1.050000    11.295347313     8.384726528     0.000000935
    132      0   2 -0.950000    11.295347297    10.247975689     1.213705501
    133      0   3  0.425000    11.295347271    10.247979824     2.195780278
    134      0   2 -0.950000    12.908968304     9.316350626    -1.213704156
    135      0   3  0.425000    12.908968192     9.316353143    -2.195778993
    136      0   1  1.050000    14.522589298     8.384726549     0.000000917
    137      0   2 -0.950000    14.522589210    10.247975827     1.213705464
    138      0   3  0.425000    14.522589999    10.247978588     2.195780256
    139      0   2 -0.950000    16.136210211     9.316350794    -1.213704162
    140      0   3  0.425000    16.136211112     9.316351727    -2.195778978
    141      0   1  1.050000    -6.454483708    11.179600857     0.000000585
    142      0   2 -0.950000    -6.454483639    13.042850628     1.213705372
    143      0   3  0.425000    -6.454484492    13.042857481     2.195780210
    144      0   2 -0.950000    -4.840862649    12.111225653    -1.213704303
    145      0   3  0.425000    -4.840863475    12.111230906    -2.195779117
    146      0   1  1.050000    -3.227241701    11.179600856     0.000000562
    147      0   2 -0.950000    -3.227241771    13.042850790     1.213705384
    148      0   3  0.425000    -3.227241578    13.042855862     2.195780202
    149      0   2 -0.950000    -1.613620730    12.111225823    -1.213704330
    150      0   3  0.425000    -1.613620636    12.111229475    -2.195779071
    151      0   1  1.050000     0.000000286    11.179600877     0.000000575
    152      0   2 -0.950000     0.000000248    13.042850736     1.213705499
    153      0   3  0.425000     0.000000187    13.042856174     2.195780143
    154      0   2 -0.950000     1.613621286    12.111225777    -1.213704397
    155      0   3  0.425000     1.613621244    12.111229685    -2.195778970
    156      0   1  1.050000     3.227242287    11.179600855     0.000000598
    157      0   2 -0.950000     3.227242257    13.042850741     1.213705545
    158      0   3  0.425000     3.227242264    13.042856108     2.195780107
    159      0   2 -0.950000     4.840863283    12.111225761    -1.213704401
    160      0   3  0.425000     4.840863301    12.111229623    -2.195778958
    161      0   1  1.050000     6.454484287    11.179600849     0.000000607
    162      0   2 -0.950000     6.454484258    13.042850728     1.213705501
    163      0   3  0.425000     6.454484243    13.042856144     2.195780141
    164      0   2 -0.950000     8.068105287    12.111225761    -1.213704333
    165      0   3  0.425000     8.068105256    12.111229568    -2.195779018
    166      0   1  1.050000     9.681726285    11.179600840     0.000000606
    167      0   2 -0.950000     9.681726277    13.042850728     1.213705454
    168      0   3  0.425000     9.681726247    13.042856101     2.195780190
    169      0   2 -0.950000    11.295347281    12.111225726    -1.213704305
    170      0   3  0.425000    11.295347208    12.111229757    -2.195779049
    171      0   1  1.050000    12.908968266    11.179600861     0.000000600
    172      0   2 -0.950000    12.908968184    13.042850861     1.213705422
    173      0   3  0.425000    12.908968909    13.042855110     2.195780188
    174      0   2 -0.950000    14.522589190    12.111225902    -1.213704278
    175      0   3  0.425000    14.522589920    12.111228326    -2.195779068
    176      0   1  1.050000    -8.068104728    13.974475155     0.000000277
    177      0   2 -0.950000    -8.068104632    15.837724784     1.213705012
    178      0   3  0.425000    -8.068105777    15.837731693     2.195779742
    179      0   2 -0.950000    -6.454483624    14.906100040    -1.213704977
    180      0   3  0.425000    -6.454484849    14.906106484    -2.195779776
    181      0   1  1.050000    -4.840862724    13.974475149     0.000000267
    182      0   2 -0.950000    -4.840862756    15.837725002     1.213705037
    183      0   3  0.425000    -4.840862945    15.837729534     2.195779778
    184      0   2 -0.950000    -3.227241749    14.906100194    -1.213704985
    185      0   3  0.425000    -3.227241772    14.906105169    -2.195779725
    186      0   1  1.050000    -1.613620751    13.974475165     0.000000295
    187      0   2 -0.950000    -1.613620767    15.837724924     1.213705161
    188      0   3  0.425000    -1.613620969    15.837730061     2.195779728
    189      0   2 -0.950000     0.000000252    14.906100155    -1.213705055
    190      0   3  0.425000     0.000000125    14.906105351    -2.195779609
    191      0   1  1.050000     1.613621248    13.974475150     0.000000306
    192      0   2 -0.950000     1.613621238    15.837724924     1.213705209
    193      0   3  0.425000     1.613621209    15.837729991     2.195779685
    194      0   2 -0.950000     3.227242238    14.906100143    -1.213705096
    195      0   3  0.425000     3.227242184    14.906105281    -2.195779609
    196      0   1  1.050000     4.840863248    13.974475143     0.000000288
    197      0   2 -0.950000     4.840863223    15.837724939     1.213705167
    198      0   3  0.425000     4.840863372    15.837729763     2.195779671
    199      0   2 -0.950000     6.454484221    14.906100135    -1.213705054
    200      0   3  0.425000     6.454484569    14.906105286    -2.195779652
    201      0   1  1.050000     8.068105253    13.974475132     0.000000298
    202      0   2 -0.950000     8.068105255    15.837724878     1.213705095
    203      0   3  0.425000     8.068105434    15.837730456     2.195779720
    204      0   2 -0.950000     9.681726261    14.906100109    -1.213705018
    205      0   3  0.425000     9.681726010    14.906105282    -2.195779709
    206      0   1  1.050000    11.295347243    13.974475170     0.000000276
    207      0   2 -0.950000    11.295347197    15.837725062     1.213705022
    208      0   3  0.425000    11.295347708    15.837728985     2.195779715
    209      0   2 -0.950000    12.908968188    14.906100275    -1.213705004
    210      0   3  0.425000    12.908968886    14.906104050    -2.195779729
    211      0   1  1.050000    -9.681725748    16.769348912    -0.000000658
    212      0   2 -0.950000    -9.681725718    18.632597414     1.213704363
    213      0   3  0.425000    -9.681725696    18.632601927     2.195779017
    214      0   2 -0.950000    -8.068104736    17.700973368    -1.213706471
    215      0   3  0.425000    -8.068104695    17.700979995    -2.195780761
    216      0   1  1.050000    -6.454483751    16.769348891    -0.000000642
    217      0   2 -0.950000    -6.454483872    18.632597559     1.213704395
    218      0   3  0.425000    -6.454482434    18.632600441     2.195779030
    219      0   2 -0.950000    -4.840862840    17.700973539    -1.213706491
    220      0   3  0.425000    -4.840861947    17.700977987    -2.195780716
    221      0   1  1.050000    -3.227241775    16.769348901    -0.000000609
    222      0   2 -0.950000    -3.227241820    18.632597507     1.213704454
    223      0   3  0.425000    -3.227241127    18.632600966     2.195778963
    224      0   2 -0.950000    -1.613620805    17.700973439    -1.213706566
    225      0   3  0.425000    -1.613620484    17.700978332    -2.195780633
    226      0   1  1.050000     0.000000232    16.769348881    -0.000000590
    227      0   2 -0.950000     0.000000208    18.632597483     1.213704491
    228      0   3  0.425000     0.000000301    18.632601148     2.195778926
    229      0   2 -0.950000     1.613621245    17.700973468    -1.213706570
    230      0   3  0.425000     1.613620974    17.700978340    -2.195780596
    231      0   1  1.050000     3.227242237    16.769348886    -0.000000615
    232      0   2 -0.950000     3.227242262    18.632597519     1.213704489
    233      0   3  0.425000     3.227242076    18.632600565     2.195778936
    234      0   2 -0.950000     4.840863264    17.700973499    -1.213706571
    235      0   3  0.425000     4.840862998    17.700978140    -2.195780633
    236      0   1  1.050000     6.454484245    16.769348871    -0.000000616
    237      0   2 -0.950000     6.454484282    18.632597460     1.213704474
    238      0   3  0.425000     6.454483569    18.632600898     2.195778991
    239      0   2 -0.950000     8.068105282    17.700973450    -1.213706497
    240      0   3  0.425000     8.068104612    17.700979016    -2.195780685
    241      0   1  1.050000     9.681726229    16.769348916    -0.000000657
    242      0   2 -0.950000     9.681726164    18.632597710     1.213704426
    243      0   3  0.425000     9.681727181    18.632598828     2.195778986
    244      0   2 -0.950000    11.295347111    17.700973637    -1.213706486
    245      0   3  0.425000    11.295348458    17.700977314    -2.195780744
    246      0   1  1.050000   -11.295346688    19.564222229    -0.000000869
    247      0   2 -0.950000   -11.295346399    21.427469920     1.213704641
    248      0   3  0.425000   -11.295350190    21.427474990     2.195780062
    249      0   2 -0.950000    -9.681725368    20.495846378    -1.213705957
    250      0   3  0.425000    -9.681728908    20.495850969    -2.195780563
    251      0   1  1.050000    -8.068104676    19.564222218    -0.000000845
    252      0   2 -0.950000    -8.068104436    21.427470083     1.213704741
    253      0   3  0.425000    -8.068107409    21.427473339     2.195780130
    254      0   2 -0.950000    -6.454483449    20.495846530    -1.213705935
    255      0   3  0.425000    -6.454486400    20.495849730    -2.195780532
    256      0   1  1.050000    -4.840862711    19.564222213    -0.000000854
    257      0   2 -0.950000    -4.840862417    21.427470003     1.213704780
    258      0   3  0.425000    -4.840865717    21.427473470     2.195780127
    259      0   2 -0.950000    -3.227241476    20.495846446    -1.213706037
    260      0   3  0.425000    -3.227244630    20.495850198    -2.195780507
    261      0   1  1.050000    -1.613620721    19.564222187    -0.000000910
    262      0   2 -0.950000    -1.613620559    21.427470110     1.213704779
    263      0   3  0.425000    -1.613622694    21.427471380     2.195780092
    264      0   2 -0.950000     0.000000323    20.495846475    -1.213706032
    265      0   3  0.425000    -0.000000102    20.495850576    -2.195780462
    266      0   1  1.050000     1.613621255    19.564222203    -0.000000850
    267      0   2 -0.950000     1.613621302    21.427470055     1.213704843
    268      0   3  0.425000     1.613621366    21.427472739     2.195780106
    269      0   2 -0.950000     3.227242224    20.495846514    -1.213705991
    270      0   3  0.425000     3.227242569    20.495849824    -2.195780470
    271      0   1  1.050000     4.840863251    19.564222210    -0.000000846
    272      0   2 -0.950000     4.840863280    21.427470047     1.213704805
    273      0   3  0.425000     4.840863557    21.427473293     2.195780071
    274      0   2 -0.950000     6.454484231    20.495846444    -1.213705972
    275      0   3  0.425000     6.454484847    20.495850043    -2.195780472
    276      0   1  1.050000     8.068105249    19.564222225    -0.000000808
    277      0   2 -0.950000     8.068105325    21.427470017     1.213704713
    278      0   3  0.425000     8.068105698    21.427474441     2.195780058
    279      0   2 -0.950000     9.681726369    20.495846633    -1.213706013
    280      0   3  0.425000     9.681724933    20.495847572    -2.195780588
    281      0   1  1.050000     0.000000256     0.000109139     4.694163404
    282      0   2 -0.950000     0.000000219     1.863357176     5.907869693
    283      0   3  0.425000     0.000001438     1.863362890     6.889944470
    284      0   2 -0.950000     1.613621229     0.931733733     3.480458374
    285      0   3  0.425000     1.613621164     0.931736865     2.498384301
    286      0   1  1.050000     3.227242283     0.000109150     4.694163322
    287      0   2 -0.950000     3.227242319     1.863357310     5.907869605
    288      0   3  0.425000     3.227242052     1.863361233     6.889944420
    289      0   2 -0.950000     4.840863312     0.931733734     3.480458351
    290      0   3  0.425000     4.840863130     0.931737595     2.498384282
    291      0   1  1.050000     6.454484293     0.000109130     4.694163283
    292      0   2 -0.950000     6.454484358     1.863357275     5.907869630
    293      0   3  0.425000     6.454484075     1.863361220     6.889944436
    294      0   2 -0.950000     8.068105254     0.931733702     3.480458288
    295      0   3  0.425000     8.068105391     0.931738543     2.498384215
    296      0   1  1.050000     9.681726305     0.000109123     4.694163151
    297      0   2 -0.950000     9.681726243     1.863357243     5.907869599
    298      0   3  0.425000     9.681727008     1.863360590     6.889944431
    299      0   2 -0.950000    11.295347145     0.931733647     3.480458321
    300      0   3  0.425000    11.295349395     0.931739305     2.498384211
    301      0   1  1.050000    12.908968290     0.000109113     4.694163279
    302      0   2 -0.950000    12.908968055     1.863357261     5.907869601
    303      0   3  0.425000    12.908970860     1.863361093     6.889944526
    304      0   2 -0.950000    14.522589013     0.931733736     3.480458415
    305      0   3  0.425000    14.522591955     0.931737657     2.498384224
    306      0   1  1.050000    16.136210281     0.000109138     4.694163315
    307      0   2 -0.950000    16.136210050     1.863357262     5.907869594
    308      0   3  0.425000    16.136212712     1.863361238     6.889944518
    309      0   2 -0.950000    17.749831029     0.931733675     3.480458401
    310      0   3  0.425000    17.749833974     0.931737787     2.498384273
    311      0   1  1.050000    19.363452270     0.000109122     4.694163339
    312      0   2 -0.950000    19.363451961     1.863357333     5.907869761
    313      0   3  0.425000    19.363455335     1.863360317     6.889944462
    314      0   2 -0.950000    20.977072977     0.931733876     3.480458393
    315      0   3  0.425000    20.977076234     0.931735875     2.498384372
    316      0   1  1.050000    -1.613620728     2.794981981     4.694164684
    317      0   2 -0.950000    -1.613620551     4.658230152     5.907870208
    318      0   3  0.425000    -1.613621536     4.658234236     6.889944598
    319      0   2 -0.950000     0.000000381     3.726605991     3.480459361
    320      0   3  0.425000    -0.000000736     3.726611255     2.498384748
    321      0   1  1.050000     1.613621312     2.794981989     4.694164586
    322      0   2 -0.950000     1.613621312     4.658230297     5.907870157
    323      0   3  0.425000     1.613621356     4.658232681     6.889944550
    324      0   2 -0.950000     3.227242326     3.726606151     3.480459352
    325      0   3  0.425000     3.227242443     3.726609990     2.498384740
    326      0   1  1.050000     4.840863329     2.794982010     4.694164621
    327      0   2 -0.950000     4.840863325     4.658230281     5.907870206
    328      0   3  0.425000     4.840863356     4.658233019     6.889944562
    329      0   2 -0.950000     6.454484347     3.726606131     3.480459373
    330      0   3  0.425000     6.454484451     3.726610079     2.498384777
    331      0   1  1.050000     8.068105333     2.794982012     4.694164645
    332      0   2 -0.950000     8.068105335     4.658230283     5.907870230
    333      0   3  0.425000     8.068105440     4.658233073     6.889944597
    334      0   2 -0.950000     9.681726382     3.726606157     3.480459435
    335      0   3  0.425000     9.681726246     3.726609713     2.498384790
    336      0   1  1.050000    11.295347299     2.794982000     4.694164687
    337      0   2 -0.950000    11.295347363     4.658230287     5.907870195
    338      0   3  0.425000    11.295347095     4.658233036     6.889944691
    339      0   2 -0.950000    12.908968371     3.726606108     3.480459502
    340      0   3  0.425000    12.908967914     3.726610027     2.498384737
    341      0   1  1.050000    14.522589277     2.794981990     4.694164658
    342      0   2 -0.950000    14.522589374     4.658230253     5.907870154
    343      0   3  0.425000    14.522589173     4.658233047     6.889944685
    344      0   2 -0.950000    16.136210385     3.726606083     3.480459417
    345      0   3  0.425000    16.136209829     3.726610099     2.498384734
    346      0   1  1.050000    17.749831263     2.794981991     4.694164667
    347      0   2 -0.950000    17.749831298     4.658230376     5.907870195
    348      0   3  0.425000    17.749831632     4.658232084     6.889944589
    349      0   2 -0.950000    19.363452284     3.726606220     3.480459423
    350      0   3  0.425000    19.363452457     3.726608984     2.498384833
    351      0   1  1.050000    -3.227241644     5.589855176     4.694164508
    352      0   2 -0.950000    -3.227241597     7.453103437     5.907868940
    353      0   3  0.425000    -3.227242195     7.453107526     6.889943715
    354      0   2 -0.950000    -1.613620615     6.521478573     3.480458829
    355      0   3  0.425000    -1.613621184     6.521481944     2.498384242
    356      0   1  1.050000     0.000000345     5.589855160     4.694164470
    357      0   2 -0.950000     0.000000288     7.453103600     5.907868934
    358      0   3  0.425000     0.000000623     7.453105953     6.889943683
    359      0   2 -0.950000     1.613621306     6.521478722     3.480458802
    360      0   3  0.425000     1.613621607     6.521480653     2.498384255
    361      0   1  1.050000     3.227242324     5.589855178     4.694164488
    362      0   2 -0.950000     3.227242296     7.453103546     5.907869022
    363      0   3  0.425000     3.227242385     7.453106322     6.889943675
    364      0   2 -0.950000     4.840863335     6.521478698     3.480458810
    365      0   3  0.425000     4.840863402     6.521480845     2.498384332
    366      0   1  1.050000     6.454484335     5.589855175     4.694164520
    367      0   2 -0.950000     6.454484318     7.453103554     5.907869065
    368      0   3  0.425000     6.454484394     7.453106242     6.889943701
    369      0   2 -0.950000     8.068105344     6.521478685     3.480458851
    370      0   3  0.425000     8.068105440     6.521480864     2.498384332
    371      0   1  1.050000     9.681726340     5.589855170     4.694164541
    372      0   2 -0.950000     9.681726314     7.453103550     5.907868992
    373      0   3  0.425000     9.681726440     7.453106196     6.889943781
    374      0   2 -0.950000    11.295347330     6.521478669     3.480458946
    375      0   3  0.425000    11.295347490     6.521480773     2.498384255
    376      0   1  1.050000    12.908968334     5.589855148     4.694164552
    377      0   2 -0.950000    12.908968317     7.453103525     5.907868931
    378      0   3  0.425000    12.908968350     7.453106350     6.889943830
    379      0   2 -0.950000    14.522589313     6.521478635     3.480458943
    380      0   3  0.425000    14.522589198     6.521480928     2.498384232
    381      0   1  1.050000    16.136210315     5.589855167     4.694164502
    382      0   2 -0.950000    16.136210248     7.453103644     5.907868942
    383      0   3  0.425000    16.136210946     7.453105075     6.889943761
    384      0   2 -0.950000    17.749831225     6.521478773     3.480458867