LAMMPS data file via write_data, version 29 Sep 2021, timestep = 100

3081 atoms
7 atom types
2055 bonds
4 bond types
1033 angles
4 angle types

0 31.35187685 xlo xhi
0 31.35187685 ylo yhi
0 31.35187685 zlo zhi

Masses

1 14.007
2 1.008
3 12.011
4 1.008
5 35.45
6 15.999
7 1.008

Pair Coeffs # lj/cut/coul/long

1 0.07 3.52796
2 0.012 1.55016
3 0.078 3.65268
4 0.024 2.38761
5 0.343 3.40323
6 0.155425 3.16549
7 0 0

Bond Coeffs # harmonic

1 529.581 1.012
2 500 1.04
3 500 1.11
4 500 1.78

Angle Coeffs # harmonic

1 37.95 113.24
2 40 108.31
3 40 109.45
4 40 109.45

Atoms # full

11 1 7 0.41 30.415798350937745 5.779843377185297 3.84715817930759 0 0 0
339 110 7 0.41 6.886671978651172 8.273407810742167 30.83074761707868 0 0 0
376 123 6 -0.82 3.2007963348178534 0.08303557757714296 2.6887570464079276 0 0 0
377 123 7 0.41 4.208988147051948 0.09232233947985807 2.8600499609646666 0 0 0
378 123 7 0.41 3.029734175183514 30.599142646872476 2.127562879271948 0 -1 0
511 168 6 -0.82 0.9324043427894111 2.9674747483461337 2.430481743095054 0 0 0
512 168 7 0.41 0.46637105450520616 2.214559865781192 1.8808201359298757 0 0 0
513 168 7 0.41 1.6726973228866198 3.347210398966963 1.81524059994179 0 0 0
676 223 6 -0.82 0.3916910776345302 2.253248548133898 5.055049419696102 0 0 0
677 223 7 0.41 0.540816250882426 2.5731480996253793 4.083427585684681 0 0 0
678 223 7 0.41 1.3241946143370693 2.1154933496394337 5.459842769188562 0 0 0
691 228 6 -0.82 5.878905893725139 1.9317066911796297 3.941041734415442 0 0 0
692 228 7 0.41 5.673690991049597 2.612206063766326 3.194331114630699 0 0 0
693 228 7 0.41 5.058751915820157 1.8416125395660266 4.553867387657073 0 0 0
997 330 6 -0.82 8.39496320138276 7.3365652067691896 4.433697986778786 0 0 0
998 330 7 0.41 8.064157321369555 6.475965457659568 3.951362574241389 0 0 0
1120 371 6 -0.82 4.761875259288119 6.092870605722011 4.199310056120105 0 0 0
1121 371 7 0.41 3.7688109080230885 5.814153465125142 4.2774766232323405 0 0 0
1122 371 7 0.41 5.2789219652578945 5.634267813236882 4.965897996235251 0 0 0
1144 379 6 -0.82 4.08137795867089 7.0952707152502255 1.755985202679984 0 0 0
1145 379 7 0.41 4.345869348531444 6.7969879443153225 2.7181100098975137 0 0 0
1146 379 7 0.41 3.899573193816692 6.281889165849334 1.166911277201745 0 0 0
1482 491 7 0.41 30.865005102163288 3.876320810276032 2.3868122855463696 0 0 0
1714 569 6 -0.82 7.7615547282536435 4.978935043179508 3.156058679238925 0 0 0
1715 569 7 0.41 8.079820209099026 4.099711961032788 3.559012439854734 0 0 0
1716 569 7 0.41 6.7697899950180425 4.9199127287768425 2.903181391298933 0 0 0
1798 597 6 -0.82 2.1687580885730133 5.290143160601554 4.005456579775248 0 0 0
1799 597 7 0.41 1.3360139903726975 5.8670139318681 4.197035055021922 0 0 0
1800 597 7 0.41 1.9723239146982334 4.73525311179058 3.1794060968305207 0 0 0
1822 605 6 -0.82 5.35023302207201 3.6186231177765444 1.7951275478415674 0 0 0
1823 605 7 0.41 4.3872935855248185 3.863105153239737 1.5295161239107522 0 0 0
1824 605 7 0.41 5.898356585586183 3.45715875638276 0.9478087135786005 0 0 0
1891 628 6 -0.82 3.164660610635307 1.951086063717561 4.674703068481755 0 0 0
1892 628 7 0.41 3.002961339946179 2.897697048731671 4.341761604607314 0 0 0
1893 628 7 0.41 2.9619217589287326 1.253660138372617 3.934993809933396 0 0 0
2021 671 7 0.41 30.758107289246166 0.31178888086371376 0.714624146953232 0 0 0
2029 674 6 -0.82 3.250777836191355 4.916848732827833 8.093159154053275 0 0 0
2144 712 7 0.41 2.6281322629055817 4.974426198112367 0.2931007514379114 0 0 1
2668 887 6 -0.82 6.718338793755673 7.653958365115957 0.9732469992351592 0 0 0
2669 887 7 0.41 5.747170584699806 7.49535111590821 1.2806233688277273 0 0 0
2670 887 7 0.41 7.113517222177439 8.436727526416396 1.5187252790854455 0 0 0
2878 957 6 -0.82 5.80761285660446 4.671498851801989 6.322342326084266 0 0 0
2879 957 7 0.41 4.968439949641185 4.361071407057867 6.8236488333988925 0 0 0
2880 957 7 0.41 6.469630489322832 3.8971136074982664 6.247992061679315 0 0 0
190 61 6 -0.82 10.367167792572003 3.8326821561731577 4.513207898810342 0 0 0
191 61 7 0.41 9.612320469068719 3.676568332842765 5.198446258603328 0 0 0
192 61 7 0.41 10.791530488432176 4.758889573322843 4.748561975577371 0 0 0
349 114 6 -0.82 13.482080899930445 5.4741483228454335 1.0727118607170962 0 0 0
350 114 7 0.41 14.43453672537387 5.134418728447445 1.2028636647315132 0 0 0
351 114 7 0.41 12.832639925325145 4.731518464413297 1.389739696544799 0 0 0
487 160 6 -0.82 15.197408616667397 1.933191086686571 4.079637793555956 0 0 0
488 160 7 0.41 15.80365574161676 2.701679924255461 4.353720497424701 0 0 0
817 270 6 -0.82 14.38597535457503 2.023011287264823 0.0663166400672963 0 0 0
818 270 7 0.41 13.921444717202911 2.0861339788916204 0.9713804977172362 0 0 0
819 270 7 0.41 13.646346145163289 2.116210760948493 30.69159293736155 0 0 -1
999 330 7 0.41 9.110336741426266 7.758725385969357 3.833770704251062 0 0 0
1042 345 6 -0.82 10.964315985897786 1.3525623171678527 5.639614888175262 0 0 0
1043 345 7 0.41 10.818733693365319 0.4841698610738896 5.121775835656362 0 0 0
1044 345 7 0.41 10.872235625323192 2.1779317619284444 5.030135117928643 0 0 0
1204 399 6 -0.82 11.300415977915081 6.184245098255786 5.320510036352531 0 0 0
1205 399 7 0.41 10.627027474933687 6.485528394773842 6.03734701925443 0 0 0
1206 399 7 0.41 11.619485702310891 7.030504682862284 4.831338398541452 0 0 0
1209 400 7 0.41 14.138520389236659 4.486496388053537 7.257985664660315 0 0 0
1405 466 6 -0.82 8.551206038185587 2.7650680617250902 6.429275613990351 0 0 0
1406 466 7 0.41 9.312936399272239 2.0784088738753907 6.413177061979866 0 0 0
1407 466 7 0.41 7.806464787141529 2.4266171930453106 7.054947261272985 0 0 0
1528 507 6 -0.82 13.60862804338046 1.1467107132538963 6.163204790190775 0 0 0
1529 507 7 0.41 13.970408153423412 1.4511294710043028 5.241261948136824 0 0 0
1530 507 7 0.41 12.594585787137223 1.355552704139301 6.191461837915785 0 0 0
2113 702 6 -0.82 11.837794685760711 3.5067990984016673 2.0043707230238117 0 0 0
2114 702 7 0.41 11.458734072758272 3.5932946711048164 2.9579016560644886 0 0 0
2115 702 7 0.41 11.064173078436276 3.3693215655383497 1.3588701721672802 0 0 0
2218 737 6 -0.82 9.612524992625096 6.394476536469527 31.28458121457205 0 0 -1
2219 737 7 0.41 8.987934263305156 6.38199563054151 30.45901569377856 0 0 -1
2220 737 7 0.41 9.117028056092064 5.973234350882625 0.7164137303235759 0 0 0
2839 944 6 -0.82 9.343636294862636 7.228503532226152 6.937462100970298 0 0 0
2840 944 7 0.41 9.008721000321051 7.260718276189225 5.955425856288173 0 0 0
2841 944 7 0.41 8.497020472733851 7.255628242631381 7.528808943016928 0 0 0
274 89 6 -0.82 19.55564365023636 2.0733109717363614 3.777493953642151 0 0 0
275 89 7 0.41 19.856589523489667 1.9092339678879537 2.8007427382046046 0 0 0
276 89 7 0.41 18.932016497905593 2.8767528298764597 3.813509913144168 0 0 0
305 99 7 0.41 21.626730108358306 4.613571607628279 7.5199509337771655 0 0 0
439 144 6 -0.82 20.31014260349417 1.6606049824211688 1.1957295617821655 0 0 0
440 144 7 0.41 19.587621885484378 2.095664506068059 0.6135449847202976 0 0 0
441 144 7 0.41 20.45171627078076 0.6966067322431944 0.8759710665005107 0 0 0
489 160 7 0.41 15.738091064995928 1.2809337562671896 3.4874421754789995 0 0 0
664 219 6 -0.82 16.89786073112066 3.626710426359686 6.282101032667664 0 0 0
665 219 7 0.41 17.377557168003566 3.7357935380320435 7.198479444006546 0 0 0
666 219 7 0.41 16.124508886559497 4.290500289506855 6.257260530504176 0 0 0
868 287 6 -0.82 19.082497176107328 7.077961879060769 6.853222788354386 0 0 0
869 287 7 0.41 19.674216326089116 6.2656647970247406 6.681928282710553 0 0 0
870 287 7 0.41 18.415432556380804 6.832073446661851 7.61200866037422 0 0 0
913 302 6 -0.82 21.959171712028486 6.021849818033599 4.600974831074445 0 0 0
914 302 7 0.41 22.21164900273155 5.317438833290405 3.910714545512642 0 0 0
915 302 7 0.41 22.51431490670437 6.862204094849205 4.386920245325011 0 0 0
1462 485 6 -0.82 16.210665154120047 1.1158371398822855 6.973156708462985 0 0 0
1463 485 7 0.41 16.607142890454796 1.9437330371680261 6.48696647112274 0 0 0
1464 485 7 0.41 15.243402924938776 1.0075422122355226 6.618048967440241 0 0 0
1497 496 7 0.41 21.931048446652714 3.8776570017028527 30.339309823563443 0 0 0
1536 509 7 0.41 16.120927440049357 30.280905952380444 6.060153184659023 0 0 0
1603 532 6 -0.82 21.94140649578066 6.125209056609491 0.33585177294038393 0 0 0
1604 532 7 0.41 20.969084001955128 6.225826577016933 0.6370069599118194 0 0 0
1605 532 7 0.41 22.490802214733456 5.758962205374883 1.132885811480237 0 0 0
1764 585 7 0.41 23.00051621419955 3.6378226348119402 6.001705251657604 0 0 0
1840 611 6 -0.82 16.863048294879167 2.8134586107766193 0.920803694323413 0 0 0
1841 611 7 0.41 16.782389536999382 3.8057621669803443 1.1973505924445356 0 0 0
1842 611 7 0.41 15.971087177847599 2.5289357840918876 0.4735862176364662 0 0 0
1876 623 6 -0.82 22.53496433052983 0.5640877085980927 6.9683188104212626 0 0 0
1877 623 7 0.41 23.476890974269587 0.9492665163110806 6.792306362912404 0 0 0
1878 623 7 0.41 22.58611314763838 30.895780152504802 6.761978298483923 0 -1 0
1963 652 6 -0.82 23.03894442673631 1.588263689383867 1.5728022346485209 0 0 0
1964 652 7 0.41 23.263115516145817 1.3187149567458791 0.615029057365629 0 0 0
1965 652 7 0.41 22.029331403940077 1.786546758773039 1.5846905219093534 0 0 0
2044 679 6 -0.82 19.978542597359393 1.3021987099884555 6.35395687995126 0 0 0
2045 679 7 0.41 20.965750689432546 1.026011029930381 6.46119976210885 0 0 0
2046 679 7 0.41 19.793580948855016 1.6106787357528598 5.3844223370429924 0 0 0
2257 750 6 -0.82 16.643042936400906 5.480981642045618 1.6839154725110985 0 0 0
2258 750 7 0.41 16.583610081687763 6.282032315470674 2.322184843225079 0 0 0
2259 750 7 0.41 16.830449304338067 5.870357509444035 0.7320765568803375 0 0 0
2353 782 6 -0.82 17.109186761923983 0.6941614333654514 2.5358224220442507 0 0 0
2354 782 7 0.41 17.97027977408464 0.7320854829998397 3.074066357936754 0 0 0
2355 782 7 0.41 17.0610802116807 1.4659421562032644 1.8430718639134596 0 0 0
2785 926 6 -0.82 22.94784970717382 2.4716678301400745 4.372848870453542 0 0 0
2786 926 7 0.41 21.958600903256222 2.254850276508404 4.465096771296091 0 0 0
2787 926 7 0.41 23.2249990765941 2.3595276022044627 3.389398907672547 0 0 0
10 1 6 -0.82 31.025369854367298 6.524330999242758 4.197455876212282 0 0 0
12 1 7 0.41 30.72001809558525 6.71952914725085 5.16903640474054 0 0 0
227 73 7 0.41 27.08002196168533 6.621163623514072 29.35710731023254 0 0 0
466 153 6 -0.82 28.694379673777725 4.023911585932733 4.6413987795979414 0 0 0
467 153 7 0.41 29.153727733991946 3.9256813242431163 5.567972255791674 0 0 0
468 153 7 0.41 27.693463850287888 4.134133434652303 4.790496257618019 0 0 0
766 253 6 -0.82 28.425159854810047 2.724769791003042 1.0649077043125306 0 0 0
767 253 7 0.41 29.146118955431618 2.074050462570262 0.7368053417936132 0 0 0
768 253 7 0.41 28.977036981452326 3.489315670559562 1.5218206489637272 0 0 0
844 279 6 -0.82 26.44583004959673 2.7154519839553584 2.86685241670348 0 0 0
845 279 7 0.41 26.72086041290558 2.0101672134613366 3.607871226784515 0 0 0
846 279 7 0.41 27.159392066978786 2.6507578158744143 2.1349856624320847 0 0 0
901 298 6 -0.82 24.867441313316174 1.5865097874468466 6.019468366359173 0 0 0
902 298 7 0.41 24.216182095736432 1.9069795767017304 5.274900909313776 0 0 0
903 298 7 0.41 25.317435040766046 0.7133044874680209 5.7207101771086455 0 0 0
922 305 6 -0.82 26.4194169333135 5.398892670816028 2.748068750532848 0 0 0
923 305 7 0.41 26.21595264666238 5.830644719621284 3.6696637826258653 0 0 0
924 305 7 0.41 26.416322232927577 4.37197809393315 2.9142453492754896 0 0 0
955 316 6 -0.82 23.493988255663247 5.073032394251668 2.313538288094166 0 0 0
956 316 7 0.41 24.156004730719804 4.307209597284171 2.185028097696949 0 0 0
957 316 7 0.41 24.01672615688811 5.8733467457609185 2.689045426469413 0 0 0
1156 383 6 -0.82 0.17706123699477397 5.970342505415811 0.384742908084374 1 0 0
1157 383 7 0.41 31.343232664382654 6.952744270408659 0.12498459656356813 0 0 0
1158 383 7 0.41 30.860464461266396 5.66075352642546 1.095165346051973 0 0 0
1180 391 6 -0.82 30.39784807459752 30.54181805832373 3.57385229359253 0 -1 0
1181 391 7 0.41 30.210344420122507 0.02355984145106391 4.1298087453126415 0 0 0
1182 391 7 0.41 31.12699990418216 30.759236598282115 2.8912158280841918 0 -1 0
1480 491 6 -0.82 29.99742152994177 4.438765687298541 2.40316889092183 0 0 0
1481 491 7 0.41 29.47279381832194 4.165709801900945 3.2648571086918516 0 0 0
1513 502 6 -0.82 29.74883853357932 4.120442335762482 7.140297135147839 0 0 0
1514 502 7 0.41 29.728560531171553 5.150466585054707 7.14554520898357 0 0 0
1515 502 7 0.41 29.273772214629552 3.7014182066322374 7.950405519342674 0 0 0
1654 549 6 -0.82 28.670494273879818 7.124201220542185 1.717073238143453 0 0 0
1655 549 7 0.41 28.637445608978627 6.192557435073378 2.134743787208316 0 0 0
1656 549 7 0.41 27.833597682227524 7.259984917046671 1.1581021388464694 0 0 0
1762 585 6 -0.82 23.06815464447473 3.9925774530927174 6.964097787777822 0 0 0
1763 585 7 0.41 24.054243308912827 3.988699675687343 7.249203838677717 0 0 0
2020 671 6 -0.82 30.859077691270247 1.3381537994383532 0.8001094941067284 0 0 0
2022 671 7 0.41 31.145610909527505 1.6553613744969071 31.21750055775772 0 0 -1
2032 675 6 -0.82 25.720265851818606 5.863009465453507 5.319577708328614 0 0 0
2033 675 7 0.41 25.784463337478606 5.196292440761625 6.101417200924823 0 0 0
2034 675 7 0.41 24.906017704470496 6.472584180677779 5.442914382379438 0 0 0
2191 728 6 -0.82 24.85779394721248 31.261479032481194 2.72198452452631 0 -1 0
2192 728 7 0.41 25.788916559993634 0.3223081452449914 2.6584280864435934 0 0 0
2193 728 7 0.41 24.180737604953052 0.5684879700807431 2.286438245478343 0 0 0
2293 762 6 -0.82 25.20853094313374 30.160717217762016 5.221465060563771 0 0 0
2334 775 7 0.41 24.78125052324192 8.26533922877304 3.8877057410003033 0 0 0
2512 835 6 -0.82 26.696029272713766 4.616231125680928 0.15282611698453416 0 0 0
2514 835 7 0.41 27.222112971896884 3.7471127635765704 0.37808839896491947 0 0 0
2554 849 6 -0.82 27.389984492915662 0.7588070754714502 4.401536707798694 0 0 0
2555 849 7 0.41 27.487232179365048 31.095283306847328 4.21172572229776 0 -1 0
2556 849 7 0.41 28.14212231305592 0.9830857290851055 5.061072842050524 0 0 0
2614 869 6 -0.82 29.502579198264474 1.2335860052049108 6.033961166654062 0 0 0
2615 869 7 0.41 29.18877343934787 1.7778194987160196 6.84471885900016 0 0 0
2616 869 7 0.41 30.375684795222003 1.6783782049922844 5.669086939780042 0 0 0
2660 884 7 0.41 29.71230138607519 8.58774963238957 31.22342008096907 0 0 -1
2830 941 6 -0.82 29.890314798486084 6.882263357742054 6.645668508272396 0 0 0
2831 941 7 0.41 30.28565908570983 7.715211647244532 7.112143660375446 0 0 0
2832 941 7 0.41 28.868255601382856 7.061365011005169 6.645584253065784 0 0 0
3064 1019 6 -0.82 25.845563893975935 3.758540087193913 7.189244430503483 0 0 0
3065 1019 7 0.41 25.49662679781816 2.896307600121044 6.7177022625708585 0 0 0
3066 1019 7 0.41 26.617432774406687 3.48490388517703 7.807704581039025 0 0 0
91 28 6 -0.82 1.0593216206999516 11.425939338258942 1.5137525828299443 0 0 0
92 28 7 0.41 1.534078217796492 10.538009179496392 1.2621007874809893 0 0 0
93 28 7 0.41 0.20092763705774058 11.176546488787988 2.0093556554701215 0 0 0
139 44 6 -0.82 30.648218386018957 12.557454192304627 5.073518579735992 0 0 0
538 177 6 -0.82 1.097613221848649 14.13949957951588 3.546410051168496 0 0 0
539 177 7 0.41 0.557409192664306 13.315952893944077 3.8367851329311367 0 0 0
540 177 7 0.41 1.2624653935668924 14.121304444460385 2.521455808074346 0 0 0
603 198 7 0.41 3.505599781728555 16.515663856136012 0.8882043624573912 0 0 0
616 203 6 -0.82 7.139640124765901 9.68418600726124 5.105837666640228 0 0 0
617 203 7 0.41 7.401565656995494 8.691604788398116 4.99880421203332 0 0 0
618 203 7 0.41 8.056715716684218 10.17621968774274 5.149473798082447 0 0 0
934 309 6 -0.82 7.605887964331515 9.797135618893885 2.3402150009221137 0 0 0
935 309 7 0.41 7.374551652294649 9.904464321088863 3.337100853497758 0 0 0
936 309 7 0.41 6.824635342238281 10.275684467922781 1.8274438422026216 0 0 0
1027 340 6 -0.82 1.4537762575916695 14.074034756333438 0.9511200185638983 0 0 0
1028 340 7 0.41 0.7629397872288861 14.42758180173495 0.2663866113558583 0 0 0
1029 340 7 0.41 1.3676002935707123 13.042574039669924 0.9993506055425704 0 0 0
1078 357 6 -0.82 3.6384029683933097 11.99023800399311 2.7414083237784297 0 0 0
1079 357 7 0.41 3.8049588928244833 11.68930206482086 3.7073918926649747 0 0 0
1080 357 7 0.41 2.660747236288656 11.812593963339964 2.4720306702847763 0 0 0
1159 384 6 -0.82 4.773130550496384 11.030585241467833 5.883165806635073 0 0 0
1160 384 7 0.41 5.649948339078369 10.587340495064648 5.553398801996348 0 0 0
1161 384 7 0.41 4.2964636462473536 10.420717896671363 6.544304222460008 0 0 0
1459 484 6 -0.82 1.5758883232585368 14.537787129287876 8.179428251113064 0 0 0
1460 484 7 0.41 1.7595557802752408 14.149274033304524 7.239865764301327 0 0 0
1461 484 7 0.41 0.8794632706615925 13.905085924751882 8.602980741972853 0 0 0
1493 495 7 0.41 0.5612082961894148 14.983868635308346 4.858180851032197 0 0 0
1564 519 6 -0.82 0.17624866243850615 8.684549369363456 2.5810928584726827 0 0 0
1565 519 7 0.41 1.1128358754073524 8.739125837942312 2.136129170480112 0 0 0
1566 519 7 0.41 0.08644313096882428 7.798938746045111 3.1014820063601016 0 0 0
1741 578 6 -0.82 1.8413465926720054 12.948438435722386 6.051333691852451 0 0 0
1742 578 7 0.41 2.160961189883915 12.24804896398107 6.739634199546718 0 0 0
1743 578 7 0.41 0.8849535502301619 12.739959725337012 5.7280601411543195 0 0 0
2014 669 6 -0.82 5.57113543122026 10.89167443375062 1.1766542221207617 0 0 0
2016 669 7 0.41 4.778703016773252 11.296628600451823 1.7043785519849286 0 0 0
2305 766 6 -0.82 6.997459431592545 7.142697445383661 8.317567948375864 0 0 0
2306 766 7 0.41 6.519496639365662 6.7670143470787485 7.4903203792650555 0 0 0
2461 818 6 -0.82 6.972748205199773 14.54370495097486 4.17062337279571 0 0 0
2462 818 7 0.41 6.35530392312788 14.19356629174249 4.909404719473512 0 0 0
2463 818 7 0.41 7.805517052955458 14.934986232244048 4.620943226906754 0 0 0
2500 831 6 -0.82 4.825929614298546 14.458156309587153 2.292361338860264 0 0 0
2501 831 7 0.41 5.780928421291449 14.452153758620309 2.675825135321938 0 0 0
2502 831 7 0.41 4.438517020378112 13.501536311702441 2.288391332971061 0 0 0
2518 837 6 -0.82 2.3733898617106925 9.082130476458724 1.060838739183778 0 0 0
2519 837 7 0.41 2.3604484624383826 9.349034084387895 0.06151849868750198 0 0 0
2520 837 7 0.41 3.078391041908609 8.332234699711352 1.226050524862359 0 0 0
2797 930 6 -0.82 3.5562406333599665 15.23054679975559 4.60467753411071 0 0 0
2798 930 7 0.41 4.0187248543869165 15.086702342013215 3.690754996640359 0 0 0
2799 930 7 0.41 2.6193596924040916 14.821917517042053 4.514824272606423 0 0 0
2899 964 6 -0.82 5.023841755576658 13.66181303630358 6.432547438706011 0 0 0
2900 964 7 0.41 4.327813138003377 14.158263913742056 5.859830569937047 0 0 0
2901 964 7 0.41 4.907382851566386 12.645454412360055 6.286621311185372 0 0 0
43 12 6 -0.82 14.915669417421443 14.611473299841897 6.698893738368497 0 0 0
45 12 7 0.41 14.634767293478907 13.619465391067854 6.835571633784404 0 0 0
147 46 7 0.41 12.05472882344997 8.138250682495105 7.941759629652351 0 0 0
160 51 6 -0.82 14.764980442773314 7.760401718001642 5.513791160653137 0 0 0
161 51 7 0.41 14.520853302435658 6.894731097172649 6.02278821974514 0 0 0
162 51 7 0.41 15.601580550398143 8.16488757823667 5.9860699805202495 0 0 0
388 127 6 -0.82 13.942329515809952 9.896661234315834 4.024629249311306 0 0 0
389 127 7 0.41 14.16854648554066 9.116675762316998 4.6781492370744 0 0 0
390 127 7 0.41 14.581103702404581 10.670379546869418 4.230758855670609 0 0 0
505 166 6 -0.82 9.930030434351854 8.508943105799581 1.8675647578312593 0 0 0
506 166 7 0.41 9.021234021894557 8.997054005276427 1.9606346673698658 0 0 0
507 166 7 0.41 9.876511560819004 7.875824176078661 1.054174885650663 0 0 0
557 183 7 0.41 10.525553493633273 16.234574963046185 6.749540536733138 0 0 0
569 187 7 0.41 15.475456346317845 15.823459039875319 0.2677655304997373 0 0 0
570 187 7 0.41 14.087969960971469 16.020624203137217 1.2090777440959675 0 0 0
1087 360 6 -0.82 9.519192408161425 13.373602671541079 6.392778754272271 0 0 0
1088 360 7 0.41 10.036441193282629 13.317932121976327 7.279215780340527 0 0 0
1089 360 7 0.41 9.545767965885727 14.330759256364656 6.013324762960541 0 0 0
1189 394 6 -0.82 12.617062430357091 15.415626854594551 5.055747289638981 0 0 0
1190 394 7 0.41 12.72884920125708 14.717698256490788 5.784894021880474 0 0 0
1236 409 7 0.41 15.721437348507168 13.97159276840153 1.433790507901897 0 0 0
1351 448 6 -0.82 11.524883967548622 8.674697785610297 4.041436509495184 0 0 0
1352 448 7 0.41 12.43643413416697 9.166672040980858 3.999826253436771 0 0 0
1353 448 7 0.41 11.090389981591384 8.584913454957587 3.102360448957806 0 0 0
1417 470 6 -0.82 11.709211707882043 11.425800148216267 6.948830394416968 0 0 0
1418 470 7 0.41 10.802250395739556 11.703240221144473 6.56931291756794 0 0 0
1419 470 7 0.41 11.637817394662793 10.435081477170694 7.26096444753224 0 0 0
1912 635 6 -0.82 10.647615652533467 11.461988883858997 1.7223966861775015 0 0 0
1913 635 7 0.41 11.357384558808068 10.742441853554814 1.5946044825533854 0 0 0
1914 635 7 0.41 9.833976707495866 11.035637949456282 2.174454964576356 0 0 0
1927 640 6 -0.82 8.816402342308464 14.995400032309533 31.061705060342657 0 0 -1
1928 640 7 0.41 9.233653851562265 15.25435377139059 0.6103668598616451 0 0 0
1929 640 7 0.41 8.878911005439614 13.965122889027267 30.95177640060258 0 0 -1
2209 734 6 -0.82 9.638968417757695 10.557746854827599 4.87966102966036 0 0 0
2210 734 7 0.41 10.415140195155699 9.880968951011056 4.793912612044248 0 0 0
2211 734 7 0.41 9.92030419965786 11.503423000970725 4.619483538361721 0 0 0
2440 811 6 -0.82 11.35659660125066 14.139782785438978 1.0376449525611233 0 0 0
2441 811 7 0.41 11.134554016002593 13.185624622845351 1.3561044007478453 0 0 0
2442 811 7 0.41 11.698838975389506 14.694914334750472 1.8181362871082616 0 0 0
2548 847 6 -0.82 13.880175078921333 9.393083975255042 1.312441740422597 0 0 0
2549 847 7 0.41 13.873588464097752 8.382317569795072 1.4385470848518975 0 0 0
2550 847 7 0.41 13.92369841556241 9.779206826209084 2.2694380670870715 0 0 0
2551 848 6 -0.82 14.246772169853942 12.051780686375157 7.106425988398942 0 0 0
2552 848 7 0.41 13.216722575534849 11.9102725722456 6.989894950273992 0 0 0
2630 874 7 0.41 14.31934211163491 14.040826991048535 31.13063632476545 0 0 0
2859 950 7 0.41 15.139985960847842 15.934432055222949 2.8475932444613985 0 0 0
44 12 7 0.41 15.818351124123165 14.618360316157116 6.189189228394957 0 0 0
469 154 6 -0.82 17.01103166286081 8.827933385702012 6.412694733610829 0 0 0
470 154 7 0.41 17.312946242153966 9.753476293702288 6.736670515133414 0 0 0
471 154 7 0.41 17.789925820597645 8.148792989335984 6.503379877049783 0 0 0
703 232 6 -0.82 19.870041386674938 10.969807379024424 2.026526646047375 0 0 0
704 232 7 0.41 19.099541449224166 10.443919920473638 1.567926094238011 0 0 0
705 232 7 0.41 20.759848115852698 10.772005953397514 1.5540307458791944 0 0 0
1234 409 6 -0.82 16.46119445556337 13.272912559194488 1.607957562470015 0 0 0
1235 409 7 0.41 17.329078743764722 13.83409044721136 1.5247520840205906 0 0 0
1390 461 6 -0.82 22.5330628512413 10.049048468607518 4.986611283013213 0 0 0
1391 461 7 0.41 21.729604139093627 10.674689566462765 5.1723233244507245 0 0 0
1392 461 7 0.41 22.71483762491935 9.575473744710807 5.881885960793719 0 0 0
1475 489 7 0.41 15.968684883665901 11.752225660441548 0.5497793041605592 0 0 1
1558 517 6 -0.82 23.248395372712878 14.900662198306646 3.3965375179687642 0 0 0
1573 522 6 -0.82 18.377165549373906 10.07858543979412 4.089675450510593 0 0 0
1574 522 7 0.41 19.006181815254717 10.486069265623323 3.37314793823353 0 0 0
1575 522 7 0.41 18.946416669076182 9.64713103852869 4.818480038591778 0 0 0
1906 633 6 -0.82 20.63880531424568 11.614290181232455 6.041502497404043 0 0 0
1907 633 7 0.41 20.26228079003159 10.873108578101176 6.660785858880448 0 0 0
1908 633 7 0.41 20.564858151523058 12.457454569719769 6.632601488929506 0 0 0
1918 637 6 -0.82 21.026321802220963 15.368535992449639 4.917824354831523 0 0 0
1919 637 7 0.41 21.05768391905124 14.807574739441186 5.769597061919484 0 0 0
1920 637 7 0.41 21.815924730600695 15.08108199085943 4.308819190861611 0 0 0
1969 654 6 -0.82 22.09581651493269 10.964143725297506 0.09829757024298125 0 0 1
2245 746 6 -0.82 17.457592331624515 11.594893880802022 7.336998425611347 0 0 0
2246 746 7 0.41 18.125260639395798 12.369603058757527 7.376494396545914 0 0 0
2247 746 7 0.41 16.656200493227846 11.8710315110525 6.75974186407712 0 0 0
2392 795 6 -0.82 17.11463486521592 14.575531138360999 5.146952681688972 0 0 0
2393 795 7 0.41 18.04007274443007 14.978105202085697 5.001617385654654 0 0 0
2394 795 7 0.41 17.04902368383515 13.635278194488544 4.733639367272536 0 0 0
2812 935 6 -0.82 16.421620580291812 11.922234809132172 4.011570041185954 0 0 0
2813 935 7 0.41 17.152325223251946 11.188229468831132 4.062470548417528 0 0 0
2814 935 7 0.41 16.414092341402895 12.310857873691692 3.0537794394775 0 0 0
2902 965 6 -0.82 17.767707453251464 9.494396949042729 1.1609521317661275 0 0 0
2903 965 7 0.41 17.091888634254556 9.636146153616494 0.4090515914310317 0 0 0
2904 965 7 0.41 17.335097660486362 8.942826894744519 1.9194227657233813 0 0 0
3016 1003 6 -0.82 16.50788202358986 8.14073976555759 3.3096324216577218 0 0 0
3017 1003 7 0.41 17.14188006775515 8.803346674146447 3.783649671324141 0 0 0
3018 1003 7 0.41 15.808685156555695 7.85483559433369 4.010756598903042 0 0 0
140 44 7 0.41 30.077730058875556 12.894744604667187 5.872514185062623 0 0 0
141 44 7 0.41 30.019223551677612 12.12400096725315 4.387903451974157 0 0 0
169 54 6 -0.82 29.24310837641436 13.46732530562016 7.257408529000128 0 0 0
170 54 7 0.41 29.48862329220645 14.476555887880709 7.32416653251894 0 0 0
171 54 7 0.41 28.231332711252033 13.430222183947656 7.387637439803022 0 0 0
196 63 6 -0.82 24.133165291303797 12.240537119383665 3.92399917377392 0 0 0
197 63 7 0.41 23.72065076168612 13.128173962057273 3.5916603265345124 0 0 0
198 63 7 0.41 23.3894110273103 11.53697501191099 4.000886313112228 0 0 0
364 119 6 -0.82 29.059762883122794 9.065364225377849 4.1543242503045565 0 0 0
365 119 7 0.41 28.510089633945586 8.31034452809636 3.736748446227696 0 0 0
366 119 7 0.41 30.038957509338317 8.770257166370781 4.1450627058811325 0 0 0
433 142 6 -0.82 25.59343773450013 11.478950026421181 6.169088996542854 0 0 0
434 142 7 0.41 25.313817242632567 10.546393571438934 6.520550066552336 0 0 0
435 142 7 0.41 25.02694570984665 11.716424548769323 5.339025587084129 0 0 0
508 167 6 -0.82 25.99768589558505 14.825352570439325 3.4837400724428824 0 0 0
509 167 7 0.41 26.185369537600724 13.90513737300053 3.0743045052096303 0 0 0
510 167 7 0.41 26.497333181831937 14.872902101001147 4.393308912334684 0 0 0
561 184 7 0.41 23.349365584459157 14.275125980773621 7.471476972730505 0 0 0
562 185 6 -0.82 23.774273449592677 15.674498767176376 0.5965552013574298 0 0 0
563 185 7 0.41 24.30050381601166 14.798548338131251 0.7429573215886994 0 0 0
715 236 6 -0.82 25.09070229698072 9.155141988653375 7.624024565451937 0 0 0
716 236 7 0.41 24.163183994599223 8.709362840879818 7.537308829908137 0 0 0
717 236 7 0.41 25.064281063879374 9.868188408425516 8.383883929782984 0 0 0
721 238 6 -0.82 29.114367091964443 14.172325782385991 1.4002422747658405 0 0 0
722 238 7 0.41 28.997595231091477 13.314992092678 1.9418532908856794 0 0 0
723 238 7 0.41 28.250121021237536 14.387741218658343 0.8674042652934489 0 0 0
1123 372 6 -0.82 26.245443219536135 9.258912410607621 3.7809104163779104 0 0 0
1124 372 7 0.41 26.30278019674813 9.92239342542022 3.0146862352826345 0 0 0
1125 372 7 0.41 27.064051251581887 9.381490661391007 4.3785138621255655 0 0 0
1294 429 6 -0.82 27.390187452590972 7.747749145483608 7.176220241108199 0 0 0
1295 429 7 0.41 26.375445987399917 7.911445289394013 7.264985965756179 0 0 0
1296 429 7 0.41 27.739772042568696 8.714685567362263 7.105331487551817 0 0 0
1560 517 7 0.41 24.261815980170983 15.032240582279092 3.552673356750582 0 0 0
1660 551 6 -0.82 24.544278516269745 13.143187544076138 0.9536694336799348 0 0 1
1882 625 6 -0.82 27.944930576089586 10.433804945918176 7.344058019693814 0 0 0
1883 625 7 0.41 27.778627593538474 10.230283969804082 8.343958419610491 0 0 0
1884 625 7 0.41 27.140027569468533 10.954001267075027 6.956055349733821 0 0 0
1915 636 6 -0.82 27.06210454442545 15.243280333400921 5.989072952246568 0 0 0
1916 636 7 0.41 27.917776584700587 15.659270945451116 6.369938578076436 0 0 0
1917 636 7 0.41 26.28850473358782 15.931573162430771 6.091225578012041 0 0 0
2018 670 7 0.41 29.77967796413319 15.646205689936178 4.383096017328203 0 0 0
2019 670 7 0.41 29.348699980285932 15.338907247858335 2.784136153604916 0 0 0
2188 727 6 -0.82 26.595274947683663 12.02355060979365 2.7056526711221554 0 0 0
2189 727 7 0.41 25.72155465820726 12.026105423290316 3.2692208384414356 0 0 0
2190 727 7 0.41 26.279593746792493 12.03430301074321 1.7274022068553134 0 0 0
2332 775 6 -0.82 23.80591551652257 7.913692166633355 3.8696241379764538 0 0 0
2333 775 7 0.41 23.22723814733333 8.73052644689984 4.138972101736456 0 0 0
2371 788 6 -0.82 28.778262272117068 11.114903452411719 31.345516371496664 0 0 -1
2372 788 7 0.41 29.470103070709133 11.609745015926936 30.75084210290056 0 0 -1
2373 788 7 0.41 29.188846149769287 11.020011211388356 0.925128059645064 0 0 0
2419 804 6 -0.82 30.710660117872244 9.331976261314425 7.482071714570481 0 0 0
2420 804 7 0.41 0.0633041050540406 9.769696716585994 6.892862138275304 1 0 0
2659 884 6 -0.82 30.72179103241062 8.699177594208434 31.3149227262076 0 0 -1
2661 884 7 0.41 30.98343193781326 8.739335288995594 0.9598397513774413 0 0 0
2680 891 6 -0.82 29.30829263641167 11.407954307238068 2.8029288545234996 0 0 0
2681 891 7 0.41 29.41499864596298 10.486529082826307 3.276463598374046 0 0 0