LAMMPS (18 Feb 2020)
# fcc nickel in a 3d periodic box

clear
units           metal
atom_style      spin

dimension       3
boundary        p p p

# necessary for the serial algorithm (sametag)
atom_modify     map array

lattice         fcc 3.524
Lattice spacing in x,y,z = 3.524 3.524 3.524
region          box block 0.0 5.0 0.0 5.0 0.0 5.0
create_box      1 box
Created orthogonal box = (0 0 0) to (17.62 17.62 17.62)
  1 by 2 by 2 MPI processor grid
create_atoms    1 box
Created 500 atoms
  create_atoms CPU = 0.000828981 secs

# setting mass, mag. moments, and interactions for cobalt

mass            1 58.69

set             group all spin/random 31 0.63
  500 settings made for spin/random
#set            group all spin 0.63 0.0 0.0 1.0
velocity        all create 100 4928459 rot yes dist gaussian

pair_style      hybrid/overlay eam/alloy spin/exchange 4.0
pair_coeff      * * eam/alloy Ni99.eam.alloy Ni
pair_coeff      * * spin/exchange exchange 4.0 0.50 0.2280246862 1.229983475

neighbor        0.1 bin
neigh_modify    every 10 check yes delay 20

fix             1 all precession/spin zeeman 0.0 0.0 0.0 1.0
fix_modify 	1 energy yes
fix             2 all langevin/spin 0.0 0.0 21

fix             3 all nve/spin lattice moving
timestep        0.0001

# compute and output options

compute         out_mag    all spin
compute         out_pe     all pe
compute         out_ke     all ke
compute         out_temp   all temp

variable        magz      equal c_out_mag[3]
variable        magnorm   equal c_out_mag[4]
variable        emag      equal c_out_mag[5]
variable        tmag      equal c_out_mag[6]

thermo_style    custom step time v_magnorm pe v_emag temp v_tmag etotal
thermo          50

compute         outsp all property/atom spx spy spz sp fmx fmy fmz
dump            1 all custom 100 dump.lammpstrj type x y z c_outsp[1] c_outsp[2] c_outsp[3] c_outsp[4] c_outsp[5] c_outsp[6] c_outsp[7]

run             1000
Neighbor list info ...
  update every 10 steps, delay 20 steps, check yes
  max neighbors/atom: 2000, page size: 100000
  master list distance cutoff = 5.90375
  ghost atom cutoff = 5.90375
  binsize = 2.95187, bins = 6 6 6
  2 neighbor lists, perpetual/occasional/extra = 2 0 0
  (1) pair eam/alloy, perpetual, half/full from (2)
      attributes: half, newton on
      pair build: halffull/newton
      stencil: none
      bin: none
  (2) pair spin/exchange, perpetual
      attributes: full, newton on
      pair build: full/bin/atomonly
      stencil: full/bin/3d
      bin: standard
Per MPI rank memory allocation (min/avg/max) = 7.799 | 7.799 | 7.799 Mbytes
Step Time v_magnorm PotEng v_emag Temp v_tmag TotEng 
       0            0  0.028733803   -2224.5541   0.40997576    100.03408   -9550.1342   -2218.1018 
      50        0.005  0.028733805   -2224.4707   0.25324083    98.741633   -15727.749   -2218.1018 
     100         0.01  0.028733812   -2224.3632  -0.37320751    97.073875    11244.373   -2218.1018 
     150        0.015  0.028733819   -2224.1696   -1.3971549    94.073447    3250.0517   -2218.1018 
     200         0.02  0.028733825   -2223.8695   -2.7238372    89.419944     1838.752   -2218.1018 
     250        0.025  0.028733829   -2223.5247   -4.2684428     84.07494    1304.3675   -2218.1018 
     300         0.03  0.028733824    -2223.266   -5.9636712     80.06368    1025.7815   -2218.1018 
     350        0.035   0.02873381    -2223.221   -7.7386326    79.366702    844.49729   -2218.1018 
     400         0.04  0.028733802   -2223.4588   -9.5148059    83.052751    715.20758   -2218.1018 
     450        0.045  0.028733806   -2223.9896   -11.234935    91.282747    621.75552   -2218.1018 
     500         0.05   0.02873381   -2224.7775   -12.875184    103.49836    550.04479   -2218.1018 
     550        0.055  0.028733808   -2225.7236   -14.413473    118.16526    495.70417   -2218.1018 
     600         0.06  0.028733803     -2226.67   -15.812466    132.83837    461.35805   -2218.1018 
     650        0.065  0.028733808   -2227.4809   -17.061311    145.41049    444.38951   -2218.1018 
     700         0.07  0.028733818   -2228.0887   -18.181903    154.83414    438.85866   -2218.1018 
     750        0.075  0.028733823   -2228.4598   -19.176259    160.58645    436.90462   -2218.1018 
     800         0.08  0.028733825   -2228.6173   -20.035157    163.02829    429.73193   -2218.1018 
     850        0.085  0.028733825    -2228.707   -20.806548     164.4197    419.73763   -2218.1018 
     900         0.09  0.028733829   -2228.9287   -21.571419     167.8571    411.59699   -2218.1018 
     950        0.095  0.028733825     -2229.39   -22.365879    175.00875    402.66175   -2218.1018 
    1000          0.1  0.028733821    -2230.014   -23.133464    184.68305    391.05824   -2218.1018 
Loop time of 2.4967 on 4 procs for 1000 steps with 500 atoms

Performance: 3.461 ns/day, 6.935 hours/ns, 400.528 timesteps/s
100.0% CPU use with 4 MPI tasks x no OpenMP threads

MPI task timing breakdown:
Section |  min time  |  avg time  |  max time  |%varavg| %total
---------------------------------------------------------------
Pair    | 0.56602    | 0.57191    | 0.57641    |   0.5 | 22.91
Neigh   | 0.0040138  | 0.0041498  | 0.0043001  |   0.2 |  0.17
Comm    | 0.10294    | 0.10725    | 0.11458    |   1.5 |  4.30
Output  | 0.0047452  | 0.0047795  | 0.0048621  |   0.1 |  0.19
Modify  | 1.8049     | 1.8066     | 1.8079     |   0.1 | 72.36
Other   |            | 0.002003   |            |       |  0.08

Nlocal:    125 ave 139 max 112 min
Histogram: 1 0 1 0 0 0 1 0 0 1
Nghost:    1099 ave 1112 max 1085 min
Histogram: 1 0 0 1 0 0 0 1 0 1
Neighs:    4876 ave 5386 max 4426 min
Histogram: 1 0 0 1 0 1 0 0 0 1
FullNghs:  9752 ave 10845 max 8737 min
Histogram: 1 0 1 0 0 0 1 0 0 1

Total # of neighbors = 39008
Ave neighs/atom = 78.016
Neighbor list builds = 9
Dangerous builds = 0

Please see the log.cite file for references relevant to this simulation

Total wall time: 0:00:02
