LAMMPS (18 Feb 2020)
# fcc nickel in a 3d periodic box

clear
units 		metal
atom_style 	spin

dimension 	3
boundary 	p p p

# necessary for the serial algorithm (sametag)
atom_modify 	map array

lattice 	fcc 3.524
Lattice spacing in x,y,z = 3.524 3.524 3.524
region 		box block 0.0 5.0 0.0 5.0 0.0 5.0
create_box 	1 box
Created orthogonal box = (0 0 0) to (17.62 17.62 17.62)
  1 by 1 by 1 MPI processor grid
create_atoms 	1 box
Created 500 atoms
  create_atoms CPU = 0.00045085 secs

# setting mass, mag. moments, and interactions for cobalt

mass		1 58.69

set 		group all spin/random 31 0.63
  500 settings made for spin/random
#set 		group all spin 0.63 0.0 0.0 1.0
velocity 	all create 100 4928459 rot yes dist gaussian

pair_style 	hybrid/overlay eam/alloy spin/exchange 4.0
pair_coeff 	* * eam/alloy Ni99.eam.alloy Ni
pair_coeff 	* * spin/exchange exchange 4.0 0.50 0.2280246862 1.229983475

neighbor 	0.1 bin
neigh_modify 	every 10 check yes delay 20

fix 		1 all precession/spin cubic -0.0001 0.0 1.0 0.0 0.0 0.0 1.0 0.0 0.0 0.0 1.0 				      zeeman 0.0 0.0 0.0 1.0
fix_modify 	1 energy yes
fix 		2 all langevin/spin 0.0 0.0 21

fix 		3 all nve/spin lattice moving
timestep	0.0001

# compute and output options

compute 	out_mag    all spin
compute 	out_pe     all pe
compute 	out_ke     all ke
compute 	out_temp   all temp

variable 	magz      equal c_out_mag[3]
variable 	magnorm   equal c_out_mag[4]
variable 	emag      equal c_out_mag[5]
variable 	tmag      equal c_out_mag[6]

thermo_style    custom step time v_magnorm pe v_emag temp v_tmag etotal
thermo          50

compute 	outsp all property/atom spx spy spz sp fmx fmy fmz
dump 		1 all custom 50 dump.lammpstrj type x y z c_outsp[1] c_outsp[2] c_outsp[3] c_outsp[4] c_outsp[5] c_outsp[6] c_outsp[7]

run 		1000
Neighbor list info ...
  update every 10 steps, delay 20 steps, check yes
  max neighbors/atom: 2000, page size: 100000
  master list distance cutoff = 5.90375
  ghost atom cutoff = 5.90375
  binsize = 2.95187, bins = 6 6 6
  2 neighbor lists, perpetual/occasional/extra = 2 0 0
  (1) pair eam/alloy, perpetual, half/full from (2)
      attributes: half, newton on
      pair build: halffull/newton
      stencil: none
      bin: none
  (2) pair spin/exchange, perpetual
      attributes: full, newton on
      pair build: full/bin/atomonly
      stencil: full/bin/3d
      bin: standard
Per MPI rank memory allocation (min/avg/max) = 7.885 | 7.885 | 7.885 Mbytes
Step Time v_magnorm PotEng v_emag Temp v_tmag TotEng 
       0            0  0.028733803   -2224.5428   0.42125307    100.03408    -8603.706   -2218.0905 
      50        0.005  0.028732021   -2224.6359  0.081895124    101.47887   -34407.888   -2218.0904 
     100         0.01    0.0287304   -2224.6517  -0.69755414    101.73105    6238.4535     -2218.09 
     150        0.015  0.028729403   -2224.5158   -1.8417372    99.629794    2452.7607   -2218.0896 
     200         0.02  0.028731067   -2224.2073   -3.2554838    94.849715    1501.8625   -2218.0895 
     250        0.025  0.028732765   -2223.7944    -4.851641    88.447019    1110.3291   -2218.0895 
     300         0.03  0.028728169   -2223.4237   -6.5643692    82.697813     905.2202   -2218.0896 
     350        0.035   0.02871707   -2223.2576   -8.3372672    80.122838    772.40218   -2218.0896 
     400         0.04  0.028706605   -2223.4037   -10.108553    82.389555    672.72236   -2218.0895 
     450        0.045  0.028701727    -2223.883   -11.816999    89.823176    595.82956   -2218.0894 
     500         0.05  0.028706691   -2224.6296   -13.411565    101.39804    536.65866   -2218.0894 
     550        0.055  0.028714065   -2225.5117   -14.854639    115.07511    491.25787   -2218.0893 
     600         0.06  0.028713691   -2226.3826   -16.123209    128.58093    459.82107    -2218.089 
     650        0.065  0.028713232   -2227.1333   -17.210742    140.22137    441.15183    -2218.089 
     700         0.07   0.02871245   -2227.7384   -18.142557    149.60156    426.80154   -2218.0889 
     750        0.075  0.028712431   -2228.2524   -18.984934    157.56849    413.61924   -2218.0891 
     800         0.08   0.02872489   -2228.7266   -19.793136    164.91833    408.49483   -2218.0892 
     850        0.085  0.028733709   -2229.1638   -20.569819    171.69348    407.47868   -2218.0894 
     900         0.09  0.028737031   -2229.5524   -21.287104    177.71981    400.24086   -2218.0894 
     950        0.095  0.028743446   -2229.9131   -21.938194    183.31613    390.46773    -2218.089 
    1000          0.1  0.028751809   -2230.2806   -22.545689    189.01672    383.80802   -2218.0888 
Loop time of 4.46096 on 1 procs for 1000 steps with 500 atoms

Performance: 1.937 ns/day, 12.392 hours/ns, 224.167 timesteps/s
100.0% CPU use with 1 MPI tasks x no OpenMP threads

MPI task timing breakdown:
Section |  min time  |  avg time  |  max time  |%varavg| %total
---------------------------------------------------------------
Pair    | 2.0813     | 2.0813     | 2.0813     |   0.0 | 46.65
Neigh   | 0.016021   | 0.016021   | 0.016021   |   0.0 |  0.36
Comm    | 0.03261    | 0.03261    | 0.03261    |   0.0 |  0.73
Output  | 0.02771    | 0.02771    | 0.02771    |   0.0 |  0.62
Modify  | 2.2983     | 2.2983     | 2.2983     |   0.0 | 51.52
Other   |            | 0.005103   |            |       |  0.11

Nlocal:    500 ave 500 max 500 min
Histogram: 1 0 0 0 0 0 0 0 0 0
Nghost:    1956 ave 1956 max 1956 min
Histogram: 1 0 0 0 0 0 0 0 0 0
Neighs:    19504 ave 19504 max 19504 min
Histogram: 1 0 0 0 0 0 0 0 0 0
FullNghs:  39008 ave 39008 max 39008 min
Histogram: 1 0 0 0 0 0 0 0 0 0

Total # of neighbors = 39008
Ave neighs/atom = 78.016
Neighbor list builds = 9
Dangerous builds = 0


Please see the log.cite file for references relevant to this simulation

Total wall time: 0:00:04
