LAMMPS (30 Oct 2019)
# fcc nickel in a 3d periodic box

clear
units           metal
atom_style      spin

dimension       3
boundary        p p p

# necessary for the serial algorithm (sametag)
atom_modify     map array

lattice         fcc 3.524
Lattice spacing in x,y,z = 3.524 3.524 3.524
region          box block 0.0 5.0 0.0 5.0 0.0 5.0
create_box      1 box
Created orthogonal box = (0 0 0) to (17.62 17.62 17.62)
  1 by 1 by 1 MPI processor grid
create_atoms    1 box
Created 500 atoms
  create_atoms CPU = 0.000484943 secs

# setting mass, mag. moments, and interactions for cobalt

mass            1 58.69

set             group all spin/random 31 0.63
  500 settings made for spin/random
#set            group all spin 0.63 0.0 0.0 1.0
velocity        all create 100 4928459 rot yes dist gaussian

pair_style      hybrid/overlay eam/alloy spin/exchange 4.0
pair_coeff      * * eam/alloy Ni99.eam.alloy Ni
pair_coeff      * * spin/exchange exchange 4.0 0.50 0.2280246862 1.229983475

neighbor        0.1 bin
neigh_modify    every 10 check yes delay 20

fix             1 all precession/spin zeeman 0.0 0.0 0.0 1.0
fix             2 all langevin/spin 0.0 0.0 21

fix             3 all nve/spin lattice moving
timestep        0.0001

# compute and output options

compute         out_mag    all spin
compute         out_pe     all pe
compute         out_ke     all ke
compute         out_temp   all temp

variable        magz      equal c_out_mag[3]
variable        magnorm   equal c_out_mag[4]
variable        emag      equal c_out_mag[5]
variable        tmag      equal c_out_mag[6]

thermo_style    custom step time v_magnorm v_emag temp v_tmag etotal
thermo          50

compute         outsp all property/atom spx spy spz sp fmx fmy fmz
dump            1 all custom 100 dump.lammpstrj type x y z c_outsp[1] c_outsp[2] c_outsp[3] c_outsp[4] c_outsp[5] c_outsp[6] c_outsp[7]

run             1000
Neighbor list info ...
  update every 10 steps, delay 20 steps, check yes
  max neighbors/atom: 2000, page size: 100000
  master list distance cutoff = 5.90375
  ghost atom cutoff = 5.90375
  binsize = 2.95187, bins = 6 6 6
  2 neighbor lists, perpetual/occasional/extra = 2 0 0
  (1) pair eam/alloy, perpetual, half/full from (2)
      attributes: half, newton on
      pair build: halffull/newton
      stencil: none
      bin: none
  (2) pair spin/exchange, perpetual
      attributes: full, newton on
      pair build: full/bin/atomonly
      stencil: full/bin/3d
      bin: standard
Per MPI rank memory allocation (min/avg/max) = 7.885 | 7.885 | 7.885 Mbytes
Step Time v_magnorm v_emag Temp v_tmag TotEng 
       0            0  0.028733803   0.40997576    100.03408   -4775.0671   -2218.3068 
      50        0.005  0.028733807  0.070491717    101.47879   -28153.519   -2218.1371 
     100         0.01  0.028733815  -0.70937134     101.7311    2925.8177   -2217.7471 
     150        0.015  0.028733823    -1.853981     99.63039    1197.9339   -2217.1748 
     200         0.02  0.028733828   -3.2679239    94.850105    741.17431   -2216.4678 
     250        0.025  0.028733824    -4.863967    88.444584    550.36979   -2215.6698 
     300         0.03  0.028733807   -6.5763457    82.689581    449.78321   -2214.8136 
     350        0.035  0.028733783   -8.3489158    80.108798    384.32228   -2213.9273 
     400         0.04  0.028733763   -10.120216    82.374947    335.01545   -2213.0417 
     450        0.045  0.028733755   -11.828932    89.814597    296.88965   -2212.1873 
     500         0.05  0.028733762   -13.423712    101.39613    267.51686     -2211.39 
     550        0.055  0.028733783   -14.866724    115.07399    244.96012   -2210.6684 
     600         0.06  0.028733801   -16.135279    128.57849    229.33327   -2210.0342 
     650        0.065  0.028733804   -17.222838    140.22402    220.05718   -2209.4904 
     700         0.07  0.028733795   -18.154813    149.61295    212.95678   -2209.0244 
     750        0.075  0.028733781   -18.996903     157.5814    206.41327   -2208.6034 
     800         0.08  0.028733768   -19.804249    164.92075    203.88977   -2208.1997 
     850        0.085  0.028733752   -20.579151    171.67278    203.42363   -2207.8122 
     900         0.09  0.028733728   -21.294277    177.67238    199.84817   -2207.4547 
     950        0.095  0.028733715   -21.943945     183.2621     194.9614   -2207.1298 
    1000          0.1   0.02873374   -22.551277    188.99284    191.59796   -2206.8262 
Loop time of 4.30614 on 1 procs for 1000 steps with 500 atoms

Performance: 2.006 ns/day, 11.961 hours/ns, 232.227 timesteps/s
100.0% CPU use with 1 MPI tasks x no OpenMP threads

MPI task timing breakdown:
Section |  min time  |  avg time  |  max time  |%varavg| %total
---------------------------------------------------------------
Pair    | 2.038      | 2.038      | 2.038      |   0.0 | 47.33
Neigh   | 0.01566    | 0.01566    | 0.01566    |   0.0 |  0.36
Comm    | 0.032802   | 0.032802   | 0.032802   |   0.0 |  0.76
Output  | 0.014146   | 0.014146   | 0.014146   |   0.0 |  0.33
Modify  | 2.2003     | 2.2003     | 2.2003     |   0.0 | 51.10
Other   |            | 0.005288   |            |       |  0.12

Nlocal:    500 ave 500 max 500 min
Histogram: 1 0 0 0 0 0 0 0 0 0
Nghost:    1956 ave 1956 max 1956 min
Histogram: 1 0 0 0 0 0 0 0 0 0
Neighs:    19504 ave 19504 max 19504 min
Histogram: 1 0 0 0 0 0 0 0 0 0
FullNghs:  39008 ave 39008 max 39008 min
Histogram: 1 0 0 0 0 0 0 0 0 0

Total # of neighbors = 39008
Ave neighs/atom = 78.016
Neighbor list builds = 9
Dangerous builds = 0

Please see the log.cite file for references relevant to this simulation

Total wall time: 0:00:04
