LAMMPS (30 Apr 2019)
  using 1 OpenMP thread(s) per MPI task
# fcc nickel in a 3d periodic box

clear
  using 1 OpenMP thread(s) per MPI task
units 		metal
atom_style 	spin

dimension 	3
boundary 	p p p

# necessary for the serial algorithm (sametag)
atom_modify 	map array

lattice 	fcc 3.524
Lattice spacing in x,y,z = 3.524 3.524 3.524
region 		box block 0.0 5.0 0.0 5.0 0.0 5.0
create_box 	1 box
Created orthogonal box = (0 0 0) to (17.62 17.62 17.62)
  1 by 2 by 2 MPI processor grid
create_atoms 	1 box
Created 500 atoms
  create_atoms CPU = 0.000639439 secs

# setting mass, mag. moments, and interactions for cobalt

mass		1 58.69

set 		group all spin/random 31 0.63
  500 settings made for spin/random
#set 		group all spin 0.63 0.0 0.0 1.0
velocity 	all create 100 4928459 rot yes dist gaussian

pair_style 	hybrid/overlay eam/alloy spin/exchange 4.0
pair_coeff 	* * eam/alloy Ni99.eam.alloy Ni
pair_coeff 	* * spin/exchange exchange 4.0 0.50 0.2280246862 1.229983475

neighbor 	0.1 bin
neigh_modify 	every 10 check yes delay 20

fix 		1 all precession/spin cubic -0.0001 0.0 1.0 0.0 0.0 0.0 1.0 0.0 0.0 0.0 1.0 				      zeeman 0.0 0.0 0.0 1.0
fix_modify 	1 energy yes
fix 		2 all langevin/spin 0.0 0.0 21

fix 		3 all nve/spin lattice yes
timestep	0.0001

# compute and output options

compute 	out_mag    all spin
compute 	out_pe     all pe
compute 	out_ke     all ke
compute 	out_temp   all temp

variable 	magz      equal c_out_mag[3]
variable 	magnorm   equal c_out_mag[4]
variable 	emag      equal c_out_mag[5]
variable 	tmag      equal c_out_mag[6]

thermo_style    custom step time v_magnorm v_emag temp v_tmag etotal
thermo          50

compute 	outsp all property/atom spx spy spz sp fmx fmy fmz
dump 		50 all custom 1 dump.lammpstrj type x y z c_outsp[1] c_outsp[2] c_outsp[3] c_outsp[4] c_outsp[5] c_outsp[6] c_outsp[7]

run 		2000
Neighbor list info ...
  update every 10 steps, delay 20 steps, check yes
  max neighbors/atom: 2000, page size: 100000
  master list distance cutoff = 5.90375
  ghost atom cutoff = 5.90375
  binsize = 2.95187, bins = 6 6 6
  2 neighbor lists, perpetual/occasional/extra = 2 0 0
  (1) pair eam/alloy, perpetual, half/full from (2)
      attributes: half, newton on
      pair build: halffull/newton
      stencil: none
      bin: none
  (2) pair spin/exchange, perpetual
      attributes: full, newton on
      pair build: full/bin/atomonly
      stencil: full/bin/3d
      bin: standard
Per MPI rank memory allocation (min/avg/max) = 7.298 | 7.298 | 7.298 Mbytes
Step Time v_magnorm v_emag Temp v_tmag TotEng 
       0            0  0.028733803     0.455085    100.03408    -8603.706   -2218.0905 
      50        0.005  0.028732088    0.2980989     98.74184   -13360.862   -2218.0904 
     100         0.01   0.02873076  -0.32911738    97.074246    12749.405     -2218.09 
     150        0.015  0.028730298   -1.3537059    94.073558    3353.8731   -2218.0897 
     200         0.02  0.028733079   -2.6807428    89.419616    1868.0661   -2218.0895 
     250        0.025  0.028735725   -4.2256641    84.074249    1317.4563   -2218.0893 
     300         0.03  0.028728939   -5.9209085    80.063263    1033.1632   -2218.0893 
     350        0.035  0.028716731   -7.6957087     79.36782     849.1925   -2218.0893 
     400         0.04   0.02871114   -9.4720832    83.055773    718.36408   -2218.0893 
     450        0.045   0.02870879    -11.19254     91.28713    624.04151   -2218.0891 
     500         0.05  0.028708873   -12.832707    103.50343    551.85983   -2218.0892 
     550        0.055  0.028710315   -14.370603    118.16778    497.19527   -2218.0893 
     600         0.06  0.028707016   -15.769641    132.83264    462.57721    -2218.089 
     650        0.065  0.028706727   -17.018362    145.39247    445.40608   -2218.0888 
     700         0.07  0.028710482   -18.137792    154.80131    439.71677   -2218.0889 
     750        0.075  0.028705169   -19.130471    160.53663    437.67621   -2218.0892 
     800         0.08  0.028695336   -19.988452    162.95918    430.42912    -2218.089 
     850        0.085  0.028688393   -20.758389    164.33238    420.42991   -2218.0889 
     900         0.09  0.028684101   -21.521505    167.76167    412.29955    -2218.089 
     950        0.095  0.028684705   -22.314351      174.918    403.31757   -2218.0891 
    1000          0.1  0.028691284   -23.080026    184.60192      391.677   -2218.0893 
    1050        0.105  0.028687846   -23.714845    193.76312    379.81345   -2218.0893 
    1100         0.11  0.028682371   -24.191738    200.43041    372.65414   -2218.0893 
    1150        0.115  0.028684765   -24.569816    204.39323    368.53291   -2218.0891 
    1200         0.12  0.028678139   -24.892093      205.879    364.46365   -2218.0892 
    1250        0.125  0.028669738   -25.160227    205.09197    361.98015   -2218.0893 
    1300         0.13  0.028666626   -25.367813    202.69136    360.10649   -2218.0891 
    1350        0.135  0.028665511   -25.520784    199.79027    359.68033   -2218.0892 
    1400         0.14   0.02866749   -25.655936    197.91217      361.218   -2218.0892 
    1450        0.145  0.028666916    -25.80086     198.1933     361.5167   -2218.0889 
    1500         0.15  0.028660248   -25.953194     200.8243     356.0167    -2218.089 
    1550        0.155  0.028641778   -26.137444    205.80307    349.94961   -2218.0887 
    1600         0.16  0.028626894   -26.393372     212.6879    347.30341   -2218.0888 
    1650        0.165  0.028619835   -26.707923    219.63834    340.80511   -2218.0885 
    1700         0.17  0.028615681   -27.023214    224.25635    329.60947   -2218.0882 
    1750        0.175   0.02861597   -27.301445    225.47908    321.35253   -2218.0884 
    1800         0.18  0.028614544    -27.53764    224.03527    320.92639   -2218.0884 
    1850        0.185   0.02860894   -27.741581    221.74286    323.07034   -2218.0884 
    1900         0.19  0.028604135   -27.943034      220.659    322.60989   -2218.0884 
    1950        0.195  0.028602672   -28.160901    221.85908     318.8957   -2218.0885 
    2000          0.2  0.028597155   -28.365986    224.55298    311.53587   -2218.0886 
Loop time of 7.21663 on 4 procs for 2000 steps with 500 atoms

Performance: 2.394 ns/day, 10.023 hours/ns, 277.138 timesteps/s
98.1% CPU use with 4 MPI tasks x 1 OpenMP threads

MPI task timing breakdown:
Section |  min time  |  avg time  |  max time  |%varavg| %total
---------------------------------------------------------------
Pair    | 1.6337     | 1.6726     | 1.7259     |   2.7 | 23.18
Neigh   | 0.013023   | 0.01361    | 0.014188   |   0.4 |  0.19
Comm    | 0.19005    | 0.24933    | 0.2905     |   7.5 |  3.45
Output  | 1.4595     | 1.5171     | 1.5725     |   3.4 | 21.02
Modify  | 3.6943     | 3.7537     | 3.8093     |   2.3 | 52.01
Other   |            | 0.01025    |            |       |  0.14

Nlocal:    125 ave 132 max 121 min
Histogram: 2 0 0 0 1 0 0 0 0 1
Nghost:    1099 ave 1103 max 1092 min
Histogram: 1 0 0 0 0 1 0 0 0 2
Neighs:    4877 ave 5097 max 4747 min
Histogram: 2 0 0 0 1 0 0 0 0 1
FullNghs:  9754 ave 10298 max 9440 min
Histogram: 2 0 0 0 1 0 0 0 0 1

Total # of neighbors = 39016
Ave neighs/atom = 78.032
Neighbor list builds = 21
Dangerous builds = 0


Please see the log.cite file for references relevant to this simulation

Total wall time: 0:00:07
