# LAMMPS data file
10 atoms
10 ellipsoids
8 bonds

4 atom types
1 bond types

# System size
-20.000000 20.000000 xlo xhi
-20.000000 20.000000 ylo yhi
-20.000000 20.000000 zlo zhi

Masses

1 3.1575
2 3.1575
3 3.1575
4 3.1575

# Atom-ID, type, position, molecule-ID, ellipsoid flag, density
Atoms

1 1 -6.000000000000001e-01  0.000000000000000e+00  0.000000000000000e+00 1 1 1
2 2 -4.860249842674776e-01 -3.518234140414736e-01  3.897628551303122e-01 1 1 1
3 3 -1.874009511073395e-01 -5.699832309147915e-01  7.795257102606244e-01 1 1 1
4 4  1.824198365552941e-01 -5.715968887521518e-01  1.169288565390937e+00 1 1 1
5 1  4.829362784135484e-01 -3.560513319622209e-01  1.559051420521249e+00 1 1 1
6 4 -4.829362784135484e-01  3.560513319622209e-01  1.559051420521249e+00 2 1 1
7 1 -1.824198365552941e-01  5.715968887521516e-01  1.169288565390937e+00 2 1 1
8 2  1.874009511073395e-01  5.699832309147913e-01  7.795257102606243e-01 2 1 1
9 3  4.860249842674775e-01  3.518234140414733e-01  3.897628551303121e-01 2 1 1
10 4  5.999999999999996e-01 -1.332267629550188e-16 -1.110223024625157e-16 2 1 1

# Atom-ID, translational, rotational velocity
Velocities

1  0.000000000000000e+00  0.000000000000000e+00  0.000000000000000e+00  0.000000000000000e+00  0.000000000000000e+00  0.000000000000000e+00
2  0.000000000000000e+00  0.000000000000000e+00  0.000000000000000e+00  0.000000000000000e+00  0.000000000000000e+00  0.000000000000000e+00
3  0.000000000000000e+00  0.000000000000000e+00  0.000000000000000e+00  0.000000000000000e+00  0.000000000000000e+00  0.000000000000000e+00
4  0.000000000000000e+00  0.000000000000000e+00  0.000000000000000e+00  0.000000000000000e+00  0.000000000000000e+00  0.000000000000000e+00
5  0.000000000000000e+00  0.000000000000000e+00  0.000000000000000e+00  0.000000000000000e+00  0.000000000000000e+00  0.000000000000000e+00
6  0.000000000000000e+00  0.000000000000000e+00  0.000000000000000e+00  0.000000000000000e+00  0.000000000000000e+00  0.000000000000000e+00
7  0.000000000000000e+00  0.000000000000000e+00  0.000000000000000e+00  0.000000000000000e+00  0.000000000000000e+00  0.000000000000000e+00
8  0.000000000000000e+00  0.000000000000000e+00  0.000000000000000e+00  0.000000000000000e+00  0.000000000000000e+00  0.000000000000000e+00
9  0.000000000000000e+00  0.000000000000000e+00  0.000000000000000e+00  0.000000000000000e+00  0.000000000000000e+00  0.000000000000000e+00
10  0.000000000000000e+00  0.000000000000000e+00  0.000000000000000e+00  0.000000000000000e+00  0.000000000000000e+00  0.000000000000000e+00

# Atom-ID, shape, quaternion
Ellipsoids

1  1.173984503142341e+00  1.173984503142341e+00  1.173984503142341e+00  1.000000000000000e+00  0.000000000000000e+00  0.000000000000000e+00  0.000000000000000e+00
2  1.173984503142341e+00  1.173984503142341e+00  1.173984503142341e+00  9.513258223252946e-01  0.000000000000000e+00  0.000000000000000e+00  3.081869234362515e-01
3  1.173984503142341e+00  1.173984503142341e+00  1.173984503142341e+00  8.100416404457962e-01  0.000000000000000e+00  0.000000000000000e+00  5.863723567357894e-01
4  1.173984503142341e+00  1.173984503142341e+00  1.173984503142341e+00  5.899012371043606e-01  0.000000000000000e+00  0.000000000000000e+00  8.074754054847398e-01
5  1.173984503142341e+00  1.173984503142341e+00  1.173984503142341e+00  3.123349185122326e-01  0.000000000000000e+00  0.000000000000000e+00  9.499720515246527e-01
6  1.173984503142341e+00  1.173984503142341e+00  1.173984503142341e+00  0.000000000000000e+00  9.499720515246527e-01 -3.123349185122326e-01 -0.000000000000000e+00
7  1.173984503142341e+00  1.173984503142341e+00  1.173984503142341e+00  0.000000000000000e+00  8.074754054847401e-01 -5.899012371043604e-01  0.000000000000000e+00
8  1.173984503142341e+00  1.173984503142341e+00  1.173984503142341e+00  0.000000000000000e+00  5.863723567357896e-01 -8.100416404457959e-01  0.000000000000000e+00
9  1.173984503142341e+00  1.173984503142341e+00  1.173984503142341e+00 -0.000000000000000e+00 -3.081869234362514e-01  9.513258223252947e-01  0.000000000000000e+00
10  1.173984503142341e+00  1.173984503142341e+00  1.173984503142341e+00 -0.000000000000000e+00  1.110223024625157e-16  1.000000000000000e+00 -0.000000000000000e+00

# Bond topology
Bonds

1  1  1  2
2  1  2  3
3  1  3  4
4  1  4  5
5  1  6  7
6  1  7  8
7  1  8  9
8  1  9  10
