LAMMPS (24 Mar 2017)
variable number	equal 1
variable ofreq	equal 1000
variable efreq	equal 1000

units lj

dimension 3

newton off

boundary  p p p

atom_style hybrid bond ellipsoid
atom_modify sort 0 1.0

# Pair interactions require lists of neighbours to be calculated
neighbor 1.0 bin
neigh_modify every 1 delay 0 check yes

read_data data.duplex1
  orthogonal box = (-20 -20 -20) to (20 20 20)
  1 by 2 by 2 MPI processor grid
  reading atoms ...
  10 atoms
  reading velocities ...
  10 velocities
  10 ellipsoids
  scanning bonds ...
  2 = max bonds/atom
  reading bonds ...
  8 bonds
  2 = max # of 1-2 neighbors
  2 = max # of 1-3 neighbors
  2 = max # of 1-4 neighbors
  4 = max # of special neighbors

set atom * mass 3.1575
  10 settings made for mass

group all type 1 4
10 atoms in group all

# oxDNA bond interactions - FENE backbone
bond_style oxdna/fene
bond_coeff * 2.0 0.25 0.7525

# oxDNA pair interactions
pair_style hybrid/overlay oxdna/excv oxdna/stk oxdna/hbond oxdna/xstk oxdna/coaxstk
pair_coeff * * oxdna/excv    2.0 0.7 0.675 2.0 0.515 0.5 2.0 0.33 0.32
pair_coeff * * oxdna/stk     0.1 6.0 0.4 0.9 0.32 0.6 1.3 0 0.8 0.9 0 0.95 0.9 0 0.95 2.0 0.65 2.0 0.65
pair_coeff * * oxdna/hbond   0.0   8.0 0.4 0.75 0.34 0.7 1.5 0 0.7 1.5 0 0.7 1.5 0 0.7 0.46 3.141592653589793 0.7 4.0 1.5707963267948966 0.45 4.0 1.5707963267948966 0.45
pair_coeff 1 4 oxdna/hbond   1.077 8.0 0.4 0.75 0.34 0.7 1.5 0 0.7 1.5 0 0.7 1.5 0 0.7 0.46 3.141592653589793 0.7 4.0 1.5707963267948966 0.45 4.0 1.5707963267948966 0.45
pair_coeff 2 3 oxdna/hbond   1.077 8.0 0.4 0.75 0.34 0.7 1.5 0 0.7 1.5 0 0.7 1.5 0 0.7 0.46 3.141592653589793 0.7 4.0 1.5707963267948966 0.45 4.0 1.5707963267948966 0.45
pair_coeff * * oxdna/xstk    47.5 0.575 0.675 0.495 0.655 2.25 0.791592653589793 0.58 1.7 1.0 0.68 1.7 1.0 0.68 1.5 0 0.65 1.7 0.875 0.68 1.7 0.875 0.68
pair_coeff * * oxdna/coaxstk 46.0 0.4 0.6 0.22 0.58 2.0 2.541592653589793 0.65 1.3 0 0.8 0.9 0 0.95 0.9 0 0.95 2.0 -0.65 2.0 -0.65

# NVE ensemble
fix 1 all nve/dot
#fix 1 all nve/dotc/langevin 0.1 0.1 0.03 457145 angmom 10
#fix 1 all nve/asphere
#fix 2 all langevin 0.1 0.1 0.03 457145 angmom 10

timestep 1e-5

#comm_style tiled
#fix 3 all balance 10000 1.1 rcb

#compute mol all chunk/atom molecule
#compute mychunk all vcm/chunk mol
#fix 4 all ave/time 10000 1 10000 c_mychunk[1] c_mychunk[2] c_mychunk[3] file vcm.txt mode vector

#dump pos all xyz ${ofreq} traj.${number}.xyz

#compute quat all property/atom quatw quati quatj quatk
#dump quat all custom ${ofreq} quat.${number}.txt id c_quat[1] c_quat[2] c_quat[3] c_quat[4]
#dump_modify quat sort id
#dump_modify quat format line "%d  %13.6le  %13.6le  %13.6le  %13.6le"

compute erot all erotate/asphere
compute ekin all ke
compute epot all pe
variable erot equal c_erot
variable ekin equal c_ekin
variable epot equal c_epot
variable etot equal c_erot+c_ekin+c_epot
fix 5 all print ${efreq} "$(step)  ekin = ${ekin} |  erot = ${erot} | epot = ${epot} | etot = ${etot}" screen yes
fix 5 all print 1000 "$(step)  ekin = ${ekin} |  erot = ${erot} | epot = ${epot} | etot = ${etot}" screen yes

#dump out all custom ${ofreq} out.${number}.txt id x y z vx vy vz fx fy fz tqx tqy tqz
#dump_modify out sort id
#dump_modify out format line "%d   %13.6le %13.6le %13.6le  %13.6le %13.6le %13.6le  %13.6le %13.6le %13.6le  %13.6le %13.6le %13.6le"

run 1000000
Neighbor list info ...
  update every 1 steps, delay 0 steps, check yes
  max neighbors/atom: 2000, page size: 100000
  master list distance cutoff = 1.92828
  ghost atom cutoff = 1.92828
  binsize = 0.964142, bins = 42 42 42
  5 neighbor lists, perpetual/occasional/extra = 5 0 0
  (1) pair oxdna/excv, perpetual
      attributes: half, newton off
      pair build: half/bin/newtoff
      stencil: half/bin/3d/newtoff
      bin: standard
  (2) pair oxdna/stk, perpetual, copy from (1)
      attributes: half, newton off
      pair build: copy
      stencil: none
      bin: none
  (3) pair oxdna/hbond, perpetual, copy from (1)
      attributes: half, newton off
      pair build: copy
      stencil: none
      bin: none
  (4) pair oxdna/xstk, perpetual, copy from (1)
      attributes: half, newton off
      pair build: copy
      stencil: none
      bin: none
  (5) pair oxdna/coaxstk, perpetual, copy from (1)
      attributes: half, newton off
      pair build: copy
      stencil: none
      bin: none
Per MPI rank memory allocation (min/avg/max) = 7.341 | 7.523 | 7.705 Mbytes
Step Temp E_pair E_mol TotEng Press 
       0            0   -1.4711818 0.0069384985   -1.4642433 -6.2745089e-05 
1000  ekin = 0.00113448721737009 |  erot = 0.0041345594773427 | epot = -14.6477022915193 | etot = -14.6424332448246
2000  ekin = 0.00449927223902292 |  erot = 0.0164446434455803 | epot = -14.6633771605337 | etot = -14.6424332448491
3000  ekin = 0.00997964450840756 |  erot = 0.0366523356056466 | epot = -14.6890652250033 | etot = -14.6424332448892
4000  ekin = 0.017388811129498 |  erot = 0.0643039804300251 | epot = -14.7241260365031 | etot = -14.6424332449436
5000  ekin = 0.0264744514136422 |  erot = 0.0987844033142134 | epot = -14.7676920997383 | etot = -14.6424332450104
6000  ekin = 0.0369277948555727 |  erot = 0.13933657105258 | epot = -14.8186976109956 | etot = -14.6424332450875
7000  ekin = 0.0483950557190949 |  erot = 0.18508629569211 | epot = -14.8759145965832 | etot = -14.642433245172
8000  ekin = 0.0604909336919856 |  erot = 0.235071307523581 | epot = -14.9379954864767 | etot = -14.6424332452611
9000  ekin = 0.0728137406439518 |  erot = 0.288273694501614 | epot = -15.003520680497 | etot = -14.6424332453514
10000  ekin = 0.0849615563084574 |  erot = 0.343654369293588 | epot = -15.0710491710418 | etot = -14.6424332454398
11000  ekin = 0.0965486715044103 |  erot = 0.400187932108392 | epot = -15.1391698491357 | etot = -14.6424332455229
12000  ekin = 0.107221466282716 |  erot = 0.456896095459393 | epot = -15.2065508073401 | etot = -14.642433245598
13000  ekin = 0.116672809719361 |  erot = 0.512877765427946 | epot = -15.27198382081 | etot = -14.6424332456627
14000  ekin = 0.124654073730849 |  erot = 0.567333962045503 | epot = -15.3344212814915 | etot = -14.6424332457151
15000  ekin = 0.130983939684084 |  erot = 0.619586028257146 | epot = -15.3930032136957 | etot = -14.6424332457544
16000  ekin = 0.135553354544703 |  erot = 0.66908602849033 | epot = -15.4470726288154 | etot = -14.6424332457804
17000  ekin = 0.138326263958104 |  erot = 0.715418858086103 | epot = -15.4961783678378 | etot = -14.6424332457936
18000  ekin = 0.139336096663942 |  erot = 0.758296324628468 | epot = -15.5400656670878 | etot = -14.6424332457954
19000  ekin = 0.138678360045107 |  erot = 0.797544234276629 | epot = -15.5786558401095 | etot = -14.6424332457878
20000  ekin = 0.136500074655344 |  erot = 0.83308420441182 | epot = -15.6120175248401 | etot = -14.642433245773
21000  ekin = 0.13298706528568 |  erot = 0.864912408453368 | epot = -15.6403327194924 | etot = -14.6424332457533
22000  ekin = 0.128350288213599 |  erot = 0.893077649558725 | epot = -15.6638611835035 | etot = -14.6424332457311
23000  ekin = 0.122812385135574 |  erot = 0.917661024684598 | epot = -15.6829066555285 | etot = -14.6424332457083
24000  ekin = 0.116595521408358 |  erot = 0.938759014332585 | epot = -15.6977877814273 | etot = -14.6424332456863
25000  ekin = 0.109911323474882 |  erot = 0.95647120734756 | epot = -15.7088157764886 | etot = -14.6424332456662
26000  ekin = 0.102953426207684 |  erot = 0.970893163953299 | epot = -15.7162798358093 | etot = -14.6424332456483
27000  ekin = 0.0958928250746602 |  erot = 0.982114250193902 | epot = -15.7204403209011 | etot = -14.6424332456326
28000  ekin = 0.08887594109497 |  erot = 0.990219731539409 | epot = -15.721528918253 | etot = -14.6424332456186
29000  ekin = 0.0820250748771992 |  erot = 0.995296041202176 | epot = -15.7197543616852 | etot = -14.6424332456058
30000  ekin = 0.0754407616837525 |  erot = 0.997437949319921 | epot = -15.7153119565969 | etot = -14.6424332455933
31000  ekin = 0.0692054432607511 |  erot = 0.996756332760935 | epot = -15.708395021602 | etot = -14.6424332455803
32000  ekin = 0.0633878377974532 |  erot = 0.993385345347625 | epot = -15.6992064287111 | etot = -14.6424332455661
33000  ekin = 0.0580474070866977 |  erot = 0.987487973308193 | epot = -15.6879686259451 | etot = -14.6424332455502
34000  ekin = 0.0532383791882916 |  erot = 0.979259192919847 | epot = -15.6749308176403 | etot = -14.6424332455322
35000  ekin = 0.0490128758302373 |  erot = 0.96892619740531 | epot = -15.6603723187477 | etot = -14.6424332455122
36000  ekin = 0.0454228081405034 |  erot = 0.956745409624112 | epot = -15.6446014632554 | etot = -14.6424332454908
37000  ekin = 0.0425203357170931 |  erot = 0.942996237999014 | epot = -15.6279498191848 | etot = -14.6424332454687
38000  ekin = 0.0403568280944582 |  erot = 0.927971766615185 | epot = -15.6107618401563 | etot = -14.6424332454467
39000  ekin = 0.0389804214208553 |  erot = 0.911966804108842 | epot = -15.5933804709559 | etot = -14.6424332454262
40000  ekin = 0.0384324238853386 |  erot = 0.89526395956212 | epot = -15.5761296288558 | etot = -14.6424332454083
41000  ekin = 0.0387429860406854 |  erot = 0.878118672837898 | epot = -15.559294904273 | etot = -14.6424332453944
42000  ekin = 0.0399266053637397 |  erot = 0.860744395135588 | epot = -15.543104245885 | etot = -14.6424332453857
43000  ekin = 0.041978156101278 |  erot = 0.84329936535652 | epot = -15.5277107668409 | etot = -14.6424332453831
44000  ekin = 0.044870189409001 |  erot = 0.825876603313516 | epot = -15.5131800381094 | etot = -14.6424332453868
45000  ekin = 0.0485521857416513 |  erot = 0.808498758186241 | epot = -15.4994841893249 | etot = -14.642433245397
46000  ekin = 0.0529522094038552 |  erot = 0.791119212188506 | epot = -15.486504667005 | etot = -14.6424332454127
47000  ekin = 0.0579809824244721 |  erot = 0.773630265884098 | epot = -15.4740444937409 | etot = -14.6424332454323
48000  ekin = 0.0635377846502182 |  erot = 0.755878310838203 | epot = -15.4618493409424 | etot = -14.6424332454539
49000  ekin = 0.0695169124467202 |  erot = 0.737684732484798 | epot = -15.4496348904071 | etot = -14.6424332454756
50000  ekin = 0.0758129058465097 |  erot = 0.718870126220151 | epot = -15.437116277562 | etot = -14.6424332454953
51000  ekin = 0.0823226638652294 |  erot = 0.699278599520714 | epot = -15.424034508898 | etot = -14.642433245512
52000  ekin = 0.0889431481344998 |  erot = 0.67879880710002 | epot = -15.4101752007595 | etot = -14.642433245525
53000  ekin = 0.0955646689265025 |  erot = 0.657379086771117 | epot = -15.3953770012321 | etot = -14.6424332455345
54000  ekin = 0.10206147751016 |  erot = 0.635035489169276 | epot = -15.3795302122208 | etot = -14.6424332455414
55000  ekin = 0.108282960174665 |  erot = 0.611853171347244 | epot = -15.362569377068 | etot = -14.6424332455461
56000  ekin = 0.114049426282277 |  erot = 0.587982945924297 | epot = -15.3444656177552 | etot = -14.6424332455486
57000  ekin = 0.119155806187163 |  erot = 0.563635255922951 | epot = -15.3252243076589 | etot = -14.6424332455488
58000  ekin = 0.123384552305545 |  erot = 0.539073355222428 | epot = -15.3048911530734 | etot = -14.6424332455454
59000  ekin = 0.126526300954853 |  erot = 0.514606324858911 | epot = -15.2835658713509 | etot = -14.6424332455371
60000  ekin = 0.128404399836229 |  erot = 0.490581338840044 | epot = -15.261418984199 | etot = -14.6424332455227
61000  ekin = 0.128898142361897 |  erot = 0.467373892400972 | epot = -15.2387052802646 | etot = -14.6424332455018
62000  ekin = 0.127959880289726 |  erot = 0.445374820086222 | epot = -15.2157679458511 | etot = -14.6424332454752
63000  ekin = 0.125622870624277 |  erot = 0.424973765387148 | epot = -15.1930298814554 | etot = -14.642433245444
64000  ekin = 0.121999044842466 |  erot = 0.406539918572074 | epot = -15.1709722088251 | etot = -14.6424332454105
65000  ekin = 0.117268056618551 |  erot = 0.390401831020312 | epot = -15.1501031330161 | etot = -14.6424332453772
66000  ekin = 0.11166038525652 |  erot = 0.376828594078856 | epot = -15.1309222246818 | etot = -14.6424332453464
67000  ekin = 0.105437746904482 |  erot = 0.366014539811009 | epot = -15.1138855320359 | etot = -14.6424332453204
68000  ekin = 0.0988737375602389 |  erot = 0.358069014155077 | epot = -15.0993759970158 | etot = -14.6424332453005
69000  ekin = 0.0922368286498126 |  erot = 0.353011948771943 | epot = -15.0876820227093 | etot = -14.6424332452876
70000  ekin = 0.0857769015271899 |  erot = 0.350775174164931 | epot = -15.078985320974 | etot = -14.6424332452819
71000  ekin = 0.0797156921641249 |  erot = 0.351208844245481 | epot = -15.0733577816927 | etot = -14.6424332452831
72000  ekin = 0.0742409440407228 |  erot = 0.354092037747166 | epot = -15.0707662270784 | etot = -14.6424332452906
73000  ekin = 0.069503749870388 |  erot = 0.359146526961232 | epot = -15.0710835221349 | etot = -14.6424332453033
74000  ekin = 0.065618449742691 |  erot = 0.366052769878692 | epot = -15.0741044649412 | etot = -14.6424332453199
75000  ekin = 0.0626644690394284 |  erot = 0.374467290033975 | epot = -15.0795650044124 | etot = -14.642433245339
76000  ekin = 0.0606895535091863 |  erot = 0.384040683403432 | epot = -15.087163482272 | etot = -14.6424332453594
77000  ekin = 0.0597139401241188 |  erot = 0.394435495892894 | epot = -15.0965826813962 | etot = -14.6424332453792
78000  ekin = 0.0597350629875199 |  erot = 0.405343151481916 | epot = -15.107511459867 | etot = -14.6424332453975
79000  ekin = 0.0607324264361021 |  erot = 0.4164990176427 | epot = -15.1196646894919 | etot = -14.6424332454131
80000  ekin = 0.0626722904954161 |  erot = 0.427694630238743 | epot = -15.1328001661592 | etot = -14.6424332454251
81000  ekin = 0.0655118235331528 |  erot = 0.438786127849131 | epot = -15.1467311968152 | etot = -14.6424332454329
82000  ekin = 0.0692024020836604 |  erot = 0.449698113830624 | epot = -15.1613337613509 | etot = -14.6424332454366
83000  ekin = 0.0736917936904884 |  erot = 0.460422490740831 | epot = -15.1765475298676 | etot = -14.6424332454363
84000  ekin = 0.0789250526542207 |  erot = 0.471012272295187 | epot = -15.1923705703823 | etot = -14.6424332454329
85000  ekin = 0.0848440878742484 |  erot = 0.481570908650517 | epot = -15.2088482419521 | etot = -14.6424332454273
86000  ekin = 0.0913860133243867 |  erot = 0.492238169206351 | epot = -15.2260574279515 | etot = -14.6424332454207
87000  ekin = 0.0984805441186007 |  erot = 0.503174014617495 | epot = -15.2440878041506 | etot = -14.6424332454146
88000  ekin = 0.106046830302566 |  erot = 0.514542076496893 | epot = -15.2630221522094 | etot = -14.6424332454099
89000  ekin = 0.113990204125935 |  erot = 0.526494309539958 | epot = -15.2829177590739 | etot = -14.642433245408
90000  ekin = 0.122199339149549 |  erot = 0.539158097286396 | epot = -15.3037906818453 | etot = -14.6424332454094
91000  ekin = 0.130544275968789 |  erot = 0.552626637866402 | epot = -15.3256041592497 | etot = -14.6424332454146
92000  ekin = 0.138875666145969 |  erot = 0.566952900962838 | epot = -15.3482618125326 | etot = -14.6424332454238
93000  ekin = 0.14702544061161 |  erot = 0.582146933738122 | epot = -15.3716056197866 | etot = -14.6424332454369
94000  ekin = 0.154808946844654 |  erot = 0.598175891801918 | epot = -15.3954180841001 | etot = -14.6424332454535
95000  ekin = 0.162028449598908 |  erot = 0.614965942454569 | epot = -15.4194276375267 | etot = -14.6424332454732
96000  ekin = 0.168477779664562 |  erot = 0.632405154082769 | epot = -15.4433161792427 | etot = -14.6424332454953
97000  ekin = 0.173947863023519 |  erot = 0.650346631629065 | epot = -15.466727740172 | etot = -14.6424332455194
98000  ekin = 0.178232875001165 |  erot = 0.668611435746703 | epot = -15.4892775562927 | etot = -14.6424332455449
99000  ekin = 0.181136831923469 |  erot = 0.686991165056991 | epot = -15.5105612425515 | etot = -14.6424332455711
100000  ekin = 0.182480533640974 |  erot = 0.705250413408614 | epot = -15.530164192647 | etot = -14.6424332455974
101000  ekin = 0.182108871449632 |  erot = 0.723129571004103 | epot = -15.5476716880769 | etot = -14.6424332456232
102000  ekin = 0.179898581168339 |  erot = 0.740348571091352 | epot = -15.5626803979071 | etot = -14.6424332456474
103000  ekin = 0.17576651760657 |  erot = 0.756612167827034 | epot = -15.5748119311029 | etot = -14.6424332456693
104000  ekin = 0.169678431534372 |  erot = 0.771617166852996 | epot = -15.5837288440748 | etot = -14.6424332456874
105000  ekin = 0.161658036036246 |  erot = 0.785061742963598 | epot = -15.5891530247003 | etot = -14.6424332457005
106000  ekin = 0.151795867650305 |  erot = 0.796656613426427 | epot = -15.5908857267839 | etot = -14.6424332457071
107000  ekin = 0.140257112952978 |  erot = 0.806137449199291 | epot = -15.5888278078584 | etot = -14.6424332457061
108000  ekin = 0.127287240201874 |  erot = 0.813277564483374 | epot = -15.5829980503819 | etot = -14.6424332456966
109000  ekin = 0.113214025491877 |  erot = 0.817899691736857 | epot = -15.5735469629067 | etot = -14.642433245678
110000  ekin = 0.0984444823817425 |  erot = 0.819885578056442 | epot = -15.5607633060887 | etot = -14.6424332456505
111000  ekin = 0.0834553769378644 |  erot = 0.819182262548316 | epot = -15.5450708851012 | etot = -14.6424332456151
112000  ekin = 0.0687764915886182 |  erot = 0.815804215096852 | epot = -15.5270139522588 | etot = -14.6424332455734
113000  ekin = 0.0549665904044371 |  erot = 0.809830999846678 | epot = -15.507230835779 | etot = -14.6424332455279
114000  ekin = 0.04258305831357 |  erot = 0.801400700352889 | epot = -15.486417004148 | etot = -14.6424332454815
115000  ekin = 0.0321472802146729 |  erot = 0.790699910050576 | epot = -15.4652804357026 | etot = -14.6424332454374
116000  ekin = 0.0241087780358441 |  erot = 0.77795154667576 | epot = -15.4444935701102 | etot = -14.6424332453986
117000  ekin = 0.0188117102739907 |  erot = 0.763402004774545 | epot = -15.4246469604164 | etot = -14.6424332453678
118000  ekin = 0.0164673894168237 |  erot = 0.747309167856841 | epot = -15.4062098026205 | etot = -14.6424332453468
119000  ekin = 0.0171359296540399 |  erot = 0.72993256457469 | epot = -15.3895017395652 | etot = -14.6424332453364
120000  ekin = 0.0207190822436548 |  erot = 0.711526526248979 | epot = -15.3746788538292 | etot = -14.6424332453366
121000  ekin = 0.0269649552324778 |  erot = 0.692336677371657 | epot = -15.3617348779503 | etot = -14.6424332453462
122000  ekin = 0.0354839220302051 |  erot = 0.672599570211917 | epot = -15.3505167376055 | etot = -14.6424332453634
123000  ekin = 0.0457738626455503 |  erot = 0.652544850162978 | epot = -15.3407519581944 | etot = -14.6424332453859
124000  ekin = 0.0572521324300892 |  erot = 0.632399068063538 | epot = -15.3320844459047 | etot = -14.6424332454111
125000  ekin = 0.0692913736007693 |  erot = 0.612390156183436 | epot = -15.3241147752204 | etot = -14.6424332454362
126000  ekin = 0.0812564128179015 |  erot = 0.592751635107163 | epot = -15.3164412933838 | etot = -14.6424332454587
127000  ekin = 0.0925398817831139 |  erot = 0.573725774405781 | epot = -15.3086989016655 | etot = -14.6424332454766
128000  ekin = 0.102594692019405 |  erot = 0.555565138942023 | epot = -15.3005930764495 | etot = -14.6424332454881
129000  ekin = 0.110961953874467 |  erot = 0.538532171476875 | epot = -15.2919273708433 | etot = -14.6424332454919
130000  ekin = 0.117293279473242 |  erot = 0.52289666445288 | epot = -15.2826231894136 | etot = -14.6424332454874
131000  ekin = 0.121366644775211 |  erot = 0.508931150171171 | epot = -15.272731040421 | etot = -14.6424332454746
132000  ekin = 0.123095155540088 |  erot = 0.496904390905875 | epot = -15.2624327918998 | etot = -14.6424332454539
133000  ekin = 0.122528239671731 |  erot = 0.487073282997897 | epot = -15.2520347680959 | etot = -14.6424332454262
134000  ekin = 0.119845042601891 |  erot = 0.47967360117123 | epot = -15.2419518891664 | etot = -14.6424332453933
135000  ekin = 0.115340171967418 |  erot = 0.474910093717058 | epot = -15.2326835110415 | etot = -14.642433245357
136000  ekin = 0.109402419285639 |  erot = 0.472946484075354 | epot = -15.2247821486809 | etot = -14.6424332453199
137000  ekin = 0.102487634022662 |  erot = 0.473895929920083 | epot = -15.218816809227 | etot = -14.6424332452843
138000  ekin = 0.0950874634054098 |  erot = 0.477812435585943 | epot = -15.2153331442442 | etot = -14.6424332452528
139000  ekin = 0.0876961121518108 |  erot = 0.484683617751208 | epot = -15.2148129751311 | etot = -14.6424332452281
140000  ekin = 0.0807775418435451 |  erot = 0.494425108540545 | epot = -15.217635895596 | etot = -14.6424332452119
141000  ekin = 0.0747355681580393 |  erot = 0.506876770810791 | epot = -15.2240455841751 | etot = -14.6424332452063
142000  ekin = 0.0698891098451726 |  erot = 0.521800821241339 | epot = -15.2341231762987 | etot = -14.6424332452121
143000  ekin = 0.0664544171867034 |  erot = 0.538881922426252 | epot = -15.247769584843 | etot = -14.64243324523
144000  ekin = 0.064535510469277 |  erot = 0.557729316021967 | epot = -15.2646980717509 | etot = -14.6424332452596
145000  ekin = 0.0641233595163659 |  erot = 0.577881111413926 | epot = -15.2844377162305 | etot = -14.6424332453002
146000  ekin = 0.065103607751629 |  erot = 0.598810893852487 | epot = -15.3063477469542 | etot = -14.6424332453501
147000  ekin = 0.0672719578975296 |  erot = 0.619936843682188 | epot = -15.3296420469869 | etot = -14.6424332454072
148000  ekin = 0.0703557492694474 |  erot = 0.64063353819095 | epot = -15.3534225329292 | etot = -14.6424332454688
149000  ekin = 0.0740398128645644 |  erot = 0.660246523237392 | epot = -15.3767195816342 | etot = -14.6424332455323
150000  ekin = 0.0779944201062649 |  erot = 0.67810959037558 | epot = -15.3985372560763 | etot = -14.6424332455945
151000  ekin = 0.0819030604176924 |  erot = 0.693564488647308 | epot = -15.4179007947176 | etot = -14.6424332456526
152000  ekin = 0.0854878938557652 |  erot = 0.705982563002958 | epot = -15.4339037025624 | etot = -14.6424332457037
153000  ekin = 0.0885310147333713 |  erot = 0.714787575381071 | epot = -15.4457518358598 | etot = -14.6424332457454
154000  ekin = 0.0908901012892559 |  erot = 0.719478762726488 | epot = -15.4528021097913 | etot = -14.6424332457756
155000  ekin = 0.0925075703719017 |  erot = 0.719653046096719 | epot = -15.4545938622615 | etot = -14.6424332457929
156000  ekin = 0.0934129479732407 |  erot = 0.715025243753081 | epot = -15.4508714375228 | etot = -14.6424332457965
157000  ekin = 0.0937187435781918 |  erot = 0.70544516394557 | epot = -15.4415971533099 | etot = -14.6424332457861
158000  ekin = 0.093610618539412 |  erot = 0.690910554325135 | epot = -15.4269544186267 | etot = -14.6424332457622
159000  ekin = 0.093333017400989 |  erot = 0.671575051659432 | epot = -15.4073413147861 | etot = -14.6424332457257
160000  ekin = 0.0931716565239226 |  erot = 0.647750492120542 | epot = -15.3833553943224 | etot = -14.642433245678
161000  ekin = 0.0934343296226242 |  erot = 0.619903194016743 | epot = -15.3557707692603 | etot = -14.6424332456209
162000  ekin = 0.0944314104796886 |  erot = 0.588644098980031 | epot = -15.3255087550164 | etot = -14.6424332455567
163000  ekin = 0.0964572425730171 |  erot = 0.554712943454593 | epot = -15.2936034315153 | etot = -14.6424332454877
164000  ekin = 0.0997733472794941 |  erot = 0.518956918562839 | epot = -15.2611635112587 | etot = -14.6424332454164
165000  ekin = 0.10459410201863 |  erot = 0.482304549423526 | epot = -15.2293318967876 | etot = -14.6424332453454
166000  ekin = 0.111075276514836 |  erot = 0.445735768513645 | epot = -15.1992442903058 | etot = -14.6424332452774
167000  ekin = 0.119305597512064 |  erot = 0.410249354729672 | epot = -15.1719881974565 | etot = -14.6424332452148
168000  ekin = 0.129301354723501 |  erot = 0.376829046180125 | epot = -15.1485636460635 | etot = -14.6424332451599
169000  ekin = 0.141003965788129 |  erot = 0.346409702528434 | epot = -15.1298469134313 | etot = -14.6424332451147
170000  ekin = 0.154280377438315 |  erot = 0.319844892419163 | epot = -15.1165585149384 | etot = -14.642433245081
171000  ekin = 0.168926178619937 |  erot = 0.297877221607912 | epot = -15.1092366452878 | etot = -14.64243324506
172000  ekin = 0.184671319362945 |  erot = 0.281112611137957 | epot = -15.1082171755535 | etot = -14.6424332450526
173000  ekin = 0.201188345435608 |  erot = 0.269999595570643 | epot = -15.1136211860654 | etot = -14.6424332450591
174000  ekin = 0.218103052205593 |  erot = 0.264814547402958 | epot = -15.1253508446879 | etot = -14.6424332450793
175000  ekin = 0.235007413034248 |  erot = 0.26565354594967 | epot = -15.1430942040961 | etot = -14.6424332451122
176000  ekin = 0.251474534266605 |  erot = 0.272431389431399 | epot = -15.1663391688545 | etot = -14.6424332451565
177000  ekin = 0.267075225142185 |  erot = 0.284887984977542 | epot = -15.1943964553297 | etot = -14.64243324521
178000  ekin = 0.281395553894086 |  erot = 0.302602030913814 | epot = -15.2264308300784 | etot = -14.6424332452705
179000  ekin = 0.294054514410706 |  erot = 0.325011526056047 | epot = -15.2614992858018 | etot = -14.642433245335
180000  ekin = 0.304720692895809 |  erot = 0.351440214933843 | epot = -15.2985941532305 | etot = -14.6424332454008
181000  ekin = 0.31312665891731 |  erot = 0.381128639600658 | epot = -15.3366885439828 | etot = -14.6424332454648
182000  ekin = 0.319079775822511 |  erot = 0.413268071112237 | epot = -15.3747810924591 | etot = -14.6424332455244
183000  ekin = 0.322468290004652 |  erot = 0.447035301735071 | epot = -15.4119368373172 | etot = -14.6424332455774
184000  ekin = 0.323261947553553 |  erot = 0.481626155079182 | epot = -15.447321348255 | etot = -14.6424332456223
185000  ekin = 0.321506983529694 |  erot = 0.516285658867092 | epot = -15.4802258880547 | etot = -14.6424332456579
186000  ekin = 0.317316057632528 |  erot = 0.55033313262905 | epot = -15.5100824359457 | etot = -14.6424332456841
187000  ekin = 0.310854440588901 |  erot = 0.583180936762646 | epot = -15.5364686230527 | etot = -14.6424332457011
188000  ekin = 0.302324329762727 |  erot = 0.614346238386904 | epot = -15.5591038138593 | etot = -14.6424332457097
189000  ekin = 0.291949445195851 |  erot = 0.643455779015123 | epot = -15.5778384699218 | etot = -14.6424332457108
190000  ekin = 0.279961942766932 |  erot = 0.670244185707557 | epot = -15.5926393741802 | etot = -14.6424332457057
191000  ekin = 0.266593185652274 |  erot = 0.694546781237238 | epot = -15.6035732125847 | etot = -14.6424332456952
192000  ekin = 0.252069141621898 |  erot = 0.716288088791539 | epot = -15.6107904760939 | etot = -14.6424332456804
193000  ekin = 0.236610293252604 |  erot = 0.735467302247627 | epot = -15.6145108411624 | etot = -14.6424332456621
194000  ekin = 0.220435149403497 |  erot = 0.752141943032621 | epot = -15.615010338077 | etot = -14.6424332456409
195000  ekin = 0.203765880091669 |  erot = 0.766410799035668 | epot = -15.6126099247448 | etot = -14.6424332456175
196000  ekin = 0.18683433903566 |  erot = 0.778397083256566 | epot = -15.6076646678848 | etot = -14.6424332455926
197000  ekin = 0.169886782292475 |  erot = 0.788232586076231 | epot = -15.6005526139356 | etot = -14.6424332455669
198000  ekin = 0.153185871076313 |  erot = 0.796043434544288 | epot = -15.5916625511618 | etot = -14.6424332455412
199000  ekin = 0.137008972985806 |  erot = 0.801937915803797 | epot = -15.5813801343063 | etot = -14.6424332455167
200000  ekin = 0.121642272363325 |  erot = 0.805996673265862 | epot = -15.5700721911235 | etot = -14.6424332454943
201000  ekin = 0.107370722655158 |  erot = 0.80826545681021 | epot = -15.5580694249408 | etot = -14.6424332454755
202000  ekin = 0.0944644042380686 |  erot = 0.808750524312687 | epot = -15.5456481740119 | etot = -14.6424332454612
203000  ekin = 0.0831623790884404 |  erot = 0.807416772445398 | epot = -15.5330123969864 | etot = -14.6424332454526
204000  ekin = 0.0736556272327849 |  erot = 0.80418872542083 | epot = -15.5202775981042 | etot = -14.6424332454506
205000  ekin = 0.066071040166992 |  erot = 0.798954607356127 | epot = -15.5074588929787 | etot = -14.6424332454556
206000  ekin = 0.0604586317676969 |  erot = 0.791573809423779 | epot = -15.4944656866589 | etot = -14.6424332454674
207000  ekin = 0.0567840026879154 |  erot = 0.781888054797448 | epot = -15.4811053029705 | etot = -14.6424332454851
208000  ekin = 0.0549275971597956 |  erot = 0.769736381378278 | epot = -15.4670972240452 | etot = -14.6424332455071
209000  ekin = 0.0546914447534107 |  erot = 0.754973659532307 | epot = -15.4520983498168 | etot = -14.642433245531
210000  ekin = 0.0558130126770382 |  erot = 0.737491764373139 | epot = -15.4357380226042 | etot = -14.642433245554
211000  ekin = 0.0579847210232175 |  erot = 0.717241838878594 | epot = -15.4176598054751 | etot = -14.6424332455733
212000  ekin = 0.0608768356197291 |  erot = 0.694255492638144 | epot = -15.3975655738438 | etot = -14.642433245586
213000  ekin = 0.0641610427072956 |  erot = 0.668662476162839 | epot = -15.37525676446 | etot = -14.6424332455898
214000  ekin = 0.06753210435751 |  erot = 0.640702495518234 | epot = -15.3506678454592 | etot = -14.6424332455835
215000  ekin = 0.0707255336353407 |  erot = 0.610729417269012 | epot = -15.3238881964708 | etot = -14.6424332455665
216000  ekin = 0.0735300437817614 |  erot = 0.579207054839078 | epot = -15.2951703441601 | etot = -14.6424332455392
217000  ekin = 0.0757943994877656 |  erot = 0.546696813211925 | epot = -15.2649244582025 | etot = -14.6424332455028
218000  ekin = 0.0774290394165114 |  erot = 0.51383845121948 | epot = -15.2337007360952 | etot = -14.6424332454592
219000  ekin = 0.0784033323141814 |  erot = 0.481325894964792 | epot = -15.2021624726897 | etot = -14.6424332454107
220000  ekin = 0.0787395495608023 |  erot = 0.449880299622429 | epot = -15.1710530945426 | etot = -14.6424332453594
221000  ekin = 0.0785046319672615 |  erot = 0.420222425160601 | epot = -15.1411603024356 | etot = -14.6424332453078
222000  ekin = 0.0778006814269721 |  erot = 0.39304597217159 | epot = -15.1132798988567 | etot = -14.6424332452581
223000  ekin = 0.0767549035385447 |  erot = 0.368992968911897 | epot = -15.0881811176628 | etot = -14.6424332452123
224000  ekin = 0.0755095293703893 |  erot = 0.348631757033145 | epot = -15.0665745315757 | etot = -14.6424332451722
225000  ekin = 0.0742120885667742 |  erot = 0.332437700429458 | epot = -15.0490830341357 | etot = -14.6424332451395
226000  ekin = 0.073006302869323 |  erot = 0.320776497502283 | epot = -15.0362160454868 | etot = -14.6424332451152
227000  ekin = 0.0720238140882433 |  erot = 0.313889923629061 | epot = -15.0283469828184 | etot = -14.6424332451011
228000  ekin = 0.0713769419939847 |  erot = 0.311883945247506 | epot = -15.0256941323392 | etot = -14.6424332450977
229000  ekin = 0.0711526728858743 |  erot = 0.314719386439641 | epot = -15.0283053044313 | etot = -14.6424332451058
230000  ekin = 0.0714080974066408 |  erot = 0.322205638589943 | epot = -15.0360469811226 | etot = -14.642433245126
231000  ekin = 0.0721675361190023 |  erot = 0.333998222201819 | epot = -15.0485990034788 | etot = -14.642433245158
232000  ekin = 0.0734216022905603 |  erot = 0.349601270465958 | epot = -15.0654561179576 | etot = -14.6424332452011
233000  ekin = 0.0751284397505271 |  erot = 0.368376135875951 | epot = -15.085937820881 | etot = -14.6424332452545
234000  ekin = 0.0772173235442621 |  erot = 0.389557254433776 | epot = -15.1092078232944 | etot = -14.6424332453164
235000  ekin = 0.0795947059802265 |  erot = 0.412276079790441 | epot = -15.1343040311543 | etot = -14.6424332453836
236000  ekin = 0.0821526186146775 |  erot = 0.43559329564772 | epot = -15.160179159716 | etot = -14.6424332454536
237000  ekin = 0.0847791014240061 |  erot = 0.458538653864716 | epot = -15.1857510008108 | etot = -14.6424332455221
238000  ekin = 0.0873700423858637 |  erot = 0.480156759886701 | epot = -15.2099600478579 | etot = -14.6424332455853
239000  ekin = 0.0898415153137649 |  erot = 0.499556095552604 | epot = -15.2318308565057 | etot = -14.6424332456393
240000  ekin = 0.0921414623535621 |  erot = 0.515957735401017 | epot = -15.2505324434351 | etot = -14.6424332456806
241000  ekin = 0.0942594490144011 |  erot = 0.528739776886579 | epot = -15.2654324716071 | etot = -14.6424332457061
242000  ekin = 0.0962332805881029 |  erot = 0.537473606136305 | epot = -15.2761401324386 | etot = -14.6424332457142
243000  ekin = 0.0981515319338902 |  erot = 0.541948785980292 | epot = -15.2825335636184 | etot = -14.6424332457042
244000  ekin = 0.100151482351193 |  erot = 0.542184479374338 | epot = -15.2847692074024 | etot = -14.6424332456769
245000  ekin = 0.102412491095761 |  erot = 0.538426702317763 | epot = -15.2832724390477 | etot = -14.6424332456342
246000  ekin = 0.105145395544795 |  erot = 0.531132085866374 | epot = -15.2787107269897 | etot = -14.6424332455785
247000  ekin = 0.108578961411983 |  erot = 0.520939994206881 | epot = -15.2719522011324 | etot = -14.6424332455135
248000  ekin = 0.112944688754523 |  erot = 0.508635652295277 | epot = -15.2640135864926 | etot = -14.6424332454428
249000  ekin = 0.11846134890514 |  erot = 0.495107336753422 | epot = -15.2560019310289 | etot = -14.6424332453704
250000  ekin = 0.125320510713214 |  erot = 0.48130071319683 | epot = -15.2490544692099 | etot = -14.6424332452999
251000  ekin = 0.133674056955099 |  erot = 0.468173145423569 | epot = -15.2442804476134 | etot = -14.6424332452347
252000  ekin = 0.143624355872782 |  erot = 0.456650355973676 | epot = -15.2427079570244 | etot = -14.6424332451779
253000  ekin = 0.155217400154351 |  erot = 0.447587277165331 | epot = -15.2452379224514 | etot = -14.6424332451318
254000  ekin = 0.168438906844348 |  erot = 0.441734376017242 | epot = -15.2526065279594 | etot = -14.6424332450978
255000  ekin = 0.183213121644194 |  erot = 0.43971022735347 | epot = -15.2653565940749 | etot = -14.6424332450772
256000  ekin = 0.199403908832166 |  erot = 0.441980689733479 | epot = -15.2838178436365 | etot = -14.6424332450708
257000  ekin = 0.216817638461889 |  erot = 0.448844730305189 | epot = -15.3080956138459 | etot = -14.6424332450788
258000  ekin = 0.235207399035754 |  erot = 0.460426746275392 | epot = -15.338067390412 | etot = -14.6424332451008
259000  ekin = 0.254278151366129 |  erot = 0.476675120648644 | epot = -15.373386517151 | etot = -14.6424332451362
260000  ekin = 0.273692576676924 |  erot = 0.49736669170667 | epot = -15.4134925135676 | etot = -14.642433245184
261000  ekin = 0.293077534073102 |  erot = 0.522116767905281 | epot = -15.4576275472213 | etot = -14.6424332452429
262000  ekin = 0.312031202020399 |  erot = 0.550394247121215 | epot = -15.5048586944527 | etot = -14.642433245311
263000  ekin = 0.330131107615849 |  erot = 0.581541281999657 | epot = -15.554105635002 | etot = -14.6424332453865
264000  ekin = 0.346943319969814 |  erot = 0.614796773447099 | epot = -15.6041733388837 | etot = -14.6424332454667
265000  ekin = 0.362033078254078 |  erot = 0.64932279499714 | epot = -15.6537891188008 | etot = -14.6424332455496
266000  ekin = 0.374977027495969 |  erot = 0.684232889060528 | epot = -15.7016431621888 | etot = -14.6424332456323
267000  ekin = 0.385377045180505 |  erot = 0.718621072064159 | epot = -15.7464313629565 | etot = -14.6424332457118
268000  ekin = 0.392875374675151 |  erot = 0.75159036946739 | epot = -15.7868989899282 | etot = -14.6424332457857
269000  ekin = 0.397170471133891 |  erot = 0.782279784278107 | epot = -15.8218835012631 | etot = -14.6424332458511
270000  ekin = 0.398032662022584 |  erot = 0.809888771679725 | epot = -15.8503546796085 | etot = -14.6424332459062
271000  ekin = 0.395318487593106 |  erot = 0.833698516715849 | epot = -15.8714502502576 | etot = -14.6424332459487
272000  ekin = 0.3889824743465 |  erot = 0.853089551914417 | epot = -15.8845052722381 | etot = -14.6424332459772
273000  ekin = 0.379085147925856 |  erot = 0.867555470410714 | epot = -15.8890738643275 | etot = -14.6424332459909
274000  ekin = 0.365796322187845 |  erot = 0.876712662634537 | epot = -15.8849422308118 | etot = -14.6424332459894
275000  ekin = 0.349393082916426 |  erot = 0.880306121918472 | epot = -15.872132450808 | etot = -14.6424332459731
276000  ekin = 0.330252358900968 |  erot = 0.878211432153003 | epot = -15.8508970369967 | etot = -14.6424332459427
277000  ekin = 0.308838461216024 |  erot = 0.870433084880285 | epot = -15.821704791996 | etot = -14.6424332458996
278000  ekin = 0.285686394600537 |  erot = 0.857099294887754 | epot = -15.785218935334 | etot = -14.6424332458457
279000  ekin = 0.261382042763559 |  erot = 0.838453513182875 | epot = -15.7422688017293 | etot = -14.6424332457829
280000  ekin = 0.236540473323853 |  erot = 0.814842890589049 | epot = -15.6938166096265 | etot = -14.6424332457136
281000  ekin = 0.211783602606715 |  erot = 0.786704032858738 | epot = -15.6409208811057 | etot = -14.6424332456403
282000  ekin = 0.187718337271409 |  erot = 0.754546508157302 | epot = -15.5846980909941 | etot = -14.6424332455654
283000  ekin = 0.16491611509112 |  erot = 0.718934708844168 | epot = -15.5262840694266 | etot = -14.6424332454913
284000  ekin = 0.143894549222822 |  erot = 0.680468811937736 | epot = -15.466796606581 | etot = -14.6424332454204
285000  ekin = 0.125101678374138 |  erot = 0.639765701845489 | epot = -15.4073006255745 | etot = -14.6424332453549
286000  ekin = 0.108903164109909 |  erot = 0.597440790007828 | epot = -15.3487771994138 | etot = -14.6424332452961
287000  ekin = 0.0955726645582895 |  erot = 0.554091668601936 | epot = -15.2920975784057 | etot = -14.6424332452455
288000  ekin = 0.0852855448043095 |  erot = 0.510284456818714 | epot = -15.2380032468271 | etot = -14.6424332452041
289000  ekin = 0.0781160413143099 |  erot = 0.466543535619487 | epot = -15.187092822106 | etot = -14.6424332451722
290000  ekin = 0.0740379578661698 |  erot = 0.423345127585219 | epot = -15.1398163306013 | etot = -14.6424332451499
291000  ekin = 0.0729289100679055 |  erot = 0.38111487943343 | epot = -15.0964770346381 | etot = -14.6424332451368
292000  ekin = 0.07457803579739 |  erot = 0.340229271733799 | epot = -15.0572405526628 | etot = -14.6424332451316
293000  ekin = 0.0786969407585632 |  erot = 0.301020346544403 | epot = -15.0221505324361 | etot = -14.6424332451332
294000  ekin = 0.0849334564747931 |  erot = 0.263782947584683 | epot = -14.9911496491992 | etot = -14.6424332451397
295000  ekin = 0.0928875723651433 |  erot = 0.228783448803118 | epot = -14.964104266318 | etot = -14.6424332451498
296000  ekin = 0.102128697511344 |  erot = 0.196268840383812 | epot = -14.9408307830567 | etot = -14.6424332451616
297000  ekin = 0.112213252500573 |  erot = 0.166475068215632 | epot = -14.9211215658898 | etot = -14.6424332451736
298000  ekin = 0.122701527070322 |  erot = 0.139633685444096 | epot = -14.9047684576989 | etot = -14.6424332451845
299000  ekin = 0.133172792913731 |  erot = 0.115976150687847 | epot = -14.891582188795 | etot = -14.6424332451934
300000  ekin = 0.143237839709879 |  erot = 0.0957354521197614 | epot = -14.8814065370294 | etot = -14.6424332451998
301000  ekin = 0.152548387990868 |  erot = 0.079145090872109 | epot = -14.8741267240665 | etot = -14.6424332452036
302000  ekin = 0.160803184301541 |  erot = 0.0664357608556664 | epot = -14.869672190362 | etot = -14.6424332452048
303000  ekin = 0.167750948488392 |  erot = 0.0578302677258683 | epot = -14.8680144614181 | etot = -14.6424332452038
304000  ekin = 0.173190665588574 |  erot = 0.053537313638039 | epot = -14.869161224428 | etot = -14.6424332452014
305000  ekin = 0.17696995295018 |  erot = 0.0537447402922378 | epot = -14.8731479384404 | etot = -14.642433245198
306000  ekin = 0.178982363291699 |  erot = 0.0586126977894969 | epot = -14.8800283062755 | etot = -14.6424332451943
307000  ekin = 0.179164502945091 |  erot = 0.0682670321079287 | epot = -14.8898647802439 | etot = -14.6424332451908
308000  ekin = 0.177493763289092 |  erot = 0.0827930029211812 | epot = -14.9027200113984 | etot = -14.6424332451881
309000  ekin = 0.173987301152073 |  erot = 0.102229291873313 | epot = -14.9186498382119 | etot = -14.6424332451865
310000  ekin = 0.168702678648375 |  erot = 0.126562162218708 | epot = -14.9376980860533 | etot = -14.6424332451862
311000  ekin = 0.161740297010248 |  erot = 0.155719593409014 | epot = -14.9598931356065 | etot = -14.6424332451872
312000  ekin = 0.153247440126422 |  erot = 0.189565237979898 | epot = -14.985245923296 | etot = -14.6424332451897
313000  ekin = 0.143423389998644 |  erot = 0.227892126762103 | epot = -15.0137487619544 | etot = -14.6424332451937
314000  ekin = 0.132524706020331 |  erot = 0.270416174781572 | epot = -15.0453741260009 | etot = -14.642433245199
315000  ekin = 0.120869409554577 |  erot = 0.316769708289568 | epot = -15.0800723630506 | etot = -14.6424332452064
316000  ekin = 0.1088385461069 |  erot = 0.366495437994217 | epot = -15.1177672293174 | etot = -14.6424332452163
317000  ekin = 0.0968734934299855 |  erot = 0.419041536808397 | epot = -15.1583482754675 | etot = -14.6424332452291
318000  ekin = 0.0854675378572644 |  erot = 0.473758725762784 | epot = -15.2016595088659 | etot = -14.6424332452459
319000  ekin = 0.075150727147421 |  erot = 0.529900497446475 | epot = -15.2474844698617 | etot = -14.6424332452678
320000  ekin = 0.0664678443385232 |  erot = 0.586627760737823 | epot = -15.2955288503722 | etot = -14.6424332452959
321000  ekin = 0.059950459058179 |  erot = 0.643019202689393 | epot = -15.3454029070786 | etot = -14.6424332453311
322000  ekin = 0.0560852142815268 |  erot = 0.698088453264993 | epot = -15.3966069129204 | etot = -14.6424332453739
323000  ekin = 0.0552815181260069 |  erot = 0.750808639914419 | epot = -15.4485234034645 | etot = -14.6424332454241
324000  ekin = 0.0578423255211866 |  erot = 0.800144112656301 | epot = -15.5004196836582 | etot = -14.6424332454807
325000  ekin = 0.0639414864635146 |  erot = 0.845088070114596 | epot = -15.5514628021197 | etot = -14.6424332455416
326000  ekin = 0.0736101694204752 |  erot = 0.884703689967817 | epot = -15.6007471049927 | etot = -14.6424332456044
327000  ekin = 0.0867333560885487 |  erot = 0.918165419814667 | epot = -15.6473320215694 | etot = -14.6424332456662
328000  ekin = 0.103055779602217 |  erot = 0.944796600226744 | epot = -15.690285625553 | etot = -14.642433245724
329000  ekin = 0.1221954461684 |  erot = 0.96409978159851 | epot = -15.7287284735425 | etot = -14.6424332457755
330000  ekin = 0.143662406707273 |  erot = 0.975776996242528 | epot = -15.7618726487686 | etot = -14.6424332458188
331000  ekin = 0.166880785130064 |  erot = 0.979738667524189 | epot = -15.7890526985066 | etot = -14.6424332458523
332000  ekin = 0.191212923965915 |  erot = 0.976101405909937 | epot = -15.8097475757514 | etot = -14.6424332458755
333000  ekin = 0.215985355315125 |  erot = 0.965176233546748 | epot = -15.8235948347498 | etot = -14.6424332458879
334000  ekin = 0.24051665682631 |  erot = 0.947449485120597 | epot = -15.8303993878361 | etot = -14.6424332458892
335000  ekin = 0.26414689608108 |  erot = 0.923558676876283 | epot = -15.8301388188364 | etot = -14.6424332458791
336000  ekin = 0.286267467748829 |  erot = 0.894265184768752 | epot = -15.8229658983753 | etot = -14.6424332458577
337000  ekin = 0.306349134744513 |  erot = 0.860424939344407 | epot = -15.8092073199143 | etot = -14.6424332458254
338000  ekin = 0.323965497669025 |  erot = 0.822957838329877 | epot = -15.7893565817819 | etot = -14.642433245783
339000  ekin = 0.338809250783304 |  erot = 0.782816380156787 | epot = -15.7640588766722 | etot = -14.6424332457321
340000  ekin = 0.350699444228141 |  erot = 0.740954141308451 | epot = -15.7340868312115 | etot = -14.6424332456749
341000  ekin = 0.359579293531071 |  erot = 0.698295027836097 | epot = -15.700307566981 | etot = -14.6424332456138
342000  ekin = 0.365505462149765 |  erot = 0.655704542038121 | epot = -15.6636432497398 | etot = -14.6424332455519
343000  ekin = 0.368630832656567 |  erot = 0.613964463467572 | epot = -15.6250285416159 | etot = -14.6424332454918
344000  ekin = 0.369183369584817 |  erot = 0.573752273081738 | epot = -15.5853688881026 | etot = -14.642433245436
345000  ekin = 0.367443732820373 |  erot = 0.535626361233109 | epot = -15.54550333944 | etot = -14.6424332453865
346000  ekin = 0.363723933128383 |  erot = 0.500017626275288 | epot = -15.5061748047483 | etot = -14.6424332453446
347000  ekin = 0.358348705274846 |  erot = 0.467227585425628 | epot = -15.4680095360116 | etot = -14.6424332453111
348000  ekin = 0.351640582952566 |  erot = 0.4374326669059 | epot = -15.4315064951446 | etot = -14.6424332452861
349000  ekin = 0.343909024693087 |  erot = 0.410693986167346 | epot = -15.3970362561292 | etot = -14.6424332452687
350000  ekin = 0.335443435967581 |  erot = 0.386971649877954 | epot = -15.3648483311043 | etot = -14.6424332452588
351000  ekin = 0.326509584093039 |  erot = 0.366142474248718 | epot = -15.335085303596 | etot = -14.6424332452543
352000  ekin = 0.317348699021883 |  erot = 0.348019930398466 | epot = -15.3078018746745 | etot = -14.6424332452541
353000  ekin = 0.308178466648788 |  erot = 0.332375117499591 | epot = -15.2829868294052 | etot = -14.6424332452568
354000  ekin = 0.299195119854707 |  erot = 0.318957598137064 | epot = -15.2605859632527 | etot = -14.6424332452609
355000  ekin = 0.290575888249379 |  erot = 0.307515001368934 | epot = -15.2405241348835 | etot = -14.6424332452652
356000  ekin = 0.282481160313156 |  erot = 0.297810406216369 | epot = -15.222724811798 | etot = -14.6424332452685
357000  ekin = 0.275055828994531 |  erot = 0.289636664277624 | epot = -15.2071257385424 | etot = -14.6424332452703
358000  ekin = 0.268429427255711 |  erot = 0.282827006912599 | epot = -15.1936896794384 | etot = -14.6424332452701
359000  ekin = 0.262714810202522 |  erot = 0.27726150785896 | epot = -15.1824095633295 | etot = -14.642433245268
360000  ekin = 0.258005302570153 |  erot = 0.27286922775014 | epot = -15.1733077755847 | etot = -14.6424332452644
361000  ekin = 0.254370400622442 |  erot = 0.269626137803928 | epot = -15.1664297836866 | etot = -14.6424332452602
362000  ekin = 0.251850290179253 |  erot = 0.267549186090195 | epot = -15.1618327215257 | etot = -14.6424332452562
363000  ekin = 0.250449609863304 |  erot = 0.266687109599918 | epot = -15.159569964717 | etot = -14.6424332452538
364000  ekin = 0.250131041863865 |  erot = 0.267108788860229 | epot = -15.1596730759782 | etot = -14.6424332452541
365000  ekin = 0.250809442162603 |  erot = 0.268890073930453 | epot = -15.1621327613513 | etot = -14.6424332452583
366000  ekin = 0.252347318763936 |  erot = 0.272100073008305 | epot = -15.1668806370397 | etot = -14.6424332452674
367000  ekin = 0.254552520179196 |  erot = 0.276787886821285 | epot = -15.1737736522827 | etot = -14.6424332452822
368000  ekin = 0.257178996154131 |  erot = 0.282970699525181 | epot = -15.1825829409825 | etot = -14.6424332453031
369000  ekin = 0.259931424909745 |  erot = 0.290624011144299 | epot = -15.192988681384 | etot = -14.64243324533
370000  ekin = 0.262474349327928 |  erot = 0.299674631815222 | epot = -15.2045822265054 | etot = -14.6424332453623
371000  ekin = 0.264446209429907 |  erot = 0.309996869296871 | epot = -15.2168763241254 | etot = -14.6424332453986
372000  ekin = 0.265478281863389 |  erot = 0.321412142685457 | epot = -15.2293236699861 | etot = -14.6424332454373
373000  ekin = 0.265218028292376 |  erot = 0.333692059446785 | epot = -15.2413433332155 | etot = -14.6424332454763
374000  ekin = 0.263355721250448 |  erot = 0.346564809668627 | epot = -15.2523537764321 | etot = -14.642433245513
375000  ekin = 0.259652497503897 |  erot = 0.359724567994853 | epot = -15.2618103110439 | etot = -14.6424332455451
376000  ekin = 0.253967268937808 |  erot = 0.372843454380789 | epot = -15.2692439688887 | etot = -14.6424332455701
377000  ekin = 0.246279333501477 |  erot = 0.385585491294775 | epot = -15.274298070382 | etot = -14.6424332455858
378000  ekin = 0.236703249878247 |  erot = 0.397621906698149 | epot = -15.2767584021673 | etot = -14.6424332455909
379000  ekin = 0.225492756944964 |  erot = 0.408647066931745 | epot = -15.2765730694618 | etot = -14.6424332455851
380000  ekin = 0.213031377539245 |  erot = 0.418394278996723 | epot = -15.2738589021049 | etot = -14.642433245569
381000  ekin = 0.199808877315916 |  erot = 0.426650676211877 | epot = -15.2688927990715 | etot = -14.6424332455437
382000  ekin = 0.186384809019047 |  erot = 0.433270396055878 | epot = -15.2620884505868 | etot = -14.6424332455119
383000  ekin = 0.17334261614412 |  erot = 0.43818527905067 | epot = -15.253961140671 | etot = -14.6424332454763
384000  ekin = 0.161239700831456 |  erot = 0.441412371402826 | epot = -15.2450853176736 | etot = -14.6424332454393
385000  ekin = 0.150559954647611 |  erot = 0.44305761255287 | epot = -15.2360508126044 | etot = -14.6424332454039
386000  ekin = 0.141675129699194 |  erot = 0.443315241523142 | epot = -15.2274236165942 | etot = -14.6424332453719
387000  ekin = 0.134820015697999 |  erot = 0.442462667348848 | epot = -15.2197159283911 | etot = -14.6424332453443
388000  ekin = 0.13008397641356 |  erot = 0.440850813513913 | epot = -15.2133680352489 | etot = -14.6424332453214
389000  ekin = 0.127418570237893 |  erot = 0.438890246279018 | epot = -15.2087420618201 | etot = -14.6424332453031
390000  ekin = 0.126658423093208 |  erot = 0.43703370208609 | epot = -15.2061253704679 | etot = -14.6424332452886
391000  ekin = 0.127550804261 |  erot = 0.435755902066193 | epot = -15.2057399516044 | etot = -14.6424332452772
392000  ekin = 0.129788752935804 |  erot = 0.435531744058787 | epot = -15.2077537422628 | etot = -14.6424332452682
393000  ekin = 0.13304305531626 |  erot = 0.436814065078293 | epot = -15.2122903656558 | etot = -14.6424332452612
394000  ekin = 0.136989561466103 |  erot = 0.440012156511466 | epot = -15.2194349632339 | etot = -14.6424332452564
395000  ekin = 0.14132983304257 |  erot = 0.445472096886654 | epot = -15.2292351751829 | etot = -14.6424332452536
396000  ekin = 0.145804542777681 |  erot = 0.453459767650199 | epot = -15.2416975556816 | etot = -14.6424332452538
397000  ekin = 0.150200153189366 |  erot = 0.464147173463272 | epot = -15.25678057191 | etot = -14.6424332452573
398000  ekin = 0.15435008976728 |  erot = 0.477602441560255 | epot = -15.2743857765924 | etot = -14.6424332452649
399000  ekin = 0.158131920623959 |  erot = 0.493783661157207 | epot = -15.2943488270583 | etot = -14.6424332452771
400000  ekin = 0.161462056175853 |  erot = 0.512536568007593 | epot = -15.3164318694778 | etot = -14.6424332452943
401000  ekin = 0.164289301183567 |  erot = 0.533595989003385 | epot = -15.3403185355036 | etot = -14.6424332453166
402000  ekin = 0.166588323053572 |  erot = 0.55659092884037 | epot = -15.3656124972378 | etot = -14.6424332453439
403000  ekin = 0.16835381038289 |  erot = 0.58105318364463 | epot = -15.3918402394033 | etot = -14.6424332453758
404000  ekin = 0.169595821304614 |  erot = 0.606429376023061 | epot = -15.4184584427392 | etot = -14.6424332454115
405000  ekin = 0.170336578565564 |  erot = 0.632096292540154 | epot = -15.4448661165559 | etot = -14.6424332454501
406000  ekin = 0.170608761982374 |  erot = 0.657379344514133 | epot = -15.4704213519868 | etot = -14.6424332454903
407000  ekin = 0.170455178570794 |  erot = 0.681573854093717 | epot = -15.494462278195 | etot = -14.6424332455305
408000  ekin = 0.169929554813016 |  erot = 0.703968692150293 | epot = -15.5163314925322 | etot = -14.6424332455689
409000  ekin = 0.169098093454333 |  erot = 0.723871579520596 | epot = -15.5354029185788 | etot = -14.6424332456039
410000  ekin = 0.168041369043282 |  erot = 0.740635137247647 | epot = -15.5511097519246 | etot = -14.6424332456336
411000  ekin = 0.166856102811057 |  erot = 0.753682569970613 | epot = -15.5629719184382 | etot = -14.6424332456565
412000  ekin = 0.165656359034687 |  erot = 0.76253172509273 | epot = -15.5706213297985 | etot = -14.6424332456711
413000  ekin = 0.164573741712574 |  erot = 0.766816218739474 | epot = -15.5738232061285 | etot = -14.6424332456765
414000  ekin = 0.163756240958045 |  erot = 0.766302377571816 | epot = -15.5724918642017 | etot = -14.6424332456719
415000  ekin = 0.163365479945339 |  erot = 0.760900920225148 | epot = -15.5666996458277 | etot = -14.6424332456572
416000  ekin = 0.163572240093402 |  erot = 0.750672586700066 | epot = -15.5566780724265 | etot = -14.642433245633
417000  ekin = 0.164550286198168 |  erot = 0.735827297892153 | epot = -15.5428108296905 | etot = -14.6424332456002
418000  ekin = 0.166468663391044 |  erot = 0.716716857301884 | epot = -15.5256187662531 | etot = -14.6424332455602
419000  ekin = 0.169482781124195 |  erot = 0.693821649100888 | epot = -15.5057376757398 | etot = -14.6424332455147
420000  ekin = 0.173724722664409 |  erot = 0.667732191685395 | epot = -15.4838901598156 | etot = -14.6424332454658
421000  ekin = 0.179293310757521 |  erot = 0.6391267255838 | epot = -15.4608532817571 | etot = -14.6424332454157
422000  ekin = 0.186244514517606 |  erot = 0.608746211201722 | epot = -15.437423971086 | etot = -14.6424332453667
423000  ekin = 0.19458279814308 |  erot = 0.577368165579534 | epot = -15.4143842090434 | etot = -14.6424332453208
424000  ekin = 0.204253993027993 |  erot = 0.545780680988055 | epot = -15.3924679192961 | etot = -14.64243324528
425000  ekin = 0.215140228915628 |  erot = 0.514757766833693 | epot = -15.3723312409952 | etot = -14.6424332452459
426000  ekin = 0.227057395196094 |  erot = 0.485036881516685 | epot = -15.3545275219322 | etot = -14.6424332452194
427000  ekin = 0.2397555262249 |  erot = 0.457299221562917 | epot = -15.3394879929896 | etot = -14.6424332452018
428000  ekin = 0.252922416268525 |  erot = 0.432153058136034 | epot = -15.3275087195978 | etot = -14.6424332451932
429000  ekin = 0.266190667178493 |  erot = 0.410120192009067 | epot = -15.3187441043812 | etot = -14.6424332451936
430000  ekin = 0.279148248284974 |  erot = 0.391625457763382 | epot = -15.3132069512513 | etot = -14.6424332452029
431000  ekin = 0.29135249529286 |  erot = 0.376989149811693 | epot = -15.3107748903245 | etot = -14.64243324522
432000  ekin = 0.302347287569365 |  erot = 0.366422254467258 | epot = -15.3112027872808 | etot = -14.6424332452442
433000  ekin = 0.311682921770367 |  erot = 0.360024429013421 | epot = -15.3141405960571 | etot = -14.6424332452733
434000  ekin = 0.318937954386236 |  erot = 0.357784738271833 | epot = -15.3191559379639 | etot = -14.6424332453059
435000  ekin = 0.323742037713895 |  erot = 0.359585207274089 | epot = -15.3257604903287 | etot = -14.6424332453407
436000  ekin = 0.325798554030487 |  erot = 0.365207245307322 | epot = -15.3334390447139 | etot = -14.6424332453761
437000  ekin = 0.324905697096463 |  erot = 0.374340922351957 | epot = -15.3416798648574 | etot = -14.6424332454089
438000  ekin = 0.320974589857369 |  erot = 0.386596930163013 | epot = -15.3500047654581 | etot = -14.6424332454377
439000  ekin = 0.314043077745089 |  erot = 0.401520852188733 | epot = -15.3579971753951 | etot = -14.6424332454613
440000  ekin = 0.304283988018853 |  erot = 0.418609132217991 | epot = -15.3653263657148 | etot = -14.6424332454779
441000  ekin = 0.292006859109404 |  erot = 0.437325916197886 | epot = -15.3717660207937 | etot = -14.6424332454864
442000  ekin = 0.277652365812269 |  erot = 0.457119792524577 | epot = -15.3772054038238 | etot = -14.6424332454869
443000  ekin = 0.261778853587318 |  erot = 0.477439412182355 | epot = -15.3816515112496 | etot = -14.6424332454799
444000  ekin = 0.245040553430214 |  erot = 0.497747053383824 | epot = -15.3852208522809 | etot = -14.6424332454669
445000  ekin = 0.228157260415731 |  erot = 0.517529408210585 | epot = -15.3881199140755 | etot = -14.6424332454491
446000  ekin = 0.211875681724412 |  erot = 0.536305196865295 | epot = -15.3906141240194 | etot = -14.6424332454297
447000  ekin = 0.196923472676251 |  erot = 0.55362963276261 | epot = -15.3929863508503 | etot = -14.6424332454115
448000  ekin = 0.183958277875551 |  erot = 0.569096233380425 | epot = -15.3954877566541 | etot = -14.6424332453982
449000  ekin = 0.173515771308133 |  erot = 0.58233694716115 | epot = -15.3982859638622 | etot = -14.642433245393
450000  ekin = 0.165962361194704 |  erot = 0.593021970155263 | epot = -15.4014175767483 | etot = -14.6424332453983
451000  ekin = 0.161459280831059 |  erot = 0.600860851258439 | epot = -15.4047533775047 | etot = -14.6424332454152
452000  ekin = 0.159944578250382 |  erot = 0.605606408084731 | epot = -15.4079842317782 | etot = -14.6424332454431
453000  ekin = 0.161137653112592 |  erot = 0.60706249637563 | epot = -15.4106333949674 | etot = -14.6424332454792
454000  ekin = 0.164567591511406 |  erot = 0.60509577931268 | epot = -15.4120966163435 | etot = -14.6424332455195
455000  ekin = 0.169622334208391 |  erot = 0.599650455426718 | epot = -15.4117060351935 | etot = -14.6424332455584
456000  ekin = 0.17561180235025 |  erot = 0.590763702898742 | epot = -15.4088087508399 | etot = -14.6424332455909
457000  ekin = 0.181835621982482 |  erot = 0.578578749366101 | epot = -15.4028476169608 | etot = -14.6424332456122
458000  ekin = 0.187645727031656 |  erot = 0.563352302650951 | epot = -15.3934312753017 | etot = -14.6424332456191
459000  ekin = 0.192495880386114 |  erot = 0.54545371714998 | epot = -15.3803828431462 | etot = -14.6424332456101
460000  ekin = 0.195973381638774 |  erot = 0.525354597711239 | epot = -15.3637612249358 | etot = -14.6424332455858
461000  ekin = 0.197811920992994 |  erot = 0.503609203462524 | epot = -15.3438543700041 | etot = -14.6424332455486
462000  ekin = 0.197887724921045 |  erot = 0.480827560282241 | epot = -15.3211485307047 | etot = -14.6424332455014
463000  ekin = 0.196203198487146 |  erot = 0.457644248436018 | epot = -15.2962806923716 | etot = -14.6424332454485
464000  ekin = 0.192863034127871 |  erot = 0.4346862204284 | epot = -15.2699824999498 | etot = -14.6424332453935
465000  ekin = 0.188047435824124 |  erot = 0.412542760090356 | epot = -15.2430234412545 | etot = -14.64243324534
466000  ekin = 0.18198610755457 |  erot = 0.391740010671241 | epot = -15.2161593635165 | etot = -14.6424332452907
467000  ekin = 0.174935400199639 |  erot = 0.372721626734284 | epot = -15.1900902721815 | etot = -14.6424332452476
468000  ekin = 0.167159826103632 |  erot = 0.35583625835081 | epot = -15.1654293296664 | etot = -14.642433245212
469000  ekin = 0.158918218023896 |  erot = 0.341331890764782 | epot = -15.142683353973 | etot = -14.6424332451844
470000  ekin = 0.150454185654319 |  erot = 0.329356584633462 | epot = -15.1222440154524 | etot = -14.6424332451646
471000  ekin = 0.141990180750332 |  erot = 0.319964871776705 | epot = -15.1043882976792 | etot = -14.6424332451522
472000  ekin = 0.133724353868932 |  erot = 0.313128906245091 | epot = -15.08928650526 | etot = -14.642433245146
473000  ekin = 0.125829398102408 |  erot = 0.308753392324225 | epot = -15.0770160355716 | etot = -14.642433245145
474000  ekin = 0.118452666363557 |  erot = 0.306693264413833 | epot = -15.0675791759251 | etot = -14.6424332451477
475000  ekin = 0.111716976219119 |  erot = 0.306773053290691 | epot = -15.0609232746627 | etot = -14.6424332451529
476000  ekin = 0.105721655633339 |  erot = 0.308806833537639 | epot = -15.0569617343301 | etot = -14.6424332451591
477000  ekin = 0.10054352367576 |  erot = 0.312617617130302 | epot = -15.0555943859713 | etot = -14.6424332451652
478000  ekin = 0.0962376398644811 |  erot = 0.318055055635326 | epot = -15.0567259406699 | etot = -14.6424332451701
479000  ekin = 0.0928377950024513 |  erot = 0.325010357030152 | epot = -15.0602813972059 | etot = -14.6424332451733
480000  ekin = 0.0903568546345963 |  erot = 0.333427427763319 | epot = -15.066217527572 | etot = -14.6424332451741
481000  ekin = 0.088787198935855 |  erot = 0.343309423709807 | epot = -15.0745298678182 | etot = -14.6424332451725
482000  ekin = 0.0881016191320308 |  erot = 0.354720133057142 | epot = -15.0852549973579 | etot = -14.6424332451687
483000  ekin = 0.0882551127439617 |  erot = 0.367779908272486 | epot = -15.0984682661795 | etot = -14.642433245163
484000  ekin = 0.0891880440138072 |  erot = 0.382656193507619 | epot = -15.1142774826776 | etot = -14.6424332451562
485000  ekin = 0.0908310739109877 |  erot = 0.399549033146302 | epot = -15.1328133522061 | etot = -14.6424332451488
486000  ekin = 0.0931120890990441 |  erot = 0.418672269923144 | epot = -15.154217604164 | etot = -14.6424332451418
487000  ekin = 0.0959650526392659 |  erot = 0.440231422321023 | epot = -15.1786297200963 | etot = -14.642433245136
488000  ekin = 0.0993402613867423 |  erot = 0.464399451384504 | epot = -15.2061729579036 | etot = -14.6424332451324
489000  ekin = 0.103214957397683 |  erot = 0.491291775403278 | epot = -15.2369399779328 | etot = -14.6424332451318
490000  ekin = 0.107602676597188 |  erot = 0.520941965498224 | epot = -15.2709778872309 | etot = -14.6424332451355
491000  ekin = 0.112559247664625 |  erot = 0.553279563916973 | epot = -15.3082720567259 | etot = -14.6424332451443
492000  ekin = 0.118183136723599 |  erot = 0.588111425308464 | epot = -15.3487278071918 | etot = -14.6424332451598
493000  ekin = 0.12460804012638 |  erot = 0.625107908278983 | epot = -15.3921491935888 | etot = -14.6424332451835
494000  ekin = 0.131986393312559 |  erot = 0.663795156035105 | epot = -15.4382147945647 | etot = -14.642433245217
495000  ekin = 0.140463823900155 |  erot = 0.703554605721716 | epot = -15.4864516748841 | etot = -14.6424332452623
496000  ekin = 0.150146408035833 |  erot = 0.743630741563153 | epot = -15.5362103949194 | etot = -14.6424332453204
497000  ekin = 0.161064579071306 |  erot = 0.783147917317561 | epot = -15.5866457417809 | etot = -14.642433245392
498000  ekin = 0.173139219157371 |  erot = 0.821136754972764 | epot = -15.6367092196066 | etot = -14.6424332454764
499000  ekin = 0.186156317833367 |  erot = 0.856570103856702 | epot = -15.6851596672615 | etot = -14.6424332455714
500000  ekin = 0.199756195068917 |  erot = 0.888407758274046 | epot = -15.7305971990159 | etot = -14.642433245673
501000  ekin = 0.21344151783732 |  erot = 0.915648078732857 | epot = -15.7715228423457 | etot = -14.6424332457755
502000  ekin = 0.226605416597982 |  erot = 0.937383433649182 | epot = -15.8064220961193 | etot = -14.6424332458721
503000  ekin = 0.238577508977576 |  erot = 0.952855183124931 | epot = -15.833865938058 | etot = -14.6424332459555
504000  ekin = 0.248682347016318 |  erot = 0.961503066788369 | epot = -15.8526186598236 | etot = -14.6424332460189
505000  ekin = 0.256302488969577 |  erot = 0.963003656366666 | epot = -15.8617393913931 | etot = -14.6424332460568
506000  ekin = 0.260937583144178 |  erot = 0.957293217920571 | epot = -15.8606640471306 | etot = -14.6424332460659
507000  ekin = 0.262251679299231 |  erot = 0.944571918258594 | epot = -15.8492568436029 | etot = -14.6424332460451
508000  ekin = 0.260103184111397 |  erot = 0.925288564934429 | epot = -15.827824995042 | etot = -14.6424332459962
509000  ekin = 0.254554875280442 |  erot = 0.900107536937821 | epot = -15.7970956581413 | etot = -14.6424332459231
510000  ekin = 0.245864483348175 |  erot = 0.86986171798534 | epot = -15.7581594471648 | etot = -14.6424332458313
511000  ekin = 0.234458914526877 |  erot = 0.835496660126416 | epot = -15.7123888203806 | etot = -14.6424332457274
512000  ekin = 0.220896820239971 |  erot = 0.798011684065844 | epot = -15.6613417499238 | etot = -14.642433245618
513000  ekin = 0.205824805087871 |  erot = 0.758403224578284 | epot = -15.6066612751758 | etot = -14.6424332455096
514000  ekin = 0.189932244116161 |  erot = 0.717614706860263 | epot = -15.5499801963839 | etot = -14.6424332454075
515000  ekin = 0.173908748199765 |  erot = 0.676495918872529 | epot = -15.4928379123883 | etot = -14.642433245316
516000  ekin = 0.158407108508989 |  erot = 0.635773516025286 | epot = -15.4366138697725 | etot = -14.6424332452382
517000  ekin = 0.144013350183886 |  erot = 0.596033149118079 | epot = -15.3824797444782 | etot = -14.6424332451762
518000  ekin = 0.131224514117994 |  erot = 0.557712825688904 | epot = -15.3313705849374 | etot = -14.6424332451305
519000  ekin = 0.120434042405807 |  erot = 0.521106495597668 | epot = -15.2839737831041 | etot = -14.6424332451006
520000  ekin = 0.111924165176683 |  erot = 0.486376443199705 | epot = -15.2407338534619 | etot = -14.6424332450855
521000  ekin = 0.105864424815849 |  erot = 0.453572806060381 | epot = -15.2018704759593 | etot = -14.6424332450831
522000  ekin = 0.102315362067358 |  erot = 0.422658367131465 | epot = -15.1674069742899 | etot = -14.6424332450911
523000  ekin = 0.101236366465137 |  erot = 0.393536647096961 | epot = -15.1372062586691 | etot = -14.642433245107
524000  ekin = 0.102496717236706 |  erot = 0.366081244308194 | epot = -15.1110112066729 | etot = -14.642433245128
525000  ekin = 0.105888887335992 |  erot = 0.34016434321467 | epot = -15.0884864757021 | etot = -14.6424332451514
526000  ekin = 0.111143247850877 |  erot = 0.315682368378667 | epot = -15.0692588614047 | etot = -14.6424332451752
527000  ekin = 0.117943398962365 |  erot = 0.292576937806993 | epot = -15.0529535819666 | etot = -14.6424332451972
528000  ekin = 0.125941474255752 |  erot = 0.270849598243849 | epot = -15.0392243177156 | etot = -14.642433245216
529000  ekin = 0.134772916010328 |  erot = 0.250569317239513 | epot = -15.0277754784806 | etot = -14.6424332452307
530000  ekin = 0.144070383403691 |  erot = 0.231872340652251 | epot = -15.018375969297 | etot = -14.6424332452411
531000  ekin = 0.153476601970616 |  erot = 0.21495474143537 | epot = -15.0108645886531 | etot = -14.6424332452472
532000  ekin = 0.162656054078885 |  erot = 0.200058697649297 | epot = -15.0051479969778 | etot = -14.6424332452496
533000  ekin = 0.171305419081474 |  erot = 0.187454143184918 | epot = -15.0011928075154 | etot = -14.642433245249
534000  ekin = 0.179162595540396 |  erot = 0.177417842695335 | epot = -14.9990136834823 | etot = -14.6424332452466
535000  ekin = 0.186014006486671 |  erot = 0.170212094444235 | epot = -14.9986593461737 | etot = -14.6424332452428
536000  ekin = 0.191699759240431 |  erot = 0.166065149228291 | epot = -15.0001981537075 | etot = -14.6424332452388
537000  ekin = 0.196116169931534 |  erot = 0.165155084981491 | epot = -15.0037045001481 | etot = -14.642433245235
538000  ekin = 0.199215220533694 |  erot = 0.167598364573351 | epot = -15.0092468303393 | etot = -14.6424332452323
539000  ekin = 0.201000709669595 |  erot = 0.173443713619053 | epot = -15.0168776685196 | etot = -14.6424332452309
540000  ekin = 0.201521164038038 |  erot = 0.182671367033605 | epot = -15.0266257763031 | etot = -14.6424332452315
541000  ekin = 0.200859940141528 |  erot = 0.195197211442955 | epot = -15.0384903968187 | etot = -14.6424332452342
542000  ekin = 0.199123298889056 |  erot = 0.210880936223658 | epot = -15.052437480352 | etot = -14.6424332452393
543000  ekin = 0.19642751938404 |  erot = 0.22953701778937 | epot = -15.0683977824199 | etot = -14.6424332452465
544000  ekin = 0.192886294945236 |  erot = 0.250947202002185 | epot = -15.086266742204 | etot = -14.6424332452566
545000  ekin = 0.188599710887435 |  erot = 0.274873110235089 | epot = -15.1059060663913 | etot = -14.6424332452688
546000  ekin = 0.183646045242698 |  erot = 0.301067663118868 | epot = -15.1271469536447 | etot = -14.6424332452831
547000  ekin = 0.178077473818678 |  erot = 0.329284179373465 | epot = -15.1497948984913 | etot = -14.6424332452992
548000  ekin = 0.171920510267324 |  erot = 0.359282253783629 | epot = -15.1736360093673 | etot = -14.6424332453164
549000  ekin = 0.165181670578013 |  erot = 0.390829837831145 | epot = -15.1984447537432 | etot = -14.6424332453341
550000  ekin = 0.157858408655518 |  erot = 0.423701326917604 | epot = -15.2239929809249 | etot = -14.6424332453518
551000  ekin = 0.149954809005955 |  erot = 0.457671882716344 | epot = -15.2500599370909 | etot = -14.6424332453686
552000  ekin = 0.141500835823186 |  erot = 0.492508662660355 | epot = -15.2764427438674 | etot = -14.6424332453839
553000  ekin = 0.132573145481932 |  erot = 0.527960055124183 | epot = -15.3029664460032 | etot = -14.6424332453971
554000  ekin = 0.123314645148981 |  erot = 0.563744383269515 | epot = -15.329492273826 | etot = -14.6424332454075
555000  ekin = 0.113949270903167 |  erot = 0.599539792623517 | epot = -15.3559223089418 | etot = -14.6424332454152
556000  ekin = 0.104788088807775 |  erot = 0.634977129563511 | epot = -15.3821984637917 | etot = -14.6424332454204
557000  ekin = 0.0962230654780801 |  erot = 0.669637513724341 | epot = -15.4082938246267 | etot = -14.6424332454242
558000  ekin = 0.0887059614428306 |  erot = 0.703055990480491 | epot = -15.4341951973517 | etot = -14.6424332454284
559000  ekin = 0.0827118847741739 |  erot = 0.734732129423963 | epot = -15.4598772596329 | etot = -14.6424332454348
560000  ekin = 0.0786899547259678 |  erot = 0.764147748398776 | epot = -15.4852709485703 | etot = -14.6424332454456
561000  ekin = 0.077006772063353 |  erot = 0.790791153075906 | epot = -15.5102311706018 | etot = -14.6424332454625
562000  ekin = 0.0778911706764506 |  erot = 0.814186471629049 | epot = -15.534510887792 | etot = -14.6424332454865
563000  ekin = 0.0813901113672784 |  erot = 0.833925925482987 | epot = -15.5577492823675 | etot = -14.6424332455173
564000  ekin = 0.0873448530219235 |  erot = 0.849702302565643 | epot = -15.57948040114 | etot = -14.6424332455524
565000  ekin = 0.0953935152542986 |  erot = 0.861338569497109 | epot = -15.5991653303401 | etot = -14.6424332455887
566000  ekin = 0.105001366119689 |  erot = 0.868811531657212 | epot = -15.6162461433986 | etot = -14.6424332456216
567000  ekin = 0.115514789210836 |  erot = 0.872266750928061 | epot = -15.6302147857854 | etot = -14.6424332456465
568000  ekin = 0.126230320990563 |  erot = 0.87202254676091 | epot = -15.6406861134105 | etot = -14.642433245659
569000  ekin = 0.136467575205463 |  erot = 0.868561781937853 | epot = -15.6474626027996 | etot = -14.6424332456563
570000  ekin = 0.145634823229245 |  erot = 0.862511177262726 | epot = -15.6505792461291 | etot = -14.6424332456371
571000  ekin = 0.153278250260091 |  erot = 0.854608991356116 | epot = -15.6503204872188 | etot = -14.6424332456026
572000  ekin = 0.159109636953922 |  erot = 0.845662918616649 | epot = -15.6472058011259 | etot = -14.6424332455553
573000  ekin = 0.163011362017366 |  erot = 0.83650089231986 | epot = -15.6419454998373 | etot = -14.6424332455001
574000  ekin = 0.165021239080139 |  erot = 0.827918058205197 | epot = -15.6353725427275 | etot = -14.6424332454422
575000  ekin = 0.165302195908603 |  erot = 0.82062347970414 | epot = -15.6283589210001 | etot = -14.6424332453874
576000  ekin = 0.164102988101199 |  erot = 0.815190165398918 | epot = -15.6217263988412 | etot = -14.6424332453411
577000  ekin = 0.161716152387156 |  erot = 0.812011817944536 | epot = -15.6161612156399 | etot = -14.6424332453082
578000  ekin = 0.158438569371811 |  erot = 0.81126934569462 | epot = -15.6121411603585 | etot = -14.6424332452921
579000  ekin = 0.154538688869358 |  erot = 0.812909695780722 | epot = -15.6098816299449 | etot = -14.6424332452948
580000  ekin = 0.150232988454481 |  erot = 0.816638977241796 | epot = -15.6093052110129 | etot = -14.6424332453166
581000  ekin = 0.145672809814969 |  erot = 0.821931135410972 | epot = -15.6100371905821 | etot = -14.6424332453562
582000  ekin = 0.140941476791511 |  erot = 0.828052590350848 | epot = -15.611427312553 | etot = -14.6424332454106
583000  ekin = 0.136060602599167 |  erot = 0.834102246896349 | epot = -15.6125960949712 | etot = -14.6424332454757
584000  ekin = 0.131003759896591 |  erot = 0.839065139158288 | epot = -15.6125021446008 | etot = -14.642433245546
585000  ekin = 0.125715216483012 |  erot = 0.841876757449037 | epot = -15.6100252195478 | etot = -14.6424332456157
586000  ekin = 0.120131224768942 |  erot = 0.841493945666758 | epot = -15.6040584161146 | etot = -14.6424332456789
587000  ekin = 0.114201380572126 |  erot = 0.836967317753738 | epot = -15.5936019440558 | etot = -14.6424332457299
588000  ekin = 0.107907808226734 |  erot = 0.827509595983212 | epot = -15.577850649974 | etot = -14.642433245764
589000  ekin = 0.101280337909725 |  erot = 0.812554260673577 | epot = -15.556267844361 | etot = -14.6424332457777
590000  ekin = 0.0944063548788355 |  erot = 0.79179948842053 | epot = -15.5286390890686 | etot = -14.6424332457692
591000  ekin = 0.0874345511052061 |  erot = 0.765233519223278 | epot = -15.4951013160667 | etot = -14.6424332457382
592000  ekin = 0.0805723392085111 |  erot = 0.733139214285209 | epot = -15.4561447991801 | etot = -14.6424332456864
593000  ekin = 0.0740771594080883 |  erot = 0.696077455348681 | epot = -15.4125878603738 | etot = -14.642433245617
594000  ekin = 0.0682423089599854 |  erot = 0.654850963358098 | epot = -15.3655265178525 | etot = -14.6424332455344
595000  ekin = 0.0633782539014572 |  erot = 0.610451848323546 | epot = -15.3162633476691 | etot = -14.6424332454441
596000  ekin = 0.0597906540649578 |  erot = 0.563997548401054 | epot = -15.2662214478181 | etot = -14.6424332453521
597000  ekin = 0.0577565493624065 |  erot = 0.516660644084201 | epot = -15.216850438711 | etot = -14.6424332452644
598000  ekin = 0.0575003158536251 |  erot = 0.46959829435358 | epot = -15.1695318553938 | etot = -14.6424332451866
599000  ekin = 0.0591710965286367 |  erot = 0.423886769451031 | epot = -15.1254911111031 | etot = -14.6424332451235
600000  ekin = 0.0628234356891102 |  erot = 0.380465849281421 | epot = -15.0857225300491 | etot = -14.6424332450786
601000  ekin = 0.0684027903378405 |  erot = 0.340096852289037 | epot = -15.0509328876809 | etot = -14.6424332450541
602000  ekin = 0.0757374499128925 |  erot = 0.303336891508809 | epot = -15.0215075864722 | etot = -14.6424332450505
603000  ekin = 0.0845381560106828 |  erot = 0.270530726252434 | epot = -14.99750212733 | etot = -14.6424332450669
604000  ekin = 0.0944063594078121 |  erot = 0.241820347963461 | epot = -14.9786599524719 | etot = -14.6424332451006
605000  ekin = 0.104851562460535 |  erot = 0.217171224791041 | epot = -14.9644560323989 | etot = -14.6424332451473
606000  ekin = 0.115317556389795 |  erot = 0.196412930356109 | epot = -14.9541637319474 | etot = -14.6424332452015
607000  ekin = 0.125216580353228 |  erot = 0.179290709847405 | epot = -14.9469405354578 | etot = -14.6424332452571
608000  ekin = 0.133969542490509 |  erot = 0.165523445157638 | epot = -14.9419262329558 | etot = -14.6424332453076
609000  ekin = 0.141049537028455 |  erot = 0.154862582265071 | epot = -14.9383453646402 | etot = -14.6424332453467
610000  ekin = 0.146025095175882 |  erot = 0.147146040888404 | epot = -14.9356043814333 | etot = -14.6424332453691
611000  ekin = 0.148599079335686 |  erot = 0.14234111819369 | epot = -14.9333734429005 | etot = -14.6424332453711
612000  ekin = 0.148639027542167 |  erot = 0.140571068727464 | epot = -14.9316433416208 | etot = -14.6424332453511
613000  ekin = 0.146195193893263 |  erot = 0.142121441395694 | epot = -14.9307498805989 | etot = -14.6424332453099
614000  ekin = 0.141503544704983 |  erot = 0.147424293659382 | epot = -14.9313610836151 | etot = -14.6424332452507
615000  ekin = 0.134972482669517 |  erot = 0.157020849768724 | epot = -14.934426577617 | etot = -14.6424332451788
616000  ekin = 0.127153892887408 |  erot = 0.171505679772539 | epot = -14.9410928177611 | etot = -14.6424332451012
617000  ekin = 0.118700960497153 |  erot = 0.191457667915174 | epot = -14.9525918734384 | etot = -14.6424332450261
618000  ekin = 0.110316794781893 |  erot = 0.217364584491491 | epot = -14.970114624235 | etot = -14.6424332449616
619000  ekin = 0.10269894266605 |  erot = 0.24954877623364 | epot = -14.9946809638152 | etot = -14.6424332449155
620000  ekin = 0.0964852203315238 |  erot = 0.288101317493722 | epot = -15.0270197827192 | etot = -14.642433244894
621000  ekin = 0.0922059091525849 |  erot = 0.332831044367661 | epot = -15.0674701984217 | etot = -14.6424332449015
622000  ekin = 0.0902463647100601 |  erot = 0.383233451864067 | epot = -15.115913061514 | etot = -14.6424332449399
623000  ekin = 0.0908226920702702 |  erot = 0.438482716267865 | epot = -15.171738653347 | etot = -14.6424332450089
624000  ekin = 0.0939716062521546 |  erot = 0.497448307340481 | epot = -15.2338531586982 | etot = -14.6424332451056
625000  ekin = 0.0995541611224779 |  erot = 0.558735886785281 | epot = -15.3007232931328 | etot = -14.6424332452251
626000  ekin = 0.107271859325763 |  erot = 0.620750477457113 | epot = -15.3704555821434 | etot = -14.6424332453605
627000  ekin = 0.11669282673765 |  erot = 0.681778220901699 | epot = -15.4409042931431 | etot = -14.6424332455038
628000  ekin = 0.127285245273588 |  erot = 0.740081431769906 | epot = -15.5097999226895 | etot = -14.642433245646
629000  ekin = 0.138455039153851 |  erot = 0.794000196770826 | epot = -15.574888481703 | etot = -14.6424332457784
630000  ekin = 0.149584842937095 |  erot = 0.842052640240528 | epot = -15.6340707290702 | etot = -14.6424332458926
631000  ekin = 0.160071499853017 |  erot = 0.883025442878399 | epot = -15.6855301887135 | etot = -14.6424332459821
632000  ekin = 0.169359720292761 |  erot = 0.916046503426791 | epot = -15.7278394697615 | etot = -14.642433246042
633000  ekin = 0.176970053692532 |  erot = 0.940632922941054 | epot = -15.7600362227033 | etot = -14.6424332460697
634000  ekin = 0.182519961289937 |  erot = 0.956709735134042 | epot = -15.7816629424891 | etot = -14.6424332460651
635000  ekin = 0.185737466035627 |  erot = 0.964597760206376 | epot = -15.7927684722726 | etot = -14.6424332460306
636000  ekin = 0.186467519303283 |  erot = 0.964972204256364 | epot = -15.7938729695302 | etot = -14.6424332459705
637000  ekin = 0.184671774604459 |  erot = 0.958796660376478 | epot = -15.7859016808714 | etot = -14.6424332458905
638000  ekin = 0.180422825778025 |  erot = 0.947239527072856 | epot = -15.770095598648 | etot = -14.6424332457971
639000  ekin = 0.173894119064824 |  erot = 0.931581224196041 | epot = -15.7479085889582 | etot = -14.6424332456973
640000  ekin = 0.165346701827766 |  erot = 0.913120838753206 | epot = -15.7209007861785 | etot = -14.6424332455976
641000  ekin = 0.155113786103673 |  erot = 0.893090060089469 | epot = -15.6906370916966 | etot = -14.6424332455035
642000  ekin = 0.143583869244195 |  erot = 0.872580710305971 | epot = -15.6585978249697 | etot = -14.6424332454196
643000  ekin = 0.131182953689543 |  erot = 0.852490168054141 | epot = -15.6261063670928 | etot = -14.6424332453491
644000  ekin = 0.118356305761149 |  erot = 0.833486853990058 | epot = -15.5942764050452 | etot = -14.642433245294
645000  ekin = 0.105550209085058 |  erot = 0.815995971212585 | epot = -15.5639794255528 | etot = -14.6424332452552
646000  ekin = 0.0931942744194403 |  erot = 0.800204061931068 | epot = -15.5358315815827 | etot = -14.6424332452322
647000  ekin = 0.0816850001800569 |  erot = 0.786079744440791 | epot = -15.5101979898446 | etot = -14.6424332452237
648000  ekin = 0.0713713598437807 |  erot = 0.773407243193091 | epot = -15.4872118482647 | etot = -14.6424332452279
649000  ekin = 0.0625431628716936 |  erot = 0.761828976530777 | epot = -15.4668053846446 | etot = -14.6424332452421
650000  ekin = 0.0554227735502947 |  erot = 0.750893453414337 | epot = -15.4487494722283 | etot = -14.6424332452637
651000  ekin = 0.0501605027658048 |  erot = 0.740104978448961 | epot = -15.4326987265043 | etot = -14.6424332452896
652000  ekin = 0.0468336713663306 |  erot = 0.728972100421323 | epot = -15.4182390171045 | etot = -14.6424332453168
653000  ekin = 0.0454490492573717 |  erot = 0.717052285945757 | epot = -15.4049345805459 | etot = -14.6424332453428
654000  ekin = 0.0459481524943393 |  erot = 0.703990869784694 | epot = -15.3923722676441 | etot = -14.6424332453651
655000  ekin = 0.0482147495286144 |  erot = 0.689552835107378 | epot = -15.3802008300176 | etot = -14.6424332453816
656000  ekin = 0.0520838761262489 |  erot = 0.673646332749853 | epot = -15.368163454267 | etot = -14.6424332453909
657000  ekin = 0.057351662084844 |  erot = 0.656337023115504 | epot = -15.3561219305924 | etot = -14.6424332453921
[...]
838000  ekin = 0.248642320235611 |  erot = 0.253003904104012 | epot = -15.1440794697608 | etot = -14.6424332454211
839000  ekin = 0.251661569327577 |  erot = 0.236776758987282 | epot = -15.1308715736755 | etot = -14.6424332453606
840000  ekin = 0.253557306828159 |  erot = 0.221424057161585 | epot = -15.1174146092877 | etot = -14.6424332452979
841000  ekin = 0.254567562696711 |  erot = 0.20774147574365 | epot = -15.1047422836789 | etot = -14.6424332452386
842000  ekin = 0.254912814683647 |  erot = 0.196498262354328 | epot = -15.0938443222247 | etot = -14.6424332451867
843000  ekin = 0.254783130765731 |  erot = 0.188382921787082 | epot = -15.0855992976979 | etot = -14.6424332451451
844000  ekin = 0.254340789697796 |  erot = 0.183956927272106 | epot = -15.0807309620845 | etot = -14.6424332451146
845000  ekin = 0.253734932891626 |  erot = 0.183619247980584 | epot = -15.0797874259675 | etot = -14.6424332450953
846000  ekin = 0.253120504196072 |  erot = 0.187583282239813 | epot = -15.0831370315223 | etot = -14.6424332450865
847000  ekin = 0.252671650088183 |  erot = 0.195866742639043 | epot = -15.0909716378151 | etot = -14.6424332450879
848000  ekin = 0.252580915310197 |  erot = 0.208294222463049 | epot = -15.103308382873 | etot = -14.6424332450997
849000  ekin = 0.253039966848168 |  erot = 0.224511555531714 | epot = -15.1199847675025 | etot = -14.6424332451226
850000  ekin = 0.254204001798429 |  erot = 0.244010590097668 | epot = -15.1406478370534 | etot = -14.6424332451573
851000  ekin = 0.256148339026697 |  erot = 0.266162563602488 | epot = -15.1647441478331 | etot = -14.6424332452039
852000  ekin = 0.258829686440493 |  erot = 0.290257858698055 | epot = -15.1915207903997 | etot = -14.6424332452612
853000  ekin = 0.262064657828486 |  erot = 0.315549558167563 | epot = -15.2200474613222 | etot = -14.6424332453261
854000  ekin = 0.265534116122544 |  erot = 0.3412979477362 | epot = -15.2492653092528 | etot = -14.642433245394
855000  ekin = 0.268815174653471 |  erot = 0.366813004430713 | epot = -15.2780614245432 | etot = -14.642433245459
856000  ekin = 0.271435486954491 |  erot = 0.391492007901263 | epot = -15.3053607403707 | etot = -14.6424332455149
857000  ekin = 0.272939108062895 |  erot = 0.414849750473244 | epot = -15.3302221040925 | etot = -14.6424332455563
858000  ekin = 0.272951155039673 |  erot = 0.436539390687867 | epot = -15.3519237913068 | etot = -14.6424332455792
859000  ekin = 0.271229880676363 |  erot = 0.456362750059196 | epot = -15.3700258763173 | etot = -14.6424332455817
860000  ekin = 0.267698633833807 |  erot = 0.474269718460551 | epot = -15.3844015978586 | etot = -14.6424332455643
861000  ekin = 0.262455001752809 |  erot = 0.490347316007701 | epot = -15.3952355632894 | etot = -14.6424332455289
862000  ekin = 0.255758797176621 |  erot = 0.504799761298855 | epot = -15.4029918039549 | etot = -14.6424332454794
863000  ekin = 0.24800356434136 |  erot = 0.517921532812456 | epot = -15.4083583425742 | etot = -14.6424332454204
864000  ekin = 0.239677655584812 |  erot = 0.530065823503365 | epot = -15.4121767244452 | etot = -14.642433245357
865000  ekin = 0.231320889445349 |  erot = 0.541610953534325 | epot = -15.4153650882738 | etot = -14.6424332452942
866000  ekin = 0.223481813676273 |  erot = 0.552927233331992 | epot = -15.4188422922445 | etot = -14.6424332452362
867000  ekin = 0.216679174491962 |  erot = 0.56434649943238 | epot = -15.4234589191111 | etot = -14.6424332451867
868000  ekin = 0.211369750018252 |  erot = 0.576136138938899 | epot = -15.4299391341059 | etot = -14.6424332451488
869000  ekin = 0.207923502308352 |  erot = 0.588478941151549 | epot = -15.438835688584 | etot = -14.6424332451241
870000  ekin = 0.206606153000488 |  erot = 0.601459626890518 | epot = -15.4504990250047 | etot = -14.6424332451137
871000  ekin = 0.207568796758665 |  erot = 0.615058451105769 | epot = -15.4650604929824 | etot = -14.6424332451179
872000  ekin = 0.210843969902117 |  erot = 0.629151875759721 | epot = -15.4824290907979 | etot = -14.642433245136
873000  ekin = 0.216347593119518 |  erot = 0.643519970833803 | epot = -15.50230080912 | etot = -14.6424332451667
874000  ekin = 0.223886305143568 |  erot = 0.657859909730861 | epot = -15.5241794600824 | etot = -14.642433245208
875000  ekin = 0.233169807553262 |  erot = 0.671804662211148 | epot = -15.5474077150218 | etot = -14.6424332452574
876000  ekin = 0.243827877963711 |  erot = 0.684945735800201 | epot = -15.571206859076 | etot = -14.642433245312
877000  ekin = 0.255431632546027 |  erot = 0.696858567354813 | epot = -15.5947234452694 | etot = -14.6424332453685
878000  ekin = 0.267518408513302 |  erot = 0.707128927389039 | epot = -15.6170805813258 | etot = -14.6424332454235
879000  ekin = 0.279619300259058 |  erot = 0.715378495721438 | epot = -15.637431041454 | etot = -14.6424332454735
880000  ekin = 0.291287955020503 |  erot = 0.721287639199418 | epot = -15.6550088397355 | etot = -14.6424332455156
881000  ekin = 0.302128778464605 |  erot = 0.724613422810924 | epot = -15.6691754468228 | etot = -14.6424332455472
882000  ekin = 0.31182230406878 |  erot = 0.725201068177037 | epot = -15.6794566178127 | etot = -14.6424332455669
883000  ekin = 0.320145243787645 |  erot = 0.722987481104317 | epot = -15.6855659704657 | etot = -14.6424332455737
884000  ekin = 0.326982762198833 |  erot = 0.717996120159309 | epot = -15.6874121279266 | etot = -14.6424332455685
885000  ekin = 0.332330882212394 |  erot = 0.710323349672191 | epot = -15.6850874774375 | etot = -14.6424332455529
886000  ekin = 0.336287673330895 |  erot = 0.700117442976369 | epot = -15.6788383618372 | etot = -14.6424332455299
887000  ekin = 0.339032964151514 |  erot = 0.687552454437141 | epot = -15.6690186640918 | etot = -14.6424332455032
888000  ekin = 0.340797654544245 |  erot = 0.672800100945642 | epot = -15.6560310009668 | etot = -14.642433245477
889000  ekin = 0.341825106158877 |  erot = 0.65600340710247 | epot = -15.6402617587168 | etot = -14.6424332454555
890000  ekin = 0.342328347575086 |  erot = 0.637256013166159 | epot = -15.6220176061834 | etot = -14.6424332454421
891000  ekin = 0.342447730491975 |  erot = 0.616590618570723 | epot = -15.6014715945023 | etot = -14.6424332454396
892000  ekin = 0.342214057411655 |  erot = 0.593979026507039 | epot = -15.5786263293678 | etot = -14.6424332454491
893000  ekin = 0.341522004910065 |  erot = 0.569344767734354 | epot = -15.5533000181144 | etot = -14.6424332454699
894000  ekin = 0.340117934117532 |  erot = 0.542587519917411 | epot = -15.5251386995349 | etot = -14.6424332454999
895000  ekin = 0.337605044782463 |  erot = 0.513616778982068 | epot = -15.4936550692998 | etot = -14.6424332455353
896000  ekin = 0.333467462872296 |  erot = 0.482390775175794 | epot = -15.458291483619 | etot = -14.6424332455709
897000  ekin = 0.327113397522047 |  erot = 0.448955709004676 | epot = -15.4185023521276 | etot = -14.6424332456009
898000  ekin = 0.317936017621463 |  erot = 0.413480165460617 | epot = -15.3738494287011 | etot = -14.642433245619
899000  ekin = 0.305389123797586 |  erot = 0.37628007747055 | epot = -15.3241024468869 | etot = -14.6424332456188
900000  ekin = 0.289072881398034 |  erot = 0.337830752319645 | epot = -15.2693368793123 | etot = -14.6424332455946
901000  ekin = 0.268822686263592 |  erot = 0.298764046956938 | epot = -15.2100199787627 | etot = -14.6424332455422
902000  ekin = 0.24479165397371 |  erot = 0.259850521116705 | epot = -15.1470754205494 | etot = -14.642433245459
903000  ekin = 0.217514571467766 |  erot = 0.221968047208425 | epot = -15.0819158640215 | etot = -14.6424332453453
904000  ekin = 0.187939204416785 |  erot = 0.186059692009975 | epot = -15.0164321416314 | etot = -14.6424332452047
905000  ekin = 0.157410847736408 |  erot = 0.153084564880817 | epot = -14.9529286576619 | etot = -14.6424332450446
906000  ekin = 0.127599356275853 |  erot = 0.123965703542096 | epot = -14.8939983046948 | etot = -14.6424332448769
907000  ekin = 0.100365589134282 |  erot = 0.0995389863865378 | epot = -14.8423378202369 | etot = -14.6424332447161
908000  ekin = 0.077575985596938 |  erot = 0.0805066337372383 | epot = -14.8005158639127 | etot = -14.6424332445785
909000  ekin = 0.0608876950042913 |  erot = 0.067398235454302 | epot = -14.770719174938 | etot = -14.6424332444794
910000  ekin = 0.0515382922982553 |  erot = 0.0605415547688289 | epot = -14.7545130914983 | etot = -14.6424332444312
911000  ekin = 0.0501789452889865 |  erot = 0.0600446989609947 | epot = -14.7526568886899 | etot = -14.64243324444
912000  ekin = 0.0567846925721246 |  erot = 0.0657906450220629 | epot = -14.7650085820989 | etot = -14.6424332445047
913000  ekin = 0.0706603747930615 |  erot = 0.0774445361864401 | epot = -14.7905381555972 | etot = -14.6424332446177
914000  ekin = 0.0905398584091933 |  erot = 0.0944735694301048 | epot = -14.8274466726051 | etot = -14.6424332447658
915000  ekin = 0.114756144628423 |  erot = 0.116178630207352 | epot = -14.8733680197685 | etot = -14.6424332449327
916000  ekin = 0.141447043402261 |  erot = 0.141736093138861 | epot = -14.9256163816435 | etot = -14.6424332451024
917000  ekin = 0.168758535419804 |  erot = 0.170247440488293 | epot = -14.9814392211687 | etot = -14.6424332452606
918000  ekin = 0.195014913439577 |  erot = 0.200793639367908 | epot = -15.0382417982038 | etot = -14.6424332453963
919000  ekin = 0.218837422083594 |  erot = 0.232490666335247 | epot = -15.0937613339217 | etot = -14.6424332455029
920000  ekin = 0.239206641023645 |  erot = 0.264542267091037 | epot = -15.1461821536917 | etot = -14.642433245577
921000  ekin = 0.255474577148561 |  erot = 0.296286050801315 | epot = -15.1941938735685 | etot = -14.6424332456186
922000  ekin = 0.267338631215656 |  erot = 0.327229363204391 | epot = -15.2370012400499 | etot = -14.6424332456299
923000  ekin = 0.274791412214081 |  erot = 0.357072039936817 | epot = -15.2742966977655 | etot = -14.6424332456146
924000  ekin = 0.278059017516243 |  erot = 0.385714059432018 | epot = -15.3062063225258 | etot = -14.6424332455775
925000  ekin = 0.277537405168241 |  erot = 0.41324722009486 | epot = -15.3332178707873 | etot = -14.6424332455242
926000  ekin = 0.273733135238203 |  erot = 0.439931173660845 | epot = -15.3560975543592 | etot = -14.6424332454601
927000  ekin = 0.267211859641411 |  erot = 0.46615536388163 | epot = -15.3758004689142 | etot = -14.6424332453911
928000  ekin = 0.258555847535982 |  erot = 0.492389553501975 | epot = -15.3933786463608 | etot = -14.6424332453229
929000  ekin = 0.248330567891816 |  erot = 0.519126582981108 | epot = -15.4098903961335 | etot = -14.6424332452606
930000  ekin = 0.237059747166114 |  erot = 0.546821711631127 | epot = -15.4263147040064 | etot = -14.6424332452091
931000  ekin = 0.225208144805798 |  erot = 0.57583328292282 | epot = -15.4434746729008 | etot = -14.6424332451722
932000  ekin = 0.213171319365834 |  erot = 0.606369490850999 | epot = -15.4619740553695 | etot = -14.6424332451527
933000  ekin = 0.201271722995926 |  erot = 0.638445690378123 | epot = -15.4821506585261 | etot = -14.6424332451521
934000  ekin = 0.189760460110219 |  erot = 0.671856006698404 | epot = -15.5040497119793 | etot = -14.6424332451707
935000  ekin = 0.178823941838474 |  erot = 0.706161996586672 | epot = -15.5274191836322 | etot = -14.6424332452071
936000  ekin = 0.168594479115077 |  erot = 0.740699865836542 | epot = -15.5517275902104 | etot = -14.6424332452587
937000  ekin = 0.159163635635008 |  erot = 0.774606336205393 | epot = -15.5762032171623 | etot = -14.6424332453219
938000  ekin = 0.150596971915019 |  erot = 0.806861786795504 | epot = -15.5998920041024 | etot = -14.6424332453919
939000  ekin = 0.14294871163255 |  erot = 0.836347883525934 | epot = -15.6217298406219 | etot = -14.6424332454634
940000  ekin = 0.136274889171307 |  erot = 0.861915676028113 | epot = -15.6406238107306 | etot = -14.6424332455312
941000  ekin = 0.130643703199096 |  erot = 0.882459199119799 | epot = -15.6555361479089 | etot = -14.64243324559
942000  ekin = 0.126142088160929 |  erot = 0.896989065171445 | epot = -15.6655643989678 | etot = -14.6424332456355
943000  ekin = 0.122877886110413 |  erot = 0.904700444358206 | epot = -15.6700115761326 | etot = -14.642433245664
944000  ekin = 0.120977407412306 |  erot = 0.905030230236292 | epot = -15.6684408833221 | etot = -14.6424332456735
945000  ekin = 0.120578563690912 |  erot = 0.897699054745102 | epot = -15.6607108640992 | etot = -14.6424332456632
946000  ekin = 0.121820103593719 |  erot = 0.882735070927983 | epot = -15.6469884201554 | etot = -14.6424332456337
947000  ekin = 0.124827761129314 |  erot = 0.860477935595928 | epot = -15.6277389423123 | etot = -14.6424332455871
948000  ekin = 0.129698334168894 |  erot = 0.831563037037535 | epot = -15.6036946167333 | etot = -14.6424332455268
949000  ekin = 0.136482857558376 |  erot = 0.796887554721867 | epot = -15.5758036577374 | etot = -14.6424332454571
950000  ekin = 0.145170138931399 |  erot = 0.757561255988068 | epot = -15.5451646403023 | etot = -14.6424332453828
951000  ekin = 0.155672002995351 |  erot = 0.714845916093614 | epot = -15.512951164398 | etot = -14.642433245309
952000  ekin = 0.167811650836438 |  erot = 0.670087833250183 | epot = -15.4803327293273 | etot = -14.6424332452407
953000  ekin = 0.181316579471426 |  erot = 0.624648095211963 | epot = -15.4483979198658 | etot = -14.6424332451824
954000  ekin = 0.195817500701304 |  erot = 0.579835080695791 | epot = -15.4180858265346 | etot = -14.6424332451375
955000  ekin = 0.210854606876787 |  erot = 0.536843219768805 | epot = -15.390131071754 | etot = -14.6424332451084
956000  ekin = 0.225892299837379 |  erot = 0.496701376791544 | epot = -15.3650269217251 | etot = -14.6424332450962
957000  ekin = 0.240343066498589 |  erot = 0.460233438093954 | epot = -15.3430097496929 | etot = -14.6424332451004
958000  ekin = 0.25360049383932 |  erot = 0.428032849894234 | epot = -15.3240665888525 | etot = -14.6424332451189
959000  ekin = 0.265080433748221 |  erot = 0.400452005459141 | epot = -15.3079656843558 | etot = -14.6424332451485
960000  ekin = 0.274268068130506 |  erot = 0.37760654944986 | epot = -15.294307862765 | etot = -14.6424332451846
961000  ekin = 0.280767178003527 |  erot = 0.359393861249854 | epot = -15.2825942844756 | etot = -14.6424332452222
962000  ekin = 0.284346484063387 |  erot = 0.345524198816839 | epot = -15.2723039281363 | etot = -14.6424332452561
963000  ekin = 0.284976816089799 |  erot = 0.335562232329375 | epot = -15.2629722937007 | etot = -14.6424332452816
964000  ekin = 0.282852494247959 |  erot = 0.328975986497034 | epot = -15.2542617260401 | etot = -14.6424332452952
965000  ekin = 0.278391086615529 |  erot = 0.325189577598941 | epot = -15.2460139095095 | etot = -14.6424332452951
966000  ekin = 0.272207924679531 |  erot = 0.323635640150906 | epot = -15.2382768101118 | etot = -14.6424332452814
967000  ekin = 0.265065367870656 |  erot = 0.323803079987486 | epot = -15.2313016931143 | etot = -14.6424332452561
968000  ekin = 0.257801293713953 |  erot = 0.325275872290767 | epot = -15.2255104112278 | etot = -14.6424332452231
969000  ekin = 0.251245661474204 |  erot = 0.327759142576171 | epot = -15.2214380492373 | etot = -14.642433245187
970000  ekin = 0.246137008993053 |  erot = 0.331089781181015 | epot = -15.2196600353269 | etot = -14.6424332451528
971000  ekin = 0.243051319616002 |  erot = 0.335230325665042 | epot = -15.2207148904062 | etot = -14.6424332451251
972000  ekin = 0.242353409638639 |  erot = 0.340246678804514 | epot = -15.2250333335506 | etot = -14.6424332451075
973000  ekin = 0.244176338162395 |  erot = 0.34627219071044 | epot = -15.2328817739751 | etot = -14.6424332451022
974000  ekin = 0.248428661657912 |  erot = 0.353462430361481 | epot = -15.24432433713 | etot = -14.6424332451106
975000  ekin = 0.254824314802904 |  erot = 0.361946299430119 | epot = -15.2592038593657 | etot = -14.6424332451327
976000  ekin = 0.262926848820355 |  erot = 0.371779749929349 | epot = -15.2771398439173 | etot = -14.6424332451676
977000  ekin = 0.272199235330701 |  erot = 0.38290812326356 | epot = -15.2975406038081 | etot = -14.6424332452139
978000  ekin = 0.282052066851546 |  erot = 0.395142048096898 | epot = -15.3196273602178 | etot = -14.6424332452693
979000  ekin = 0.291885751913825 |  erot = 0.408150081470842 | epot = -15.3424690787159 | etot = -14.6424332453312
980000  ekin = 0.301125083789806 |  erot = 0.421469125222054 | epot = -15.365027454408 | etot = -14.6424332453961
981000  ekin = 0.309246535917258 |  erot = 0.434531423655728 | epot = -15.3862112050331 | etot = -14.6424332454601
982000  ekin = 0.315799497490744 |  erot = 0.446704965615888 | epot = -15.4049377086259 | etot = -14.6424332455192
983000  ekin = 0.320422573221004 |  erot = 0.457342632742922 | epot = -15.4201984515333 | etot = -14.6424332455694
984000  ekin = 0.322855465258447 |  erot = 0.465834622598312 | epot = -15.4311233334637 | etot = -14.6424332456069
985000  ekin = 0.322946302475138 |  erot = 0.471658590972897 | epot = -15.437038139077 | etot = -14.642433245629
986000  ekin = 0.320653917805709 |  erot = 0.474422556589351 | epot = -15.437509720029 | etot = -14.6424332456339
987000  ekin = 0.316044627362148 |  erot = 0.47389675551445 | epot = -15.4323746284979 | etot = -14.6424332456213
988000  ekin = 0.309283477268748 |  erot = 0.470032116944019 | epot = -15.4217488398044 | etot = -14.6424332455917
989000  ekin = 0.30062052216921 |  erot = 0.462964620620772 | epot = -15.406018388337 | etot = -14.642433245547
990000  ekin = 0.290373280691244 |  erot = 0.45300626299374 | epot = -15.3858127891748 | etot = -14.6424332454898
991000  ekin = 0.278906915705727 |  erot = 0.440624526218079 | epot = -15.3619646873473 | etot = -14.6424332454235
992000  ekin = 0.266613826415212 |  erot = 0.426413006890097 | epot = -15.3354600786568 | etot = -14.6424332453515
993000  ekin = 0.253894212446597 |  erot = 0.411056197523472 | epot = -15.3073836552474 | etot = -14.6424332452773
994000  ekin = 0.241138837000143 |  erot = 0.395291372387429 | epot = -15.2788634545919 | etot = -14.6424332452043
995000  ekin = 0.228714768906998 |  erot = 0.379870207854295 | epot = -15.2510182218967 | etot = -14.6424332451354
996000  ekin = 0.216954417470394 |  erot = 0.365522282706593 | epot = -15.2249099452501 | etot = -14.6424332450731
997000  ekin = 0.20614776645599 |  erot = 0.35292206613789 | epot = -15.2015030776133 | etot = -14.6424332450194
998000  ekin = 0.196537413157798 |  erot = 0.342660495990661 | epot = -15.1816311541244 | etot = -14.6424332449759
999000  ekin = 0.188315843913 |  erot = 0.335221830005141 | epot = -15.1659709188617 | etot = -14.6424332449435
1000000  ekin = 0.181624323067651 |  erot = 0.330966139648843 | epot = -15.1550237076396 | etot = -14.6424332449231
 1000000  0.013453654   -1.5270261  0.011523695   -1.4973399 -0.00016850969 
Loop time of 18.8945 on 4 procs for 1000000 steps with 10 atoms

Performance: 45727.664 tau/day, 52925.537 timesteps/s
99.5% CPU use with 4 MPI tasks x no OpenMP threads

MPI task timing breakdown:
Section |  min time  |  avg time  |  max time  |%varavg| %total
---------------------------------------------------------------
Pair    | 0.58931    | 7.2806     | 13.001     | 192.7 | 38.53
Bond    | 0.08158    | 0.3024     | 0.49236    |  29.7 |  1.60
Neigh   | 0          | 0          | 0          |   0.0 |  0.00
Comm    | 1.6616     | 1.8619     | 2.1581     |  13.8 |  9.85
Output  | 2.2173e-05 | 2.4319e-05 | 2.5034e-05 |   0.0 |  0.00
Modify  | 0.20928    | 0.94821    | 1.6085     |  58.7 |  5.02
Other   |            | 8.501      |            |       | 44.99

Nlocal:    2.5 ave 5 max 0 min
Histogram: 1 0 1 0 0 0 0 0 1 1
Nghost:    7.5 ave 10 max 5 min
Histogram: 1 0 1 0 0 0 0 0 1 1
Neighs:    17.5 ave 33 max 0 min
Histogram: 1 0 1 0 0 0 0 0 1 1

Total # of neighbors = 70
Ave neighs/atom = 7
Ave special neighs/atom = 3.6
Neighbor list builds = 0
Dangerous builds = 0

#write_restart config.${number}.*
Total wall time: 0:00:18
