LAMMPS (7 Aug 2019)
variable number	equal 1
variable ofreq	equal 1000
variable efreq	equal 1000
variable T      equal 0.1

units lj

dimension 3

newton off

boundary  p p p

atom_style hybrid bond ellipsoid
atom_modify sort 0 1.0

# Pair interactions require lists of neighbours to be calculated
neighbor 1.0 bin
neigh_modify every 1 delay 0 check yes

read_data data.duplex1
  orthogonal box = (-20 -20 -20) to (20 20 20)
  1 by 2 by 2 MPI processor grid
  reading atoms ...
  10 atoms
  reading velocities ...
  10 velocities
  10 ellipsoids
  scanning bonds ...
  2 = max bonds/atom
  reading bonds ...
  8 bonds
  2 = max # of 1-2 neighbors
  2 = max # of 1-3 neighbors
  2 = max # of 1-4 neighbors
  4 = max # of special neighbors
  special bonds CPU = 0.000216 secs
  read_data CPU = 0.003061 secs

set atom * mass 3.1575
  10 settings made for mass

group all type 1 4
10 atoms in group all

# oxDNA bond interactions - FENE backbone
bond_style oxdna/fene
bond_coeff * 2.0 0.25 0.7525

# oxDNA pair interactions
pair_style hybrid/overlay oxdna/excv oxdna/stk oxdna/hbond oxdna/xstk oxdna/coaxstk
pair_coeff * * oxdna/excv    2.0 0.7 0.675 2.0 0.515 0.5 2.0 0.33 0.32
pair_coeff * * oxdna/stk     seqav ${T} 1.3448 2.6568 6.0 0.4 0.9 0.32 0.75 1.3 0 0.8 0.9 0 0.95 0.9 0 0.95 2.0 0.65 2.0 0.65
pair_coeff * * oxdna/stk     seqav 0.1 1.3448 2.6568 6.0 0.4 0.9 0.32 0.75 1.3 0 0.8 0.9 0 0.95 0.9 0 0.95 2.0 0.65 2.0 0.65
pair_coeff * * oxdna/hbond   seqav 0.0   8.0 0.4 0.75 0.34 0.7 1.5 0 0.7 1.5 0 0.7 1.5 0 0.7 0.46 3.141592653589793 0.7 4.0 1.5707963267948966 0.45 4.0 1.5707963267948966 0.45
pair_coeff 1 4 oxdna/hbond   seqav 1.077 8.0 0.4 0.75 0.34 0.7 1.5 0 0.7 1.5 0 0.7 1.5 0 0.7 0.46 3.141592653589793 0.7 4.0 1.5707963267948966 0.45 4.0 1.5707963267948966 0.45
pair_coeff 2 3 oxdna/hbond   seqav 1.077 8.0 0.4 0.75 0.34 0.7 1.5 0 0.7 1.5 0 0.7 1.5 0 0.7 0.46 3.141592653589793 0.7 4.0 1.5707963267948966 0.45 4.0 1.5707963267948966 0.45
pair_coeff * * oxdna/xstk    47.5 0.575 0.675 0.495 0.655 2.25 0.791592653589793 0.58 1.7 1.0 0.68 1.7 1.0 0.68 1.5 0 0.65 1.7 0.875 0.68 1.7 0.875 0.68
pair_coeff * * oxdna/coaxstk 46.0 0.4 0.6 0.22 0.58 2.0 2.541592653589793 0.65 1.3 0 0.8 0.9 0 0.95 0.9 0 0.95 2.0 -0.65 2.0 -0.65

# NVE ensemble
fix 1 all nve/dot
#fix 1 all nve/dotc/langevin ${T} ${T} 0.03 457145 angmom 10
#fix 1 all nve/asphere
#fix 2 all langevin ${T} ${T} 0.03 457145 angmom 10

timestep 1e-5

#comm_style tiled
#fix 3 all balance 10000 1.1 rcb

#compute mol all chunk/atom molecule
#compute mychunk all vcm/chunk mol
#fix 4 all ave/time 10000 1 10000 c_mychunk[1] c_mychunk[2] c_mychunk[3] file vcm.txt mode vector

#dump pos all xyz ${ofreq} traj.${number}.xyz

#compute quat all property/atom quatw quati quatj quatk
#dump quat all custom ${ofreq} quat.${number}.txt id c_quat[1] c_quat[2] c_quat[3] c_quat[4]
#dump_modify quat sort id
#dump_modify quat format line "%d  %13.6le  %13.6le  %13.6le  %13.6le"

compute erot all erotate/asphere
compute ekin all ke
compute epot all pe
variable erot equal c_erot
variable ekin equal c_ekin
variable epot equal c_epot
variable etot equal c_erot+c_ekin+c_epot
fix 5 all print ${efreq} "$(step)  ekin = ${ekin} |  erot = ${erot} | epot = ${epot} | etot = ${etot}" screen yes
fix 5 all print 1000 "$(step)  ekin = ${ekin} |  erot = ${erot} | epot = ${epot} | etot = ${etot}" screen yes

#dump out all custom ${ofreq} out.${number}.txt id x y z vx vy vz fx fy fz tqx tqy tqz
#dump_modify out sort id
#dump_modify out format line "%d   %13.6le %13.6le %13.6le  %13.6le %13.6le %13.6le  %13.6le %13.6le %13.6le  %13.6le %13.6le %13.6le"

run 1000000
Neighbor list info ...
  update every 1 steps, delay 0 steps, check yes
  max neighbors/atom: 2000, page size: 100000
  master list distance cutoff = 1.956
  ghost atom cutoff = 1.956
  binsize = 0.978, bins = 41 41 41
  5 neighbor lists, perpetual/occasional/extra = 5 0 0
  (1) pair oxdna/excv, perpetual
      attributes: half, newton off
      pair build: half/bin/newtoff
      stencil: half/bin/3d/newtoff
      bin: standard
  (2) pair oxdna/stk, perpetual, copy from (1)
      attributes: half, newton off
      pair build: copy
      stencil: none
      bin: none
  (3) pair oxdna/hbond, perpetual, copy from (1)
      attributes: half, newton off
      pair build: copy
      stencil: none
      bin: none
  (4) pair oxdna/xstk, perpetual, copy from (1)
      attributes: half, newton off
      pair build: copy
      stencil: none
      bin: none
  (5) pair oxdna/coaxstk, perpetual, copy from (1)
      attributes: half, newton off
      pair build: copy
      stencil: none
      bin: none
WARNING: Communication cutoff 1.956 is shorter than a bond length based estimate of 2.12875. This may lead to errors. (../comm.cpp:685)
Per MPI rank memory allocation (min/avg/max) = 7.33 | 7.512 | 7.694 Mbytes
Step Temp E_pair E_mol TotEng Press 
       0            0   -1.4711818 0.0069384985   -1.4642433 2.5836586e-06 
1000  ekin = 0.00113448721737009 |  erot = 0.0041345594773427 | epot = -14.6477022915193 | etot = -14.6424332448246
2000  ekin = 0.00449927223902292 |  erot = 0.0164446434455803 | epot = -14.6633771605337 | etot = -14.6424332448491
3000  ekin = 0.00997964450840756 |  erot = 0.0366523356056466 | epot = -14.6890652250033 | etot = -14.6424332448892
4000  ekin = 0.017388811129498 |  erot = 0.0643039804300251 | epot = -14.7241260365031 | etot = -14.6424332449436
5000  ekin = 0.0264744514136422 |  erot = 0.0987844033142134 | epot = -14.7676920997383 | etot = -14.6424332450104
6000  ekin = 0.0369277948555727 |  erot = 0.13933657105258 | epot = -14.8186976109956 | etot = -14.6424332450875
7000  ekin = 0.0483950557190949 |  erot = 0.185086295692109 | epot = -14.8759145965832 | etot = -14.642433245172
8000  ekin = 0.0604909336919856 |  erot = 0.235071307523581 | epot = -14.9379954864767 | etot = -14.6424332452611
9000  ekin = 0.0728137406439518 |  erot = 0.288273694501615 | epot = -15.003520680497 | etot = -14.6424332453514
10000  ekin = 0.0849615563084574 |  erot = 0.343654369293589 | epot = -15.0710491710418 | etot = -14.6424332454398
11000  ekin = 0.0965486715044103 |  erot = 0.400187932108393 | epot = -15.1391698491357 | etot = -14.6424332455229
12000  ekin = 0.107221466282716 |  erot = 0.456896095459393 | epot = -15.2065508073401 | etot = -14.642433245598
13000  ekin = 0.116672809719361 |  erot = 0.512877765427945 | epot = -15.27198382081 | etot = -14.6424332456627
14000  ekin = 0.124654073730849 |  erot = 0.567333962045501 | epot = -15.3344212814915 | etot = -14.6424332457151
15000  ekin = 0.130983939684084 |  erot = 0.619586028257145 | epot = -15.3930032136957 | etot = -14.6424332457544
16000  ekin = 0.135553354544703 |  erot = 0.66908602849033 | epot = -15.4470726288154 | etot = -14.6424332457804
17000  ekin = 0.138326263958104 |  erot = 0.715418858086098 | epot = -15.4961783678378 | etot = -14.6424332457936
18000  ekin = 0.139336096663942 |  erot = 0.758296324628463 | epot = -15.5400656670878 | etot = -14.6424332457954
19000  ekin = 0.138678360045107 |  erot = 0.797544234276633 | epot = -15.5786558401095 | etot = -14.6424332457878
20000  ekin = 0.136500074655344 |  erot = 0.833084204411832 | epot = -15.6120175248401 | etot = -14.642433245773
21000  ekin = 0.13298706528568 |  erot = 0.864912408453387 | epot = -15.6403327194924 | etot = -14.6424332457533
22000  ekin = 0.128350288213599 |  erot = 0.893077649558743 | epot = -15.6638611835035 | etot = -14.6424332457311
23000  ekin = 0.122812385135574 |  erot = 0.917661024684626 | epot = -15.6829066555285 | etot = -14.6424332457083
24000  ekin = 0.116595521408358 |  erot = 0.938759014332623 | epot = -15.6977877814273 | etot = -14.6424332456863
25000  ekin = 0.109911323474882 |  erot = 0.956471207347589 | epot = -15.7088157764886 | etot = -14.6424332456661
26000  ekin = 0.102953426207684 |  erot = 0.970893163953319 | epot = -15.7162798358093 | etot = -14.6424332456483
27000  ekin = 0.0958928250746599 |  erot = 0.982114250193934 | epot = -15.7204403209012 | etot = -14.6424332456326
28000  ekin = 0.0888759410949697 |  erot = 0.990219731539457 | epot = -15.721528918253 | etot = -14.6424332456186
29000  ekin = 0.0820250748771988 |  erot = 0.995296041202221 | epot = -15.7197543616852 | etot = -14.6424332456058
30000  ekin = 0.0754407616837521 |  erot = 0.997437949319969 | epot = -15.7153119565969 | etot = -14.6424332455932
31000  ekin = 0.0692054432607507 |  erot = 0.996756332760959 | epot = -15.708395021602 | etot = -14.6424332455803
32000  ekin = 0.0633878377974527 |  erot = 0.993385345347641 | epot = -15.6992064287111 | etot = -14.642433245566
33000  ekin = 0.0580474070866972 |  erot = 0.987487973308198 | epot = -15.6879686259451 | etot = -14.6424332455502
34000  ekin = 0.0532383791882911 |  erot = 0.979259192919845 | epot = -15.6749308176403 | etot = -14.6424332455322
35000  ekin = 0.0490128758302368 |  erot = 0.968926197405304 | epot = -15.6603723187477 | etot = -14.6424332455122
36000  ekin = 0.0454228081405029 |  erot = 0.9567454096241 | epot = -15.6446014632554 | etot = -14.6424332454908
37000  ekin = 0.0425203357170925 |  erot = 0.942996237999004 | epot = -15.6279498191848 | etot = -14.6424332454687
38000  ekin = 0.0403568280944576 |  erot = 0.927971766615168 | epot = -15.6107618401563 | etot = -14.6424332454467
39000  ekin = 0.0389804214208548 |  erot = 0.911966804108811 | epot = -15.5933804709558 | etot = -14.6424332454262
40000  ekin = 0.0384324238853382 |  erot = 0.89526395956208 | epot = -15.5761296288558 | etot = -14.6424332454084
41000  ekin = 0.038742986040685 |  erot = 0.878118672837852 | epot = -15.559294904273 | etot = -14.6424332453944
42000  ekin = 0.0399266053637394 |  erot = 0.860744395135542 | epot = -15.543104245885 | etot = -14.6424332453857
43000  ekin = 0.0419781561012778 |  erot = 0.843299365356476 | epot = -15.5277107668409 | etot = -14.6424332453831
44000  ekin = 0.044870189409001 |  erot = 0.825876603313475 | epot = -15.5131800381094 | etot = -14.6424332453869
45000  ekin = 0.0485521857416515 |  erot = 0.808498758186206 | epot = -15.4994841893249 | etot = -14.642433245397
46000  ekin = 0.0529522094038557 |  erot = 0.791119212188469 | epot = -15.486504667005 | etot = -14.6424332454127
47000  ekin = 0.0579809824244727 |  erot = 0.773630265884061 | epot = -15.4740444937409 | etot = -14.6424332454323
48000  ekin = 0.063537784650219 |  erot = 0.755878310838164 | epot = -15.4618493409424 | etot = -14.642433245454
49000  ekin = 0.0695169124467211 |  erot = 0.737684732484754 | epot = -15.4496348904071 | etot = -14.6424332454756
50000  ekin = 0.0758129058465106 |  erot = 0.71887012622011 | epot = -15.437116277562 | etot = -14.6424332454954
51000  ekin = 0.0823226638652303 |  erot = 0.699278599520668 | epot = -15.424034508898 | etot = -14.6424332455121
52000  ekin = 0.0889431481345008 |  erot = 0.678798807099979 | epot = -15.4101752007595 | etot = -14.642433245525
53000  ekin = 0.0955646689265035 |  erot = 0.657379086771082 | epot = -15.3953770012322 | etot = -14.6424332455346
54000  ekin = 0.102061477510161 |  erot = 0.635035489169246 | epot = -15.3795302122208 | etot = -14.6424332455414
55000  ekin = 0.108282960174666 |  erot = 0.611853171347221 | epot = -15.362569377068 | etot = -14.6424332455461
56000  ekin = 0.114049426282278 |  erot = 0.587982945924278 | epot = -15.3444656177552 | etot = -14.6424332455487
57000  ekin = 0.119155806187163 |  erot = 0.563635255922936 | epot = -15.3252243076589 | etot = -14.6424332455488
58000  ekin = 0.123384552305545 |  erot = 0.539073355222423 | epot = -15.3048911530734 | etot = -14.6424332455455
59000  ekin = 0.126526300954853 |  erot = 0.514606324858908 | epot = -15.2835658713509 | etot = -14.6424332455371
60000  ekin = 0.128404399836228 |  erot = 0.490581338840041 | epot = -15.261418984199 | etot = -14.6424332455227
61000  ekin = 0.128898142361895 |  erot = 0.467373892400967 | epot = -15.2387052802647 | etot = -14.6424332455018
62000  ekin = 0.127959880289724 |  erot = 0.445374820086214 | epot = -15.2157679458512 | etot = -14.6424332454752
63000  ekin = 0.125622870624276 |  erot = 0.424973765387136 | epot = -15.1930298814554 | etot = -14.642433245444
64000  ekin = 0.121999044842464 |  erot = 0.406539918572064 | epot = -15.1709722088251 | etot = -14.6424332454106
65000  ekin = 0.117268056618549 |  erot = 0.390401831020304 | epot = -15.1501031330161 | etot = -14.6424332453772
66000  ekin = 0.111660385256518 |  erot = 0.376828594078844 | epot = -15.1309222246819 | etot = -14.6424332453465
67000  ekin = 0.105437746904479 |  erot = 0.366014539811003 | epot = -15.1138855320359 | etot = -14.6424332453205
68000  ekin = 0.0988737375602367 |  erot = 0.358069014155073 | epot = -15.0993759970159 | etot = -14.6424332453006
69000  ekin = 0.0922368286498106 |  erot = 0.353011948771939 | epot = -15.0876820227094 | etot = -14.6424332452876
70000  ekin = 0.085776901527188 |  erot = 0.350775174164926 | epot = -15.0789853209741 | etot = -14.642433245282
71000  ekin = 0.0797156921641233 |  erot = 0.351208844245479 | epot = -15.0733577816928 | etot = -14.6424332452832
72000  ekin = 0.0742409440407214 |  erot = 0.354092037747167 | epot = -15.0707662270785 | etot = -14.6424332452906
73000  ekin = 0.0695037498703868 |  erot = 0.359146526961236 | epot = -15.0710835221349 | etot = -14.6424332453033
74000  ekin = 0.0656184497426901 |  erot = 0.366052769878701 | epot = -15.0741044649413 | etot = -14.6424332453199
75000  ekin = 0.0626644690394278 |  erot = 0.374467290033983 | epot = -15.0795650044125 | etot = -14.642433245339
76000  ekin = 0.060689553509186 |  erot = 0.384040683403435 | epot = -15.087163482272 | etot = -14.6424332453594
77000  ekin = 0.0597139401241187 |  erot = 0.39443549589289 | epot = -15.0965826813962 | etot = -14.6424332453792
78000  ekin = 0.0597350629875202 |  erot = 0.405343151481915 | epot = -15.107511459867 | etot = -14.6424332453976
79000  ekin = 0.0607324264361026 |  erot = 0.416499017642699 | epot = -15.1196646894919 | etot = -14.6424332454131
80000  ekin = 0.0626722904954167 |  erot = 0.42769463023874 | epot = -15.1328001661592 | etot = -14.6424332454251
81000  ekin = 0.0655118235331535 |  erot = 0.438786127849123 | epot = -15.1467311968152 | etot = -14.6424332454329
82000  ekin = 0.0692024020836612 |  erot = 0.449698113830619 | epot = -15.1613337613509 | etot = -14.6424332454367
83000  ekin = 0.0736917936904891 |  erot = 0.46042249074083 | epot = -15.1765475298676 | etot = -14.6424332454363
84000  ekin = 0.0789250526542213 |  erot = 0.471012272295178 | epot = -15.1923705703823 | etot = -14.6424332454329
85000  ekin = 0.084844087874249 |  erot = 0.481570908650499 | epot = -15.2088482419521 | etot = -14.6424332454274
86000  ekin = 0.0913860133243872 |  erot = 0.492238169206333 | epot = -15.2260574279515 | etot = -14.6424332454208
87000  ekin = 0.0984805441186009 |  erot = 0.503174014617464 | epot = -15.2440878041507 | etot = -14.6424332454146
88000  ekin = 0.106046830302566 |  erot = 0.514542076496851 | epot = -15.2630221522094 | etot = -14.64243324541
89000  ekin = 0.113990204125935 |  erot = 0.526494309539917 | epot = -15.2829177590739 | etot = -14.642433245408
90000  ekin = 0.122199339149548 |  erot = 0.539158097286353 | epot = -15.3037906818453 | etot = -14.6424332454094
91000  ekin = 0.130544275968788 |  erot = 0.552626637866356 | epot = -15.3256041592498 | etot = -14.6424332454146
92000  ekin = 0.138875666145967 |  erot = 0.566952900962782 | epot = -15.3482618125326 | etot = -14.6424332454239
93000  ekin = 0.147025440611607 |  erot = 0.582146933738072 | epot = -15.3716056197866 | etot = -14.642433245437
94000  ekin = 0.154808946844651 |  erot = 0.598175891801872 | epot = -15.3954180841001 | etot = -14.6424332454536
95000  ekin = 0.162028449598904 |  erot = 0.614965942454512 | epot = -15.4194276375267 | etot = -14.6424332454733
96000  ekin = 0.168477779664558 |  erot = 0.632405154082716 | epot = -15.4433161792427 | etot = -14.6424332454954
97000  ekin = 0.173947863023514 |  erot = 0.650346631629012 | epot = -15.466727740172 | etot = -14.6424332455195
98000  ekin = 0.17823287500116 |  erot = 0.668611435746641 | epot = -15.4892775562927 | etot = -14.6424332455449
99000  ekin = 0.181136831923464 |  erot = 0.686991165056919 | epot = -15.5105612425515 | etot = -14.6424332455712
100000  ekin = 0.182480533640968 |  erot = 0.70525041340853 | epot = -15.530164192647 | etot = -14.6424332455975
101000  ekin = 0.182108871449626 |  erot = 0.723129571004015 | epot = -15.5476716880769 | etot = -14.6424332456233
102000  ekin = 0.179898581168333 |  erot = 0.740348571091266 | epot = -15.5626803979072 | etot = -14.6424332456476
103000  ekin = 0.175766517606564 |  erot = 0.756612167826943 | epot = -15.5748119311029 | etot = -14.6424332456694
104000  ekin = 0.169678431534366 |  erot = 0.771617166852901 | epot = -15.5837288440747 | etot = -14.6424332456875
105000  ekin = 0.16165803603624 |  erot = 0.785061742963522 | epot = -15.5891530247003 | etot = -14.6424332457006
106000  ekin = 0.1517958676503 |  erot = 0.79665661342635 | epot = -15.5908857267839 | etot = -14.6424332457072
107000  ekin = 0.140257112952973 |  erot = 0.806137449199221 | epot = -15.5888278078584 | etot = -14.6424332457062
108000  ekin = 0.12728724020187 |  erot = 0.813277564483295 | epot = -15.5829980503819 | etot = -14.6424332456967
109000  ekin = 0.113214025491873 |  erot = 0.817899691736779 | epot = -15.5735469629067 | etot = -14.6424332456781
110000  ekin = 0.098444482381739 |  erot = 0.81988557805637 | epot = -15.5607633060887 | etot = -14.6424332456506
111000  ekin = 0.0834553769378614 |  erot = 0.819182262548248 | epot = -15.5450708851013 | etot = -14.6424332456151
112000  ekin = 0.0687764915886159 |  erot = 0.815804215096793 | epot = -15.5270139522589 | etot = -14.6424332455735
113000  ekin = 0.0549665904044352 |  erot = 0.809830999846637 | epot = -15.5072308357791 | etot = -14.642433245528
114000  ekin = 0.0425830583135686 |  erot = 0.801400700352864 | epot = -15.486417004148 | etot = -14.6424332454816
115000  ekin = 0.032147280214672 |  erot = 0.790699910050555 | epot = -15.4652804357027 | etot = -14.6424332454374
116000  ekin = 0.0241087780358436 |  erot = 0.777951546675731 | epot = -15.4444935701102 | etot = -14.6424332453986
117000  ekin = 0.0188117102739906 |  erot = 0.763402004774535 | epot = -15.4246469604164 | etot = -14.6424332453679
118000  ekin = 0.0164673894168239 |  erot = 0.747309167856823 | epot = -15.4062098026205 | etot = -14.6424332453469
119000  ekin = 0.0171359296540405 |  erot = 0.729932564574684 | epot = -15.3895017395652 | etot = -14.6424332453365
120000  ekin = 0.0207190822436557 |  erot = 0.711526526248979 | epot = -15.3746788538292 | etot = -14.6424332453366
121000  ekin = 0.0269649552324791 |  erot = 0.692336677371669 | epot = -15.3617348779504 | etot = -14.6424332453462
122000  ekin = 0.0354839220302067 |  erot = 0.67259957021192 | epot = -15.3505167376056 | etot = -14.6424332453635
123000  ekin = 0.0457738626455522 |  erot = 0.652544850162972 | epot = -15.3407519581945 | etot = -14.642433245386
124000  ekin = 0.0572521324300914 |  erot = 0.632399068063522 | epot = -15.3320844459048 | etot = -14.6424332454111
125000  ekin = 0.0692913736007718 |  erot = 0.612390156183436 | epot = -15.3241147752205 | etot = -14.6424332454363
126000  ekin = 0.0812564128179042 |  erot = 0.592751635107165 | epot = -15.3164412933838 | etot = -14.6424332454588
127000  ekin = 0.0925398817831167 |  erot = 0.573725774405778 | epot = -15.3086989016655 | etot = -14.6424332454767
128000  ekin = 0.102594692019408 |  erot = 0.555565138942016 | epot = -15.3005930764496 | etot = -14.6424332454881
129000  ekin = 0.11096195387447 |  erot = 0.538532171476867 | epot = -15.2919273708433 | etot = -14.642433245492
130000  ekin = 0.117293279473245 |  erot = 0.522896664452867 | epot = -15.2826231894136 | etot = -14.6424332454875
131000  ekin = 0.121366644775215 |  erot = 0.508931150171148 | epot = -15.2727310404211 | etot = -14.6424332454747
132000  ekin = 0.123095155540091 |  erot = 0.496904390905846 | epot = -15.2624327918999 | etot = -14.642433245454
133000  ekin = 0.122528239671734 |  erot = 0.487073282997867 | epot = -15.2520347680959 | etot = -14.6424332454263
134000  ekin = 0.119845042601894 |  erot = 0.479673601171197 | epot = -15.2419518891665 | etot = -14.6424332453934
135000  ekin = 0.115340171967421 |  erot = 0.474910093717031 | epot = -15.2326835110416 | etot = -14.6424332453571
136000  ekin = 0.109402419285642 |  erot = 0.472946484075328 | epot = -15.224782148681 | etot = -14.64243324532
137000  ekin = 0.102487634022665 |  erot = 0.473895929920059 | epot = -15.2188168092271 | etot = -14.6424332452844
138000  ekin = 0.0950874634054126 |  erot = 0.477812435585917 | epot = -15.2153331442443 | etot = -14.6424332452529
139000  ekin = 0.0876961121518134 |  erot = 0.484683617751174 | epot = -15.2148129751312 | etot = -14.6424332452282
140000  ekin = 0.0807775418435475 |  erot = 0.494425108540512 | epot = -15.2176358955961 | etot = -14.642433245212
141000  ekin = 0.0747355681580414 |  erot = 0.506876770810756 | epot = -15.2240455841751 | etot = -14.6424332452063
142000  ekin = 0.0698891098451744 |  erot = 0.521800821241298 | epot = -15.2341231762987 | etot = -14.6424332452123
143000  ekin = 0.0664544171867047 |  erot = 0.538881922426197 | epot = -15.247769584843 | etot = -14.6424332452301
144000  ekin = 0.0645355104692778 |  erot = 0.557729316021908 | epot = -15.2646980717509 | etot = -14.6424332452598
145000  ekin = 0.0641233595163661 |  erot = 0.577881111413867 | epot = -15.2844377162306 | etot = -14.6424332453003
146000  ekin = 0.0651036077516285 |  erot = 0.598810893852426 | epot = -15.3063477469543 | etot = -14.6424332453502
147000  ekin = 0.0672719578975283 |  erot = 0.619936843682121 | epot = -15.3296420469869 | etot = -14.6424332454073
148000  ekin = 0.0703557492694452 |  erot = 0.640633538190891 | epot = -15.3534225329293 | etot = -14.6424332454689
149000  ekin = 0.0740398128645613 |  erot = 0.66024652323733 | epot = -15.3767195816343 | etot = -14.6424332455324
150000  ekin = 0.077994420106261 |  erot = 0.678109590375523 | epot = -15.3985372560764 | etot = -14.6424332455946
151000  ekin = 0.0819030604176878 |  erot = 0.693564488647254 | epot = -15.4179007947176 | etot = -14.6424332456527
152000  ekin = 0.08548789385576 |  erot = 0.705982563002905 | epot = -15.4339037025625 | etot = -14.6424332457038
153000  ekin = 0.0885310147333655 |  erot = 0.714787575381006 | epot = -15.4457518358599 | etot = -14.6424332457455
154000  ekin = 0.0908901012892495 |  erot = 0.719478762726426 | epot = -15.4528021097914 | etot = -14.6424332457757
155000  ekin = 0.0925075703718949 |  erot = 0.719653046096655 | epot = -15.4545938622616 | etot = -14.642433245793
156000  ekin = 0.0934129479732331 |  erot = 0.71502524375301 | epot = -15.4508714375228 | etot = -14.6424332457966
157000  ekin = 0.0937187435781837 |  erot = 0.7054451639455 | epot = -15.4415971533099 | etot = -14.6424332457862
158000  ekin = 0.0936106185394034 |  erot = 0.690910554325068 | epot = -15.4269544186268 | etot = -14.6424332457623
159000  ekin = 0.0933330174009798 |  erot = 0.671575051659369 | epot = -15.4073413147861 | etot = -14.6424332457258
160000  ekin = 0.0931716565239132 |  erot = 0.647750492120475 | epot = -15.3833553943224 | etot = -14.6424332456781
161000  ekin = 0.0934343296226144 |  erot = 0.619903194016677 | epot = -15.3557707692603 | etot = -14.642433245621
162000  ekin = 0.0944314104796785 |  erot = 0.588644098979961 | epot = -15.3255087550165 | etot = -14.6424332455568
163000  ekin = 0.0964572425730066 |  erot = 0.554712943454524 | epot = -15.2936034315153 | etot = -14.6424332454878
164000  ekin = 0.0997733472794833 |  erot = 0.51895691856277 | epot = -15.2611635112587 | etot = -14.6424332454165
165000  ekin = 0.104594102018619 |  erot = 0.482304549423464 | epot = -15.2293318967876 | etot = -14.6424332453455
166000  ekin = 0.111075276514824 |  erot = 0.445735768513581 | epot = -15.1992442903059 | etot = -14.6424332452775
167000  ekin = 0.119305597512052 |  erot = 0.410249354729612 | epot = -15.1719881974565 | etot = -14.6424332452149
168000  ekin = 0.12930135472349 |  erot = 0.376829046180065 | epot = -15.1485636460635 | etot = -14.64243324516
169000  ekin = 0.141003965788119 |  erot = 0.346409702528372 | epot = -15.1298469134313 | etot = -14.6424332451148
170000  ekin = 0.154280377438306 |  erot = 0.319844892419105 | epot = -15.1165585149385 | etot = -14.6424332450811
171000  ekin = 0.168926178619928 |  erot = 0.297877221607854 | epot = -15.1092366452879 | etot = -14.6424332450601
172000  ekin = 0.184671319362937 |  erot = 0.281112611137901 | epot = -15.1082171755536 | etot = -14.6424332450527
173000  ekin = 0.201188345435602 |  erot = 0.269999595570589 | epot = -15.1136211860655 | etot = -14.6424332450593
174000  ekin = 0.218103052205587 |  erot = 0.264814547402911 | epot = -15.1253508446879 | etot = -14.6424332450794
175000  ekin = 0.235007413034244 |  erot = 0.265653545949627 | epot = -15.1430942040962 | etot = -14.6424332451123
176000  ekin = 0.251474534266602 |  erot = 0.272431389431356 | epot = -15.1663391688545 | etot = -14.6424332451566
177000  ekin = 0.267075225142183 |  erot = 0.284887984977502 | epot = -15.1943964553298 | etot = -14.6424332452101
178000  ekin = 0.281395553894085 |  erot = 0.302602030913778 | epot = -15.2264308300785 | etot = -14.6424332452706
179000  ekin = 0.294054514410707 |  erot = 0.325011526056011 | epot = -15.2614992858019 | etot = -14.6424332453351
180000  ekin = 0.304720692895811 |  erot = 0.351440214933808 | epot = -15.2985941532306 | etot = -14.6424332454009
181000  ekin = 0.313126658917312 |  erot = 0.381128639600623 | epot = -15.3366885439829 | etot = -14.6424332454649
182000  ekin = 0.319079775822514 |  erot = 0.413268071112208 | epot = -15.3747810924592 | etot = -14.6424332455245
183000  ekin = 0.322468290004655 |  erot = 0.447035301735044 | epot = -15.4119368373172 | etot = -14.6424332455775
184000  ekin = 0.323261947553556 |  erot = 0.481626155079162 | epot = -15.4473213482551 | etot = -14.6424332456224
185000  ekin = 0.321506983529697 |  erot = 0.516285658867075 | epot = -15.4802258880548 | etot = -14.642433245658
186000  ekin = 0.317316057632531 |  erot = 0.550333132629024 | epot = -15.5100824359458 | etot = -14.6424332456842
187000  ekin = 0.310854440588904 |  erot = 0.583180936762622 | epot = -15.5364686230528 | etot = -14.6424332457012
188000  ekin = 0.30232432976273 |  erot = 0.614346238386881 | epot = -15.5591038138594 | etot = -14.6424332457098
189000  ekin = 0.291949445195852 |  erot = 0.643455779015098 | epot = -15.5778384699219 | etot = -14.6424332457109
190000  ekin = 0.279961942766932 |  erot = 0.670244185707524 | epot = -15.5926393741803 | etot = -14.6424332457058
191000  ekin = 0.266593185652274 |  erot = 0.694546781237202 | epot = -15.6035732125848 | etot = -14.6424332456953
192000  ekin = 0.252069141621896 |  erot = 0.716288088791507 | epot = -15.6107904760939 | etot = -14.6424332456805
193000  ekin = 0.2366102932526 |  erot = 0.735467302247593 | epot = -15.6145108411624 | etot = -14.6424332456622
194000  ekin = 0.220435149403491 |  erot = 0.75214194303258 | epot = -15.6150103380771 | etot = -14.642433245641
195000  ekin = 0.203765880091661 |  erot = 0.766410799035626 | epot = -15.6126099247449 | etot = -14.6424332456176
196000  ekin = 0.186834339035651 |  erot = 0.778397083256526 | epot = -15.6076646678849 | etot = -14.6424332455927
197000  ekin = 0.169886782292464 |  erot = 0.788232586076187 | epot = -15.6005526139357 | etot = -14.642433245567
198000  ekin = 0.153185871076301 |  erot = 0.796043434544246 | epot = -15.5916625511619 | etot = -14.6424332455413
199000  ekin = 0.137008972985795 |  erot = 0.801937915803759 | epot = -15.5813801343063 | etot = -14.6424332455168
200000  ekin = 0.121642272363314 |  erot = 0.805996673265824 | epot = -15.5700721911236 | etot = -14.6424332454944
201000  ekin = 0.107370722655147 |  erot = 0.808265456810171 | epot = -15.5580694249409 | etot = -14.6424332454756
202000  ekin = 0.0944644042380589 |  erot = 0.808750524312638 | epot = -15.545648174012 | etot = -14.6424332454613
203000  ekin = 0.0831623790884324 |  erot = 0.807416772445363 | epot = -15.5330123969865 | etot = -14.6424332454527
204000  ekin = 0.0736556272327789 |  erot = 0.804188725420783 | epot = -15.5202775981043 | etot = -14.6424332454507
205000  ekin = 0.066071040166988 |  erot = 0.79895460735607 | epot = -15.5074588929788 | etot = -14.6424332454557
206000  ekin = 0.0604586317676951 |  erot = 0.79157380942372 | epot = -15.494465686659 | etot = -14.6424332454675
207000  ekin = 0.0567840026879156 |  erot = 0.781888054797388 | epot = -15.4811053029705 | etot = -14.6424332454852
208000  ekin = 0.0549275971597975 |  erot = 0.769736381378222 | epot = -15.4670972240452 | etot = -14.6424332455072
209000  ekin = 0.054691444753414 |  erot = 0.754973659532252 | epot = -15.4520983498168 | etot = -14.6424332455311
210000  ekin = 0.0558130126770424 |  erot = 0.737491764373083 | epot = -15.4357380226042 | etot = -14.6424332455541
211000  ekin = 0.0579847210232219 |  erot = 0.717241838878542 | epot = -15.4176598054751 | etot = -14.6424332455734
212000  ekin = 0.0608768356197334 |  erot = 0.694255492638095 | epot = -15.3975655738439 | etot = -14.642433245586
213000  ekin = 0.0641610427072994 |  erot = 0.66866247616279 | epot = -15.37525676446 | etot = -14.6424332455899
214000  ekin = 0.0675321043575128 |  erot = 0.64070249551818 | epot = -15.3506678454593 | etot = -14.6424332455836
215000  ekin = 0.0707255336353422 |  erot = 0.610729417268954 | epot = -15.3238881964709 | etot = -14.6424332455666
216000  ekin = 0.0735300437817614 |  erot = 0.579207054839019 | epot = -15.2951703441601 | etot = -14.6424332455393
217000  ekin = 0.0757943994877641 |  erot = 0.546696813211868 | epot = -15.2649244582025 | etot = -14.6424332455029
218000  ekin = 0.0774290394165078 |  erot = 0.51383845121943 | epot = -15.2337007360952 | etot = -14.6424332454593
219000  ekin = 0.0784033323141758 |  erot = 0.481325894964748 | epot = -15.2021624726897 | etot = -14.6424332454108
220000  ekin = 0.0787395495607948 |  erot = 0.449880299622387 | epot = -15.1710530945427 | etot = -14.6424332453595
221000  ekin = 0.0785046319672525 |  erot = 0.420222425160561 | epot = -15.1411603024357 | etot = -14.6424332453079
222000  ekin = 0.0778006814269618 |  erot = 0.393045972171563 | epot = -15.1132798988567 | etot = -14.6424332452582
223000  ekin = 0.0767549035385332 |  erot = 0.368992968911871 | epot = -15.0881811176628 | etot = -14.6424332452124
224000  ekin = 0.0755095293703771 |  erot = 0.348631757033118 | epot = -15.0665745315758 | etot = -14.6424332451723
225000  ekin = 0.0742120885667612 |  erot = 0.332437700429432 | epot = -15.0490830341357 | etot = -14.6424332451395
226000  ekin = 0.0730063028693098 |  erot = 0.320776497502258 | epot = -15.0362160454869 | etot = -14.6424332451153
227000  ekin = 0.0720238140882299 |  erot = 0.313889923629038 | epot = -15.0283469828185 | etot = -14.6424332451012
228000  ekin = 0.0713769419939713 |  erot = 0.311883945247486 | epot = -15.0256941323393 | etot = -14.6424332450978
229000  ekin = 0.0711526728858612 |  erot = 0.314719386439623 | epot = -15.0283053044314 | etot = -14.6424332451059
230000  ekin = 0.0714080974066282 |  erot = 0.32220563858993 | epot = -15.0360469811226 | etot = -14.6424332451261
231000  ekin = 0.0721675361189904 |  erot = 0.333998222201802 | epot = -15.0485990034788 | etot = -14.6424332451581
232000  ekin = 0.073421602290549 |  erot = 0.349601270465942 | epot = -15.0654561179577 | etot = -14.6424332452012
233000  ekin = 0.0751284397505166 |  erot = 0.368376135875933 | epot = -15.0859378208811 | etot = -14.6424332452547
234000  ekin = 0.0772173235442522 |  erot = 0.389557254433757 | epot = -15.1092078232945 | etot = -14.6424332453165
235000  ekin = 0.0795947059802171 |  erot = 0.412276079790421 | epot = -15.1343040311544 | etot = -14.6424332453838
236000  ekin = 0.0821526186146683 |  erot = 0.435593295647697 | epot = -15.160179159716 | etot = -14.6424332454537
237000  ekin = 0.0847791014239972 |  erot = 0.458538653864687 | epot = -15.1857510008109 | etot = -14.6424332455222
238000  ekin = 0.087370042385855 |  erot = 0.480156759886663 | epot = -15.209960047858 | etot = -14.6424332455854
239000  ekin = 0.0898415153137564 |  erot = 0.49955609555256 | epot = -15.2318308565057 | etot = -14.6424332456394
240000  ekin = 0.0921414623535534 |  erot = 0.515957735400968 | epot = -15.2505324434352 | etot = -14.6424332456807
241000  ekin = 0.094259449014392 |  erot = 0.528739776886534 | epot = -15.2654324716071 | etot = -14.6424332457062
242000  ekin = 0.0962332805880934 |  erot = 0.537473606136267 | epot = -15.2761401324386 | etot = -14.6424332457143
243000  ekin = 0.0981515319338797 |  erot = 0.541948785980249 | epot = -15.2825335636184 | etot = -14.6424332457043
244000  ekin = 0.100151482351181 |  erot = 0.542184479374293 | epot = -15.2847692074025 | etot = -14.642433245677
245000  ekin = 0.102412491095747 |  erot = 0.53842670231772 | epot = -15.2832724390477 | etot = -14.6424332456343
246000  ekin = 0.105145395544779 |  erot = 0.531132085866326 | epot = -15.2787107269898 | etot = -14.6424332455787
247000  ekin = 0.108578961411965 |  erot = 0.520939994206832 | epot = -15.2719522011324 | etot = -14.6424332455137
248000  ekin = 0.112944688754503 |  erot = 0.50863565229522 | epot = -15.2640135864927 | etot = -14.6424332454429
249000  ekin = 0.118461348905117 |  erot = 0.495107336753362 | epot = -15.256001931029 | etot = -14.6424332453705
250000  ekin = 0.125320510713189 |  erot = 0.48130071319677 | epot = -15.24905446921 | etot = -14.6424332453
251000  ekin = 0.13367405695507 |  erot = 0.468173145423505 | epot = -15.2442804476135 | etot = -14.6424332452349
252000  ekin = 0.14362435587275 |  erot = 0.456650355973621 | epot = -15.2427079570245 | etot = -14.6424332451781
253000  ekin = 0.155217400154316 |  erot = 0.447587277165273 | epot = -15.2452379224515 | etot = -14.6424332451319
254000  ekin = 0.168438906844309 |  erot = 0.441734376017195 | epot = -15.2526065279595 | etot = -14.642433245098
255000  ekin = 0.183213121644152 |  erot = 0.43971022735342 | epot = -15.265356594075 | etot = -14.6424332450774
256000  ekin = 0.199403908832121 |  erot = 0.441980689733431 | epot = -15.2838178436366 | etot = -14.642433245071
257000  ekin = 0.216817638461841 |  erot = 0.448844730305144 | epot = -15.308095613846 | etot = -14.642433245079
258000  ekin = 0.235207399035704 |  erot = 0.460426746275348 | epot = -15.3380673904121 | etot = -14.642433245101
259000  ekin = 0.254278151366077 |  erot = 0.476675120648602 | epot = -15.3733865171511 | etot = -14.6424332451364
260000  ekin = 0.27369257667687 |  erot = 0.497366691706637 | epot = -15.4134925135677 | etot = -14.6424332451842
261000  ekin = 0.293077534073047 |  erot = 0.522116767905255 | epot = -15.4576275472214 | etot = -14.6424332452431
262000  ekin = 0.312031202020343 |  erot = 0.550394247121191 | epot = -15.5048586944528 | etot = -14.6424332453112
263000  ekin = 0.330131107615792 |  erot = 0.58154128199962 | epot = -15.5541056350021 | etot = -14.6424332453866
264000  ekin = 0.346943319969756 |  erot = 0.61479677344706 | epot = -15.6041733388837 | etot = -14.6424332454669
265000  ekin = 0.362033078254018 |  erot = 0.649322794997101 | epot = -15.6537891188009 | etot = -14.6424332455498
266000  ekin = 0.374977027495908 |  erot = 0.684232889060489 | epot = -15.7016431621888 | etot = -14.6424332456324
267000  ekin = 0.385377045180443 |  erot = 0.718621072064117 | epot = -15.7464313629566 | etot = -14.642433245712
268000  ekin = 0.392875374675087 |  erot = 0.75159036946736 | epot = -15.7868989899283 | etot = -14.6424332457858
269000  ekin = 0.397170471133826 |  erot = 0.782279784278077 | epot = -15.8218835012632 | etot = -14.6424332458513
270000  ekin = 0.39803266202252 |  erot = 0.809888771679688 | epot = -15.8503546796085 | etot = -14.6424332459063
271000  ekin = 0.395318487593041 |  erot = 0.833698516715799 | epot = -15.8714502502577 | etot = -14.6424332459488
272000  ekin = 0.388982474346436 |  erot = 0.85308955191437 | epot = -15.8845052722382 | etot = -14.6424332459774
273000  ekin = 0.379085147925793 |  erot = 0.867555470410658 | epot = -15.8890738643275 | etot = -14.6424332459911
274000  ekin = 0.365796322187783 |  erot = 0.876712662634482 | epot = -15.8849422308119 | etot = -14.6424332459896
275000  ekin = 0.349393082916365 |  erot = 0.880306121918412 | epot = -15.872132450808 | etot = -14.6424332459733
276000  ekin = 0.330252358900911 |  erot = 0.878211432152944 | epot = -15.8508970369967 | etot = -14.6424332459429
277000  ekin = 0.308838461215969 |  erot = 0.87043308488023 | epot = -15.821704791996 | etot = -14.6424332458998
278000  ekin = 0.285686394600485 |  erot = 0.857099294887703 | epot = -15.7852189353341 | etot = -14.6424332458459
279000  ekin = 0.26138204276351 |  erot = 0.838453513182823 | epot = -15.7422688017294 | etot = -14.642433245783
280000  ekin = 0.236540473323807 |  erot = 0.814842890588987 | epot = -15.6938166096265 | etot = -14.6424332457138
281000  ekin = 0.211783602606672 |  erot = 0.786704032858688 | epot = -15.6409208811058 | etot = -14.6424332456404
282000  ekin = 0.18771833727137 |  erot = 0.754546508157259 | epot = -15.5846980909942 | etot = -14.6424332455655
283000  ekin = 0.164916115091084 |  erot = 0.718934708844117 | epot = -15.5262840694266 | etot = -14.6424332454914
284000  ekin = 0.143894549222789 |  erot = 0.680468811937684 | epot = -15.466796606581 | etot = -14.6424332454205
285000  ekin = 0.125101678374108 |  erot = 0.639765701845435 | epot = -15.4073006255745 | etot = -14.642433245355
286000  ekin = 0.108903164109883 |  erot = 0.597440790007762 | epot = -15.3487771994138 | etot = -14.6424332452962
287000  ekin = 0.0955726645582656 |  erot = 0.554091668601873 | epot = -15.2920975784058 | etot = -14.6424332452456
288000  ekin = 0.0852855448042878 |  erot = 0.51028445681865 | epot = -15.2380032468271 | etot = -14.6424332452042
289000  ekin = 0.0781160413142908 |  erot = 0.466543535619429 | epot = -15.187092822106 | etot = -14.6424332451723
290000  ekin = 0.0740379578661526 |  erot = 0.423345127585162 | epot = -15.1398163306014 | etot = -14.6424332451501
291000  ekin = 0.07292891006789 |  erot = 0.38111487943337 | epot = -15.0964770346382 | etot = -14.6424332451369
292000  ekin = 0.0745780357973755 |  erot = 0.340229271733751 | epot = -15.0572405526629 | etot = -14.6424332451317
293000  ekin = 0.0786969407585494 |  erot = 0.301020346544363 | epot = -15.0221505324362 | etot = -14.6424332451333
294000  ekin = 0.0849334564747798 |  erot = 0.263782947584644 | epot = -14.9911496491993 | etot = -14.6424332451399
295000  ekin = 0.0928875723651302 |  erot = 0.22878344880309 | epot = -14.9641042663181 | etot = -14.6424332451499
296000  ekin = 0.102128697511331 |  erot = 0.196268840383788 | epot = -14.9408307830568 | etot = -14.6424332451617
297000  ekin = 0.11221325250056 |  erot = 0.166475068215614 | epot = -14.9211215658898 | etot = -14.6424332451737
298000  ekin = 0.122701527070309 |  erot = 0.139633685444085 | epot = -14.904768457699 | etot = -14.6424332451846
299000  ekin = 0.133172792913717 |  erot = 0.115976150687844 | epot = -14.8915821887951 | etot = -14.6424332451935
300000  ekin = 0.143237839709864 |  erot = 0.0957354521197658 | epot = -14.8814065370295 | etot = -14.6424332451999
301000  ekin = 0.152548387990851 |  erot = 0.07914509087212 | epot = -14.8741267240666 | etot = -14.6424332452037
302000  ekin = 0.160803184301524 |  erot = 0.0664357608556835 | epot = -14.8696721903621 | etot = -14.6424332452049
303000  ekin = 0.167750948488374 |  erot = 0.0578302677258914 | epot = -14.8680144614182 | etot = -14.6424332452039
304000  ekin = 0.173190665588555 |  erot = 0.0535373136380679 | epot = -14.8691612244281 | etot = -14.6424332452015
305000  ekin = 0.176969952950159 |  erot = 0.0537447402922713 | epot = -14.8731479384405 | etot = -14.6424332451981
306000  ekin = 0.178982363291678 |  erot = 0.0586126977895342 | epot = -14.8800283062756 | etot = -14.6424332451944
307000  ekin = 0.179164502945068 |  erot = 0.0682670321079694 | epot = -14.8898647802439 | etot = -14.6424332451909
308000  ekin = 0.177493763289069 |  erot = 0.0827930029212249 | epot = -14.9027200113985 | etot = -14.6424332451882
309000  ekin = 0.173987301152049 |  erot = 0.10222929187336 | epot = -14.918649838212 | etot = -14.6424332451866
310000  ekin = 0.168702678648352 |  erot = 0.126562162218755 | epot = -14.9376980860534 | etot = -14.6424332451863
311000  ekin = 0.161740297010225 |  erot = 0.15571959340906 | epot = -14.9598931356066 | etot = -14.6424332451873
312000  ekin = 0.153247440126399 |  erot = 0.189565237979944 | epot = -14.9852459232961 | etot = -14.6424332451897
313000  ekin = 0.143423389998623 |  erot = 0.227892126762149 | epot = -15.0137487619545 | etot = -14.6424332451937
314000  ekin = 0.132524706020311 |  erot = 0.270416174781616 | epot = -15.045374126001 | etot = -14.6424332451991
315000  ekin = 0.120869409554559 |  erot = 0.31676970828961 | epot = -15.0800723630507 | etot = -14.6424332452065
316000  ekin = 0.108838546106885 |  erot = 0.366495437994255 | epot = -15.1177672293175 | etot = -14.6424332452163
317000  ekin = 0.0968734934299726 |  erot = 0.419041536808435 | epot = -15.1583482754675 | etot = -14.6424332452291
318000  ekin = 0.0854675378572541 |  erot = 0.473758725762824 | epot = -15.201659508866 | etot = -14.6424332452459
319000  ekin = 0.0751507271474133 |  erot = 0.529900497446511 | epot = -15.2474844698617 | etot = -14.6424332452678
320000  ekin = 0.0664678443385179 |  erot = 0.586627760737852 | epot = -15.2955288503723 | etot = -14.6424332452959
321000  ekin = 0.0599504590581751 |  erot = 0.643019202689424 | epot = -15.3454029070787 | etot = -14.6424332453311
322000  ekin = 0.0560852142815241 |  erot = 0.69808845326502 | epot = -15.3966069129205 | etot = -14.642433245374
323000  ekin = 0.0552815181260046 |  erot = 0.750808639914442 | epot = -15.4485234034646 | etot = -14.6424332454242
324000  ekin = 0.0578423255211838 |  erot = 0.800144112656325 | epot = -15.5004196836582 | etot = -14.6424332454807
325000  ekin = 0.0639414864635107 |  erot = 0.845088070114621 | epot = -15.5514628021198 | etot = -14.6424332455416
326000  ekin = 0.0736101694204692 |  erot = 0.884703689967839 | epot = -15.6007471049927 | etot = -14.6424332456044
327000  ekin = 0.0867333560885398 |  erot = 0.918165419814672 | epot = -15.6473320215695 | etot = -14.6424332456662
328000  ekin = 0.103055779602205 |  erot = 0.944796600226729 | epot = -15.690285625553 | etot = -14.6424332457241
329000  ekin = 0.122195446168384 |  erot = 0.964099781598493 | epot = -15.7287284735425 | etot = -14.6424332457756
330000  ekin = 0.143662406707253 |  erot = 0.975776996242511 | epot = -15.7618726487686 | etot = -14.6424332458188
331000  ekin = 0.16688078513004 |  erot = 0.979738667524168 | epot = -15.7890526985066 | etot = -14.6424332458524
332000  ekin = 0.191212923965886 |  erot = 0.976101405909884 | epot = -15.8097475757513 | etot = -14.6424332458756
333000  ekin = 0.215985355315093 |  erot = 0.965176233546684 | epot = -15.8235948347498 | etot = -14.642433245888
334000  ekin = 0.240516656826274 |  erot = 0.947449485120535 | epot = -15.830399387836 | etot = -14.6424332458892
335000  ekin = 0.26414689608104 |  erot = 0.923558676876203 | epot = -15.8301388188364 | etot = -14.6424332458792
336000  ekin = 0.286267467748786 |  erot = 0.89426518476866 | epot = -15.8229658983752 | etot = -14.6424332458578
337000  ekin = 0.306349134744468 |  erot = 0.860424939344321 | epot = -15.8092073199142 | etot = -14.6424332458254
338000  ekin = 0.323965497668976 |  erot = 0.822957838329794 | epot = -15.7893565817818 | etot = -14.642433245783
339000  ekin = 0.338809250783254 |  erot = 0.78281638015672 | epot = -15.7640588766721 | etot = -14.6424332457321
340000  ekin = 0.35069944422809 |  erot = 0.74095414130838 | epot = -15.7340868312114 | etot = -14.6424332456749
341000  ekin = 0.359579293531018 |  erot = 0.698295027836038 | epot = -15.7003075669809 | etot = -14.6424332456139
342000  ekin = 0.365505462149712 |  erot = 0.655704542038074 | epot = -15.6636432497397 | etot = -14.6424332455519
343000  ekin = 0.368630832656515 |  erot = 0.613964463467531 | epot = -15.6250285416158 | etot = -14.6424332454918
344000  ekin = 0.369183369584766 |  erot = 0.573752273081695 | epot = -15.5853688881025 | etot = -14.642433245436
345000  ekin = 0.367443732820324 |  erot = 0.535626361233062 | epot = -15.5455033394399 | etot = -14.6424332453865
346000  ekin = 0.363723933128335 |  erot = 0.500017626275246 | epot = -15.5061748047482 | etot = -14.6424332453447
347000  ekin = 0.3583487052748 |  erot = 0.467227585425602 | epot = -15.4680095360115 | etot = -14.6424332453111
348000  ekin = 0.351640582952522 |  erot = 0.437432666905881 | epot = -15.4315064951445 | etot = -14.6424332452861
349000  ekin = 0.343909024693046 |  erot = 0.41069398616734 | epot = -15.3970362561291 | etot = -14.6424332452687
350000  ekin = 0.335443435967543 |  erot = 0.386971649877949 | epot = -15.3648483311043 | etot = -14.6424332452588
351000  ekin = 0.326509584093005 |  erot = 0.366142474248723 | epot = -15.335085303596 | etot = -14.6424332452543
352000  ekin = 0.317348699021852 |  erot = 0.348019930398485 | epot = -15.3078018746744 | etot = -14.6424332452541
353000  ekin = 0.30817846664876 |  erot = 0.332375117499618 | epot = -15.2829868294052 | etot = -14.6424332452568
354000  ekin = 0.299195119854683 |  erot = 0.318957598137097 | epot = -15.2605859632527 | etot = -14.6424332452609
355000  ekin = 0.290575888249358 |  erot = 0.307515001368969 | epot = -15.2405241348835 | etot = -14.6424332452652
356000  ekin = 0.282481160313138 |  erot = 0.29781040621641 | epot = -15.222724811798 | etot = -14.6424332452685
357000  ekin = 0.275055828994515 |  erot = 0.289636664277668 | epot = -15.2071257385424 | etot = -14.6424332452703
358000  ekin = 0.268429427255696 |  erot = 0.282827006912643 | epot = -15.1936896794384 | etot = -14.6424332452701
359000  ekin = 0.262714810202509 |  erot = 0.277261507859007 | epot = -15.1824095633295 | etot = -14.642433245268
360000  ekin = 0.258005302570141 |  erot = 0.272869227750186 | epot = -15.1733077755848 | etot = -14.6424332452644
361000  ekin = 0.254370400622431 |  erot = 0.269626137803972 | epot = -15.1664297836866 | etot = -14.6424332452602
362000  ekin = 0.251850290179243 |  erot = 0.267549186090239 | epot = -15.1618327215257 | etot = -14.6424332452562
363000  ekin = 0.250449609863295 |  erot = 0.266687109599965 | epot = -15.159569964717 | etot = -14.6424332452537
364000  ekin = 0.250131041863855 |  erot = 0.267108788860278 | epot = -15.1596730759782 | etot = -14.642433245254
365000  ekin = 0.250809442162592 |  erot = 0.268890073930502 | epot = -15.1621327613513 | etot = -14.6424332452582
366000  ekin = 0.252347318763925 |  erot = 0.272100073008351 | epot = -15.1668806370397 | etot = -14.6424332452674
367000  ekin = 0.254552520179183 |  erot = 0.276787886821331 | epot = -15.1737736522827 | etot = -14.6424332452822
368000  ekin = 0.257178996154117 |  erot = 0.282970699525226 | epot = -15.1825829409825 | etot = -14.6424332453031
369000  ekin = 0.25993142490973 |  erot = 0.290624011144342 | epot = -15.1929886813841 | etot = -14.64243324533
370000  ekin = 0.262474349327911 |  erot = 0.299674631815262 | epot = -15.2045822265054 | etot = -14.6424332453622
371000  ekin = 0.264446209429889 |  erot = 0.309996869296908 | epot = -15.2168763241254 | etot = -14.6424332453986
372000  ekin = 0.265478281863369 |  erot = 0.321412142685491 | epot = -15.2293236699861 | etot = -14.6424332454373
373000  ekin = 0.265218028292355 |  erot = 0.333692059446813 | epot = -15.2413433332155 | etot = -14.6424332454763
374000  ekin = 0.263355721250425 |  erot = 0.346564809668647 | epot = -15.2523537764322 | etot = -14.6424332455131
375000  ekin = 0.259652497503873 |  erot = 0.359724567994869 | epot = -15.2618103110439 | etot = -14.6424332455452
376000  ekin = 0.253967268937784 |  erot = 0.372843454380806 | epot = -15.2692439688887 | etot = -14.6424332455701
377000  ekin = 0.246279333501453 |  erot = 0.385585491294785 | epot = -15.274298070382 | etot = -14.6424332455858
378000  ekin = 0.236703249878221 |  erot = 0.397621906698152 | epot = -15.2767584021673 | etot = -14.6424332455909
379000  ekin = 0.225492756944939 |  erot = 0.408647066931743 | epot = -15.2765730694618 | etot = -14.6424332455852
380000  ekin = 0.213031377539219 |  erot = 0.418394278996712 | epot = -15.2738589021049 | etot = -14.642433245569
381000  ekin = 0.199808877315892 |  erot = 0.426650676211857 | epot = -15.2688927990715 | etot = -14.6424332455438
382000  ekin = 0.186384809019024 |  erot = 0.433270396055851 | epot = -15.2620884505868 | etot = -14.642433245512
383000  ekin = 0.173342616144098 |  erot = 0.438185279050645 | epot = -15.253961140671 | etot = -14.6424332454763
384000  ekin = 0.161239700831436 |  erot = 0.441412371402807 | epot = -15.2450853176736 | etot = -14.6424332454394
385000  ekin = 0.150559954647593 |  erot = 0.443057612552847 | epot = -15.2360508126044 | etot = -14.6424332454039
386000  ekin = 0.141675129699177 |  erot = 0.443315241523115 | epot = -15.2274236165942 | etot = -14.6424332453719
387000  ekin = 0.134820015697985 |  erot = 0.442462667348824 | epot = -15.2197159283911 | etot = -14.6424332453443
388000  ekin = 0.130083976413548 |  erot = 0.440850813513903 | epot = -15.2133680352489 | etot = -14.6424332453215
389000  ekin = 0.127418570237884 |  erot = 0.43889024627901 | epot = -15.2087420618201 | etot = -14.6424332453032
390000  ekin = 0.126658423093201 |  erot = 0.437033702086081 | epot = -15.206125370468 | etot = -14.6424332452887
391000  ekin = 0.127550804260996 |  erot = 0.435755902066197 | epot = -15.2057399516044 | etot = -14.6424332452772
392000  ekin = 0.129788752935801 |  erot = 0.435531744058798 | epot = -15.2077537422629 | etot = -14.6424332452683
393000  ekin = 0.133043055316258 |  erot = 0.436814065078314 | epot = -15.2122903656559 | etot = -14.6424332452613
394000  ekin = 0.136989561466103 |  erot = 0.440012156511496 | epot = -15.219434963234 | etot = -14.6424332452564
395000  ekin = 0.141329833042571 |  erot = 0.445472096886692 | epot = -15.2292351751829 | etot = -14.6424332452537
396000  ekin = 0.145804542777683 |  erot = 0.453459767650238 | epot = -15.2416975556817 | etot = -14.6424332452538
397000  ekin = 0.150200153189368 |  erot = 0.464147173463313 | epot = -15.2567805719101 | etot = -14.6424332452574
398000  ekin = 0.154350089767281 |  erot = 0.477602441560301 | epot = -15.2743857765925 | etot = -14.6424332452649
399000  ekin = 0.158131920623958 |  erot = 0.493783661157258 | epot = -15.2943488270584 | etot = -14.6424332452772
400000  ekin = 0.161462056175852 |  erot = 0.512536568007644 | epot = -15.3164318694779 | etot = -14.6424332452944
401000  ekin = 0.164289301183563 |  erot = 0.533595989003439 | epot = -15.3403185355037 | etot = -14.6424332453167
402000  ekin = 0.166588323053565 |  erot = 0.556590928840414 | epot = -15.3656124972379 | etot = -14.642433245344
403000  ekin = 0.168353810382881 |  erot = 0.581053183644676 | epot = -15.3918402394035 | etot = -14.6424332453759
404000  ekin = 0.169595821304602 |  erot = 0.606429376023105 | epot = -15.4184584427394 | etot = -14.6424332454117
405000  ekin = 0.17033657856555 |  erot = 0.632096292540194 | epot = -15.4448661165559 | etot = -14.6424332454502
406000  ekin = 0.170608761982357 |  erot = 0.65737934451417 | epot = -15.4704213519868 | etot = -14.6424332454902
407000  ekin = 0.170455178570774 |  erot = 0.681573854093745 | epot = -15.4944622781949 | etot = -14.6424332455304
408000  ekin = 0.169929554812993 |  erot = 0.703968692150315 | epot = -15.5163314925321 | etot = -14.6424332455688
409000  ekin = 0.169098093454308 |  erot = 0.723871579520606 | epot = -15.5354029185787 | etot = -14.6424332456038
410000  ekin = 0.168041369043254 |  erot = 0.740635137247646 | epot = -15.5511097519244 | etot = -14.6424332456335
411000  ekin = 0.166856102811026 |  erot = 0.753682569970607 | epot = -15.562971918438 | etot = -14.6424332456564
412000  ekin = 0.165656359034654 |  erot = 0.762531725092731 | epot = -15.5706213297983 | etot = -14.642433245671
413000  ekin = 0.164573741712539 |  erot = 0.766816218739469 | epot = -15.5738232061283 | etot = -14.6424332456763
414000  ekin = 0.163756240958007 |  erot = 0.766302377571818 | epot = -15.5724918642016 | etot = -14.6424332456718
415000  ekin = 0.163365479945299 |  erot = 0.760900920225133 | epot = -15.5666996458276 | etot = -14.6424332456572
416000  ekin = 0.163572240093361 |  erot = 0.750672586700048 | epot = -15.5566780724264 | etot = -14.642433245633
417000  ekin = 0.164550286198126 |  erot = 0.735827297892139 | epot = -15.5428108296904 | etot = -14.6424332456002
418000  ekin = 0.166468663391001 |  erot = 0.716716857301867 | epot = -15.525618766253 | etot = -14.6424332455601
419000  ekin = 0.169482781124152 |  erot = 0.69382164910087 | epot = -15.5057376757396 | etot = -14.6424332455146
420000  ekin = 0.173724722664366 |  erot = 0.667732191685369 | epot = -15.4838901598155 | etot = -14.6424332454658
421000  ekin = 0.179293310757479 |  erot = 0.639126725583771 | epot = -15.4608532817569 | etot = -14.6424332454157
422000  ekin = 0.186244514517565 |  erot = 0.608746211201693 | epot = -15.4374239710859 | etot = -14.6424332453666
423000  ekin = 0.194582798143041 |  erot = 0.577368165579506 | epot = -15.4143842090433 | etot = -14.6424332453207
424000  ekin = 0.204253993027957 |  erot = 0.545780680988036 | epot = -15.392467919296 | etot = -14.64243324528
425000  ekin = 0.215140228915595 |  erot = 0.514757766833673 | epot = -15.372331240995 | etot = -14.6424332452458
426000  ekin = 0.227057395196063 |  erot = 0.485036881516669 | epot = -15.354527521932 | etot = -14.6424332452193
427000  ekin = 0.239755526224872 |  erot = 0.457299221562912 | epot = -15.3394879929894 | etot = -14.6424332452017
428000  ekin = 0.252922416268501 |  erot = 0.432153058136047 | epot = -15.3275087195977 | etot = -14.6424332451931
429000  ekin = 0.266190667178472 |  erot = 0.410120192009091 | epot = -15.318744104381 | etot = -14.6424332451935
430000  ekin = 0.279148248284958 |  erot = 0.391625457763427 | epot = -15.3132069512512 | etot = -14.6424332452028
431000  ekin = 0.291352495292848 |  erot = 0.37698914981175 | epot = -15.3107748903245 | etot = -14.6424332452199
432000  ekin = 0.302347287569357 |  erot = 0.36642225446733 | epot = -15.3112027872808 | etot = -14.6424332452441
433000  ekin = 0.311682921770362 |  erot = 0.360024429013509 | epot = -15.314140596057 | etot = -14.6424332452732
434000  ekin = 0.318937954386234 |  erot = 0.357784738271935 | epot = -15.3191559379639 | etot = -14.6424332453058
435000  ekin = 0.323742037713894 |  erot = 0.359585207274212 | epot = -15.3257604903287 | etot = -14.6424332453406
436000  ekin = 0.325798554030488 |  erot = 0.36520724530746 | epot = -15.3334390447139 | etot = -14.642433245376
437000  ekin = 0.324905697096464 |  erot = 0.374340922352109 | epot = -15.3416798648574 | etot = -14.6424332454088
438000  ekin = 0.32097458985737 |  erot = 0.386596930163185 | epot = -15.3500047654581 | etot = -14.6424332454376
439000  ekin = 0.314043077745088 |  erot = 0.401520852188919 | epot = -15.3579971753952 | etot = -14.6424332454612
440000  ekin = 0.304283988018852 |  erot = 0.418609132218188 | epot = -15.3653263657148 | etot = -14.6424332454778
441000  ekin = 0.292006859109402 |  erot = 0.437325916198087 | epot = -15.3717660207938 | etot = -14.6424332454863
442000  ekin = 0.277652365812265 |  erot = 0.457119792524783 | epot = -15.3772054038239 | etot = -14.6424332454868
443000  ekin = 0.261778853587313 |  erot = 0.477439412182564 | epot = -15.3816515112497 | etot = -14.6424332454798
444000  ekin = 0.245040553430208 |  erot = 0.497747053384035 | epot = -15.385220852281 | etot = -14.6424332454667
445000  ekin = 0.228157260415726 |  erot = 0.51752940821079 | epot = -15.3881199140755 | etot = -14.642433245449
446000  ekin = 0.211875681724409 |  erot = 0.536305196865493 | epot = -15.3906141240194 | etot = -14.6424332454295
447000  ekin = 0.196923472676251 |  erot = 0.553629632762795 | epot = -15.3929863508504 | etot = -14.6424332454113
448000  ekin = 0.183958277875555 |  erot = 0.569096233380591 | epot = -15.3954877566542 | etot = -14.642433245398
449000  ekin = 0.17351577130814 |  erot = 0.582336947161301 | epot = -15.3982859638623 | etot = -14.6424332453928
450000  ekin = 0.165962361194715 |  erot = 0.593021970155398 | epot = -15.4014175767483 | etot = -14.6424332453982
451000  ekin = 0.161459280831074 |  erot = 0.600860851258547 | epot = -15.4047533775047 | etot = -14.6424332454151
452000  ekin = 0.159944578250399 |  erot = 0.605606408084822 | epot = -15.4079842317782 | etot = -14.642433245443
453000  ekin = 0.161137653112611 |  erot = 0.607062496375706 | epot = -15.4106333949674 | etot = -14.6424332454791
454000  ekin = 0.164567591511427 |  erot = 0.605095779312731 | epot = -15.4120966163435 | etot = -14.6424332455193
455000  ekin = 0.169622334208412 |  erot = 0.59965045542677 | epot = -15.4117060351935 | etot = -14.6424332455583
456000  ekin = 0.17561180235027 |  erot = 0.590763702898776 | epot = -15.4088087508398 | etot = -14.6424332455907
457000  ekin = 0.181835621982501 |  erot = 0.578578749366117 | epot = -15.4028476169607 | etot = -14.6424332456121
458000  ekin = 0.187645727031673 |  erot = 0.563352302650952 | epot = -15.3934312753015 | etot = -14.6424332456189
459000  ekin = 0.192495880386129 |  erot = 0.545453717149971 | epot = -15.3803828431461 | etot = -14.64243324561
460000  ekin = 0.195973381638787 |  erot = 0.525354597711217 | epot = -15.3637612249357 | etot = -14.6424332455857
461000  ekin = 0.197811920993003 |  erot = 0.503609203462485 | epot = -15.343854370004 | etot = -14.6424332455485
462000  ekin = 0.197887724921051 |  erot = 0.480827560282181 | epot = -15.3211485307045 | etot = -14.6424332455013
463000  ekin = 0.19620319848715 |  erot = 0.457644248435948 | epot = -15.2962806923714 | etot = -14.6424332454483
464000  ekin = 0.192863034127873 |  erot = 0.434686220428325 | epot = -15.2699824999496 | etot = -14.6424332453934
465000  ekin = 0.188047435824123 |  erot = 0.412542760090272 | epot = -15.2430234412543 | etot = -14.6424332453399
466000  ekin = 0.181986107554568 |  erot = 0.391740010671155 | epot = -15.2161593635163 | etot = -14.6424332452906
467000  ekin = 0.174935400199636 |  erot = 0.372721626734198 | epot = -15.1900902721814 | etot = -14.6424332452475
468000  ekin = 0.167159826103628 |  erot = 0.355836258350725 | epot = -15.1654293296662 | etot = -14.6424332452119
469000  ekin = 0.158918218023891 |  erot = 0.341331890764694 | epot = -15.1426833539729 | etot = -14.6424332451843
470000  ekin = 0.150454185654314 |  erot = 0.329356584633373 | epot = -15.1222440154522 | etot = -14.6424332451645
471000  ekin = 0.141990180750326 |  erot = 0.319964871776615 | epot = -15.104388297679 | etot = -14.6424332451521
472000  ekin = 0.133724353868926 |  erot = 0.313128906245008 | epot = -15.0892865052598 | etot = -14.6424332451459
473000  ekin = 0.125829398102403 |  erot = 0.308753392324136 | epot = -15.0770160355714 | etot = -14.6424332451449
474000  ekin = 0.118452666363553 |  erot = 0.306693264413754 | epot = -15.0675791759249 | etot = -14.6424332451476
475000  ekin = 0.111716976219115 |  erot = 0.30677305329061 | epot = -15.0609232746625 | etot = -14.6424332451527
476000  ekin = 0.105721655633337 |  erot = 0.308806833537562 | epot = -15.0569617343299 | etot = -14.642433245159
477000  ekin = 0.100543523675758 |  erot = 0.312617617130229 | epot = -15.0555943859711 | etot = -14.6424332451651
478000  ekin = 0.0962376398644811 |  erot = 0.31805505563526 | epot = -15.0567259406697 | etot = -14.64243324517
479000  ekin = 0.0928377950024532 |  erot = 0.325010357030093 | epot = -15.0602813972057 | etot = -14.6424332451731
480000  ekin = 0.0903568546345998 |  erot = 0.333427427763264 | epot = -15.0662175275719 | etot = -14.642433245174
481000  ekin = 0.0887871989358601 |  erot = 0.343309423709768 | epot = -15.074529867818 | etot = -14.6424332451724
482000  ekin = 0.0881016191320375 |  erot = 0.354720133057113 | epot = -15.0852549973577 | etot = -14.6424332451685
483000  ekin = 0.0882551127439699 |  erot = 0.367779908272474 | epot = -15.0984682661793 | etot = -14.6424332451629
484000  ekin = 0.0891880440138163 |  erot = 0.382656193507622 | epot = -15.1142774826775 | etot = -14.642433245156
485000  ekin = 0.0908310739109982 |  erot = 0.399549033146323 | epot = -15.132813352206 | etot = -14.6424332451486
486000  ekin = 0.0931120890990551 |  erot = 0.41867226992318 | epot = -15.1542176041638 | etot = -14.6424332451416
487000  ekin = 0.095965052639277 |  erot = 0.440231422321074 | epot = -15.1786297200962 | etot = -14.6424332451358
488000  ekin = 0.0993402613867534 |  erot = 0.464399451384565 | epot = -15.2061729579035 | etot = -14.6424332451322
489000  ekin = 0.103214957397693 |  erot = 0.491291775403353 | epot = -15.2369399779327 | etot = -14.6424332451317
490000  ekin = 0.107602676597199 |  erot = 0.520941965498321 | epot = -15.2709778872308 | etot = -14.6424332451353
491000  ekin = 0.112559247664636 |  erot = 0.553279563917093 | epot = -15.3082720567258 | etot = -14.6424332451441
492000  ekin = 0.11818313672361 |  erot = 0.588111425308605 | epot = -15.3487278071918 | etot = -14.6424332451596
493000  ekin = 0.124608040126391 |  erot = 0.625107908279146 | epot = -15.3921491935888 | etot = -14.6424332451833
494000  ekin = 0.131986393312571 |  erot = 0.663795156035298 | epot = -15.4382147945647 | etot = -14.6424332452168
495000  ekin = 0.140463823900169 |  erot = 0.703554605721933 | epot = -15.4864516748842 | etot = -14.6424332452621
496000  ekin = 0.150146408035849 |  erot = 0.743630741563392 | epot = -15.5362103949194 | etot = -14.6424332453202
497000  ekin = 0.161064579071324 |  erot = 0.783147917317811 | epot = -15.586645741781 | etot = -14.6424332453918
498000  ekin = 0.173139219157391 |  erot = 0.821136754973018 | epot = -15.6367092196067 | etot = -14.6424332454763
499000  ekin = 0.186156317833388 |  erot = 0.856570103856968 | epot = -15.6851596672616 | etot = -14.6424332455712
500000  ekin = 0.199756195068939 |  erot = 0.888407758274321 | epot = -15.730597199016 | etot = -14.6424332456728
501000  ekin = 0.213441517837342 |  erot = 0.915648078733143 | epot = -15.7715228423457 | etot = -14.6424332457753
502000  ekin = 0.226605416598005 |  erot = 0.937383433649483 | epot = -15.8064220961193 | etot = -14.6424332458719
503000  ekin = 0.238577508977599 |  erot = 0.952855183125227 | epot = -15.8338659380581 | etot = -14.6424332459553
504000  ekin = 0.248682347016338 |  erot = 0.961503066788675 | epot = -15.8526186598237 | etot = -14.6424332460187
505000  ekin = 0.256302488969596 |  erot = 0.963003656366976 | epot = -15.8617393913932 | etot = -14.6424332460566
506000  ekin = 0.260937583144194 |  erot = 0.957293217920897 | epot = -15.8606640471307 | etot = -14.6424332460656
507000  ekin = 0.262251679299244 |  erot = 0.944571918258912 | epot = -15.849256843603 | etot = -14.6424332460448
508000  ekin = 0.260103184111408 |  erot = 0.925288564934742 | epot = -15.8278249950421 | etot = -14.6424332459959
509000  ekin = 0.25455487528045 |  erot = 0.900107536938111 | epot = -15.7970956581414 | etot = -14.6424332459228
510000  ekin = 0.245864483348181 |  erot = 0.869861717985596 | epot = -15.7581594471648 | etot = -14.642433245831
511000  ekin = 0.234458914526881 |  erot = 0.835496660126654 | epot = -15.7123888203807 | etot = -14.6424332457271
512000  ekin = 0.220896820239973 |  erot = 0.798011684066058 | epot = -15.6613417499238 | etot = -14.6424332456178
513000  ekin = 0.205824805087872 |  erot = 0.758403224578473 | epot = -15.6066612751758 | etot = -14.6424332455094
514000  ekin = 0.189932244116162 |  erot = 0.717614706860426 | epot = -15.5499801963839 | etot = -14.6424332454073
515000  ekin = 0.173908748199766 |  erot = 0.676495918872675 | epot = -15.4928379123882 | etot = -14.6424332453158
516000  ekin = 0.158407108508993 |  erot = 0.635773516025409 | epot = -15.4366138697724 | etot = -14.642433245238
517000  ekin = 0.144013350183893 |  erot = 0.59603314911818 | epot = -15.3824797444781 | etot = -14.642433245176
518000  ekin = 0.131224514118005 |  erot = 0.557712825688994 | epot = -15.3313705849372 | etot = -14.6424332451302
519000  ekin = 0.120434042405824 |  erot = 0.521106495597738 | epot = -15.283973783104 | etot = -14.6424332451004
520000  ekin = 0.111924165176706 |  erot = 0.486376443199764 | epot = -15.2407338534617 | etot = -14.6424332450853
521000  ekin = 0.105864424815879 |  erot = 0.453572806060429 | epot = -15.2018704759591 | etot = -14.6424332450828
522000  ekin = 0.102315362067395 |  erot = 0.422658367131502 | epot = -15.1674069742898 | etot = -14.6424332450909
523000  ekin = 0.101236366465181 |  erot = 0.393536647096984 | epot = -15.137206258669 | etot = -14.6424332451068
524000  ekin = 0.102496717236757 |  erot = 0.366081244308208 | epot = -15.1110112066728 | etot = -14.6424332451278
525000  ekin = 0.105888887336051 |  erot = 0.340164343214671 | epot = -15.0884864757019 | etot = -14.6424332451512
526000  ekin = 0.111143247850943 |  erot = 0.315682368378665 | epot = -15.0692588614045 | etot = -14.6424332451749
527000  ekin = 0.117943398962438 |  erot = 0.29257693780699 | epot = -15.0529535819665 | etot = -14.642433245197
528000  ekin = 0.12594147425583 |  erot = 0.270849598243837 | epot = -15.0392243177155 | etot = -14.6424332452158
529000  ekin = 0.134772916010411 |  erot = 0.250569317239496 | epot = -15.0277754784804 | etot = -14.6424332452305
530000  ekin = 0.144070383403777 |  erot = 0.231872340652232 | epot = -15.0183759692968 | etot = -14.6424332452408
531000  ekin = 0.153476601970705 |  erot = 0.214954741435346 | epot = -15.010864588653 | etot = -14.6424332452469
532000  ekin = 0.162656054078974 |  erot = 0.20005869764927 | epot = -15.0051479969776 | etot = -14.6424332452493
533000  ekin = 0.171305419081562 |  erot = 0.187454143184885 | epot = -15.0011928075152 | etot = -14.6424332452488
534000  ekin = 0.179162595540481 |  erot = 0.1774178426953 | epot = -14.9990136834821 | etot = -14.6424332452463
535000  ekin = 0.186014006486751 |  erot = 0.170212094444198 | epot = -14.9986593461735 | etot = -14.6424332452426
536000  ekin = 0.191699759240504 |  erot = 0.16606514922825 | epot = -15.0001981537073 | etot = -14.6424332452386
537000  ekin = 0.1961161699316 |  erot = 0.165155084981448 | epot = -15.0037045001479 | etot = -14.6424332452348
538000  ekin = 0.199215220533753 |  erot = 0.167598364573304 | epot = -15.0092468303391 | etot = -14.642433245232
539000  ekin = 0.201000709669645 |  erot = 0.173443713619011 | epot = -15.0168776685194 | etot = -14.6424332452308
540000  ekin = 0.20152116403808 |  erot = 0.182671367033565 | epot = -15.0266257763029 | etot = -14.6424332452312
541000  ekin = 0.200859940141561 |  erot = 0.195197211442919 | epot = -15.0384903968184 | etot = -14.642433245234
542000  ekin = 0.199123298889081 |  erot = 0.210880936223622 | epot = -15.0524374803517 | etot = -14.642433245239
543000  ekin = 0.196427519384058 |  erot = 0.229537017789335 | epot = -15.0683977824196 | etot = -14.6424332452462
544000  ekin = 0.192886294945247 |  erot = 0.250947202002153 | epot = -15.0862667422037 | etot = -14.6424332452563
545000  ekin = 0.18859971088744 |  erot = 0.274873110235068 | epot = -15.105906066391 | etot = -14.6424332452685
546000  ekin = 0.183646045242699 |  erot = 0.301067663118862 | epot = -15.1271469536444 | etot = -14.6424332452828
547000  ekin = 0.178077473818675 |  erot = 0.329284179373474 | epot = -15.149794898491 | etot = -14.6424332452988
548000  ekin = 0.171920510267319 |  erot = 0.359282253783652 | epot = -15.173636009367 | etot = -14.642433245316
549000  ekin = 0.165181670578008 |  erot = 0.390829837831177 | epot = -15.1984447537429 | etot = -14.6424332453337
550000  ekin = 0.157858408655514 |  erot = 0.42370132691765 | epot = -15.2239929809246 | etot = -14.6424332453514
551000  ekin = 0.149954809005953 |  erot = 0.457671882716406 | epot = -15.2500599370906 | etot = -14.6424332453683
552000  ekin = 0.141500835823185 |  erot = 0.492508662660431 | epot = -15.2764427438672 | etot = -14.6424332453836
553000  ekin = 0.132573145481933 |  erot = 0.527960055124278 | epot = -15.302966446003 | etot = -14.6424332453968
554000  ekin = 0.123314645148986 |  erot = 0.563744383269626 | epot = -15.3294922738258 | etot = -14.6424332454072
555000  ekin = 0.113949270903175 |  erot = 0.599539792623648 | epot = -15.3559223089416 | etot = -14.6424332454148
556000  ekin = 0.104788088807786 |  erot = 0.634977129563658 | epot = -15.3821984637915 | etot = -14.64243324542
557000  ekin = 0.0962230654780946 |  erot = 0.669637513724504 | epot = -15.4082938246265 | etot = -14.6424332454239
558000  ekin = 0.0887059614428478 |  erot = 0.70305599048067 | epot = -15.4341951973515 | etot = -14.642433245428
559000  ekin = 0.082711884774194 |  erot = 0.734732129424159 | epot = -15.4598772596328 | etot = -14.6424332454344
560000  ekin = 0.0786899547259911 |  erot = 0.764147748398984 | epot = -15.4852709485702 | etot = -14.6424332454453
561000  ekin = 0.0770067720633791 |  erot = 0.790791153076129 | epot = -15.5102311706017 | etot = -14.6424332454622
562000  ekin = 0.0778911706764789 |  erot = 0.814186471629281 | epot = -15.5345108877919 | etot = -14.6424332454862
563000  ekin = 0.0813901113673084 |  erot = 0.83392592548323 | epot = -15.5577492823674 | etot = -14.6424332455168
564000  ekin = 0.0873448530219544 |  erot = 0.849702302565905 | epot = -15.5794804011399 | etot = -14.642433245552
565000  ekin = 0.0953935152543308 |  erot = 0.861338569497384 | epot = -15.59916533034 | etot = -14.6424332455883
566000  ekin = 0.105001366119722 |  erot = 0.868811531657507 | epot = -15.6162461433985 | etot = -14.6424332456212
567000  ekin = 0.11551478921087 |  erot = 0.872266750928371 | epot = -15.6302147857853 | etot = -14.6424332456461
568000  ekin = 0.126230320990598 |  erot = 0.872022546761245 | epot = -15.6406861134104 | etot = -14.6424332456586
569000  ekin = 0.1364675752055 |  erot = 0.868561781938193 | epot = -15.6474626027995 | etot = -14.6424332456558
570000  ekin = 0.145634823229284 |  erot = 0.862511177263077 | epot = -15.650579246129 | etot = -14.6424332456367
571000  ekin = 0.153278250260132 |  erot = 0.854608991356468 | epot = -15.6503204872187 | etot = -14.6424332456021
572000  ekin = 0.159109636953965 |  erot = 0.845662918617004 | epot = -15.6472058011259 | etot = -14.6424332455549
573000  ekin = 0.163011362017409 |  erot = 0.836500892320213 | epot = -15.6419454998373 | etot = -14.6424332454997
574000  ekin = 0.165021239080183 |  erot = 0.82791805820557 | epot = -15.6353725427275 | etot = -14.6424332454418
575000  ekin = 0.165302195908647 |  erot = 0.820623479704516 | epot = -15.6283589210001 | etot = -14.6424332453869
576000  ekin = 0.164102988101242 |  erot = 0.815190165399292 | epot = -15.6217263988412 | etot = -14.6424332453406
577000  ekin = 0.161716152387198 |  erot = 0.812011817944906 | epot = -15.6161612156399 | etot = -14.6424332453078
578000  ekin = 0.15843856937185 |  erot = 0.811269345694985 | epot = -15.6121411603585 | etot = -14.6424332452916
579000  ekin = 0.154538688869395 |  erot = 0.812909695781084 | epot = -15.6098816299448 | etot = -14.6424332452944
580000  ekin = 0.150232988454514 |  erot = 0.816638977242154 | epot = -15.6093052110128 | etot = -14.6424332453162
581000  ekin = 0.145672809814998 |  erot = 0.82193113541131 | epot = -15.6100371905821 | etot = -14.6424332453558
582000  ekin = 0.140941476791536 |  erot = 0.828052590351175 | epot = -15.6114273125529 | etot = -14.6424332454102
583000  ekin = 0.136060602599188 |  erot = 0.834102246896661 | epot = -15.6125960949711 | etot = -14.6424332454752
584000  ekin = 0.131003759896606 |  erot = 0.839065139158589 | epot = -15.6125021446008 | etot = -14.6424332455456
585000  ekin = 0.125715216483023 |  erot = 0.841876757449347 | epot = -15.6100252195477 | etot = -14.6424332456153
586000  ekin = 0.120131224768948 |  erot = 0.841493945667052 | epot = -15.6040584161145 | etot = -14.6424332456785
587000  ekin = 0.114201380572127 |  erot = 0.836967317754023 | epot = -15.5936019440556 | etot = -14.6424332457295
588000  ekin = 0.10790780822673 |  erot = 0.827509595983478 | epot = -15.5778506499738 | etot = -14.6424332457636
589000  ekin = 0.101280337909716 |  erot = 0.812554260673813 | epot = -15.5562678443608 | etot = -14.6424332457773
590000  ekin = 0.0944063548788227 |  erot = 0.791799488420743 | epot = -15.5286390890684 | etot = -14.6424332457688
591000  ekin = 0.0874345511051893 |  erot = 0.765233519223455 | epot = -15.4951013160664 | etot = -14.6424332457378
592000  ekin = 0.0805723392084907 |  erot = 0.733139214285358 | epot = -15.4561447991799 | etot = -14.642433245686
593000  ekin = 0.0740771594080655 |  erot = 0.696077455348817 | epot = -15.4125878603734 | etot = -14.6424332456166
594000  ekin = 0.0682423089599614 |  erot = 0.654850963358217 | epot = -15.3655265178521 | etot = -14.642433245534
595000  ekin = 0.0633782539014331 |  erot = 0.610451848323659 | epot = -15.3162633476688 | etot = -14.6424332454437
596000  ekin = 0.0597906540649347 |  erot = 0.563997548401148 | epot = -15.2662214478178 | etot = -14.6424332453517
597000  ekin = 0.0577565493623858 |  erot = 0.516660644084273 | epot = -15.2168504387106 | etot = -14.642433245264
598000  ekin = 0.0575003158536081 |  erot = 0.469598294353632 | epot = -15.1695318553934 | etot = -14.6424332451862
599000  ekin = 0.0591710965286251 |  erot = 0.423886769451064 | epot = -15.1254911111027 | etot = -14.642433245123
600000  ekin = 0.0628234356891045 |  erot = 0.380465849281436 | epot = -15.0857225300487 | etot = -14.6424332450781
601000  ekin = 0.0684027903378417 |  erot = 0.340096852289044 | epot = -15.0509328876805 | etot = -14.6424332450536
602000  ekin = 0.0757374499129008 |  erot = 0.303336891508804 | epot = -15.0215075864718 | etot = -14.6424332450501
603000  ekin = 0.0845381560106984 |  erot = 0.270530726252426 | epot = -14.9975021273296 | etot = -14.6424332450665
604000  ekin = 0.0944063594078355 |  erot = 0.241820347963454 | epot = -14.9786599524715 | etot = -14.6424332451002
605000  ekin = 0.104851562460566 |  erot = 0.217171224791036 | epot = -14.9644560323985 | etot = -14.6424332451469
606000  ekin = 0.115317556389835 |  erot = 0.196412930356103 | epot = -14.954163731947 | etot = -14.6424332452011
607000  ekin = 0.125216580353275 |  erot = 0.179290709847405 | epot = -14.9469405354574 | etot = -14.6424332452567
608000  ekin = 0.133969542490564 |  erot = 0.165523445157646 | epot = -14.9419262329554 | etot = -14.6424332453072
609000  ekin = 0.141049537028518 |  erot = 0.15486258226509 | epot = -14.9383453646398 | etot = -14.6424332453462
610000  ekin = 0.146025095175949 |  erot = 0.147146040888439 | epot = -14.935604381433 | etot = -14.6424332453686
611000  ekin = 0.148599079335757 |  erot = 0.142341118193739 | epot = -14.9333734429002 | etot = -14.6424332453707
612000  ekin = 0.148639027542241 |  erot = 0.140571068727528 | epot = -14.9316433416205 | etot = -14.6424332453507
613000  ekin = 0.146195193893338 |  erot = 0.142121441395774 | epot = -14.9307498805986 | etot = -14.6424332453095
614000  ekin = 0.141503544705058 |  erot = 0.147424293659482 | epot = -14.9313610836148 | etot = -14.6424332452503
615000  ekin = 0.134972482669589 |  erot = 0.157020849768843 | epot = -14.9344265776168 | etot = -14.6424332451783
616000  ekin = 0.127153892887477 |  erot = 0.17150567977268 | epot = -14.9410928177609 | etot = -14.6424332451008
617000  ekin = 0.118700960497215 |  erot = 0.191457667915335 | epot = -14.9525918734382 | etot = -14.6424332450256
618000  ekin = 0.110316794781948 |  erot = 0.21736458449167 | epot = -14.9701146242348 | etot = -14.6424332449612
619000  ekin = 0.102698942666097 |  erot = 0.249548776233835 | epot = -14.994680963815 | etot = -14.6424332449151
620000  ekin = 0.0964852203315631 |  erot = 0.288101317493937 | epot = -15.0270197827191 | etot = -14.6424332448936
621000  ekin = 0.0922059091526162 |  erot = 0.332831044367888 | epot = -15.0674701984216 | etot = -14.6424332449011
622000  ekin = 0.090246364710084 |  erot = 0.383233451864307 | epot = -15.1159130615138 | etot = -14.6424332449395
623000  ekin = 0.0908226920702867 |  erot = 0.438482716268118 | epot = -15.1717386533468 | etot = -14.6424332450084
624000  ekin = 0.0939716062521641 |  erot = 0.497448307340739 | epot = -15.2338531586981 | etot = -14.6424332451052
625000  ekin = 0.0995541611224816 |  erot = 0.558735886785548 | epot = -15.3007232931327 | etot = -14.6424332452247
626000  ekin = 0.107271859325762 |  erot = 0.620750477457381 | epot = -15.3704555821432 | etot = -14.6424332453601
627000  ekin = 0.116692826737646 |  erot = 0.681778220901968 | epot = -15.440904293143 | etot = -14.6424332455034
628000  ekin = 0.127285245273582 |  erot = 0.740081431770171 | epot = -15.5097999226893 | etot = -14.6424332456456
629000  ekin = 0.138455039153843 |  erot = 0.794000196771077 | epot = -15.5748884817029 | etot = -14.6424332457779
630000  ekin = 0.149584842937087 |  erot = 0.84205264024076 | epot = -15.63407072907 | etot = -14.6424332458922
631000  ekin = 0.160071499853009 |  erot = 0.88302544287862 | epot = -15.6855301887133 | etot = -14.6424332459817
632000  ekin = 0.169359720292754 |  erot = 0.916046503426999 | epot = -15.7278394697613 | etot = -14.6424332460416
633000  ekin = 0.176970053692527 |  erot = 0.94063292294126 | epot = -15.7600362227031 | etot = -14.6424332460693
634000  ekin = 0.182519961289934 |  erot = 0.956709735134238 | epot = -15.7816629424889 | etot = -14.6424332460647
635000  ekin = 0.185737466035627 |  erot = 0.964597760206567 | epot = -15.7927684722724 | etot = -14.6424332460302
636000  ekin = 0.186467519303287 |  erot = 0.964972204256552 | epot = -15.79387296953 | etot = -14.6424332459701
637000  ekin = 0.184671774604466 |  erot = 0.958796660376671 | epot = -15.7859016808713 | etot = -14.6424332458901
638000  ekin = 0.180422825778035 |  erot = 0.947239527073052 | epot = -15.7700955986478 | etot = -14.6424332457967
639000  ekin = 0.173894119064837 |  erot = 0.931581224196235 | epot = -15.747908588958 | etot = -14.642433245697
640000  ekin = 0.165346701827782 |  erot = 0.91312083875339 | epot = -15.7209007861784 | etot = -14.6424332455972
641000  ekin = 0.155113786103692 |  erot = 0.893090060089671 | epot = -15.6906370916964 | etot = -14.6424332455031
642000  ekin = 0.143583869244217 |  erot = 0.872580710306169 | epot = -15.6585978249696 | etot = -14.6424332454192
643000  ekin = 0.131182953689566 |  erot = 0.852490168054334 | epot = -15.6261063670926 | etot = -14.6424332453487
644000  ekin = 0.118356305761173 |  erot = 0.833486853990269 | epot = -15.5942764050451 | etot = -14.6424332452937
645000  ekin = 0.105550209085081 |  erot = 0.815995971212791 | epot = -15.5639794255527 | etot = -14.6424332452548
646000  ekin = 0.0931942744194625 |  erot = 0.800204061931269 | epot = -15.5358315815826 | etot = -14.6424332452318
647000  ekin = 0.0816850001800769 |  erot = 0.786079744440999 | epot = -15.5101979898444 | etot = -14.6424332452233
648000  ekin = 0.0713713598437978 |  erot = 0.773407243193285 | epot = -15.4872118482646 | etot = -14.6424332452275
649000  ekin = 0.0625431628717075 |  erot = 0.761828976530965 | epot = -15.4668053846445 | etot = -14.6424332452418
650000  ekin = 0.0554227735503044 |  erot = 0.750893453414529 | epot = -15.4487494722282 | etot = -14.6424332452633
651000  ekin = 0.0501605027658098 |  erot = 0.74010497844913 | epot = -15.4326987265041 | etot = -14.6424332452892
652000  ekin = 0.0468336713663308 |  erot = 0.728972100421486 | epot = -15.4182390171043 | etot = -14.6424332453165
653000  ekin = 0.0454490492573673 |  erot = 0.717052285945908 | epot = -15.4049345805457 | etot = -14.6424332453424
654000  ekin = 0.0459481524943306 |  erot = 0.703990869784824 | epot = -15.3923722676438 | etot = -14.6424332453647
[...]
838000  ekin = 0.248642320235629 |  erot = 0.253003904103877 | epot = -15.1440794697601 | etot = -14.6424332454206
839000  ekin = 0.251661569327587 |  erot = 0.236776758987145 | epot = -15.1308715736748 | etot = -14.6424332453601
840000  ekin = 0.253557306828163 |  erot = 0.221424057161458 | epot = -15.117414609287 | etot = -14.6424332452974
841000  ekin = 0.254567562696712 |  erot = 0.207741475743549 | epot = -15.1047422836783 | etot = -14.642433245238
842000  ekin = 0.254912814683648 |  erot = 0.19649826235426 | epot = -15.093844322224 | etot = -14.6424332451861
843000  ekin = 0.254783130765732 |  erot = 0.18838292178705 | epot = -15.0855992976972 | etot = -14.6424332451444
844000  ekin = 0.254340789697802 |  erot = 0.183956927272122 | epot = -15.0807309620839 | etot = -14.642433245114
845000  ekin = 0.253734932891637 |  erot = 0.183619247980649 | epot = -15.079787425967 | etot = -14.6424332450947
846000  ekin = 0.25312050419609 |  erot = 0.187583282239926 | epot = -15.0831370315219 | etot = -14.6424332450859
847000  ekin = 0.252671650088207 |  erot = 0.195866742639201 | epot = -15.0909716378148 | etot = -14.6424332450873
848000  ekin = 0.252580915310227 |  erot = 0.208294222463247 | epot = -15.1033083828726 | etot = -14.6424332450991
849000  ekin = 0.253039966848203 |  erot = 0.224511555531949 | epot = -15.1199847675021 | etot = -14.642433245122
850000  ekin = 0.254204001798466 |  erot = 0.244010590097926 | epot = -15.1406478370531 | etot = -14.6424332451567
851000  ekin = 0.25614833902674 |  erot = 0.266162563602757 | epot = -15.1647441478328 | etot = -14.6424332452033
852000  ekin = 0.258829686440543 |  erot = 0.290257858698332 | epot = -15.1915207903994 | etot = -14.6424332452605
853000  ekin = 0.262064657828545 |  erot = 0.315549558167831 | epot = -15.2200474613219 | etot = -14.6424332453255
854000  ekin = 0.265534116122616 |  erot = 0.341297947736459 | epot = -15.2492653092525 | etot = -14.6424332453934
855000  ekin = 0.26881517465356 |  erot = 0.366813004430954 | epot = -15.2780614245429 | etot = -14.6424332454584
856000  ekin = 0.2714354869546 |  erot = 0.391492007901482 | epot = -15.3053607403704 | etot = -14.6424332455143
857000  ekin = 0.272939108063026 |  erot = 0.414849750473433 | epot = -15.3302221040922 | etot = -14.6424332455557
858000  ekin = 0.272951155039827 |  erot = 0.436539390688028 | epot = -15.3519237913065 | etot = -14.6424332455787
859000  ekin = 0.27122988067654 |  erot = 0.456362750059338 | epot = -15.370025876317 | etot = -14.6424332455811
860000  ekin = 0.267698633834005 |  erot = 0.474269718460678 | epot = -15.3844015978584 | etot = -14.6424332455637
861000  ekin = 0.262455001753023 |  erot = 0.490347316007822 | epot = -15.3952355632891 | etot = -14.6424332455283
862000  ekin = 0.255758797176847 |  erot = 0.504799761298972 | epot = -15.4029918039546 | etot = -14.6424332454788
863000  ekin = 0.248003564341593 |  erot = 0.517921532812577 | epot = -15.408358342574 | etot = -14.6424332454198
864000  ekin = 0.239677655585047 |  erot = 0.530065823503499 | epot = -15.412176724445 | etot = -14.6424332453565
865000  ekin = 0.23132088944558 |  erot = 0.541610953534477 | epot = -15.4153650882737 | etot = -14.6424332452936
866000  ekin = 0.223481813676492 |  erot = 0.552927233332167 | epot = -15.4188422922443 | etot = -14.6424332452356
867000  ekin = 0.21667917449216 |  erot = 0.564346499432584 | epot = -15.4234589191109 | etot = -14.6424332451862
868000  ekin = 0.211369750018423 |  erot = 0.576136138939141 | epot = -15.4299391341058 | etot = -14.6424332451482
869000  ekin = 0.207923502308487 |  erot = 0.588478941151825 | epot = -15.4388356885839 | etot = -14.6424332451236
870000  ekin = 0.206606153000579 |  erot = 0.601459626890824 | epot = -15.4504990250046 | etot = -14.6424332451132
871000  ekin = 0.207568796758706 |  erot = 0.615058451106102 | epot = -15.4650604929822 | etot = -14.6424332451174
872000  ekin = 0.210843969902103 |  erot = 0.629151875760072 | epot = -15.4824290907977 | etot = -14.6424332451355
873000  ekin = 0.216347593119445 |  erot = 0.643519970834179 | epot = -15.5023008091198 | etot = -14.6424332451662
874000  ekin = 0.223886305143434 |  erot = 0.657859909731246 | epot = -15.5241794600821 | etot = -14.6424332452075
875000  ekin = 0.233169807553067 |  erot = 0.671804662211551 | epot = -15.5474077150215 | etot = -14.6424332452569
876000  ekin = 0.243827877963456 |  erot = 0.684945735800616 | epot = -15.5712068590756 | etot = -14.6424332453115
877000  ekin = 0.255431632545719 |  erot = 0.696858567355222 | epot = -15.5947234452689 | etot = -14.642433245368
878000  ekin = 0.267518408512945 |  erot = 0.707128927389438 | epot = -15.6170805813253 | etot = -14.6424332454229
879000  ekin = 0.279619300258663 |  erot = 0.715378495721848 | epot = -15.6374310414535 | etot = -14.642433245473
880000  ekin = 0.291287955020082 |  erot = 0.721287639199831 | epot = -15.655008839735 | etot = -14.6424332455151
881000  ekin = 0.302128778464172 |  erot = 0.724613422811349 | epot = -15.6691754468222 | etot = -14.6424332455467
882000  ekin = 0.311822304068348 |  erot = 0.72520106817747 | epot = -15.6794566178122 | etot = -14.6424332455663
883000  ekin = 0.32014524378723 |  erot = 0.722987481104759 | epot = -15.6855659704652 | etot = -14.6424332455732
884000  ekin = 0.326982762198449 |  erot = 0.717996120159773 | epot = -15.6874121279262 | etot = -14.642433245568
885000  ekin = 0.332330882212052 |  erot = 0.710323349672674 | epot = -15.6850874774371 | etot = -14.6424332455524
886000  ekin = 0.336287673330606 |  erot = 0.700117442976865 | epot = -15.6788383618368 | etot = -14.6424332455294
887000  ekin = 0.339032964151287 |  erot = 0.687552454437637 | epot = -15.6690186640915 | etot = -14.6424332455026
888000  ekin = 0.340797654544087 |  erot = 0.672800100946149 | epot = -15.6560310009666 | etot = -14.6424332454764
889000  ekin = 0.341825106158792 |  erot = 0.656003407102967 | epot = -15.6402617587166 | etot = -14.6424332454548
890000  ekin = 0.34232834757507 |  erot = 0.637256013166648 | epot = -15.6220176061832 | etot = -14.6424332454415
891000  ekin = 0.342447730492025 |  erot = 0.616590618571196 | epot = -15.6014715945022 | etot = -14.642433245439
892000  ekin = 0.342214057411764 |  erot = 0.593979026507483 | epot = -15.5786263293677 | etot = -14.6424332454484
893000  ekin = 0.341522004910226 |  erot = 0.569344767734754 | epot = -15.5533000181142 | etot = -14.6424332454692
894000  ekin = 0.340117934117732 |  erot = 0.542587519917767 | epot = -15.5251386995347 | etot = -14.6424332454992
895000  ekin = 0.337605044782691 |  erot = 0.513616778982377 | epot = -15.4936550692997 | etot = -14.6424332455346
896000  ekin = 0.333467462872541 |  erot = 0.482390775176039 | epot = -15.4582914836189 | etot = -14.6424332455703
897000  ekin = 0.327113397522298 |  erot = 0.448955709004864 | epot = -15.4185023521275 | etot = -14.6424332456003
898000  ekin = 0.317936017621705 |  erot = 0.413480165460747 | epot = -15.3738494287008 | etot = -14.6424332456183
899000  ekin = 0.305389123797813 |  erot = 0.376280077470634 | epot = -15.3241024468866 | etot = -14.6424332456181
900000  ekin = 0.289072881398238 |  erot = 0.337830752319679 | epot = -15.2693368793119 | etot = -14.642433245594
901000  ekin = 0.268822686263766 |  erot = 0.298764046956941 | epot = -15.2100199787623 | etot = -14.6424332455416
902000  ekin = 0.244791653973854 |  erot = 0.259850521116686 | epot = -15.147075420549 | etot = -14.6424332454585
903000  ekin = 0.217514571467877 |  erot = 0.2219680472084 | epot = -15.0819158640211 | etot = -14.6424332453448
904000  ekin = 0.187939204416865 |  erot = 0.18605969200996 | epot = -15.016432141631 | etot = -14.6424332452042
905000  ekin = 0.157410847736454 |  erot = 0.153084564880819 | epot = -14.9529286576615 | etot = -14.6424332450442
906000  ekin = 0.127599356275869 |  erot = 0.123965703542124 | epot = -14.8939983046943 | etot = -14.6424332448764
907000  ekin = 0.100365589134273 |  erot = 0.0995389863865968 | epot = -14.8423378202365 | etot = -14.6424332447156
908000  ekin = 0.0775759855969076 |  erot = 0.0805066337373332 | epot = -14.8005158639122 | etot = -14.6424332445779
909000  ekin = 0.060887695004245 |  erot = 0.0673982354544352 | epot = -14.7707191749376 | etot = -14.6424332444789
910000  ekin = 0.051538292298201 |  erot = 0.0605415547689986 | epot = -14.7545130914979 | etot = -14.6424332444307
911000  ekin = 0.0501789452889314 |  erot = 0.0600446989611976 | epot = -14.7526568886895 | etot = -14.6424332444394
912000  ekin = 0.0567846925720761 |  erot = 0.0657906450222932 | epot = -14.7650085820985 | etot = -14.6424332445042
913000  ekin = 0.0706603747930264 |  erot = 0.0774445361866898 | epot = -14.7905381555969 | etot = -14.6424332446172
914000  ekin = 0.0905398584091763 |  erot = 0.0944735694303653 | epot = -14.8274466726047 | etot = -14.6424332447652
915000  ekin = 0.114756144628428 |  erot = 0.116178630207615 | epot = -14.8733680197682 | etot = -14.6424332449321
916000  ekin = 0.141447043402292 |  erot = 0.141736093139118 | epot = -14.9256163816431 | etot = -14.6424332451017
917000  ekin = 0.168758535419861 |  erot = 0.170247440488538 | epot = -14.9814392211683 | etot = -14.6424332452599
918000  ekin = 0.195014913439662 |  erot = 0.200793639368136 | epot = -15.0382417982035 | etot = -14.6424332453957
919000  ekin = 0.218837422083706 |  erot = 0.232490666335444 | epot = -15.0937613339213 | etot = -14.6424332455022
920000  ekin = 0.239206641023781 |  erot = 0.264542267091206 | epot = -15.1461821536913 | etot = -14.6424332455763
921000  ekin = 0.255474577148722 |  erot = 0.29628605080145 | epot = -15.1941938735681 | etot = -14.6424332456179
922000  ekin = 0.26733863121584 |  erot = 0.327229363204498 | epot = -15.2370012400495 | etot = -14.6424332456292
923000  ekin = 0.274791412214288 |  erot = 0.357072039936907 | epot = -15.2742966977651 | etot = -14.6424332456139
924000  ekin = 0.278059017516471 |  erot = 0.385714059432095 | epot = -15.3062063225254 | etot = -14.6424332455768
925000  ekin = 0.277537405168489 |  erot = 0.413247220094928 | epot = -15.3332178707869 | etot = -14.6424332455235
926000  ekin = 0.273733135238468 |  erot = 0.439931173660914 | epot = -15.3560975543588 | etot = -14.6424332454594
927000  ekin = 0.26721185964169 |  erot = 0.466155363881716 | epot = -15.3758004689138 | etot = -14.6424332453904
928000  ekin = 0.258555847536273 |  erot = 0.492389553502083 | epot = -15.3933786463605 | etot = -14.6424332453221
929000  ekin = 0.248330567892114 |  erot = 0.519126582981251 | epot = -15.4098903961332 | etot = -14.6424332452599
930000  ekin = 0.237059747166417 |  erot = 0.546821711631313 | epot = -15.4263147040061 | etot = -14.6424332452084
931000  ekin = 0.225208144806099 |  erot = 0.575833282923054 | epot = -15.4434746729006 | etot = -14.6424332451714
932000  ekin = 0.213171319366128 |  erot = 0.606369490851291 | epot = -15.4619740553693 | etot = -14.6424332451519
933000  ekin = 0.201271722996209 |  erot = 0.638445690378466 | epot = -15.482150658526 | etot = -14.6424332451513
934000  ekin = 0.189760460110485 |  erot = 0.671856006698808 | epot = -15.5040497119792 | etot = -14.6424332451699
935000  ekin = 0.178823941838717 |  erot = 0.706161996587126 | epot = -15.5274191836321 | etot = -14.6424332452063
936000  ekin = 0.168594479115294 |  erot = 0.740699865837039 | epot = -15.5517275902103 | etot = -14.6424332452579
937000  ekin = 0.159163635635195 |  erot = 0.774606336205919 | epot = -15.5762032171622 | etot = -14.6424332453211
938000  ekin = 0.150596971915171 |  erot = 0.806861786796075 | epot = -15.5998920041023 | etot = -14.6424332453911
939000  ekin = 0.142948711632666 |  erot = 0.836347883526529 | epot = -15.6217298406219 | etot = -14.6424332454627
940000  ekin = 0.136274889171384 |  erot = 0.861915676028721 | epot = -15.6406238107305 | etot = -14.6424332455304
941000  ekin = 0.130643703199134 |  erot = 0.882459199120404 | epot = -15.6555361479088 | etot = -14.6424332455893
942000  ekin = 0.126142088160929 |  erot = 0.896989065172066 | epot = -15.6655643989677 | etot = -14.6424332456347
943000  ekin = 0.122877886110378 |  erot = 0.904700444358843 | epot = -15.6700115761325 | etot = -14.6424332456633
944000  ekin = 0.12097740741224 |  erot = 0.905030230236918 | epot = -15.6684408833219 | etot = -14.6424332456728
945000  ekin = 0.120578563690818 |  erot = 0.897699054745715 | epot = -15.660710864099 | etot = -14.6424332456625
946000  ekin = 0.121820103593603 |  erot = 0.882735070928584 | epot = -15.6469884201552 | etot = -14.642433245633
947000  ekin = 0.124827761129181 |  erot = 0.860477935596529 | epot = -15.6277389423121 | etot = -14.6424332455864
948000  ekin = 0.129698334168747 |  erot = 0.831563037038142 | epot = -15.6036946167331 | etot = -14.6424332455262
949000  ekin = 0.136482857558223 |  erot = 0.796887554722467 | epot = -15.5758036577371 | etot = -14.6424332454564
950000  ekin = 0.145170138931244 |  erot = 0.757561255988665 | epot = -15.545164640302 | etot = -14.6424332453821
951000  ekin = 0.155672002995198 |  erot = 0.714845916094193 | epot = -15.5129511643977 | etot = -14.6424332453083
952000  ekin = 0.167811650836288 |  erot = 0.670087833250747 | epot = -15.4803327293271 | etot = -14.64243324524
953000  ekin = 0.181316579471282 |  erot = 0.62464809521251 | epot = -15.4483979198655 | etot = -14.6424332451817
954000  ekin = 0.195817500701168 |  erot = 0.579835080696309 | epot = -15.4180858265343 | etot = -14.6424332451368
955000  ekin = 0.210854606876659 |  erot = 0.536843219769282 | epot = -15.3901310717537 | etot = -14.6424332451077
956000  ekin = 0.225892299837258 |  erot = 0.49670137679197 | epot = -15.3650269217247 | etot = -14.6424332450955
957000  ekin = 0.240343066498473 |  erot = 0.460233438094331 | epot = -15.3430097496925 | etot = -14.6424332450997
958000  ekin = 0.253600493839208 |  erot = 0.428032849894538 | epot = -15.324066588852 | etot = -14.6424332451182
959000  ekin = 0.26508043374811 |  erot = 0.400452005459373 | epot = -15.3079656843552 | etot = -14.6424332451478
960000  ekin = 0.274268068130398 |  erot = 0.377606549450015 | epot = -15.2943078627643 | etot = -14.6424332451839
961000  ekin = 0.280767178003419 |  erot = 0.359393861249926 | epot = -15.2825942844748 | etot = -14.6424332452215
962000  ekin = 0.284346484063279 |  erot = 0.345524198816832 | epot = -15.2723039281355 | etot = -14.6424332452554
963000  ekin = 0.284976816089691 |  erot = 0.3355622323293 | epot = -15.2629722936999 | etot = -14.6424332452809
964000  ekin = 0.282852494247854 |  erot = 0.328975986496892 | epot = -15.2542617260392 | etot = -14.6424332452945
965000  ekin = 0.278391086615428 |  erot = 0.325189577598743 | epot = -15.2460139095086 | etot = -14.6424332452944
966000  ekin = 0.272207924679439 |  erot = 0.323635640150665 | epot = -15.2382768101109 | etot = -14.6424332452808
967000  ekin = 0.265065367870575 |  erot = 0.323803079987219 | epot = -15.2313016931133 | etot = -14.6424332452555
968000  ekin = 0.257801293713888 |  erot = 0.325275872290492 | epot = -15.2255104112269 | etot = -14.6424332452225
969000  ekin = 0.251245661474162 |  erot = 0.327759142575902 | epot = -15.2214380492365 | etot = -14.6424332451864
970000  ekin = 0.24613700899304 |  erot = 0.331089781180773 | epot = -15.2196600353261 | etot = -14.6424332451523
971000  ekin = 0.243051319616021 |  erot = 0.335230325664833 | epot = -15.2207148904054 | etot = -14.6424332451246
972000  ekin = 0.242353409638695 |  erot = 0.340246678804358 | epot = -15.22503333355 | etot = -14.6424332451069
973000  ekin = 0.244176338162489 |  erot = 0.346272190710356 | epot = -15.2328817739745 | etot = -14.6424332451017
974000  ekin = 0.248428661658042 |  erot = 0.353462430361478 | epot = -15.2443243371296 | etot = -14.6424332451101
975000  ekin = 0.254824314803068 |  erot = 0.361946299430202 | epot = -15.2592038593654 | etot = -14.6424332451321
976000  ekin = 0.262926848820545 |  erot = 0.371779749929518 | epot = -15.2771398439171 | etot = -14.642433245167
977000  ekin = 0.27219923533091 |  erot = 0.382908123263806 | epot = -15.297540603808 | etot = -14.6424332452133
978000  ekin = 0.282052066851764 |  erot = 0.395142048097211 | epot = -15.3196273602177 | etot = -14.6424332452688
979000  ekin = 0.291885751914043 |  erot = 0.408150081471225 | epot = -15.3424690787159 | etot = -14.6424332453306
980000  ekin = 0.301125083790016 |  erot = 0.421469125222495 | epot = -15.365027454408 | etot = -14.6424332453955
981000  ekin = 0.309246535917451 |  erot = 0.434531423656212 | epot = -15.3862112050333 | etot = -14.6424332454596
982000  ekin = 0.315799497490911 |  erot = 0.446704965616411 | epot = -15.404937708626 | etot = -14.6424332455187
983000  ekin = 0.32042257322114 |  erot = 0.457342632743475 | epot = -15.4201984515335 | etot = -14.6424332455688
984000  ekin = 0.322855465258551 |  erot = 0.465834622598882 | epot = -15.4311233334638 | etot = -14.6424332456063
985000  ekin = 0.322946302475207 |  erot = 0.47165859097348 | epot = -15.4370381390771 | etot = -14.6424332456284
986000  ekin = 0.320653917805744 |  erot = 0.474422556589946 | epot = -15.4375097200291 | etot = -14.6424332456334
987000  ekin = 0.316044627362153 |  erot = 0.473896755515053 | epot = -15.4323746284979 | etot = -14.6424332456207
988000  ekin = 0.309283477268727 |  erot = 0.470032116944613 | epot = -15.4217488398044 | etot = -14.6424332455911
989000  ekin = 0.300620522169168 |  erot = 0.462964620621354 | epot = -15.4060183883369 | etot = -14.6424332455464
990000  ekin = 0.290373280691188 |  erot = 0.453006262994313 | epot = -15.3858127891748 | etot = -14.6424332454893
991000  ekin = 0.278906915705663 |  erot = 0.440624526218637 | epot = -15.3619646873472 | etot = -14.6424332454229
992000  ekin = 0.266613826415146 |  erot = 0.426413006890641 | epot = -15.3354600786566 | etot = -14.6424332453509
993000  ekin = 0.253894212446534 |  erot = 0.411056197524004 | epot = -15.3073836552473 | etot = -14.6424332452767
994000  ekin = 0.24113883700009 |  erot = 0.395291372387941 | epot = -15.2788634545917 | etot = -14.6424332452037
995000  ekin = 0.22871476890696 |  erot = 0.379870207854789 | epot = -15.2510182218965 | etot = -14.6424332451348
996000  ekin = 0.216954417470376 |  erot = 0.365522282707067 | epot = -15.2249099452499 | etot = -14.6424332450725
997000  ekin = 0.206147766455999 |  erot = 0.352922066138332 | epot = -15.2015030776131 | etot = -14.6424332450188
998000  ekin = 0.196537413157836 |  erot = 0.342660495991062 | epot = -15.1816311541242 | etot = -14.6424332449753
999000  ekin = 0.18831584391307 |  erot = 0.335221830005501 | epot = -15.1659709188615 | etot = -14.642433244943
1000000  ekin = 0.181624323067755 |  erot = 0.330966139649165 | epot = -15.1550237076395 | etot = -14.6424332449226
 1000000  0.013453654   -1.5270261  0.011523695   -1.4973399 -8.4815516e-05 
Loop time of 18.6281 on 4 procs for 1000000 steps with 10 atoms

Performance: 46381.610 tau/day, 53682.419 timesteps/s
99.5% CPU use with 4 MPI tasks x no OpenMP threads

MPI task timing breakdown:
Section |  min time  |  avg time  |  max time  |%varavg| %total
---------------------------------------------------------------
Pair    | 0.50691    | 7.0285     | 12.641     | 197.6 | 37.73
Bond    | 0.081876   | 0.27627    | 0.44175    |  28.5 |  1.48
Neigh   | 0          | 0          | 0          |   0.0 |  0.00
Comm    | 1.7692     | 2.0629     | 2.3468     |  17.0 | 11.07
Output  | 1.8e-05    | 2.625e-05  | 3e-05      |   0.0 |  0.00
Modify  | 0.17309    | 0.88362    | 1.5352     |  58.4 |  4.74
Other   |            | 8.377      |            |       | 44.97

Nlocal:    2.5 ave 5 max 0 min
Histogram: 1 0 1 0 0 0 0 0 1 1
Nghost:    7.5 ave 10 max 5 min
Histogram: 1 0 1 0 0 0 0 0 1 1
Neighs:    18.5 ave 35 max 0 min
Histogram: 1 0 1 0 0 0 0 0 1 1

Total # of neighbors = 74
Ave neighs/atom = 7.4
Ave special neighs/atom = 3.6
Neighbor list builds = 0
Dangerous builds = 0

#write_restart config.${number}.*
Total wall time: 0:00:18
