LAMMPS data file via write_data, version 27 May 2021

10 atoms
4 atom types
8 bonds
1 bond types
10 ellipsoids

-20 20 xlo xhi
-20 20 ylo yhi
-20 20 zlo zhi

Masses

1 3.1575
2 3.1575
3 3.1575
4 3.1575

Atoms # hybrid

1 1 -0.33741452300167507 -0.43708835412476305 0.6450685042019271 1 1 3.7269849963023267 0 0 0
2 2 -0.32142606102826937 -0.7137743037592722 1.1817366147004618 1 1 3.7269849963023267 0 0 0
3 3 -0.130363628207774 -0.9147144801536078 1.62581312195109 1 1 3.7269849963023267 0 0 0
4 4 0.16795127962282844 -0.9808507459807022 2.0894908590909003 1 1 3.7269849963023267 0 0 0
5 1 0.46370423490634166 -0.7803347954883079 2.4251986815515827 1 1 3.7269849963023267 0 0 0
6 4 -0.4462950185476711 0.09062163051035639 2.4668941268777607 2 1 3.7269849963023267 0 0 0
7 1 -0.03377054097560965 0.20979847489755046 2.078208732038921 2 1 3.7269849963023267 0 0 0
8 2 0.3297325391466579 0.17657587120899895 1.7206328374934152 2 1 3.7269849963023267 0 0 0
9 3 0.6063699309305985 0.04682595158675571 1.2335049647817748 2 1 3.7269849963023267 0 0 0
10 4 0.8003979559814726 -0.364393011459011 0.9884025318908612 2 1 3.7269849963023267 0 0 0

Velocities

1 0.320321385294804 -0.13632815939410442 -0.029398292452023418 0.3064009492028237 -0.15808560233691588 0.35878007201886397
2 0.16868594667473025 -0.04950805613064363 0.15811007290373785 -0.07666583909321756 -0.0008074676325318194 -0.21475821019816385
3 -0.22924557018300165 0.08381876748892438 -0.0919832851533896 0.4039387481683193 0.6123610642545824 -0.11063432848545783
4 -0.22186204313310393 0.04952817499985707 -0.0693642101605732 -0.1358248430264938 0.4118493572385653 -0.056529305922687775
5 0.08156431270087049 -0.2564594759800144 0.1724544416027875 0.05439894663158808 0.09338481510384318 0.3205408219238883
6 0.03598698404367743 -0.04868642973674152 0.02860105256592922 0.04007709957283992 -0.317943400069374 0.36438025397586354
7 -0.00822868972307372 0.047514932936351305 -0.027726409420297023 0.18356392696891796 -0.49877294396308003 0.06993313839189567
8 -0.07177147672242379 0.1718272727853115 0.39056151182616994 -0.16728362538690794 -0.47839708820957955 -0.17897249005947627
9 -0.1748638855727651 -0.0781638161351808 0.0560181565271157 -0.28062568580131014 0.2405396522734162 -0.4311598357169048
10 0.18870318272756448 -0.1066780134639517 0.12610657946741227 -0.05740397100183697 0.36748833227892685 0.1498775724372025

Bonds

1 1 1 2
2 1 2 3
3 1 3 4
4 1 4 5
5 1 6 7
6 1 7 8
7 1 8 9
8 1 9 10

Ellipsoids

1 1.173984503142341 1.173984503142341 1.173984503142341 0.9890278201757743 0.01779228232037064 -0.14337734159225404 0.030827642240801516
2 1.173984503142341 1.173984503142341 1.173984503142341 0.939687458852748 0.04174166924055095 -0.023337773785056866 0.338674565089608
3 1.173984503142341 1.173984503142341 1.173984503142341 0.8210113150655425 0.03012140921736572 0.017666019956944813 0.5698429897612057
4 1.173984503142341 1.173984503142341 1.173984503142341 0.6623662858285051 -0.028186343967346823 0.022942552517501488 0.7482981175276918
5 1.173984503142341 1.173984503142341 1.173984503142341 0.3601488726765216 0.0513614985821682 0.0724224158335286 0.9286602067807472
6 1.173984503142341 1.173984503142341 1.173984503142341 0.11941234710084649 0.9244660117493703 -0.35317942248051865 -0.07979711784524246
7 1.173984503142341 1.173984503142341 1.173984503142341 -0.17949125421205164 0.7412884899431119 -0.6379094464220707 0.1065166771202199
8 1.173984503142341 1.173984503142341 1.173984503142341 -0.10483691088405202 0.5508895999584645 -0.8250090480220789 0.06992811634525403
9 1.173984503142341 1.173984503142341 1.173984503142341 0.07777239911646 -0.3724087549185288 0.9103052384821374 -0.1631181963720798
10 1.173984503142341 1.173984503142341 1.173984503142341 0.16279109707978262 0.027148630125149613 0.9849325709665359 -0.0516705065113425
