LAMMPS (2 Jul 2021)
variable number	equal 1
variable ofreq	equal 1000
variable efreq	equal 1000
variable T      equal 0.1
variable rhos   equal 0.2

units lj

dimension 3

newton on

boundary  p p p

atom_style hybrid bond ellipsoid oxdna
WARNING: Atom style hybrid defines both, per-type and per-atom masses; both must be set, but only per-atom masses will be used (../atom_vec_hybrid.cpp:157)
atom_modify sort 0 1.0

# Pair interactions require lists of neighbours to be calculated
neighbor 2.0 bin
neigh_modify every 1 delay 0 check yes

read_data data.duplex1
Reading data file ...
  orthogonal box = (-20.000000 -20.000000 -20.000000) to (20.000000 20.000000 20.000000)
  1 by 2 by 2 MPI processor grid
  reading atoms ...
  10 atoms
  reading velocities ...
  10 velocities
  scanning bonds ...
  1 = max bonds/atom
  10 ellipsoids
  reading bonds ...
  8 bonds
Finding 1-2 1-3 1-4 neighbors ...
  special bond factors lj:    0        0        0       
  special bond factors coul:  0        0        0       
     2 = max # of 1-2 neighbors
     2 = max # of 1-3 neighbors
     2 = max # of 1-4 neighbors
     4 = max # of special neighbors
  special bonds CPU = 0.001 seconds
  read_data CPU = 0.005 seconds

set atom * mass 3.1575
Setting atom values ...
  10 settings made for mass

group all type 1 4
10 atoms in group all

# oxDNA2 bond interactions - FENE backbone
bond_style oxdna2/fene
bond_coeff * 2.0 0.25 0.7564
special_bonds lj 0 1 1
Finding 1-2 1-3 1-4 neighbors ...
  special bond factors lj:    0        1        1       
  special bond factors coul:  0        0        0       
     2 = max # of 1-2 neighbors
     2 = max # of 1-3 neighbors
     2 = max # of 1-4 neighbors
     4 = max # of special neighbors
  special bonds CPU = 0.000 seconds

# oxDNA2 pair interactions
pair_style hybrid/overlay oxdna2/excv oxdna2/stk oxdna2/hbond oxdna2/xstk oxdna2/coaxstk oxdna2/dh
pair_coeff * * oxdna2/excv    2.0 0.7 0.675 2.0 0.515 0.5 2.0 0.33 0.32
pair_coeff * * oxdna2/stk     seqav ${T} 1.3523 2.6717 6.0 0.4 0.9 0.32 0.75 1.3 0 0.8 0.9 0 0.95 0.9 0 0.95 2.0 0.65 2.0 0.65
pair_coeff * * oxdna2/stk     seqav 0.1 1.3523 2.6717 6.0 0.4 0.9 0.32 0.75 1.3 0 0.8 0.9 0 0.95 0.9 0 0.95 2.0 0.65 2.0 0.65
pair_coeff * * oxdna2/hbond   seqav 0.0 8.0 0.4 0.75 0.34 0.7 1.5 0 0.7 1.5 0 0.7 1.5 0 0.7 0.46 3.141592653589793 0.7 4.0 1.5707963267948966 0.45 4.0 1.5707963267948966 0.45
pair_coeff 1 4 oxdna2/hbond   seqav 1.0678 8.0 0.4 0.75 0.34 0.7 1.5 0 0.7 1.5 0 0.7 1.5 0 0.7 0.46 3.141592653589793 0.7 4.0 1.5707963267948966 0.45 4.0 1.5707963267948966 0.45
pair_coeff 2 3 oxdna2/hbond   seqav 1.0678 8.0 0.4 0.75 0.34 0.7 1.5 0 0.7 1.5 0 0.7 1.5 0 0.7 0.46 3.141592653589793 0.7 4.0 1.5707963267948966 0.45 4.0 1.5707963267948966 0.45
pair_coeff * * oxdna2/xstk    47.5 0.575 0.675 0.495 0.655 2.25 0.791592653589793 0.58 1.7 1.0 0.68 1.7 1.0 0.68 1.5 0 0.65 1.7 0.875 0.68 1.7 0.875 0.68
pair_coeff * * oxdna2/coaxstk 58.5 0.4 0.6 0.22 0.58 2.0 2.891592653589793 0.65 1.3 0 0.8 0.9 0 0.95 0.9 0 0.95 40.0 3.116592653589793
pair_coeff * * oxdna2/dh      ${T} ${rhos} 0.815
pair_coeff * * oxdna2/dh      0.1 ${rhos} 0.815
pair_coeff * * oxdna2/dh      0.1 0.2 0.815

# NVE ensemble
fix 1 all nve/asphere
#fix 2 all langevin ${T} ${T} 2.5 457145 angmom 10

timestep 1e-5

#comm_style tiled
fix 3 all balance 1000 1.03 shift xyz 10 1.03
comm_modify cutoff 3.8

compute quat all property/atom quatw quati quatj quatk

compute erot all erotate/asphere
compute ekin all ke
compute epot all pe
variable erot equal c_erot
variable ekin equal c_ekin
variable epot equal c_epot
variable etot equal c_erot+c_ekin+c_epot
fix 5 all print ${efreq} "$(step)  ekin = ${ekin} |  erot = ${erot} | epot = ${epot} | etot = ${etot}" screen yes
fix 5 all print 1000 "$(step)  ekin = ${ekin} |  erot = ${erot} | epot = ${epot} | etot = ${etot}" screen yes

dump out all custom ${ofreq} out.${number}.lammpstrj id mol type x y z ix iy iz vx vy vz c_quat[1] c_quat[2] c_quat[3] c_quat[4] angmomx angmomy angmomz
dump out all custom 1000 out.${number}.lammpstrj id mol type x y z ix iy iz vx vy vz c_quat[1] c_quat[2] c_quat[3] c_quat[4] angmomx angmomy angmomz
dump out all custom 1000 out.1.lammpstrj id mol type x y z ix iy iz vx vy vz c_quat[1] c_quat[2] c_quat[3] c_quat[4] angmomx angmomy angmomz
dump_modify out sort id
dump_modify out format line "%d %d %d  %22.15le %22.15le %22.15le  %d %d %d  %22.15le %22.15le %22.15le  %22.15le %22.15le %22.15le %22.15le  %22.15le %22.15le %22.15le"

run 1000000
Neighbor list info ...
  update every 1 steps, delay 0 steps, check yes
  max neighbors/atom: 2000, page size: 100000
  master list distance cutoff = 5.6389877
  ghost atom cutoff = 5.6389877
  binsize = 2.8194939, bins = 15 15 15
  5 neighbor lists, perpetual/occasional/extra = 5 0 0
  (1) pair oxdna2/excv, perpetual
      attributes: half, newton on
      pair build: half/bin/newton
      stencil: half/bin/3d
      bin: standard
  (2) pair oxdna2/hbond, perpetual, copy from (1)
      attributes: half, newton on
      pair build: copy
      stencil: none
      bin: none
  (3) pair oxdna2/xstk, perpetual, copy from (1)
      attributes: half, newton on
      pair build: copy
      stencil: none
      bin: none
  (4) pair oxdna2/coaxstk, perpetual, copy from (1)
      attributes: half, newton on
      pair build: copy
      stencil: none
      bin: none
  (5) pair oxdna2/dh, perpetual, copy from (1)
      attributes: half, newton on
      pair build: copy
      stencil: none
      bin: none
WARNING: Communication cutoff adjusted to 5.638987723814632 (../comm.cpp:739)
0  ekin = 1.10853632272819 |  erot = 2.81573649976629 | epot = -12.298895791142 | etot = -8.37462296864754
Per MPI rank memory allocation (min/avg/max) = 9.194 | 9.195 | 9.196 Mbytes
Step Temp E_pair E_mol TotEng Press Volume 
       0  0.082113802   -1.3370157   0.10712616   -1.1190359 -6.6192825e-05        64000 
1000  ekin = 1.07640077431763 |  erot = 2.90684392233818 | epot = -12.357867665527 | etot = -8.37462296887121
2000  ekin = 1.05363107794411 |  erot = 2.99414178935848 | epot = -12.4223958364623 | etot = -8.37462296915967
3000  ekin = 1.04083382823095 |  erot = 3.07274362339768 | epot = -12.4882004210899 | etot = -8.37462296946131
4000  ekin = 1.03780093165925 |  erot = 3.13815143503908 | epot = -12.5505753364221 | etot = -8.37462296972372
5000  ekin = 1.04371581655901 |  erot = 3.18681185449848 | epot = -12.6051506409707 | etot = -8.37462296991324
6000  ekin = 1.05738085799297 |  erot = 3.21642353087471 | epot = -12.6484273588875 | etot = -8.37462297001986
7000  ekin = 1.07739394884044 |  erot = 3.22597832036687 | epot = -12.6779952392559 | etot = -8.37462297004859
8000  ekin = 1.1022663747209 |  erot = 3.21563966301724 | epot = -12.6925290077504 | etot = -8.37462297001224
9000  ekin = 1.13051291055329 |  erot = 3.18656247631357 | epot = -12.6916983567815 | etot = -8.37462296991463
10000  ekin = 1.16073704358066 |  erot = 3.14076972913364 | epot = -12.6761297424774 | etot = -8.37462296976313
11000  ekin = 1.19170449380508 |  erot = 3.08098965164645 | epot = -12.6473171150236 | etot = -8.37462296957207
12000  ekin = 1.22238189802732 |  erot = 3.0104025346826 | epot = -12.6074074020774 | etot = -8.37462296936752
13000  ekin = 1.25192691881491 |  erot = 2.9323026187282 | epot = -12.558852506718 | etot = -8.37462296917493
14000  ekin = 1.27963857618761 |  erot = 2.84975156813378 | epot = -12.5040131133431 | etot = -8.37462296902168
15000  ekin = 1.30489368750127 |  erot = 2.76534813925013 | epot = -12.444864795638 | etot = -8.37462296888657
16000  ekin = 1.32709913751465 |  erot = 2.6811818478553 | epot = -12.3829039541517 | etot = -8.3746229687817
17000  ekin = 1.34568132349848 |  erot = 2.59861285690791 | epot = -12.3189171492214 | etot = -8.37462296881501
18000  ekin = 1.36011712604128 |  erot = 2.51802979978581 | epot = -12.2527698947085 | etot = -8.37462296888139
19000  ekin = 1.37000559015645 |  erot = 2.43889875259721 | epot = -12.1835273117077 | etot = -8.37462296895404
20000  ekin = 1.37516683465218 |  erot = 2.36049590954916 | epot = -12.110285713206 | etot = -8.37462296900469
21000  ekin = 1.37575335509461 |  erot = 2.28221618930097 | epot = -12.0325925134032 | etot = -8.37462296900766
22000  ekin = 1.37235802310954 |  erot = 2.20383846967476 | epot = -11.9508194617284 | etot = -8.37462296894406
23000  ekin = 1.36610326249355 |  erot = 2.12570839352806 | epot = -11.8664346248251 | etot = -8.37462296880354
24000  ekin = 1.35869525710697 |  erot = 2.04881568638623 | epot = -11.7821339120793 | etot = -8.37462296858607
25000  ekin = 1.35242255125602 |  erot = 1.97475968439783 | epot = -11.7018052039588 | etot = -8.3746229683049
26000  ekin = 1.35007012440099 |  erot = 1.90560954362747 | epot = -11.6303026360114 | etot = -8.37462296798292
27000  ekin = 1.3547433297047 |  erot = 1.84367629115701 | epot = -11.5730425885209 | etot = -8.37462296765922
28000  ekin = 1.36954369410757 |  erot = 1.79121252282619 | epot = -11.5353791843193 | etot = -8.37462296738557
29000  ekin = 1.39711560919905 |  erot = 1.75006009044063 | epot = -11.5217986668611 | etot = -8.37462296722143
30000  ekin = 1.4391109249101 |  erot = 1.72127833748022 | epot = -11.5350122296155 | etot = -8.37462296722517
31000  ekin = 1.49567630461198 |  erot = 1.70480588615784 | epot = -11.5751051582053 | etot = -8.37462296743552
32000  ekin = 1.56511285114187 |  erot = 1.6992353898336 | epot = -11.6389712088326 | etot = -8.37462296785708
33000  ekin = 1.64385110263249 |  erot = 1.70198396265073 | epot = -11.7204580336835 | etot = -8.37462296840027
34000  ekin = 1.72681002365037 |  erot = 1.709463143449 | epot = -11.8108961361852 | etot = -8.37462296908579
35000  ekin = 1.80812188596385 |  erot = 1.71712980816868 | epot = -11.8998746638723 | etot = -8.37462296973973
36000  ekin = 1.88201893971562 |  erot = 1.72067857993909 | epot = -11.9773204899105 | etot = -8.37462297025577
37000  ekin = 1.94364733336839 |  erot = 1.71680208569971 | epot = -12.0350723896308 | etot = -8.37462297056268
38000  ekin = 1.98961498615658 |  erot = 1.7037090792949 | epot = -12.0679470360926 | etot = -8.37462297064112
39000  ekin = 2.01818359901117 |  erot = 1.6812671128222 | epot = -12.0740736823534 | etot = -8.37462297052003
40000  ekin = 2.02914332282587 |  erot = 1.65077260628056 | epot = -12.054538899364 | etot = -8.37462297025758
41000  ekin = 2.02349103018124 |  erot = 1.6144826235111 | epot = -12.0125966236109 | etot = -8.37462296991857
42000  ekin = 2.00304412554535 |  erot = 1.57509121259575 | epot = -11.9527583076989 | etot = -8.3746229695578
43000  ekin = 1.97008148028979 |  erot = 1.53529510620986 | epot = -11.8799995557137 | etot = -8.37462296921407
44000  ekin = 1.92705109571092 |  erot = 1.49750726070826 | epot = -11.7991813253589 | etot = -8.37462296893973
45000  ekin = 1.87634986385881 |  erot = 1.46354390598901 | epot = -11.714516738533 | etot = -8.37462296868513
46000  ekin = 1.82016797429767 |  erot = 1.43491031451218 | epot = -11.6297012572907 | etot = -8.37462296848089
47000  ekin = 1.76039182009028 |  erot = 1.41286016407 | epot = -11.5478749524838 | etot = -8.37462296832354
48000  ekin = 1.69856949274782 |  erot = 1.39838217522424 | epot = -11.4715746361764 | etot = -8.37462296820431
49000  ekin = 1.63593954988751 |  erot = 1.39228918140577 | epot = -11.4028516994045 | etot = -8.37462296811125
50000  ekin = 1.573518015373 |  erot = 1.39530041169494 | epot = -11.3434413950978 | etot = -8.37462296802981
51000  ekin = 1.51222872476358 |  erot = 1.4081065034094 | epot = -11.2949581961197 | etot = -8.37462296794667
52000  ekin = 1.45305245526496 |  erot = 1.43140550730924 | epot = -11.2590809304253 | etot = -8.37462296785112
53000  ekin = 1.39716366086923 |  erot = 1.4658956749353 | epot = -11.2376823035407 | etot = -8.37462296773616
54000  ekin = 1.34602153837051 |  erot = 1.51222067984185 | epot = -11.2328651858293 | etot = -8.37462296761691
55000  ekin = 1.30138436197336 |  erot = 1.57077970891815 | epot = -11.2467870384001 | etot = -8.37462296750862
56000  ekin = 1.26522647192236 |  erot = 1.64151101613076 | epot = -11.2813604554934 | etot = -8.37462296744032
57000  ekin = 1.23956119808443 |  erot = 1.7236309263303 | epot = -11.3378150918587 | etot = -8.37462296744395
58000  ekin = 1.22620283906733 |  erot = 1.81539828229232 | epot = -11.4162240889028 | etot = -8.37462296754315
59000  ekin = 1.22652758768657 |  erot = 1.9140038119354 | epot = -11.5151543673671 | etot = -8.37462296774508
60000  ekin = 1.24129579501625 |  erot = 2.01564970996732 | epot = -11.6315684730208 | etot = -8.3746229680372
61000  ekin = 1.27057003505326 |  erot = 2.11581304358659 | epot = -11.7610060470469 | etot = -8.374622968407
62000  ekin = 1.31372115356101 |  erot = 2.20955642503236 | epot = -11.8979005473865 | etot = -8.37462296879312
63000  ekin = 1.36947667734272 |  erot = 2.29224896410223 | epot = -12.0363486106148 | etot = -8.37462296916984
64000  ekin = 1.43596184816382 |  erot = 2.35998108781796 | epot = -12.1705659055146 | etot = -8.37462296953284
65000  ekin = 1.5108757081499 |  erot = 2.40947275989084 | epot = -12.2949714378725 | etot = -8.37462296983178
66000  ekin = 1.59162978656359 |  erot = 2.43872351537726 | epot = -12.4049762719856 | etot = -8.37462297004473
67000  ekin = 1.67546349074597 |  erot = 2.44726186999247 | epot = -12.4973483309001 | etot = -8.3746229701617
68000  ekin = 1.75953613825231 |  erot = 2.43621057967589 | epot = -12.5703696881153 | etot = -8.37462297018708
69000  ekin = 1.84098201456594 |  erot = 2.40815676459637 | epot = -12.6237617493034 | etot = -8.37462297014108
70000  ekin = 1.9169281052228 |  erot = 2.36682660300827 | epot = -12.6583776782864 | etot = -8.37462297005529
71000  ekin = 1.9844938047305 |  erot = 2.31661131420484 | epot = -12.6757280888521 | etot = -8.37462296991679
72000  ekin = 2.04081287193519 |  erot = 2.26215174487669 | epot = -12.6775875867421 | etot = -8.37462296993018
73000  ekin = 2.08263291328363 |  erot = 2.2074336386418 | epot = -12.6646895218712 | etot = -8.3746229699458
74000  ekin = 2.1069858415085 |  erot = 2.15544421118363 | epot = -12.6370530226939 | etot = -8.3746229700018
75000  ekin = 2.11136525908731 |  erot = 2.1081694067506 | epot = -12.5941576359031 | etot = -8.37462297006514
76000  ekin = 2.09405873141411 |  erot = 2.06669472630762 | epot = -12.5353764278106 | etot = -8.37462297008889
77000  ekin = 2.05455135347917 |  erot = 2.03147933575646 | epot = -12.4606536592619 | etot = -8.37462297002628
78000  ekin = 1.99386684227705 |  erot = 2.0026817101331 | epot = -12.3711715222579 | etot = -8.37462296984776
79000  ekin = 1.91474155283397 |  erot = 1.98040758803654 | epot = -12.2697721104225 | etot = -8.37462296955195
80000  ekin = 1.82155513477577 |  erot = 1.9647973478023 | epot = -12.1609754517452 | etot = -8.3746229691671
81000  ekin = 1.71999782481694 |  erot = 1.95595086125355 | epot = -12.050571654813 | etot = -8.37462296874256
82000  ekin = 1.61651478139498 |  erot = 1.95375810375277 | epot = -11.9448958534852 | etot = -8.37462296833741
83000  ekin = 1.51761134750079 |  erot = 1.9577277486065 | epot = -11.8499620641155 | etot = -8.37462296800824
84000  ekin = 1.42912416355166 |  erot = 1.96688313409217 | epot = -11.7706302654419 | etot = -8.37462296779805
85000  ekin = 1.35556895555397 |  erot = 1.97976517498703 | epot = -11.7099570982739 | etot = -8.37462296773285
86000  ekin = 1.29966988136848 |  erot = 1.99452593271721 | epot = -11.6688187819006 | etot = -8.37462296781488
87000  ekin = 1.26213747948969 |  erot = 2.00910214170812 | epot = -11.6458625892977 | etot = -8.37462296809987
88000  ekin = 1.24134500163876 |  erot = 2.02122064243495 | epot = -11.6371886124845 | etot = -8.37462296841076
89000  ekin = 1.23421644947628 |  erot = 2.02900530500622 | epot = -11.6378447232196 | etot = -8.37462296873706
90000  ekin = 1.23690604243587 |  erot = 2.03136372571867 | epot = -11.6428927371715 | etot = -8.374622969017
91000  ekin = 1.24531053049766 |  erot = 2.02816188261866 | epot = -11.6480953823212 | etot = -8.37462296920492
92000  ekin = 1.25564394227081 |  erot = 2.02032873397354 | epot = -11.6505956455253 | etot = -8.37462296928095
93000  ekin = 1.2648401881744 |  erot = 2.00975004471106 | epot = -11.6492132021397 | etot = -8.3746229692542
94000  ekin = 1.27076152680855 |  erot = 1.99896253062564 | epot = -11.6443470265802 | etot = -8.374622969146
95000  ekin = 1.27224696211196 |  erot = 1.99076889271348 | epot = -11.6376388238182 | etot = -8.37462296899275
96000  ekin = 1.26905385172933 |  erot = 1.9877690850581 | epot = -11.6314459056159 | etot = -8.3746229688285
97000  ekin = 1.26173398384364 |  erot = 1.99196117307494 | epot = -11.6283181256016 | etot = -8.37462296868301
98000  ekin = 1.25146122958159 |  erot = 2.00445279489008 | epot = -11.6305369930525 | etot = -8.37462296858079
99000  ekin = 1.23981039935426 |  erot = 2.02529911459878 | epot = -11.6397324824947 | etot = -8.37462296854163
100000  ekin = 1.22848889431703 |  erot = 2.05346079777948 | epot = -11.6565726606772 | etot = -8.37462296858067
101000  ekin = 1.21904296342442 |  erot = 2.08686922543173 | epot = -11.6805351575619 | etot = -8.37462296870573
102000  ekin = 1.21258708443156 |  erot = 2.12259257652706 | epot = -11.7098026298707 | etot = -8.37462296891212
103000  ekin = 1.20962138127621 |  erot = 2.15710417867594 | epot = -11.7413485291302 | etot = -8.37462296917809
104000  ekin = 1.2099943506476 |  erot = 2.18665201736537 | epot = -11.7712693374782 | etot = -8.37462296946522
105000  ekin = 1.21303379771957 |  erot = 2.20771017012394 | epot = -11.7953669375663 | etot = -8.37462296972275
106000  ekin = 1.21781939160547 |  erot = 2.21746426398226 | epot = -11.809906625485 | etot = -8.37462296989724
107000  ekin = 1.22352668485517 |  erot = 2.21425769941226 | epot = -11.8124073542123 | etot = -8.37462296994488
108000  ekin = 1.2297537161671 |  erot = 2.19791821277335 | epot = -11.8022948987808 | etot = -8.37462296984036
109000  ekin = 1.23675326669537 |  erot = 2.16990174523003 | epot = -11.7812779815078 | etot = -8.37462296958244
110000  ekin = 1.24552660594299 |  erot = 2.13322593016602 | epot = -11.7533755053018 | etot = -8.37462296919279
111000  ekin = 1.2577699492818 |  erot = 2.09220325002891 | epot = -11.7245961680231 | etot = -8.37462296871236
112000  ekin = 1.27568807280463 |  erot = 2.05200951342218 | epot = -11.7023205544233 | etot = -8.37462296819652
113000  ekin = 1.30169744977554 |  erot = 2.01813224570283 | epot = -11.6944526631891 | etot = -8.37462296771077
114000  ekin = 1.33804251858946 |  erot = 1.99574344242906 | epot = -11.7084089283445 | etot = -8.37462296732602
115000  ekin = 1.38647431929538 |  erot = 1.98903581447797 | epot = -11.7501331008331 | etot = -8.37462296705971
116000  ekin = 1.44876446583397 |  erot = 2.00047074173041 | epot = -11.8238581746945 | etot = -8.37462296713016
117000  ekin = 1.52378581535561 |  erot = 2.03044339408211 | epot = -11.9288521768883 | etot = -8.37462296745063
118000  ekin = 1.6084059418419 |  erot = 2.07707436259023 | epot = -12.0601032724452 | etot = -8.37462296801304
119000  ekin = 1.69804077960493 |  erot = 2.13624566567636 | epot = -12.2089094140527 | etot = -8.37462296877144
120000  ekin = 1.78696647862287 |  erot = 2.20199105617499 | epot = -12.363580504444 | etot = -8.37462296964609
121000  ekin = 1.86883508536314 |  erot = 2.2671883740786 | epot = -12.5106464299765 | etot = -8.37462297053475
122000  ekin = 1.93731263285359 |  erot = 2.32446087034981 | epot = -12.6363964745337 | etot = -8.3746229713303
123000  ekin = 1.9867358794579 |  erot = 2.36714489985536 | epot = -12.7285037512507 | etot = -8.37462297193745
124000  ekin = 2.01268857483492 |  erot = 2.39015976226602 | epot = -12.7774713093892 | etot = -8.37462297228827
125000  ekin = 2.01242153120629 |  erot = 2.39062925356834 | epot = -12.7776737571262 | etot = -8.37462297235156
126000  ekin = 1.9850729032809 |  erot = 2.36815351492914 | epot = -12.7278493903454 | etot = -8.37462297213533
127000  ekin = 1.93167931643428 |  erot = 2.32470375634654 | epot = -12.6310060444623 | etot = -8.37462297168151
128000  ekin = 1.85500076916896 |  erot = 2.26419178968088 | epot = -12.4938155299042 | etot = -8.37462297105431
129000  ekin = 1.75920795598156 |  erot = 2.19182812292651 | epot = -12.3256590492353 | etot = -8.37462297032725
130000  ekin = 1.64949415840205 |  erot = 2.11340935726388 | epot = -12.1375264852353 | etot = -8.37462296956937
131000  ekin = 1.53167143066935 |  erot = 2.03466319554045 | epot = -11.9409575950479 | etot = -8.37462296883812
132000  ekin = 1.41179399813997 |  erot = 1.96073697301965 | epot = -11.7471539393349 | etot = -8.37462296817531
133000  ekin = 1.29582771791057 |  erot = 1.89586175533339 | epot = -11.5663124408529 | etot = -8.37462296760899
134000  ekin = 1.18933366770496 |  erot = 1.84313053331046 | epot = -11.4070871682759 | etot = -8.37462296726045
135000  ekin = 1.09698845763054 |  erot = 1.80418246558968 | epot = -11.2757938901597 | etot = -8.37462296693951
136000  ekin = 1.02270904454078 |  erot = 1.7798919585222 | epot = -11.1772239698133 | etot = -8.37462296675035
137000  ekin = 0.969402888595009 |  erot = 1.77022137974263 | epot = -11.1142472350344 | etot = -8.37462296669672
138000  ekin = 0.938766242876245 |  erot = 1.77423425797214 | epot = -11.0876234676246 | etot = -8.37462296677622
139000  ekin = 0.931209536918429 |  erot = 1.79022284403589 | epot = -11.0960553479291 | etot = -8.37462296697477
140000  ekin = 0.945902360873547 |  erot = 1.81588277986749 | epot = -11.1364081080066 | etot = -8.37462296726554
141000  ekin = 0.980951010694929 |  erot = 1.84854552854054 | epot = -11.2041195068457 | etot = -8.37462296761028
142000  ekin = 1.03368854660408 |  erot = 1.88546172258946 | epot = -11.2937732371591 | etot = -8.37462296796555
143000  ekin = 1.10102464558782 |  erot = 1.92410215903321 | epot = -11.3997497729122 | etot = -8.37462296829122
144000  ekin = 1.17978371180456 |  erot = 1.96241851789384 | epot = -11.5168251982587 | etot = -8.37462296856033
145000  ekin = 1.26696389973261 |  erot = 1.99907135517311 | epot = -11.6406582236455 | etot = -8.37462296873974
146000  ekin = 1.35987698631718 |  erot = 2.03338468070467 | epot = -11.7678846359143 | etot = -8.37462296889242
147000  ekin = 1.45616095202976 |  erot = 2.06502561999209 | epot = -11.8958095410383 | etot = -8.3746229690165
148000  ekin = 1.5536968549109 |  erot = 2.09388144715385 | epot = -12.022201271207 | etot = -8.37462296914221
149000  ekin = 1.65047924324436 |  erot = 2.11976671620332 | epot = -12.1448689287432 | etot = -8.37462296929551
150000  ekin = 1.74448791629845 |  erot = 2.1421786790356 | epot = -12.2612895648256 | etot = -8.37462296949154
151000  ekin = 1.83359650490145 |  erot = 2.16016451670444 | epot = -12.3683839913399 | etot = -8.37462296973401
152000  ekin = 1.91553611044667 |  erot = 2.17231614291472 | epot = -12.4624752233732 | etot = -8.37462297001185
153000  ekin = 1.98791755611547 |  erot = 2.17689716712716 | epot = -12.539437693548 | etot = -8.37462297030538
154000  ekin = 2.04830722999057 |  erot = 2.17205709329794 | epot = -12.5949872938781 | etot = -8.37462297058956
155000  ekin = 2.09434778140688 |  erot = 2.15608363214667 | epot = -12.6250543843906 | etot = -8.37462297083706
156000  ekin = 2.12391577783721 |  erot = 2.12765251039857 | epot = -12.6261912592565 | etot = -8.37462297102076
157000  ekin = 2.1353100469757 |  erot = 2.0860457491324 | epot = -12.5959787672229 | etot = -8.37462297111477
158000  ekin = 2.12746223168626 |  erot = 2.03132820631866 | epot = -12.5334134090999 | etot = -8.37462297109495
159000  ekin = 2.10015103339247 |  erot = 1.96448478929011 | epot = -12.4392587936244 | etot = -8.37462297094182
160000  ekin = 2.05418416063722 |  erot = 1.88751839461952 | epot = -12.3163255258997 | etot = -8.37462297064294
161000  ekin = 1.99149541371344 |  erot = 1.80350457154665 | epot = -12.1696229554607 | etot = -8.37462297020065
162000  ekin = 1.91510266104762 |  erot = 1.71656915682389 | epot = -12.0062947875077 | etot = -8.37462296963622
163000  ekin = 1.82889680262297 |  erot = 1.63175766791089 | epot = -11.8352774395238 | etot = -8.37462296898997
164000  ekin = 1.73727850175433 |  erot = 1.5547745055745 | epot = -11.6666759756467 | etot = -8.37462296831787
165000  ekin = 1.6447087543994 |  erot = 1.49159241029582 | epot = -11.5109241323764 | etot = -8.3746229676812
166000  ekin = 1.55526715399666 |  erot = 1.44796523954041 | epot = -11.3778553606752 | etot = -8.3746229671381
167000  ekin = 1.47230568197398 |  erot = 1.42890789301304 | epot = -11.27583654172 | etot = -8.374622966733
168000  ekin = 1.39825202215371 |  erot = 1.4382252321603 | epot = -11.2111002208047 | etot = -8.37462296649065
169000  ekin = 1.3345719619018 |  erot = 1.4781674025412 | epot = -11.187362330859 | etot = -8.37462296641595
170000  ekin = 1.28186404086337 |  erot = 1.5492593913673 | epot = -11.2057463987267 | etot = -8.37462296649605
171000  ekin = 1.24010532837069 |  erot = 1.65031493319924 | epot = -11.2650432281445 | etot = -8.37462296657455
172000  ekin = 1.20973432363927 |  erot = 1.77850842430643 | epot = -11.3628657149161 | etot = -8.37462296697039
173000  ekin = 1.18958106737854 |  erot = 1.92939472681626 | epot = -11.4935987616323 | etot = -8.37462296743751
174000  ekin = 1.17780375666815 |  erot = 2.09752621801757 | epot = -11.6499529426364 | etot = -8.37462296795064
175000  ekin = 1.17250284106946 |  erot = 2.27682305293081 | epot = -11.8239488624896 | etot = -8.37462296848935
176000  ekin = 1.17177313417523 |  erot = 2.46086230703696 | epot = -12.0072584102478 | etot = -8.37462296903563
177000  ekin = 1.17372471418906 |  erot = 2.64315812275385 | epot = -12.1915058065132 | etot = -8.37462296957025
178000  ekin = 1.17649725816085 |  erot = 2.81745378599582 | epot = -12.3685740142269 | etot = -8.37462297007019
179000  ekin = 1.17828959842952 |  erot = 2.97803885665143 | epot = -12.5309514255899 | etot = -8.37462297050891
180000  ekin = 1.17741681901028 |  erot = 3.12008209304906 | epot = -12.6721218829181 | etot = -8.37462297085878
181000  ekin = 1.1723947928011 |  erot = 3.23994177497995 | epot = -12.7869595388777 | etot = -8.37462297109667
182000  ekin = 1.1620416167421 |  erot = 3.33528346670201 | epot = -12.871948054926 | etot = -8.37462297148189
183000  ekin = 1.14544700201208 |  erot = 3.40346825728336 | epot = -12.9235382308529 | etot = -8.37462297155747
184000  ekin = 1.12187454429775 |  erot = 3.44382690739269 | epot = -12.9403244231948 | etot = -8.3746229715044
185000  ekin = 1.09113819766591 |  erot = 3.45752421108418 | epot = -12.9232853800837 | etot = -8.37462297133365
186000  ekin = 1.05375177637583 |  erot = 3.4468126024859 | epot = -12.8751873499238 | etot = -8.37462297106209
187000  ekin = 1.01100426926478 |  erot = 3.41470705189775 | epot = -12.8003342918715 | etot = -8.37462297070899
188000  ekin = 0.964980950088774 |  erot = 3.36467106156949 | epot = -12.7042749819532 | etot = -8.37462297029496
189000  ekin = 0.918502012521176 |  erot = 3.30025095733366 | epot = -12.5933759397282 | etot = -8.37462296987338
190000  ekin = 0.874955375625786 |  erot = 3.22483721777298 | epot = -12.4744155628192 | etot = -8.37462296942041
191000  ekin = 0.838012694189986 |  erot = 3.14179385100332 | epot = -12.3544295141829 | etot = -8.37462296898962
192000  ekin = 0.811264586710963 |  erot = 3.05421641257493 | epot = -12.2401039678973 | etot = -8.37462296861143
193000  ekin = 0.797833231457362 |  erot = 2.96485918306436 | epot = -12.1373153828321 | etot = -8.37462296831036
194000  ekin = 0.800032366300468 |  erot = 2.87610608236725 | epot = -12.0507614167682 | etot = -8.37462296810044
195000  ekin = 0.819137512919597 |  erot = 2.78998115247884 | epot = -11.9837416333826 | etot = -8.37462296798416
196000  ekin = 0.855301818719039 |  erot = 2.7081876552627 | epot = -11.9381124419349 | etot = -8.37462296795316
197000  ekin = 0.907617485284263 |  erot = 2.6321557447555 | epot = -11.9143961980329 | etot = -8.37462296799313
198000  ekin = 0.974291517583769 |  erot = 2.56307623018493 | epot = -11.911990715856 | etot = -8.37462296808732
199000  ekin = 1.0528865187871 |  erot = 2.50190471363201 | epot = -11.9294142006398 | etot = -8.3746229682207
200000  ekin = 1.14057530731152 |  erot = 2.44933274089605 | epot = -11.9645310165894 | etot = -8.37462296838183
201000  ekin = 1.23436945655699 |  erot = 2.4057357740475 | epot = -12.0147281991679 | etot = -8.37462296856337
202000  ekin = 1.33129982084388 |  erot = 2.37111655194196 | epot = -12.0770393415457 | etot = -8.37462296875989
203000  ekin = 1.42854451444347 |  erot = 2.34506402190598 | epot = -12.148231505317 | etot = -8.37462296896754
204000  ekin = 1.52351160571773 |  erot = 2.32674290434286 | epot = -12.224877479242 | etot = -8.37462296918144
205000  ekin = 1.61388837059984 |  erot = 2.31491995505487 | epot = -12.3034312950507 | etot = -8.37462296939603
206000  ekin = 1.69766775260718 |  erot = 2.3080250040048 | epot = -12.3803157262167 | etot = -8.37462296960474
207000  ekin = 1.77315874687775 |  erot = 2.30423562983907 | epot = -12.4520173465201 | etot = -8.3746229698033
208000  ekin = 1.83898325555867 |  erot = 2.30156289475869 | epot = -12.515169120302 | etot = -8.37462296998464
209000  ekin = 1.89406065254616 |  erot = 2.29797193080379 | epot = -12.5666555534941 | etot = -8.37462297014415
210000  ekin = 1.93758171355925 |  erot = 2.29149245614576 | epot = -12.6036971399825 | etot = -8.37462297027751
211000  ekin = 1.96897499678795 |  erot = 2.28032999988906 | epot = -12.6239279670577 | etot = -8.37462297038067
212000  ekin = 1.98787057423956 |  erot = 2.26297816329984 | epot = -12.6254717079894 | etot = -8.37462297044996
213000  ekin = 1.99406615310661 |  erot = 2.23834847729583 | epot = -12.6070376008829 | etot = -8.3746229704805
214000  ekin = 1.98749971048357 |  erot = 2.20579329600858 | epot = -12.5679159769726 | etot = -8.37462297048041
215000  ekin = 1.96823269345748 |  erot = 2.16512069835616 | epot = -12.5079763622598 | etot = -8.37462297044615
216000  ekin = 1.93645036858827 |  erot = 2.11663233289607 | epot = -12.4277056718664 | etot = -8.37462297038201
217000  ekin = 1.89249565101184 |  erot = 2.06105227365565 | epot = -12.3281708949563 | etot = -8.37462297028879
218000  ekin = 1.83696296101026 |  erot = 1.99944931813373 | epot = -12.2110352493004 | etot = -8.37462297015639
219000  ekin = 1.77087997200072 |  erot = 1.93321768349764 | epot = -12.0787206254579 | etot = -8.37462296995955
220000  ekin = 1.69598414200906 |  erot = 1.86416918368618 | epot = -11.9347762953552 | etot = -8.37462296965996
221000  ekin = 1.61504938765182 |  erot = 1.79472971030261 | epot = -11.7844020671758 | etot = -8.37462296922139
222000  ekin = 1.53214607792093 |  erot = 1.72813764736988 | epot = -11.6349066939258 | etot = -8.37462296863498
223000  ekin = 1.4526624088324 |  erot = 1.66846349300119 | epot = -11.4957488697767 | etot = -8.37462296794309
224000  ekin = 1.38293292450221 |  erot = 1.6202792722125 | epot = -11.3778351639601 | etot = -8.37462296724537
225000  ekin = 1.32944348952842 |  erot = 1.58793473617121 | epot = -11.2920011923814 | etot = -8.37462296668181
226000  ekin = 1.29777350141066 |  erot = 1.57457480049478 | epot = -11.2469712682745 | etot = -8.3746229663691
227000  ekin = 1.29158711545539 |  erot = 1.58136206120086 | epot = -11.24757214304 | etot = -8.37462296638379
228000  ekin = 1.31199160550521 |  erot = 1.60705168356011 | epot = -11.2936662557515 | etot = -8.37462296668622
229000  ekin = 1.35720775781596 |  erot = 1.64872427968725 | epot = -11.3805550048103 | etot = -8.37462296730712
230000  ekin = 1.42320705813339 |  erot = 1.70117239435445 | epot = -11.499002420542 | etot = -8.37462296805411
231000  ekin = 1.50467169677581 |  erot = 1.75808746579057 | epot = -11.6373821313689 | etot = -8.37462296880256
232000  ekin = 1.59576180204782 |  erot = 1.81345446216766 | epot = -11.7838392336738 | etot = -8.37462296945837
233000  ekin = 1.69077156764762 |  erot = 1.86233770608592 | epot = -11.9277322437048 | etot = -8.3746229699713
234000  ekin = 1.78453671679902 |  erot = 1.90129507954651 | epot = -12.0604547666786 | etot = -8.37462297033305
235000  ekin = 1.87261122258967 |  erot = 1.9284220717117 | epot = -12.1756562648638 | etot = -8.37462297056238
236000  ekin = 1.95129507586051 |  erot = 1.94312673772466 | epot = -12.269044784275 | etot = -8.37462297068982
237000  ekin = 2.01688127570893 |  erot = 1.94587838549638 | epot = -12.3373826321085 | etot = -8.37462297090321
238000  ekin = 2.06554471096635 |  erot = 1.93754713481384 | epot = -12.3777148167605 | etot = -8.37462297098031
239000  ekin = 2.09498833917104 |  erot = 1.91896908743933 | epot = -12.3885803976059 | etot = -8.37462297099549
240000  ekin = 2.10387887335863 |  erot = 1.89114067893478 | epot = -12.3696425232248 | etot = -8.37462297093134
241000  ekin = 2.09205058134751 |  erot = 1.85524232773722 | epot = -12.3219158798517 | etot = -8.37462297076695
242000  ekin = 2.06070692356717 |  erot = 1.81270484104131 | epot = -12.2480347350926 | etot = -8.37462297048416
243000  ekin = 2.01255526288379 |  erot = 1.76529169809285 | epot = -12.1524699310582 | etot = -8.37462297008152
244000  ekin = 1.95178746173543 |  erot = 1.71512317980746 | epot = -12.0415336111125 | etot = -8.37462296956963
245000  ekin = 1.88387514784693 |  erot = 1.66462101119872 | epot = -11.923119128034 | etot = -8.37462296898834
246000  ekin = 1.81512558267768 |  erot = 1.61637080971493 | epot = -11.8061193607913 | etot = -8.37462296839864
247000  ekin = 1.75197548737583 |  erot = 1.57289129038632 | epot = -11.6994897456361 | etot = -8.37462296787399
248000  ekin = 1.70016015194915 |  erot = 1.53636641743628 | epot = -11.6111495368723 | etot = -8.37462296748684
249000  ekin = 1.66404391454307 |  erot = 1.50839677555145 | epot = -11.5470636572528 | etot = -8.37462296715831
250000  ekin = 1.64635032469237 |  erot = 1.48977166427888 | epot = -11.5107449561759 | etot = -8.37462296720461
251000  ekin = 1.64670868822424 |  erot = 1.48021150770204 | epot = -11.501543163354 | etot = -8.37462296742773
252000  ekin = 1.66264181464398 |  erot = 1.47871062656233 | epot = -11.5159754089783 | etot = -8.37462296777201
253000  ekin = 1.69027564040418 |  erot = 1.4838006950994 | epot = -11.5486993036748 | etot = -8.37462296817121
254000  ekin = 1.72505301291753 |  erot = 1.49382397147149 | epot = -11.5934999529542 | etot = -8.37462296856521
255000  ekin = 1.76239471231559 |  erot = 1.50720813837951 | epot = -11.6442258196102 | etot = -8.3746229689151
256000  ekin = 1.79816893498624 |  erot = 1.52259254469701 | epot = -11.6953844488847 | etot = -8.37462296920143
257000  ekin = 1.8289509523976 |  erot = 1.53887801863831 | epot = -11.7424519404547 | etot = -8.37462296941884
258000  ekin = 1.85212386739641 |  erot = 1.55528591409732 | epot = -11.7820327510617 | etot = -8.374622969568
259000  ekin = 1.86588413888306 |  erot = 1.57137656836521 | epot = -11.8118836768987 | etot = -8.3746229696504
260000  ekin = 1.86922537289967 |  erot = 1.58707491263371 | epot = -11.8309232551855 | etot = -8.3746229696521
261000  ekin = 1.8619474577806 |  erot = 1.60277606186344 | epot = -11.8393464893232 | etot = -8.37462296967919
262000  ekin = 1.84441202421402 |  erot = 1.61874454524364 | epot = -11.8377795390081 | etot = -8.37462296955045
263000  ekin = 1.81775632997711 |  erot = 1.63584439963944 | epot = -11.8282236989401 | etot = -8.37462296932356
264000  ekin = 1.78414336143547 |  erot = 1.65581672859451 | epot = -11.8145830590346 | etot = -8.37462296900464
265000  ekin = 1.74659811333744 |  erot = 1.68088156362845 | epot = -11.802102645597 | etot = -8.37462296863111
266000  ekin = 1.70875551588653 |  erot = 1.71332387538146 | epot = -11.7967023595417 | etot = -8.37462296827373
267000  ekin = 1.67443624978621 |  erot = 1.75501089284554 | epot = -11.8040701106192 | etot = -8.37462296798742
268000  ekin = 1.64712713207545 |  erot = 1.80695733277743 | epot = -11.8287074326934 | etot = -8.37462296784051
269000  ekin = 1.62949021142679 |  erot = 1.86883267567257 | epot = -11.872945854971 | etot = -8.37462296787168
270000  ekin = 1.6228515992244 |  erot = 1.9387281089436 | epot = -11.9362026762884 | etot = -8.37462296812045
271000  ekin = 1.62688631043695 |  erot = 2.01317767222122 | epot = -12.0146869512055 | etot = -8.37462296854733
272000  ekin = 1.63981668010343 |  erot = 2.08746423747733 | epot = -12.1019038866655 | etot = -8.37462296908471
273000  ekin = 1.6588009116894 |  erot = 2.15626799363862 | epot = -12.1896918749687 | etot = -8.37462296964073
274000  ekin = 1.68050753849828 |  erot = 2.21448722130979 | epot = -12.2696177299294 | etot = -8.3746229701213
275000  ekin = 1.70172643739711 |  erot = 2.25805265702313 | epot = -12.3344020648714 | etot = -8.3746229704512
276000  ekin = 1.71987527696088 |  erot = 2.28456562449038 | epot = -12.3790638720389 | etot = -8.37462297058762
277000  ekin = 1.73331269261531 |  erot = 2.2936490566393 | epot = -12.401584719777 | etot = -8.37462297052239
278000  ekin = 1.74143735013694 |  erot = 2.28698125839038 | epot = -12.403041578799 | etot = -8.37462297027172
279000  ekin = 1.74460802870554 |  erot = 2.26806682992404 | epot = -12.3872978285227 | etot = -8.37462296989315
280000  ekin = 1.74394008412412 |  erot = 2.24171314052056 | epot = -12.3602761940827 | etot = -8.37462296943797
281000  ekin = 1.74088698058156 |  erot = 2.21312908436397 | epot = -12.328639034053 | etot = -8.37462296910752
282000  ekin = 1.73669656458684 |  erot = 2.18704204449651 | epot = -12.2983615778776 | etot = -8.3746229687942
283000  ekin = 1.73229007371573 |  erot = 2.1674467962291 | epot = -12.2743598385779 | etot = -8.37462296863304
284000  ekin = 1.72792109204508 |  erot = 2.15675164213785 | epot = -12.2592957028506 | etot = -8.37462296866769
285000  ekin = 1.72297480902827 |  erot = 2.15537559427311 | epot = -12.2529733721988 | etot = -8.37462296889743
286000  ekin = 1.71598432453 |  erot = 2.16179000838381 | epot = -12.25239730217 | etot = -8.37462296925621
287000  ekin = 1.70498524220286 |  erot = 2.173155030137 | epot = -12.2527632419506 | etot = -8.37462296961069
288000  ekin = 1.68823578051903 |  erot = 2.18649203663127 | epot = -12.2493507869514 | etot = -8.37462296980111
289000  ekin = 1.66510970376174 |  erot = 2.19999055777909 | epot = -12.2397232312596 | etot = -8.37462296971872
290000  ekin = 1.63674302037954 |  erot = 2.21381252699327 | epot = -12.2251785167465 | etot = -8.37462296937372
291000  ekin = 1.60601874197395 |  erot = 2.22992661048312 | epot = -12.2105683213523 | etot = -8.3746229688952
292000  ekin = 1.57682389343752 |  erot = 2.25107800691073 | epot = -12.2025248687803 | etot = -8.37462296843205
293000  ekin = 1.55301992418683 |  erot = 2.27950943304591 | epot = -12.2071523254116 | etot = -8.37462296817889
294000  ekin = 1.53731454048174 |  erot = 2.31583078837865 | epot = -12.2277682970254 | etot = -8.37462296816498
295000  ekin = 1.53083265562504 |  erot = 2.35873605655261 | epot = -12.264191680545 | etot = -8.37462296836736
296000  ekin = 1.53318706455239 |  erot = 2.40528084679021 | epot = -12.3130908800601 | etot = -8.37462296871754
297000  ekin = 1.54281493583623 |  erot = 2.45151931863421 | epot = -12.3689572236265 | etot = -8.37462296915609
298000  ekin = 1.55733608765135 |  erot = 2.49306411731896 | epot = -12.4250231746863 | etot = -8.37462296971601
299000  ekin = 1.5740738628828 |  erot = 2.52498633848713 | epot = -12.473683171532 | etot = -8.37462297016211
300000  ekin = 1.59001535760057 |  erot = 2.5434931518281 | epot = -12.5081314799999 | etot = -8.37462297057123
301000  ekin = 1.60189886822687 |  erot = 2.54585083166139 | epot = -12.5223726708122 | etot = -8.37462297092397
302000  ekin = 1.606202515857 |  erot = 2.53039812867599 | epot = -12.5112236158398 | etot = -8.37462297130681
303000  ekin = 1.59914065240708 |  erot = 2.49598280993758 | epot = -12.4697464340445 | etot = -8.37462297169981
304000  ekin = 1.57679795693913 |  erot = 2.44177332378513 | epot = -12.3931942527976 | etot = -8.37462297207338
305000  ekin = 1.53574304374243 |  erot = 2.3676190541423 | epot = -12.2779850699667 | etot = -8.37462297208197
306000  ekin = 1.47392866559851 |  erot = 2.27453104047969 | epot = -12.1230826782598 | etot = -8.37462297218158
307000  ekin = 1.39050823398847 |  erot = 2.16376504506994 | epot = -11.9288962509223 | etot = -8.37462297186389
308000  ekin = 1.2896152298086 |  erot = 2.03977667258498 | epot = -11.7040148706656 | etot = -8.37462296827207
309000  ekin = 1.05782937494292 |  erot = 1.83361716571104 | epot = -11.2660695010602 | etot = -8.37462296040623
310000  ekin = 1.14450415447965 |  erot = 1.58483272602664 | epot = -11.1039598386832 | etot = -8.37462295817687
311000  ekin = 1.41922601312442 |  erot = 1.45460499880715 | epot = -11.2484540448415 | etot = -8.37462303290993
312000  ekin = 1.45261330232121 |  erot = 1.37611906651637 | epot = -11.2033554015513 | etot = -8.37462303271372
313000  ekin = 1.4788437717408 |  erot = 1.31854286229449 | epot = -11.1720096664207 | etot = -8.37462303238537
314000  ekin = 1.49756299811591 |  erot = 1.28320357876867 | epot = -11.1553896088943 | etot = -8.37462303200971
315000  ekin = 1.51332559187995 |  erot = 1.27043025389279 | epot = -11.158378877496 | etot = -8.37462303172327
316000  ekin = 1.53080061118026 |  erot = 1.27925593275691 | epot = -11.1846795755419 | etot = -8.37462303160469
317000  ekin = 1.55378721590892 |  erot = 1.30719554367425 | epot = -11.2356057912727 | etot = -8.37462303168955
318000  ekin = 1.58370434541109 |  erot = 1.34913652060297 | epot = -11.3074638985371 | etot = -8.374623032523
319000  ekin = 1.61943484148295 |  erot = 1.39801478359137 | epot = -11.3920726581918 | etot = -8.37462303311752
320000  ekin = 1.65864783760583 |  erot = 1.44696670458938 | epot = -11.4802375759962 | etot = -8.37462303380101
321000  ekin = 1.6976698384742 |  erot = 1.48920524278932 | epot = -11.561498115728 | etot = -8.37462303446449
322000  ekin = 1.73222385846161 |  erot = 1.51888544570603 | epot = -11.6257323391493 | etot = -8.37462303498166
323000  ekin = 1.75834700852462 |  erot = 1.53202956630704 | epot = -11.6649996100703 | etot = -8.37462303523864
324000  ekin = 1.77324650046493 |  erot = 1.52732597029455 | epot = -11.6751955059278 | etot = -8.37462303516831
325000  ekin = 1.77583924217148 |  erot = 1.50655389358397 | epot = -11.6570161705558 | etot = -8.37462303480038
326000  ekin = 1.76682929377058 |  erot = 1.47436928283883 | epot = -11.6158216107578 | etot = -8.37462303414843
327000  ekin = 1.74834602231326 |  erot = 1.43794367202746 | epot = -11.5609127277015 | etot = -8.37462303336073
328000  ekin = 1.72331109821437 |  erot = 1.40578615079726 | epot = -11.5037202815796 | etot = -8.37462303256798
329000  ekin = 1.69488797673583 |  erot = 1.38635580023373 | epot = -11.4558668088469 | etot = -8.3746230318773
330000  ekin = 1.6656651333496 |  erot = 1.38702252391951 | epot = -11.4273106886518 | etot = -8.37462303138264
331000  ekin = 1.63732185166402 |  erot = 1.41331220646683 | epot = -11.4252570892371 | etot = -8.37462303110628
332000  ekin = 1.61073968004208 |  erot = 1.46826665363504 | epot = -11.453629364734 | etot = -8.37462303105687
333000  ekin = 1.58605232106696 |  erot = 1.5522055904313 | epot = -11.5128809427321 | etot = -8.37462303123381
334000  ekin = 1.5628441592252 |  erot = 1.66255678080433 | epot = -11.6000239716202 | etot = -8.3746230315907
335000  ekin = 1.54014240613999 |  erot = 1.79443783502711 | epot = -11.7092032732483 | etot = -8.37462303208118
336000  ekin = 1.51670455216779 |  erot = 1.94117931563194 | epot = -11.8325069004488 | etot = -8.37462303264909
337000  ekin = 1.49128277555691 |  erot = 2.0949241434516 | epot = -11.9608299522436 | etot = -8.37462303323505
338000  ekin = 1.46282625483174 |  erot = 2.24735936520808 | epot = -12.084808653823 | etot = -8.37462303378314
339000  ekin = 1.43063896798429 |  erot = 2.39044100153282 | epot = -12.1957030037644 | etot = -8.37462303424733
340000  ekin = 1.39448012484134 |  erot = 2.51702660358864 | epot = -12.2861297630257 | etot = -8.37462303459572
341000  ekin = 1.35460313822342 |  erot = 2.62135284037302 | epot = -12.3505790134079 | etot = -8.37462303481151
342000  ekin = 1.31173936863123 |  erot = 2.69933546749565 | epot = -12.3856978710171 | etot = -8.37462303489026
343000  ekin = 1.26704159860301 |  erot = 2.74871044551612 | epot = -12.390375078955 | etot = -8.3746230348359
344000  ekin = 1.2220065450956 |  erot = 2.76906107654435 | epot = -12.3656906562953 | etot = -8.37462303465534
345000  ekin = 1.17839357225762 |  erot = 2.76177689465409 | epot = -12.314793501269 | etot = -8.37462303435724
346000  ekin = 1.13814730560366 |  erot = 2.72996678569744 | epot = -12.2427371252546 | etot = -8.37462303395354
347000  ekin = 1.10331757839189 |  erot = 2.67831421953866 | epot = -12.1562548313937 | etot = -8.37462303346319
348000  ekin = 1.07595787263701 |  erot = 2.61283600667575 | epot = -12.0634169122301 | etot = -8.37462303291736
349000  ekin = 1.0579814719175 |  erot = 2.54050407789345 | epot = -11.9731085821719 | etot = -8.37462303236099
350000  ekin = 1.05096760963783 |  erot = 2.46871550807927 | epot = -11.8943061495681 | etot = -8.37462303185096
351000  ekin = 1.05593437429287 |  erot = 2.40463774697948 | epot = -11.8351951527201 | etot = -8.3746230314477
352000  ekin = 1.07311971186445 |  erot = 2.35449555191596 | epot = -11.8022382949869 | etot = -8.3746230312065
353000  ekin = 1.10182415540729 |  erot = 2.32288867128129 | epot = -11.7993358578563 | etot = -8.37462303116775
354000  ekin = 1.1403630046458 |  erot = 2.31223409502276 | epot = -11.8272201310181 | etot = -8.37462303134955
355000  ekin = 1.18615564007747 |  erot = 2.32242185961901 | epot = -11.8832005314386 | etot = -8.37462303174213
356000  ekin = 1.23595386569768 |  erot = 2.35076326964089 | epot = -11.9613401676441 | etot = -8.37462303230557
357000  ekin = 1.28618457758527 |  erot = 2.39228504524844 | epot = -12.0530926558067 | etot = -8.37462303297295
358000  ekin = 1.33335672483922 |  erot = 2.44036693764112 | epot = -12.1483466961405 | etot = -8.37462303366018
359000  ekin = 1.37446611423394 |  erot = 2.48763760748888 | epot = -12.2367267560032 | etot = -8.37462303428037
360000  ekin = 1.4073369853998 |  erot = 2.52696891747068 | epot = -12.3089289376288 | etot = -8.3746230347583
361000  ekin = 1.43085230116985 |  erot = 2.55266032656752 | epot = -12.3581356626684 | etot = -8.37462303493106
362000  ekin = 1.44498023419411 |  erot = 2.5616119244846 | epot = -12.3812151936916 | etot = -8.37462303501293
363000  ekin = 1.45080808015357 |  erot = 2.55177253019121 | epot = -12.3772036452511 | etot = -8.37462303490632
364000  ekin = 1.4504698206984 |  erot = 2.52283864584446 | epot = -12.3479315011825 | etot = -8.3746230346396
365000  ekin = 1.44693366151922 |  erot = 2.47609933176865 | epot = -12.2976560275504 | etot = -8.37462303426257
366000  ekin = 1.44366094467937 |  erot = 2.41401126337839 | epot = -12.232295241894 | etot = -8.37462303383623
367000  ekin = 1.44416618229089 |  erot = 2.33969773429917 | epot = -12.158486950013 | etot = -8.37462303342294
368000  ekin = 1.45154164411989 |  erot = 2.25648465085276 | epot = -12.0826493280459 | etot = -8.37462303307324
369000  ekin = 1.46802482610957 |  erot = 2.16757470030039 | epot = -12.0102225592264 | etot = -8.3746230328164
370000  ekin = 1.4946848415784 |  erot = 2.07591739973278 | epot = -11.9452252739691 | etot = -8.3746230326579
371000  ekin = 1.53128479293964 |  erot = 1.9842652262904 | epot = -11.8901730518131 | etot = -8.37462303258308
372000  ekin = 1.57634160155475 |  erot = 1.89533626064742 | epot = -11.8463008947684 | etot = -8.37462303256626
373000  ekin = 1.62736107596568 |  erot = 1.81196417168995 | epot = -11.8139482802383 | etot = -8.37462303258269
374000  ekin = 1.68119274504092 |  erot = 1.73713269144262 | epot = -11.7929484690964 | etot = -8.37462303261285
375000  ekin = 1.73444043052779 |  erot = 1.67385884334812 | epot = -11.7829223065189 | etot = -8.37462303264297
376000  ekin = 1.78387586143861 |  erot = 1.62497473906467 | epot = -11.7834736331725 | etot = -8.37462303266922
377000  ekin = 1.8264818609183 |  erot = 1.59275354369276 | epot = -11.7938584374893 | etot = -8.37462303287821
378000  ekin = 1.85889028460699 |  erot = 1.57838589666717 | epot = -11.8118992141847 | etot = -8.37462303291055
379000  ekin = 1.87974734421288 |  erot = 1.58231910072895 | epot = -11.8366894778896 | etot = -8.37462303294772
380000  ekin = 1.88876618247863 |  erot = 1.60397852042879 | epot = -11.867367735925 | etot = -8.37462303301755
381000  ekin = 1.88634387025526 |  erot = 1.64162253507708 | epot = -11.9025894384705 | etot = -8.3746230331382
382000  ekin = 1.87329602399917 |  erot = 1.69239968364358 | epot = -11.9403187409501 | etot = -8.37462303330739
383000  ekin = 1.85067766912035 |  erot = 1.75260724974017 | epot = -11.9779079523639 | etot = -8.37462303350337
384000  ekin = 1.81972884480726 |  erot = 1.81808771261089 | epot = -12.0124395911108 | etot = -8.37462303369263
385000  ekin = 1.78192764777005 |  erot = 1.88463133786802 | epot = -12.0411820195034 | etot = -8.37462303386534
386000  ekin = 1.73896117301569 |  erot = 1.94830024178261 | epot = -12.061884448782 | etot = -8.37462303398369
387000  ekin = 1.69261703956642 |  erot = 2.00550933075481 | epot = -12.0727494044588 | etot = -8.37462303413753
388000  ekin = 1.64442362565048 |  erot = 2.05290262288317 | epot = -12.0719492828242 | etot = -8.37462303429059
389000  ekin = 1.59562809726325 |  erot = 2.08769097010279 | epot = -12.0579421017207 | etot = -8.37462303435467
390000  ekin = 1.54727258078821 |  erot = 2.10804034822076 | epot = -12.0299359634157 | etot = -8.37462303440669
391000  ekin = 1.500426686893 |  erot = 2.11301685840315 | epot = -11.9880665795767 | etot = -8.37462303428053
392000  ekin = 1.45669956782719 |  erot = 2.10352612084123 | epot = -11.934848722606 | etot = -8.37462303393755
393000  ekin = 1.41857599109124 |  erot = 2.08263213471655 | epot = -11.8758311592018 | etot = -8.37462303339403
394000  ekin = 1.38932612627926 |  erot = 2.05528425943725 | epot = -11.8192334184644 | etot = -8.37462303274791
395000  ekin = 1.37246101478471 |  erot = 2.0273931942745 | epot = -11.7744772412175 | etot = -8.37462303215831
396000  ekin = 1.37078907987893 |  erot = 2.00445159240829 | epot = -11.7498637040834 | etot = -8.37462303179614
397000  ekin = 1.38538853999881 |  erot = 1.99011302537741 | epot = -11.7501245971575 | etot = -8.37462303178123
398000  ekin = 1.4149053116158 |  erot = 1.98519641778469 | epot = -11.7747247615385 | etot = -8.37462303213797
399000  ekin = 1.45547085036172 |  erot = 1.98743025594808 | epot = -11.8175241391037 | etot = -8.37462303279393
400000  ekin = 1.50126526406456 |  erot = 1.99196444869353 | epot = -11.8678527463702 | etot = -8.37462303361212
401000  ekin = 1.54549713891325 |  erot = 1.99242148352504 | epot = -11.9125416568747 | etot = -8.37462303443636
402000  ekin = 1.58148802753225 |  erot = 1.98217540610689 | epot = -11.9382864687602 | etot = -8.37462303512109
403000  ekin = 1.60364407572636 |  erot = 1.95563446459617 | epot = -11.9339015758631 | etot = -8.3746230355406
404000  ekin = 1.6082371823126 |  erot = 1.90940860689276 | epot = -11.892268824805 | etot = -8.37462303559961
405000  ekin = 1.59393186875248 |  erot = 1.84321418438886 | epot = -11.8117690883987 | etot = -8.37462303525732
406000  ekin = 1.56197926550313 |  erot = 1.76026394072503 | epot = -11.696866240784 | etot = -8.37462303455581
407000  ekin = 1.51595319782147 |  erot = 1.66689496115735 | epot = -11.5574711925993 | etot = -8.37462303362048
408000  ekin = 1.46103089398893 |  erot = 1.57144700034909 | epot = -11.4071009269586 | etot = -8.37462303262061
409000  ekin = 1.40302353808045 |  erot = 1.48274963105546 | epot = -11.2603962008488 | etot = -8.37462303171285
410000  ekin = 1.34747963365107 |  erot = 1.40871679572804 | epot = -11.1308194603699 | etot = -8.37462303099076
411000  ekin = 1.24142842922053 |  erot = 1.36765891029395 | epot = -10.9837103545531 | etot = -8.37462301503866
412000  ekin = 1.07606206464602 |  erot = 1.44463891809268 | epot = -10.8953239884568 | etot = -8.37462300571809
413000  ekin = 1.04694922469337 |  erot = 1.5110260061357 | epot = -10.9325982588148 | etot = -8.3746230279857
414000  ekin = 1.03606467090053 |  erot = 1.52895884328951 | epot = -10.9396465423127 | etot = -8.37462302812265
415000  ekin = 1.03698178421644 |  erot = 1.56970634086251 | epot = -10.9813111534857 | etot = -8.37462302840673
416000  ekin = 1.04842794421315 |  erot = 1.63005774223267 | epot = -11.0531087152535 | etot = -8.37462302880764
417000  ekin = 1.06841333535245 |  erot = 1.70571770479165 | epot = -11.1487540694376 | etot = -8.37462302929345
418000  ekin = 1.0944470100467 |  erot = 1.79158405306303 | epot = -11.2606540929472 | etot = -8.37462302983752
419000  ekin = 1.12371544112636 |  erot = 1.88200392342451 | epot = -11.3803423949661 | etot = -8.37462303041528
420000  ekin = 1.15322596863313 |  erot = 1.9710395694794 | epot = -11.498888569108 | etot = -8.37462303099545
421000  ekin = 1.17996638669817 |  erot = 2.05281125535677 | epot = -11.6074006735849 | etot = -8.37462303152993
422000  ekin = 1.20115062980762 |  erot = 2.12197272518036 | epot = -11.6977463869409 | etot = -8.37462303195293
423000  ekin = 1.2145687934241 |  erot = 2.17429924607344 | epot = -11.7634910716948 | etot = -8.37462303219724
424000  ekin = 1.21895541018511 |  erot = 2.20725430505659 | epot = -11.8008327474639 | etot = -8.37462303222225
425000  ekin = 1.21420953470501 |  erot = 2.22030001431169 | epot = -11.8091325810581 | etot = -8.37462303204139
426000  ekin = 1.20134505265621 |  erot = 2.21476142815237 | epot = -11.7907295125147 | etot = -8.3746230317061
427000  ekin = 1.18219319315261 |  erot = 2.19340434237043 | epot = -11.7502205668128 | etot = -8.37462303128977
428000  ekin = 1.15899921940807 |  erot = 2.15981652250199 | epot = -11.6934387727675 | etot = -8.37462303085739
429000  ekin = 1.13415683500719 |  erot = 2.11790831243447 | epot = -11.6266881762577 | etot = -8.37462302881602
430000  ekin = 1.11403963820914 |  erot = 2.07460238347597 | epot = -11.5632650504451 | etot = -8.37462302876001
431000  ekin = 1.10124843427921 |  erot = 2.03325324116416 | epot = -11.5091247042108 | etot = -8.37462302876746
432000  ekin = 1.09509673682045 |  erot = 1.99414694703891 | epot = -11.4638667126951 | etot = -8.37462302883571
433000  ekin = 1.09463609314644 |  erot = 1.95711348582559 | epot = -11.4263726079153 | etot = -8.3746230289433
434000  ekin = 1.09809472012996 |  erot = 1.92111283570137 | epot = -11.3938305852117 | etot = -8.37462302938034
435000  ekin = 1.10341624338861 |  erot = 1.88492142830579 | epot = -11.3629607010994 | etot = -8.37462302940498
436000  ekin = 1.11020757162892 |  erot = 1.84854231976133 | epot = -11.3333729208394 | etot = -8.37462302944915
437000  ekin = 1.11803889537834 |  erot = 1.81186902511391 | epot = -11.3045309500004 | etot = -8.37462302950811
438000  ekin = 1.12642172160336 |  erot = 1.77470718112056 | epot = -11.2757519322974 | etot = -8.37462302957345
439000  ekin = 1.13485148153982 |  erot = 1.73686282079598 | epot = -11.2463373319689 | etot = -8.37462302963315
440000  ekin = 1.14287335820677 |  erot = 1.6982607950729 | epot = -11.2157571829518 | etot = -8.37462302967209
441000  ekin = 1.15016795453108 |  erot = 1.65908318343076 | epot = -11.1838741676317 | etot = -8.37462302966984
442000  ekin = 1.15664284201572 |  erot = 1.61992313518224 | epot = -11.1511890068215 | etot = -8.37462302962353
443000  ekin = 1.16253418069083 |  erot = 1.58179210099427 | epot = -11.1189493112074 | etot = -8.37462302952227
444000  ekin = 1.16846798531313 |  erot = 1.54614466613206 | epot = -11.0892356808142 | etot = -8.37462302936903
445000  ekin = 1.17546820346648 |  erot = 1.51479732960813 | epot = -11.0648885622537 | etot = -8.37462302917911
446000  ekin = 1.18488743024697 |  erot = 1.48973802087996 | epot = -11.0492484801072 | etot = -8.37462302898023
447000  ekin = 1.19824347153636 |  erot = 1.4728428998025 | epot = -11.0457094001486 | etot = -8.37462302880978
448000  ekin = 1.21696535091544 |  erot = 1.46554765995196 | epot = -11.0571360395779 | etot = -8.37462302871048
449000  ekin = 1.24207954598539 |  erot = 1.46851271093431 | epot = -11.0852152856395 | etot = -8.37462302871984
450000  ekin = 1.27389445230343 |  erot = 1.48136016741854 | epot = -11.1298776485921 | etot = -8.37462302887016
451000  ekin = 1.31179903842818 |  erot = 1.50255470267311 | epot = -11.1889767701115 | etot = -8.37462302901019
452000  ekin = 1.35460859520422 |  erot = 1.52989164326772 | epot = -11.2591232679044 | etot = -8.37462302943242
453000  ekin = 1.39989469250132 |  erot = 1.55983588432389 | epot = -11.3343536067643 | etot = -8.37462302993904
454000  ekin = 1.44437957549653 |  erot = 1.58822152329642 | epot = -11.4072241292509 | etot = -8.37462303045796
455000  ekin = 1.48456015878253 |  erot = 1.61103616004163 | epot = -11.470219349728 | etot = -8.37462303090384
456000  ekin = 1.51733329615388 |  erot = 1.62510652435232 | epot = -11.5170628516965 | etot = -8.37462303119029
457000  ekin = 1.54029245797727 |  erot = 1.62854015385607 | epot = -11.5434556431081 | etot = -8.37462303127478
458000  ekin = 1.55209787062893 |  erot = 1.62122255615467 | epot = -11.5479434578297 | etot = -8.37462303104612
459000  ekin = 1.55414659187908 |  erot = 1.60571991112906 | epot = -11.5344895335906 | etot = -8.3746230305825
460000  ekin = 1.54960099436993 |  erot = 1.58640018749931 | epot = -11.5106242118358 | etot = -8.37462302996659
461000  ekin = 1.54273124225058 |  erot = 1.56872252266522 | epot = -11.4860767942407 | etot = -8.37462302932495
462000  ekin = 1.53795589449209 |  erot = 1.55825929919719 | epot = -11.4708382224939 | etot = -8.37462302880462
463000  ekin = 1.53875903308017 |  erot = 1.55959299575885 | epot = -11.4729750573655 | etot = -8.37462302852646
464000  ekin = 1.54682029511825 |  erot = 1.57534186894967 | epot = -11.4967851926235 | etot = -8.37462302855557
465000  ekin = 1.56162946502409 |  erot = 1.60564212072992 | epot = -11.5418946146263 | etot = -8.37462302887232
466000  ekin = 1.58070265304198 |  erot = 1.64822662156059 | epot = -11.6035523039855 | etot = -8.37462302938297
467000  ekin = 1.60035208027159 |  erot = 1.69905719078914 | epot = -11.6740323010087 | etot = -8.37462302994799
468000  ekin = 1.61673623107193 |  erot = 1.75335443246648 | epot = -11.7447136939685 | etot = -8.37462303043008
469000  ekin = 1.62683085006995 |  erot = 1.80670922025537 | epot = -11.8081631010546 | etot = -8.37462303072931
470000  ekin = 1.62907239972644 |  erot = 1.8559658402397 | epot = -11.859661270774 | etot = -8.37462303080784
471000  ekin = 1.62354687373205 |  erot = 1.89966129170666 | epot = -11.8978311961309 | etot = -8.37462303069216
472000  ekin = 1.61170510379534 |  erot = 1.93800410340994 | epot = -11.924332237645 | etot = -8.37462303043972
473000  ekin = 1.59590324451053 |  erot = 1.97246730641883 | epot = -11.9429935810557 | etot = -8.3746230301263
474000  ekin = 1.57886523181425 |  erot = 2.00526149881272 | epot = -11.9587497604451 | etot = -8.37462302981809
475000  ekin = 1.56312071579209 |  erot = 2.03882982960113 | epot = -11.9765735749591 | etot = -8.3746230295659
476000  ekin = 1.55063074695432 |  erot = 2.07545668636699 | epot = -12.0007104627111 | etot = -8.37462302938983
477000  ekin = 1.54263588411163 |  erot = 2.11704231171848 | epot = -12.0343012251317 | etot = -8.37462302930159
478000  ekin = 1.53956151542339 |  erot = 2.16493101564523 | epot = -12.0791155603743 | etot = -8.37462302930564
479000  ekin = 1.54104337298282 |  erot = 2.21977101926569 | epot = -12.1354374216528 | etot = -8.37462302940429
480000  ekin = 1.546009760973 |  erot = 2.28138261399161 | epot = -12.2020154045604 | etot = -8.37462302959578
481000  ekin = 1.55280606025074 |  erot = 2.34867771787686 | epot = -12.2761068079942 | etot = -8.37462302986658
482000  ekin = 1.55937339635063 |  erot = 2.41971772769978 | epot = -12.3537141542343 | etot = -8.37462303018394
483000  ekin = 1.56350104453064 |  erot = 2.49198464321598 | epot = -12.4301087182424 | etot = -8.37462303049574
484000  ekin = 1.56314467772891 |  erot = 2.56280026279411 | epot = -12.5005679712712 | etot = -8.37462303074813
485000  ekin = 1.55677099189746 |  erot = 2.62990187864032 | epot = -12.5612959014211 | etot = -8.37462303088329
486000  ekin = 1.54362230241928 |  erot = 2.69196691950622 | epot = -12.6102122528177 | etot = -8.37462303089216
487000  ekin = 1.52381043792147 |  erot = 2.74866369544547 | epot = -12.6470971641652 | etot = -8.37462303079828
488000  ekin = 1.49822858844546 |  erot = 2.8004132279429 | epot = -12.6732648470389 | etot = -8.37462303065053
489000  ekin = 1.46832177711314 |  erot = 2.84792010719542 | epot = -12.6908649148109 | etot = -8.37462303050238
490000  ekin = 1.43580907601253 |  erot = 2.89167668868852 | epot = -12.702108795094 | etot = -8.37462303039295
491000  ekin = 1.4024462649876 |  erot = 2.93162068131834 | epot = -12.7086899766444 | etot = -8.37462303033848
492000  ekin = 1.36987596423633 |  erot = 2.96703118869674 | epot = -12.7115301832664 | etot = -8.37462303033337
493000  ekin = 1.33956200675841 |  erot = 2.99664446240428 | epot = -12.7108294995239 | etot = -8.37462303036122
494000  ekin = 1.31276816321137 |  erot = 3.0188980455283 | epot = -12.7062892391461 | etot = -8.37462303040639
495000  ekin = 1.29052832589742 |  erot = 3.03218505525729 | epot = -12.6973364116178 | etot = -8.37462303046307
496000  ekin = 1.27356858864304 |  erot = 3.03502298578847 | epot = -12.6832146049698 | etot = -8.37462303053831
497000  ekin = 1.26217859738771 |  erot = 3.02610963124414 | epot = -12.6629112592754 | etot = -8.37462303064359
498000  ekin = 1.25609176092199 |  erot = 3.00437387243302 | epot = -12.6350886640761 | etot = -8.37462303072111
499000  ekin = 1.25448433543904 |  erot = 2.96925958210228 | epot = -12.5983669484037 | etot = -8.37462303086234
500000  ekin = 1.25592311954784 |  erot = 2.92052794168892 | epot = -12.5510740922098 | etot = -8.37462303097309
501000  ekin = 1.25866262015633 |  erot = 2.85877857413965 | epot = -12.4920642252969 | etot = -8.37462303100093
502000  ekin = 1.26101030104304 |  erot = 2.78589367848072 | epot = -12.421527010429 | etot = -8.37462303090524
503000  ekin = 1.26168224098459 |  erot = 2.70525686266326 | epot = -12.3415621343214 | etot = -8.37462303067356
504000  ekin = 1.2600687527343 |  erot = 2.62162663922347 | epot = -12.2563184222917 | etot = -8.37462303033394
505000  ekin = 1.25635230634784 |  erot = 2.54066101851092 | epot = -12.1716363547773 | etot = -8.3746230299186
506000  ekin = 1.25147361583878 |  erot = 2.46829686832302 | epot = -12.0943935136549 | etot = -8.37462302949308
507000  ekin = 1.24695832252944 |  erot = 2.40991559866175 | epot = -12.03149695032 | etot = -8.37462302912881
508000  ekin = 1.24460011262455 |  erot = 2.36947588934127 | epot = -11.9886990309749 | etot = -8.37462302900906
509000  ekin = 1.24584437165595 |  erot = 2.34837731731007 | epot = -11.9688447179601 | etot = -8.37462302899406
510000  ekin = 1.2517204112405 |  erot = 2.34550382347298 | epot = -11.9718472639398 | etot = -8.37462302922633
511000  ekin = 1.26248317251299 |  erot = 2.35680066397777 | epot = -11.9939068662003 | etot = -8.37462302970952
512000  ekin = 1.27739486770651 |  erot = 2.37529788848864 | epot = -12.0273157865898 | etot = -8.3746230303947
513000  ekin = 1.29481021505335 |  erot = 2.39185405428688 | epot = -12.0612873005158 | etot = -8.37462303117561
514000  ekin = 1.31250889880663 |  erot = 2.39651406028005 | epot = -12.0836459909827 | etot = -8.37462303189606
515000  ekin = 1.3282505258172 |  erot = 2.38037057727134 | epot = -12.0832441354637 | etot = -8.37462303237514
516000  ekin = 1.34045831429047 |  erot = 2.3376026799616 | epot = -12.0526840267099 | etot = -8.37462303245782
517000  ekin = 1.34883924084139 |  erot = 2.26713155446507 | epot = -11.9905938273839 | etot = -8.37462303207746
518000  ekin = 1.35468550683532 |  erot = 2.1732612700939 | epot = -11.9025698082252 | etot = -8.37462303129602
519000  ekin = 1.36067339623777 |  erot = 2.06494828518385 | epot = -11.8002447117104 | etot = -8.37462303028879
520000  ekin = 1.37018582822041 |  erot = 1.95390329839677 | epot = -11.6987121558955 | etot = -8.3746230292783
521000  ekin = 1.38639579379635 |  erot = 1.85221057844755 | epot = -11.6132294007042 | etot = -8.37462302846028
522000  ekin = 1.41141432489743 |  erot = 1.77022445537223 | epot = -11.556261808228 | etot = -8.37462302795837
523000  ekin = 1.44572356452415 |  erot = 1.71520045873996 | epot = -11.5355470510809 | etot = -8.37462302781681
524000  ekin = 1.48798145408556 |  erot = 1.69073008320913 | epot = -11.5533345653098 | etot = -8.37462302801515
525000  ekin = 1.53517683780364 |  erot = 1.69680296066522 | epot = -11.6066028269625 | etot = -8.37462302849367
526000  ekin = 1.58304900117776 |  erot = 1.73025509478009 | epot = -11.6879271251317 | etot = -8.37462302917388
527000  ekin = 1.62665879647842 |  erot = 1.78540941266435 | epot = -11.7866912391139 | etot = -8.37462302997112
528000  ekin = 1.66100783107272 |  erot = 1.85480654805457 | epot = -11.8904374099264 | etot = -8.37462303079917
529000  ekin = 1.68163863411252 |  erot = 1.93001159415133 | epot = -11.986273259831 | etot = -8.37462303156715
530000  ekin = 1.68518623025763 |  erot = 2.00252460867122 | epot = -12.0623338711093 | etot = -8.37462303218049
531000  ekin = 1.66986059684322 |  erot = 2.06478669657164 | epot = -12.1092703259641 | etot = -8.37462303254921
532000  ekin = 1.63581226894962 |  erot = 2.11116679185565 | epot = -12.1216020934158 | etot = -8.37462303261058
533000  ekin = 1.58529617176643 |  erot = 2.13870511839619 | epot = -12.098624322515 | etot = -8.37462303235236
534000  ekin = 1.5225456409459 |  erot = 2.14737698823518 | epot = -12.0445456610046 | etot = -8.37462303182352
535000  ekin = 1.45332420575898 |  erot = 2.13977370494377 | epot = -11.9677209418254 | etot = -8.37462303112265
536000  ekin = 1.38421691010833 |  erot = 2.12031314070643 | epot = -11.8791530811833 | etot = -8.3746230303685
537000  ekin = 1.32180342898888 |  erot = 2.09425520394361 | epot = -11.7906816626022 | etot = -8.3746230296697
538000  ekin = 1.27187743419507 |  erot = 2.06681107588574 | epot = -11.713311539185 | etot = -8.37462302910418
539000  ekin = 1.23883846278406 |  erot = 2.04251647932952 | epot = -11.6559779708291 | etot = -8.37462302871551
540000  ekin = 1.22531302702205 |  erot = 2.02488499741709 | epot = -11.6248210529601 | etot = -8.37462302852096
541000  ekin = 1.23199882289896 |  erot = 2.01625749303218 | epot = -11.6228793444531 | etot = -8.37462302852198
542000  ekin = 1.25769219449867 |  erot = 2.01774880493445 | epot = -11.6500640281429 | etot = -8.37462302870979
543000  ekin = 1.29945731405898 |  erot = 2.02924170400448 | epot = -11.7033220471294 | etot = -8.37462302906594
544000  ekin = 1.35291512120938 |  erot = 2.04944893324945 | epot = -11.7769870840134 | etot = -8.37462302955459
545000  ekin = 1.41265384121013 |  erot = 2.07611668221351 | epot = -11.8633935535405 | etot = -8.37462303011689
546000  ekin = 1.47277167574226 |  erot = 2.10644216878695 | epot = -11.9538368751978 | etot = -8.37462303066857
547000  ekin = 1.52754093318812 |  erot = 2.1377046882704 | epot = -12.0398686525721 | etot = -8.37462303111358
548000  ekin = 1.57213155238435 |  erot = 2.16798237174586 | epot = -12.1147369554979 | etot = -8.3746230313677
549000  ekin = 1.60327488859358 |  erot = 2.19671767494249 | epot = -12.1746155949228 | etot = -8.37462303138678
550000  ekin = 1.61972434377051 |  erot = 2.22489244331976 | epot = -12.2192398182714 | etot = -8.37462303118114
551000  ekin = 1.62240013871266 |  erot = 2.25470593134778 | epot = -12.2517291008734 | etot = -8.37462303081292
552000  ekin = 1.61417495563575 |  erot = 2.28884205645968 | epot = -12.2776400424743 | etot = -8.37462303037886
553000  ekin = 1.59932782093367 |  erot = 2.32954987376782 | epot = -12.3035007246893 | etot = -8.37462302998778
554000  ekin = 1.58274599068694 |  erot = 2.37778817612377 | epot = -12.335157196551 | etot = -8.37462302974027
555000  ekin = 1.56899856387336 |  erot = 2.43263226771025 | epot = -12.3762538612928 | etot = -8.37462302970921
556000  ekin = 1.56145041160178 |  erot = 2.49106505510944 | epot = -12.4271384966351 | etot = -8.37462302992391
557000  ekin = 1.56197837221472 |  erot = 2.54829507222914 | epot = -12.4848964746666 | etot = -8.37462303022272
558000  ekin = 1.57029216554694 |  erot = 2.59810209181726 | epot = -12.5430172882317 | etot = -8.37462303086749
559000  ekin = 1.58339818323854 |  erot = 2.63367391510857 | epot = -12.5916951298834 | etot = -8.37462303153627
560000  ekin = 1.5971277048411 |  erot = 2.64904697988052 | epot = -12.6207977168329 | etot = -8.37462303211133
561000  ekin = 1.60698123346032 |  erot = 2.6400968389395 | epot = -12.6217011048881 | etot = -8.37462303248833
562000  ekin = 1.60896027784962 |  erot = 2.6053270012035 | epot = -12.5889103116457 | etot = -8.37462303259261
563000  ekin = 1.60023696635641 |  erot = 2.54649193869282 | epot = -12.5213519373678 | etot = -8.37462303231855
564000  ekin = 1.57955774679436 |  erot = 2.46891092806133 | epot = -12.4230917066839 | etot = -8.37462303182822
565000  ekin = 1.54734561568422 |  erot = 2.38031455632197 | epot = -12.3022832031139 | etot = -8.37462303110775
566000  ekin = 1.50554468555614 |  erot = 2.29049479450585 | epot = -12.170662510309 | etot = -8.37462303024699
567000  ekin = 1.45732250665802 |  erot = 2.21025028826866 | epot = -12.0421958242756 | etot = -8.37462302934893
568000  ekin = 1.40671207380869 |  erot = 2.15003703754034 | epot = -11.9313721399072 | etot = -8.37462302855815
569000  ekin = 1.35794157948555 |  erot = 2.11775595088059 | epot = -11.8503205583542 | etot = -8.37462302798802
570000  ekin = 1.31523212118133 |  erot = 2.11799693944399 | epot = -11.8078520883715 | etot = -8.37462302774614
571000  ekin = 1.28243871603171 |  erot = 2.15081941194262 | epot = -11.8078811559362 | etot = -8.37462302796181
572000  ekin = 1.26220633016967 |  erot = 2.21027034250997 | epot = -11.8470997013693 | etot = -8.37462302868969
573000  ekin = 1.25525341532478 |  erot = 2.28456705416222 | epot = -11.9144434992767 | etot = -8.37462302978965
574000  ekin = 1.26030251431118 |  erot = 2.35813787036682 | epot = -11.9930634156596 | etot = -8.37462303098163
575000  ekin = 1.2747321562012 |  erot = 2.41511328226935 | epot = -12.0644684704057 | etot = -8.37462303193517
576000  ekin = 1.29562562243032 |  erot = 2.44294920216243 | epot = -12.1131978570819 | etot = -8.37462303248916
577000  ekin = 1.32065634429477 |  erot = 2.43438586779435 | epot = -12.1296652446647 | etot = -8.3746230325756
578000  ekin = 1.34847271373188 |  erot = 2.3880449856766 | epot = -12.1111407316826 | etot = -8.3746230322741
579000  ekin = 1.37859640729612 |  erot = 2.30759327887891 | epot = -12.0608127179027 | etot = -8.37462303172765
580000  ekin = 1.41115339285065 |  erot = 2.2001618841045 | epot = -11.9859383079095 | etot = -8.37462303095433
581000  ekin = 1.44674776514281 |  erot = 2.07475133366466 | epot = -11.8961221291487 | etot = -8.37462303034121
582000  ekin = 1.48514821809916 |  erot = 1.94050793883156 | epot = -11.8002791867221 | etot = -8.37462302979136
583000  ekin = 1.52576266955382 |  erot = 1.80603709649357 | epot = -11.7064227953868 | etot = -8.37462302933942
584000  ekin = 1.56772288057648 |  erot = 1.67887072895879 | epot = -11.6212166385388 | etot = -8.37462302900352
585000  ekin = 1.60990333959317 |  erot = 1.56509115870017 | epot = -11.5496175270895 | etot = -8.37462302879619
586000  ekin = 1.65096359832512 |  erot = 1.46905708280604 | epot = -11.4946437098573 | etot = -8.37462302872612
587000  ekin = 1.68940411635217 |  erot = 1.39319741549691 | epot = -11.4572245606452 | etot = -8.37462302879607
588000  ekin = 1.72364170526714 |  erot = 1.33790137441485 | epot = -11.4361661086779 | etot = -8.37462302899591
589000  ekin = 1.75212209152062 |  erot = 1.3015875625827 | epot = -11.4283326833787 | etot = -8.37462302927535
590000  ekin = 1.77348776906926 |  erot = 1.28111987724175 | epot = -11.4292306759265 | etot = -8.37462302961545
591000  ekin = 1.78679652584279 |  erot = 1.2722838860136 | epot = -11.4337034417696 | etot = -8.37462302991325
592000  ekin = 1.79174476962516 |  erot = 1.27074179819159 | epot = -11.4371095979238 | etot = -8.37462303010703
593000  ekin = 1.78882244319854 |  erot = 1.27295060805378 | epot = -11.4363960813967 | etot = -8.37462303014437
594000  ekin = 1.77931579000502 |  erot = 1.2768275282958 | epot = -11.4307663483269 | etot = -8.37462303002605
595000  ekin = 1.76511936072603 |  erot = 1.2819604422043 | epot = -11.4217028327285 | etot = -8.37462302979817
596000  ekin = 1.74839643260399 |  erot = 1.28931412525948 | epot = -11.4123335873949 | etot = -8.37462302953148
597000  ekin = 1.73114837530465 |  erot = 1.30076368908395 | epot = -11.4065350936836 | etot = -8.37462302929503
598000  ekin = 1.71482586358598 |  erot = 1.31808503745678 | epot = -11.4075339301912 | etot = -8.37462302914843
599000  ekin = 1.70035612856742 |  erot = 1.3425649905677 | epot = -11.417544148202 | etot = -8.37462302906685
600000  ekin = 1.68813838897309 |  erot = 1.37518403997246 | epot = -11.4379454579907 | etot = -8.37462302904513
601000  ekin = 1.67802155272642 |  erot = 1.41656361608885 | epot = -11.4692081979379 | etot = -8.37462302912259
602000  ekin = 1.66952241263303 |  erot = 1.46664302735508 | epot = -11.5107884691508 | etot = -8.37462302916268
603000  ekin = 1.66207455080855 |  erot = 1.52486246591497 | epot = -11.5615600460151 | etot = -8.37462302929162
604000  ekin = 1.6542927442501 |  erot = 1.59090716727003 | epot = -11.6198229409115 | etot = -8.37462302939132
605000  ekin = 1.64513458460873 |  erot = 1.6645196317729 | epot = -11.68427724585 | etot = -8.37462302946837
606000  ekin = 1.63397297141762 |  erot = 1.74533329764818 | epot = -11.7539292986251 | etot = -8.37462302955928
607000  ekin = 1.62046446185494 |  erot = 1.83246852419231 | epot = -11.8275560158102 | etot = -8.37462302976293
608000  ekin = 1.60415138614545 |  erot = 1.92384516554779 | epot = -11.9026195817789 | etot = -8.37462303008567
609000  ekin = 1.58416607276472 |  erot = 2.01562004721176 | epot = -11.974409150686 | etot = -8.37462303070949
610000  ekin = 1.55892234883736 |  erot = 2.10126039812532 | epot = -12.0348057783656 | etot = -8.37462303140292
611000  ekin = 1.52586403281539 |  erot = 2.17351542350509 | epot = -12.0740024883685 | etot = -8.37462303204803
612000  ekin = 1.4825279678083 |  erot = 2.22604744671983 | epot = -12.0831984469278 | etot = -8.37462303239972
613000  ekin = 1.42777710477443 |  erot = 2.25549715887384 | epot = -12.057897295914 | etot = -8.37462303226575
614000  ekin = 1.36284302675892 |  erot = 2.26309761369493 | epot = -12.0005636720726 | etot = -8.3746230316187
615000  ekin = 1.29166682111418 |  erot = 2.25472033318116 | epot = -11.9210101849095 | etot = -8.37462303061415
616000  ekin = 1.22033159945645 |  erot = 2.23929049961803 | epot = -11.8342451285797 | etot = -8.3746230295052
617000  ekin = 1.15585313012806 |  erot = 2.22643765865191 | epot = -11.7569138173069 | etot = -8.37462302852692
618000  ekin = 1.10482633868281 |  erot = 2.22445549381317 | epot = -11.703904860323 | etot = -8.37462302782702
619000  ekin = 1.07233800595233 |  erot = 2.23915844398183 | epot = -11.686119477403 | etot = -8.37462302746885
620000  ekin = 1.06133969547929 |  erot = 2.27356598267652 | epot = -11.7095287055701 | etot = -8.37462302741426
621000  ekin = 1.07250328125059 |  erot = 2.3282764043955 | epot = -11.7754027132591 | etot = -8.37462302761301
622000  ekin = 1.10448299243283 |  erot = 2.40202886262695 | epot = -11.8811348830517 | etot = -8.37462302799193
623000  ekin = 1.15443583438885 |  erot = 2.49214268564757 | epot = -12.0212015485354 | etot = -8.37462302849902
624000  ekin = 1.2185850449635 |  erot = 2.59479979276571 | epot = -12.1880078668328 | etot = -8.37462302910356
625000  ekin = 1.29260009291012 |  erot = 2.70513041487662 | epot = -12.3723535376303 | etot = -8.37462302984353
626000  ekin = 1.37166908699354 |  erot = 2.81669294847368 | epot = -12.5629850662423 | etot = -8.37462303077506
627000  ekin = 1.45036408324169 |  erot = 2.92095656625447 | epot = -12.7459436813997 | etot = -8.37462303190359
628000  ekin = 1.52265779656699 |  erot = 3.00738157699049 | epot = -12.9046624066506 | etot = -8.37462303309307
629000  ekin = 1.58251554244259 |  erot = 3.06484099788408 | epot = -13.0219795743754 | etot = -8.37462303404871
630000  ekin = 1.62514418880337 |  erot = 3.08443014422475 | epot = -13.0841973674697 | etot = -8.37462303444157
631000  ekin = 1.64954255052048 |  erot = 3.06336922300758 | epot = -13.0875348072901 | etot = -8.37462303376204
632000  ekin = 1.65761419155166 |  erot = 3.00573585958576 | epot = -13.0379730841191 | etot = -8.37462303298165
633000  ekin = 1.65174795094912 |  erot = 2.91965232777674 | epot = -12.9460233106371 | etot = -8.37462303191122
634000  ekin = 1.63566753659108 |  erot = 2.81604656742636 | epot = -12.8263371348987 | etot = -8.37462303088127
635000  ekin = 1.61303222685238 |  erot = 2.70552755471528 | epot = -12.6931828116736 | etot = -8.37462303010594
636000  ekin = 1.58646965557207 |  erot = 2.59633719499181 | epot = -12.5574298801986 | etot = -8.37462302963469
637000  ekin = 1.55730595137539 |  erot = 2.49385627805374 | epot = -12.4257852588274 | etot = -8.37462302939823
638000  ekin = 1.52584911626122 |  erot = 2.40123459741471 | epot = -12.3017067429588 | etot = -8.37462302928287
639000  ekin = 1.49192497641984 |  erot = 2.32043250458043 | epot = -12.1869805101867 | etot = -8.37462302918644
640000  ekin = 1.45541378442934 |  erot = 2.25314232065171 | epot = -12.083179134123 | etot = -8.37462302904197
641000  ekin = 1.4166491992725 |  erot = 2.20135144254608 | epot = -11.9926236706418 | etot = -8.37462302882326
642000  ekin = 1.37663135857252 |  erot = 2.16751840710901 | epot = -11.9187727942197 | etot = -8.37462302853815
643000  ekin = 1.33719601642867 |  erot = 2.15436138730883 | epot = -11.8661804319178 | etot = -8.37462302818028
644000  ekin = 1.30095460066298 |  erot = 2.16433354914077 | epot = -11.839911177713 | etot = -8.37462302790927
645000  ekin = 1.27009047740111 |  erot = 2.19964354153021 | epot = -11.8443570466387 | etot = -8.37462302770743
646000  ekin = 1.24673444983097 |  erot = 2.26154821904857 | epot = -11.882905696521 | etot = -8.37462302764144
647000  ekin = 1.23265873214796 |  erot = 2.34972644269169 | epot = -11.957008202618 | etot = -8.37462302777833
648000  ekin = 1.22854704146518 |  erot = 2.4614698466802 | epot = -12.0646399168195 | etot = -8.37462302867415
649000  ekin = 1.23123438274848 |  erot = 2.58918284108585 | epot = -12.1950402534729 | etot = -8.37462302963856
650000  ekin = 1.23733747325548 |  erot = 2.72274115028498 | epot = -12.3347016542464 | etot = -8.37462303070591
651000  ekin = 1.24289918510312 |  erot = 2.85114575373848 | epot = -12.4686679705691 | etot = -8.37462303172749
652000  ekin = 1.24424620799598 |  erot = 2.96370857037656 | epot = -12.5825778108355 | etot = -8.37462303246295
653000  ekin = 1.23918232850118 |  erot = 3.05217314601573 | epot = -12.6659785072745 | etot = -8.37462303275754
654000  ekin = 1.22772861478185 |  erot = 3.11212236727186 | epot = -12.7144740146721 | etot = -8.37462303261837
655000  ekin = 1.21201905901883 |  erot = 3.14303840850265 | epot = -12.7296804997141 | etot = -8.37462303219263
656000  ekin = 1.19543744331557 |  erot = 3.1472043556272 | epot = -12.717264830612 | etot = -8.37462303166922
657000  ekin = 1.1814930510954 |  erot = 3.12826014298738 | epot = -12.6843762252665 | etot = -8.37462303118371
658000  ekin = 1.17296379523421 |  erot = 3.09016086418898 | epot = -12.6377476902109 | etot = -8.37462303078768
659000  ekin = 1.17154758060714 |  erot = 3.03675236917095 | epot = -12.5829229802521 | etot = -8.37462303047405
[...]
837000  ekin = 1.32614569947165 |  erot = 2.35776552710305 | epot = -12.0585342558939 | etot = -8.37462302931917
838000  ekin = 1.34030084314995 |  erot = 2.42442328374081 | epot = -12.139347156672 | etot = -8.37462302978121
839000  ekin = 1.36395770574655 |  erot = 2.48350186339417 | epot = -12.2220825994143 | etot = -8.37462303027354
840000  ekin = 1.39499323418974 |  erot = 2.52993036126987 | epot = -12.2995466261511 | etot = -8.37462303069152
841000  ekin = 1.43098519527422 |  erot = 2.5599379691956 | epot = -12.3655461954166 | etot = -8.37462303094678
842000  ekin = 1.46971603977216 |  erot = 2.57185321605216 | epot = -12.416192286821 | etot = -8.37462303099667
843000  ekin = 1.50953312207128 |  erot = 2.56639824292026 | epot = -12.4505543958523 | etot = -8.37462303086072
844000  ekin = 1.54948222761285 |  erot = 2.54631968029351 | epot = -12.4704249385206 | etot = -8.37462303061426
845000  ekin = 1.58921446593512 |  erot = 2.51544731884043 | epot = -12.4792848151338 | etot = -8.37462303035821
846000  ekin = 1.62874660077506 |  erot = 2.47751369447731 | epot = -12.4808833254336 | etot = -8.37462303018124
847000  ekin = 1.66818957259095 |  erot = 2.43516936581845 | epot = -12.4779819685369 | etot = -8.37462303012748
848000  ekin = 1.70754173435641 |  erot = 2.38953851006948 | epot = -12.4717032746117 | etot = -8.37462303018578
849000  ekin = 1.74659403310612 |  erot = 2.34043091651457 | epot = -12.4616479799223 | etot = -8.37462303030163
850000  ekin = 1.78494345870356 |  erot = 2.28706007035913 | epot = -12.4466265594671 | etot = -8.37462303040443
851000  ekin = 1.82207688731629 |  erot = 2.228914200592 | epot = -12.42561411835 | etot = -8.3746230304417
852000  ekin = 1.85747606631012 |  erot = 2.16637383860093 | epot = -12.3984729353117 | etot = -8.37462303040065
853000  ekin = 1.89070501220074 |  erot = 2.10080168930645 | epot = -12.3661297318176 | etot = -8.37462303031038
854000  ekin = 1.9214659858435 |  erot = 2.03409194229 | epot = -12.3301809583572 | etot = -8.37462303022366
855000  ekin = 1.94963553793794 |  erot = 1.96792069984453 | epot = -12.2921792679713 | etot = -8.37462303018887
856000  ekin = 1.97530408458121 |  erot = 1.90306034558465 | epot = -12.2529874603915 | etot = -8.37462303022566
857000  ekin = 1.99898235180446 |  erot = 1.83954776706262 | epot = -12.2131531489303 | etot = -8.37462303006319
858000  ekin = 2.02148966900432 |  erot = 1.77712472332923 | epot = -12.1732374225549 | etot = -8.37462303022136
859000  ekin = 2.0433298482171 |  erot = 1.71372610051619 | epot = -12.1316789790703 | etot = -8.37462303033704
860000  ekin = 2.06530510870649 |  erot = 1.64761266612194 | epot = -12.0875408051794 | etot = -8.37462303035096
861000  ekin = 2.08844047530034 |  erot = 1.57839130427194 | epot = -12.0414548098105 | etot = -8.37462303023818
862000  ekin = 2.11372996883785 |  erot = 1.50759861504335 | epot = -11.9959516139068 | etot = -8.37462303002562
863000  ekin = 2.14175193685403 |  erot = 1.43866072803281 | epot = -11.9550356946781 | etot = -8.37462302979131
864000  ekin = 2.17225364148361 |  erot = 1.37614575520133 | epot = -11.923022426322 | etot = -8.37462302963709
865000  ekin = 2.20389689307595 |  erot = 1.32450432851186 | epot = -11.9030242512271 | etot = -8.37462302963933
866000  ekin = 2.23438769162011 |  erot = 1.28681328074455 | epot = -11.8958240018387 | etot = -8.37462302947405
867000  ekin = 2.26151301830529 |  erot = 1.26501341503676 | epot = -11.9011494631015 | etot = -8.37462302975946
868000  ekin = 2.28295312631386 |  erot = 1.25876385672369 | epot = -11.9163400130151 | etot = -8.37462302997758
869000  ekin = 2.29713139084229 |  erot = 1.26636363804849 | epot = -11.9381180589386 | etot = -8.37462303004779
870000  ekin = 2.30388454561698 |  erot = 1.28638972777536 | epot = -11.9648973033815 | etot = -8.37462302998917
871000  ekin = 2.30409365407575 |  erot = 1.31787621263324 | epot = -11.9965928970681 | etot = -8.37462303035909
872000  ekin = 2.29712455302405 |  erot = 1.35930276714017 | epot = -12.0310503505215 | etot = -8.37462303035724
873000  ekin = 2.28274539313174 |  erot = 1.40846954678439 | epot = -12.0658379700283 | etot = -8.37462303011216
874000  ekin = 2.26320703625639 |  erot = 1.46277950106241 | epot = -12.1006095675436 | etot = -8.37462303022481
875000  ekin = 2.24001634727781 |  erot = 1.51889022328921 | epot = -12.1335296008602 | etot = -8.3746230302932
876000  ekin = 2.21430830467358 |  erot = 1.57348199616131 | epot = -12.1624133311162 | etot = -8.37462303028127
877000  ekin = 2.18777848574912 |  erot = 1.62389020162125 | epot = -12.186291717523 | etot = -8.37462303015259
878000  ekin = 2.1625289754971 |  erot = 1.6683879309175 | epot = -12.2055399364741 | etot = -8.37462303005945
879000  ekin = 2.14044753724287 |  erot = 1.70571411561398 | epot = -12.220784682854 | etot = -8.37462302999713
880000  ekin = 2.12277471005516 |  erot = 1.7346996712217 | epot = -12.2320974113065 | etot = -8.37462303002968
881000  ekin = 2.10977467363156 |  erot = 1.75399371448721 | epot = -12.2383914183077 | etot = -8.37462303018896
882000  ekin = 2.10050164325684 |  erot = 1.76187019273065 | epot = -12.2369948664373 | etot = -8.37462303044976
883000  ekin = 2.09290867716185 |  erot = 1.75649694683761 | epot = -12.2240286547192 | etot = -8.37462303071974
884000  ekin = 2.08433703648905 |  erot = 1.7367150045413 | epot = -12.1956750719427 | etot = -8.37462303091231
885000  ekin = 2.07202901576595 |  erot = 1.7028259206429 | epot = -12.1494779673696 | etot = -8.37462303096077
886000  ekin = 2.05378411495457 |  erot = 1.6566047646792 | epot = -12.085011910272 | etot = -8.37462303063819
887000  ekin = 2.02874297424939 |  erot = 1.60297409536587 | epot = -12.0063400996892 | etot = -8.37462303007394
888000  ekin = 1.99720256587183 |  erot = 1.54912086819091 | epot = -11.9209464635251 | etot = -8.37462302946235
889000  ekin = 1.95913963740047 |  erot = 1.50198702363197 | epot = -11.8357496899597 | etot = -8.37462302892728
890000  ekin = 1.91617614846425 |  erot = 1.46746689319387 | epot = -11.7582660701973 | etot = -8.37462302853923
891000  ekin = 1.87023137420534 |  erot = 1.44931992803353 | epot = -11.6941743305672 | etot = -8.37462302832828
892000  ekin = 1.82316218739014 |  erot = 1.44889048221078 | epot = -11.6466756978758 | etot = -8.37462302827483
893000  ekin = 1.77672781689597 |  erot = 1.46538080237729 | epot = -11.6167316476053 | etot = -8.37462302833208
894000  ekin = 1.73267401011555 |  erot = 1.49642015516969 | epot = -11.6037171937257 | etot = -8.37462302844046
895000  ekin = 1.6928761544742 |  erot = 1.53876375532456 | epot = -11.6062629383404 | etot = -8.3746230285416
896000  ekin = 1.65946528813143 |  erot = 1.58897281247465 | epot = -11.623061129204 | etot = -8.3746230285979
897000  ekin = 1.63484229164664 |  erot = 1.64389812669818 | epot = -11.6533634469444 | etot = -8.37462302859954
898000  ekin = 1.62150447332881 |  erot = 1.70104293739242 | epot = -11.6971704392952 | etot = -8.374623028574
899000  ekin = 1.6216839414652 |  erot = 1.75850368933565 | epot = -11.754810659374 | etot = -8.37462302857311
900000  ekin = 1.63689346404105 |  erot = 1.81470313435645 | epot = -11.8262196270434 | etot = -8.37462302864591
901000  ekin = 1.6675338774235 |  erot = 1.86808611512452 | epot = -11.9102430213676 | etot = -8.37462302881957
902000  ekin = 1.71269692237727 |  erot = 1.91693084831131 | epot = -12.0042507997782 | etot = -8.3746230290896
903000  ekin = 1.77021838508048 |  erot = 1.9593405098069 | epot = -12.1041819243172 | etot = -8.37462302942986
904000  ekin = 1.83694819296679 |  erot = 1.9934131207578 | epot = -12.2049843435093 | etot = -8.37462302978473
905000  ekin = 1.9091464165457 |  erot = 2.01754527640836 | epot = -12.3013147230679 | etot = -8.37462303011389
906000  ekin = 1.98289589689518 |  erot = 2.03065122053356 | epot = -12.3881701478152 | etot = -8.37462303038642
907000  ekin = 2.0544387792582 |  erot = 2.03228127519948 | epot = -12.4613430850491 | etot = -8.37462303059146
908000  ekin = 2.12038320008435 |  erot = 2.02259637573229 | epot = -12.5176026065511 | etot = -8.37462303073442
909000  ekin = 2.17777472068537 |  erot = 2.00223868776878 | epot = -12.554636439284 | etot = -8.37462303082986
910000  ekin = 2.22407231391338 |  erot = 1.9721845909131 | epot = -12.5708799357147 | etot = -8.37462303088825
911000  ekin = 2.25709881234482 |  erot = 1.93367043928136 | epot = -12.5653922825338 | etot = -8.37462303090759
912000  ekin = 2.27504055969691 |  erot = 1.88824345128016 | epot = -12.5379070418475 | etot = -8.37462303087045
913000  ekin = 2.27654326620465 |  erot = 1.83792322952128 | epot = -12.489089526477 | etot = -8.3746230307511
914000  ekin = 2.26395838710281 |  erot = 1.78540897808978 | epot = -12.4239903948688 | etot = -8.37462302967619
915000  ekin = 2.2404546891426 |  erot = 1.73372810073202 | epot = -12.3488058193935 | etot = -8.37462302951889
916000  ekin = 2.20520370203194 |  erot = 1.68615105201165 | epot = -12.2659777833575 | etot = -8.37462302931391
917000  ekin = 2.15800582906335 |  erot = 1.64606783760092 | epot = -12.1786966957696 | etot = -8.37462302910529
918000  ekin = 2.09921834410539 |  erot = 1.61647797763549 | epot = -12.0903193506726 | etot = -8.37462302893175
919000  ekin = 2.02966476141014 |  erot = 1.59954949783084 | epot = -12.0038372880469 | etot = -8.3746230288059
920000  ekin = 1.95065755947246 |  erot = 1.59642144858295 | epot = -11.9217020368539 | etot = -8.37462302879853
921000  ekin = 1.8636620064885 |  erot = 1.60750866082269 | epot = -11.8457936959448 | etot = -8.37462302863366
922000  ekin = 1.77152243883442 |  erot = 1.63263587423585 | epot = -11.7787813414987 | etot = -8.3746230284284
923000  ekin = 1.67869484031726 |  erot = 1.67111175336598 | epot = -11.7244296218725 | etot = -8.37462302818924
924000  ekin = 1.59024537020744 |  erot = 1.72202288866753 | epot = -11.6868912868401 | etot = -8.37462302796509
925000  ekin = 1.51123937037388 |  erot = 1.78411652413432 | epot = -11.6699789223347 | etot = -8.37462302782654
926000  ekin = 1.44599317765939 |  erot = 1.85554834410282 | epot = -11.6761645495869 | etot = -8.37462302782471
927000  ekin = 1.39752558603051 |  erot = 1.9337066123923 | epot = -11.7058552263851 | etot = -8.37462302796227
928000  ekin = 1.36763823811589 |  erot = 2.01538770685265 | epot = -11.7576489728592 | etot = -8.37462302789061
929000  ekin = 1.36100399985385 |  erot = 2.09737818243304 | epot = -11.8330052107535 | etot = -8.37462302846664
930000  ekin = 1.35523134973969 |  erot = 2.17722433888997 | epot = -11.9070787110181 | etot = -8.37462302238848
931000  ekin = 1.39431469293821 |  erot = 2.25435620443639 | epot = -12.0232939189487 | etot = -8.37462302157406
932000  ekin = 1.49280866700354 |  erot = 2.31847930199535 | epot = -12.1859109889732 | etot = -8.37462301997432
933000  ekin = 1.58533340940733 |  erot = 2.36490000063033 | epot = -12.3248564302632 | etot = -8.37462302022554
934000  ekin = 1.6869071209185 |  erot = 2.39298221172759 | epot = -12.4545123552844 | etot = -8.37462302263832
935000  ekin = 1.78473836456431 |  erot = 2.39676204063713 | epot = -12.5561234284098 | etot = -8.37462302320837
936000  ekin = 1.86987725379427 |  erot = 2.37258693735196 | epot = -12.6170872146559 | etot = -8.37462302350971
937000  ekin = 1.93720452631658 |  erot = 2.32043568375497 | epot = -12.6322632335806 | etot = -8.37462302350909
938000  ekin = 1.98385208904068 |  erot = 2.24266190734032 | epot = -12.6011370196061 | etot = -8.37462302322507
939000  ekin = 2.00910923701481 |  erot = 2.14379034932402 | epot = -12.5275226090719 | etot = -8.37462302273311
940000  ekin = 2.01395507287334 |  erot = 2.02993348653353 | epot = -12.418511581502 | etot = -8.37462302209516
941000  ekin = 2.00103743451128 |  erot = 1.90808629517054 | epot = -12.2837467510605 | etot = -8.37462302137871
942000  ekin = 1.97419824311637 |  erot = 1.78546116622027 | epot = -12.1342824299796 | etot = -8.37462302064296
943000  ekin = 1.93808318012258 |  erot = 1.66892069893474 | epot = -11.9816268989915 | etot = -8.37462301993416
944000  ekin = 1.89777663363129 |  erot = 1.56456198515432 | epot = -11.8369616380752 | etot = -8.37462301928957
945000  ekin = 1.8584360574195 |  erot = 1.4774221417799 | epot = -11.7104812179438 | etot = -8.3746230187444
946000  ekin = 1.82491092903916 |  erot = 1.4112458813268 | epot = -11.6107798287017 | etot = -8.3746230183357
947000  ekin = 1.80134221891273 |  erot = 1.36826076777987 | epot = -11.544226004796 | etot = -8.37462301810342
948000  ekin = 1.79076227761391 |  erot = 1.34894522657999 | epot = -11.514330522277 | etot = -8.37462301808307
949000  ekin = 1.79475359827847 |  erot = 1.35184135985215 | epot = -11.5212179764226 | etot = -8.37462301829198
950000  ekin = 1.81326202056042 |  erot = 1.37352812800741 | epot = -11.5614131672793 | etot = -8.37462301871149
951000  ekin = 1.84466122234651 |  erot = 1.40888082072085 | epot = -11.6281650623473 | etot = -8.37462301927996
952000  ekin = 1.88610598522676 |  erot = 1.45166996303417 | epot = -11.7123989681623 | etot = -8.37462301990139
953000  ekin = 1.934156262123 |  erot = 1.49545802204409 | epot = -11.8042373044958 | etot = -8.3746230203287
954000  ekin = 1.98570845877452 |  erot = 1.53486140745232 | epot = -11.8951928869974 | etot = -8.37462302077055
955000  ekin = 2.03763688301833 |  erot = 1.56575119860864 | epot = -11.9780111026545 | etot = -8.37462302102751
956000  ekin = 2.08752516851332 |  erot = 1.58576425984886 | epot = -12.0479124494575 | etot = -8.3746230210953
957000  ekin = 2.13388693711082 |  erot = 1.59443657070954 | epot = -12.1029465288261 | etot = -8.37462302100571
958000  ekin = 2.17603134876119 |  erot = 1.59291217732942 | epot = -12.1435665469034 | etot = -8.37462302081277
959000  ekin = 2.21381255039447 |  erot = 1.58343493097992 | epot = -12.1718705019502 | etot = -8.37462302057581
960000  ekin = 2.24735101958393 |  erot = 1.56876603519003 | epot = -12.1907400751222 | etot = -8.37462302034826
961000  ekin = 2.27678636586191 |  erot = 1.55164507315893 | epot = -12.2030544591906 | etot = -8.37462302016977
962000  ekin = 2.30208813281834 |  erot = 1.53436606864973 | epot = -12.2110772215359 | etot = -8.3746230200678
963000  ekin = 2.32292955592992 |  erot = 1.51849868392629 | epot = -12.216051259911 | etot = -8.37462302005475
964000  ekin = 2.33862421271349 |  erot = 1.50476151871897 | epot = -12.2180087515615 | etot = -8.37462302012903
965000  ekin = 2.34813222218501 |  erot = 1.49304783088655 | epot = -12.2158030733455 | etot = -8.37462302027398
966000  ekin = 2.35015122859632 |  erot = 1.48260237415612 | epot = -12.2073766232095 | etot = -8.37462302045703
967000  ekin = 2.34330726073581 |  erot = 1.47233774694663 | epot = -12.1902680283141 | etot = -8.37462302063161
968000  ekin = 2.32644504723609 |  erot = 1.4612521262929 | epot = -12.1623201942732 | etot = -8.3746230207442
969000  ekin = 2.298987719283 |  erot = 1.44887277461076 | epot = -12.1224835146385 | etot = -8.37462302074475
970000  ekin = 2.26130276222912 |  erot = 1.43562016618933 | epot = -12.0715459490187 | etot = -8.37462302060021
971000  ekin = 2.21499063344576 |  erot = 1.42298879008891 | epot = -12.0126024438385 | etot = -8.37462302030381
972000  ekin = 2.16303757459317 |  erot = 1.413484724074 | epot = -11.9511453184525 | etot = -8.37462301978536
973000  ekin = 2.10950969279595 |  erot = 1.41039391552952 | epot = -11.8945266279348 | etot = -8.37462301960932
974000  ekin = 2.05703199423842 |  erot = 1.417325038755 | epot = -11.8489800521527 | etot = -8.37462301915926
975000  ekin = 2.01010390576686 |  erot = 1.43732066925471 | epot = -11.8220475937773 | etot = -8.37462301875575
976000  ekin = 1.97340114976942 |  erot = 1.4726138540038 | epot = -11.820638022252 | etot = -8.37462301847879
977000  ekin = 1.95082006441383 |  erot = 1.52416835989321 | epot = -11.8496114427088 | etot = -8.37462301840173
978000  ekin = 1.94472832265077 |  erot = 1.59131019464789 | epot = -11.9106615358753 | etot = -8.3746230185766
979000  ekin = 1.95538713562964 |  erot = 1.67153495876314 | epot = -12.0015451134109 | etot = -8.37462301901814
980000  ekin = 1.98067723854538 |  erot = 1.76051368581332 | epot = -12.1158139441448 | etot = -8.37462301978612
981000  ekin = 2.0157957191225 |  erot = 1.85207319544778 | epot = -12.2424919352215 | etot = -8.37462302065118
982000  ekin = 2.05441082025382 |  erot = 1.93952253760915 | epot = -12.3685563793656 | etot = -8.37462302150267
983000  ekin = 2.08992138423356 |  erot = 2.0167128031244 | epot = -12.4812572095418 | etot = -8.37462302218386
984000  ekin = 2.11656909805995 |  erot = 2.0791069697044 | epot = -12.5702990903412 | etot = -8.37462302257681
985000  ekin = 2.13033501087735 |  erot = 2.12464764348882 | epot = -12.6296056770033 | etot = -8.37462302263715
986000  ekin = 2.12935596235087 |  erot = 2.15403431726419 | epot = -12.6580133020188 | etot = -8.37462302240378
987000  ekin = 2.11471923976004 |  erot = 2.17104098415556 | epot = -12.6603832458026 | etot = -8.37462302188695
988000  ekin = 2.0911973509168 |  erot = 2.18228698931119 | epot = -12.648107361857 | etot = -8.37462302162897
989000  ekin = 2.06027968793927 |  erot = 2.19075462083259 | epot = -12.6256573301712 | etot = -8.37462302139929
990000  ekin = 2.02336255783948 |  erot = 2.19843813689039 | epot = -12.5964237159713 | etot = -8.3746230212414
991000  ekin = 1.98188077464448 |  erot = 2.20638055721807 | epot = -12.5628843530207 | etot = -8.37462302115815
992000  ekin = 1.9371574969609 |  erot = 2.21473069770544 | epot = -12.526511215791 | etot = -8.37462302112469
993000  ekin = 1.89038311214042 |  erot = 2.22307759882966 | epot = -12.4880837320782 | etot = -8.37462302110816
994000  ekin = 1.84266575145737 |  erot = 2.23084817714076 | epot = -12.4481369496809 | etot = -8.37462302108277
995000  ekin = 1.79502825855483 |  erot = 2.23761066004422 | epot = -12.4072619396231 | etot = -8.37462302102401
996000  ekin = 1.74865820363213 |  erot = 2.24323231093978 | epot = -12.3665135355147 | etot = -8.37462302094276
997000  ekin = 1.70508150024523 |  erot = 2.24765365397734 | epot = -12.3273581750827 | etot = -8.37462302086018
998000  ekin = 1.66588125251577 |  erot = 2.25078611342452 | epot = -12.2912903867191 | etot = -8.37462302077885
999000  ekin = 1.63259998377321 |  erot = 2.25262768597372 | epot = -12.2598506904229 | etot = -8.37462302067593
1000000  ekin = 1.60661879884278 |  erot = 2.25373528621647 | epot = -12.2349771056213 | etot = -8.37462302056205
 1000000    0.1190088   -1.3493654   0.12586767   -1.0628358 0.00017426596        64000 
Loop time of 13.0812 on 4 procs for 1000000 steps with 10 atoms

Performance: 66048.962 tau/day, 76445.558 timesteps/s
99.7% CPU use with 4 MPI tasks x no OpenMP threads

MPI task timing breakdown:
Section |  min time  |  avg time  |  max time  |%varavg| %total
---------------------------------------------------------------
Pair    | 3.0631     | 4.6538     | 7.2171     |  72.4 | 35.58
Bond    | 0.17909    | 0.26012    | 0.34382    |  11.7 |  1.99
Neigh   | 0.005471   | 0.005514   | 0.005554   |   0.0 |  0.04
Comm    | 3.0767     | 5.9677     | 7.5973     |  70.7 | 45.62
Output  | 0.072802   | 0.075774   | 0.080905   |   1.1 |  0.58
Modify  | 0.5268     | 0.6169     | 0.72175    |  11.4 |  4.72
Other   |            | 1.501      |            |       | 11.48

Nlocal:        2.50000 ave           3 max           2 min
Histogram: 2 0 0 0 0 0 0 0 0 2
Nghost:        7.50000 ave           8 max           7 min
Histogram: 2 0 0 0 0 0 0 0 0 2
Neighs:        9.25000 ave          15 max           2 min
Histogram: 1 0 0 0 1 0 0 1 0 1

Total # of neighbors = 37
Ave neighs/atom = 3.7000000
Ave special neighs/atom = 3.6000000
Neighbor list builds = 1000
Dangerous builds = 0

write_data last_config.${number}.* nocoeff
write_data last_config.1.* nocoeff
System init for write_data ...
#write_restart last_config.${number}.*
Total wall time: 0:00:13
