LAMMPS (27 May 2021)
variable number	equal 1
variable ofreq	equal 1000
variable efreq	equal 1000
variable T      equal 0.1
variable rhos   equal 0.2

units lj

dimension 3

newton off

boundary  p p p

atom_style hybrid bond ellipsoid oxdna
WARNING: Atom style hybrid defines both, per-type and per-atom masses; both must be set, but only per-atom masses will be used (../atom_vec_hybrid.cpp:157)
atom_modify sort 0 1.0

# Pair interactions require lists of neighbours to be calculated
neighbor 2.0 bin
neigh_modify every 1 delay 0 check yes

read_data data.duplex1
Reading data file ...
  orthogonal box = (-20.000000 -20.000000 -20.000000) to (20.000000 20.000000 20.000000)
  1 by 2 by 2 MPI processor grid
  reading atoms ...
  10 atoms
  reading velocities ...
  10 velocities
  scanning bonds ...
  2 = max bonds/atom
  10 ellipsoids
  reading bonds ...
  8 bonds
Finding 1-2 1-3 1-4 neighbors ...
  special bond factors lj:    0        0        0       
  special bond factors coul:  0        0        0       
     2 = max # of 1-2 neighbors
     2 = max # of 1-3 neighbors
     2 = max # of 1-4 neighbors
     4 = max # of special neighbors
  special bonds CPU = 0.001 seconds
  read_data CPU = 0.005 seconds

set atom * mass 3.1575
Setting atom values ...
  10 settings made for mass

group all type 1 4
10 atoms in group all

# oxDNA2 bond interactions - FENE backbone
bond_style oxdna2/fene
bond_coeff * 2.0 0.25 0.7564
special_bonds lj 0 1 1
Finding 1-2 1-3 1-4 neighbors ...
  special bond factors lj:    0        1        1       
  special bond factors coul:  0        0        0       
     2 = max # of 1-2 neighbors
     2 = max # of 1-3 neighbors
     2 = max # of 1-4 neighbors
     4 = max # of special neighbors
  special bonds CPU = 0.000 seconds

# oxDNA2 pair interactions
pair_style hybrid/overlay oxdna2/excv oxdna2/stk oxdna2/hbond oxdna2/xstk oxdna2/coaxstk oxdna2/dh
pair_coeff * * oxdna2/excv    2.0 0.7 0.675 2.0 0.515 0.5 2.0 0.33 0.32
pair_coeff * * oxdna2/stk     seqav ${T} 1.3523 2.6717 6.0 0.4 0.9 0.32 0.75 1.3 0 0.8 0.9 0 0.95 0.9 0 0.95 2.0 0.65 2.0 0.65
pair_coeff * * oxdna2/stk     seqav 0.1 1.3523 2.6717 6.0 0.4 0.9 0.32 0.75 1.3 0 0.8 0.9 0 0.95 0.9 0 0.95 2.0 0.65 2.0 0.65
pair_coeff * * oxdna2/hbond   seqav 0.0 8.0 0.4 0.75 0.34 0.7 1.5 0 0.7 1.5 0 0.7 1.5 0 0.7 0.46 3.141592653589793 0.7 4.0 1.5707963267948966 0.45 4.0 1.5707963267948966 0.45
pair_coeff 1 4 oxdna2/hbond   seqav 1.0678 8.0 0.4 0.75 0.34 0.7 1.5 0 0.7 1.5 0 0.7 1.5 0 0.7 0.46 3.141592653589793 0.7 4.0 1.5707963267948966 0.45 4.0 1.5707963267948966 0.45
pair_coeff 2 3 oxdna2/hbond   seqav 1.0678 8.0 0.4 0.75 0.34 0.7 1.5 0 0.7 1.5 0 0.7 1.5 0 0.7 0.46 3.141592653589793 0.7 4.0 1.5707963267948966 0.45 4.0 1.5707963267948966 0.45
pair_coeff * * oxdna2/xstk    47.5 0.575 0.675 0.495 0.655 2.25 0.791592653589793 0.58 1.7 1.0 0.68 1.7 1.0 0.68 1.5 0 0.65 1.7 0.875 0.68 1.7 0.875 0.68
pair_coeff * * oxdna2/coaxstk 58.5 0.4 0.6 0.22 0.58 2.0 2.891592653589793 0.65 1.3 0 0.8 0.9 0 0.95 0.9 0 0.95 40.0 3.116592653589793
pair_coeff * * oxdna2/dh      ${T} ${rhos} 0.815
pair_coeff * * oxdna2/dh      0.1 ${rhos} 0.815
pair_coeff * * oxdna2/dh      0.1 0.2 0.815

# NVE ensemble
fix 1 all nve/asphere
#fix 2 all langevin ${T} ${T} 2.5 457145 angmom 10

timestep 1e-5

#comm_style tiled
fix 3 all balance 1000 1.03 shift xyz 10 1.03
comm_modify cutoff 3.8

compute quat all property/atom quatw quati quatj quatk

compute erot all erotate/asphere
compute ekin all ke
compute epot all pe
variable erot equal c_erot
variable ekin equal c_ekin
variable epot equal c_epot
variable etot equal c_erot+c_ekin+c_epot
fix 5 all print ${efreq} "$(step)  ekin = ${ekin} |  erot = ${erot} | epot = ${epot} | etot = ${etot}" screen yes
fix 5 all print 1000 "$(step)  ekin = ${ekin} |  erot = ${erot} | epot = ${epot} | etot = ${etot}" screen yes

dump out all custom ${ofreq} out.${number}.lammpstrj id mol type x y z ix iy iz vx vy vz c_quat[1] c_quat[2] c_quat[3] c_quat[4] angmomx angmomy angmomz
dump out all custom 1000 out.${number}.lammpstrj id mol type x y z ix iy iz vx vy vz c_quat[1] c_quat[2] c_quat[3] c_quat[4] angmomx angmomy angmomz
dump out all custom 1000 out.1.lammpstrj id mol type x y z ix iy iz vx vy vz c_quat[1] c_quat[2] c_quat[3] c_quat[4] angmomx angmomy angmomz
dump_modify out sort id
dump_modify out format line "%d %d %d  %22.15le %22.15le %22.15le  %d %d %d  %22.15le %22.15le %22.15le  %22.15le %22.15le %22.15le %22.15le  %22.15le %22.15le %22.15le"

run 1000000
Neighbor list info ...
  update every 1 steps, delay 0 steps, check yes
  max neighbors/atom: 2000, page size: 100000
  master list distance cutoff = 5.6389877
  ghost atom cutoff = 5.6389877
  binsize = 2.8194939, bins = 15 15 15
  5 neighbor lists, perpetual/occasional/extra = 5 0 0
  (1) pair oxdna2/excv, perpetual
      attributes: half, newton off
      pair build: half/bin/newtoff
      stencil: full/bin/3d
      bin: standard
  (2) pair oxdna2/hbond, perpetual, copy from (1)
      attributes: half, newton off
      pair build: copy
      stencil: none
      bin: none
  (3) pair oxdna2/xstk, perpetual, copy from (1)
      attributes: half, newton off
      pair build: copy
      stencil: none
      bin: none
  (4) pair oxdna2/coaxstk, perpetual, copy from (1)
      attributes: half, newton off
      pair build: copy
      stencil: none
      bin: none
  (5) pair oxdna2/dh, perpetual, copy from (1)
      attributes: half, newton off
      pair build: copy
      stencil: none
      bin: none
WARNING: Communication cutoff adjusted to 5.638987723814632 (../comm.cpp:739)
0  ekin = 1.10853632272819 |  erot = 2.81573649976629 | epot = -12.298895791142 | etot = -8.37462296864754
Per MPI rank memory allocation (min/avg/max) = 9.444 | 9.445 | 9.446 Mbytes
Step Temp E_pair E_mol TotEng Press Volume 
       0  0.082113802   -1.3370157   0.10712616   -1.1190359 -6.6192825e-05        64000 
1000  ekin = 1.07640077431763 |  erot = 2.90684392233818 | epot = -12.357867665527 | etot = -8.37462296887121
2000  ekin = 1.05363107794411 |  erot = 2.99414178935848 | epot = -12.4223958364623 | etot = -8.37462296915967
3000  ekin = 1.04083382823095 |  erot = 3.07274362339768 | epot = -12.48820042109 | etot = -8.37462296946132
4000  ekin = 1.03780093165925 |  erot = 3.13815143503908 | epot = -12.550575336422 | etot = -8.37462296972371
5000  ekin = 1.04371581655901 |  erot = 3.18681185449848 | epot = -12.6051506409707 | etot = -8.37462296991322
6000  ekin = 1.05738085799297 |  erot = 3.21642353087471 | epot = -12.6484273588875 | etot = -8.37462297001986
7000  ekin = 1.07739394884044 |  erot = 3.22597832036687 | epot = -12.677995239256 | etot = -8.37462297004864
8000  ekin = 1.10226637472089 |  erot = 3.21563966301723 | epot = -12.6925290077504 | etot = -8.37462297001232
9000  ekin = 1.13051291055329 |  erot = 3.18656247631356 | epot = -12.6916983567815 | etot = -8.37462296991465
10000  ekin = 1.16073704358066 |  erot = 3.14076972913363 | epot = -12.6761297424775 | etot = -8.37462296976318
11000  ekin = 1.19170449380508 |  erot = 3.08098965164643 | epot = -12.6473171150236 | etot = -8.37462296957209
12000  ekin = 1.22238189802732 |  erot = 3.01040253468258 | epot = -12.6074074020775 | etot = -8.37462296936758
13000  ekin = 1.2519269188149 |  erot = 2.93230261872817 | epot = -12.5588525067181 | etot = -8.374622969175
14000  ekin = 1.2796385761876 |  erot = 2.84975156813376 | epot = -12.5040131133431 | etot = -8.37462296902175
15000  ekin = 1.30489368750126 |  erot = 2.76534813925011 | epot = -12.444864795638 | etot = -8.37462296888665
16000  ekin = 1.32709913751465 |  erot = 2.68118184785529 | epot = -12.3829039541517 | etot = -8.37462296878176
17000  ekin = 1.34568132349847 |  erot = 2.59861285690791 | epot = -12.3189171492215 | etot = -8.37462296881507
18000  ekin = 1.36011712604128 |  erot = 2.51802979978581 | epot = -12.2527698947085 | etot = -8.37462296888145
19000  ekin = 1.37000559015644 |  erot = 2.43889875259722 | epot = -12.1835273117078 | etot = -8.37462296895412
20000  ekin = 1.37516683465218 |  erot = 2.36049590954917 | epot = -12.1102857132061 | etot = -8.37462296900474
21000  ekin = 1.37575335509461 |  erot = 2.28221618930098 | epot = -12.0325925134033 | etot = -8.37462296900774
22000  ekin = 1.37235802310953 |  erot = 2.20383846967477 | epot = -11.9508194617284 | etot = -8.37462296894413
23000  ekin = 1.36610326249354 |  erot = 2.12570839352806 | epot = -11.8664346248252 | etot = -8.37462296880362
24000  ekin = 1.35869525710696 |  erot = 2.04881568638623 | epot = -11.7821339120794 | etot = -8.37462296858617
25000  ekin = 1.352422551256 |  erot = 1.97475968439783 | epot = -11.7018052039588 | etot = -8.37462296830496
26000  ekin = 1.35007012440096 |  erot = 1.90560954362746 | epot = -11.6303026360113 | etot = -8.3746229679829
27000  ekin = 1.35474332970467 |  erot = 1.843676291157 | epot = -11.5730425885209 | etot = -8.37462296765923
28000  ekin = 1.36954369410754 |  erot = 1.79121252282617 | epot = -11.5353791843193 | etot = -8.37462296738555
29000  ekin = 1.39711560919902 |  erot = 1.7500600904406 | epot = -11.5217986668611 | etot = -8.3746229672215
30000  ekin = 1.43911092491007 |  erot = 1.72127833748019 | epot = -11.5350122296154 | etot = -8.37462296722519
31000  ekin = 1.49567630461196 |  erot = 1.70480588615781 | epot = -11.5751051582054 | etot = -8.37462296743563
32000  ekin = 1.56511285114185 |  erot = 1.69923538983356 | epot = -11.6389712088326 | etot = -8.37462296785714
33000  ekin = 1.64385110263248 |  erot = 1.70198396265069 | epot = -11.7204580336836 | etot = -8.37462296840039
34000  ekin = 1.72681002365036 |  erot = 1.70946314344895 | epot = -11.8108961361852 | etot = -8.37462296908591
35000  ekin = 1.80812188596384 |  erot = 1.71712980816862 | epot = -11.8998746638723 | etot = -8.37462296973981
36000  ekin = 1.88201893971561 |  erot = 1.72067857993903 | epot = -11.9773204899105 | etot = -8.37462297025589
37000  ekin = 1.94364733336837 |  erot = 1.71680208569965 | epot = -12.0350723896308 | etot = -8.37462297056282
38000  ekin = 1.98961498615656 |  erot = 1.70370907929485 | epot = -12.0679470360927 | etot = -8.37462297064129
39000  ekin = 2.01818359901114 |  erot = 1.68126711282216 | epot = -12.0740736823535 | etot = -8.37462297052021
40000  ekin = 2.02914332282583 |  erot = 1.65077260628054 | epot = -12.0545388993641 | etot = -8.37462297025776
41000  ekin = 2.0234910301812 |  erot = 1.61448262351109 | epot = -12.012596623611 | etot = -8.37462296991876
42000  ekin = 2.0030441255453 |  erot = 1.57509121259574 | epot = -11.952758307699 | etot = -8.374622969558
43000  ekin = 1.97008148028974 |  erot = 1.53529510620986 | epot = -11.8799995557139 | etot = -8.37462296921426
44000  ekin = 1.92705109571088 |  erot = 1.49750726070826 | epot = -11.7991813253591 | etot = -8.37462296893995
45000  ekin = 1.87634986385877 |  erot = 1.46354390598901 | epot = -11.7145167385331 | etot = -8.37462296868532
46000  ekin = 1.82016797429764 |  erot = 1.43491031451216 | epot = -11.6297012572908 | etot = -8.37462296848104
47000  ekin = 1.76039182009025 |  erot = 1.41286016406996 | epot = -11.5478749524838 | etot = -8.37462296832359
48000  ekin = 1.6985694927478 |  erot = 1.39838217522419 | epot = -11.4715746361764 | etot = -8.37462296820438
49000  ekin = 1.6359395498875 |  erot = 1.39228918140571 | epot = -11.4028516994045 | etot = -8.37462296811134
50000  ekin = 1.57351801537301 |  erot = 1.39530041169486 | epot = -11.3434413950978 | etot = -8.37462296802991
51000  ekin = 1.5122287247636 |  erot = 1.40810650340932 | epot = -11.2949581961197 | etot = -8.37462296794678
52000  ekin = 1.45305245526499 |  erot = 1.43140550730915 | epot = -11.2590809304253 | etot = -8.37462296785115
53000  ekin = 1.39716366086928 |  erot = 1.4658956749352 | epot = -11.2376823035408 | etot = -8.37462296773631
54000  ekin = 1.34602153837057 |  erot = 1.51222067984174 | epot = -11.2328651858294 | etot = -8.37462296761708
55000  ekin = 1.30138436197342 |  erot = 1.57077970891803 | epot = -11.2467870384003 | etot = -8.37462296750883
56000  ekin = 1.26522647192243 |  erot = 1.64151101613064 | epot = -11.2813604554936 | etot = -8.37462296744053
57000  ekin = 1.23956119808448 |  erot = 1.72363092633018 | epot = -11.3378150918588 | etot = -8.37462296744415
58000  ekin = 1.22620283906737 |  erot = 1.81539828229221 | epot = -11.4162240889029 | etot = -8.37462296754335
59000  ekin = 1.22652758768659 |  erot = 1.91400381193531 | epot = -11.5151543673672 | etot = -8.37462296774531
60000  ekin = 1.24129579501624 |  erot = 2.01564970996725 | epot = -11.631568473021 | etot = -8.37462296803753
61000  ekin = 1.27057003505322 |  erot = 2.11581304358654 | epot = -11.7610060470471 | etot = -8.37462296840734
62000  ekin = 1.31372115356093 |  erot = 2.20955642503234 | epot = -11.8979005473869 | etot = -8.37462296879364
63000  ekin = 1.36947667734261 |  erot = 2.29224896410223 | epot = -12.0363486106152 | etot = -8.37462296917037
64000  ekin = 1.43596184816366 |  erot = 2.35998108781798 | epot = -12.1705659055151 | etot = -8.37462296953341
65000  ekin = 1.5108757081497 |  erot = 2.40947275989089 | epot = -12.2949714378729 | etot = -8.37462296983232
66000  ekin = 1.59162978656335 |  erot = 2.43872351537734 | epot = -12.4049762719859 | etot = -8.37462297004526
67000  ekin = 1.6754634907457 |  erot = 2.44726186999258 | epot = -12.4973483309005 | etot = -8.37462297016219
68000  ekin = 1.75953613825201 |  erot = 2.43621057967602 | epot = -12.5703696881156 | etot = -8.37462297018758
69000  ekin = 1.84098201456563 |  erot = 2.40815676459652 | epot = -12.6237617493037 | etot = -8.37462297014155
70000  ekin = 1.91692810522248 |  erot = 2.36682660300844 | epot = -12.6583776782867 | etot = -8.3746229700558
71000  ekin = 1.98449380473018 |  erot = 2.31661131420501 | epot = -12.6757280888525 | etot = -8.37462296991727
72000  ekin = 2.0408128719349 |  erot = 2.26215174487685 | epot = -12.6775875867425 | etot = -8.3746229699307
73000  ekin = 2.08263291328337 |  erot = 2.20743363864194 | epot = -12.6646895218716 | etot = -8.37462296994629
74000  ekin = 2.10698584150827 |  erot = 2.15544421118373 | epot = -12.6370530226944 | etot = -8.37462297000235
75000  ekin = 2.11136525908713 |  erot = 2.10816940675065 | epot = -12.5941576359035 | etot = -8.37462297006568
76000  ekin = 2.09405873141398 |  erot = 2.06669472630762 | epot = -12.535376427811 | etot = -8.37462297008944
77000  ekin = 2.05455135347909 |  erot = 2.0314793357564 | epot = -12.4606536592623 | etot = -8.37462297002681
78000  ekin = 1.99386684227704 |  erot = 2.00268171013297 | epot = -12.3711715222582 | etot = -8.37462296984821
79000  ekin = 1.91474155283402 |  erot = 1.98040758803635 | epot = -12.2697721104228 | etot = -8.37462296955245
80000  ekin = 1.82155513477586 |  erot = 1.96479734780205 | epot = -12.1609754517454 | etot = -8.37462296916753
81000  ekin = 1.71999782481706 |  erot = 1.95595086125324 | epot = -12.0505716548133 | etot = -8.37462296874304
82000  ekin = 1.61651478139511 |  erot = 1.95375810375241 | epot = -11.9448958534855 | etot = -8.37462296833793
83000  ekin = 1.5176113475009 |  erot = 1.9577277486061 | epot = -11.8499620641158 | etot = -8.37462296800878
84000  ekin = 1.42912416355173 |  erot = 1.96688313409173 | epot = -11.770630265442 | etot = -8.37462296779853
85000  ekin = 1.355568955554 |  erot = 1.97976517498656 | epot = -11.7099570982739 | etot = -8.37462296773334
86000  ekin = 1.29966988136846 |  erot = 1.99452593271672 | epot = -11.6688187819006 | etot = -8.37462296781538
87000  ekin = 1.26213747948961 |  erot = 2.00910214170761 | epot = -11.6458625892975 | etot = -8.37462296810029
88000  ekin = 1.24134500163863 |  erot = 2.02122064243446 | epot = -11.6371886124843 | etot = -8.3746229684112
89000  ekin = 1.2342164494761 |  erot = 2.02900530500575 | epot = -11.6378447232194 | etot = -8.37462296873752
90000  ekin = 1.23690604243565 |  erot = 2.03136372571823 | epot = -11.6428927371713 | etot = -8.37462296901745
91000  ekin = 1.24531053049741 |  erot = 2.02816188261827 | epot = -11.6480953823211 | etot = -8.37462296920539
92000  ekin = 1.25564394227053 |  erot = 2.02032873397318 | epot = -11.6505956455252 | etot = -8.37462296928144
93000  ekin = 1.26484018817411 |  erot = 2.00975004471074 | epot = -11.6492132021395 | etot = -8.37462296925471
94000  ekin = 1.27076152680826 |  erot = 1.99896253062535 | epot = -11.64434702658 | etot = -8.37462296914645
95000  ekin = 1.27224696211167 |  erot = 1.9907688927132 | epot = -11.637638823818 | etot = -8.37462296899316
96000  ekin = 1.26905385172906 |  erot = 1.98776908505786 | epot = -11.6314459056159 | etot = -8.374622968829
97000  ekin = 1.26173398384339 |  erot = 1.99196117307471 | epot = -11.6283181256016 | etot = -8.37462296868348
98000  ekin = 1.25146122958138 |  erot = 2.00445279488987 | epot = -11.6305369930525 | etot = -8.37462296858129
99000  ekin = 1.23981039935407 |  erot = 2.02529911459859 | epot = -11.6397324824948 | etot = -8.3746229685421
100000  ekin = 1.22848889431686 |  erot = 2.05346079777931 | epot = -11.6565726606774 | etot = -8.37462296858124
101000  ekin = 1.21904296342428 |  erot = 2.08686922543158 | epot = -11.6805351575621 | etot = -8.37462296870625
102000  ekin = 1.21258708443144 |  erot = 2.12259257652692 | epot = -11.709802629871 | etot = -8.37462296891261
103000  ekin = 1.2096213812761 |  erot = 2.15710417867581 | epot = -11.7413485291304 | etot = -8.37462296917851
104000  ekin = 1.20999435064748 |  erot = 2.18665201736524 | epot = -11.7712693374783 | etot = -8.37462296946559
105000  ekin = 1.21303379771945 |  erot = 2.20771017012383 | epot = -11.7953669375664 | etot = -8.37462296972313
106000  ekin = 1.21781939160535 |  erot = 2.21746426398215 | epot = -11.8099066254851 | etot = -8.37462296989764
107000  ekin = 1.22352668485505 |  erot = 2.21425769941215 | epot = -11.8124073542124 | etot = -8.37462296994524
108000  ekin = 1.22975371616698 |  erot = 2.19791821277325 | epot = -11.8022948987809 | etot = -8.37462296984067
109000  ekin = 1.23675326669525 |  erot = 2.16990174522994 | epot = -11.7812779815079 | etot = -8.37462296958276
110000  ekin = 1.24552660594288 |  erot = 2.13322593016593 | epot = -11.7533755053019 | etot = -8.37462296919314
111000  ekin = 1.2577699492817 |  erot = 2.09220325002883 | epot = -11.7245961680233 | etot = -8.37462296871273
112000  ekin = 1.27568807280454 |  erot = 2.0520095134221 | epot = -11.7023205544236 | etot = -8.37462296819701
113000  ekin = 1.30169744977547 |  erot = 2.01813224570276 | epot = -11.6944526631895 | etot = -8.37462296771131
114000  ekin = 1.3380425185894 |  erot = 1.99574344242898 | epot = -11.708408928345 | etot = -8.37462296732664
115000  ekin = 1.38647431929533 |  erot = 1.9890358144779 | epot = -11.7501331008335 | etot = -8.3746229670603
116000  ekin = 1.44876446583391 |  erot = 2.00047074173031 | epot = -11.8238581746951 | etot = -8.37462296713089
117000  ekin = 1.52378581535556 |  erot = 2.03044339408199 | epot = -11.928852176889 | etot = -8.37462296745148
118000  ekin = 1.60840594184184 |  erot = 2.07707436259007 | epot = -12.0601032724458 | etot = -8.37462296801391
119000  ekin = 1.69804077960487 |  erot = 2.13624566567617 | epot = -12.2089094140534 | etot = -8.37462296877235
120000  ekin = 1.78696647862279 |  erot = 2.20199105617477 | epot = -12.3635805044446 | etot = -8.37462296964704
121000  ekin = 1.86883508536304 |  erot = 2.26718837407833 | epot = -12.5106464299772 | etot = -8.3746229705358
122000  ekin = 1.93731263285346 |  erot = 2.3244608703495 | epot = -12.6363964745344 | etot = -8.37462297133144
123000  ekin = 1.98673587945774 |  erot = 2.36714489985499 | epot = -12.7285037512514 | etot = -8.37462297193864
124000  ekin = 2.01268857483472 |  erot = 2.39015976226559 | epot = -12.7774713093897 | etot = -8.37462297228942
125000  ekin = 2.01242153120607 |  erot = 2.39062925356786 | epot = -12.7776737571266 | etot = -8.37462297235268
126000  ekin = 1.98507290328065 |  erot = 2.36815351492862 | epot = -12.7278493903457 | etot = -8.37462297213648
127000  ekin = 1.93167931643402 |  erot = 2.32470375634598 | epot = -12.6310060444627 | etot = -8.3746229716827
128000  ekin = 1.8550007691687 |  erot = 2.26419178968032 | epot = -12.4938155299045 | etot = -8.37462297105549
129000  ekin = 1.75920795598131 |  erot = 2.19182812292597 | epot = -12.3256590492356 | etot = -8.37462297032836
130000  ekin = 1.64949415840181 |  erot = 2.11340935726336 | epot = -12.1375264852356 | etot = -8.37462296957046
131000  ekin = 1.53167143066913 |  erot = 2.03466319553997 | epot = -11.9409575950483 | etot = -8.3746229688392
132000  ekin = 1.41179399813977 |  erot = 1.96073697301923 | epot = -11.7471539393354 | etot = -8.37462296817641
133000  ekin = 1.29582771791042 |  erot = 1.89586175533303 | epot = -11.5663124408536 | etot = -8.37462296761014
134000  ekin = 1.18933366770487 |  erot = 1.84313053331017 | epot = -11.4070871682765 | etot = -8.37462296726146
135000  ekin = 1.09698845763052 |  erot = 1.80418246558945 | epot = -11.2757938901605 | etot = -8.37462296694051
136000  ekin = 1.02270904454081 |  erot = 1.77989195852201 | epot = -11.1772239698142 | etot = -8.37462296675135
137000  ekin = 0.969402888595107 |  erot = 1.77022137974247 | epot = -11.1142472350355 | etot = -8.37462296669788
138000  ekin = 0.938766242876396 |  erot = 1.77423425797198 | epot = -11.0876234676258 | etot = -8.37462296677741
139000  ekin = 0.931209536918622 |  erot = 1.79022284403572 | epot = -11.0960553479303 | etot = -8.374622966976
140000  ekin = 0.945902360873774 |  erot = 1.81588277986729 | epot = -11.1364081080077 | etot = -8.37462296726662
141000  ekin = 0.980951010695175 |  erot = 1.8485455285403 | epot = -11.204119506847 | etot = -8.37462296761153
142000  ekin = 1.03368854660433 |  erot = 1.88546172258917 | epot = -11.2937732371602 | etot = -8.37462296796669
143000  ekin = 1.10102464558806 |  erot = 1.92410215903287 | epot = -11.3997497729132 | etot = -8.37462296829229
144000  ekin = 1.17978371180479 |  erot = 1.96241851789346 | epot = -11.5168251982596 | etot = -8.37462296856134
145000  ekin = 1.26696389973282 |  erot = 1.99907135517271 | epot = -11.6406582236463 | etot = -8.37462296874076
146000  ekin = 1.35987698631737 |  erot = 2.03338468070426 | epot = -11.7678846359152 | etot = -8.37462296889355
147000  ekin = 1.45616095202992 |  erot = 2.06502561999169 | epot = -11.8958095410393 | etot = -8.37462296901766
148000  ekin = 1.55369685491102 |  erot = 2.09388144715349 | epot = -12.0222012712078 | etot = -8.37462296914327
149000  ekin = 1.65047924324446 |  erot = 2.119766716203 | epot = -12.1448689287441 | etot = -8.3746229692966
150000  ekin = 1.7444879162985 |  erot = 2.14217867903534 | epot = -12.2612895648265 | etot = -8.3746229694927
151000  ekin = 1.83359650490146 |  erot = 2.16016451670422 | epot = -12.3683839913409 | etot = -8.37462296973527
152000  ekin = 1.91553611044662 |  erot = 2.17231614291454 | epot = -12.4624752233743 | etot = -8.3746229700131
153000  ekin = 1.98791755611535 |  erot = 2.176897167127 | epot = -12.5394376935491 | etot = -8.37462297030674
154000  ekin = 2.04830722999038 |  erot = 2.17205709329779 | epot = -12.5949872938791 | etot = -8.37462297059092
155000  ekin = 2.0943477814066 |  erot = 2.1560836321465 | epot = -12.6250543843915 | etot = -8.37462297083838
156000  ekin = 2.12391577783684 |  erot = 2.12765251039836 | epot = -12.6261912592573 | etot = -8.37462297102206
157000  ekin = 2.13531004697523 |  erot = 2.08604574913212 | epot = -12.5959787672234 | etot = -8.37462297111609
158000  ekin = 2.12746223168569 |  erot = 2.0313282063183 | epot = -12.5334134091002 | etot = -8.37462297109625
159000  ekin = 2.10015103339182 |  erot = 1.96448478928966 | epot = -12.4392587936247 | etot = -8.3746229709432
160000  ekin = 2.0541841606365 |  erot = 1.88751839461899 | epot = -12.3163255258998 | etot = -8.37462297064433
161000  ekin = 1.9914954137127 |  erot = 1.80350457154603 | epot = -12.1696229554607 | etot = -8.37462297020201
162000  ekin = 1.91510266104687 |  erot = 1.71656915682321 | epot = -12.0062947875077 | etot = -8.37462296963766
163000  ekin = 1.82889680262222 |  erot = 1.63175766791017 | epot = -11.8352774395237 | etot = -8.37462296899133
164000  ekin = 1.73727850175361 |  erot = 1.55477450557376 | epot = -11.6666759756467 | etot = -8.37462296831929
165000  ekin = 1.64470875439873 |  erot = 1.4915924102951 | epot = -11.5109241323765 | etot = -8.37462296768268
166000  ekin = 1.55526715399606 |  erot = 1.44796523953972 | epot = -11.3778553606755 | etot = -8.3746229671397
167000  ekin = 1.47230568197345 |  erot = 1.42890789301241 | epot = -11.2758365417204 | etot = -8.37462296673456
168000  ekin = 1.39825202215325 |  erot = 1.43822523215975 | epot = -11.2111002208052 | etot = -8.37462296649218
169000  ekin = 1.33457196190141 |  erot = 1.47816740254075 | epot = -11.1873623308595 | etot = -8.37462296641738
170000  ekin = 1.28186404086305 |  erot = 1.54925939136695 | epot = -11.2057463987275 | etot = -8.37462296649748
171000  ekin = 1.24010532837043 |  erot = 1.650314933199 | epot = -11.2650432281454 | etot = -8.37462296657596
172000  ekin = 1.20973432363906 |  erot = 1.77850842430629 | epot = -11.3628657149172 | etot = -8.37462296697185
173000  ekin = 1.18958106737836 |  erot = 1.92939472681623 | epot = -11.4935987616336 | etot = -8.37462296743901
174000  ekin = 1.17780375666799 |  erot = 2.09752621801763 | epot = -11.6499529426377 | etot = -8.37462296795207
175000  ekin = 1.17250284106932 |  erot = 2.27682305293097 | epot = -11.823948862491 | etot = -8.37462296849073
176000  ekin = 1.1717731341751 |  erot = 2.46086230703718 | epot = -12.0072584102492 | etot = -8.37462296903695
177000  ekin = 1.17372471418892 |  erot = 2.64315812275411 | epot = -12.1915058065145 | etot = -8.37462296957145
178000  ekin = 1.1764972581607 |  erot = 2.8174537859961 | epot = -12.3685740142281 | etot = -8.37462297007134
179000  ekin = 1.17828959842936 |  erot = 2.9780388566517 | epot = -12.5309514255911 | etot = -8.37462297051003
180000  ekin = 1.17741681901011 |  erot = 3.12008209304928 | epot = -12.6721218829193 | etot = -8.37462297085987
181000  ekin = 1.17239479280091 |  erot = 3.2399417749801 | epot = -12.7869595388788 | etot = -8.3746229710978
182000  ekin = 1.16204161674191 |  erot = 3.33528346670204 | epot = -12.871948054927 | etot = -8.37462297148309
183000  ekin = 1.14544700201189 |  erot = 3.40346825728322 | epot = -12.9235382308538 | etot = -8.3746229715587
184000  ekin = 1.12187454429755 |  erot = 3.44382690739235 | epot = -12.9403244231955 | etot = -8.37462297150555
185000  ekin = 1.09113819766571 |  erot = 3.45752421108363 | epot = -12.9232853800841 | etot = -8.37462297133478
186000  ekin = 1.0537517763756 |  erot = 3.44681260248516 | epot = -12.875187349924 | etot = -8.37462297106326
187000  ekin = 1.01100426926452 |  erot = 3.41470705189681 | epot = -12.8003342918715 | etot = -8.3746229707102
188000  ekin = 0.964980950088499 |  erot = 3.36467106156843 | epot = -12.7042749819531 | etot = -8.37462297029615
189000  ekin = 0.918502012520883 |  erot = 3.30025095733249 | epot = -12.5933759397279 | etot = -8.37462296987451
190000  ekin = 0.874955375625479 |  erot = 3.22483721777176 | epot = -12.4744155628188 | etot = -8.37462296942152
191000  ekin = 0.838012694189673 |  erot = 3.14179385100208 | epot = -12.3544295141826 | etot = -8.37462296899079
192000  ekin = 0.811264586710657 |  erot = 3.05421641257372 | epot = -12.2401039678971 | etot = -8.37462296861268
193000  ekin = 0.797833231457084 |  erot = 2.96485918306321 | epot = -12.1373153828317 | etot = -8.37462296831145
194000  ekin = 0.800032366300235 |  erot = 2.87610608236619 | epot = -12.050761416768 | etot = -8.37462296810153
195000  ekin = 0.819137512919436 |  erot = 2.78998115247787 | epot = -11.9837416333826 | etot = -8.37462296798526
196000  ekin = 0.855301818718971 |  erot = 2.70818765526185 | epot = -11.9381124419351 | etot = -8.37462296795428
197000  ekin = 0.907617485284309 |  erot = 2.63215574475477 | epot = -11.9143961980333 | etot = -8.37462296799419
198000  ekin = 0.97429151758394 |  erot = 2.56307623018431 | epot = -11.9119907158566 | etot = -8.37462296808834
199000  ekin = 1.05288651878741 |  erot = 2.50190471363149 | epot = -11.9294142006404 | etot = -8.37462296822155
200000  ekin = 1.14057530731199 |  erot = 2.4493327408956 | epot = -11.9645310165904 | etot = -8.37462296838278
201000  ekin = 1.2343694565576 |  erot = 2.4057357740471 | epot = -12.014728199169 | etot = -8.37462296856431
202000  ekin = 1.33129982084458 |  erot = 2.37111655194159 | epot = -12.077039341547 | etot = -8.37462296876083
203000  ekin = 1.42854451444423 |  erot = 2.34506402190562 | epot = -12.1482315053183 | etot = -8.3746229689685
204000  ekin = 1.52351160571851 |  erot = 2.3267429043425 | epot = -12.2248774792434 | etot = -8.37462296918236
205000  ekin = 1.6138883706006 |  erot = 2.31491995505448 | epot = -12.303431295052 | etot = -8.37462296939692
206000  ekin = 1.69766775260787 |  erot = 2.30802500400437 | epot = -12.3803157262179 | etot = -8.37462296960567
207000  ekin = 1.77315874687833 |  erot = 2.30423562983859 | epot = -12.4520173465211 | etot = -8.37462296980422
208000  ekin = 1.83898325555911 |  erot = 2.30156289475817 | epot = -12.5151691203028 | etot = -8.37462296998553
209000  ekin = 1.89406065254644 |  erot = 2.29797193080324 | epot = -12.5666555534947 | etot = -8.37462297014506
210000  ekin = 1.93758171355935 |  erot = 2.29149245614518 | epot = -12.6036971399829 | etot = -8.3746229702784
211000  ekin = 1.96897499678785 |  erot = 2.28032999988847 | epot = -12.6239279670578 | etot = -8.37462297038152
212000  ekin = 1.98787057423925 |  erot = 2.26297816329926 | epot = -12.6254717079893 | etot = -8.3746229704508
213000  ekin = 1.99406615310611 |  erot = 2.2383484772953 | epot = -12.6070376008827 | etot = -8.37462297048134
214000  ekin = 1.98749971048289 |  erot = 2.20579329600811 | epot = -12.5679159769723 | etot = -8.37462297048125
215000  ekin = 1.96823269345663 |  erot = 2.16512069835577 | epot = -12.5079763622595 | etot = -8.37462297044713
216000  ekin = 1.93645036858726 |  erot = 2.11663233289577 | epot = -12.4277056718661 | etot = -8.37462297038307
217000  ekin = 1.89249565101069 |  erot = 2.06105227365545 | epot = -12.328170894956 | etot = -8.37462297028983
218000  ekin = 1.83696296100899 |  erot = 1.99944931813363 | epot = -12.2110352493001 | etot = -8.37462297015747
219000  ekin = 1.77087997199934 |  erot = 1.93321768349765 | epot = -12.0787206254576 | etot = -8.37462296996059
220000  ekin = 1.69598414200763 |  erot = 1.86416918368629 | epot = -11.9347762953549 | etot = -8.37462296966094
221000  ekin = 1.61504938765036 |  erot = 1.79472971030281 | epot = -11.7844020671756 | etot = -8.37462296922238
222000  ekin = 1.53214607791949 |  erot = 1.72813764737019 | epot = -11.6349066939257 | etot = -8.37462296863602
223000  ekin = 1.45266240883104 |  erot = 1.66846349300161 | epot = -11.4957488697767 | etot = -8.37462296794408
224000  ekin = 1.38293292450099 |  erot = 1.62027927221305 | epot = -11.3778351639604 | etot = -8.37462296724631
225000  ekin = 1.32944348952736 |  erot = 1.58793473617187 | epot = -11.2920011923819 | etot = -8.37462296668269
226000  ekin = 1.2977735014098 |  erot = 1.57457480049554 | epot = -11.2469712682751 | etot = -8.37462296636981
227000  ekin = 1.29158711545474 |  erot = 1.58136206120168 | epot = -11.247572143041 | etot = -8.37462296638459
228000  ekin = 1.31199160550476 |  erot = 1.60705168356094 | epot = -11.2936662557528 | etot = -8.37462296668715
229000  ekin = 1.35720775781569 |  erot = 1.64872427968805 | epot = -11.3805550048119 | etot = -8.37462296730815
230000  ekin = 1.42320705813326 |  erot = 1.70117239435519 | epot = -11.4990024205437 | etot = -8.37462296805528
231000  ekin = 1.50467169677578 |  erot = 1.75808746579119 | epot = -11.6373821313705 | etot = -8.37462296880356
232000  ekin = 1.59576180204784 |  erot = 1.81345446216814 | epot = -11.7838392336754 | etot = -8.37462296945945
233000  ekin = 1.69077156764766 |  erot = 1.86233770608624 | epot = -11.9277322437063 | etot = -8.37462296997237
234000  ekin = 1.78453671679902 |  erot = 1.90129507954668 | epot = -12.0604547666798 | etot = -8.37462297033406
235000  ekin = 1.87261122258964 |  erot = 1.92842207171172 | epot = -12.1756562648648 | etot = -8.37462297056343
236000  ekin = 1.95129507586045 |  erot = 1.94312673772456 | epot = -12.2690447842759 | etot = -8.37462297069089
237000  ekin = 2.01688127570888 |  erot = 1.94587838549618 | epot = -12.3373826321093 | etot = -8.37462297090424
238000  ekin = 2.06554471096632 |  erot = 1.93754713481357 | epot = -12.3777148167612 | etot = -8.37462297098128
239000  ekin = 2.09498833917105 |  erot = 1.91896908743904 | epot = -12.3885803976066 | etot = -8.37462297099647
240000  ekin = 2.10387887335868 |  erot = 1.89114067893448 | epot = -12.3696425232255 | etot = -8.37462297093239
241000  ekin = 2.09205058134763 |  erot = 1.85524232773695 | epot = -12.3219158798525 | etot = -8.37462297076792
242000  ekin = 2.06070692356732 |  erot = 1.81270484104108 | epot = -12.2480347350936 | etot = -8.3746229704852
243000  ekin = 2.01255526288397 |  erot = 1.76529169809267 | epot = -12.1524699310592 | etot = -8.3746229700826
244000  ekin = 1.95178746173565 |  erot = 1.71512317980732 | epot = -12.0415336111136 | etot = -8.37462296957065
245000  ekin = 1.88387514784715 |  erot = 1.66462101119864 | epot = -11.9231191280352 | etot = -8.37462296898941
246000  ekin = 1.81512558267788 |  erot = 1.61637080971489 | epot = -11.8061193607925 | etot = -8.37462296839969
247000  ekin = 1.75197548737598 |  erot = 1.57289129038632 | epot = -11.6994897456374 | etot = -8.37462296787513
248000  ekin = 1.70016015194921 |  erot = 1.5363664174363 | epot = -11.6111495368734 | etot = -8.37462296748788
249000  ekin = 1.664043914543 |  erot = 1.50839677555149 | epot = -11.5470636572537 | etot = -8.37462296715922
250000  ekin = 1.64635032469218 |  erot = 1.48977166427894 | epot = -11.5107449561766 | etot = -8.37462296720544
251000  ekin = 1.64670868822392 |  erot = 1.48021150770214 | epot = -11.5015431633547 | etot = -8.37462296742863
252000  ekin = 1.66264181464355 |  erot = 1.47871062656248 | epot = -11.515975408979 | etot = -8.37462296777296
253000  ekin = 1.69027564040369 |  erot = 1.48380069509961 | epot = -11.5486993036754 | etot = -8.3746229681721
254000  ekin = 1.72505301291702 |  erot = 1.49382397147177 | epot = -11.593499952955 | etot = -8.37462296856621
255000  ekin = 1.76239471231507 |  erot = 1.50720813837987 | epot = -11.6442258196111 | etot = -8.37462296891614
256000  ekin = 1.79816893498575 |  erot = 1.52259254469743 | epot = -11.6953844488857 | etot = -8.37462296920248
257000  ekin = 1.82895095239716 |  erot = 1.53887801863879 | epot = -11.7424519404558 | etot = -8.37462296941987
258000  ekin = 1.85212386739603 |  erot = 1.55528591409784 | epot = -11.7820327510629 | etot = -8.37462296956901
259000  ekin = 1.86588413888276 |  erot = 1.57137656836574 | epot = -11.8118836768999 | etot = -8.37462296965144
260000  ekin = 1.86922537289945 |  erot = 1.58707491263422 | epot = -11.8309232551869 | etot = -8.37462296965321
261000  ekin = 1.86194745778049 |  erot = 1.60277606186391 | epot = -11.8393464893246 | etot = -8.37462296968025
262000  ekin = 1.84441202421401 |  erot = 1.61874454524398 | epot = -11.8377795390096 | etot = -8.37462296955156
263000  ekin = 1.8177563299772 |  erot = 1.63584439963962 | epot = -11.8282236989416 | etot = -8.37462296932473
264000  ekin = 1.78414336143566 |  erot = 1.65581672859452 | epot = -11.8145830590359 | etot = -8.37462296900575
265000  ekin = 1.74659811333773 |  erot = 1.68088156362826 | epot = -11.8021026455982 | etot = -8.37462296863218
266000  ekin = 1.70875551588695 |  erot = 1.71332387538106 | epot = -11.7967023595427 | etot = -8.37462296827472
267000  ekin = 1.67443624978676 |  erot = 1.75501089284495 | epot = -11.8040701106202 | etot = -8.37462296798845
268000  ekin = 1.64712713207616 |  erot = 1.80695733277667 | epot = -11.8287074326943 | etot = -8.37462296784148
269000  ekin = 1.62949021142767 |  erot = 1.86883267567167 | epot = -11.8729458549721 | etot = -8.37462296787273
270000  ekin = 1.62285159922546 |  erot = 1.93872810894256 | epot = -11.9362026762895 | etot = -8.37462296812145
271000  ekin = 1.62688631043817 |  erot = 2.01317767222006 | epot = -12.0146869512065 | etot = -8.37462296854828
272000  ekin = 1.63981668010479 |  erot = 2.08746423747607 | epot = -12.1019038866666 | etot = -8.37462296908573
273000  ekin = 1.65880091169085 |  erot = 2.15626799363728 | epot = -12.1896918749698 | etot = -8.37462296964172
274000  ekin = 1.68050753849978 |  erot = 2.21448722130837 | epot = -12.2696177299305 | etot = -8.37462297012236
275000  ekin = 1.70172643739859 |  erot = 2.25805265702164 | epot = -12.3344020648726 | etot = -8.37462297045236
276000  ekin = 1.71987527696229 |  erot = 2.28456562448884 | epot = -12.3790638720398 | etot = -8.37462297058871
277000  ekin = 1.73331269261662 |  erot = 2.29364905663773 | epot = -12.4015847197778 | etot = -8.37462297052348
278000  ekin = 1.74143735013812 |  erot = 2.28698125838882 | epot = -12.4030415787998 | etot = -8.37462297027286
279000  ekin = 1.74460802870659 |  erot = 2.26806682992254 | epot = -12.3872978285234 | etot = -8.37462296989426
280000  ekin = 1.74394008412506 |  erot = 2.24171314051919 | epot = -12.3602761940833 | etot = -8.37462296943905
281000  ekin = 1.74088698058238 |  erot = 2.21312908436276 | epot = -12.3286390340538 | etot = -8.37462296910862
282000  ekin = 1.73669656458759 |  erot = 2.18704204449549 | epot = -12.2983615778783 | etot = -8.37462296879524
283000  ekin = 1.73229007371642 |  erot = 2.1674467962283 | epot = -12.2743598385788 | etot = -8.37462296863409
284000  ekin = 1.72792109204571 |  erot = 2.15675164213727 | epot = -12.2592957028517 | etot = -8.3746229686687
285000  ekin = 1.72297480902885 |  erot = 2.15537559427272 | epot = -12.2529733722 | etot = -8.37462296889847
286000  ekin = 1.71598432453051 |  erot = 2.16179000838356 | epot = -12.2523973021713 | etot = -8.37462296925726
287000  ekin = 1.70498524220327 |  erot = 2.17315503013682 | epot = -12.2527632419519 | etot = -8.3746229696118
288000  ekin = 1.68823578051931 |  erot = 2.18649203663113 | epot = -12.2493507869527 | etot = -8.37462296980222
289000  ekin = 1.66510970376189 |  erot = 2.19999055777893 | epot = -12.2397232312607 | etot = -8.37462296971986
290000  ekin = 1.63674302037956 |  erot = 2.21381252699311 | epot = -12.2251785167475 | etot = -8.37462296937484
291000  ekin = 1.60601874197386 |  erot = 2.22992661048294 | epot = -12.2105683213532 | etot = -8.37462296889641
292000  ekin = 1.57682389343734 |  erot = 2.25107800691057 | epot = -12.2025248687813 | etot = -8.37462296843336
293000  ekin = 1.55301992418662 |  erot = 2.27950943304582 | epot = -12.2071523254127 | etot = -8.37462296818025
294000  ekin = 1.53731454048149 |  erot = 2.31583078837865 | epot = -12.2277682970263 | etot = -8.37462296816618
295000  ekin = 1.53083265562476 |  erot = 2.35873605655275 | epot = -12.2641916805461 | etot = -8.37462296836864
296000  ekin = 1.53318706455205 |  erot = 2.40528084679052 | epot = -12.3130908800614 | etot = -8.37462296871883
297000  ekin = 1.54281493583582 |  erot = 2.4515193186347 | epot = -12.3689572236279 | etot = -8.3746229691574
298000  ekin = 1.55733608765083 |  erot = 2.49306411731964 | epot = -12.4250231746877 | etot = -8.3746229697172
299000  ekin = 1.57407386288216 |  erot = 2.52498633848796 | epot = -12.4736831715335 | etot = -8.37462297016341
300000  ekin = 1.59001535759976 |  erot = 2.54349315182905 | epot = -12.5081314800013 | etot = -8.37462297057251
301000  ekin = 1.60189886822585 |  erot = 2.54585083166242 | epot = -12.5223726708135 | etot = -8.37462297092524
302000  ekin = 1.60620251585571 |  erot = 2.53039812867702 | epot = -12.5112236158409 | etot = -8.37462297130815
303000  ekin = 1.59914065240547 |  erot = 2.4959828099385 | epot = -12.4697464340451 | etot = -8.37462297170116
304000  ekin = 1.57679795693713 |  erot = 2.44177332378582 | epot = -12.3931942527977 | etot = -8.37462297207474
305000  ekin = 1.53574304374 |  erot = 2.36761905414264 | epot = -12.277985069966 | etot = -8.37462297208332
306000  ekin = 1.47392866559566 |  erot = 2.27453104047961 | epot = -12.1230826782581 | etot = -8.37462297218281
307000  ekin = 1.39050823398525 |  erot = 2.16376504506943 | epot = -11.9288962509197 | etot = -8.37462297186505
308000  ekin = 1.28961522980533 |  erot = 2.03977667258418 | epot = -11.7040148706627 | etot = -8.37462296827321
309000  ekin = 1.0578293749373 |  erot = 1.83361716570716 | epot = -11.2660695010511 | etot = -8.3746229604066
310000  ekin = 1.14450415448801 |  erot = 1.58483272602465 | epot = -11.1039598386899 | etot = -8.37462295817721
311000  ekin = 1.41922601312433 |  erot = 1.45460499880699 | epot = -11.2484540448416 | etot = -8.37462303291028
312000  ekin = 1.45261330232124 |  erot = 1.37611906651625 | epot = -11.2033554015516 | etot = -8.37462303271409
313000  ekin = 1.4788437717407 |  erot = 1.31854286229449 | epot = -11.1720096664209 | etot = -8.37462303238567
314000  ekin = 1.49756299811573 |  erot = 1.28320357876888 | epot = -11.1553896088945 | etot = -8.37462303200986
315000  ekin = 1.51332559187976 |  erot = 1.27043025389328 | epot = -11.1583788774964 | etot = -8.37462303172341
316000  ekin = 1.5308006111801 |  erot = 1.27925593275775 | epot = -11.1846795755428 | etot = -8.37462303160493
317000  ekin = 1.55378721590878 |  erot = 1.30719554367543 | epot = -11.235605791274 | etot = -8.37462303168982
318000  ekin = 1.58370434541092 |  erot = 1.34913652060449 | epot = -11.3074638985388 | etot = -8.3746230325234
319000  ekin = 1.61943484148271 |  erot = 1.39801478359314 | epot = -11.3920726581939 | etot = -8.37462303311803
320000  ekin = 1.65864783760545 |  erot = 1.4469667045913 | epot = -11.4802375759983 | etot = -8.37462303380153
321000  ekin = 1.6976698384736 |  erot = 1.48920524279123 | epot = -11.5614981157299 | etot = -8.3746230344651
322000  ekin = 1.73222385846077 |  erot = 1.51888544570781 | epot = -11.6257323391508 | etot = -8.37462303498217
323000  ekin = 1.75834700852353 |  erot = 1.53202956630854 | epot = -11.6649996100711 | etot = -8.37462303523908
324000  ekin = 1.77324650046361 |  erot = 1.52732597029569 | epot = -11.675195505928 | etot = -8.37462303516871
325000  ekin = 1.77583924216996 |  erot = 1.50655389358471 | epot = -11.6570161705554 | etot = -8.37462303480068
326000  ekin = 1.76682929376892 |  erot = 1.47436928283917 | epot = -11.6158216107568 | etot = -8.37462303414873
327000  ekin = 1.74834602231152 |  erot = 1.43794367202746 | epot = -11.5609127276999 | etot = -8.37462303336097
328000  ekin = 1.7233110982126 |  erot = 1.40578615079696 | epot = -11.5037202815778 | etot = -8.37462303256828
329000  ekin = 1.69488797673405 |  erot = 1.38635580023326 | epot = -11.455866808845 | etot = -8.37462303187764
330000  ekin = 1.66566513334786 |  erot = 1.38702252391897 | epot = -11.4273106886498 | etot = -8.374623031383
331000  ekin = 1.63732185166234 |  erot = 1.41331220646627 | epot = -11.4252570892353 | etot = -8.37462303110665
332000  ekin = 1.61073968004048 |  erot = 1.46826665363454 | epot = -11.4536293647323 | etot = -8.37462303105725
333000  ekin = 1.58605232106548 |  erot = 1.55220559043093 | epot = -11.5128809427306 | etot = -8.37462303123423
334000  ekin = 1.56284415922383 |  erot = 1.66255678080412 | epot = -11.6000239716191 | etot = -8.37462303159115
335000  ekin = 1.54014240613874 |  erot = 1.79443783502712 | epot = -11.7092032732476 | etot = -8.3746230320817
336000  ekin = 1.51670455216665 |  erot = 1.94117931563221 | epot = -11.8325069004485 | etot = -8.37462303264961
337000  ekin = 1.49128277555588 |  erot = 2.09492414345214 | epot = -11.9608299522436 | etot = -8.37462303323563
338000  ekin = 1.46282625483081 |  erot = 2.24735936520887 | epot = -12.0848086538234 | etot = -8.37462303378369
339000  ekin = 1.43063896798345 |  erot = 2.39044100153381 | epot = -12.1957030037652 | etot = -8.37462303424793
340000  ekin = 1.39448012484058 |  erot = 2.51702660358978 | epot = -12.2861297630267 | etot = -8.37462303459637
341000  ekin = 1.35460313822272 |  erot = 2.62135284037423 | epot = -12.3505790134091 | etot = -8.37462303481217
342000  ekin = 1.3117393686306 |  erot = 2.69933546749687 | epot = -12.3856978710184 | etot = -8.37462303489094
343000  ekin = 1.26704159860242 |  erot = 2.74871044551728 | epot = -12.3903750789562 | etot = -8.37462303483653
344000  ekin = 1.22200654509503 |  erot = 2.76906107654538 | epot = -12.3656906562963 | etot = -8.37462303465594
345000  ekin = 1.17839357225705 |  erot = 2.76177689465492 | epot = -12.3147935012698 | etot = -8.3746230343578
346000  ekin = 1.13814730560313 |  erot = 2.72996678569807 | epot = -12.2427371252553 | etot = -8.37462303395411
347000  ekin = 1.10331757839141 |  erot = 2.6783142195391 | epot = -12.1562548313944 | etot = -8.37462303346392
348000  ekin = 1.07595787263662 |  erot = 2.61283600667603 | epot = -12.0634169122307 | etot = -8.37462303291807
349000  ekin = 1.05798147191725 |  erot = 2.54050407789364 | epot = -11.9731085821725 | etot = -8.37462303236165
350000  ekin = 1.05096760963778 |  erot = 2.46871550807945 | epot = -11.8943061495688 | etot = -8.37462303185161
351000  ekin = 1.05593437429309 |  erot = 2.40463774697973 | epot = -11.8351951527212 | etot = -8.37462303144839
352000  ekin = 1.07311971186499 |  erot = 2.35449555191637 | epot = -11.8022382949886 | etot = -8.37462303120719
353000  ekin = 1.10182415540818 |  erot = 2.32288867128187 | epot = -11.7993358578585 | etot = -8.37462303116842
354000  ekin = 1.14036300464704 |  erot = 2.31223409502352 | epot = -11.8272201310208 | etot = -8.37462303135026
355000  ekin = 1.18615564007902 |  erot = 2.3224218596199 | epot = -11.8832005314417 | etot = -8.37462303174276
356000  ekin = 1.23595386569949 |  erot = 2.35076326964177 | epot = -11.9613401676474 | etot = -8.37462303230618
357000  ekin = 1.28618457758726 |  erot = 2.39228504524919 | epot = -12.0530926558101 | etot = -8.37462303297361
358000  ekin = 1.33335672484132 |  erot = 2.44036693764159 | epot = -12.1483466961437 | etot = -8.37462303366077
359000  ekin = 1.37446611423607 |  erot = 2.48763760748889 | epot = -12.236726756006 | etot = -8.37462303428102
360000  ekin = 1.40733698540188 |  erot = 2.52696891747013 | epot = -12.3089289376309 | etot = -8.3746230347589
361000  ekin = 1.43085230117183 |  erot = 2.55266032656637 | epot = -12.3581356626699 | etot = -8.37462303493173
362000  ekin = 1.44498023419595 |  erot = 2.56161192448288 | epot = -12.3812151936925 | etot = -8.37462303501363
363000  ekin = 1.45080808015525 |  erot = 2.55177253018898 | epot = -12.3772036452512 | etot = -8.37462303490697
364000  ekin = 1.4504698206999 |  erot = 2.52283864584182 | epot = -12.347931501182 | etot = -8.37462303464031
365000  ekin = 1.44693366152056 |  erot = 2.47609933176571 | epot = -12.2976560275495 | etot = -8.3746230342632
366000  ekin = 1.44366094468055 |  erot = 2.4140112633753 | epot = -12.2322952418927 | etot = -8.37462303383685
367000  ekin = 1.44416618229195 |  erot = 2.33969773429606 | epot = -12.1584869500116 | etot = -8.3746230334236
368000  ekin = 1.45154164412086 |  erot = 2.25648465084979 | epot = -12.0826493280444 | etot = -8.37462303307378
369000  ekin = 1.46802482611048 |  erot = 2.16757470029764 | epot = -12.0102225592251 | etot = -8.374623032817
370000  ekin = 1.49468484157928 |  erot = 2.07591739973036 | epot = -11.9452252739682 | etot = -8.37462303265854
371000  ekin = 1.53128479294051 |  erot = 1.98426522628833 | epot = -11.8901730518124 | etot = -8.37462303258357
372000  ekin = 1.57634160155561 |  erot = 1.89533626064572 | epot = -11.8463008947682 | etot = -8.37462303256687
373000  ekin = 1.62736107596654 |  erot = 1.81196417168862 | epot = -11.8139482802383 | etot = -8.37462303258315
374000  ekin = 1.68119274504178 |  erot = 1.73713269144164 | epot = -11.7929484690967 | etot = -8.37462303261329
375000  ekin = 1.73444043052866 |  erot = 1.67385884334747 | epot = -11.7829223065195 | etot = -8.3746230326434
376000  ekin = 1.7838758614395 |  erot = 1.62497473906432 | epot = -11.7834736331734 | etot = -8.37462303266957
377000  ekin = 1.8264818609192 |  erot = 1.59275354369267 | epot = -11.7938584374905 | etot = -8.3746230328786
378000  ekin = 1.85889028460788 |  erot = 1.57838589666728 | epot = -11.8118992141862 | etot = -8.37462303291103
379000  ekin = 1.87974734421377 |  erot = 1.58231910072918 | epot = -11.8366894778912 | etot = -8.3746230329482
380000  ekin = 1.88876618247951 |  erot = 1.60397852042908 | epot = -11.8673677359266 | etot = -8.37462303301803
381000  ekin = 1.88634387025611 |  erot = 1.64162253507735 | epot = -11.9025894384722 | etot = -8.37462303313873
382000  ekin = 1.87329602399998 |  erot = 1.69239968364376 | epot = -11.9403187409518 | etot = -8.37462303330804
383000  ekin = 1.85067766912106 |  erot = 1.75260724974019 | epot = -11.9779079523652 | etot = -8.37462303350397
384000  ekin = 1.81972884480784 |  erot = 1.81808771261072 | epot = -12.0124395911118 | etot = -8.37462303369321
385000  ekin = 1.78192764777047 |  erot = 1.8846313378676 | epot = -12.041182019504 | etot = -8.3746230338659
386000  ekin = 1.73896117301596 |  erot = 1.94830024178193 | epot = -12.0618844487821 | etot = -8.37462303398425
387000  ekin = 1.69261703956648 |  erot = 2.00550933075379 | epot = -12.0727494044584 | etot = -8.37462303413813
388000  ekin = 1.64442362565029 |  erot = 2.05290262288177 | epot = -12.0719492828234 | etot = -8.3746230342913
389000  ekin = 1.59562809726279 |  erot = 2.08769097010093 | epot = -12.0579421017191 | etot = -8.37462303435535
390000  ekin = 1.54727258078745 |  erot = 2.10804034821841 | epot = -12.0299359634133 | etot = -8.3746230344074
391000  ekin = 1.50042668689197 |  erot = 2.11301685840032 | epot = -11.9880665795736 | etot = -8.37462303428126
392000  ekin = 1.45669956782597 |  erot = 2.10352612083801 | epot = -11.9348487226021 | etot = -8.37462303393817
393000  ekin = 1.41857599108996 |  erot = 2.0826321347131 | epot = -11.8758311591979 | etot = -8.37462303339481
394000  ekin = 1.3893261262781 |  erot = 2.05528425943378 | epot = -11.8192334184605 | etot = -8.37462303274866
395000  ekin = 1.37246101478385 |  erot = 2.02739319427127 | epot = -11.7744772412142 | etot = -8.37462303215908
396000  ekin = 1.3707890798786 |  erot = 2.00445159240551 | epot = -11.749863704081 | etot = -8.37462303179692
397000  ekin = 1.38538853999914 |  erot = 1.9901130253752 | epot = -11.7501245971563 | etot = -8.37462303178196
398000  ekin = 1.41490531161682 |  erot = 1.98519641778307 | epot = -11.7747247615386 | etot = -8.37462303213875
399000  ekin = 1.45547085036336 |  erot = 1.98743025594694 | epot = -11.8175241391048 | etot = -8.37462303279453
400000  ekin = 1.50126526406668 |  erot = 1.99196444869264 | epot = -11.8678527463719 | etot = -8.37462303361261
401000  ekin = 1.54549713891568 |  erot = 1.99242148352413 | epot = -11.9125416568766 | etot = -8.37462303443679
402000  ekin = 1.58148802753477 |  erot = 1.98217540610567 | epot = -11.9382864687619 | etot = -8.37462303512143
403000  ekin = 1.60364407572881 |  erot = 1.9556344645944 | epot = -11.9339015758642 | etot = -8.37462303554099
404000  ekin = 1.60823718231487 |  erot = 1.90940860689026 | epot = -11.8922688248051 | etot = -8.37462303559999
405000  ekin = 1.59393186875452 |  erot = 1.84321418438557 | epot = -11.8117690883978 | etot = -8.37462303525771
406000  ekin = 1.56197926550493 |  erot = 1.76026394072102 | epot = -11.696866240782 | etot = -8.37462303455608
407000  ekin = 1.51595319782311 |  erot = 1.66689496115276 | epot = -11.5574711925966 | etot = -8.37462303362071
408000  ekin = 1.46103089399052 |  erot = 1.57144700034413 | epot = -11.4071009269554 | etot = -8.37462303262075
409000  ekin = 1.40302353808213 |  erot = 1.48274963105035 | epot = -11.2603962008455 | etot = -8.37462303171298
410000  ekin = 1.34747963365293 |  erot = 1.40871679572301 | epot = -11.1308194603669 | etot = -8.37462303099097
411000  ekin = 1.24142842928345 |  erot = 1.3676589102725 | epot = -10.983710354595 | etot = -8.37462301503906
412000  ekin = 1.07606206466684 |  erot = 1.44463891803659 | epot = -10.895323988422 | etot = -8.37462300571856
413000  ekin = 1.0469492246958 |  erot = 1.51102600613229 | epot = -10.9325982588143 | etot = -8.37462302798624
414000  ekin = 1.03606467090329 |  erot = 1.52895884328701 | epot = -10.9396465423135 | etot = -8.37462302812324
415000  ekin = 1.03698178421953 |  erot = 1.56970634086083 | epot = -10.9813111534877 | etot = -8.37462302840732
416000  ekin = 1.04842794421656 |  erot = 1.63005774223169 | epot = -11.0531087152564 | etot = -8.37462302880815
417000  ekin = 1.06841333535611 |  erot = 1.70571770479117 | epot = -11.1487540694412 | etot = -8.37462302929392
418000  ekin = 1.09444701005052 |  erot = 1.79158405306285 | epot = -11.2606540929514 | etot = -8.374623029838
419000  ekin = 1.12371544113025 |  erot = 1.88200392342439 | epot = -11.3803423949703 | etot = -8.37462303041567
420000  ekin = 1.15322596863697 |  erot = 1.97103956947911 | epot = -11.4988885691119 | etot = -8.37462303099584
421000  ekin = 1.17996638670183 |  erot = 2.05281125535609 | epot = -11.6074006735882 | etot = -8.37462303153032
422000  ekin = 1.201150629811 |  erot = 2.12197272517913 | epot = -11.6977463869433 | etot = -8.37462303195322
423000  ekin = 1.21456879342709 |  erot = 2.17429924607153 | epot = -11.7634910716962 | etot = -8.37462303219755
424000  ekin = 1.21895541018766 |  erot = 2.20725430505394 | epot = -11.8008327474642 | etot = -8.37462303222256
425000  ekin = 1.21420953470709 |  erot = 2.22030001430835 | epot = -11.8091325810571 | etot = -8.37462303204169
426000  ekin = 1.20134505265786 |  erot = 2.21476142814848 | epot = -11.7907295125128 | etot = -8.37462303170646
427000  ekin = 1.18219319315386 |  erot = 2.19340434236612 | epot = -11.7502205668101 | etot = -8.37462303129015
428000  ekin = 1.15899921940896 |  erot = 2.15981652249743 | epot = -11.6934387727642 | etot = -8.37462303085781
429000  ekin = 1.13415683500777 |  erot = 2.11790831242985 | epot = -11.626688176254 | etot = -8.37462302881639
430000  ekin = 1.11403963820945 |  erot = 2.07460238347142 | epot = -11.5632650504412 | etot = -8.37462302876033
431000  ekin = 1.10124843427927 |  erot = 2.03325324115979 | epot = -11.5091247042067 | etot = -8.37462302876769
432000  ekin = 1.09509673682025 |  erot = 1.9941469470348 | epot = -11.463866712691 | etot = -8.3746230288359
433000  ekin = 1.09463609314599 |  erot = 1.9571134858218 | epot = -11.4263726079113 | etot = -8.37462302894346
434000  ekin = 1.09809472012928 |  erot = 1.92111283569796 | epot = -11.3938305852077 | etot = -8.37462302938051
435000  ekin = 1.10341624338772 |  erot = 1.8849214283028 | epot = -11.3629607010957 | etot = -8.37462302940516
436000  ekin = 1.11020757162788 |  erot = 1.84854231975879 | epot = -11.3333729208359 | etot = -8.37462302944924
437000  ekin = 1.11803889537718 |  erot = 1.81186902511188 | epot = -11.3045309499972 | etot = -8.37462302950813
438000  ekin = 1.12642172160212 |  erot = 1.77470718111906 | epot = -11.2757519322947 | etot = -8.37462302957348
439000  ekin = 1.13485148153857 |  erot = 1.73686282079504 | epot = -11.2463373319668 | etot = -8.37462302963316
440000  ekin = 1.14287335820557 |  erot = 1.69826079507258 | epot = -11.2157571829501 | etot = -8.37462302967201
441000  ekin = 1.15016795453 |  erot = 1.65908318343106 | epot = -11.1838741676308 | etot = -8.37462302966978
442000  ekin = 1.15664284201482 |  erot = 1.6199231351832 | epot = -11.1511890068214 | etot = -8.37462302962339
443000  ekin = 1.16253418069017 |  erot = 1.58179210099589 | epot = -11.1189493112081 | etot = -8.37462302952203
444000  ekin = 1.16846798531274 |  erot = 1.54614466613438 | epot = -11.0892356808159 | etot = -8.37462302936875
445000  ekin = 1.17546820346638 |  erot = 1.51479732961113 | epot = -11.0648885622563 | etot = -8.37462302917878
446000  ekin = 1.18488743024717 |  erot = 1.48973802088361 | epot = -11.0492484801107 | etot = -8.37462302897993
447000  ekin = 1.19824347153684 |  erot = 1.4728428998067 | epot = -11.045709400153 | etot = -8.37462302880946
448000  ekin = 1.21696535091614 |  erot = 1.46554765995659 | epot = -11.057136039583 | etot = -8.37462302871022
449000  ekin = 1.24207954598622 |  erot = 1.4685127109392 | epot = -11.0852152856451 | etot = -8.37462302871963
450000  ekin = 1.27389445230429 |  erot = 1.48136016742347 | epot = -11.1298776485977 | etot = -8.37462302886998
451000  ekin = 1.31179903842897 |  erot = 1.50255470267787 | epot = -11.1889767701169 | etot = -8.37462302901007
452000  ekin = 1.35460859520486 |  erot = 1.52989164327214 | epot = -11.2591232679092 | etot = -8.37462302943224
453000  ekin = 1.39989469250173 |  erot = 1.55983588432776 | epot = -11.3343536067683 | etot = -8.37462302993882
454000  ekin = 1.44437957549661 |  erot = 1.58822152329951 | epot = -11.4072241292539 | etot = -8.37462303045782
455000  ekin = 1.48456015878224 |  erot = 1.61103616004378 | epot = -11.4702193497299 | etot = -8.37462303090385
456000  ekin = 1.51733329615318 |  erot = 1.62510652435346 | epot = -11.517062851697 | etot = -8.37462303119032
457000  ekin = 1.5402924579761 |  erot = 1.62854015385613 | epot = -11.5434556431069 | etot = -8.37462303127466
458000  ekin = 1.55209787062734 |  erot = 1.62122255615373 | epot = -11.5479434578271 | etot = -8.37462303104604
459000  ekin = 1.55414659187724 |  erot = 1.60571991112735 | epot = -11.534489533587 | etot = -8.37462303058242
460000  ekin = 1.54960099436809 |  erot = 1.58640018749714 | epot = -11.5106242118318 | etot = -8.37462302996654
461000  ekin = 1.54273124224903 |  erot = 1.56872252266296 | epot = -11.4860767942369 | etot = -8.37462302932495
462000  ekin = 1.53795589449111 |  erot = 1.5582592991952 | epot = -11.4708382224909 | etot = -8.37462302880455
463000  ekin = 1.53875903307997 |  erot = 1.55959299575739 | epot = -11.4729750573638 | etot = -8.3746230285264
464000  ekin = 1.5468202951189 |  erot = 1.57534186894895 | epot = -11.4967851926234 | etot = -8.37462302855553
465000  ekin = 1.5616294650255 |  erot = 1.60564212072996 | epot = -11.5418946146276 | etot = -8.37462302887219
466000  ekin = 1.58070265304393 |  erot = 1.64822662156127 | epot = -11.603552303988 | etot = -8.37462302938276
467000  ekin = 1.60035208027376 |  erot = 1.69905719079026 | epot = -11.6740323010118 | etot = -8.37462302994776
468000  ekin = 1.61673623107391 |  erot = 1.75335443246779 | epot = -11.7447136939717 | etot = -8.37462303042997
469000  ekin = 1.6268308500714 |  erot = 1.80670922025666 | epot = -11.8081631010573 | etot = -8.37462303072922
470000  ekin = 1.62907239972708 |  erot = 1.85596584024088 | epot = -11.8596612707757 | etot = -8.37462303080778
471000  ekin = 1.62354687373172 |  erot = 1.89966129170781 | epot = -11.8978311961317 | etot = -8.37462303069216
472000  ekin = 1.61170510379399 |  erot = 1.93800410341128 | epot = -11.9243322376449 | etot = -8.37462303043963
473000  ekin = 1.59590324450823 |  erot = 1.97246730642068 | epot = -11.942993581055 | etot = -8.37462303012609
474000  ekin = 1.57886523181115 |  erot = 2.0052614988155 | epot = -11.9587497604446 | etot = -8.3746230298179
475000  ekin = 1.56312071578843 |  erot = 2.03882982960528 | epot = -11.9765735749592 | etot = -8.37462302956554
476000  ekin = 1.55063074695033 |  erot = 2.07545668637289 | epot = -12.0007104627126 | etot = -8.37462302938941
477000  ekin = 1.54263588410755 |  erot = 2.1170423117264 | epot = -12.0343012251352 | etot = -8.37462302930124
478000  ekin = 1.53956151541937 |  erot = 2.16493101565526 | epot = -12.0791155603799 | etot = -8.37462302930528
479000  ekin = 1.54104337297899 |  erot = 2.21977101927769 | epot = -12.1354374216606 | etot = -8.37462302940391
480000  ekin = 1.54600976096935 |  erot = 2.28138261400517 | epot = -12.2020154045697 | etot = -8.37462302959523
481000  ekin = 1.5528060602472 |  erot = 2.34867771789131 | epot = -12.2761068080046 | etot = -8.37462302986605
482000  ekin = 1.55937339634702 |  erot = 2.41971772771426 | epot = -12.3537141542448 | etot = -8.3746230301835
483000  ekin = 1.56350104452675 |  erot = 2.49198464322954 | epot = -12.4301087182516 | etot = -8.37462303049528
484000  ekin = 1.56314467772452 |  erot = 2.56280026280573 | epot = -12.5005679712779 | etot = -8.37462303074763
485000  ekin = 1.55677099189244 |  erot = 2.62990187864922 | epot = -12.5612959014245 | etot = -8.37462303088287
486000  ekin = 1.54362230241359 |  erot = 2.69196691951186 | epot = -12.6102122528172 | etot = -8.37462303089175
487000  ekin = 1.5238104379152 |  erot = 2.74866369544762 | epot = -12.6470971641607 | etot = -8.37462303079786
488000  ekin = 1.49822858843879 |  erot = 2.80041322794163 | epot = -12.6732648470306 | etot = -8.37462303065017
489000  ekin = 1.46832177710635 |  erot = 2.84792010719105 | epot = -12.6908649147994 | etot = -8.37462303050195
490000  ekin = 1.43580907600596 |  erot = 2.89167668868156 | epot = -12.7021087950802 | etot = -8.37462303039268
491000  ekin = 1.40244626498158 |  erot = 2.9316206813094 | epot = -12.7086899766291 | etot = -8.37462303033812
492000  ekin = 1.36987596423118 |  erot = 2.96703118868649 | epot = -12.7115301832508 | etot = -8.37462303033312
493000  ekin = 1.33956200675437 |  erot = 2.99664446239339 | epot = -12.7108294995088 | etot = -8.37462303036106
494000  ekin = 1.3127681632086 |  erot = 3.01889804551742 | epot = -12.7062892391324 | etot = -8.37462303040635
495000  ekin = 1.29052832589597 |  erot = 3.03218505524697 | epot = -12.6973364116059 | etot = -8.37462303046299
496000  ekin = 1.27356858864283 |  erot = 3.0350229857791 | epot = -12.6832146049601 | etot = -8.37462303053819
497000  ekin = 1.26217859738849 |  erot = 3.02610963123598 | epot = -12.6629112592681 | etot = -8.37462303064358
498000  ekin = 1.25609176092335 |  erot = 3.00437387242604 | epot = -12.6350886640705 | etot = -8.37462303072112
499000  ekin = 1.25448433544045 |  erot = 2.96925958209619 | epot = -12.5983669483989 | etot = -8.37462303086226
500000  ekin = 1.25592311954879 |  erot = 2.92052794168349 | epot = -12.5510740922054 | etot = -8.37462303097314
501000  ekin = 1.25866262015632 |  erot = 2.85877857413469 | epot = -12.4920642252919 | etot = -8.37462303100091
502000  ekin = 1.2610103010417 |  erot = 2.78589367847612 | epot = -12.421527010423 | etot = -8.3746230309052
503000  ekin = 1.26168224098171 |  erot = 2.70525686265903 | epot = -12.3415621343142 | etot = -8.37462303067344
504000  ekin = 1.26006875272983 |  erot = 2.62162663921981 | epot = -12.2563184222836 | etot = -8.37462303033399
505000  ekin = 1.25635230634192 |  erot = 2.5406610185081 | epot = -12.1716363547687 | etot = -8.3746230299187
506000  ekin = 1.25147361583174 |  erot = 2.46829686832129 | epot = -12.0943935136462 | etot = -8.37462302949319
507000  ekin = 1.24695832252164 |  erot = 2.40991559866122 | epot = -12.0314969503117 | etot = -8.37462302912883
508000  ekin = 1.24460011261649 |  erot = 2.36947588934202 | epot = -11.9886990309674 | etot = -8.37462302900885
509000  ekin = 1.24584437164828 |  erot = 2.34837731731217 | epot = -11.9688447179543 | etot = -8.37462302899384
510000  ekin = 1.25172041123361 |  erot = 2.34550382347579 | epot = -11.9718472639353 | etot = -8.37462302922588
511000  ekin = 1.26248317250715 |  erot = 2.35680066398031 | epot = -11.9939068661965 | etot = -8.37462302970907
512000  ekin = 1.27739486770184 |  erot = 2.3752978884897 | epot = -12.0273157865857 | etot = -8.37462303039418
513000  ekin = 1.29481021504986 |  erot = 2.39185405428514 | epot = -12.0612873005101 | etot = -8.37462303117506
514000  ekin = 1.31250889880426 |  erot = 2.39651406027419 | epot = -12.0836459909739 | etot = -8.37462303189546
515000  ekin = 1.32825052581585 |  erot = 2.38037057726031 | epot = -12.0832441354508 | etot = -8.37462303237461
516000  ekin = 1.34045831429004 |  erot = 2.33760267994477 | epot = -12.0526840266922 | etot = -8.37462303245741
517000  ekin = 1.34883924084187 |  erot = 2.26713155444233 | epot = -11.9905938273613 | etot = -8.37462303207706
518000  ekin = 1.35468550683679 |  erot = 2.17326127006567 | epot = -11.9025698081983 | etot = -8.37462303129585
519000  ekin = 1.36067339624038 |  erot = 2.06494828515103 | epot = -11.8002447116801 | etot = -8.37462303028865
520000  ekin = 1.37018582822438 |  erot = 1.95390329836061 | epot = -11.6987121558631 | etot = -8.3746230292781
521000  ekin = 1.38639579380191 |  erot = 1.85221057840952 | epot = -11.6132294006716 | etot = -8.37462302846015
522000  ekin = 1.41141432490479 |  erot = 1.77022445533383 | epot = -11.5562618081968 | etot = -8.37462302795815
523000  ekin = 1.44572356453344 |  erot = 1.71520045870257 | epot = -11.5355470510526 | etot = -8.37462302781656
524000  ekin = 1.48798145409679 |  erot = 1.69073008317396 | epot = -11.5533345652857 | etot = -8.37462302801491
525000  ekin = 1.53517683781673 |  erot = 1.6968029606332 | epot = -11.6066028269435 | etot = -8.37462302849353
526000  ekin = 1.58304900119248 |  erot = 1.73025509475185 | epot = -11.6879271251181 | etot = -8.37462302917376
527000  ekin = 1.62665879649442 |  erot = 1.78540941264019 | epot = -11.7866912391056 | etot = -8.374623029971
528000  ekin = 1.66100783108954 |  erot = 1.8548065480344 | epot = -11.890437409923 | etot = -8.37462303079904
529000  ekin = 1.68163863412964 |  erot = 1.93001159413482 | epot = -11.9862732598315 | etot = -8.37462303156707
530000  ekin = 1.6851862302745 |  erot = 2.00252460865783 | epot = -12.0623338711126 | etot = -8.37462303218029
531000  ekin = 1.66986059685934 |  erot = 2.06478669656075 | epot = -12.1092703259691 | etot = -8.374623032549
532000  ekin = 1.63581226896463 |  erot = 2.1111667918467 | epot = -12.1216020934218 | etot = -8.37462303261044
533000  ekin = 1.58529617178013 |  erot = 2.13870511838882 | epot = -12.0986243225211 | etot = -8.37462303235218
534000  ekin = 1.52254564095829 |  erot = 2.14737698822929 | epot = -12.0445456610111 | etot = -8.37462303182353
535000  ekin = 1.45332420577031 |  erot = 2.13977370493955 | epot = -11.9677209418325 | etot = -8.37462303112261
536000  ekin = 1.38421691011895 |  erot = 2.12031314070428 | epot = -11.8791530811919 | etot = -8.37462303036864
537000  ekin = 1.32180342899929 |  erot = 2.09425520394406 | epot = -11.7906816626133 | etot = -8.37462302966991
538000  ekin = 1.27187743420573 |  erot = 2.06681107588934 | epot = -11.7133115391993 | etot = -8.37462302910426
539000  ekin = 1.23883846279537 |  erot = 2.04251647933667 | epot = -11.6559779708476 | etot = -8.37462302871558
540000  ekin = 1.22531302703425 |  erot = 2.02488499742798 | epot = -11.6248210529832 | etot = -8.37462302852096
541000  ekin = 1.23199882291205 |  erot = 2.01625749304676 | epot = -11.6228793444808 | etot = -8.37462302852195
542000  ekin = 1.25769219451248 |  erot = 2.01774880495238 | epot = -11.6500640281746 | etot = -8.37462302870978
543000  ekin = 1.29945731407308 |  erot = 2.02924170402515 | epot = -11.7033220471641 | etot = -8.37462302906591
544000  ekin = 1.35291512122318 |  erot = 2.04944893327204 | epot = -11.7769870840498 | etot = -8.37462302955459
545000  ekin = 1.41265384122289 |  erot = 2.07611668223704 | epot = -11.8633935535769 | etot = -8.37462303011699
546000  ekin = 1.47277167575315 |  erot = 2.10644216881038 | epot = -11.9538368752322 | etot = -8.37462303066866
547000  ekin = 1.52754093319635 |  erot = 2.13770468829281 | epot = -12.0398686526028 | etot = -8.37462303111365
548000  ekin = 1.57213155238919 |  erot = 2.16798237176649 | epot = -12.1147369555237 | etot = -8.37462303136797
549000  ekin = 1.60327488859445 |  erot = 2.19671767496084 | epot = -12.1746155949423 | etot = -8.37462303138697
550000  ekin = 1.61972434376709 |  erot = 2.22489244333565 | epot = -12.219239818284 | etot = -8.37462303118126
551000  ekin = 1.62240013870483 |  erot = 2.25470593136133 | epot = -12.2517291008792 | etot = -8.37462303081309
552000  ekin = 1.61417495562361 |  erot = 2.28884205647118 | epot = -12.2776400424738 | etot = -8.37462303037905
553000  ekin = 1.59932782091749 |  erot = 2.32954987377768 | epot = -12.3035007246832 | etot = -8.37462302998807
554000  ekin = 1.5827459906671 |  erot = 2.3777881761324 | epot = -12.3351571965401 | etot = -8.37462302974062
555000  ekin = 1.56899856385031 |  erot = 2.43263226771804 | epot = -12.3762538612779 | etot = -8.37462302970954
556000  ekin = 1.56145041157602 |  erot = 2.49106505511668 | epot = -12.4271384966169 | etot = -8.37462302992416
557000  ekin = 1.56197837218677 |  erot = 2.54829507223601 | epot = -12.4848964746456 | etot = -8.37462303022277
558000  ekin = 1.57029216551734 |  erot = 2.59810209182387 | epot = -12.5430172882088 | etot = -8.37462303086757
559000  ekin = 1.58339818320791 |  erot = 2.63367391511495 | epot = -12.5916951298592 | etot = -8.3746230315363
560000  ekin = 1.59712770481022 |  erot = 2.64904697988658 | epot = -12.6207977168081 | etot = -8.37462303211135
561000  ekin = 1.60698123343006 |  erot = 2.64009683894503 | epot = -12.6217011048634 | etot = -8.37462303248831
562000  ekin = 1.60896027782097 |  erot = 2.60532700120818 | epot = -12.5889103116217 | etot = -8.37462303259257
563000  ekin = 1.60023696633043 |  erot = 2.54649193869621 | epot = -12.5213519373451 | etot = -8.37462303231848
564000  ekin = 1.57955774677214 |  erot = 2.46891092806291 | epot = -12.4230917066634 | etot = -8.37462303182835
565000  ekin = 1.54734561566674 |  erot = 2.38031455632116 | epot = -12.3022832030957 | etot = -8.3746230311078
566000  ekin = 1.5055446855442 |  erot = 2.29049479450215 | epot = -12.1706625102933 | etot = -8.37462303024697
567000  ekin = 1.45732250665219 |  erot = 2.21025028826183 | epot = -12.0421958242629 | etot = -8.37462302934887
568000  ekin = 1.40671207380929 |  erot = 2.15003703753047 | epot = -11.9313721398977 | etot = -8.3746230285579
569000  ekin = 1.35794157949263 |  erot = 2.11775595086814 | epot = -11.8503205583487 | etot = -8.37462302798794
570000  ekin = 1.31523212119468 |  erot = 2.11799693943003 | epot = -11.8078520883709 | etot = -8.37462302774614
571000  ekin = 1.28243871605086 |  erot = 2.15081941192853 | epot = -11.8078811559413 | etot = -8.37462302796192
572000  ekin = 1.26220633019376 |  erot = 2.2102703424972 | epot = -11.8470997013807 | etot = -8.37462302868972
573000  ekin = 1.25525341535257 |  erot = 2.28456705415208 | epot = -11.9144434992943 | etot = -8.37462302978967
574000  ekin = 1.26030251434112 |  erot = 2.35813787036021 | epot = -11.9930634156831 | etot = -8.37462303098173
575000  ekin = 1.2747321562316 |  erot = 2.41511328226678 | epot = -12.0644684704335 | etot = -8.37462303193515
576000  ekin = 1.29562562245951 |  erot = 2.44294920216406 | epot = -12.1131978571128 | etot = -8.37462303248922
577000  ekin = 1.32065634432137 |  erot = 2.4343858678001 | epot = -12.129665244697 | etot = -8.37462303257555
578000  ekin = 1.34847271375488 |  erot = 2.38804498568619 | epot = -12.1111407317151 | etot = -8.37462303227407
579000  ekin = 1.37859640731489 |  erot = 2.30759327889185 | epot = -12.0608127179344 | etot = -8.37462303172763
580000  ekin = 1.41115339286507 |  erot = 2.20016188412019 | epot = -11.9859383079394 | etot = -8.37462303095417
581000  ekin = 1.44674776515311 |  erot = 2.07475133368239 | epot = -11.8961221291764 | etot = -8.3746230303409
582000  ekin = 1.4851482181056 |  erot = 1.94050793885046 | epot = -11.8002791867472 | etot = -8.37462302979113
583000  ekin = 1.52576266955674 |  erot = 1.80603709651288 | epot = -11.7064227954087 | etot = -8.37462302933907
584000  ekin = 1.56772288057633 |  erot = 1.67887072897788 | epot = -11.6212166385574 | etot = -8.37462302900324
585000  ekin = 1.60990333959043 |  erot = 1.56509115871858 | epot = -11.5496175271048 | etot = -8.37462302879577
586000  ekin = 1.65096359832029 |  erot = 1.46905708282353 | epot = -11.4946437098695 | etot = -8.37462302872568
587000  ekin = 1.68940411634564 |  erot = 1.39319741551335 | epot = -11.4572245606547 | etot = -8.37462302879574
588000  ekin = 1.7236417052592 |  erot = 1.33790137443014 | epot = -11.4361661086849 | etot = -8.37462302899558
589000  ekin = 1.75212209151151 |  erot = 1.30158756259673 | epot = -11.4283326833832 | etot = -8.37462302927499
590000  ekin = 1.7734877690591 |  erot = 1.28111987725434 | epot = -11.4292306759286 | etot = -8.37462302961515
591000  ekin = 1.78679652583164 |  erot = 1.27228388602452 | epot = -11.4337034417691 | etot = -8.37462302991292
592000  ekin = 1.79174476961307 |  erot = 1.27074179820056 | epot = -11.4371095979203 | etot = -8.37462303010663
593000  ekin = 1.78882244318556 |  erot = 1.27295060806053 | epot = -11.4363960813899 | etot = -8.37462303014385
594000  ekin = 1.77931578999128 |  erot = 1.27682752830015 | epot = -11.4307663483171 | etot = -8.37462303002563
595000  ekin = 1.76511936071165 |  erot = 1.28196044220613 | epot = -11.4217028327155 | etot = -8.37462302979776
596000  ekin = 1.74839643258916 |  erot = 1.28931412525878 | epot = -11.4123335873789 | etot = -8.37462302953091
597000  ekin = 1.73114837528962 |  erot = 1.30076368908067 | epot = -11.4065350936649 | etot = -8.37462302929462
598000  ekin = 1.71482586357112 |  erot = 1.31808503745119 | epot = -11.4075339301702 | etot = -8.37462302914792
599000  ekin = 1.70035612855311 |  erot = 1.34256499056023 | epot = -11.4175441481798 | etot = -8.37462302906646
600000  ekin = 1.68813838895978 |  erot = 1.37518403996367 | epot = -11.4379454579681 | etot = -8.37462302904461
601000  ekin = 1.67802155271441 |  erot = 1.41656361607937 | epot = -11.4692081979158 | etot = -8.37462302912207
602000  ekin = 1.66952241262264 |  erot = 1.4666430273455 | epot = -11.5107884691303 | etot = -8.37462302916217
603000  ekin = 1.66207455080015 |  erot = 1.52486246590599 | epot = -11.5615600459972 | etot = -8.3746230292911
604000  ekin = 1.65429274424403 |  erot = 1.59090716726236 | epot = -11.6198229408972 | etot = -8.37462302939085
605000  ekin = 1.64513458460529 |  erot = 1.66451963176718 | epot = -11.6842772458403 | etot = -8.37462302946786
606000  ekin = 1.63397297141698 |  erot = 1.74533329764484 | epot = -11.7539292986205 | etot = -8.3746230295587
607000  ekin = 1.62046446185711 |  erot = 1.83246852419141 | epot = -11.8275560158107 | etot = -8.37462302976218
608000  ekin = 1.60415138615035 |  erot = 1.92384516554888 | epot = -11.9026195817841 | etot = -8.37462303008485
609000  ekin = 1.58416607277181 |  erot = 2.01562004721373 | epot = -11.9744091506942 | etot = -8.37462303070865
610000  ekin = 1.55892234884572 |  erot = 2.10126039812651 | epot = -12.0348057783744 | etot = -8.37462303140216
611000  ekin = 1.52586403282394 |  erot = 2.17351542350385 | epot = -12.0740024883752 | etot = -8.37462303204737
612000  ekin = 1.48252796781607 |  erot = 2.22604744671485 | epot = -12.08319844693 | etot = -8.37462303239904
613000  ekin = 1.42777710478085 |  erot = 2.25549715886452 | epot = -12.0578972959105 | etot = -8.37462303226511
614000  ekin = 1.3628430267639 |  erot = 2.26309761368147 | epot = -12.0005636720633 | etot = -8.3746230316179
615000  ekin = 1.29166682111812 |  erot = 2.25472033316445 | epot = -11.9210101848959 | etot = -8.37462303061333
616000  ekin = 1.22033159946011 |  erot = 2.23929049959926 | epot = -11.8342451285637 | etot = -8.37462302950437
617000  ekin = 1.15585313013231 |  erot = 2.22643765863228 | epot = -11.7569138172907 | etot = -8.3746230285261
618000  ekin = 1.10482633868852 |  erot = 2.22445549379376 | epot = -11.7039048603085 | etot = -8.37462302782626
619000  ekin = 1.07233800596022 |  erot = 2.23915844396351 | epot = -11.6861194773919 | etot = -8.37462302746814
620000  ekin = 1.06133969548983 |  erot = 2.27356598266004 | epot = -11.7095287055634 | etot = -8.37462302741356
621000  ekin = 1.07250328126401 |  erot = 2.32827640438157 | epot = -11.7754027132578 | etot = -8.37462302761218
622000  ekin = 1.1044829924491 |  erot = 2.40202886261627 | epot = -11.8811348830564 | etot = -8.374623027991
623000  ekin = 1.15443583440766 |  erot = 2.49214268564081 | epot = -12.0212015485464 | etot = -8.37462302849796
624000  ekin = 1.21858504498424 |  erot = 2.5947997927632 | epot = -12.18800786685 | etot = -8.37462302910256
625000  ekin = 1.29260009293184 |  erot = 2.70513041487812 | epot = -12.3723535376525 | etot = -8.37462302984255
626000  ekin = 1.37166908701492 |  erot = 2.81669294847818 | epot = -12.5629850662672 | etot = -8.37462303077413
627000  ekin = 1.45036408326109 |  erot = 2.92095656626005 | epot = -12.7459436814237 | etot = -8.37462303190255
628000  ekin = 1.52265779658264 |  erot = 3.00738157699458 | epot = -12.9046624066692 | etot = -8.37462303309196
629000  ekin = 1.58251554245296 |  erot = 3.06484099788415 | epot = -13.0219795743847 | etot = -8.3746230340476
630000  ekin = 1.62514418880762 |  erot = 3.08443014421921 | epot = -13.0841973674672 | etot = -8.37462303444039
631000  ekin = 1.64954255051894 |  erot = 3.06336922299649 | epot = -13.0875348072763 | etot = -8.37462303376085
632000  ekin = 1.65761419154519 |  erot = 3.00573585957028 | epot = -13.0379730840961 | etot = -8.37462303298061
633000  ekin = 1.6517479509391 |  erot = 2.91965232775885 | epot = -12.9460233106084 | etot = -8.37462303191049
634000  ekin = 1.63566753657902 |  erot = 2.81604656740808 | epot = -12.8263371348676 | etot = -8.3746230308805
635000  ekin = 1.61303222683961 |  erot = 2.70552755469806 | epot = -12.6931828116427 | etot = -8.37462303010504
636000  ekin = 1.58646965555962 |  erot = 2.5963371949764 | epot = -12.5574298801698 | etot = -8.37462302963381
637000  ekin = 1.55730595136398 |  erot = 2.49385627804023 | epot = -12.4257852588016 | etot = -8.37462302939739
638000  ekin = 1.52584911625133 |  erot = 2.40123459740287 | epot = -12.3017067429364 | etot = -8.37462302928216
639000  ekin = 1.49192497641185 |  erot = 2.32043250456993 | epot = -12.1869805101672 | etot = -8.37462302918542
640000  ekin = 1.45541378442356 |  erot = 2.25314232064229 | epot = -12.0831791341069 | etot = -8.374623029041
641000  ekin = 1.41664919926921 |  erot = 2.20135144253767 | epot = -11.9926236706291 | etot = -8.37462302882226
642000  ekin = 1.376631358572 |  erot = 2.16751840710179 | epot = -11.918772794211 | etot = -8.37462302853725
643000  ekin = 1.33719601643057 |  erot = 2.15436138730356 | epot = -11.8661804319133 | etot = -8.37462302817919
644000  ekin = 1.30095460066741 |  erot = 2.16433354913846 | epot = -11.839911177714 | etot = -8.37462302790811
645000  ekin = 1.27009047740861 |  erot = 2.19964354153175 | epot = -11.8443570466466 | etot = -8.37462302770626
646000  ekin = 1.24673444984187 |  erot = 2.26154821905476 | epot = -11.8829056965369 | etot = -8.37462302764027
647000  ekin = 1.23265873216219 |  erot = 2.34972644270293 | epot = -11.9570082026423 | etot = -8.37462302777716
648000  ekin = 1.2285470414815 |  erot = 2.46146984669589 | epot = -12.0646399168505 | etot = -8.37462302867306
649000  ekin = 1.2312343827645 |  erot = 2.5891828411036 | epot = -12.1950402535055 | etot = -8.37462302963742
650000  ekin = 1.23733747326857 |  erot = 2.72274115030274 | epot = -12.3347016542761 | etot = -8.37462303070479
651000  ekin = 1.2428991851106 |  erot = 2.85114575375435 | epot = -12.4686679705912 | etot = -8.37462303172626
652000  ekin = 1.24424620799569 |  erot = 2.96370857038951 | epot = -12.582577810847 | etot = -8.37462303246178
653000  ekin = 1.23918232849206 |  erot = 3.05217314602615 | epot = -12.6659785072747 | etot = -8.37462303275648
654000  ekin = 1.22772861476413 |  erot = 3.11212236728161 | epot = -12.7144740146629 | etot = -8.37462303261719
655000  ekin = 1.21201905899387 |  erot = 3.14303840851451 | epot = -12.7296804996997 | etot = -8.37462303219133
656000  ekin = 1.1954374432854 |  erot = 3.14720435564397 | epot = -12.7172648305973 | etot = -8.37462303166789
657000  ekin = 1.18149305106227 |  erot = 3.12826014301131 | epot = -12.6843762252558 | etot = -8.37462303118225
658000  ekin = 1.17296379520024 |  erot = 3.09016086422142 | epot = -12.6377476902079 | etot = -8.37462303078623
659000  ekin = 1.17154758057418 |  erot = 3.03675236921232 | epot = -12.582922980259 | etot = -8.37462303047247
[...]
836000  ekin = 1.32279692350256 |  erot = 2.28888168436755 | epot = -11.986301636848 | etot = -8.3746230289779
837000  ekin = 1.32614569945959 |  erot = 2.35776552714714 | epot = -12.058534255923 | etot = -8.3746230293163
838000  ekin = 1.3403008431344 |  erot = 2.42442328376899 | epot = -12.1393471566817 | etot = -8.37462302977832
839000  ekin = 1.36395770572684 |  erot = 2.48350186340464 | epot = -12.222082599402 | etot = -8.37462303027048
840000  ekin = 1.39499323416537 |  erot = 2.52993036126219 | epot = -12.299546626116 | etot = -8.37462303068842
841000  ekin = 1.43098519524504 |  erot = 2.5599379691709 | epot = -12.3655461953596 | etot = -8.37462303094361
842000  ekin = 1.46971603973845 |  erot = 2.57185321601318 | epot = -12.4161922867453 | etot = -8.37462303099366
843000  ekin = 1.50953312203373 |  erot = 2.56639824287125 | epot = -12.4505543957627 | etot = -8.37462303085771
844000  ekin = 1.54948222757244 |  erot = 2.54631968023969 | epot = -12.4704249384232 | etot = -8.37462303061104
845000  ekin = 1.58921446589296 |  erot = 2.5154473187876 | epot = -12.4792848150357 | etot = -8.37462303035509
846000  ekin = 1.62874660073221 |  erot = 2.4775136944313 | epot = -12.4808833253415 | etot = -8.37462303017796
847000  ekin = 1.66818957254827 |  erot = 2.43516936578467 | epot = -12.477981968457 | etot = -8.37462303012405
848000  ekin = 1.70754173431446 |  erot = 2.38953851005258 | epot = -12.4717032745492 | etot = -8.37462303018218
849000  ekin = 1.74659403306508 |  erot = 2.34043091651812 | epot = -12.4616479798811 | etot = -8.37462303029795
850000  ekin = 1.78494345866321 |  erot = 2.28706007038529 | epot = -12.4466265594494 | etot = -8.37462303040093
851000  ekin = 1.82207688727604 |  erot = 2.2289142006414 | epot = -12.4256141183555 | etot = -8.3746230304381
852000  ekin = 1.85747606626899 |  erot = 2.16637383867245 | epot = -12.3984729353385 | etot = -8.37462303039711
853000  ekin = 1.89070501215755 |  erot = 2.10080168939738 | epot = -12.3661297318617 | etot = -8.37462303030681
854000  ekin = 1.92146598579694 |  erot = 2.03409194239609 | epot = -12.3301809584131 | etot = -8.3746230302201
855000  ekin = 1.94963553788679 |  erot = 1.96792069996032 | epot = -12.2921792680323 | etot = -8.37462303018517
856000  ekin = 1.97530408452449 |  erot = 1.90306034570378 | epot = -12.2529874604504 | etot = -8.37462303022214
857000  ekin = 1.99898235174131 |  erot = 1.83954776717695 | epot = -12.2131531489779 | etot = -8.37462303005959
858000  ekin = 2.02148966893509 |  erot = 1.77712472343153 | epot = -12.1732374225842 | etot = -8.37462303021759
859000  ekin = 2.04332984814334 |  erot = 1.71372610060062 | epot = -12.1316789790773 | etot = -8.37462303033332
860000  ekin = 2.06530510863073 |  erot = 1.64761266618404 | epot = -12.0875408051618 | etot = -8.374623030347
861000  ekin = 2.08844047522602 |  erot = 1.57839130430927 | epot = -12.0414548097696 | etot = -8.37462303023435
862000  ekin = 2.11372996876901 |  erot = 1.50759861505592 | epot = -11.9959516138468 | etot = -8.37462303002184
863000  ekin = 2.14175193679491 |  erot = 1.43866072802333 | epot = -11.9550356946058 | etot = -8.3746230297876
864000  ekin = 2.17225364143819 |  erot = 1.37614575517505 | epot = -11.9230224262469 | etot = -8.37462302963362
865000  ekin = 2.20389689304742 |  erot = 1.32450432847587 | epot = -11.9030242511591 | etot = -8.37462302963585
866000  ekin = 2.23438769161032 |  erot = 1.28681328070663 | epot = -11.8958240017877 | etot = -8.3746230294708
867000  ekin = 2.26151301831441 |  erot = 1.26501341500429 | epot = -11.9011494630749 | etot = -8.37462302975622
868000  ekin = 2.28295312633932 |  erot = 1.25876385670057 | epot = -11.916340013014 | etot = -8.37462302997407
869000  ekin = 2.29713139087991 |  erot = 1.26636363803581 | epot = -11.93811805896 | etot = -8.37462303004431
870000  ekin = 2.30388454566185 |  erot = 1.28638972777185 | epot = -11.9648973034193 | etot = -8.3746230299856
871000  ekin = 2.30409365412262 |  erot = 1.3178762126361 | epot = -11.9965928971142 | etot = -8.37462303035544
872000  ekin = 2.29712455306445 |  erot = 1.35930276714503 | epot = -12.0310503505629 | etot = -8.37462303035347
873000  ekin = 2.2827453931626 |  erot = 1.40846954678818 | epot = -12.065837970059 | etot = -8.37462303010826
874000  ekin = 2.26320703627572 |  erot = 1.46277950106312 | epot = -12.1006095675599 | etot = -8.37462303022103
875000  ekin = 2.24001634728594 |  erot = 1.51889022328616 | epot = -12.1335296008613 | etot = -8.37462303028924
876000  ekin = 2.21430830467177 |  erot = 1.57348199615488 | epot = -12.1624133311039 | etot = -8.37462303027722
877000  ekin = 2.18777848573904 |  erot = 1.6238902016126 | epot = -12.1862917175001 | etot = -8.37462303014841
878000  ekin = 2.16252897548043 |  erot = 1.66838793090838 | epot = -12.2055399364441 | etot = -8.3746230300553
879000  ekin = 2.14044753722094 |  erot = 1.70571411560618 | epot = -12.2207846828201 | etot = -8.37462302999299
880000  ekin = 2.12277471002905 |  erot = 1.73469967121715 | epot = -12.2320974112717 | etot = -8.37462303002546
881000  ekin = 2.1097746736021 |  erot = 1.75399371448778 | epot = -12.2383914182746 | etot = -8.37462303018477
882000  ekin = 2.1005016432247 |  erot = 1.76187019273806 | epot = -12.2369948664083 | etot = -8.37462303044556
883000  ekin = 2.09290867712761 |  erot = 1.75649694685333 | epot = -12.2240286546966 | etot = -8.37462303071566
884000  ekin = 2.08433703645321 |  erot = 1.73671500456619 | epot = -12.1956750719276 | etot = -8.37462303090818
885000  ekin = 2.07202901572868 |  erot = 1.70282592067691 | epot = -12.149477967362 | etot = -8.37462303095645
886000  ekin = 2.05378411491616 |  erot = 1.65660476472205 | epot = -12.085011910272 | etot = -8.37462303063378
887000  ekin = 2.02874297420998 |  erot = 1.60297409541633 | epot = -12.0063400996958 | etot = -8.37462303006953
888000  ekin = 1.99720256583061 |  erot = 1.54912086824732 | epot = -11.9209464635357 | etot = -8.37462302945781
889000  ekin = 1.95913963735699 |  erot = 1.50198702369296 | epot = -11.8357496899727 | etot = -8.37462302892274
890000  ekin = 1.91617614841913 |  erot = 1.46746689325901 | epot = -11.7582660702128 | etot = -8.37462302853469
891000  ekin = 1.87023137415973 |  erot = 1.44931992810327 | epot = -11.6941743305868 | etot = -8.3746230283238
892000  ekin = 1.8231621873456 |  erot = 1.44889048228621 | epot = -11.6466756979021 | etot = -8.37462302827025
893000  ekin = 1.77672781685429 |  erot = 1.46538080245983 | epot = -11.6167316476416 | etot = -8.37462302832747
894000  ekin = 1.73267401007855 |  erot = 1.49642015526062 | epot = -11.6037171937751 | etot = -8.37462302843589
895000  ekin = 1.69287615444341 |  erot = 1.53876375542455 | epot = -11.6062629384049 | etot = -8.3746230285369
896000  ekin = 1.65946528810789 |  erot = 1.58897281258336 | epot = -11.6230611292845 | etot = -8.37462302859323
897000  ekin = 1.63484229163068 |  erot = 1.64389812681416 | epot = -11.6533634470399 | etot = -8.37462302859503
898000  ekin = 1.62150447332005 |  erot = 1.70104293751331 | epot = -11.697170439403 | etot = -8.37462302856965
899000  ekin = 1.62168394146258 |  erot = 1.75850368945834 | epot = -11.7548106594898 | etot = -8.37462302856883
900000  ekin = 1.63689346404302 |  erot = 1.81470313447753 | epot = -11.8262196271621 | etot = -8.37462302864159
901000  ekin = 1.66753387742819 |  erot = 1.86808611524062 | epot = -11.9102430214838 | etot = -8.37462302881503
902000  ekin = 1.71269692238274 |  erot = 1.91693084841939 | epot = -12.0042507998873 | etot = -8.37462302908514
903000  ekin = 1.77021838508481 |  erot = 1.95934050990426 | epot = -12.1041819244145 | etot = -8.37462302942543
904000  ekin = 1.83694819296821 |  erot = 1.99341312084221 | epot = -12.2049843435908 | etot = -8.37462302978037
905000  ekin = 1.90914641654266 |  erot = 2.01754527647795 | epot = -12.30131472313 | etot = -8.37462303010942
906000  ekin = 1.98289589688646 |  erot = 2.03065122058688 | epot = -12.3881701478555 | etot = -8.37462303038212
907000  ekin = 2.054438779243 |  erot = 2.03228127523553 | epot = -12.4613430850655 | etot = -8.37462303058698
908000  ekin = 2.12038320006242 |  erot = 2.02259637575073 | epot = -12.5176026065432 | etot = -8.37462303073002
909000  ekin = 2.17777472065707 |  erot = 2.0022386877701 | epot = -12.5546364392526 | etot = -8.37462303082542
910000  ekin = 2.22407231387976 |  erot = 1.97218459089875 | epot = -12.5708799356625 | etot = -8.37462303088398
911000  ekin = 2.25709881230759 |  erot = 1.93367043925372 | epot = -12.5653922824647 | etot = -8.37462303090339
912000  ekin = 2.27504055965831 |  erot = 1.88824345124241 | epot = -12.5379070417669 | etot = -8.37462303086623
913000  ekin = 2.27654326616713 |  erot = 1.83792322947699 | epot = -12.4890895263909 | etot = -8.37462303074678
914000  ekin = 2.26395838707267 |  erot = 1.78540897804261 | epot = -12.4239903947872 | etot = -8.37462302967189
915000  ekin = 2.24045468912196 |  erot = 1.73372810068503 | epot = -12.3488058193217 | etot = -8.37462302951466
916000  ekin = 2.20520370202174 |  erot = 1.686151051967 | epot = -12.2659777832985 | etot = -8.37462302930976
917000  ekin = 2.15800582906352 |  erot = 1.64606783755989 | epot = -12.1786966957246 | etot = -8.3746230291012
918000  ekin = 2.09921834411498 |  erot = 1.61647797759857 | epot = -12.0903193506413 | etot = -8.37462302892771
919000  ekin = 2.02966476142743 |  erot = 1.599549497798 | epot = -12.0038372880272 | etot = -8.3746230288018
920000  ekin = 1.95065755949502 |  erot = 1.59642144855376 | epot = -11.9217020368434 | etot = -8.37462302879458
921000  ekin = 1.8636620065108 |  erot = 1.60750866079726 | epot = -11.8457936959376 | etot = -8.37462302862953
922000  ekin = 1.77152243885364 |  erot = 1.63263587421313 | epot = -11.7787813414912 | etot = -8.37462302842448
923000  ekin = 1.67869484033055 |  erot = 1.67111175334441 | epot = -11.7244296218603 | etot = -8.3746230281853
924000  ekin = 1.59024537021244 |  erot = 1.72202288864506 | epot = -11.6868912868186 | etot = -8.3746230279611
925000  ekin = 1.51123937036936 |  erot = 1.78411652410876 | epot = -11.6699789223007 | etot = -8.37462302782256
926000  ekin = 1.44599317764589 |  erot = 1.85554834407226 | epot = -11.6761645495391 | etot = -8.37462302782096
927000  ekin = 1.39752558601065 |  erot = 1.9337066123555 | epot = -11.7058552263247 | etot = -8.3746230279586
928000  ekin = 1.36763823809538 |  erot = 2.01538770680855 | epot = -11.757648972791 | etot = -8.37462302788704
929000  ekin = 1.36100399983992 |  erot = 2.09737818238218 | epot = -11.8330052106852 | etot = -8.37462302846307
930000  ekin = 1.35523134970511 |  erot = 2.17722433883731 | epot = -11.9070787109271 | etot = -8.37462302238468
931000  ekin = 1.39431469299436 |  erot = 2.25435620438246 | epot = -12.0232939189468 | etot = -8.37462302156997
932000  ekin = 1.49280866705058 |  erot = 2.31847930193787 | epot = -12.1859109889588 | etot = -8.37462301997038
933000  ekin = 1.58533340946768 |  erot = 2.36490000058057 | epot = -12.32485643027 | etot = -8.37462302022171
934000  ekin = 1.68690712098869 |  erot = 2.39298221168838 | epot = -12.4545123553117 | etot = -8.37462302263461
935000  ekin = 1.78473836463911 |  erot = 2.39676204060952 | epot = -12.5561234284532 | etot = -8.37462302320454
936000  ekin = 1.8698772538689 |  erot = 2.37258693733547 | epot = -12.6170872147102 | etot = -8.37462302350582
937000  ekin = 1.93720452638615 |  erot = 2.32043568374803 | epot = -12.6322632336394 | etot = -8.37462302350518
938000  ekin = 1.98385208910065 |  erot = 2.24266190734071 | epot = -12.6011370196626 | etot = -8.37462302322125
939000  ekin = 2.00910923706108 |  erot = 2.14379034932921 | epot = -12.5275226091194 | etot = -8.37462302272916
940000  ekin = 2.01395507290262 |  erot = 2.02993348654092 | epot = -12.4185115815347 | etot = -8.37462302209116
941000  ekin = 2.00103743452152 |  erot = 1.90808629517784 | epot = -12.2837467510742 | etot = -8.37462302137486
942000  ekin = 1.97419824310677 |  erot = 1.78546116622571 | epot = -12.1342824299717 | etot = -8.37462302063921
943000  ekin = 1.93808318009367 |  erot = 1.66892069893714 | epot = -11.9816268989612 | etot = -8.37462301993037
944000  ekin = 1.89777663358483 |  erot = 1.56456198515311 | epot = -11.836961638024 | etot = -8.37462301928607
945000  ekin = 1.85843605735837 |  erot = 1.4774221417752 | epot = -11.7104812178744 | etot = -8.37462301874083
946000  ekin = 1.82491092896719 |  erot = 1.41124588131947 | epot = -11.610779828619 | etot = -8.3746230183323
947000  ekin = 1.8013422188344 |  erot = 1.36826076777147 | epot = -11.5442260047056 | etot = -8.37462301809976
948000  ekin = 1.79076227753392 |  erot = 1.34894522657274 | epot = -11.5143305221863 | etot = -8.37462301807965
949000  ekin = 1.79475359820132 |  erot = 1.35184135984867 | epot = -11.5212179763387 | etot = -8.37462301828871
950000  ekin = 1.81326202048993 |  erot = 1.37352812801048 | epot = -11.5614131672086 | etot = -8.3746230187082
951000  ekin = 1.84466122228548 |  erot = 1.40888082073311 | epot = -11.6281650622951 | etot = -8.37462301927651
952000  ekin = 1.88610598517686 |  erot = 1.45166996305775 | epot = -11.7123989681328 | etot = -8.37462301989817
953000  ekin = 1.93415626208494 |  erot = 1.49545802208046 | epot = -11.8042373044908 | etot = -8.37462302032539
954000  ekin = 1.98570845874811 |  erot = 1.53486140750217 | epot = -11.8951928870177 | etot = -8.37462302076742
955000  ekin = 2.03763688300238 |  erot = 1.56575119867149 | epot = -11.9780111026985 | etot = -8.37462302102462
956000  ekin = 2.08752516850599 |  erot = 1.58576425992308 | epot = -12.0479124495213 | etot = -8.37462302109223
957000  ekin = 2.13388693710964 |  erot = 1.59443657079239 | epot = -12.1029465289046 | etot = -8.37462302100253
958000  ekin = 2.17603134876323 |  erot = 1.59291217741732 | epot = -12.1435665469902 | etot = -8.37462302080964
959000  ekin = 2.21381255039645 |  erot = 1.58343493106879 | epot = -12.1718705020378 | etot = -8.37462302057259
960000  ekin = 2.24735101958252 |  erot = 1.56876603527579 | epot = -12.1907400752033 | etot = -8.37462302034496
961000  ekin = 2.27678636585394 |  erot = 1.55164507323792 | epot = -12.2030544592584 | etot = -8.37462302016653
962000  ekin = 2.30208813280108 |  erot = 1.53436606871911 | epot = -12.2110772215847 | etot = -8.37462302006456
963000  ekin = 2.32292955590133 |  erot = 1.51849868398433 | epot = -12.2160512599371 | etot = -8.37462302005146
964000  ekin = 2.33862421267245 |  erot = 1.50476151876516 | epot = -12.2180087515633 | etot = -8.37462302012571
965000  ekin = 2.34813222213143 |  erot = 1.49304783092148 | epot = -12.2158030733237 | etot = -8.37462302027083
966000  ekin = 2.35015122853115 |  erot = 1.48260237418126 | epot = -12.2073766231662 | etot = -8.37462302045376
967000  ekin = 2.34330726066097 |  erot = 1.47233774696392 | epot = -12.1902680282532 | etot = -8.37462302062827
968000  ekin = 2.32644504715423 |  erot = 1.46125212630425 | epot = -12.1623201941992 | etot = -8.37462302074071
969000  ekin = 2.29898771919739 |  erot = 1.44887277461759 | epot = -12.1224835145563 | etot = -8.37462302074132
970000  ekin = 2.26130276214329 |  erot = 1.43562016619225 | epot = -12.0715459489323 | etot = -8.37462302059672
971000  ekin = 2.21499063336338 |  erot = 1.42298879008765 | epot = -12.0126024437513 | etot = -8.37462302030023
972000  ekin = 2.16303757451795 |  erot = 1.41348472406763 | epot = -11.9511453183675 | etot = -8.37462301978193
973000  ekin = 2.10950969273511 |  erot = 1.41039391551614 | epot = -11.8945266278569 | etot = -8.37462301960568
974000  ekin = 2.05703199419742 |  erot = 1.41732503873297 | epot = -11.8489800520861 | etot = -8.37462301915571
975000  ekin = 2.01010390574851 |  erot = 1.43732066922317 | epot = -11.8220475937238 | etot = -8.37462301875209
976000  ekin = 1.97340114977604 |  erot = 1.47261385396266 | epot = -11.8206380222139 | etot = -8.37462301847519
977000  ekin = 1.95082006444706 |  erot = 1.52416835984337 | epot = -11.8496114426886 | etot = -8.37462301839813
978000  ekin = 1.94472832271128 |  erot = 1.59131019459127 | epot = -11.9106615358755 | etot = -8.37462301857292
979000  ekin = 1.95538713571685 |  erot = 1.67153495870254 | epot = -12.0015451134338 | etot = -8.37462301901437
980000  ekin = 1.9806772386571 |  erot = 1.76051368575205 | epot = -12.1158139441915 | etot = -8.37462301978231
981000  ekin = 2.0157957192546 |  erot = 1.85207319538924 | epot = -12.2424919352912 | etot = -8.37462302064736
982000  ekin = 2.05441082040089 |  erot = 1.93952253755685 | epot = -12.3685563794566 | etot = -8.37462302149882
983000  ekin = 2.08992138438914 |  erot = 2.01671280308128 | epot = -12.4812572096503 | etot = -8.37462302217987
984000  ekin = 2.11656909821701 |  erot = 2.0791069696724 | epot = -12.5702990904621 | etot = -8.37462302257267
985000  ekin = 2.13033501102878 |  erot = 2.12464764346843 | epot = -12.6296056771301 | etot = -8.37462302263285
986000  ekin = 2.12935596248979 |  erot = 2.15403431725422 | epot = -12.6580133021435 | etot = -8.37462302239946
987000  ekin = 2.11471923988066 |  erot = 2.17104098415337 | epot = -12.6603832459165 | etot = -8.37462302188252
988000  ekin = 2.09119735101514 |  erot = 2.18228698931312 | epot = -12.6481073619531 | etot = -8.37462302162481
989000  ekin = 2.06027968801239 |  erot = 2.19075462083379 | epot = -12.6256573302412 | etot = -8.37462302139499
990000  ekin = 2.02336255788569 |  erot = 2.19843813688565 | epot = -12.5964237160084 | etot = -8.3746230212371
991000  ekin = 1.9818807746635 |  erot = 2.20638055720266 | epot = -12.5628843530201 | etot = -8.37462302115396
992000  ekin = 1.93715749695397 |  erot = 2.21473069767593 | epot = -12.5265112157503 | etot = -8.3746230211204
993000  ekin = 1.89038311211027 |  erot = 2.22307759878468 | epot = -12.4880837319987 | etot = -8.37462302110374
994000  ekin = 1.84266575140808 |  erot = 2.23084817708143 | epot = -12.4481369495678 | etot = -8.37462302107828
995000  ekin = 1.79502825849046 |  erot = 2.23761065997445 | epot = -12.4072619394846 | etot = -8.37462302101966
996000  ekin = 1.74865820355827 |  erot = 2.24323231086594 | epot = -12.3665135353626 | etot = -8.37462302093837
997000  ekin = 1.70508150016762 |  erot = 2.24765365390706 | epot = -12.3273581749305 | etot = -8.37462302085581
998000  ekin = 1.66588125243956 |  erot = 2.25078611336562 | epot = -12.2912903865797 | etot = -8.37462302077456
999000  ekin = 1.63259998370264 |  erot = 2.25262768593231 | epot = -12.2598506903066 | etot = -8.37462302067164
1000000  ekin = 1.60661879878063 |  erot = 2.2537352861968 | epot = -12.2349771055354 | etot = -8.37462302055793
 1000000    0.1190088   -1.3493654   0.12586767   -1.0628358 0.00017426596        64000 
Loop time of 13.9702 on 4 procs for 1000000 steps with 10 atoms

Performance: 61846.133 tau/day, 71581.172 timesteps/s
99.6% CPU use with 4 MPI tasks x no OpenMP threads

MPI task timing breakdown:
Section |  min time  |  avg time  |  max time  |%varavg| %total
---------------------------------------------------------------
Pair    | 5.73       | 7.4134     | 9.1286     |  56.7 | 53.07
Bond    | 0.26662    | 0.33045    | 0.41401    |  10.3 |  2.37
Neigh   | 0.006735   | 0.0067415  | 0.006755   |   0.0 |  0.05
Comm    | 1.8191     | 2.0224     | 2.2513     |  11.6 | 14.48
Output  | 0.080433   | 0.083152   | 0.087335   |   0.9 |  0.60
Modify  | 0.52945    | 0.63648    | 0.73642    |  12.3 |  4.56
Other   |            | 3.477      |            |       | 24.89

Nlocal:        2.50000 ave           3 max           2 min
Histogram: 2 0 0 0 0 0 0 0 0 2
Nghost:        7.50000 ave           8 max           7 min
Histogram: 2 0 0 0 0 0 0 0 0 2
Neighs:        17.5000 ave          20 max          15 min
Histogram: 2 0 0 0 0 0 0 0 0 2

Total # of neighbors = 70
Ave neighs/atom = 7.0000000
Ave special neighs/atom = 3.6000000
Neighbor list builds = 1000
Dangerous builds = 0

write_data last_config.${number}.* nocoeff
write_data last_config.1.* nocoeff
System init for write_data ...
Total wall time: 0:00:13
