# USER-PAFI test data -
687 atoms
1 atom types

0.0000000000000000e+00 1.9987183999999999e+01 xlo xhi
0.0000000000000000e+00 1.9987183999999999e+01 ylo yhi
0.0000000000000000e+00 1.9987183999999999e+01 zlo zhi

Masses

1 55.85

Atoms

1 1 0.00528407 0.00391426 8.11661e-05
2 1 1.42764 1.42466 1.42317
3 1 2.85714 -0.000255876 -0.00153
4 1 4.28079 1.42345 1.42477
5 1 5.70926 0.000158292 0.000358096
6 1 7.13582 1.42509 1.426
7 1 8.56295 0.00210881 0.00191953
8 1 9.9915 1.42684 1.42641
9 1 11.4186 0.00381771 0.00257888
10 1 12.848 1.42809 1.42614
11 1 14.2762 0.00527717 0.00264919
12 1 15.7058 1.42859 1.42522
13 1 17.1355 0.00606398 0.00212618
14 1 18.5637 1.42741 1.42356
15 1 -0.000150615 2.85343 19.983
16 1 1.42393 4.27658 1.42232
17 1 2.85251 2.85039 19.9849
18 1 4.27748 4.27589 1.424
19 1 5.70805 2.85119 19.9869
20 1 7.13536 4.2786 1.42615
21 1 8.56425 2.85332 19.9874
22 1 9.99214 4.28064 1.42653
23 1 11.4201 2.85464 19.9872
24 1 12.8485 4.28099 1.42598
25 1 14.2764 2.85503 19.9865
26 1 15.7066 4.27941 1.42359
27 1 17.1335 2.85444 19.9846
28 1 18.561 4.27939 1.42235
29 1 -0.000711408 5.70629 19.9844
30 1 1.42445 7.13388 1.42369
31 1 2.85033 5.70508 19.9866
32 1 4.27723 7.13388 1.42567
33 1 5.70585 5.70544 19.9891
34 1 7.1339 7.13458 1.42812
35 1 8.56379 5.70818 19.9894
36 1 9.99191 7.13715 1.42913
37 1 11.4204 5.70946 19.9886
38 1 12.8493 7.13633 1.42737
39 1 14.2769 5.70883 19.9871
40 1 15.7055 7.13629 1.42459
41 1 17.1318 5.70888 19.9846
42 1 18.5617 7.13458 1.42349
43 1 0.000947509 8.56274 19.9868
44 1 1.42618 9.99293 1.42538
45 1 2.85104 8.56344 19.9883
46 1 4.27901 9.99308 1.42737
47 1 5.70602 8.56339 19.9903
48 1 7.13597 9.9917 1.42997
49 1 8.56328 8.56429 19.9895
50 1 9.99254 9.99129 1.43063
51 1 11.4205 8.56557 19.9886
52 1 12.8485 9.99351 1.42898
53 1 14.2755 8.5662 19.9879
54 1 15.7064 9.99332 1.42624
55 1 17.1336 8.56352 19.9877
56 1 18.5631 9.99238 1.42502
57 1 0.0028007 11.4213 0.00166032
58 1 1.42829 12.8517 1.42696
59 1 2.85256 11.4223 0.00227196
60 1 4.28147 12.8505 1.42894
61 1 5.70738 11.4214 0.00406528
62 1 7.13791 12.8478 1.4306
63 1 8.56439 11.4205 0.00292891
64 1 9.9936 12.8467 1.4311
65 1 11.4209 11.4216 0.00186068
66 1 12.8492 12.85 1.42978
67 1 14.2777 11.4221 0.00200513
68 1 15.7072 12.8514 1.42744
69 1 17.1357 11.4212 0.0027393
70 1 18.5644 12.8515 1.42638
71 1 0.00470877 14.2804 0.00311382
72 1 1.43072 15.7085 1.42819
73 1 2.85453 14.2802 0.00315465
74 1 4.28375 15.7059 1.43009
75 1 5.70903 14.2785 0.00476075
76 1 7.13878 15.7033 1.43099
77 1 8.56572 14.2759 0.00432671
78 1 9.99229 15.7045 1.43092
79 1 11.4204 14.2784 0.00381346
80 1 12.8481 15.7068 1.43016
81 1 14.2796 14.2816 0.00462195
82 1 15.7076 15.7097 1.4287
83 1 17.1374 14.2811 0.00458382
84 1 18.5655 15.7097 1.42749
85 1 0.00636109 17.1382 0.00336991
86 1 1.43196 18.5621 1.42747
87 1 2.85675 17.1355 0.00239304
88 1 4.28437 18.5592 1.42857
89 1 5.71085 17.133 0.00316418
90 1 7.13681 18.5599 1.42953
91 1 8.56354 17.1343 0.00495314
92 1 9.99097 18.5615 1.42972
93 1 11.4189 17.1363 0.00548506
94 1 12.8474 18.5631 1.4292
95 1 14.2778 17.1386 0.00575008
96 1 15.7061 18.5649 1.42821
97 1 17.1381 17.1403 0.00565287
98 1 18.565 18.5648 1.4271
99 1 0.00486062 19.9891 2.85106
100 1 1.42577 1.42259 4.28036
101 1 2.85596 19.9849 2.85383
102 1 4.27868 1.42105 4.27994
103 1 5.709 19.9855 2.85463
104 1 7.13557 1.4237 4.28138
105 1 8.56317 19.9876 2.85459
106 1 9.9919 1.42572 4.2817
107 1 11.4189 19.9892 2.85388
108 1 12.8487 1.42673 4.28077
109 1 14.2766 19.9906 2.85249
110 1 15.708 1.42614 4.27855
111 1 17.1364 19.9909 2.85059
112 1 18.5637 1.42564 4.27947
113 1 -2.19718e-05 2.85088 2.8507
114 1 1.42168 4.27461 4.27745
115 1 2.84687 2.84439 2.84681
116 1 4.26185 4.26099 4.26393
117 1 5.70569 2.84634 2.84889
118 1 7.13181 4.26746 4.26978
119 1 8.56382 2.84886 2.85027
120 1 9.99296 4.27099 4.27213
121 1 11.4208 2.85049 2.85062
122 1 12.851 4.27307 4.27333
123 1 14.2784 2.85105 2.85007
124 1 15.7181 4.26844 4.2684
125 1 17.1384 2.84924 2.84782
126 1 18.5621 4.27753 4.27836
127 1 -0.000209912 5.70476 2.8498
128 1 1.42287 7.13321 4.2777
129 1 2.84512 5.7022 2.84621
130 1 4.26263 7.12863 4.26571
131 1 5.70171 5.70142 2.8493
132 1 7.12367 7.1252 4.27504
133 1 8.56278 5.70602 2.8527
134 1 9.99012 7.13345 4.28305
135 1 11.4204 5.70757 2.85304
136 1 12.857 7.12803 4.27585
137 1 14.281 5.70428 2.84923
138 1 15.7156 7.13195 4.26953
139 1 17.1373 5.70541 2.84748
140 1 18.5647 7.1318 4.27568
141 1 0.00145188 8.56247 2.85032
142 1 1.42505 9.99296 4.27921
143 1 2.84741 8.56415 2.84868
144 1 4.26887 9.99688 4.27137
145 1 5.70341 8.56262 2.852
146 1 7.13141 9.9894 4.28187
147 1 8.56109 8.56104 2.8576
148 1 9.99205 9.98637 4.28283
149 1 11.4224 8.562 2.85716
150 1 12.8521 9.99276 4.28129
151 1 14.2793 8.56415 2.85168
152 1 15.716 9.99346 4.26988
153 1 17.138 8.56326 2.84789
154 1 18.5671 9.98995 4.27467
155 1 0.00311524 11.4216 2.85131
156 1 1.42739 12.851 4.28115
157 1 2.85036 11.4241 2.85116
158 1 4.27571 12.8545 4.27754
159 1 5.70761 11.4212 2.85463
160 1 7.13698 12.8478 4.28301
161 1 8.56477 11.4178 2.85927
162 1 9.99466 12.8436 4.28765
163 1 11.4214 11.4191 2.85921
164 1 12.8518 12.8512 4.28001
165 1 14.2796 11.4224 2.85328
166 1 15.7156 12.8548 4.27153
167 1 17.139 11.4227 2.84879
168 1 18.5687 12.8505 4.27471
169 1 0.00495202 14.28 2.85239
170 1 1.43029 15.7066 4.28258
171 1 2.85419 14.2803 2.85409
172 1 4.28381 15.704 4.2846
173 1 5.71073 14.2765 2.85667
174 1 7.13903 15.7009 4.28564
175 1 8.56674 14.2736 2.85842
176 1 9.99075 15.7038 4.28303
177 1 11.4201 14.2763 2.85781
178 1 12.8485 15.7079 4.27967
179 1 14.2793 14.2807 2.85382
180 1 15.7127 15.7129 4.27531
181 1 17.139 14.282 2.85006
182 1 18.5702 15.711 4.27459
183 1 0.00636641 17.1365 2.85272
184 1 1.4306 18.5609 4.28186
185 1 2.85784 17.133 2.85638
186 1 4.28379 18.5581 4.28386
187 1 5.71162 17.1306 2.8576
188 1 7.13569 18.5606 4.28241
189 1 8.5641 17.1318 2.8568
190 1 9.98933 18.5636 4.28016
191 1 11.4189 17.1339 2.85568
192 1 12.8472 18.566 4.27758
193 1 14.2774 17.1364 2.85357
194 1 15.7098 18.569 4.27403
195 1 17.1378 17.1385 2.85134
196 1 18.5696 18.5684 4.27452
197 1 0.00294464 19.9873 5.70983
198 1 1.42529 1.42309 7.13922
199 1 2.85509 19.984 5.71142
200 1 4.27948 1.422 7.13892
201 1 5.70906 19.9844 5.71145
202 1 7.13479 1.4243 7.13776
203 1 8.56411 19.9867 5.71155
204 1 9.99255 1.42684 7.13848
205 1 11.4198 19.9884 5.70997
206 1 12.8502 1.42692 7.13669
207 1 14.2785 19.9894 5.70738
208 1 15.7071 1.42623 7.13694
209 1 17.137 19.9899 5.70704
210 1 18.5614 1.42553 7.139
211 1 -0.00117637 2.85076 5.70967
212 1 1.4217 4.27652 7.13764
213 1 2.84554 2.84382 5.70648
214 1 4.26224 4.26271 7.13132
215 1 5.70091 2.84508 5.70343
216 1 7.11991 4.26873 7.12358
217 1 8.56277 2.84972 5.70715
218 1 9.99045 4.27977 7.13135
219 1 11.4212 2.85166 5.70788
220 1 12.8581 4.27586 7.12756
221 1 14.2819 2.84965 5.70469
222 1 15.7157 4.2715 7.1332
223 1 17.1381 2.84897 5.70699
224 1 18.5598 4.27957 7.13843
225 1 -0.00158768 5.7051 5.70783
226 1 1.42265 7.13294 7.13541
227 1 2.84268 5.69811 5.70103
228 1 4.26151 7.11829 7.12069
229 1 5.66658 5.66822 5.67043
230 1 7.04548 7.05245 7.05549
231 1 8.56283 5.68625 5.68794
232 1 9.98845 7.13157 7.12806
233 1 11.419 5.69374 5.69424
234 1 12.9088 7.0788 7.07672
235 1 14.3059 5.6811 5.68053
236 1 15.7095 7.13185 7.12943
237 1 17.1373 5.70424 5.70461
238 1 18.5605 7.13403 7.13615
239 1 0.000189113 8.56267 5.70766
240 1 1.42518 9.99227 7.13696
241 1 2.84593 8.56237 5.7039
242 1 4.27407 9.99115 7.12917
243 1 5.67351 8.5601 5.67915
244 1 7.09704 10.0062 7.09539
245 1 8.54388 8.54532 5.70375
246 1 9.9909 9.97205 7.06957
247 1 11.4343 8.54706 5.702
248 1 12.8724 10.0065 7.10437
249 1 14.2972 8.56265 5.68775
250 1 15.7278 9.97866 7.11145
251 1 17.144 8.55649 5.69783
252 1 18.562 9.99141 7.13502
253 1 0.00180558 11.4209 5.70797
254 1 1.42669 12.8491 7.13876
255 1 2.84982 11.4226 5.70777
256 1 4.27791 12.8492 7.13786
257 1 5.69163 11.4309 5.69516
258 1 7.13651 12.8419 7.14154
259 1 8.55831 11.4184 5.71243
260 1 9.99592 12.825 7.14569
261 1 11.4265 11.4201 5.71706
262 1 12.8603 12.8529 7.10058
263 1 14.2976 11.4275 5.69366
264 1 15.741 12.8515 7.09918
265 1 17.1488 11.4173 5.69422
266 1 18.5642 12.8508 7.13357
267 1 0.00361473 14.2792 5.7085
268 1 1.4284 15.7058 7.13861
269 1 2.85395 14.2777 5.7111
270 1 4.28013 15.7067 7.13652
271 1 5.71033 14.2743 5.71235
272 1 7.13961 15.7022 7.1389
273 1 8.56707 14.2688 5.71455
274 1 9.97959 15.7184 7.12243
275 1 11.4181 14.2784 5.71112
276 1 12.8533 15.7375 7.09947
277 1 14.2899 14.2879 5.69617
278 1 15.7482 15.7476 7.09424
279 1 17.1517 14.2851 5.69179
280 1 18.5663 15.7122 7.13263
281 1 0.00505915 17.1362 5.7082
282 1 1.42904 18.5593 7.13957
283 1 2.85572 17.1331 5.71064
284 1 4.28412 18.5572 7.14073
285 1 5.71143 17.1306 5.71208
286 1 7.13793 18.5583 7.14065
287 1 8.55988 17.1367 5.70612
288 1 9.99232 18.56 7.139
289 1 11.4148 17.1428 5.70001
290 1 12.8501 18.5627 7.13422
291 1 14.2842 17.1501 5.69206
292 1 15.7118 18.5657 7.13208
293 1 17.1527 17.1526 5.69087
294 1 18.5661 18.5651 7.13719
295 1 0.00193524 19.9874 8.56744
296 1 1.42538 1.42438 9.99615
297 1 2.85513 19.9843 8.56808
298 1 4.28083 1.42352 9.99592
299 1 5.71087 19.9843 8.56852
300 1 7.13806 1.42637 9.99426
301 1 8.56615 19.9855 8.56782
302 1 9.99365 1.42811 9.99198
303 1 11.4221 19.9861 8.56613
304 1 12.8485 1.4281 9.99287
305 1 14.2784 19.9878 8.56443
306 1 15.704 1.42691 9.99494
307 1 17.1337 19.9883 8.56681
308 1 18.56 1.42663 9.99578
309 1 -0.00210127 2.8524 8.56777
310 1 1.42209 4.27893 9.99582
311 1 2.84692 2.84627 8.56766
312 1 4.26689 4.26773 9.99833
313 1 5.70395 2.84862 8.56598
314 1 7.1306 4.28005 9.99235
315 1 8.56052 2.85354 8.56155
316 1 9.98809 4.28337 9.98333
317 1 11.4222 2.85558 8.56219
318 1 12.8494 4.28464 9.99121
319 1 14.2789 2.85313 8.56502
320 1 15.7089 4.27769 9.99733
321 1 17.1345 2.85146 8.56773
322 1 18.5578 4.28208 9.99556
323 1 -0.00308997 5.70834 8.56708
324 1 1.42349 7.13656 9.99433
325 1 2.84504 5.7021 8.56523
326 1 4.27352 7.12751 9.99334
327 1 5.67213 5.67574 8.56206
328 1 7.09536 7.09464 10.0103
329 1 8.53572 5.68801 8.53702
330 1 9.96841 7.08895 9.93598
331 1 11.4336 5.69622 8.54499
332 1 12.8723 7.1138 9.99236
333 1 14.298 5.69146 8.56082
334 1 15.698 7.14196 9.99581
335 1 17.1319 5.70948 8.56674
336 1 18.5563 7.139 9.99498
337 1 -0.00252972 8.56468 8.56584
338 1 1.42505 9.99301 9.99355
339 1 2.84768 8.55997 8.56184
340 1 4.28082 9.98569 9.98882
341 1 5.66585 8.5363 8.53796
342 1 7.10942 9.93985 9.94035
343 1 8.32911 8.39268 8.40276
344 1 9.89383 9.57977 9.43553
345 1 11.5815 8.44466 8.44822
346 1 12.8048 10.0109 9.99038
347 1 14.2893 8.56514 8.55554
348 1 15.7018 9.99312 9.98663
349 1 17.1338 8.56221 8.56299
350 1 18.5546 9.99622 9.99327
351 1 -0.00160538 11.4215 8.56585
352 1 1.42646 12.8487 9.9943
353 1 2.853 11.419 8.56618
354 1 4.2832 12.8481 9.99401
355 1 5.69992 11.4166 8.56141
356 1 7.11535 12.8717 9.97899
357 1 8.5611 11.4125 8.60263
358 1 10.0251 12.8628 9.99932
359 1 11.4259 11.4138 8.6253
360 1 13.0132 13.0112 9.66613
361 1 14.332 11.3925 8.51749
362 1 15.7131 12.8715 9.96789
363 1 17.1344 11.4228 8.56001
364 1 18.5571 12.8532 9.99129
365 1 0.00059518 14.2787 8.56525
366 1 1.42718 15.704 9.99524
367 1 2.85376 14.2768 8.56699
368 1 4.28085 15.7054 9.99395
369 1 5.70246 14.2834 8.55847
370 1 7.14518 15.6962 9.99954
371 1 8.56997 14.2708 8.56385
372 1 9.9959 15.6997 9.99601
373 1 11.4004 14.326 8.51713
374 1 12.8739 15.7117 9.96898
375 1 14.3752 14.3729 8.46332
376 1 15.7199 15.7199 10.003
377 1 17.1424 14.2897 8.55341
378 1 18.5608 15.7064 9.99512
379 1 0.00213925 17.1334 8.56724
380 1 1.42844 18.5593 9.99532
381 1 2.85511 17.1318 8.56732
382 1 4.28414 18.5573 9.99547
383 1 5.71341 17.1283 8.56922
384 1 7.14064 18.5561 9.99656
385 1 8.56582 17.1301 8.56851
386 1 9.99703 18.5545 9.99533
387 1 11.424 17.1313 8.56305
388 1 12.8532 18.5573 9.99143
389 1 14.2898 17.1417 8.55316
390 1 15.7061 18.5615 9.99452
391 1 17.1435 17.1436 8.56592
392 1 18.5652 18.5651 9.99467
393 1 0.00167434 0.00124089 11.4232
394 1 1.42593 1.42586 12.8511
395 1 2.85539 -0.0020256 11.423
396 1 4.28238 1.42497 12.85
397 1 5.7119 -0.00193681 11.4221
398 1 7.13996 1.42727 12.8475
399 1 8.56862 -0.00190513 11.4209
400 1 9.99372 1.42878 12.8467
401 1 11.4232 -0.0015483 11.4211
402 1 12.8471 1.42896 12.8486
403 1 14.2758 -0.000136684 11.4221
404 1 15.7027 1.42831 12.8498
405 1 17.1326 0.00204521 11.4227
406 1 18.5594 1.42803 12.8507
407 1 -0.00263737 2.854 11.4234
408 1 1.42268 4.28095 12.8505
409 1 2.84845 2.84851 11.4252
410 1 4.27205 4.27305 12.8545
411 1 5.70791 2.85137 11.423
412 1 7.1374 4.28336 12.848
413 1 8.56531 2.85783 11.4185
414 1 9.98871 4.28897 12.8464
415 1 11.4187 2.85876 11.4184
416 1 12.8451 4.28694 12.8473
417 1 14.2747 2.85564 11.4218
418 1 15.7046 4.28195 12.8508
419 1 17.1322 2.85345 11.4239
420 1 18.5567 4.28402 12.8497
421 1 -0.00375436 5.71074 11.4223
422 1 1.42324 7.13887 12.849
423 1 2.84713 5.70606 11.4238
424 1 4.27486 7.13455 12.8511
425 1 5.68636 5.68894 11.4309
426 1 7.12776 7.13438 12.8375
427 1 8.56219 5.71717 11.4157
428 1 9.96998 7.14686 12.8569
429 1 11.412 5.70963 11.4155
430 1 12.8519 7.13904 12.8473
431 1 14.2816 5.70584 11.4259
432 1 15.6969 7.14659 12.8455
433 1 17.1292 5.71274 11.4223
434 1 18.5554 7.1413 12.8476
435 1 -0.00402833 8.56829 11.4212
436 1 1.42496 9.99432 12.8498
437 1 2.85167 8.56472 11.4212
438 1 4.28066 9.98903 12.8551
439 1 5.69955 8.55861 11.4205
440 1 7.10868 9.96191 12.8939
441 1 8.59258 8.61437 11.4045
442 1 9.88466 9.89472 13.1853
443 1 11.3998 8.47237 11.401
444 1 12.7697 10.0267 12.8119
445 1 14.2566 8.59298 11.4188
446 1 15.6989 9.99585 12.8516
447 1 17.1258 8.57106 11.4203
448 1 18.5541 9.9975 12.8492
449 1 -0.00352673 11.4236 11.422
450 1 1.42621 12.8495 12.8507
451 1 2.85398 11.4192 11.4222
452 1 4.28323 12.8487 12.8523
453 1 5.69238 11.4098 11.42
454 1 7.10697 12.8748 12.8784
455 1 8.36696 11.4195 11.4326
456 1 10.0124 12.8021 12.833
457 1 12.1146 12.0879 11.4486
458 1 13.0177 13.0284 13.2042
459 1 14.3535 11.4463 11.4192
460 1 15.7105 12.8733 12.8794
461 1 17.1304 11.4311 11.422
462 1 18.5564 12.8537 12.854
463 1 -0.00160987 14.2768 11.4228
464 1 1.42674 15.7049 12.8502
465 1 2.85401 14.2757 11.4228
466 1 4.27895 15.7075 12.8509
467 1 5.70131 14.2821 11.4233
468 1 7.14148 15.6986 12.8496
469 1 8.58399 14.2443 11.429
470 1 9.99339 15.6984 12.8531
471 1 11.4664 14.3606 11.4333
472 1 12.8779 15.7182 12.885
473 1 14.251 14.2481 11.4265
474 1 15.7224 15.7237 12.8446
475 1 17.1287 14.2786 11.4237
476 1 18.5608 15.7074 12.851
477 1 0.00165587 17.1333 11.4228
478 1 1.42835 18.5603 12.8501
479 1 2.85454 17.1321 11.4223
480 1 4.28413 18.5584 12.8494
481 1 5.71233 17.1291 11.4226
482 1 7.14029 18.5572 12.848
483 1 8.57017 17.1253 11.4237
484 1 9.99662 18.5554 12.8492
485 1 11.4329 17.1321 11.4247
486 1 12.8532 18.5589 12.8543
487 1 14.2796 17.1306 11.4235
488 1 15.7063 18.5629 12.8508
489 1 17.1441 17.145 11.4225
490 1 18.5653 18.5663 12.8506
491 1 0.00203243 0.00264394 14.278
492 1 1.4273 1.42747 15.7044
493 1 2.85606 -0.000592806 14.2769
494 1 4.28359 1.42656 15.7029
495 1 5.71227 -0.000751035 14.2752
496 1 7.13867 1.4276 15.7026
497 1 8.56702 -0.000204419 14.2746
498 1 9.99263 1.42908 15.7029
499 1 11.4207 0.000599 14.2766
500 1 12.8467 1.43016 15.7037
501 1 14.2772 0.00291984 14.2797
502 1 15.7036 1.43047 15.7049
503 1 17.1329 0.00361169 14.2781
504 1 18.5598 1.42965 15.7044
505 1 -0.00237072 2.85541 14.277
506 1 1.42409 4.28179 15.7033
507 1 2.85094 2.85114 14.2786
508 1 4.27808 4.27842 15.7042
509 1 5.71042 2.85358 14.2757
510 1 7.13393 4.28024 15.7061
511 1 8.56543 2.85648 14.2753
512 1 9.99171 4.28353 15.7045
513 1 11.4185 2.85841 14.2741
514 1 12.8469 4.28484 15.7023
515 1 14.274 2.85712 14.2756
516 1 15.7029 4.28421 15.7028
517 1 17.1309 2.85567 14.2771
518 1 18.5566 4.28463 15.7024
519 1 -0.00380505 5.71166 14.2755
520 1 1.42324 7.13685 15.7047
521 1 2.8491 5.70808 14.2774
522 1 4.27129 7.12837 15.7131
523 1 5.70178 5.70404 14.2755
524 1 7.10504 7.10663 15.7369
525 1 8.55731 5.7096 14.2818
526 1 9.9917 7.11656 15.7318
527 1 11.4159 5.7152 14.2738
528 1 12.861 7.12505 15.7186
529 1 14.2766 5.71228 14.2753
530 1 15.6989 7.14393 15.7014
531 1 17.1276 5.71464 14.2747
532 1 18.5573 7.13878 15.7028
533 1 -0.0033218 8.56734 14.276
534 1 1.42452 9.9937 15.706
535 1 2.84972 8.56395 14.2799
536 1 4.27242 9.99095 15.7143
537 1 5.69128 8.54874 14.2968
538 1 7.1056 9.99165 15.7403
539 1 8.48916 8.49537 14.3536
540 1 9.98844 9.9968 15.7442
541 1 11.4472 8.52429 14.3078
542 1 12.8434 10.0012 15.7098
543 1 14.2622 8.58142 14.2684
544 1 15.7235 9.97967 15.7272
545 1 17.1289 8.56729 14.2755
546 1 18.56 9.99293 15.7064
547 1 -0.00238342 11.4229 14.2781
548 1 1.42584 12.8506 15.7071
549 1 2.85195 11.4217 14.2794
550 1 4.27415 12.8536 15.7131
551 1 5.69341 11.4215 14.2929
552 1 7.11263 12.8695 15.7306
553 1 8.50038 11.4567 14.323
554 1 9.99451 12.8504 15.7149
555 1 11.4406 11.4517 14.2476
556 1 12.8663 12.8696 15.7581
557 1 14.3231 11.3897 14.3202
558 1 15.7393 12.851 15.7473
559 1 17.1308 11.424 14.2827
560 1 18.5627 12.8513 15.7111
561 1 9.12022e-05 14.2797 14.2804
562 1 1.42745 15.7078 15.707
563 1 2.8527 14.2786 14.2791
564 1 4.27619 15.7122 15.7112
565 1 5.69556 14.2913 14.2913
566 1 7.13854 15.7068 15.7095
567 1 8.57143 14.2736 14.2824
568 1 9.97648 15.7288 15.7317
569 1 11.3896 14.335 14.3313
570 1 12.8514 15.7447 15.751
571 1 14.3828 14.3858 14.3948
572 1 15.752 15.754 15.7564
573 1 17.1425 14.2913 14.2936
574 1 18.5658 15.7139 15.7133
575 1 0.00192582 17.135 14.2784
576 1 1.42901 18.5622 15.705
577 1 2.85398 17.1342 14.2778
578 1 4.28409 18.5603 15.7041
579 1 5.71165 17.1314 14.2773
580 1 7.13801 18.561 15.704
581 1 8.56473 17.1323 14.2774
582 1 9.99117 18.5631 15.7068
583 1 11.4221 17.1345 14.2844
584 1 12.8488 18.5659 15.7113
585 1 14.2919 17.1473 14.296
586 1 15.7121 18.5691 15.7137
587 1 17.1453 17.1472 14.2804
588 1 18.5666 18.5685 15.7079
589 1 0.00337319 0.00414313 17.1328
590 1 1.42883 1.42777 18.5572
591 1 2.857 0.000715955 17.1308
592 1 4.28274 1.42607 18.5578
593 1 5.71099 0.000503689 17.1308
594 1 7.13695 1.42747 18.5591
595 1 8.56417 0.00242334 17.1323
596 1 9.99163 1.42917 18.5597
597 1 11.4188 0.00404997 17.134
598 1 12.8473 1.43019 18.5599
599 1 14.2765 0.00563575 17.1352
600 1 15.7042 1.43089 18.5597
601 1 17.1355 0.00676707 17.1356
602 1 18.5614 1.43031 18.5585
603 1 -0.00127314 2.85577 17.1297
604 1 1.42465 4.2794 18.5576
605 1 2.85361 2.85301 17.1303
606 1 4.27631 4.27518 18.5631
607 1 5.70875 2.85274 17.1317
608 1 7.13467 4.27716 18.5639
609 1 8.56463 2.85491 17.1317
610 1 9.99287 4.27996 18.5627
611 1 11.4199 2.85634 17.1313
612 1 12.8495 4.28084 18.5616
613 1 14.2751 2.85691 17.1308
614 1 15.7053 4.28118 18.5597
615 1 17.1312 2.85685 17.1305
616 1 18.5581 4.28249 18.5565
617 1 -0.00274057 5.70936 17.1302
618 1 1.4245 7.13478 18.5597
619 1 2.84879 5.70487 17.1344
620 1 4.2744 7.13225 18.5658
621 1 5.6956 5.69554 17.1454
622 1 7.13219 7.13288 18.5655
623 1 8.56065 5.69992 17.1435
624 1 9.99198 7.13636 18.5639
625 1 11.424 5.70372 17.1395
626 1 12.8492 7.13695 18.5626
627 1 14.2807 5.70605 17.1367
628 1 15.7029 7.13814 18.5603
629 1 17.1292 5.71208 17.1298
630 1 18.5612 7.1341 18.5608
631 1 -0.000974399 8.56427 17.1326
632 1 1.42585 9.99259 18.5614
633 1 2.84887 8.56283 17.1362
634 1 4.27544 9.99286 18.5665
635 1 5.69418 8.55848 17.1478
636 1 7.13273 9.99259 18.5661
637 1 8.55635 8.55925 17.1411
638 1 9.99212 9.99447 18.5627
639 1 11.4218 8.56205 17.1343
640 1 12.8471 9.99626 18.5608
641 1 14.2742 8.56781 17.1345
642 1 15.7069 9.99147 18.5652
643 1 17.1384 8.55876 17.1401
644 1 18.5646 9.98986 18.5649
645 1 0.000855038 11.4213 17.1351
646 1 1.42731 12.8511 18.5626
647 1 2.85016 11.4224 17.1369
648 1 4.27682 12.853 18.567
649 1 5.69575 11.4263 17.1469
650 1 7.13349 12.8517 18.567
651 1 8.55551 11.4256 17.1384
652 1 9.99385 12.849 18.5629
653 1 11.4233 11.4274 17.1275
654 1 12.8518 12.8536 18.5673
655 1 14.285 11.421 17.1393
656 1 15.7108 12.8514 18.5687
657 1 17.1454 11.4162 17.1477
658 1 18.5674 12.8499 18.568
659 1 0.00274004 14.2804 17.1366
660 1 1.42926 15.7089 18.5629
661 1 2.85162 14.281 17.1369
662 1 4.27952 15.7102 18.5657
663 1 5.69967 14.2877 17.145
664 1 7.13688 15.7066 18.5657
665 1 8.56371 14.2794 17.141
666 1 9.99006 15.7094 18.5683
667 1 11.4191 14.2886 17.1425
668 1 12.8494 15.713 18.5701
669 1 14.2935 14.2956 17.1556
670 1 15.7142 15.7165 18.5714
671 1 17.1519 14.2857 17.1548
672 1 18.5703 15.7126 18.5703
673 1 0.0047464 17.1386 17.1364
674 1 1.43083 18.5637 18.5608
675 1 2.85422 17.1368 17.135
676 1 4.28407 18.561 18.5602
677 1 5.71038 17.1346 17.1348
678 1 7.13475 18.5639 18.564
679 1 8.55731 17.1427 17.1437
680 1 9.9885 18.5671 18.5669
681 1 11.4142 17.149 17.1498
682 1 12.8469 18.5696 18.5688
683 1 14.2843 17.1553 17.156
684 1 15.7095 18.5724 18.5703
685 1 17.1546 17.157 17.1559
686 1 18.57 18.5717 18.5686
687 1 10.4921 10.683 11.2164

PafiPath #- path x y z, normal=(d/dr)path x y z, (d/dr)normal=(d/dr)^2path x y z

1 0.00528407 0.00391426 8.11661e-05 0.000767572 0.00111511 -0.000166277 -0.00377177 -0.0049179 -0.00439707
2 1.42764 1.42466 1.42317 7.47824e-05 0.00125596 0.0012307 -0.00203625 -0.00449787 -0.00648731
3 2.85714 -0.000255876 -0.00153 -0.00106602 -0.000212421 -0.000631336 -0.000147838 -0.00503994 -0.00401106
4 4.28079 1.42345 1.42477 -0.00222258 -0.000289482 0.000691063 -0.00156566 -0.00481694 -0.0057688
5 5.70926 0.000158292 0.000358096 -0.0019074 -0.000194266 -0.000244595 0.00119338 -0.00388245 -0.00302279
6 7.13582 1.42509 1.426 -0.00175543 -0.000289931 0.000396184 -0.000432025 -0.00361814 -0.00407675
7 8.56295 0.00210881 0.00191953 -0.00108245 9.40954e-05 -0.000100762 -9.62382e-05 -0.00344981 -0.00294758
8 9.9915 1.42684 1.42641 -0.000350697 8.02598e-05 0.000332227 -0.00134018 -0.00305391 -0.0035603
9 11.4186 0.00381771 0.00257888 -7.52155e-06 0.000298516 -1.65638e-05 -0.00386419 -0.00396842 -0.00366937
10 12.848 1.42809 1.42614 0.00102374 0.000272868 0.000273626 -0.00315584 -0.00407909 -0.00469268
11 14.2762 0.00527717 0.00264919 0.000956334 0.000454751 -5.62877e-05 -0.00658801 -0.0049753 -0.00446512
12 15.7058 1.42859 1.42522 0.00154352 0.000846248 0.000329792 -0.00401604 -0.00514458 -0.00660247
13 17.1355 0.00606398 0.00212618 0.00139875 0.000863472 -0.000151595 -0.00632357 -0.00557103 -0.00490958
14 18.5637 1.42741 1.42356 0.000143879 0.00202908 0.000975811 -0.00490872 -0.00418106 -0.00644345
15 -0.000150615 2.85343 19.983 -0.000128541 0.000632719 0.00042672 -0.00344931 -0.0028788 -0.00483557
16 1.42393 4.27658 1.42232 -0.000357723 -0.000183469 0.0017389 -0.00264663 -0.00260847 -0.00665447
17 2.85251 2.85039 19.9849 -0.00255591 -0.001496 0.00139399 -0.0030254 -0.00424403 -0.00280289
18 4.27748 4.27589 1.424 -0.00194345 -0.000992627 0.00138422 -0.00287336 -0.0025294 -0.00618728
19 5.70805 2.85119 19.9869 -0.00316391 -0.00281188 0.00179728 -0.00139168 -0.00365908 -0.00218531
20 7.13536 4.2786 1.42615 -0.00222062 -0.00250025 0.000378804 -0.00313306 -0.00350951 -0.00553194
21 8.56425 2.85332 19.9874 -0.00109273 -0.00259068 0.00162362 -0.000819593 -0.00249621 -0.0021929
22 9.99214 4.28064 1.42653 -0.000154857 -0.00211135 0.000468947 -0.00166371 -0.00294621 -0.00496945
23 11.4201 2.85464 19.9872 0.000940593 -0.00217636 0.00142777 -0.0019616 -0.00255243 -0.00295861
24 12.8485 4.28099 1.42598 0.00168169 -0.00164006 0.000313136 -0.000143403 -0.00378211 -0.00661101
25 14.2764 2.85503 19.9865 0.00212352 -0.00154342 0.00109064 -0.00349336 -0.00364583 -0.00453921
26 15.7066 4.27941 1.42359 0.000763543 0.000229995 0.00116733 -0.00193804 -0.00347941 -0.00716025
27 17.1335 2.85444 19.9846 0.00126671 -4.73457e-05 0.00072677 -0.00415537 -0.00377393 -0.00491983
28 18.561 4.27939 1.42235 -0.00102235 0.00097607 0.00166057 -0.00415587 -0.00279248 -0.0069204
29 -0.000711408 5.70629 19.9844 9.12732e-05 -0.00038427 0.000661296 -0.00339026 -0.000392853 -0.00512547
30 1.42445 7.13388 1.42369 -0.000127474 -0.000908847 0.00119628 -0.00303436 -0.000796793 -0.00577805
31 2.85033 5.70508 19.9866 -0.00257482 -0.00147387 0.00164881 -0.00325287 -0.000288907 -0.00333424
32 4.27723 7.13388 1.42567 -0.00196162 -0.00113521 0.000782615 -0.00338407 -0.000894822 -0.00490392
33 5.70585 5.70544 19.9891 -0.00338917 -0.00273897 0.00233513 -0.00198909 0.000105412 -0.00335341
34 7.1339 7.13458 1.42812 -0.00144547 -0.00149223 0.000139319 -0.00302056 -0.00198931 -0.00492574
35 8.56379 5.70818 19.9894 -0.00193984 -0.00342312 0.00198372 -0.00293893 -0.000517137 -0.00336247
36 9.99191 7.13715 1.42913 -0.000402837 -0.0023052 -0.000865872 -0.00187119 -0.00374866 -0.00559846
37 11.4204 5.70946 19.9886 0.00108284 -0.00295488 0.00163542 -0.00205394 -0.000760476 -0.00406791
38 12.8493 7.13633 1.42737 0.000230511 -0.000667919 -0.000273516 -0.000623738 -0.00203069 -0.00604876
39 14.2769 5.70883 19.9871 0.00167504 -0.00133129 0.00142855 -0.00211408 -0.00109321 -0.0043951
40 15.7055 7.13629 1.42459 -0.00045407 0.000375669 0.000763734 -0.00248471 -0.00043761 -0.00547017
41 17.1318 5.70888 19.9846 0.000297501 7.27373e-05 0.000775642 -0.00346742 -0.000710185 -0.00462388
42 18.5617 7.13458 1.42349 -0.000565706 -0.000648364 0.00114902 -0.00357857 -0.00113297 -0.00622094
43 0.000947509 8.56274 19.9868 0.000439557 -0.000700938 0.00044846 -0.00355036 0.000877265 -0.00456664
44 1.42618 9.99293 1.42538 0.000174834 -0.00104732 0.000695552 -0.00270091 -0.000646927 -0.0039761
45 2.85104 8.56344 19.9883 -0.00193572 -0.000457081 0.00103517 -0.00291766 0.00123107 -0.00305929
46 4.27901 9.99308 1.42737 -0.00155577 -0.000857053 0.000382379 -0.00262162 -0.00150207 -0.00280365
47 5.70602 8.56339 19.9903 -0.00291675 -0.00139792 0.0016412 -0.00190806 -1.03773e-06 -0.00286887
48 7.13597 9.9917 1.42997 -0.00183555 -0.000521443 -0.000918741 -0.00331339 -0.00179985 -0.00306906
49 8.56328 8.56429 19.9895 -0.00196427 -0.002146 0.00141456 -0.00331222 -0.00139432 -0.00329164
50 9.99254 9.99129 1.43063 -0.000868659 -0.000154001 -0.00148403 -0.00274789 -0.00213289 -0.00235166
51 11.4205 8.56557 19.9886 -0.000193923 -0.00157227 0.000522513 -0.00341882 -0.00125986 -0.00297646
52 12.8485 9.99351 1.42898 -0.000274864 -4.49747e-05 -0.000983572 -0.00249317 -0.00137552 -0.00265699
53 14.2755 8.5662 19.9879 -4.59091e-05 4.35522e-05 0.000206059 -0.0035957 0.000413879 -0.00352099
54 15.7064 9.99332 1.42624 -0.000110635 -0.000872581 0.000292242 -0.00315787 -0.000604779 -0.00380882
55 17.1336 8.56352 19.9877 0.00068499 -0.000733552 0.000766508 -0.00372151 0.000559544 -0.00434904
56 18.5631 9.99238 1.42502 -0.000379486 -0.00114151 0.000601799 -0.00443302 -0.000263279 -0.00435515
57 0.0028007 11.4213 0.00166032 0.000652723 -0.000808215 0.000170191 -0.00375362 -0.000474426 -0.00366083
58 1.42829 12.8517 1.42696 0.000174859 -0.000727777 0.000133222 -0.00224224 -0.0024152 -0.00277403
59 2.85256 11.4223 0.00227196 -0.0014774 0.000158593 0.000523988 -0.00203436 4.41682e-05 -0.00205552
60 4.28147 12.8505 1.42894 -0.00185181 0.000125207 -0.000274744 -0.00210406 -0.00239477 -0.00205636
61 5.70738 11.4214 0.00406528 -0.00248084 0.000523887 0.000871045 -0.00120289 -0.000994035 -0.0021129
62 7.13791 12.8478 1.4306 -0.00197303 0.000644072 -0.00140854 -0.00206432 -0.00310502 -0.000644631
63 8.56439 11.4205 0.00292891 -0.00144457 -8.78533e-05 0.000134776 -0.0027572 -0.00236983 -0.00177008
64 9.9936 12.8467 1.4311 -0.000217177 0.000416179 -0.00166206 -0.00210172 -0.00394061 -0.000237384
65 11.4209 11.4216 0.00186068 -0.000586461 -0.00058127 -0.000995609 -0.00461539 -0.00299511 -0.00218967
66 12.8492 12.85 1.42978 0.000421942 -0.000187028 -0.00119637 -0.00420508 -0.00419885 -0.000848837
67 14.2777 11.4221 0.00200513 0.000125103 -0.000561279 -0.000486214 -0.00552879 -0.00125638 -0.00294183
68 15.7072 12.8514 1.42744 0.000245497 -0.000839847 -0.000303315 -0.00583879 -0.0028319 -0.00168856
69 17.1357 11.4212 0.0027393 0.000337839 -0.000608333 0.000145137 -0.00574943 -0.000126572 -0.003985
70 18.5644 12.8515 1.42638 -0.000212513 -0.00117999 0.000120316 -0.00535241 -0.00249643 -0.00308948
71 0.00470877 14.2804 0.00311382 0.000788048 -0.000712245 -0.000314331 -0.00394074 -0.00340428 -0.00291295
72 1.43072 15.7085 1.42819 4.52542e-05 0.000107246 -0.000744433 -0.00200331 -0.00450259 -0.00381664
73 2.85453 14.2802 0.00315465 -0.00116081 0.000375601 -0.000408725 -0.000679933 -0.00281428 -0.002277
74 4.28375 15.7059 1.43009 -0.00205977 0.00113284 -0.00144786 -0.000947761 -0.00336531 -0.00336116
75 5.70903 14.2785 0.00476075 -0.00184771 0.000902795 -0.000198163 0.000125444 -0.00351056 -0.00167611
76 7.13878 15.7033 1.43099 -0.00125094 0.000708018 -0.00168351 -0.000155559 -0.00454383 -0.00159189
77 8.56572 14.2759 0.00432671 -0.000372602 3.69874e-05 -0.000723538 -0.00130542 -0.00506488 -0.00167805
78 9.99229 15.7045 1.43092 -0.00033965 0.000875521 -0.00158353 -0.00221587 -0.00517286 -0.000642729
79 11.4204 14.2784 0.00381346 -0.000107663 0.000107118 -0.000921574 -0.0047695 -0.00524253 -0.0023018
80 12.8481 15.7068 1.43016 0.000867224 0.000557128 -0.00157057 -0.00442629 -0.00583332 -0.00125024
81 14.2796 14.2816 0.00462195 -8.64073e-05 -0.000749722 -0.00129845 -0.00837426 -0.0057404 -0.00429239
82 15.7076 15.7097 1.4287 0.000801489 -0.000179681 -0.0011246 -0.00724684 -0.00608356 -0.00264147
83 17.1374 14.2811 0.00458382 0.000351807 -0.000485385 -0.000461934 -0.00705137 -0.00336935 -0.00323476
84 18.5655 15.7097 1.42749 0.000420631 -0.000460924 -0.000745174 -0.00593305 -0.00513704 -0.00359146
85 0.00636109 17.1382 0.00336991 0.00100148 -0.000106523 -0.000784591 -0.00382558 -0.00553945 -0.00328885
86 1.43196 18.5621 1.42747 -0.000231119 0.00115432 -0.00101812 -0.00232392 -0.00481436 -0.00659476
87 2.85675 17.1355 0.00239304 -0.000909586 0.000245124 -0.00143381 0.000380634 -0.00498308 -0.00355025
88 4.28437 18.5592 1.42857 -0.00151575 0.000369512 -0.00108094 0.000400105 -0.00471715 -0.00481507
89 5.71085 17.133 0.00316418 -0.00121764 3.02691e-05 -0.00118023 0.00173965 -0.00526106 -0.00265181
90 7.13681 18.5599 1.42953 -0.00169312 0.000810497 -0.00133248 0.000278616 -0.0039622 -0.00305945