LAMMPS dump file

687 atoms
1 atom types

0. 19.987184 xlo xhi
0. 19.987184 ylo yhi
0. 19.987184 zlo zhi

Masses

 1 55.85
 Atoms

1 1 0.00448604 0.00299371 1.25552e-05 
2 1 1.42757 1.42374 1.42237 
3 1 2.85768 -0.000111595 -0.00117603 
4 1 4.28206 1.42351 1.42428 
5 1 5.71045 0.000184061 0.000357624 
6 1 7.1368 1.42501 1.42562 
7 1 8.56373 0.00179453 0.00172992 
8 1 9.99168 1.42642 1.42598 
9 1 11.4187 0.00327202 0.00227737 
10 1 12.8474 1.42747 1.42572 
11 1 14.2756 0.0045707 0.00236301 
12 1 15.705 1.42755 1.42471 
13 1 17.1345 0.00506352 0.00188451 
14 1 18.5638 1.42578 1.4228 
15 1 0.000182033 2.85273 19.9829 
16 1 1.42429 4.27664 1.42129 
17 1 2.85404 2.85113 19.984 
18 1 4.27845 4.27627 1.42291 
19 1 5.70979 2.85265 19.9858 
20 1 7.13648 4.2798 1.42573 
21 1 8.56475 2.85452 19.9865 
22 1 9.99207 4.28151 1.426 
23 1 11.4195 2.85554 19.9864 
24 1 12.8476 4.28148 1.42552 
25 1 14.2753 2.8555 19.9858 
26 1 15.7066 4.27861 1.4226 
27 1 17.133 2.85398 19.9842 
28 1 18.5621 4.27835 1.42129 
29 1 -0.000538145 5.70632 19.9841 
30 1 1.42454 7.13442 1.42295 
31 1 2.85195 5.70592 19.9856 
32 1 4.27826 7.13446 1.42492 
33 1 5.7078 5.70701 19.9874 
34 1 7.13443 7.13513 1.42756 
35 1 8.56461 5.70993 19.9881 
36 1 9.99203 7.13802 1.42927 
37 1 11.4196 5.71081 19.9877 
38 1 12.8496 7.13615 1.42706 
39 1 14.2762 5.70905 19.9864 
40 1 15.7063 7.13567 1.42404 
41 1 17.1323 5.70823 19.9845 
42 1 18.5624 7.13482 1.4227 
43 1 0.000696865 8.56319 19.9865 
44 1 1.426 9.99355 1.42486 
45 1 2.85222 8.5637 19.9875 
46 1 4.27978 9.99352 1.4268 
47 1 5.70775 8.56419 19.989 
48 1 7.13672 9.99198 1.43004 
49 1 8.56417 8.56538 19.9886 
50 1 9.99289 9.99123 1.43118 
51 1 11.4205 8.56619 19.9884 
52 1 12.849 9.99338 1.42926 
53 1 14.2761 8.56576 19.9882 
54 1 15.7069 9.99395 1.42585 
55 1 17.1337 8.56386 19.9875 
56 1 18.5635 9.99327 1.42454 
57 1 0.00227377 11.4219 0.00147796 
58 1 1.42804 12.8521 1.42671 
59 1 2.85342 11.4223 0.00180127 
60 1 4.28227 12.8506 1.42863 
61 1 5.70881 11.4211 0.0031342 
62 1 7.13884 12.8475 1.43098 
63 1 8.56508 11.4205 0.00269639 
64 1 9.9936 12.8465 1.43168 
65 1 11.4213 11.4218 0.00260934 
66 1 12.849 12.8502 1.43019 
67 1 14.2779 11.4226 0.00247567 
68 1 15.7072 12.8522 1.42747 
69 1 17.1356 11.4219 0.0026081 
70 1 18.5645 12.8524 1.4262 
71 1 0.003965 14.281 0.00320774 
72 1 1.43042 15.7085 1.42837 
73 1 2.85515 14.2801 0.00315607 
74 1 4.28467 15.7055 1.4304 
75 1 5.71011 14.278 0.00441222 
76 1 7.13933 15.7032 1.43146 
77 1 8.56579 14.276 0.00441963 
78 1 9.99251 15.7041 1.43141 
79 1 11.4205 14.2783 0.00416102 
80 1 12.8478 15.7065 1.43075 
81 1 14.2794 14.2819 0.00500693 
82 1 15.707 15.7097 1.42924 
83 1 17.1371 14.2816 0.00478647 
84 1 18.565 15.7101 1.42787 
85 1 0.00533603 17.1383 0.0037217 
86 1 1.43181 18.5614 1.42781 
87 1 2.85722 17.1354 0.003011 
88 1 4.28514 18.5591 1.42893 
89 1 5.71156 17.1331 0.00356601 
90 1 7.13782 18.5594 1.43003 
91 1 8.56433 17.1339 0.00497866 
92 1 9.99142 18.5608 1.43029 
93 1 11.419 17.1359 0.00556187 
94 1 12.8471 18.5624 1.42976 
95 1 14.2772 17.1383 0.00595758 
96 1 15.7052 18.5641 1.42883 
97 1 17.1374 17.1402 0.00598099 
98 1 18.5641 18.564 1.42768 
99 1 0.00409482 19.9874 2.8511 
100 1 1.42553 1.42159 4.27937 
101 1 2.85637 19.9845 2.85345 
102 1 4.27927 1.42089 4.2793 
103 1 5.7104 19.9852 2.85508 
104 1 7.13674 1.42404 4.28191 
105 1 8.56417 19.9868 2.85544 
106 1 9.9921 1.42561 4.28228 
107 1 11.4191 19.9882 2.85485 
108 1 12.848 1.42652 4.28113 
109 1 14.2758 19.9893 2.8534 
110 1 15.7078 1.4249 4.27787 
111 1 17.1354 19.9892 2.85118 
112 1 18.5642 1.4239 4.27842 
113 1 0.000556869 2.85006 2.84979 
114 1 1.422 4.27452 4.2767 
115 1 2.84624 2.84313 2.84486 
116 1 4.25891 4.25785 4.26023 
117 1 5.70698 2.84634 2.84826 
118 1 7.13448 4.26762 4.26953 
119 1 8.56424 2.8485 2.84953 
120 1 9.99236 4.26985 4.2707 
121 1 11.4202 2.84976 2.84967 
122 1 12.8489 4.27123 4.2713 
123 1 14.2776 2.84977 2.84875 
124 1 15.724 4.2622 4.26211 
125 1 17.1403 2.84643 2.8452 
126 1 18.5635 4.27636 4.277 
127 1 0.000168547 5.70509 2.84936 
128 1 1.42307 7.13372 4.27749 
129 1 2.84455 5.70222 2.84457 
130 1 4.26008 7.1291 4.2629 
131 1 5.70156 5.70098 2.84905 
132 1 7.12123 7.12358 4.27232 
133 1 8.56382 5.70744 2.85401 
134 1 9.99114 7.13622 4.28612 
135 1 11.4197 5.70843 2.854 
136 1 12.8614 7.12515 4.2724 
137 1 14.2822 5.70267 2.84851 
138 1 15.723 7.12977 4.26312 
139 1 17.1403 5.70379 2.84469 
140 1 18.5648 7.1328 4.27583 
141 1 0.00127881 8.56337 2.85048 
142 1 1.42492 9.99366 4.27913 
143 1 2.84679 8.56494 2.84743 
144 1 4.26715 9.99868 4.26941 
145 1 5.70372 8.56357 2.8521 
146 1 7.13212 9.99082 4.28405 
147 1 8.56086 8.56115 2.85841 
148 1 9.99282 9.9837 4.28446 
149 1 11.4236 8.56168 2.85777 
150 1 12.8548 9.99207 4.28039 
151 1 14.2813 8.56402 2.85062 
152 1 15.7206 9.99759 4.26601 
153 1 17.1401 8.56434 2.84615 
154 1 18.5661 9.99212 4.27588 
155 1 0.00263103 11.4225 2.85174 
156 1 1.42712 12.8513 4.28122 
157 1 2.84991 11.425 2.85026 
158 1 4.27477 12.8561 4.27641 
159 1 5.70849 11.4219 2.85479 
160 1 7.13934 12.8475 4.28593 
161 1 8.56568 11.4173 2.86077 
162 1 9.99452 12.8438 4.28907 
163 1 11.4216 11.4186 2.86023 
164 1 12.8518 12.8526 4.281 
165 1 14.2798 11.4234 2.85279 
166 1 15.717 12.8583 4.27082 
167 1 17.1402 11.4249 2.84777 
168 1 18.567 12.8516 4.27683 
169 1 0.00416979 14.2803 2.85317 
170 1 1.43022 15.706 4.28307 
171 1 2.85403 14.2807 2.85369 
172 1 4.28508 15.7028 4.28565 
173 1 5.71207 14.2761 2.85758 
174 1 7.14016 15.7002 4.28729 
175 1 8.56721 14.2735 2.85944 
176 1 9.9925 15.7021 4.28568 
177 1 11.4199 14.2758 2.85856 
178 1 12.8481 15.7054 4.28299 
179 1 14.2787 14.2808 2.8543 
180 1 15.7102 15.7106 4.27758 
181 1 17.1392 14.283 2.85015 
182 1 18.5674 15.7094 4.27757 
183 1 0.00530324 17.1355 2.85385 
184 1 1.4302 18.5604 4.28139 
185 1 2.85834 17.1324 2.85671 
186 1 4.28438 18.558 4.28368 
187 1 5.71249 17.1302 2.85828 
188 1 7.13774 18.5592 4.28398 
189 1 8.56519 17.1308 2.85818 
190 1 9.99094 18.5614 4.28261 
191 1 11.4193 17.1328 2.85709 
192 1 12.8471 18.5634 4.28037 
193 1 14.2764 17.1353 2.85507 
194 1 15.7078 18.5659 4.27676 
195 1 17.1365 17.1373 2.85278 
196 1 18.567 18.5656 4.27646 
197 1 0.00243376 19.9863 5.70907 
198 1 1.42501 1.42238 7.13866 
199 1 2.85516 19.9839 5.71062 
200 1 4.27966 1.42202 7.13836 
201 1 5.70991 19.9844 5.71128 
202 1 7.13519 1.42474 7.13764 
203 1 8.56506 19.9865 5.71219 
204 1 9.99273 1.42779 7.13909 
205 1 11.4199 19.9879 5.71089 
206 1 12.8504 1.42703 7.13644 
207 1 14.2779 19.9886 5.70773 
208 1 15.7075 1.42546 7.13629 
209 1 17.1363 19.9887 5.70688 
210 1 18.5624 1.42428 7.13821 
211 1 -0.000551931 2.84997 5.70876 
212 1 1.42191 4.27626 7.13705 
213 1 2.8445 2.8424 5.70534 
214 1 4.25887 4.2595 7.13052 
215 1 5.70109 2.84577 5.70271 
216 1 7.11883 4.26758 7.12298 
217 1 8.56402 2.85194 5.70851 
218 1 9.99136 4.28423 7.13521 
219 1 11.4203 2.85333 5.70875 
220 1 12.8617 4.27314 7.12503 
221 1 14.2828 2.84917 5.70308 
222 1 15.7228 4.26472 7.13063 
223 1 17.1408 2.84589 5.70505 
224 1 18.5613 4.2784 7.13748 
225 1 -0.00104851 5.70514 5.70725 
226 1 1.42303 7.13324 7.13526 
227 1 2.8434 5.6983 5.7006 
228 1 4.25921 7.11924 7.12135 
229 1 5.65843 5.66088 5.66279 
230 1 7.02006 7.02903 7.03201 
231 1 8.57021 5.69111 5.69246 
232 1 9.98839 7.16674 7.16381 
233 1 11.4119 5.69495 5.69493 
234 1 12.9515 7.04195 7.03968 
235 1 14.3206 5.66722 5.66665 
236 1 15.7187 7.12691 7.12492 
237 1 17.1395 5.70196 5.70217 
238 1 18.561 7.13418 7.13552 
239 1 0.000217072 8.56346 5.70766 
240 1 1.42565 9.99273 7.13711 
241 1 2.84613 8.56345 5.70407 
242 1 4.27553 9.99386 7.12984 
243 1 5.6675 8.56382 5.67559 
244 1 7.09459 10.0252 7.09178 
245 1 8.5354 8.54154 5.70435 
246 1 9.99561 9.96856 7.06132 
247 1 11.4469 8.54336 5.70169 
248 1 12.8974 10.0223 7.08287 
249 1 14.3157 8.56335 5.67387 
250 1 15.7212 9.98736 7.11722 
251 1 17.1433 8.56006 5.69924 
252 1 18.5616 9.99246 7.13525 
253 1 0.0014156 11.4215 5.70849 
254 1 1.42693 12.8486 7.13934 
255 1 2.84964 11.4234 5.70789 
256 1 4.28037 12.847 7.14064 
257 1 5.68761 11.4352 5.69133 
258 1 7.14648 12.8334 7.15265 
259 1 8.56323 11.419 5.71594 
260 1 9.99608 12.8219 7.1582 
261 1 11.4282 11.4217 5.713 
262 1 12.8593 12.8497 7.12552 
263 1 14.3034 11.4362 5.68706 
264 1 15.7271 12.8522 7.11767 
265 1 17.145 11.4214 5.69882 
266 1 18.5632 12.8507 7.13557 
267 1 0.00306628 14.2786 5.70933 
268 1 1.4277 15.706 7.13795 
269 1 2.85459 14.2767 5.71193 
270 1 4.27814 15.7088 7.13409 
271 1 5.71344 14.2709 5.71597 
272 1 7.13953 15.7026 7.13829 
273 1 8.5693 14.2682 5.71799 
274 1 9.98891 15.709 7.13327 
275 1 11.419 14.2729 5.71687 
276 1 12.854 15.7234 7.11684 
277 1 14.2854 14.283 5.70535 
278 1 15.7343 15.7337 7.10897 
279 1 17.1453 14.2829 5.69922 
280 1 18.5656 15.7106 7.13384 
281 1 0.00406177 17.1354 5.70824 
282 1 1.42837 18.5598 7.1384 
283 1 2.85511 17.1337 5.70952 
284 1 4.28405 18.5579 7.13978 
285 1 5.71203 17.1306 5.71193 
286 1 7.1392 18.5577 7.14081 
287 1 8.56409 17.1329 5.71022 
288 1 9.99307 18.5592 7.14017 
289 1 11.4175 17.1372 5.70597 
290 1 12.8498 18.5617 7.13592 
291 1 14.2816 17.1433 5.69913 
292 1 15.7101 18.5652 7.13291 
293 1 17.1464 17.1464 5.69676 
294 1 18.5648 18.5638 7.13648 
295 1 0.00151496 19.9867 8.56686 
296 1 1.42508 1.42384 9.99627 
297 1 2.85497 19.9847 8.56753 
298 1 4.28088 1.42361 9.99603 
299 1 5.71114 19.9847 8.56813 
300 1 7.13827 1.42706 9.9941 
301 1 8.56629 19.9859 8.56778 
302 1 9.99375 1.4292 9.99167 
303 1 11.422 19.9867 8.5663 
304 1 12.8487 1.4287 9.99278 
305 1 14.2781 19.9879 8.5646 
306 1 15.7049 1.42646 9.995 
307 1 17.1341 19.9881 8.5661 
308 1 18.561 1.42562 9.9959 
309 1 -0.00154693 2.85178 8.56743 
310 1 1.42217 4.2785 9.99597 
311 1 2.84605 2.84521 8.56794 
312 1 4.26501 4.26584 10.0006 
313 1 5.70359 2.84893 8.56603 
314 1 7.13045 4.28031 9.99272 
315 1 8.56053 2.85598 8.56163 
316 1 9.99012 4.28274 9.9819 
317 1 11.4234 2.85756 8.56164 
318 1 12.8518 4.28351 9.99085 
319 1 14.2806 2.85211 8.56471 
320 1 15.7148 4.27206 10 
321 1 17.1373 2.84887 8.56767 
322 1 18.5592 4.28096 9.99591 
323 1 -0.00250389 5.70808 8.56673 
324 1 1.42384 7.13643 9.99442 
325 1 2.84473 5.70181 8.56541 
326 1 4.27238 7.12626 9.99578 
327 1 5.66379 5.67013 8.56343 
328 1 7.0835 7.07985 10.0252 
329 1 8.52987 5.69661 8.53691 
330 1 9.98155 7.05425 9.94841 
331 1 11.4459 5.7031 8.54093 
332 1 12.8977 7.0888 10.0145 
333 1 14.3154 5.67732 8.56157 
334 1 15.7037 7.13645 9.99678 
335 1 17.1352 5.70697 8.56632 
336 1 18.557 7.13856 9.99474 
337 1 -0.00212376 8.56479 8.5656 
338 1 1.4258 9.99322 9.99389 
339 1 2.84757 8.56127 8.56306 
340 1 4.28735 9.98746 9.99151 
341 1 5.65677 8.54528 8.54855 
342 1 7.16728 9.96312 9.97425 
343 1 8.21067 8.38648 8.39718 
344 1 9.96626 9.32695 9.30023 
345 1 11.7487 8.40368 8.40163 
346 1 12.7895 10.001 9.98895 
347 1 14.3143 8.56199 8.55455 
348 1 15.6978 9.99473 9.98831 
349 1 17.1348 8.56359 8.56309 
350 1 18.5556 9.99576 9.99342 
351 1 -0.00132574 11.4213 8.56631 
352 1 1.42629 12.8493 9.99431 
353 1 2.85404 11.4186 8.56775 
354 1 4.28053 12.8528 9.99302 
355 1 5.70507 11.4136 8.57147 
356 1 7.10701 12.8905 9.96761 
357 1 8.60294 11.3881 8.64515 
358 1 10.0138 12.9425 10.015 
359 1 11.4245 11.404 8.61006 
360 1 12.9666 12.9702 9.8333 
361 1 14.3105 11.4083 8.54241 
362 1 15.7128 12.8678 9.98055 
363 1 17.1335 11.4221 8.56269 
364 1 18.5577 12.8528 9.99246 
365 1 0.000285193 14.2785 8.56552 
366 1 1.42622 15.7054 9.99448 
367 1 2.85224 14.2779 8.56563 
368 1 4.27536 15.7111 9.9908 
369 1 5.69621 14.2898 8.55387 
370 1 7.14106 15.6996 9.99891 
371 1 8.56755 14.2758 8.56294 
372 1 9.99932 15.7052 10.0028 
373 1 11.4225 14.301 8.54252 
374 1 12.8699 15.7186 9.98128 
375 1 14.3381 14.336 8.50604 
376 1 15.7206 15.7211 9.9958 
377 1 17.139 14.2868 8.55783 
378 1 18.5618 15.7073 9.99448 
379 1 0.0016734 17.1338 8.56639 
380 1 1.42762 18.5602 9.99474 
381 1 2.85325 17.134 8.56538 
382 1 4.28357 18.5585 9.99498 
383 1 5.71258 17.13 8.5679 
384 1 7.14072 18.5564 9.99637 
385 1 8.56751 17.1279 8.56978 
386 1 9.99648 18.5561 9.99613 
387 1 11.4236 17.1302 8.56544 
388 1 12.8527 18.5593 9.99264 
389 1 14.2873 17.139 8.55677 
390 1 15.707 18.5632 9.99368 
391 1 17.1415 17.1418 8.56387 
392 1 18.5642 18.5644 9.99401 
393 1 0.00124759 0.000815388 11.4233 
394 1 1.42574 1.42555 12.8519 
395 1 2.85511 -0.00151506 11.4232 
396 1 4.28253 1.42523 12.8507 
397 1 5.71193 -0.00142742 11.4222 
398 1 7.14021 1.42786 12.8478 
399 1 8.56814 -0.00112058 11.4211 
400 1 9.9939 1.42956 12.8462 
401 1 11.4229 -0.000454533 11.4212 
402 1 12.847 1.42936 12.8487 
403 1 14.2764 0.000818757 11.4223 
404 1 15.7033 1.4281 12.8507 
405 1 17.1331 0.00193834 11.4229 
406 1 18.5603 1.42727 12.8517 
407 1 -0.00206847 2.85337 11.4239 
408 1 1.4227 4.28055 12.8513 
409 1 2.84791 2.84776 11.4263 
410 1 4.27116 4.27215 12.8575 
411 1 5.70805 2.85171 11.4237 
412 1 7.13742 4.28255 12.8501 
413 1 8.56567 2.85942 11.4182 
414 1 9.99111 4.28951 12.8447 
415 1 11.4195 2.8603 11.4178 
416 1 12.8463 4.28471 12.849 
417 1 14.2758 2.8548 11.4225 
418 1 15.7087 4.27812 12.855 
419 1 17.1347 2.85126 11.4255 
420 1 18.558 4.28306 12.8507 
421 1 -0.00326044 5.71039 11.4225 
422 1 1.42333 7.13894 12.8491 
423 1 2.84655 5.70541 11.4248 
424 1 4.27388 7.13547 12.8511 
425 1 5.68317 5.68606 11.4384 
426 1 7.13242 7.1412 12.8434 
427 1 8.56176 5.71643 11.4214 
428 1 9.98583 7.17053 12.8308 
429 1 11.4188 5.7151 11.4189 
430 1 12.851 7.14406 12.8449 
431 1 14.2924 5.69646 11.4352 
432 1 15.7003 7.14601 12.8478 
433 1 17.1318 5.71102 11.4241 
434 1 18.5564 7.14119 12.8481 
435 1 -0.00344302 8.56813 11.4212 
436 1 1.42473 9.99434 12.8504 
437 1 2.85196 8.56581 11.421 
438 1 4.27641 9.98921 12.8593 
439 1 5.69994 8.56447 11.4203 
440 1 7.0918 9.95812 12.9145 
441 1 8.5818 8.61273 11.4024 
442 1 9.98221 9.99539 13.0479 
443 1 11.4155 8.55204 11.3898 
444 1 12.8122 10.0024 12.8537 
445 1 14.2692 8.58987 11.4189 
446 1 15.7024 9.99643 12.8565 
447 1 17.1272 8.57126 11.4202 
448 1 18.5556 9.99699 12.8501 
449 1 -0.00297007 11.4235 11.4223 
450 1 1.42534 12.8505 12.8516 
451 1 2.85213 11.4204 11.4227 
452 1 4.27372 12.8556 12.8585 
453 1 5.6706 11.418 11.4264 
454 1 7.06123 12.9195 12.9257 
455 1 8.22958 11.5201 11.5302 
456 1 10.0104 12.8005 12.8223 
457 1 11.9793 11.8351 11.521 
458 1 13.0121 13.0222 13.0857 
459 1 14.3453 11.4428 11.4239 
460 1 15.7111 12.8695 12.871 
461 1 17.132 11.4285 11.4228 
462 1 18.5572 12.8538 12.8538 
463 1 -0.00147547 14.2777 11.4229 
464 1 1.42548 15.7067 12.851 
465 1 2.85097 14.2785 11.4229 
466 1 4.27137 15.7149 12.8542 
467 1 5.68303 14.2983 11.4231 
468 1 7.13303 15.7052 12.8575 
469 1 8.55795 14.268 11.4449 
470 1 9.9991 15.6977 12.8526 
471 1 11.4789 14.3259 11.4464 
472 1 12.8778 15.7268 12.8791 
473 1 14.2868 14.2833 11.4264 
474 1 15.7269 15.7286 12.852 
475 1 17.1318 14.2814 11.4247 
476 1 18.5621 15.7088 12.8521 
477 1 0.00112373 17.1342 11.4227 
478 1 1.42739 18.5615 12.8506 
479 1 2.85213 17.1349 11.422 
480 1 4.28318 18.5599 12.8502 
481 1 5.71036 17.1313 11.4231 
482 1 7.13958 18.5584 12.8494 
483 1 8.56845 17.1259 11.4261 
484 1 9.99636 18.557 12.8495 
485 1 11.4315 17.1315 11.4268 
486 1 12.8533 18.5613 12.8543 
487 1 14.2835 17.1351 11.4244 
488 1 15.7077 18.5651 12.8521 
489 1 17.1427 17.1439 11.4219 
490 1 18.5646 18.566 12.851 
491 1 0.00165724 0.00256297 14.279 
492 1 1.4273 1.4275 15.7056 
493 1 2.85576 0.000182233 14.2779 
494 1 4.28401 1.42715 15.7038 
495 1 5.71224 5.23408e-05 14.2762 
496 1 7.13964 1.42841 15.7026 
497 1 8.56732 0.00038323 14.2749 
498 1 9.99275 1.42959 15.7029 
499 1 11.4206 0.00128643 14.2768 
500 1 12.8463 1.43053 15.704 
501 1 14.2771 0.00335754 14.28 
502 1 15.7034 1.43046 15.7058 
503 1 17.1335 0.00395395 14.2793 
504 1 18.5602 1.42931 15.7058 
505 1 -0.00187122 2.85497 14.278 
506 1 1.42449 4.28183 15.704 
507 1 2.85086 2.8509 14.2801 
508 1 4.28002 4.28021 15.7045 
509 1 5.71087 2.85387 14.2768 
510 1 7.13755 4.28345 15.7032 
511 1 8.56686 2.8576 14.2746 
512 1 9.99226 4.28575 15.7025 
513 1 11.4183 2.85879 14.2742 
514 1 12.8456 4.28649 15.7014 
515 1 14.2742 2.85657 14.2769 
516 1 15.7028 4.28421 15.7034 
517 1 17.1324 2.85428 14.2792 
518 1 18.5572 4.28424 15.7032 
519 1 -0.0033298 5.71153 14.2761 
520 1 1.4229 7.13632 15.7058 
521 1 2.84911 5.70827 14.278 
522 1 4.2698 7.12716 15.7152 
523 1 5.70534 5.70803 14.2763 
524 1 7.12354 7.12356 15.7193 
525 1 8.56521 5.71626 14.2734 
526 1 9.99156 7.1327 15.7135 
527 1 11.4153 5.71868 14.2697 
528 1 12.8564 7.13141 15.7124 
529 1 14.2759 5.71267 14.2752 
530 1 15.7025 7.14049 15.7045 
531 1 17.1292 5.71389 14.2758 
532 1 18.5582 7.1383 15.7041 
533 1 -0.00294776 8.56709 14.2769 
534 1 1.42359 9.99346 15.7075 
535 1 2.84785 8.56315 14.2813 
536 1 4.2679 9.98856 15.7191 
537 1 5.68425 8.54536 14.3022 
538 1 7.12192 9.99337 15.7214 
539 1 8.53647 8.54005 14.3079 
540 1 9.99482 10.0051 15.7225 
541 1 11.4358 8.54309 14.2995 
542 1 12.8534 9.99823 15.7149 
543 1 14.2733 8.57289 14.2783 
544 1 15.7197 9.98391 15.7232 
545 1 17.1318 8.567 14.2779 
546 1 18.5602 9.99361 15.7072 
547 1 -0.00231752 11.4231 14.2789 
548 1 1.42453 12.8514 15.7088 
549 1 2.84871 11.4222 14.2821 
550 1 4.26705 12.8564 15.7207 
551 1 5.67453 11.4232 14.3092 
552 1 7.118 12.8661 15.7236 
553 1 8.52098 11.4529 14.3062 
554 1 9.99433 12.8562 15.7153 
555 1 11.4745 11.475 14.3054 
556 1 12.8769 12.8785 15.749 
557 1 14.3195 11.4086 14.3178 
558 1 15.7357 12.8547 15.7413 
559 1 17.133 11.4254 14.2834 
560 1 18.5628 12.8522 15.7114 
561 1 -0.000461417 14.2803 14.2809 
562 1 1.42576 15.7094 15.709 
563 1 2.84934 14.282 14.2826 
564 1 4.26941 15.7193 15.7192 
565 1 5.67794 14.3082 14.3098 
566 1 7.13934 15.7108 15.7131 
567 1 8.57731 14.2805 14.2871 
568 1 9.98396 15.7259 15.7285 
569 1 11.4045 14.3202 14.3195 
570 1 12.8528 15.7391 15.7427 
571 1 14.3593 14.3624 14.3694 
572 1 15.7444 15.7466 15.7483 
573 1 17.1398 14.2896 14.2912 
574 1 18.5655 15.7134 15.7131 
575 1 0.00150262 17.1362 14.2795 
576 1 1.42796 18.5636 15.7068 
577 1 2.85095 17.1377 14.2802 
578 1 4.28319 18.5621 15.7061 
579 1 5.70875 17.1346 14.2809 
580 1 7.13911 18.5613 15.7044 
581 1 8.56686 17.1315 14.2774 
582 1 9.99185 18.5635 15.7069 
583 1 11.4225 17.1348 14.2842 
584 1 12.8489 18.5662 15.7109 
585 1 14.2913 17.1461 14.2949 
586 1 15.7114 18.5698 15.7139 
587 1 17.1451 17.1474 14.283 
588 1 18.5659 18.5685 15.7091 
589 1 0.00288833 0.00420169 17.134 
590 1 1.42919 1.42791 18.5577 
591 1 2.85699 0.00158441 17.1321 
592 1 4.28406 1.42694 18.5578 
593 1 5.71197 0.00109634 17.1313 
594 1 7.13792 1.42825 18.5588 
595 1 8.56484 0.00268426 17.1325 
596 1 9.99179 1.42968 18.5594 
597 1 11.4189 0.00413895 17.134 
598 1 12.8468 1.43052 18.5597 
599 1 14.2759 0.00565493 17.1354 
600 1 15.7034 1.43088 18.5597 
601 1 17.1349 0.00660603 17.1362 
602 1 18.561 1.42995 18.5589 
603 1 -0.00091623 2.85567 17.1305 
604 1 1.42526 4.27929 18.5581 
605 1 2.85467 2.8538 17.1308 
606 1 4.27983 4.278 18.5606 
607 1 5.71077 2.85457 17.1307 
608 1 7.13708 4.28064 18.5609 
609 1 8.56543 2.85643 17.1307 
610 1 9.99257 4.28276 18.5603 
611 1 11.4194 2.85749 17.1307 
612 1 12.8475 4.28303 18.5597 
613 1 14.2741 2.85764 17.1307 
614 1 15.7042 4.28172 18.5591 
615 1 17.131 2.85673 17.1311 
616 1 18.5585 4.28185 18.557 
617 1 -0.00243093 5.70895 17.1311 
618 1 1.4245 7.13459 18.5603 
619 1 2.84914 5.70466 17.1353 
620 1 4.27797 7.13389 18.5632 
621 1 5.7036 5.70263 17.1387 
622 1 7.1357 7.1362 18.5621 
623 1 8.56392 5.70733 17.1359 
624 1 9.99202 7.13919 18.5608 
625 1 11.4209 5.70947 17.134 
626 1 12.8478 7.13809 18.5611 
627 1 14.2783 5.7081 17.1347 
628 1 15.7037 7.13715 18.5609 
629 1 17.1302 5.71087 17.131 
630 1 18.5607 7.13454 18.5606 
631 1 -0.00128372 8.56432 17.1334 
632 1 1.42538 9.9925 18.5623 
633 1 2.84785 8.5618 17.138 
634 1 4.27795 9.99245 18.5647 
635 1 5.70176 8.56119 17.1407 
636 1 7.1354 9.99316 18.5629 
637 1 8.56253 8.5661 17.1316 
638 1 9.99268 9.99559 18.5609 
639 1 11.4208 8.56677 17.1316 
640 1 12.8487 9.9958 18.5618 
641 1 14.277 8.56564 17.1369 
642 1 15.7071 9.99224 18.565 
643 1 17.1373 8.56038 17.1391 
644 1 18.5637 9.99074 18.5645 
645 1 0.000285278 11.4218 17.1358 
646 1 1.42657 12.8514 18.5638 
647 1 2.84833 11.422 17.1394 
648 1 4.27862 12.852 18.566 
649 1 5.70055 11.4239 17.1424 
650 1 7.13496 12.8509 18.5651 
651 1 8.55978 11.4258 17.1342 
652 1 9.99367 12.8501 18.5632 
653 1 11.426 11.4292 17.134 
654 1 12.853 12.8549 18.5672 
655 1 14.2857 11.4237 17.1408 
656 1 15.7109 12.8525 18.5689 
657 1 17.1435 11.418 17.146 
658 1 18.5662 12.8507 18.5674 
659 1 0.00198115 14.281 17.1376 
660 1 1.4282 15.7098 18.5645 
661 1 2.849 14.2826 17.1404 
662 1 4.28043 15.71 18.5661 
663 1 5.70173 14.2865 17.1435 
664 1 7.13745 15.7068 18.5657 
665 1 8.56376 14.2803 17.14 
666 1 9.99108 15.7088 18.5677 
667 1 11.4215 14.2873 17.1413 
668 1 12.8496 15.7127 18.5698 
669 1 14.2942 14.2965 17.1533 
670 1 15.7138 15.7167 18.5722 
671 1 17.1491 14.2862 17.1522 
672 1 18.5686 15.7126 18.5697 
673 1 0.00365743 17.139 17.1374 
674 1 1.42998 18.5645 18.5623 
675 1 2.85177 17.1397 17.1385 
676 1 4.2845 18.5618 18.5612 
677 1 5.71062 17.1364 17.1368 
678 1 7.13623 18.5637 18.5639 
679 1 8.56039 17.1418 17.1428 
680 1 9.98964 18.5663 18.5664 
681 1 11.4165 17.1471 17.148 
682 1 12.8472 18.5686 18.5679 
683 1 14.2835 17.1521 17.1526 
684 1 15.7084 18.571 18.5693 
685 1 17.1509 17.1539 17.153 
686 1 18.568 18.5704 18.568 
687 1 10.1985 10.7319 10.9228 

PafiPath

1 0.00448604 0.00299371 1.25552e-05 0.0012307 0.00125596 7.47824e-05 0.00648731 0.00449787 0.00203625 
2 1.42757 1.42374 1.42237 -0.000166277 0.00111511 0.000767572 0.00439707 0.0049179 0.00377177 
3 2.85768 -0.000111595 -0.00117603 -0.000775401 -0.000447735 -0.000700154 0.00166735 0.00394693 0.00232555 
4 4.28206 1.42351 1.42428 -0.00177722 -0.000147865 0.000411773 -0.000474597 0.00405872 0.00372894 
5 5.71045 0.000184061 0.000357624 -0.00176419 -8.35707e-05 -1.29782e-05 -0.00266437 0.00246441 0.00222151 
6 7.1368 1.42501 1.42562 -0.0013246 0.00020341 0.000422164 -0.00413402 0.00258638 0.00330152 
7 8.56373 0.00179453 0.00172992 -0.00136152 0.000624455 0.000455767 -0.00290836 0.00269823 0.00298117 
8 9.99168 1.42642 1.42598 -0.00021463 0.0008327 0.000622463 -0.00279898 0.00241782 0.00263082 
9 11.4187 0.00327202 0.00227737 -0.000401319 0.00105507 0.000634173 0.00150958 0.00434837 0.00384073 
10 12.8474 1.42747 1.42572 0.000624325 0.00126496 0.000670467 0.00268248 0.00346313 0.00243791 
11 14.2756 0.0045707 0.00236301 0.000663113 0.00141375 0.000662 0.00686146 0.00532528 0.00346045 
12 15.705 1.42755 1.42471 0.000632106 0.00195131 0.000927378 0.00788061 0.00421518 0.00220502 
13 17.1345 0.00506352 0.00188451 0.00143247 0.00185472 0.000664049 0.00878858 0.00472913 0.00203976 
14 18.5638 1.42578 1.4228 -0.000325513 0.00244529 0.00111507 0.00866897 0.00466572 0.00254539 
15 0.000182033 2.85273 19.9829 -0.00101812 0.00115432 -0.000231119 0.00659476 0.00481436 0.00232392 
16 1.42429 4.27664 1.42129 -0.000784591 -0.000106523 0.00100148 0.00328885 0.00553945 0.00382558 
17 2.85404 2.85113 19.984 -0.00204755 -0.000821179 0.000808953 0.00165412 0.00511082 0.000907537 
18 4.27845 4.27627 1.42291 -0.00108591 -0.000249517 0.00145626 -0.000771385 0.00343083 0.00281981 
19 5.70979 2.85265 19.9858 -0.00207858 -0.00158357 0.000956862 -0.00220026 0.00390417 0.00149033 
20 7.13648 4.2798 1.42573 -0.00138223 -0.00122812 0.000465257 -0.00215578 0.00243962 0.00339662 
21 8.56475 2.85452 19.9865 -0.000601073 -0.00113568 0.000865558 -0.00371209 0.00214036 0.00302214 
22 9.99207 4.28151 1.426 0.000107332 -0.00080203 0.000588424 -0.00239423 0.00125735 0.00324475 
23 11.4195 2.85554 19.9864 0.000620357 -0.000673936 0.000656707 -0.000698861 0.00211416 0.00402876 
24 12.8476 4.28148 1.42552 0.000677438 -7.50279e-05 0.000573318 0.00105521 0.00111736 0.00294505 
25 14.2753 2.8555 19.9858 0.00113643 5.60001e-06 0.000496055 0.00402497 0.00345359 0.00369947 
26 15.7066 4.27861 1.4226 -0.000852918 0.00168186 0.00131145 0.00616814 0.00180897 0.00221228 
27 17.133 2.85398 19.9842 9.13448e-05 0.00113615 0.000182325 0.00690665 0.00466631 0.00235392 
28 18.5621 4.27835 1.42129 -0.0020503 0.00157995 0.00118831 0.0067892 0.00436562 0.0031562 
29 -0.000538145 5.70632 19.9841 -0.000744433 0.000107246 4.52542e-05 0.00381664 0.00450259 0.00200331 
30 1.42454 7.13442 1.42295 -0.000314331 -0.000712245 0.000788048 0.00291295 0.00340428 0.00394074 
31 2.85195 5.70592 19.9856 -0.00212191 -0.000954414 0.0011276 0.00163962 0.00379831 0.00118817 
32 4.27826 7.13446 1.42492 -0.00109605 -0.000615356 0.00117838 0.000983896 0.00205517 0.00294814 
33 5.7078 5.70701 19.9874 -0.00227542 -0.00174772 0.00198003 -0.000207727 0.00245295 0.0015202 
34 7.13443 7.13513 1.42756 -0.000549259 -0.000492957 0.000830903 0.000223061 0.00134345 0.00337824 
35 8.56461 5.70993 19.9881 -0.000754587 -0.00179056 0.00111954 -0.000819791 0.0017794 0.00309445 
36 9.99203 7.13802 1.42927 -0.000349872 -0.000692776 -0.000116632 0.000604886 0.000870734 0.00375676 
37 11.4196 5.71081 19.9877 0.000675562 -0.00112408 0.000645118 0.000177049 0.000530353 0.0046633 
38 12.8496 7.13615 1.42706 -0.00102722 0.000668857 0.000580707 0.00230506 0.000458623 0.00306945 
39 14.2762 5.70905 19.9864 0.000111896 0.00039818 0.000256499 0.00261559 0.00115374 0.00402773 
40 15.7063 7.13567 1.42404 -0.00166096 0.000883715 0.00064806 0.00370327 0.00220464 0.00264978 
41 17.1323 5.70823 19.9845 -0.00139813 0.00130424 -0.000532118 0.00450993 0.0029182 0.00331034 
42 18.5624 7.13482 1.4227 -0.00152388 -0.00028583 0.000935633 0.00433463 0.00343899 0.00316994 
43 0.000696865 8.56319 19.9865 0.000133222 -0.000727777 0.000174859 0.00277403 0.0024152 0.00224224 
44 1.426 9.99355 1.42486 0.000170191 -0.000808215 0.000652723 0.00366083 0.000474426 0.00375362 
45 2.85222 8.5637 19.9875 -0.00149468 -0.000366268 0.000802317 0.00254151 0.00131667 0.00187083 
46 4.27978 9.99352 1.4268 -0.000816836 -0.000585707 0.000976855 0.00279516 0.000507979 0.00315451 
47 5.70775 8.56419 19.989 -0.00207207 -0.000984391 0.00161503 0.00216243 0.00101362 0.00237994 
48 7.13672 9.99198 1.43004 -0.000663405 -0.000536687 0.000343426 0.00198356 0.00189018 0.00300234 
49 8.56417 8.56538 19.9886 -0.00104148 -0.00136216 0.000630345 0.00246839 0.00247213 0.00450724 
50 9.99289 9.99123 1.43118 -0.000558816 0.000120021 -0.000506758 0.00288066 0.00274146 0.00346631 
51 11.4205 8.56619 19.9884 -0.000223897 -0.000583039 -0.000184375 0.00213751 0.00221894 0.0050539 
52 12.849 9.99338 1.42926 -0.000970805 0.000163618 -9.5726e-05 0.00301006 0.00360955 0.00307244 
53 14.2761 8.56576 19.9882 -0.00127923 0.000553607 -0.000582713 0.00226183 0.00290747 0.00395972 
54 15.7069 9.99395 1.42585 -0.00113967 -0.000943542 0.000598503 0.00408653 0.00326173 0.00274972 
55 17.1337 8.56386 19.9875 -0.000711377 -0.000474878 8.05055e-06 0.00304944 0.00293947 0.00320203 
56 18.5635 9.99327 1.42454 -0.000785684 -0.00141961 0.000718736 0.00454228 0.00215983 0.00270698 
57 0.00227377 11.4219 0.00147796 0.000695552 -0.00104732 0.000174834 0.0039761 0.000646927 0.00270091 
58 1.42804 12.8521 1.42671 0.00044846 -0.000700938 0.000439557 0.00456664 -0.000877265 0.00355036 
59 2.85342 11.4223 0.00180127 -0.0010199 -7.56669e-05 0.000539148 0.00339422 -0.000731584 0.00222488 
60 4.28227 12.8506 1.42863 -0.000624799 -0.000490247 0.000859955 0.00259559 -6.38987e-05 0.0029353 
61 5.70881 11.4211 0.0031342 -0.00158252 -0.000150429 0.00129701 0.00238686 0.00107857 0.00268797 
62 7.13884 12.8475 1.43098 -0.00103026 -8.82166e-05 8.97037e-05 0.0022583 0.00264978 0.00307743 
63 8.56508 11.4205 0.00269639 -0.000895119 -0.000208814 0.000273049 0.00298717 0.00335407 0.00484394 
64 9.9936 12.8465 1.43168 -0.000124834 0.000131001 -0.000249861 0.00280537 0.00530493 0.00290562 
65 11.4213 11.4218 0.00260934 -0.000614669 -0.000172955 -0.000722907 0.00389182 0.00556453 0.00428 
66 12.849 12.8502 1.43019 0.000246137 -0.000111971 -0.000114605 0.00410257 0.00674223 0.00254068 
67 14.2779 11.4226 0.00247567 -0.000461923 -0.000823769 -0.000703099 0.00439249 0.00571891 0.00586108 
68 15.7072 12.8522 1.42747 -0.000279099 -0.00135511 0.0002439 0.00714675 0.00597533 0.00210244 
69 17.1356 11.4219 0.0026081 4.09023e-05 -0.00143693 0.000243844 0.00407622 0.00391006 0.00317833 
70 18.5645 12.8524 1.4262 -0.000159845 -0.00138747 0.000299754 0.00655279 0.00211556 0.00286506 
71 0.003965 14.281 0.00320774 0.00119628 -0.000908847 -0.000127474 0.00577805 0.000796793 0.00303436 
72 1.43042 15.7085 1.42837 0.000661296 -0.00038427 9.12732e-05 0.00512547 0.000392853 0.00339026 
73 2.85515 14.2801 0.00315607 -0.000608345 -8.88896e-05 4.73856e-05 0.00319292 -0.00111074 0.00246578 
74 4.28467 15.7055 1.4304 -0.000763199 -0.000236336 0.000305858 0.000968364 0.000959543 0.00293613 
75 5.71011 14.278 0.00441222 -0.0013048 0.000195966 0.00078492 0.000979351 0.00158512 0.0027004 
76 7.13933 15.7032 1.43146 -0.000896832 -0.000171725 -1.39606e-05 0.000473446 0.00271404 0.00329304 
77 8.56579 14.276 0.00441963 -0.000515712 -0.000138941 0.000451055 0.0027467 0.00439133 0.00337149 
78 9.99251 15.7041 1.43141 -0.000488499 0.000172883 -5.80497e-05 0.00135205 0.007143 0.00259963 
79 11.4205 14.2783 0.00416102 -0.000297167 0.000332049 -9.80807e-05 0.00416355 0.0074962 0.00558544 
80 12.8478 15.7065 1.43075 0.000279173 0.000186471 -0.000215034 0.00513954 0.0091176 0.00224821 
81 14.2794 14.2819 0.00500693 0.000611836 -4.49756e-05 8.1196e-05 0.0055641 0.00700242 0.00483931 
82 15.707 15.7097 1.42924 0.000842695 -7.90111e-05 -0.000307597 0.00902665 0.00782206 0.00180669 
83 17.1371 14.2816 0.00478647 0.000513337 -0.000936302 3.88038e-05 0.00703339 0.0050268 0.00311217 
84 18.565 15.7101 1.42787 0.00079818 -0.000600997 -0.000250899 0.00878686 0.00391173 0.00272622 
85 0.00533603 17.1383 0.0037217 0.0017389 -0.000183469 -0.000357723 0.00665447 0.00260847 0.00264663 
86 1.43181 18.5614 1.42781 0.00042672 0.000632719 -0.000128541 0.00483557 0.0028788 0.00344931 