LAMMPS data file. CGCMM Style. atom_style full. Created by charmm2lammps v1.9.1 on Sun Jan 28 05:50:21 EST 2018

        2833  atoms
        2177  bonds
        2209  angles
        2707  dihedrals
         137  impropers
          54  crossterms

          30  atom types
          49  bond types
         115  angle types
         266  dihedral types
          10  improper types

  -20.841346    23.496346 xlo xhi
  -14.589231    14.969231 ylo yhi
  -13.805026    10.827026 zlo zhi

Masses

       1      1.008  # H
       2      1.008  # HC
       3      1.008  # HP
       4      1.008  # HB1
       5      1.008  # HB2
       6      1.008  # HA1
       7      1.008  # HA2
       8      1.008  # HA3
       9     12.011  # C
      10     12.011  # CA
      11     12.011  # CT1
      12     12.011  # CT2
      13     12.011  # CT2A
      14     12.011  # CT3
      15     12.011  # CPT
      16     12.011  # CY
      17     12.011  # CC
      18     12.011  # CAI
      19     14.007  # NH1
      20     14.007  # NH2
      21     14.007  # NH3
      22     14.007  # NY
      23     15.999  # O
      24     15.999  # OC
      25     15.999  # OH1
      26      32.06  # S
      27      1.008  # HT
      28    15.9994  # OT
      29      35.45  # CLA
      30   22.98977  # SOD

Pair Coeffs # lj/charmm/coul/long

       1            0.046   0.400013524445            0.046   0.400013524445  # H
       2            0.046   0.400013524445            0.046   0.400013524445  # HC
       3             0.03    2.42003727796             0.03    2.42003727796  # HP
       4            0.022    2.35197261589            0.022    2.35197261589  # HB1
       5            0.028    2.38760856462            0.028    2.38760856462  # HB2
       6            0.045    2.38760856462            0.045    2.38760856462  # HA1
       7            0.034    2.38760856462            0.034    2.38760856462  # HA2
       8            0.024    2.38760856462            0.024    2.38760856462  # HA3
       9             0.11    3.56359487256             0.11    3.56359487256  # C
      10             0.07    3.55005321205             0.07    3.55005321205  # CA
      11            0.032    3.56359487256             0.01    3.38541512893  # CT1
      12            0.056    3.58141284692             0.01    3.38541512893  # CT2
      13            0.056    3.58141284692             0.01    3.38541512893  # CT2A
      14            0.078    3.63486677001             0.01    3.38541512893  # CT3
      15            0.099    3.31414323148            0.099    3.31414323148  # CPT
      16            0.073     3.5457768982            0.073     3.5457768982  # CY
      17             0.07    3.56359487256             0.07    3.56359487256  # CC
      18            0.073     3.5457768982            0.073     3.5457768982  # CAI
      19              0.2    3.29632525712              0.2    2.76178602624  # NH1
      20              0.2    3.29632525712              0.2    3.29632525712  # NH2
      21              0.2    3.29632525712              0.2    3.29632525712  # NH3
      22              0.2    3.29632525712              0.2    3.29632525712  # NY
      23             0.12    3.02905564168             0.12    2.49451641079  # O
      24             0.12    3.02905564168             0.12    3.02905564168  # OC
      25           0.1521    3.15378146222           0.1521    3.15378146222  # OH1
      26             0.45    3.56359487256             0.45    3.56359487256  # S
      27            0.046   0.400013524445            0.046   0.400013524445  # HT
      28           0.1521    3.15057422683           0.1521    3.15057422683  # OT
      29             0.15    4.04468018036             0.15    4.04468018036  # CLA
      30           0.0469    2.42992625373           0.0469    2.42992625373  # SOD

Atoms # full

       1       1    21      -0.3          -14.136            1.321            3.616  # NH3
       2       1     2      0.33          -14.508            1.808            4.456  # HC
       3       1     2      0.33           -14.92            1.092            2.972  # HC
       4       1     2      0.33          -13.457             1.94            3.129  # HC
       5       1    11      0.21          -13.451            0.063            4.032  # CT1
       6       1     4       0.1          -13.936           -0.296            4.928  # HB1
       7       1    12     -0.18          -13.532           -0.987            2.924  # CT2
       8       1     7      0.09          -13.322           -1.993            3.346  # HA2
       9       1     7      0.09          -12.778           -0.762            2.139  # HA2
      10       1    12     -0.14          -14.934           -0.967            2.313  # CT2
      11       1     7      0.09           -15.64           -0.688            3.121  # HA2
      12       1     7      0.09          -15.164           -2.002            1.987  # HA2
      13       1    26     -0.09          -15.215            0.142            0.911  # S
      14       1    14     -0.22          -17.024             0.09            0.941  # CT3
      15       1     8      0.09          -17.422            0.459             1.91  # HA3
      16       1     8      0.09           -17.38           -0.952            0.798  # HA3
      17       1     8      0.09           -17.44             0.73            0.134  # HA3
      18       1     9      0.51          -11.981             0.36            4.336  # C
      19       1    23     -0.51          -11.557            1.499            4.315  # O
      20       2    19     -0.47          -11.236           -0.674            4.615  # NH1
      21       2     1      0.31          -11.585           -1.608            4.637  # H
      22       2    11      0.07           -9.789            -0.48             4.92  # CT1
      23       2     4      0.09           -9.471            0.458            4.489  # HB1
      24       2    11      0.14           -9.596           -0.471            6.438  # CT1
      25       2     6      0.09           -9.784           -1.477             6.87  # HA1
      26       2    25     -0.66          -10.561             0.46            6.921  # OH1
      27       2     1      0.43          -10.262            0.722            7.795  # H
      28       2    14     -0.27           -8.242            0.113            6.829  # CT3
      29       2     8      0.09           -8.282            1.223              6.8  # HA3
      30       2     8      0.09           -7.461           -0.233            6.118  # HA3
      31       2     8      0.09           -7.976           -0.205             7.86  # HA3
      32       2     9      0.51           -8.972           -1.621            4.305  # C
      33       2    23     -0.51           -9.232           -2.779            4.565  # O
      34       3    19     -0.47           -7.999           -1.268            3.504  # NH1
      35       3     1      0.31           -7.779           -0.318            3.295  # H
      36       3    11      0.07           -7.158           -2.327            2.856  # CT1
      37       3     4      0.09           -7.689           -3.266            2.911  # HB1
      38       3    12     -0.18           -6.895           -1.941            1.399  # CT2
      39       3     7      0.09           -6.626            -2.84            0.804  # HA2
      40       3     7      0.09           -6.081           -1.187            1.341  # HA2
      41       3    10         0           -8.164           -1.328              0.8  # CA
      42       3    10    -0.115           -8.527            -0.03            1.101  # CA
      43       3     3     0.115           -7.911            0.559            1.764  # HP
      44       3    10    -0.115           -9.672             0.52             0.56  # CA
      45       3     3     0.115           -9.945            1.536            0.803  # HP
      46       3    10      0.11           -10.47           -0.218           -0.288  # CA
      47       3    25     -0.54          -11.615            0.333           -0.828  # OH1
      48       3     1      0.43          -11.943           -0.266           -1.503  # H
      49       3    10    -0.115           -8.963           -2.065           -0.048  # CA
      50       3     3     0.115           -8.691           -3.081           -0.292  # HP
      51       3    10    -0.115          -10.108           -1.514           -0.588  # CA
      52       3     3     0.115          -10.725           -2.103           -1.251  # HP
      53       3     9      0.51           -5.826           -2.467            3.602  # C
      54       3    23     -0.51           -5.392           -1.551            4.271  # O
      55       4    19     -0.47           -5.205           -3.613            3.467  # NH1
      56       4     1      0.31           -5.555           -4.362             2.91  # H
      57       4    11      0.07           -3.902           -3.836            4.174  # CT1
      58       4     4      0.09           -3.795           -3.084            4.942  # HB1
      59       4    12     -0.18           -3.908            -5.24            4.786  # CT2
      60       4     7      0.09           -3.485           -5.965            4.058  # HA2
      61       4     7      0.09           -4.952           -5.537            5.023  # HA2
      62       4    12     -0.18           -3.065           -5.252            6.072  # CT2
      63       4     7      0.09           -3.715            -5.03            6.945  # HA2
      64       4     7      0.09           -2.274           -4.475            6.006  # HA2
      65       4    12     -0.18           -2.417           -6.631            6.251  # CT2
      66       4     7      0.09           -1.776           -6.627            7.159  # HA2
      67       4     7      0.09           -1.785           -6.864            5.367  # HA2
      68       4    12      0.21           -3.508           -7.695            6.397  # CT2
      69       4     7      0.05           -4.495           -7.209            6.553  # HA2
      70       4     7      0.05           -3.273           -8.366            7.251  # HA2
      71       4    21      -0.3           -3.593           -8.527            5.165  # NH3
      72       4     2      0.33           -2.643           -8.862            4.906  # HC
      73       4     2      0.33           -3.983           -7.957            4.388  # HC
      74       4     2      0.33           -4.213           -9.344             5.34  # HC
      75       4     9      0.51           -2.738           -3.736            3.185  # C
      76       4    23     -0.51           -2.705           -4.433            2.202  # O
      77       5    19     -0.47           -1.799           -2.885            3.475  # NH1
      78       5     1      0.31           -1.804           -2.315            4.293  # H
      79       5    11      0.07           -0.643           -2.743             2.54  # CT1
      80       5     4      0.09           -0.978            -2.98            1.541  # HB1
      81       5    12     -0.18           -0.118           -1.282            2.613  # CT2
      82       5     7      0.09           -0.206           -0.921             3.66  # HA2
      83       5     7      0.09           -0.747           -0.642            1.958  # HA2
      84       5    11     -0.09            1.371           -1.158             2.16  # CT1
      85       5     6      0.09            2.007           -1.789            2.817  # HA1
      86       5    14     -0.27            1.545           -1.612              0.7  # CT3
      87       5     8      0.09            1.588           -0.728            0.028  # HA3
      88       5     8      0.09            0.685           -2.247            0.396  # HA3
      89       5     8      0.09             2.49           -2.186            0.593  # HA3
      90       5    14     -0.27            1.783            0.314            2.258  # CT3
      91       5     8      0.09            1.678            0.671            3.305  # HA3
      92       5     8      0.09            1.131            0.933            1.605  # HA3
      93       5     8      0.09            2.843            0.431            1.948  # HA3
      94       5     9      0.51             0.47           -3.722            2.927  # C
      95       5    23     -0.51            0.621           -4.067            4.083  # O
      96       6    19     -0.47            1.219           -4.142            1.941  # NH1
      97       6     1      0.31            1.069           -3.868            0.994  # H
      98       6    11      0.07            2.351           -5.066            2.198  # CT1
      99       6     4      0.09            2.487           -5.148            3.266  # HB1
     100       6    11     -0.09            2.044           -6.433            1.589  # CT1
     101       6     6      0.09            1.757           -6.312            0.523  # HA1
     102       6    14     -0.27            3.288           -7.319            1.691  # CT3
     103       6     8      0.09            3.685           -7.302            2.729  # HA3
     104       6     8      0.09            4.076           -6.944            1.004  # HA3
     105       6     8      0.09            3.029           -8.367            1.427  # HA3
     106       6    12     -0.18            0.893           -7.076            2.368  # CT2
     107       6     7      0.09            0.164           -6.294            2.672  # HA2
     108       6     7      0.09            1.289           -7.571             3.28  # HA2
     109       6    14     -0.27            0.199            -8.11            1.481  # CT3
     110       6     8      0.09            0.953           -8.676            0.892  # HA3
     111       6     8      0.09           -0.492             -7.6            0.776  # HA3
     112       6     8      0.09            -0.37           -8.827             2.11  # HA3
     113       6     9      0.51             3.62           -4.487            1.568  # C
     114       6    23     -0.51             3.82           -4.572            0.372  # O
     115       7    19     -0.47             4.45           -3.906            2.389  # NH1
     116       7     1      0.31            4.294           -3.848            3.372  # H
     117       7    11      0.07            5.702            -3.29            1.859  # CT1
     118       7     4      0.09            5.477           -2.811            0.917  # HB1
     119       7    12     -0.18            6.218           -2.272            2.874  # CT2
     120       7     7      0.09            7.241           -1.945             2.59  # HA2
     121       7     7      0.09            6.257           -2.735            3.883  # HA2
     122       7    11     -0.09            5.277           -1.067            2.894  # CT1
     123       7     6      0.09            4.323           -1.329            2.388  # HA1
     124       7    14     -0.27            4.999           -0.668            4.344  # CT3
     125       7     8      0.09            5.948             -0.4            4.855  # HA3
     126       7     8      0.09            4.531           -1.517            4.887  # HA3
     127       7     8      0.09            4.321            0.212            4.371  # HA3
     128       7    14     -0.27            5.942            0.104             2.17  # CT3
     129       7     8      0.09            6.161           -0.173            1.117  # HA3
     130       7     8      0.09            6.897            0.367            2.673  # HA3
     131       7     8      0.09            5.264            0.984            2.172  # HA3
     132       7     9      0.51            6.776           -4.348            1.607  # C
     133       7    23     -0.51             7.26           -4.974            2.528  # O
     134       8    19     -0.47            7.121           -4.526            0.354  # NH1
     135       8     1      0.31            6.708           -4.023           -0.401  # H
     136       8    11      0.07            8.174           -5.517            0.012  # CT1
     137       8     4      0.09            8.344           -6.151             0.87  # HB1
     138       8    12     -0.18            7.688           -6.338           -1.187  # CT2
     139       8     7      0.09            8.494           -6.405           -1.948  # HA2
     140       8     7      0.09            6.799           -5.851            -1.64  # HA2
     141       8    17      0.55            7.314           -7.738           -0.726  # CC
     142       8    23     -0.55            8.059             -8.4            -0.03  # O
     143       8    20     -0.62            6.167           -8.225           -1.096  # NH2
     144       8     1      0.32            5.897           -9.143           -0.807  # H
     145       8     1       0.3            5.555           -7.681            -1.67  # H
     146       8     9      0.51            9.476           -4.775           -0.333  # C
     147       8    23     -0.51           10.211           -5.157           -1.223  # O
     148       9    19     -0.47             9.74           -3.732              0.4  # NH1
     149       9     1      0.31            9.158           -3.426            1.149  # H
     150       9    12     -0.02           10.969           -2.943            0.122  # CT2
     151       9     5      0.09           11.031           -2.141            0.843  # HB2
     152       9     5      0.09           10.898            -2.54           -0.878  # HB2
     153       9     9      0.51           12.207           -3.827            0.231  # C
     154       9    23     -0.51           12.302           -4.667            1.104  # O
     155      10    19     -0.47           13.133           -3.614           -0.658  # NH1
     156      10     1      0.31           13.058           -2.921           -1.371  # H
     157      10    11      0.07           14.377           -4.434            -0.63  # CT1
     158      10     4      0.09           14.098           -5.475           -0.563  # HB1
     159      10    12     -0.18           15.182           -4.173           -1.902  # CT2
     160      10     7      0.09           15.442           -3.095           -1.967  # HA2
     161      10     7      0.09           14.578            -4.45           -2.792  # HA2
     162      10    12     -0.18           16.461           -5.011           -1.865  # CT2
     163      10     7      0.09           16.245           -6.005           -1.418  # HA2
     164      10     7      0.09           17.227           -4.498           -1.245  # HA2
     165      10    12     -0.18           16.986            -5.19           -3.291  # CT2
     166      10     7      0.09           16.635            -4.35           -3.928  # HA2
     167      10     7      0.09           16.605           -6.144           -3.714  # HA2
     168      10    12      0.21           18.516           -5.212           -3.263  # CT2
     169      10     7      0.05           18.906           -5.708           -4.177  # HA2
     170      10     7      0.05           18.872           -5.746           -2.357  # HA2
     171      10    21      -0.3           19.056           -3.825           -3.224  # NH3
     172      10     2      0.33           18.709           -3.341           -2.371  # HC
     173      10     2      0.33           18.741           -3.306           -4.069  # HC
     174      10     2      0.33           20.095           -3.858           -3.206  # HC
     175      10     9      0.51           15.211           -4.054             0.59  # C
     176      10    23     -0.51           15.959           -4.858            1.112  # O
     177      11    19     -0.47           15.059            -2.83            1.017  # NH1
     178      11     1      0.31           14.445           -2.175            0.583  # H
     179      11    11      0.07           15.822           -2.358            2.202  # CT1
     180      11     4      0.09           16.616           -3.063            2.401  # HB1
     181      11    11      0.14           16.392            -0.97            1.905  # CT1
     182      11     6      0.09           16.464           -0.361            2.831  # HA1
     183      11    25     -0.66           15.462           -0.382            1.001  # OH1
     184      11     1      0.43           15.713            0.541            0.926  # H
     185      11    14     -0.27           17.707           -1.056            1.134  # CT3
     186      11     8      0.09           17.549           -1.578            0.166  # HA3
     187      11     8      0.09           18.456           -1.625            1.725  # HA3
     188      11     8      0.09           18.092           -0.034            0.927  # HA3
     189      11     9      0.51           14.901           -2.278            3.423  # C
     190      11    23     -0.51           15.353           -2.035            4.524  # O
     191      12    19     -0.47           13.626           -2.483            3.207  # NH1
     192      12     1      0.31           13.244           -2.687            2.309  # H
     193      12    11      0.07            12.68           -2.409            4.364  # CT1
     194      12     4      0.09           13.117           -2.937            5.199  # HB1
     195      12    12     -0.18           12.445           -0.938            4.715  # CT2
     196      12     7      0.09           11.828            -0.46            3.924  # HA2
     197      12     7      0.09            13.42            -0.41            4.777  # HA2
     198      12    11     -0.09           11.718           -0.839            6.066  # CT1
     199      12     6      0.09           10.802           -1.467             6.04  # HA1
     200      12    14     -0.27           12.639           -1.322            7.198  # CT3
     201      12     8      0.09           13.628           -0.821            7.126  # HA3
     202      12     8      0.09           12.791            -2.42            7.119  # HA3
     203      12     8      0.09           12.188           -1.077            8.183  # HA3
     204      12    14     -0.27           11.335            0.619            6.322  # CT3
     205      12     8      0.09           10.664            0.985            5.515  # HA3
     206      12     8      0.09           12.248            1.252            6.339  # HA3
     207      12     8      0.09           10.802            0.705            7.293  # HA3
     208      12     9      0.51           11.338           -3.072            4.024  # C
     209      12    23     -0.51           10.709           -2.737            3.041  # O
     210      13    19     -0.47           10.929           -3.996            4.859  # NH1
     211      13     1      0.31           11.448           -4.268            5.666  # H
     212      13    11      0.07            9.626           -4.695            4.619  # CT1
     213      13     4      0.09            9.208           -4.328            3.693  # HB1
     214      13    12     -0.18            9.869           -6.202            4.541  # CT2
     215      13     7      0.09            8.913           -6.724            4.322  # HA2
     216      13     7      0.09           10.263           -6.568            5.513  # HA2
     217      13    12     -0.18           10.882           -6.493            3.431  # CT2
     218      13     7      0.09           11.321            -5.54            3.064  # HA2
     219      13     7      0.09           10.375           -7.003            2.585  # HA2
     220      13    12     -0.18           11.989           -7.391            3.987  # CT2
     221      13     7      0.09            11.55           -8.343            4.356  # HA2
     222      13     7      0.09           12.498            -6.88            4.832  # HA2
     223      13    12      0.21           13.001           -7.685            2.877  # CT2
     224      13     7      0.05            12.47           -7.896            1.924  # HA2
     225      13     7      0.05           13.636           -8.552             3.16  # HA2
     226      13    21      -0.3           13.892           -6.511             2.66  # NH3
     227      13     2      0.33           14.276           -6.193            3.573  # HC
     228      13     2      0.33           13.348           -5.739            2.225  # HC
     229      13     2      0.33           14.674           -6.781             2.03  # HC
     230      13     9      0.51            8.653           -4.391            5.765  # C
     231      13    23     -0.51             9.03           -4.407            6.921  # O
     232      14    19     -0.47            7.422           -4.123            5.423  # NH1
     233      14     1      0.31            7.105           -4.114            4.478  # H
     234      14    12     -0.02            6.422           -3.811            6.484  # CT2
     235      14     5      0.09            6.543           -2.777            6.773  # HB2
     236      14     5      0.09            6.608           -4.458            7.328  # HB2
     237      14     9      0.51            4.996           -4.035            5.973  # C
     238      14    23     -0.51            4.784           -4.706            4.983  # O
     239      15    19     -0.47            4.048           -3.464            6.666  # NH1
     240      15     1      0.31            4.225            -2.91            7.476  # H
     241      15    11      0.07            2.628           -3.627            6.257  # CT1
     242      15     4      0.09            2.525            -3.28            5.239  # HB1
     243      15    13     -0.18            2.236           -5.102            6.367  # CT2A
     244      15     7      0.09            2.641           -5.663            5.497  # HA2
     245      15     7      0.09            1.129           -5.196            6.371  # HA2
     246      15    12     -0.28            2.806            -5.68            7.663  # CT2
     247      15     7      0.09            3.031           -4.858            8.375  # HA2
     248      15     7      0.09             3.74           -6.241            7.447  # HA2
     249      15    17      0.62            1.779           -6.626            8.288  # CC
     250      15    24     -0.76            1.486           -7.614            7.636  # OC
     251      15    24     -0.76            1.345           -6.306            9.382  # OC
     252      15     9      0.51            1.734           -2.783            7.176  # C
     253      15    23     -0.51            1.858           -2.839            8.383  # O
     254      16    19     -0.47            0.856            -2.02            6.592  # NH1
     255      16     1      0.31            0.744           -1.968            5.603  # H
     256      16    11      0.07           -0.041           -1.168            7.434  # CT1
     257      16     4      0.09           -0.175           -1.653            8.389  # HB1
     258      16    11      0.14            0.599            0.212            7.613  # CT1
     259      16     6      0.09            1.644            0.123            7.979  # HA1
     260      16    25     -0.66            -0.21            0.863            8.588  # OH1
     261      16     1      0.43            0.176            1.733            8.714  # H
     262      16    14     -0.27            0.471            1.058             6.35  # CT3
     263      16     8      0.09           -0.588            1.357            6.196  # HA3
     264      16     8      0.09            0.806            0.473            5.467  # HA3
     265      16     8      0.09            1.088            1.977            6.446  # HA3
     266      16     9      0.51            -1.41           -1.021            6.767  # C
     267      16    23     -0.51           -1.527           -1.123            5.565  # O
     268      17    19     -0.47           -2.416           -0.778            7.567  # NH1
     269      17     1      0.31           -2.318            -0.68            8.554  # H
     270      17    11      0.07           -3.792           -0.636            6.999  # CT1
     271      17     4      0.09           -3.785           -1.015            5.988  # HB1
     272      17    11      0.14           -4.777           -1.426            7.866  # CT1
     273      17     6      0.09           -5.713           -1.644             7.31  # HA1
     274      17    25     -0.66            -5.05           -0.572            8.973  # OH1
     275      17     1      0.43           -4.665            0.279            8.752  # H
     276      17    14     -0.27           -4.128           -2.668            8.474  # CT3
     277      17     8      0.09           -3.389           -2.372            9.249  # HA3
     278      17     8      0.09           -3.602           -3.245            7.684  # HA3
     279      17     8      0.09           -4.904           -3.306            8.949  # HA3
     280      17     9      0.51           -4.211            0.834            6.971  # C
     281      17    23     -0.51           -3.964             1.57            7.907  # O
     282      18    19     -0.47           -4.838            1.226             5.89  # NH1
     283      18     1      0.31           -5.032            0.618            5.124  # H
     284      18    11      0.07           -5.298            2.643            5.765  # CT1
     285      18     4      0.09           -5.145            3.137            6.713  # HB1
     286      18    11      0.14           -4.495            3.335            4.659  # CT1
     287      18     6      0.09           -3.425            3.041            4.699  # HA1
     288      18    25     -0.66           -4.633            4.727            4.928  # OH1
     289      18     1      0.43           -4.135            5.179            4.243  # H