
# =========================================================================
# LAMMPS file for 'read_data' command                                      
# 
# Generated by selm python scripts by Paul J. Atzberger.
# 
# =========================================================================

# =========================================================================
# Description:
# -------------------------------------------------------------------------
# 
# SELM_Lagrangian = SELM_Lagrangian_LAMMPS_ATOM_ANGLE_STYLE
# LagrangianName = Points
# LagrangianTypeStr = LAMMPS_ATOM_ANGLE_STYLE
# 
# SELM_Eulerian   = SELM_Eulerian_LAMMPS_SHEAR_UNIFORM1_FFTW3
#
# atom_type = angle_type
#
# =========================================================================

# =========================================================================
# Header information:
# -------------------------------------------------------------------------
1431 atoms
100 bonds
100 angles

2 atom types
1 bond types
1 angle types
# =========================================================================

# =========================================================================
# Domain Size Specification:
# -------------------------------------------------------------------------
-202 202 xlo xhi
-202 202 ylo yhi
-202 202 zlo zhi
0.0 0.0 0.0 xy xz yz
# =========================================================================

# =========================================================================
# Mass Specification:
#
# Gives for each atom the following:
#    type-ID | mass
# -------------------------------------------------------------------------
# Atom Location Specification:
#
# Gives for atom angle_type the following:
#    atom-ID | molecule-ID | type-ID | x | y | z
# -------------------------------------------------------------------------
# Bond Specification:
#
# Gives for atom angle_type the following:
#    bond-ID | type-ID | atom1-ID | atom2-ID
# -------------------------------------------------------------------------
# Angle Specification:
#
# Gives for atom angle_type the following:
#    angle-ID | type-ID | atom1-ID | atom2-ID | atom3-ID
# -------------------------------------------------------------------------
# WARNING: atom-ID, type-ID, molecule-ID must be between 1 - N             
# -------------------------------------------------------------------------

Masses

1 1.1230000
2 1.1230000

Atoms

1 1 1 120.0000000 0.0000000 0.0000000
2 1 1 117.5646450 22.4266554 19.8951910
3 1 1 110.4047528 43.7123339 38.5402939
4 1 1 98.9476841 62.7941098 54.7637685
5 1 1 83.8694933 78.7586965 67.5462340
6 1 1 66.0439505 90.9016994 76.0845213
7 1 1 46.4775332 98.7697856 79.8421383
8 1 1 26.2360270 102.1825786 78.5829801
9 1 1 6.3690353 101.2329168 72.3861642
10 1 1 -12.1612305 96.2660519 61.6410594
11 1 1 -28.5410197 87.8402263 47.0228202
12 1 1 -42.1511594 76.6726743 29.4499642
13 1 1 -52.5948865 63.5762965 10.0266587
14 1 1 -59.7058223 49.3929518 -10.0266587
15 1 1 -63.5363945 34.9294285 -29.4499642
16 1 1 -64.3288163 20.9016994 -47.0228202
17 1 1 -62.4723003 7.8920869 -61.6410594
18 1 1 -58.4513597 -3.6774478 -72.3861642
19 1 1 -52.7907272 -13.5543550 -78.5829801
20 1 1 -46.0025428 -21.6471535 -79.8421383
21 1 1 -38.5410197 -28.0016899 -76.0845213
22 1 1 -30.7688404 -32.7654871 -67.5462340
23 1 1 -22.9381774 -36.1447840 -54.7637685
24 1 1 -15.1875945 -38.3594850 -38.5402939
25 1 1 -7.5543549 -39.6013152 -19.8951910
26 1 1 0.0000000 -40.0000000 0.0000000
27 1 1 7.5543549 -39.6013152 19.8951910
28 1 1 15.1875945 -38.3594850 38.5402939
29 1 1 22.9381774 -36.1447840 54.7637685
30 1 1 30.7688404 -32.7654871 67.5462340
31 1 1 38.5410197 -28.0016899 76.0845213
32 1 1 46.0025428 -21.6471535 79.8421383
33 1 1 52.7907272 -13.5543550 78.5829801
34 1 1 58.4513597 -3.6774478 72.3861642
35 1 1 62.4723003 7.8920869 61.6410594
36 1 1 64.3288163 20.9016994 47.0228202
37 1 1 63.5363945 34.9294285 29.4499642
38 1 1 59.7058223 49.3929518 10.0266587
39 1 1 52.5948865 63.5762965 -10.0266587
40 1 1 42.1511594 76.6726743 -29.4499642
41 1 1 28.5410197 87.8402263 -47.0228202
42 1 1 12.1612305 96.2660519 -61.6410594
43 1 1 -6.3690353 101.2329168 -72.3861642
44 1 1 -26.2360270 102.1825786 -78.5829801
45 1 1 -46.4775332 98.7697856 -79.8421383
46 1 1 -66.0439505 90.9016994 -76.0845213
47 1 1 -83.8694933 78.7586965 -67.5462340
48 1 1 -98.9476841 62.7941098 -54.7637685
49 1 1 -110.4047528 43.7123339 -38.5402939
50 1 1 -117.5646450 22.4266554 -19.8951910
51 1 1 -120.0000000 -0.0000000 0.0000000
52 1 1 -117.5646450 -22.4266554 19.8951910
53 1 1 -110.4047528 -43.7123339 38.5402939
54 1 1 -98.9476841 -62.7941098 54.7637685
55 1 1 -83.8694933 -78.7586965 67.5462340
56 1 1 -66.0439505 -90.9016994 76.0845213
57 1 1 -46.4775332 -98.7697856 79.8421383
58 1 1 -26.2360270 -102.1825786 78.5829801
59 1 1 -6.3690353 -101.2329168 72.3861642
60 1 1 12.1612305 -96.2660519 61.6410594
61 1 1 28.5410197 -87.8402263 47.0228202
62 1 1 42.1511594 -76.6726743 29.4499642
63 1 1 52.5948865 -63.5762965 10.0266587
64 1 1 59.7058223 -49.3929518 -10.0266587
65 1 1 63.5363945 -34.9294285 -29.4499642
66 1 1 64.3288163 -20.9016994 -47.0228202
67 1 1 62.4723003 -7.8920869 -61.6410594
68 1 1 58.4513597 3.6774478 -72.3861642
69 1 1 52.7907272 13.5543550 -78.5829801
70 1 1 46.0025428 21.6471535 -79.8421383
71 1 1 38.5410197 28.0016899 -76.0845213
72 1 1 30.7688404 32.7654871 -67.5462340
73 1 1 22.9381774 36.1447840 -54.7637685
74 1 1 15.1875945 38.3594850 -38.5402939
75 1 1 7.5543549 39.6013152 -19.8951910
76 1 1 0.0000000 40.0000000 -0.0000000
77 1 1 -7.5543549 39.6013152 19.8951910
78 1 1 -15.1875945 38.3594850 38.5402939
79 1 1 -22.9381774 36.1447840 54.7637685
80 1 1 -30.7688404 32.7654871 67.5462340
81 1 1 -38.5410197 28.0016899 76.0845213
82 1 1 -46.0025428 21.6471535 79.8421383
83 1 1 -52.7907272 13.5543550 78.5829801
84 1 1 -58.4513597 3.6774478 72.3861642
85 1 1 -62.4723003 -7.8920869 61.6410594
86 1 1 -64.3288163 -20.9016994 47.0228202
87 1 1 -63.5363945 -34.9294285 29.4499642
88 1 1 -59.7058223 -49.3929518 10.0266587
89 1 1 -52.5948865 -63.5762965 -10.0266587
90 1 1 -42.1511594 -76.6726743 -29.4499642
91 1 1 -28.5410197 -87.8402263 -47.0228202
92 1 1 -12.1612305 -96.2660519 -61.6410594
93 1 1 6.3690353 -101.2329168 -72.3861642
94 1 1 26.2360270 -102.1825786 -78.5829801
95 1 1 46.4775332 -98.7697856 -79.8421383
96 1 1 66.0439505 -90.9016994 -76.0845213
97 1 1 83.8694933 -78.7586965 -67.5462340
98 1 1 98.9476841 -62.7941098 -54.7637685
99 1 1 110.4047528 -43.7123339 -38.5402939
100 1 1 117.5646450 -22.4266554 -19.8951910
101 2 2 -184.0909091 -184.0909091 -184.0909091
102 2 2 -184.0909091 -184.0909091 -147.2727273
103 2 2 -184.0909091 -184.0909091 -110.4545455
104 2 2 -184.0909091 -184.0909091 -73.6363636
105 2 2 -184.0909091 -184.0909091 -36.8181818
106 2 2 -184.0909091 -184.0909091 0.0000000
107 2 2 -184.0909091 -184.0909091 36.8181818
108 2 2 -184.0909091 -184.0909091 73.6363636
109 2 2 -184.0909091 -184.0909091 110.4545455
110 2 2 -184.0909091 -184.0909091 147.2727273
111 2 2 -184.0909091 -184.0909091 184.0909091
112 2 2 -147.2727273 -184.0909091 -184.0909091
113 2 2 -147.2727273 -184.0909091 -147.2727273
114 2 2 -147.2727273 -184.0909091 -110.4545455
115 2 2 -147.2727273 -184.0909091 -73.6363636
116 2 2 -147.2727273 -184.0909091 -36.8181818
117 2 2 -147.2727273 -184.0909091 0.0000000
118 2 2 -147.2727273 -184.0909091 36.8181818
119 2 2 -147.2727273 -184.0909091 73.6363636
120 2 2 -147.2727273 -184.0909091 110.4545455
121 2 2 -147.2727273 -184.0909091 147.2727273
122 2 2 -147.2727273 -184.0909091 184.0909091
123 2 2 -110.4545455 -184.0909091 -184.0909091
124 2 2 -110.4545455 -184.0909091 -147.2727273
125 2 2 -110.4545455 -184.0909091 -110.4545455
126 2 2 -110.4545455 -184.0909091 -73.6363636
127 2 2 -110.4545455 -184.0909091 -36.8181818
128 2 2 -110.4545455 -184.0909091 0.0000000
129 2 2 -110.4545455 -184.0909091 36.8181818
130 2 2 -110.4545455 -184.0909091 73.6363636
131 2 2 -110.4545455 -184.0909091 110.4545455
132 2 2 -110.4545455 -184.0909091 147.2727273
133 2 2 -110.4545455 -184.0909091 184.0909091
134 2 2 -73.6363636 -184.0909091 -184.0909091
135 2 2 -73.6363636 -184.0909091 -147.2727273
136 2 2 -73.6363636 -184.0909091 -110.4545455
137 2 2 -73.6363636 -184.0909091 -73.6363636
138 2 2 -73.6363636 -184.0909091 -36.8181818
139 2 2 -73.6363636 -184.0909091 0.0000000
140 2 2 -73.6363636 -184.0909091 36.8181818
141 2 2 -73.6363636 -184.0909091 73.6363636
142 2 2 -73.6363636 -184.0909091 110.4545455
143 2 2 -73.6363636 -184.0909091 147.2727273
144 2 2 -73.6363636 -184.0909091 184.0909091
145 2 2 -36.8181818 -184.0909091 -184.0909091
146 2 2 -36.8181818 -184.0909091 -147.2727273
147 2 2 -36.8181818 -184.0909091 -110.4545455
148 2 2 -36.8181818 -184.0909091 -73.6363636
149 2 2 -36.8181818 -184.0909091 -36.8181818
150 2 2 -36.8181818 -184.0909091 0.0000000
151 2 2 -36.8181818 -184.0909091 36.8181818
152 2 2 -36.8181818 -184.0909091 73.6363636
153 2 2 -36.8181818 -184.0909091 110.4545455
154 2 2 -36.8181818 -184.0909091 147.2727273
155 2 2 -36.8181818 -184.0909091 184.0909091
156 2 2 0.0000000 -184.0909091 -184.0909091
157 2 2 0.0000000 -184.0909091 -147.2727273
158 2 2 0.0000000 -184.0909091 -110.4545455
159 2 2 0.0000000 -184.0909091 -73.6363636
160 2 2 0.0000000 -184.0909091 -36.8181818
161 2 2 0.0000000 -184.0909091 0.0000000
162 2 2 0.0000000 -184.0909091 36.8181818
163 2 2 0.0000000 -184.0909091 73.6363636
164 2 2 0.0000000 -184.0909091 110.4545455
165 2 2 0.0000000 -184.0909091 147.2727273
166 2 2 0.0000000 -184.0909091 184.0909091
167 2 2 36.8181818 -184.0909091 -184.0909091
168 2 2 36.8181818 -184.0909091 -147.2727273
169 2 2 36.8181818 -184.0909091 -110.4545455
170 2 2 36.8181818 -184.0909091 -73.6363636
171 2 2 36.8181818 -184.0909091 -36.8181818
172 2 2 36.8181818 -184.0909091 0.0000000
173 2 2 36.8181818 -184.0909091 36.8181818
174 2 2 36.8181818 -184.0909091 73.6363636
175 2 2 36.8181818 -184.0909091 110.4545455
176 2 2 36.8181818 -184.0909091 147.2727273
177 2 2 36.8181818 -184.0909091 184.0909091
178 2 2 73.6363636 -184.0909091 -184.0909091
179 2 2 73.6363636 -184.0909091 -147.2727273
180 2 2 73.6363636 -184.0909091 -110.4545455
181 2 2 73.6363636 -184.0909091 -73.6363636
182 2 2 73.6363636 -184.0909091 -36.8181818
183 2 2 73.6363636 -184.0909091 0.0000000
184 2 2 73.6363636 -184.0909091 36.8181818
185 2 2 73.6363636 -184.0909091 73.6363636
186 2 2 73.6363636 -184.0909091 110.4545455
187 2 2 73.6363636 -184.0909091 147.2727273
188 2 2 73.6363636 -184.0909091 184.0909091
189 2 2 110.4545455 -184.0909091 -184.0909091
190 2 2 110.4545455 -184.0909091 -147.2727273
191 2 2 110.4545455 -184.0909091 -110.4545455
192 2 2 110.4545455 -184.0909091 -73.6363636
193 2 2 110.4545455 -184.0909091 -36.8181818
194 2 2 110.4545455 -184.0909091 0.0000000
195 2 2 110.4545455 -184.0909091 36.8181818
196 2 2 110.4545455 -184.0909091 73.6363636
197 2 2 110.4545455 -184.0909091 110.4545455
198 2 2 110.4545455 -184.0909091 147.2727273
199 2 2 110.4545455 -184.0909091 184.0909091
200 2 2 147.2727273 -184.0909091 -184.0909091
201 2 2 147.2727273 -184.0909091 -147.2727273
202 2 2 147.2727273 -184.0909091 -110.4545455
203 2 2 147.2727273 -184.0909091 -73.6363636
204 2 2 147.2727273 -184.0909091 -36.8181818
205 2 2 147.2727273 -184.0909091 0.0000000
206 2 2 147.2727273 -184.0909091 36.8181818
207 2 2 147.2727273 -184.0909091 73.6363636
208 2 2 147.2727273 -184.0909091 110.4545455
209 2 2 147.2727273 -184.0909091 147.2727273
210 2 2 147.2727273 -184.0909091 184.0909091
211 2 2 184.0909091 -184.0909091 -184.0909091
212 2 2 184.0909091 -184.0909091 -147.2727273
213 2 2 184.0909091 -184.0909091 -110.4545455
214 2 2 184.0909091 -184.0909091 -73.6363636
215 2 2 184.0909091 -184.0909091 -36.8181818
216 2 2 184.0909091 -184.0909091 0.0000000
217 2 2 184.0909091 -184.0909091 36.8181818
218 2 2 184.0909091 -184.0909091 73.6363636
219 2 2 184.0909091 -184.0909091 110.4545455
220 2 2 184.0909091 -184.0909091 147.2727273
221 2 2 184.0909091 -184.0909091 184.0909091
222 2 2 -184.0909091 -147.2727273 -184.0909091
223 2 2 -184.0909091 -147.2727273 -147.2727273
224 2 2 -184.0909091 -147.2727273 -110.4545455
225 2 2 -184.0909091 -147.2727273 -73.6363636
226 2 2 -184.0909091 -147.2727273 -36.8181818
227 2 2 -184.0909091 -147.2727273 0.0000000
228 2 2 -184.0909091 -147.2727273 36.8181818
229 2 2 -184.0909091 -147.2727273 73.6363636
230 2 2 -184.0909091 -147.2727273 110.4545455
231 2 2 -184.0909091 -147.2727273 147.2727273
232 2 2 -184.0909091 -147.2727273 184.0909091
233 2 2 -147.2727273 -147.2727273 -184.0909091
234 2 2 -147.2727273 -147.2727273 -147.2727273
235 2 2 -147.2727273 -147.2727273 -110.4545455
236 2 2 -147.2727273 -147.2727273 -73.6363636
237 2 2 -147.2727273 -147.2727273 -36.8181818
238 2 2 -147.2727273 -147.2727273 0.0000000
239 2 2 -147.2727273 -147.2727273 36.8181818
240 2 2 -147.2727273 -147.2727273 73.6363636
241 2 2 -147.2727273 -147.2727273 110.4545455
242 2 2 -147.2727273 -147.2727273 147.2727273
243 2 2 -147.2727273 -147.2727273 184.0909091
244 2 2 -110.4545455 -147.2727273 -184.0909091
245 2 2 -110.4545455 -147.2727273 -147.2727273
246 2 2 -110.4545455 -147.2727273 -110.4545455
247 2 2 -110.4545455 -147.2727273 -73.6363636
248 2 2 -110.4545455 -147.2727273 -36.8181818
249 2 2 -110.4545455 -147.2727273 0.0000000
250 2 2 -110.4545455 -147.2727273 36.8181818
251 2 2 -110.4545455 -147.2727273 73.6363636
252 2 2 -110.4545455 -147.2727273 110.4545455
253 2 2 -110.4545455 -147.2727273 147.2727273
254 2 2 -110.4545455 -147.2727273 184.0909091
255 2 2 -73.6363636 -147.2727273 -184.0909091
256 2 2 -73.6363636 -147.2727273 -147.2727273
257 2 2 -73.6363636 -147.2727273 -110.4545455
258 2 2 -73.6363636 -147.2727273 -73.6363636
259 2 2 -73.6363636 -147.2727273 -36.8181818
260 2 2 -73.6363636 -147.2727273 0.0000000
261 2 2 -73.6363636 -147.2727273 36.8181818
262 2 2 -73.6363636 -147.2727273 73.6363636
263 2 2 -73.6363636 -147.2727273 110.4545455
264 2 2 -73.6363636 -147.2727273 147.2727273
265 2 2 -73.6363636 -147.2727273 184.0909091
266 2 2 -36.8181818 -147.2727273 -184.0909091
267 2 2 -36.8181818 -147.2727273 -147.2727273
268 2 2 -36.8181818 -147.2727273 -110.4545455
269 2 2 -36.8181818 -147.2727273 -73.6363636
270 2 2 -36.8181818 -147.2727273 -36.8181818
271 2 2 -36.8181818 -147.2727273 0.0000000
272 2 2 -36.8181818 -147.2727273 36.8181818
273 2 2 -36.8181818 -147.2727273 73.6363636
274 2 2 -36.8181818 -147.2727273 110.4545455
275 2 2 -36.8181818 -147.2727273 147.2727273
276 2 2 -36.8181818 -147.2727273 184.0909091
277 2 2 0.0000000 -147.2727273 -184.0909091
278 2 2 0.0000000 -147.2727273 -147.2727273
279 2 2 0.0000000 -147.2727273 -110.4545455
280 2 2 0.0000000 -147.2727273 -73.6363636
281 2 2 0.0000000 -147.2727273 -36.8181818
282 2 2 0.0000000 -147.2727273 0.0000000
283 2 2 0.0000000 -147.2727273 36.8181818
284 2 2 0.0000000 -147.2727273 73.6363636
285 2 2 0.0000000 -147.2727273 110.4545455
286 2 2 0.0000000 -147.2727273 147.2727273
287 2 2 0.0000000 -147.2727273 184.0909091
288 2 2 36.8181818 -147.2727273 -184.0909091
289 2 2 36.8181818 -147.2727273 -147.2727273
290 2 2 36.8181818 -147.2727273 -110.4545455
291 2 2 36.8181818 -147.2727273 -73.6363636
292 2 2 36.8181818 -147.2727273 -36.8181818
293 2 2 36.8181818 -147.2727273 0.0000000
294 2 2 36.8181818 -147.2727273 36.8181818
295 2 2 36.8181818 -147.2727273 73.6363636
296 2 2 36.8181818 -147.2727273 110.4545455
297 2 2 36.8181818 -147.2727273 147.2727273
298 2 2 36.8181818 -147.2727273 184.0909091
299 2 2 73.6363636 -147.2727273 -184.0909091
300 2 2 73.6363636 -147.2727273 -147.2727273
301 2 2 73.6363636 -147.2727273 -110.4545455
302 2 2 73.6363636 -147.2727273 -73.6363636
303 2 2 73.6363636 -147.2727273 -36.8181818
304 2 2 73.6363636 -147.2727273 0.0000000
305 2 2 73.6363636 -147.2727273 36.8181818
306 2 2 73.6363636 -147.2727273 73.6363636
307 2 2 73.6363636 -147.2727273 110.4545455
308 2 2 73.6363636 -147.2727273 147.2727273
309 2 2 73.6363636 -147.2727273 184.0909091
310 2 2 110.4545455 -147.2727273 -184.0909091
311 2 2 110.4545455 -147.2727273 -147.2727273
312 2 2 110.4545455 -147.2727273 -110.4545455
313 2 2 110.4545455 -147.2727273 -73.6363636
314 2 2 110.4545455 -147.2727273 -36.8181818
315 2 2 110.4545455 -147.2727273 0.0000000
316 2 2 110.4545455 -147.2727273 36.8181818
317 2 2 110.4545455 -147.2727273 73.6363636
318 2 2 110.4545455 -147.2727273 110.4545455
319 2 2 110.4545455 -147.2727273 147.2727273
320 2 2 110.4545455 -147.2727273 184.0909091
321 2 2 147.2727273 -147.2727273 -184.0909091
322 2 2 147.2727273 -147.2727273 -147.2727273
323 2 2 147.2727273 -147.2727273 -110.4545455
324 2 2 147.2727273 -147.2727273 -73.6363636
325 2 2 147.2727273 -147.2727273 -36.8181818
326 2 2 147.2727273 -147.2727273 0.0000000
327 2 2 147.2727273 -147.2727273 36.8181818
328 2 2 147.2727273 -147.2727273 73.6363636
329 2 2 147.2727273 -147.2727273 110.4545455
330 2 2 147.2727273 -147.2727273 147.2727273
331 2 2 147.2727273 -147.2727273 184.0909091
332 2 2 184.0909091 -147.2727273 -184.0909091
333 2 2 184.0909091 -147.2727273 -147.2727273
334 2 2 184.0909091 -147.2727273 -110.4545455
335 2 2 184.0909091 -147.2727273 -73.6363636
336 2 2 184.0909091 -147.2727273 -36.8181818
337 2 2 184.0909091 -147.2727273 0.0000000
338 2 2 184.0909091 -147.2727273 36.8181818
339 2 2 184.0909091 -147.2727273 73.6363636
340 2 2 184.0909091 -147.2727273 110.4545455
341 2 2 184.0909091 -147.2727273 147.2727273
342 2 2 184.0909091 -147.2727273 184.0909091
343 2 2 -184.0909091 -110.4545455 -184.0909091
344 2 2 -184.0909091 -110.4545455 -147.2727273
345 2 2 -184.0909091 -110.4545455 -110.4545455
346 2 2 -184.0909091 -110.4545455 -73.6363636
347 2 2 -184.0909091 -110.4545455 -36.8181818
348 2 2 -184.0909091 -110.4545455 0.0000000
349 2 2 -184.0909091 -110.4545455 36.8181818
350 2 2 -184.0909091 -110.4545455 73.6363636
351 2 2 -184.0909091 -110.4545455 110.4545455
352 2 2 -184.0909091 -110.4545455 147.2727273
353 2 2 -184.0909091 -110.4545455 184.0909091
354 2 2 -147.2727273 -110.4545455 -184.0909091
355 2 2 -147.2727273 -110.4545455 -147.2727273
356 2 2 -147.2727273 -110.4545455 -110.4545455
357 2 2 -147.2727273 -110.4545455 -73.6363636
358 2 2 -147.2727273 -110.4545455 -36.8181818
359 2 2 -147.2727273 -110.4545455 0.0000000
360 2 2 -147.2727273 -110.4545455 36.8181818
361 2 2 -147.2727273 -110.4545455 73.6363636
362 2 2 -147.2727273 -110.4545455 110.4545455
363 2 2 -147.2727273 -110.4545455 147.2727273
364 2 2 -147.2727273 -110.4545455 184.0909091
365 2 2 -110.4545455 -110.4545455 -184.0909091
366 2 2 -110.4545455 -110.4545455 -147.2727273
367 2 2 -110.4545455 -110.4545455 -110.4545455
368 2 2 -110.4545455 -110.4545455 -73.6363636
369 2 2 -110.4545455 -110.4545455 -36.8181818
370 2 2 -110.4545455 -110.4545455 0.0000000
371 2 2 -110.4545455 -110.4545455 36.8181818
372 2 2 -110.4545455 -110.4545455 73.6363636
373 2 2 -110.4545455 -110.4545455 110.4545455
374 2 2 -110.4545455 -110.4545455 147.2727273
375 2 2 -110.4545455 -110.4545455 184.0909091
376 2 2 -73.6363636 -110.4545455 -184.0909091
377 2 2 -73.6363636 -110.4545455 -147.2727273
378 2 2 -73.6363636 -110.4545455 -110.4545455
379 2 2 -73.6363636 -110.4545455 -73.6363636
380 2 2 -73.6363636 -110.4545455 -36.8181818
381 2 2 -73.6363636 -110.4545455 0.0000000
382 2 2 -73.6363636 -110.4545455 36.8181818
383 2 2 -73.6363636 -110.4545455 73.6363636
384 2 2 -73.6363636 -110.4545455 110.4545455
385 2 2 -73.6363636 -110.4545455 147.2727273
386 2 2 -73.6363636 -110.4545455 184.0909091
387 2 2 -36.8181818 -110.4545455 -184.0909091
388 2 2 -36.8181818 -110.4545455 -147.2727273
389 2 2 -36.8181818 -110.4545455 -110.4545455
390 2 2 -36.8181818 -110.4545455 -73.6363636
391 2 2 -36.8181818 -110.4545455 -36.8181818
392 2 2 -36.8181818 -110.4545455 0.0000000
393 2 2 -36.8181818 -110.4545455 36.8181818
394 2 2 -36.8181818 -110.4545455 73.6363636
395 2 2 -36.8181818 -110.4545455 110.4545455
396 2 2 -36.8181818 -110.4545455 147.2727273
397 2 2 -36.8181818 -110.4545455 184.0909091
398 2 2 0.0000000 -110.4545455 -184.0909091
399 2 2 0.0000000 -110.4545455 -147.2727273
400 2 2 0.0000000 -110.4545455 -110.4545455
401 2 2 0.0000000 -110.4545455 -73.6363636
402 2 2 0.0000000 -110.4545455 -36.8181818
403 2 2 0.0000000 -110.4545455 0.0000000
404 2 2 0.0000000 -110.4545455 36.8181818
405 2 2 0.0000000 -110.4545455 73.6363636
406 2 2 0.0000000 -110.4545455 110.4545455
407 2 2 0.0000000 -110.4545455 147.2727273
408 2 2 0.0000000 -110.4545455 184.0909091
409 2 2 36.8181818 -110.4545455 -184.0909091
410 2 2 36.8181818 -110.4545455 -147.2727273
411 2 2 36.8181818 -110.4545455 -110.4545455
412 2 2 36.8181818 -110.4545455 -73.6363636
413 2 2 36.8181818 -110.4545455 -36.8181818
414 2 2 36.8181818 -110.4545455 0.0000000
415 2 2 36.8181818 -110.4545455 36.8181818
416 2 2 36.8181818 -110.4545455 73.6363636
417 2 2 36.8181818 -110.4545455 110.4545455
418 2 2 36.8181818 -110.4545455 147.2727273
419 2 2 36.8181818 -110.4545455 184.0909091
420 2 2 73.6363636 -110.4545455 -184.0909091
421 2 2 73.6363636 -110.4545455 -147.2727273
422 2 2 73.6363636 -110.4545455 -110.4545455
423 2 2 73.6363636 -110.4545455 -73.6363636
424 2 2 73.6363636 -110.4545455 -36.8181818
425 2 2 73.6363636 -110.4545455 0.0000000
426 2 2 73.6363636 -110.4545455 36.8181818
427 2 2 73.6363636 -110.4545455 73.6363636
428 2 2 73.6363636 -110.4545455 110.4545455
429 2 2 73.6363636 -110.4545455 147.2727273
430 2 2 73.6363636 -110.4545455 184.0909091
431 2 2 110.4545455 -110.4545455 -184.0909091
432 2 2 110.4545455 -110.4545455 -147.2727273
433 2 2 110.4545455 -110.4545455 -110.4545455
434 2 2 110.4545455 -110.4545455 -73.6363636
435 2 2 110.4545455 -110.4545455 -36.8181818
436 2 2 110.4545455 -110.4545455 0.0000000
437 2 2 110.4545455 -110.4545455 36.8181818
438 2 2 110.4545455 -110.4545455 73.6363636
439 2 2 110.4545455 -110.4545455 110.4545455
440 2 2 110.4545455 -110.4545455 147.2727273
441 2 2 110.4545455 -110.4545455 184.0909091
442 2 2 147.2727273 -110.4545455 -184.0909091
443 2 2 147.2727273 -110.4545455 -147.2727273
444 2 2 147.2727273 -110.4545455 -110.4545455
445 2 2 147.2727273 -110.4545455 -73.6363636
446 2 2 147.2727273 -110.4545455 -36.8181818
447 2 2 147.2727273 -110.4545455 0.0000000
448 2 2 147.2727273 -110.4545455 36.8181818
449 2 2 147.2727273 -110.4545455 73.6363636
450 2 2 147.2727273 -110.4545455 110.4545455
451 2 2 147.2727273 -110.4545455 147.2727273
452 2 2 147.2727273 -110.4545455 184.0909091
453 2 2 184.0909091 -110.4545455 -184.0909091
454 2 2 184.0909091 -110.4545455 -147.2727273
455 2 2 184.0909091 -110.4545455 -110.4545455
456 2 2 184.0909091 -110.4545455 -73.6363636
457 2 2 184.0909091 -110.4545455 -36.8181818
458 2 2 184.0909091 -110.4545455 0.0000000
459 2 2 184.0909091 -110.4545455 36.8181818
460 2 2 184.0909091 -110.4545455 73.6363636
461 2 2 184.0909091 -110.4545455 110.4545455
462 2 2 184.0909091 -110.4545455 147.2727273
463 2 2 184.0909091 -110.4545455 184.0909091
464 2 2 -184.0909091 -73.6363636 -184.0909091
465 2 2 -184.0909091 -73.6363636 -147.2727273
466 2 2 -184.0909091 -73.6363636 -110.4545455
467 2 2 -184.0909091 -73.6363636 -73.6363636
468 2 2 -184.0909091 -73.6363636 -36.8181818
469 2 2 -184.0909091 -73.6363636 0.0000000
470 2 2 -184.0909091 -73.6363636 36.8181818
471 2 2 -184.0909091 -73.6363636 73.6363636
472 2 2 -184.0909091 -73.6363636 110.4545455
473 2 2 -184.0909091 -73.6363636 147.2727273
474 2 2 -184.0909091 -73.6363636 184.0909091
475 2 2 -147.2727273 -73.6363636 -184.0909091
476 2 2 -147.2727273 -73.6363636 -147.2727273
477 2 2 -147.2727273 -73.6363636 -110.4545455
478 2 2 -147.2727273 -73.6363636 -73.6363636
479 2 2 -147.2727273 -73.6363636 -36.8181818
480 2 2 -147.2727273 -73.6363636 0.0000000
481 2 2 -147.2727273 -73.6363636 36.8181818
482 2 2 -147.2727273 -73.6363636 73.6363636
483 2 2 -147.2727273 -73.6363636 110.4545455
484 2 2 -147.2727273 -73.6363636 147.2727273
485 2 2 -147.2727273 -73.6363636 184.0909091
486 2 2 -110.4545455 -73.6363636 -184.0909091
487 2 2 -110.4545455 -73.6363636 -147.2727273
488 2 2 -110.4545455 -73.6363636 -110.4545455
489 2 2 -110.4545455 -73.6363636 -73.6363636
490 2 2 -110.4545455 -73.6363636 -36.8181818
491 2 2 -110.4545455 -73.6363636 0.0000000
492 2 2 -110.4545455 -73.6363636 36.8181818
493 2 2 -110.4545455 -73.6363636 73.6363636
494 2 2 -110.4545455 -73.6363636 110.4545455
495 2 2 -110.4545455 -73.6363636 147.2727273
496 2 2 -110.4545455 -73.6363636 184.0909091
497 2 2 -73.6363636 -73.6363636 -184.0909091
498 2 2 -73.6363636 -73.6363636 -147.2727273
499 2 2 -73.6363636 -73.6363636 -110.4545455
500 2 2 -73.6363636 -73.6363636 -73.6363636
501 2 2 -73.6363636 -73.6363636 -36.8181818
502 2 2 -73.6363636 -73.6363636 0.0000000
503 2 2 -73.6363636 -73.6363636 36.8181818
504 2 2 -73.6363636 -73.6363636 73.6363636
505 2 2 -73.6363636 -73.6363636 110.4545455
506 2 2 -73.6363636 -73.6363636 147.2727273
507 2 2 -73.6363636 -73.6363636 184.0909091
508 2 2 -36.8181818 -73.6363636 -184.0909091
509 2 2 -36.8181818 -73.6363636 -147.2727273
510 2 2 -36.8181818 -73.6363636 -110.4545455
511 2 2 -36.8181818 -73.6363636 -73.6363636
512 2 2 -36.8181818 -73.6363636 -36.8181818
513 2 2 -36.8181818 -73.6363636 0.0000000
514 2 2 -36.8181818 -73.6363636 36.8181818
515 2 2 -36.8181818 -73.6363636 73.6363636
516 2 2 -36.8181818 -73.6363636 110.4545455
517 2 2 -36.8181818 -73.6363636 147.2727273
518 2 2 -36.8181818 -73.6363636 184.0909091
519 2 2 0.0000000 -73.6363636 -184.0909091
520 2 2 0.0000000 -73.6363636 -147.2727273
521 2 2 0.0000000 -73.6363636 -110.4545455
522 2 2 0.0000000 -73.6363636 -73.6363636
523 2 2 0.0000000 -73.6363636 -36.8181818
524 2 2 0.0000000 -73.6363636 0.0000000
525 2 2 0.0000000 -73.6363636 36.8181818
526 2 2 0.0000000 -73.6363636 73.6363636
527 2 2 0.0000000 -73.6363636 110.4545455
528 2 2 0.0000000 -73.6363636 147.2727273
529 2 2 0.0000000 -73.6363636 184.0909091
530 2 2 36.8181818 -73.6363636 -184.0909091
531 2 2 36.8181818 -73.6363636 -147.2727273
532 2 2 36.8181818 -73.6363636 -110.4545455
533 2 2 36.8181818 -73.6363636 -73.6363636
534 2 2 36.8181818 -73.6363636 -36.8181818
535 2 2 36.8181818 -73.6363636 0.0000000
536 2 2 36.8181818 -73.6363636 36.8181818
537 2 2 36.8181818 -73.6363636 73.6363636
538 2 2 36.8181818 -73.6363636 110.4545455
539 2 2 36.8181818 -73.6363636 147.2727273
540 2 2 36.8181818 -73.6363636 184.0909091
541 2 2 73.6363636 -73.6363636 -184.0909091
542 2 2 73.6363636 -73.6363636 -147.2727273
543 2 2 73.6363636 -73.6363636 -110.4545455
544 2 2 73.6363636 -73.6363636 -73.6363636
545 2 2 73.6363636 -73.6363636 -36.8181818
546 2 2 73.6363636 -73.6363636 0.0000000
547 2 2 73.6363636 -73.6363636 36.8181818
548 2 2 73.6363636 -73.6363636 73.6363636
549 2 2 73.6363636 -73.6363636 110.4545455
550 2 2 73.6363636 -73.6363636 147.2727273
551 2 2 73.6363636 -73.6363636 184.0909091
552 2 2 110.4545455 -73.6363636 -184.0909091
553 2 2 110.4545455 -73.6363636 -147.2727273
554 2 2 110.4545455 -73.6363636 -110.4545455
555 2 2 110.4545455 -73.6363636 -73.6363636
556 2 2 110.4545455 -73.6363636 -36.8181818
557 2 2 110.4545455 -73.6363636 0.0000000
558 2 2 110.4545455 -73.6363636 36.8181818
559 2 2 110.4545455 -73.6363636 73.6363636
560 2 2 110.4545455 -73.6363636 110.4545455
561 2 2 110.4545455 -73.6363636 147.2727273
562 2 2 110.4545455 -73.6363636 184.0909091
563 2 2 147.2727273 -73.6363636 -184.0909091
564 2 2 147.2727273 -73.6363636 -147.2727273
565 2 2 147.2727273 -73.6363636 -110.4545455
566 2 2 147.2727273 -73.6363636 -73.6363636
567 2 2 147.2727273 -73.6363636 -36.8181818
568 2 2 147.2727273 -73.6363636 0.0000000
569 2 2 147.2727273 -73.6363636 36.8181818
570 2 2 147.2727273 -73.6363636 73.6363636
571 2 2 147.2727273 -73.6363636 110.4545455
572 2 2 147.2727273 -73.6363636 147.2727273
573 2 2 147.2727273 -73.6363636 184.0909091
574 2 2 184.0909091 -73.6363636 -184.0909091
575 2 2 184.0909091 -73.6363636 -147.2727273
576 2 2 184.0909091 -73.6363636 -110.4545455
577 2 2 184.0909091 -73.6363636 -73.6363636
578 2 2 184.0909091 -73.6363636 -36.8181818
579 2 2 184.0909091 -73.6363636 0.0000000
580 2 2 184.0909091 -73.6363636 36.8181818
581 2 2 184.0909091 -73.6363636 73.6363636
582 2 2 184.0909091 -73.6363636 110.4545455
583 2 2 184.0909091 -73.6363636 147.2727273
584 2 2 184.0909091 -73.6363636 184.0909091
585 2 2 -184.0909091 -36.8181818 -184.0909091
586 2 2 -184.0909091 -36.8181818 -147.2727273
587 2 2 -184.0909091 -36.8181818 -110.4545455
588 2 2 -184.0909091 -36.8181818 -73.6363636
589 2 2 -184.0909091 -36.8181818 -36.8181818
590 2 2 -184.0909091 -36.8181818 0.0000000
591 2 2 -184.0909091 -36.8181818 36.8181818
592 2 2 -184.0909091 -36.8181818 73.6363636
593 2 2 -184.0909091 -36.8181818 110.4545455
594 2 2 -184.0909091 -36.8181818 147.2727273
595 2 2 -184.0909091 -36.8181818 184.0909091
596 2 2 -147.2727273 -36.8181818 -184.0909091
597 2 2 -147.2727273 -36.8181818 -147.2727273
598 2 2 -147.2727273 -36.8181818 -110.4545455
599 2 2 -147.2727273 -36.8181818 -73.6363636
600 2 2 -147.2727273 -36.8181818 -36.8181818
601 2 2 -147.2727273 -36.8181818 0.0000000
602 2 2 -147.2727273 -36.8181818 36.8181818
603 2 2 -147.2727273 -36.8181818 73.6363636
604 2 2 -147.2727273 -36.8181818 110.4545455
605 2 2 -147.2727273 -36.8181818 147.2727273
606 2 2 -147.2727273 -36.8181818 184.0909091
607 2 2 -110.4545455 -36.8181818 -184.0909091
608 2 2 -110.4545455 -36.8181818 -147.2727273
609 2 2 -110.4545455 -36.8181818 -110.4545455
610 2 2 -110.4545455 -36.8181818 -73.6363636
611 2 2 -110.4545455 -36.8181818 -36.8181818
612 2 2 -110.4545455 -36.8181818 0.0000000
613 2 2 -110.4545455 -36.8181818 36.8181818
614 2 2 -110.4545455 -36.8181818 73.6363636
615 2 2 -110.4545455 -36.8181818 110.4545455
616 2 2 -110.4545455 -36.8181818 147.2727273
617 2 2 -110.4545455 -36.8181818 184.0909091
618 2 2 -73.6363636 -36.8181818 -184.0909091
619 2 2 -73.6363636 -36.8181818 -147.2727273
620 2 2 -73.6363636 -36.8181818 -110.4545455
621 2 2 -73.6363636 -36.8181818 -73.6363636
622 2 2 -73.6363636 -36.8181818 -36.8181818
623 2 2 -73.6363636 -36.8181818 0.0000000
624 2 2 -73.6363636 -36.8181818 36.8181818
625 2 2 -73.6363636 -36.8181818 73.6363636