LAMMPS (21 Jul 2010-ICMS)
boundary p fs p

lattice fcc 1.0
Lattice spacing in x,y,z = 1.5874 1.5874 1.5874
region box block 0 6 -1.1 8.1 0 6
create_box 2 box
Created orthogonal box = (0 -1.74614 0) to (9.52441 12.8579 9.52441)
  2 by 4 by 2 processor grid
  using 1 OpenMP thread(s) per MPI task
create_atoms 1 box
Created 1368 atoms

mass * 1.0
pair_style lj/cut 2.5
pair_coeff * * 1.0 1.0
neighbor 0.4 multi 
neigh_modify delay 2 exclude type 2 2

region lo block INF INF INF 0.1 INF INF
region hi block INF INF 6.9 INF INF INF
region wall union 2 lo hi
set region wall type 2
  432 settings made for type
group hi region hi
216 atoms in group hi
group liq type 1
936 atoms in group liq

compute Tliq liq temp
fix 1 liq nvt temp 0.73 0.73 0.5
fix_modify 1 temp Tliq

fix 2 hi aveforce NULL -0.004 NULL
fix 3 hi setforce 0.0 NULL 0.0
fix 4 hi nve

#dump 1 all atom 1000 dump.lammpstrj

velocity liq create 2.19 73528 dist gaussian rot yes
thermo 500
run 2000
Memory usage per processor = 1.70098 Mbytes
Step Temp E_pair E_mol TotEng Press Volume 
       0    1.4979151   -5.6200358            0   -3.3748055   -1.0618968    1310.4091 
     500   0.42729079   -4.7286542            0   -4.0881865  -0.38145372    1401.4138 
    1000   0.52827255   -4.4481438            0   -3.6563142   0.17624612    1439.1904 
    1500   0.52884273   -4.4281411            0   -3.6354569   0.35614689    1439.9806 
    2000   0.48936062   -4.3751179            0   -3.6416136   0.45461559    1445.6441 
Loop time of 0.519294 on 16 procs (16 MPI x 1 OpenMP) for 2000 steps with 1368 atoms

Pair  time (%) = 0.165638 (31.8967)
Neigh time (%) = 0.0853166 (16.4293)
Comm  time (%) = 0.188573 (36.3134)
Outpt time (%) = 0.000243589 (0.0469077)
Other time (%) = 0.0795231 (15.3137)

Nlocal:    85.5 ave 98 max 75 min
Histogram: 2 3 1 1 0 3 4 0 0 2
Nghost:    729.75 ave 864 max 605 min
Histogram: 6 2 0 0 0 0 0 0 4 4
Neighs:    2784.38 ave 3706 max 1829 min
Histogram: 2 1 5 0 0 0 1 2 4 1

Total # of neighbors = 44550
Ave neighs/atom = 32.5658
Neighbor list builds = 165
Dangerous builds = 0

fix 5 liq ave/histo 1000 1 1000 -3.0 3.0 30 vx vy vz mode vector file histo-ve.dat
compute ekinatom liq ke/atom
fix 6 liq ave/histo 1000 1 1000 0.0 10.0 30 c_ekinatom mode vector file histo-ke.dat

run 10000
Memory usage per processor = 1.77728 Mbytes
Step Temp E_pair E_mol TotEng Press Volume 
    2000   0.48936062   -4.3751179            0   -3.6416136   0.45445478    1446.1556 
    2500   0.48203121   -4.2780982            0   -3.5555799   0.26964096     1476.216 
    3000   0.49914804   -4.1326884            0   -3.3845137 -0.068277462    1519.7154 
    3500   0.51556028   -4.0297435            0   -3.2569684 -0.085326338    1554.2184 
    4000    0.5127284   -3.9481903            0     -3.17966  -0.12074172    1568.0405 
    4500   0.47917523   -3.8781116            0   -3.1598742   0.14207612    1569.4407 
    5000     0.514243   -3.9655101            0   -3.1947094  0.032814741    1556.5029 
    5500   0.50436445    -4.018714            0   -3.2627204 -0.0041704639    1541.0293 
    6000   0.51914881   -4.0502589            0   -3.2721049   0.24126621    1521.2132 
    6500   0.51002329   -4.0387279            0   -3.2742522   0.13414899    1531.0836 
    7000    0.5071336   -4.0254682            0   -3.2653239  -0.21006186    1549.8257 
    7500   0.52461683   -3.9210528            0   -3.1347028  -0.18673762    1572.2113 
    8000   0.51397225   -3.8868251            0   -3.1164303 0.0099361209    1576.2867 
    8500   0.53199674   -3.8940152            0   -3.0966034  -0.10874013    1579.9829 
    9000   0.50908135   -3.9035166            0   -3.1404528  0.073292028    1569.2573 
    9500   0.50871998   -3.9459015            0   -3.1833794  -0.11934265     1562.891 
   10000   0.48239441   -3.9549776            0   -3.2319149 -0.0096849731    1557.6618 
   10500   0.49363219   -3.9854275            0   -3.2455205    0.0395682    1547.9312 
   11000   0.49291931   -3.9941309            0   -3.2552924  -0.13781018    1552.1485 
   11500   0.50163904   -3.9897562            0   -3.2378477   0.05062116    1545.4463 
   12000   0.51390538   -3.9811745            0   -3.2108799   0.10142585    1543.6903 
Loop time of 2.29612 on 16 procs (16 MPI x 1 OpenMP) for 10000 steps with 1368 atoms

Pair  time (%) = 0.758745 (33.0446)
Neigh time (%) = 0.395944 (17.244)
Comm  time (%) = 0.754522 (32.8607)
Outpt time (%) = 0.00137199 (0.0597527)
Other time (%) = 0.385539 (16.7909)

Nlocal:    85.5 ave 101 max 69 min
Histogram: 1 2 3 2 0 0 1 3 2 2
Nghost:    718.875 ave 849 max 598 min
Histogram: 8 0 0 0 0 0 0 0 3 5
Neighs:    2601.81 ave 3192 max 2000 min
Histogram: 2 3 1 2 0 1 0 2 3 2

Total # of neighbors = 41629
Ave neighs/atom = 30.4306
Neighbor list builds = 819
Dangerous builds = 0
