 
 
 
      1401 atoms
    934 bonds
    467 angles
      0 dihedrals
 
2 atom types
1 bond types
1 angle types
 
       -25.0000         25.0000 xlo xhi
       -25.0000         25.0000 ylo yhi
       -25.0000         25.0000 zlo zhi

Masses

    1 12.001
    2 15.998
 
Atoms
 
       1    1  2          -0.3500         -22.1316         15.4657         11.0828
       2    1  1           0.7000         -22.5508         15.9113         10.0972
       3    1  2          -0.3500         -22.9701         16.3568          9.1117
       4    2  2          -0.3500          -3.4204         10.1653         -6.7445
       5    2  1           0.7000          -3.6243          9.1197         -6.2854
       6    2  2          -0.3500          -3.8283          8.0741         -5.8263
       7    3  2          -0.3500           2.9691        -23.1327         20.3107
       8    3  1           0.7000           2.5720        -22.4015         19.5024
       9    3  2          -0.3500           2.1749        -21.6704         18.6940
      10    4  2          -0.3500         -10.0835        -24.2069         22.6510
      11    4  1           0.7000          -9.8627        -24.0505         23.7790
      12    4  2          -0.3500          -9.6420        -23.8941         24.9071
      13    5  2          -0.3500           4.2783        -13.2729         -4.4705
      14    5  1           0.7000           3.7313        -12.6373         -3.6689
      15    5  2          -0.3500           3.1843        -12.0018         -2.8674
      16    6  2          -0.3500          -7.5289        -21.0086         -0.4507
      17    6  1           0.7000          -7.9262        -19.9960         -0.8539
      18    6  2          -0.3500          -8.3235        -18.9835         -1.2570
      19    7  2          -0.3500         -23.2826         -9.0874         -0.2725
      20    7  1           0.7000         -22.8879         -9.9839          0.3487
      21    7  2          -0.3500         -22.4931        -10.8805          0.9699
      22    8  2          -0.3500         -21.1025        -20.4188        -19.2364
      23    8  1           0.7000         -20.5508        -19.4542        -18.9035
      24    8  2          -0.3500         -19.9991        -18.4896        -18.5707
      25    9  2          -0.3500         -10.5513         21.3244          8.9963
      26    9  1           0.7000          -9.5096         21.6358          8.5921
      27    9  2          -0.3500          -8.4678         21.9472          8.1878
      28   10  2          -0.3500          -8.5444          1.6624         -3.5892
      29   10  1           0.7000          -8.2380          2.6952         -4.0194
      30   10  2          -0.3500          -7.9317          3.7281         -4.4495
      31   11  2          -0.3500           4.0929         11.8071         23.1303
      32   11  1           0.7000           3.9983         12.7019         22.3982
      33   11  2          -0.3500           3.9037         13.5968         21.6662
      34   12  2          -0.3500          18.6167         17.4277         14.3287
      35   12  1           0.7000          18.6902         17.8478         15.4075
      36   12  2          -0.3500          18.7636         18.2679         16.4862
      37   13  2          -0.3500           7.8524         13.7152         22.3218
      38   13  1           0.7000           8.4065         14.6777         21.9869
      39   13  2          -0.3500           8.9607         15.6402         21.6521
      40   14  2          -0.3500         -21.6055        -19.6401        -16.1023
      41   14  1           0.7000         -22.1143        -18.6031        -15.9958
      42   14  2          -0.3500         -22.6231        -17.5661        -15.8893
      43   15  2          -0.3500          18.0034        -22.6629         23.7337
      44   15  1           0.7000          18.3116        -23.7791         23.8026
      45   15  2          -0.3500          18.6197        -24.8953         23.8716
      46   16  2          -0.3500          17.3707         -8.3797        -17.7455
      47   16  1           0.7000          18.4818         -8.0999        -17.5644
      48   16  2          -0.3500          19.5929         -7.8201        -17.3832
      49   17  2          -0.3500          -7.5369         -4.9917        -17.6006
      50   17  1           0.7000          -8.1820         -5.9395        -17.4239
      51   17  2          -0.3500          -8.8271         -6.8872        -17.2472
      52   18  2          -0.3500          20.9776         -4.3230        -24.0644
      53   18  1           0.7000          20.9662         -3.1633        -24.0381
      54   18  2          -0.3500          20.9549         -2.0037        -24.0118
      55   19  2          -0.3500          -1.0001         13.9234         20.4807
      56   19  1           0.7000          -0.5736         13.6530         21.5250
      57   19  2          -0.3500          -0.1471         13.3826         22.5693
      58   20  2          -0.3500          22.3280         22.4449         -5.8452
      59   20  1           0.7000          23.3080         21.8264         -5.7946
      60   20  2          -0.3500          24.2881         21.2079         -5.7439
      61   21  2          -0.3500          -5.3585          9.6288          3.0901
      62   21  1           0.7000          -5.3946          9.9613          4.2009
      63   21  2          -0.3500          -5.4308         10.2937          5.3116
      64   22  2          -0.3500           4.2987         23.1654          5.4105
      65   22  1           0.7000           4.3255         22.0816          5.8231
      66   22  2          -0.3500           4.3523         20.9977          6.2356
      67   23  2          -0.3500           9.8319        -19.9394        -16.7211
      68   23  1           0.7000           9.8585        -20.4188        -17.7770
      69   23  2          -0.3500           9.8851        -20.8982        -18.8330
      70   24  2          -0.3500           8.2264         22.2991        -13.4950
      71   24  1           0.7000           8.6686         21.2290        -13.5666
      72   24  2          -0.3500           9.1107         20.1590        -13.6383
      73   25  2          -0.3500           4.9501          7.4731         16.8247
      74   25  1           0.7000           4.8177          8.6190         16.7025
      75   25  2          -0.3500           4.6852          9.7649         16.5803
      76   26  2          -0.3500           9.1796        -21.0562        -22.0330
      77   26  1           0.7000           9.3977        -20.3905        -22.9576
      78   26  2          -0.3500           9.6159        -19.7248        -23.8822
      79   27  2          -0.3500          -9.0865        -17.8655        -15.4647
      80   27  1           0.7000          -9.9089        -18.2082        -16.2075
      81   27  2          -0.3500         -10.7313        -18.5509        -16.9503
      82   28  2          -0.3500          -4.5084        -18.0268         12.1384
      83   28  1           0.7000          -4.2565        -18.5068         11.1129
      84   28  2          -0.3500          -4.0047        -18.9868         10.0873
      85   29  2          -0.3500         -10.9408          3.6855        -10.0861
      86   29  1           0.7000          -9.8021          3.6638         -9.8662
      87   29  2          -0.3500          -8.6633          3.6421         -9.6462
      88   30  2          -0.3500          22.3323         -9.9357         23.4046
      89   30  1           0.7000          21.8829        -10.6933         24.1594
      90   30  2          -0.3500          21.4335        -11.4509         24.9142
      91   31  2          -0.3500         -25.4543         -9.2588         -4.8171
      92   31  1           0.7000         -24.6083         -9.9970         -5.1087
      93   31  2          -0.3500         -23.7623        -10.7351         -5.4003
      94   32  2          -0.3500           9.7583        -13.3824          4.1074
      95   32  1           0.7000           8.8599        -13.2661          3.3828
      96   32  2          -0.3500           7.9615        -13.1498          2.6582
      97   33  2          -0.3500          -4.3663         -4.1053        -12.1540
      98   33  1           0.7000          -4.7617         -4.8302        -12.9688
      99   33  2          -0.3500          -5.1571         -5.5550        -13.7836
     100   34  2          -0.3500           5.2142        -15.9649         -7.8194
     101   34  1           0.7000           4.4301        -15.3229         -8.3838
     102   34  2          -0.3500           3.6460        -14.6809         -8.9482
     103   35  2          -0.3500         -13.8124         13.4351          8.0525
     104   35  1           0.7000         -13.8635         13.6976          9.1813
     105   35  2          -0.3500         -13.9146         13.9601         10.3101
     106   36  2          -0.3500          -6.0478         -8.8588          7.6720
     107   36  1           0.7000          -6.2141         -7.7108          7.6739
     108   36  2          -0.3500          -6.3805         -6.5628          7.6759
     109   37  2          -0.3500          19.9752          3.0015         -9.5428
     110   37  1           0.7000          20.9830          2.4380         -9.6549
     111   37  2          -0.3500          21.9907          1.8746         -9.7669
     112   38  2          -0.3500           0.4590          6.6063          3.4153
     113   38  1           0.7000          -0.5551          6.0778          3.6098
     114   38  2          -0.3500          -1.5693          5.5494          3.8042
     115   39  2          -0.3500          19.8003         13.5854        -23.2717
     116   39  1           0.7000          19.9550         12.5111        -23.6810
     117   39  2          -0.3500          20.1098         11.4368        -24.0903
     118   40  2          -0.3500           0.6870         -1.4436         14.7537
     119   40  1           0.7000           0.5290         -0.6752         15.6082
     120   40  2          -0.3500           0.3710          0.0932         16.4627
     121   41  2          -0.3500          14.4841        -14.3475         -9.6620
     122   41  1           0.7000          15.0865        -13.6468         -8.9608
     123   41  2          -0.3500          15.6889        -12.9461         -8.2596
     124   42  2          -0.3500          17.1813         -7.1381          1.8762
     125   42  1           0.7000          18.1227         -7.3130          1.2213
     126   42  2          -0.3500          19.0640         -7.4879          0.5665
     127   43  2          -0.3500         -15.2417         13.0567         17.5319
     128   43  1           0.7000         -16.0615         12.7686         18.3004
     129   43  2          -0.3500         -16.8812         12.4805         19.0689
     130   44  2          -0.3500         -14.6232          2.6244         -2.4361
     131   44  1           0.7000         -15.2688          2.1299         -3.2634
     132   44  2          -0.3500         -15.9144          1.6355         -4.0906
     133   45  2          -0.3500         -23.2079         -0.5297         -2.2603
     134   45  1           0.7000         -23.7792         -1.4984         -1.9758
     135   45  2          -0.3500         -24.3504         -2.4671         -1.6913
     136   46  2          -0.3500           2.2598         19.7530         -5.1798
     137   46  1           0.7000           2.0828         20.5650         -4.3705
     138   46  2          -0.3500           1.9058         21.3769         -3.5612
     139   47  2          -0.3500         -20.6456        -11.3472         21.7691
     140   47  1           0.7000         -20.8537        -10.2963         22.2141
     141   47  2          -0.3500         -21.0617         -9.2455         22.6592
     142   48  2          -0.3500         -13.2474          7.1164          1.7463
     143   48  1           0.7000         -12.9019          6.1329          2.2551
     144   48  2          -0.3500         -12.5564          5.1493          2.7640
     145   49  2          -0.3500          24.3582         11.0447          6.3380
     146   49  1           0.7000          24.9235         11.6430          7.1555
     147   49  2          -0.3500          25.4887         12.2413          7.9729
     148   50  2          -0.3500          -6.2476          3.5986        -19.3097
     149   50  1           0.7000          -6.7896          4.5915        -19.5668
     150   50  2          -0.3500          -7.3317          5.5843        -19.8238
     151   51  2          -0.3500           0.9306         -1.9530          0.8072
     152   51  1           0.7000           1.4193         -1.0155          0.3299
     153   51  2          -0.3500           1.9081         -0.0780         -0.1474
     154   52  2          -0.3500          15.6557        -24.3584         18.9753
     155   52  1           0.7000          16.6648        -24.3424         19.5470
     156   52  2          -0.3500          17.6740        -24.3263         20.1188
     157   53  2          -0.3500          -6.1125         -4.2694        -23.2568
     158   53  1           0.7000          -5.4855         -4.9785        -22.5862
     159   53  2          -0.3500          -4.8585         -5.6876        -21.9157
     160   54  2          -0.3500          -6.5386        -23.0520         18.2181
     161   54  1           0.7000          -6.5335        -24.2105         18.1598
     162   54  2          -0.3500          -6.5285        -25.3690         18.1014
     163   55  2          -0.3500         -10.0289        -17.1906         19.3590
     164   55  1           0.7000         -10.5210        -17.2489         18.3102
     165   55  2          -0.3500         -11.0131        -17.3071         17.2613
     166   56  2          -0.3500          -0.5861          8.2028         -5.3126
     167   56  1           0.7000          -0.3541          7.1886         -5.8255
     168   56  2          -0.3500          -0.1221          6.1743         -6.3384
     169   57  2          -0.3500           4.2510        -21.1096          8.6515
     170   57  1           0.7000           4.8575        -21.7769          9.3812
     171   57  2          -0.3500           5.4641        -22.4442         10.1109
     172   58  2          -0.3500         -19.2821         19.4292         21.8383
     173   58  1           0.7000         -18.4321         19.4454         21.0490
     174   58  2          -0.3500         -17.5822         19.4616         20.2598
     175   59  2          -0.3500           6.8531          7.8135         -5.1063
     176   59  1           0.7000           6.3747          8.1016         -6.1230
     177   59  2          -0.3500           5.8962          8.3898         -7.1397
     178   60  2          -0.3500          22.7559        -22.3103         -8.4048
     179   60  1           0.7000          21.6706        -22.0085         -8.1280
     180   60  2          -0.3500          20.5853        -21.7068         -7.8511
     181   61  2          -0.3500           8.9831         19.6673         -9.9602
     182   61  1           0.7000           7.9978         19.2288         -9.5331
     183   61  2          -0.3500           7.0125         18.7902         -9.1060
     184   62  2          -0.3500          14.7464          5.5116        -18.1374
     185   62  1           0.7000          14.2284          6.4304        -18.6201
     186   62  2          -0.3500          13.7103          7.3493        -19.1028
     187   63  2          -0.3500          15.6993         17.3270         16.1210
     188   63  1           0.7000          14.6203         17.6941         16.3365
     189   63  2          -0.3500          13.5412         18.0612         16.5520
     190   64  2          -0.3500           5.4878          0.4869         -0.4324
     191   64  1           0.7000           5.2248         -0.5029          0.1123
     192   64  2          -0.3500           4.9618         -1.4928          0.6570
     193   65  2          -0.3500           6.5743         23.1564         -8.2039
     194   65  1           0.7000           7.4871         23.8689         -8.2731
     195   65  2          -0.3500           8.3999         24.5813         -8.3423
     196   66  2          -0.3500           6.8914         18.6892          0.2194
     197   66  1           0.7000           7.0950         19.7502         -0.2032
     198   66  2          -0.3500           7.2985         20.8111         -0.6257
     199   67  2          -0.3500          22.9917        -18.3272         -8.1798
     200   67  1           0.7000          23.1828        -17.1831         -8.1854
     201   67  2          -0.3500          23.3738        -16.0389         -8.1911
     202   68  2          -0.3500           3.5780         18.1134          9.9238
     203   68  1           0.7000           4.2084         18.9808          9.4811
     204   68  2          -0.3500           4.8388         19.8481          9.0385
     205   69  2          -0.3500          -7.9685         12.1719         -5.9674
     206   69  1           0.7000          -8.3088         11.2046         -5.4249
     207   69  2          -0.3500          -8.6492         10.2374         -4.8825
     208   70  2          -0.3500           7.2597        -21.4825         22.6498
     209   70  1           0.7000           7.8380        -22.1527         21.9000
     210   70  2          -0.3500           8.4163        -22.8228         21.1503
     211   71  2          -0.3500           0.0491          4.7124          0.3576
     212   71  1           0.7000           0.5271          5.7691          0.3782
     213   71  2          -0.3500           1.0052          6.8258          0.3989
     214   72  2          -0.3500          21.9549        -13.9268        -22.9155
     215   72  1           0.7000          21.0141        -13.9484        -23.5938
     216   72  2          -0.3500          20.0734        -13.9700        -24.2722
     217   73  2          -0.3500          -7.0762         -5.0930         -3.7561
     218   73  1           0.7000          -8.2121         -5.1330         -3.9878
     219   73  2          -0.3500          -9.3481         -5.1729         -4.2194
     220   74  2          -0.3500          24.0869         -1.7977         -7.4783
     221   74  1           0.7000          23.8358         -0.6676         -7.4046
     222   74  2          -0.3500          23.5846          0.4624         -7.3310
     223   75  2          -0.3500         -18.2979        -12.0007        -22.5176
     224   75  1           0.7000         -17.4859        -11.3751        -23.0606
     225   75  2          -0.3500         -16.6738        -10.7495        -23.6036
     226   76  2          -0.3500         -20.1349         -3.0940         -5.6533
     227   76  1           0.7000         -19.0637         -3.5045         -5.8254
     228   76  2          -0.3500         -17.9925         -3.9149         -5.9976
     229   77  2          -0.3500          13.5581         21.1206          4.0464
     230   77  1           0.7000          12.6626         20.8837          4.7446
     231   77  2          -0.3500          11.7671         20.6467          5.4429
     232   78  2          -0.3500          -4.9639         -2.6226         -4.0867
     233   78  1           0.7000          -5.3318         -2.9963         -5.1213
     234   78  2          -0.3500          -5.6997         -3.3701         -6.1560
     235   79  2          -0.3500         -18.0624         16.6208         18.1717
     236   79  1           0.7000         -18.7127         17.3676         17.5675
     237   79  2          -0.3500         -19.3629         18.1145         16.9634
     238   80  2          -0.3500          -1.7870        -20.1387         13.2957
     239   80  1           0.7000          -1.2561        -20.9470         13.9363
     240   80  2          -0.3500          -0.7251        -21.7552         14.5769
     241   81  2          -0.3500          22.2810         -1.9875         -2.5145
     242   81  1           0.7000          22.5879         -1.8527         -3.6250
     243   81  2          -0.3500          22.8948         -1.7179         -4.7355
     244   82  2          -0.3500           4.3690        -18.1268         22.4620
     245   82  1           0.7000           4.7199        -18.8461         21.6223
     246   82  2          -0.3500           5.0707        -19.5654         20.7826
     247   83  2          -0.3500         -11.7683         23.7575         19.7764
     248   83  1           0.7000         -10.7029         24.2020         19.6626
     249   83  2          -0.3500          -9.6375         24.6465         19.5487
     250   84  2          -0.3500         -24.8099        -10.1672         23.8474
     251   84  1           0.7000         -24.9392         -9.4805         24.7732
     252   84  2          -0.3500         -25.0685         -8.7937         25.6991
     253   85  2          -0.3500         -12.5718         10.5155         17.9839
     254   85  1           0.7000         -12.9056          9.4065         17.9183
     255   85  2          -0.3500         -13.2394          8.2975         17.8526
     256   86  2          -0.3500          -2.9248          0.1792         15.7455
     257   86  1           0.7000          -3.8770          0.6274         16.2334
     258   86  2          -0.3500          -4.8293          1.0756         16.7212
     259   87  2          -0.3500          -1.2255        -18.7377         -0.9105
     260   87  1           0.7000          -1.4630        -17.7100         -0.4277
     261   87  2          -0.3500          -1.7005        -16.6823          0.0550
     262   88  2          -0.3500          -5.8371          2.5035          2.3972
     263   88  1           0.7000          -5.1374          1.6693          2.7973
     264   88  2          -0.3500          -4.4376          0.8351          3.1975
     265   89  2          -0.3500          -0.3652        -10.8147         14.1855
     266   89  1           0.7000           0.3636        -10.8699         15.0863
     267   89  2          -0.3500           1.0924        -10.9251         15.9871
     268   90  2          -0.3500          23.8042          1.5381        -14.7207
     269   90  1           0.7000          23.3030          2.5407        -15.0195
     270   90  2          -0.3500          22.8018          3.5432        -15.3182
     271   91  2          -0.3500          21.3331          1.3307        -21.6896
     272   91  1           0.7000          22.1560          0.5500        -21.9325
     273   91  2          -0.3500          22.9788         -0.2306        -22.1753
     274   92  2          -0.3500         -13.6631        -23.6355         19.1379
     275   92  1           0.7000         -14.5873        -24.0048         19.7339
     276   92  2          -0.3500         -15.5114        -24.3740         20.3299
     277   93  2          -0.3500          -2.8460        -20.2542          5.4052
     278   93  1           0.7000          -3.1490        -19.1411          5.5271
     279   93  2          -0.3500          -3.4520        -18.0281          5.6490
     280   94  2          -0.3500          12.7569         21.1762         -5.2129
     281   94  1           0.7000          13.5841         21.6470         -4.5499
     282   94  2          -0.3500          14.4113         22.1179         -3.8868
     283   95  2          -0.3500         -23.2236         -5.4106         22.9850
     284   95  1           0.7000         -24.0958         -4.8832         23.5388
     285   95  2          -0.3500         -24.9680         -4.3558         24.0926
     286   96  2          -0.3500           8.7358        -17.8402         -1.3376
     287   96  1           0.7000           8.8722        -18.5616         -2.2358
     288   96  2          -0.3500           9.0085        -19.2830         -3.1339
     289   97  2          -0.3500          17.3742        -16.5678        -22.6222
     290   97  1           0.7000          17.5829        -15.4411        -22.4414
     291   97  2          -0.3500          17.7916        -14.3145        -22.2605
     292   98  2          -0.3500          10.2160         14.6176         -7.5912
     293   98  1           0.7000           9.8859         14.9595         -6.5330
     294   98  2          -0.3500           9.5558         15.3013         -5.4748
     295   99  2          -0.3500         -10.9908          3.9497          5.4000
     296   99  1           0.7000         -10.4850          4.9887          5.2984
     297   99  2          -0.3500          -9.9792          6.0276          5.1968
     298  100  2          -0.3500         -14.3673        -19.1345        -21.1513
     299  100  1           0.7000         -15.0521        -19.3948        -22.0507
     300  100  2          -0.3500         -15.7369        -19.6550        -22.9501
     301  101  2          -0.3500          -7.6289          2.4587         23.1444
     302  101  1           0.7000          -6.9982          2.3957         24.1159
     303  101  2          -0.3500          -6.3675          2.3327         25.0874
     304  102  2          -0.3500         -12.8779          2.4813         -6.2142
     305  102  1           0.7000         -11.7201          2.5524         -6.1989
     306  102  2          -0.3500         -10.5624          2.6235         -6.1837
     307  103  2          -0.3500          11.8399        -21.7541         20.4579
     308  103  1           0.7000          12.5462        -22.6660         20.5816
     309  103  2          -0.3500          13.2525        -23.5778         20.7054
     310  104  2          -0.3500          -7.3320          3.9320          5.7903
     311  104  1           0.7000          -7.7535          2.8920          6.0840
     312  104  2          -0.3500          -8.1750          1.8519          6.3776
     313  105  2          -0.3500          13.6518        -12.8493          3.4507
     314  105  1           0.7000          12.8008        -12.7126          2.6743
     315  105  2          -0.3500          11.9499        -12.5759          1.8978
     316  106  2          -0.3500          -7.2202         -0.5889        -13.2758
     317  106  1           0.7000          -7.2555         -1.7471        -13.3300
     318  106  2          -0.3500          -7.2908         -2.9053        -13.3843
     319  107  2          -0.3500         -11.4680          1.7368        -16.6791
     320  107  1           0.7000         -12.2804          2.5277        -16.4339
     321  107  2          -0.3500         -13.0927          3.3186        -16.1887
     322  108  2          -0.3500         -10.0250        -15.4482         24.6182
     323  108  1           0.7000          -9.5976        -14.8884         23.6964
     324  108  2          -0.3500          -9.1703        -14.3286         22.7747
     325  109  2          -0.3500          -8.7409         -1.3946        -17.7315
     326  109  1           0.7000          -9.7095         -1.9331        -17.3886
     327  109  2          -0.3500         -10.6780         -2.4716        -17.0457
     328  110  2          -0.3500           9.2079         19.1447         19.8004
     329  110  1           0.7000           8.2681         18.5656         19.4441
     330  110  2          -0.3500           7.3282         17.9865         19.0879
     331  111  2          -0.3500           3.9937         16.0381         -5.5912
     332  111  1           0.7000           4.8701         16.7525         -5.3319
     333  111  2          -0.3500           5.7465         17.4668         -5.0725
     334  112  2          -0.3500          -5.7410         24.4461          7.2055
     335  112  1           0.7000          -6.8736         24.6963          7.1937
     336  112  2          -0.3500          -8.0063         24.9464          7.1820
     337  113  2          -0.3500           8.1369          1.3573         18.1541
     338  113  1           0.7000           7.4741          2.0602         17.5121
     339  113  2          -0.3500           6.8112          2.7631         16.8701
     340  114  2          -0.3500         -17.2532          4.9227        -16.6643
     341  114  1           0.7000         -16.2864          5.0661        -17.2891
     342  114  2          -0.3500         -15.3196          5.2095        -17.9138
     343  115  2          -0.3500          12.2196          0.6742         17.1692
     344  115  1           0.7000          13.0286          0.1815         17.8388
     345  115  2          -0.3500          13.8376         -0.3113         18.5084
     346  116  2          -0.3500         -17.9585        -14.9997         -2.6145
     347  116  1           0.7000         -18.0400        -15.5192         -3.6484
     348  116  2          -0.3500         -18.1216        -16.0388         -4.6823
     349  117  2          -0.3500           0.7326        -19.7293         -4.2803
     350  117  1           0.7000          -0.0863        -20.3874         -4.7721
     351  117  2          -0.3500          -0.9053        -21.0455         -5.2638
     352  118  2          -0.3500          23.5583          8.8816         19.8994
     353  118  1           0.7000          24.2563          9.3450         20.7017
     354  118  2          -0.3500          24.9543          9.8084         21.5040
     355  119  2          -0.3500           3.9303        -13.8171         22.8975
     356  119  1           0.7000           4.1869        -12.6947         23.0385
     357  119  2          -0.3500           4.4435        -11.5722         23.1794
     358  120  2          -0.3500          11.5741         12.3093        -22.8101