LAMMPS (18 Feb 2020)
# bfo in a 3d periodic box

units 		metal
dimension 	3
boundary 	p p f
atom_style 	spin

# necessary for the serial algorithm (sametag)
atom_modify 	map array

lattice 	sc 3.96
Lattice spacing in x,y,z = 3.96 3.96 3.96
region 		box block 0.0 34.0 0.0 34.0 0.0 1.0
create_box 	1 box
Created orthogonal box = (0 0 0) to (134.64 134.64 3.96)
  1 by 1 by 1 MPI processor grid
create_atoms 	1 box
Created 1156 atoms
  create_atoms CPU = 0.00190592 secs

# setting mass, mag. moments, and interactions for bcc iron

mass		1 1.0
set 		group all spin/random 11 2.50
  1156 settings made for spin/random

pair_style 	hybrid/overlay spin/exchange 6.0 spin/magelec 4.5 spin/dmi 4.5
pair_coeff 	* * spin/exchange exchange 6.0 -0.01575 0.0 1.965
#pair_coeff 	* * spin/magelec magelec 4.5 0.000109 1.0 1.0 1.0
pair_coeff 	* * spin/magelec magelec 4.5 0.00109 1.0 1.0 1.0
pair_coeff 	* * spin/dmi dmi 4.5 0.00005 1.0 1.0 1.0

neighbor 	0.1 bin
neigh_modify 	every 10 check yes delay 20

fix 		1 all precession/spin anisotropy 0.0000033 0.0 0.0 1.0
fix_modify	1 energy yes

timestep	0.0001

compute 	out_mag    all spin
compute 	out_pe     all pe
compute 	out_ke     all ke
compute 	out_temp   all temp

variable 	magz      equal c_out_mag[3]
variable 	magnorm   equal c_out_mag[4]
variable 	emag      equal c_out_mag[5]
variable 	tmag      equal c_out_mag[6]

thermo          50
thermo_style    custom step time v_magnorm v_emag v_tmag temp etotal
thermo_modify   format float %20.15g

compute 	outsp all property/atom spx spy spz sp fmx fmy fmz
dump 		1 all custom 50 dump.lammpstrj type x y z c_outsp[1] c_outsp[2] c_outsp[3] c_outsp[4] c_outsp[5] c_outsp[6] c_outsp[7]

min_style	spin/lbfgs
# min_modify 	line spin_cubic discrete_factor 10.0
min_modify	norm max
minimize        1.0e-15 1.0e-10 1000 100
WARNING: Using 'neigh_modify every 1 delay 0 check yes' setting during minimization (../min.cpp:190)
WARNING: Line search incompatible gneb (../min_spin_lbfgs.cpp:109)
WARNING: Using spin pair style without nve/spin or neb/spin (../pair_spin.cpp:88)
WARNING: Using spin pair style without nve/spin or neb/spin (../pair_spin.cpp:88)
WARNING: Using spin pair style without nve/spin or neb/spin (../pair_spin.cpp:88)
Neighbor list info ...
  update every 1 steps, delay 0 steps, check yes
  max neighbors/atom: 2000, page size: 100000
  master list distance cutoff = 6.1
  ghost atom cutoff = 6.1
  binsize = 3.05, bins = 45 45 2
  3 neighbor lists, perpetual/occasional/extra = 3 0 0
  (1) pair spin/exchange, perpetual
      attributes: full, newton on
      pair build: full/bin/atomonly
      stencil: full/bin/3d
      bin: standard
  (2) pair spin/magelec, perpetual, copy from (1)
      attributes: full, newton on
      pair build: copy
      stencil: none
      bin: none
  (3) pair spin/dmi, perpetual, copy from (1)
      attributes: full, newton on
      pair build: copy
      stencil: none
      bin: none
Per MPI rank memory allocation (min/avg/max) = 7.748 | 7.748 | 7.748 Mbytes
Step Time v_magnorm v_emag v_tmag Temp TotEng 
       0                    0   0.0205636053306396    -0.21723077139301     3074.80958674664                    0    -0.21723077139301 
      50                0.005 0.000800557938107919    -19.3172378712837    0.587052452031493                    0    -19.3172378712837 
     100                 0.01 0.000434178067296136    -19.6347095376085    0.273684186181794                    0    -19.6347095376086 
     150                0.015 9.48307628510239e-06    -19.7051208100556  0.00167029725424758                    0    -19.7051208100558 
     200                 0.02 9.40072944704056e-06    -19.7061021549234 1.54466954002072e-05                    0    -19.7061021549234 
     250                0.025 5.05117500164935e-07    -19.7061079450706 1.14487564389966e-07                    0    -19.7061079450706 
     300                 0.03 2.15063977474981e-09    -19.7061079411039 4.19940489046789e-12                    0    -19.7061079411039 
     350                0.035 2.68770538011538e-10    -19.7061079387852 4.28062843775746e-14                    0     -19.706107938785 
     355               0.0355 3.55891894817714e-11    -19.7061079389004 1.20287624754126e-15                    0    -19.7061079389003 
Loop time of 0.409322 on 1 procs for 355 steps with 1156 atoms

99.0% CPU use with 1 MPI tasks x no OpenMP threads

Minimization stats:
  Stopping criterion = force tolerance
  Energy initial, next-to-last, final = 
       -0.217230771393     -19.7061079389     -19.7061079389
  Force two-norm initial, final = 0 0
  Force max component initial, final = 0 0
  Final line search alpha, max atom move = 0 0
  Iterations, force evaluations = 355 355

MPI task timing breakdown:
Section |  min time  |  avg time  |  max time  |%varavg| %total
---------------------------------------------------------------
Pair    | 0.344      | 0.344      | 0.344      |   0.0 | 84.04
Neigh   | 0          | 0          | 0          |   0.0 |  0.00
Comm    | 0.0013642  | 0.0013642  | 0.0013642  |   0.0 |  0.33
Output  | 0.021055   | 0.021055   | 0.021055   |   0.0 |  5.14
Modify  | 0.0024285  | 0.0024285  | 0.0024285  |   0.0 |  0.59
Other   |            | 0.04048    |            |       |  9.89

Nlocal:    1156 ave 1156 max 1156 min
Histogram: 1 0 0 0 0 0 0 0 0 0
Nghost:    213 ave 213 max 213 min
Histogram: 1 0 0 0 0 0 0 0 0 0
Neighs:    0 ave 0 max 0 min
Histogram: 1 0 0 0 0 0 0 0 0 0
FullNghs:  9248 ave 9248 max 9248 min
Histogram: 1 0 0 0 0 0 0 0 0 0

Total # of neighbors = 9248
Ave neighs/atom = 8
Neighbor list builds = 0
Dangerous builds = 0

Please see the log.cite file for references relevant to this simulation

Total wall time: 0:00:00
