LAMMPS (30 Oct 2019)
# bfo in a 3d periodic box

units 		metal
dimension 	3
boundary 	p p f
atom_style 	spin

# necessary for the serial algorithm (sametag)
atom_modify 	map array

lattice 	sc 3.96
Lattice spacing in x,y,z = 3.96 3.96 3.96
region 		box block 0.0 34.0 0.0 34.0 0.0 1.0
create_box 	1 box
Created orthogonal box = (0 0 0) to (134.64 134.64 3.96)
  2 by 2 by 1 MPI processor grid
create_atoms 	1 box
Created 1156 atoms
  create_atoms CPU = 0.000618935 secs

# setting mass, mag. moments, and interactions for bcc iron

mass		1 1.0
set 		group all spin/random 11 2.50
  1156 settings made for spin/random

pair_style 	hybrid/overlay spin/exchange 6.0 spin/magelec 4.5 spin/dmi 4.5
pair_coeff 	* * spin/exchange exchange 6.0 -0.01575 0.0 1.965
#pair_coeff 	* * spin/magelec magelec 4.5 0.000109 1.0 1.0 1.0
pair_coeff 	* * spin/magelec magelec 4.5 0.00109 1.0 1.0 1.0
pair_coeff 	* * spin/dmi dmi 4.5 0.00005 1.0 1.0 1.0

neighbor 	0.1 bin
neigh_modify 	every 10 check yes delay 20

fix 		1 all precession/spin anisotropy 0.0000033 0.0 0.0 1.0
fix_modify	1 energy yes

timestep	0.0001

compute 	out_mag    all spin
compute 	out_pe     all pe
compute 	out_ke     all ke
compute 	out_temp   all temp

variable 	magz      equal c_out_mag[3]
variable 	magnorm   equal c_out_mag[4]
variable 	emag      equal c_out_mag[5]
variable 	tmag      equal c_out_mag[6]

thermo          50
thermo_style    custom step time v_magnorm v_emag v_tmag temp etotal
thermo_modify   format float %20.15g

compute 	outsp all property/atom spx spy spz sp fmx fmy fmz
dump 		1 all custom 50 dump.lammpstrj type x y z c_outsp[1] c_outsp[2] c_outsp[3] c_outsp[4] c_outsp[5] c_outsp[6] c_outsp[7]

min_style	spin/lbfgs
# min_modify 	line spin_cubic discrete_factor 10.0
min_modify	norm max
minimize        1.0e-15 1.0e-10 1000 100
WARNING: Using 'neigh_modify every 1 delay 0 check yes' setting during minimization (../min.cpp:177)
WARNING: Line search incompatible gneb (../min_spin_lbfgs.cpp:109)
WARNING: Using spin pair style without nve/spin or neb/spin (../pair_spin.cpp:87)
WARNING: Using spin pair style without nve/spin or neb/spin (../pair_spin.cpp:87)
WARNING: Using spin pair style without nve/spin or neb/spin (../pair_spin.cpp:87)
Neighbor list info ...
  update every 1 steps, delay 0 steps, check yes
  max neighbors/atom: 2000, page size: 100000
  master list distance cutoff = 6.1
  ghost atom cutoff = 6.1
  binsize = 3.05, bins = 45 45 2
  3 neighbor lists, perpetual/occasional/extra = 3 0 0
  (1) pair spin/exchange, perpetual
      attributes: full, newton on
      pair build: full/bin/atomonly
      stencil: full/bin/3d
      bin: standard
  (2) pair spin/magelec, perpetual, copy from (1)
      attributes: full, newton on
      pair build: copy
      stencil: none
      bin: none
  (3) pair spin/dmi, perpetual, copy from (1)
      attributes: full, newton on
      pair build: copy
      stencil: none
      bin: none
Per MPI rank memory allocation (min/avg/max) = 7.619 | 7.619 | 7.619 Mbytes
Step Time v_magnorm v_emag v_tmag Temp TotEng 
       0                    0   0.0205636053306396   -0.217760509274282     1541.29975585882                    0   -0.217230771393012 
      50                0.005 0.000966655616837406    -19.2878369426356    0.312860071233841                    0    -19.3229939390148 
     100                 0.01  0.00154452800191107    -19.5948898197917    0.365367666925029                    0    -19.6389064900413 
     150                0.015 4.89955946750017e-05    -19.6962580067431 0.000385536538802408                    0    -19.7047140195852 
     200                 0.02 5.66300530875654e-05    -19.6975252647309  9.8679922880911e-05                    0    -19.7059140354146 
     250                0.025 5.21141123128679e-08    -19.6975359469038 2.52554968535685e-09                    0    -19.7059189333986 
     300                 0.03  2.9845103782958e-09    -19.6975359475094 2.31782597655471e-11                    0    -19.7059191124033 
     342               0.0342  1.0526549233076e-10    -19.6975359475123 3.65641352240487e-16                    0    -19.7059191178145 
Loop time of 0.234594 on 4 procs for 342 steps with 1156 atoms

93.1% CPU use with 4 MPI tasks x no OpenMP threads

Minimization stats:
  Stopping criterion = force tolerance
  Energy initial, next-to-last, final = 
       -0.217230771393     -19.7059191178     -19.7059191178
  Force two-norm initial, final = 0 0
  Force max component initial, final = 0 0
  Final line search alpha, max atom move = 0 0
  Iterations, force evaluations = 342 342

MPI task timing breakdown:
Section |  min time  |  avg time  |  max time  |%varavg| %total
---------------------------------------------------------------
Pair    | 0.097515   | 0.12325    | 0.15193    |   7.4 | 52.54
Neigh   | 0          | 0          | 0          |   0.0 |  0.00
Comm    | 0.038284   | 0.061142   | 0.081045   |   8.1 | 26.06
Output  | 0.008667   | 0.0086921  | 0.0087271  |   0.0 |  3.71
Modify  | 0.00063705 | 0.00084341 | 0.0010526  |   0.0 |  0.36
Other   |            | 0.04067    |            |       | 17.34

Nlocal:    289 ave 289 max 289 min
Histogram: 4 0 0 0 0 0 0 0 0 0
Nghost:    111 ave 111 max 111 min
Histogram: 4 0 0 0 0 0 0 0 0 0
Neighs:    0 ave 0 max 0 min
Histogram: 4 0 0 0 0 0 0 0 0 0
FullNghs:  2312 ave 2312 max 2312 min
Histogram: 4 0 0 0 0 0 0 0 0 0

Total # of neighbors = 9248
Ave neighs/atom = 8
Neighbor list builds = 0
Dangerous builds = 0

Please see the log.cite file for references relevant to this simulation

Total wall time: 0:00:00
