LAMMPS data file via write_data, version 23 Jun 2022, timestep = 5000

726 atoms
4 atom types
420 bonds
1 bond types
210 angles
1 angle types

0 17.6494 xlo xhi
0 20.3798 ylo yhi
0 26.0000 zlo zhi

Masses

1 500
2 196.97
3 15.9994
4 1.008

Pair Coeffs # lj/cut/coul/long

1 0.069 2.78
2 5.29 2.951
3 0.1553 3.166
4 0 0

Bond Coeffs # harmonic

1 600 1

Angle Coeffs # harmonic

1 75 109.47

Atoms # full

49 25 2 0 0 0 2.4018 0 0 0
50 25 2 0 1.4708 2.5475 2.4018 0 0 0
51 26 2 0 0 5.0949 2.4018 0 0 0
57 29 2 0 2.9416 0 2.4018 0 0 0
58 29 2 0 4.4124 2.5475 2.4018 0 0 0
59 30 2 0 2.9416 5.0949 2.4018 0 0 0
65 33 2 0 5.8832 0 2.4018 0 0 0
66 33 2 0 7.354000000000001 2.5475 2.4018 0 0 0
67 34 2 0 5.8832 5.0949 2.4018 0 0 0
243 97 4 0.4238 4.215372213007002 2.2225202484567896 5.2803935587652235 0 0 0
52 26 2 0 1.4708 7.6424 2.4018 0 0 0
53 27 2 0 0 10.1898 2.4018 0 0 0
60 30 2 0 4.4124 7.6424 2.4018 0 0 0
61 31 2 0 2.9416 10.1898 2.4018 0 0 0
68 34 2 0 7.354000000000001 7.6424 2.4018 0 0 0
69 35 2 0 5.8832 10.1898 2.4018 0 0 0
387 145 4 0.4238 5.821325736406644 4.80211316415021 5.03726935778638 0 0 0
260 103 4 0.4238 4.266650899557808 6.124697675258705 6.600494419311919 0 0 0
277 109 3 -0.8476 1.1595300211865478 9.226136831721583 5.6374387660682395 0 0 0
422 157 4 0.4238 5.186379561937092 9.246331162340214 5.010378323358909 0 0 0
278 109 4 0.4238 0.16509455550271238 9.324889581001292 5.600728087976438 0 0 0
421 157 3 -0.8476 4.267061402816361 8.96456307950511 5.285080645137098 0 0 0
372 140 4 0.4238 7.72049151444727 3.1081049977971733 5.624439615628745 0 0 0
241 97 3 -0.8476 4.979583082691343 1.5807071976248444 5.344102790419773 0 0 0
367 139 3 -0.8476 3.3292653199701174 3.842283776550616 5.301650818590438 0 0 0
368 139 4 0.4238 3.684070197838302 4.776085383558861 5.2555059732229505 0 0 0
369 139 4 0.4238 2.4614244393932903 3.790665660238261 4.807496843609001 0 0 0
237 95 4 0.4238 0.8688372424570395 0.5637480725652825 15.837861037745109 0 0 0
242 97 4 0.4238 5.838317925620407 2.08972820515595 5.4030316190296865 0 0 0
244 98 3 -0.8476 3.06007349186706 3.3156446548102743 7.800821206312822 0 0 0
245 98 4 0.4238 3.292495500569735 3.349267797972537 6.828787504752208 0 0 0
246 98 4 0.4238 3.244639762451247 4.205236417313474 8.21862706780732 0 0 0
357 135 4 0.4238 5.599931101613284 2.8266561120576155 8.823939192896898 0 0 0
248 99 4 0.4238 4.69094628305157 1.7475560287256833 10.940028326694172 0 0 0
355 135 3 -0.8476 6.1056692668831944 3.4565727858406277 8.234503978839392 0 0 0
370 140 3 -0.8476 8.260944365686607 2.344956325089386 5.9787203639370485 0 0 0
5 3 1 0 0 10.1898 21.4018 0 0 0
115 55 3 -0.8476 0.6685955791423209 1.1406007302132561 5.285707584884053 0 0 0
117 55 4 0.4238 0.8471253049325846 2.1223521279380155 5.351215251536808 0 0 0
337 129 3 -0.8476 3.5673781090835357 0.1584650058169618 11.855592597757308 0 1 0
423 157 4 0.4238 3.5925256519953384 9.568512539363969 4.86052578384893 0 0 0
388 146 3 -0.8476 4.577545906676629 5.911730949363624 8.247639703277793 0 0 0
371 140 4 0.4238 8.763880514062548 2.641297854555424 6.790654426306619 0 0 0
389 146 4 0.4238 5.229395912055183 5.212412787511029 8.540975963214175 0 0 0
498 182 4 0.4238 8.708572501204229 1.6439616819374039 8.893386862511662 0 0 0
499 183 3 -0.8476 8.788151456935827 1.747387315190607 11.831408961401284 0 0 0
356 135 4 0.4238 7.087379176847249 3.3036660348840203 8.347928594928105 0 0 0
235 95 3 -0.8476 1.101376037954613 0.60797910815167 14.866280241985807 0 0 0
338 129 4 0.4238 3.086322043066555 0.17977406211341077 10.979161321324465 0 1 0
101 50 4 0.4238 2.3452088829773485 1.679109649521978 7.998572278214729 0 0 0
102 50 4 0.4238 1.7396190746664724 0.7815651122817325 6.776156174616777 0 0 0
264 104 4 0.4238 1.314649046187711 7.151850339115251 5.356458350291402 0 0 0
261 103 4 0.4238 4.344863408391302 7.229373831864509 5.400411210770298 0 0 0
385 145 3 -0.8476 6.530003789922046 4.200582924498773 5.405965238572253 0 0 0
386 145 4 0.4238 6.338765403718886 4.011523164034656 6.369128936305808 0 0 0
390 146 4 0.4238 4.287287022740962 6.4497527910965 9.039019879824611 0 0 0
259 103 3 -0.8476 4.571078813074718 6.29125568333872 5.662634084209634 0 0 0
289 113 3 -0.8476 4.563599041145234 10.086229905664549 15.478505257325894 0 0 0
262 104 3 -0.8476 0.9505514460098017 6.233602776791171 5.200720279695964 0 0 0
234 94 4 0.4238 4.252305918517927 1.5104772744979198 15.776671832358746 0 0 0
280 110 3 -0.8476 1.4649156019387215 8.625787955794543 8.210124183091255 0 0 0
282 110 4 0.4238 1.2707547191832915 8.813324944957127 7.247247535393375 0 0 0
404 151 4 0.4238 7.729904936627753 8.547350043185194 4.926160208837444 0 0 0
405 151 4 0.4238 7.2770516978143425 8.988822091523867 6.431700948049315 0 0 0
406 152 3 -0.8476 6.948766849242647 7.673937623994841 7.644671158708728 0 0 0
407 152 4 0.4238 6.525795796205249 7.732575312342498 8.54891509101289 0 0 0
408 152 4 0.4238 6.276846030142793 7.340427836539666 6.983389418751862 0 0 0
281 110 4 0.4238 2.4144110839464337 8.86628530860492 8.41166651398434 0 0 0
20 10 1 0 7.354000000000001 7.6424 21.4018 0 0 0
403 151 3 -0.8476 7.1864312239576424 9.196956401727144 5.457807169763902 0 0 0
140 63 4 0.4238 0.4912611771674119 5.483308431151843 7.32949919291062 0 0 0
285 111 4 0.4238 2.222990438980817 7.758768979093943 9.602927616521612 0 0 0
409 153 3 -0.8476 5.935160755403179 7.784141671985828 10.24740953450964 0 0 0
410 153 4 0.4238 4.93909044392348 7.872166125675881 10.23761068803176 0 0 0
283 111 3 -0.8476 2.9298247024233324 7.37829634209124 10.199271578404066 0 0 0
284 111 4 0.4238 2.726159641339314 7.613476216764882 11.149646102042892 0 0 0
300 116 4 0.4238 4.275274919124041 9.222842133138407 7.0364892960604974 0 0 0
512 187 4 0.4238 8.159095215967982 5.212728585270325 5.862691743711303 0 0 0
298 116 3 -0.8476 4.190494283036901 9.481049160440392 7.998852108176557 0 0 0
13 7 1 0 2.9416 10.1898 21.4018 0 0 0
167 72 4 0.4238 0.6888402225915744 9.490941300073734 17.687956507725275 0 0 0
429 159 4 0.4238 6.704370008541906 9.570813638495862 9.75268746894169 0 0 0
108 52 4 0.4238 0.4307356664021716 1.1201849372165382 13.39567680690473 0 0 0
12 6 1 0 4.4124 7.6424 21.4018 0 0 0
247 99 3 -0.8476 4.798369931390891 2.717477731578589 10.72159669011324 0 0 0
249 99 4 0.4238 5.569724797087956 3.0916316888033455 11.236399566632782 0 0 0
267 105 4 0.4238 3.62546649656917 4.334166934495396 11.516982003845238 0 0 0
150 66 4 0.4238 0.3228287181315222 5.899276873013697 16.725238911862725 0 0 0
232 94 3 -0.8476 4.980041500359598 0.8346261397826029 15.659938276309026 0 0 0
103 51 3 -0.8476 1.3815948057839214 1.9892393072986618 10.960941799077768 0 0 0
105 51 4 0.4238 2.0221030524072807 2.7460833084547516 11.091083546320654 0 0 0
250 100 3 -0.8476 2.301722380036556 5.246668471215713 14.405023028095087 0 0 0
251 100 4 0.4238 2.9853736210987964 5.6903907848833 14.984447511680715 0 0 0
252 100 4 0.4238 1.395180212806813 5.361974054490418 14.811085553109534 0 0 0
373 141 3 -0.8476 6.646815591730961 3.269837172643641 12.49061507590581 0 0 0
374 141 4 0.4238 7.61695093879876 3.3495637297543572 12.261527610728375 0 0 0
375 141 4 0.4238 6.481076944432454 2.390896252454289 12.937821497826814 0 0 0
104 51 4 0.4238 0.6408775265357468 2.0608378879286913 11.628933096734032 0 0 0
265 105 3 -0.8476 2.665829598310941 4.431310187121227 11.780914482870632 0 0 0
144 64 4 0.4238 1.1190003692376955 5.0763854683727105 11.194475677541284 0 0 0
229 93 3 -0.8476 5.942159660769991 0.7056663353811532 13.066706981458427 0 0 0
266 105 4 0.4238 2.6102606372647403 4.846758214864171 12.688832882140309 0 0 0
395 148 4 0.4238 6.791261132816323 5.2898024056276745 12.585701895393779 0 0 0
496 182 3 -0.8476 8.656612808236074 2.6043956420410055 8.619768961623533 0 0 0
358 136 3 -0.8476 7.858969118177482 4.323431351970546 15.158280395791389 0 0 0
360 136 4 0.4238 7.311852997599627 4.141096884179606 14.341323716565022 0 0 0
253 101 3 -0.8476 3.817665348062464 7.236922003920382 15.80944183548915 0 0 0
17 9 1 0 5.8832 0 21.4018 0 0 0
19 10 1 0 5.8832 5.0949 21.4018 0 0 0
100 50 3 -0.8476 2.0394304158997083 0.7656654195905199 7.730022146575006 0 0 0
178 76 3 -0.8476 5.452117716887525 9.18307317194898 13.15234900976541 0 0 0
230 93 4 0.4238 5.059291011599534 0.38866725021142023 12.720218114220543 0 0 0
231 93 4 0.4238 6.65052979327983 0.5320676483156337 12.382546751012228 0 0 0
438 162 4 0.4238 7.136291463905622 9.772834868066683 17.139493058543497 0 0 0
392 147 4 0.4238 8.38899132126725 5.8867041743537785 10.871264350514622 0 0 0
111 53 4 0.4238 0.6985999830537806 1.3383536972275127 18.387030005691326 0 0 0
180 76 4 0.4238 5.066448032980861 9.32084082718892 14.064642262682645 0 0 0
233 94 4 0.4238 5.359631037926651 0.9094520875690633 14.737813568002778 0 0 0
132 60 4 0.4238 0.8001204790197485 3.675543835266074 19.791162893511412 0 0 0
286 112 3 -0.8476 3.0492447110060503 7.857786324043542 12.841804772376726 0 0 0
287 112 4 0.4238 3.2098640427703793 7.07245726341082 13.43968410246133 0 0 0
288 112 4 0.4238 3.8390372213919517 8.470176800208547 12.876525558331952 0 0 0
394 148 3 -0.8476 7.2698038333003865 6.06308390013827 12.169729898590939 0 0 0
396 148 4 0.4238 7.625134114087918 6.6608118801271505 12.888382847618582 0 0 0
411 153 4 0.4238 6.2467858019307405 7.628185967709829 11.184729075452916 0 0 0
166 72 3 -0.8476 0.0743206093292875 9.473569850066479 18.47666767184439 0 0 0
159 69 4 0.4238 1.5369814113431812 8.581432976068813 12.91659053642449 0 0 0
398 149 4 0.4238 8.017182850481422 8.5320782164775 15.13105927119312 0 0 0
2 1 1 0 1.4708 2.5475 21.4018 0 0 0
1 1 1 0 0 0 21.4018 0 0 0
179 76 4 0.4238 5.808389160323009 10.05110184314008 12.80652118090145 0 0 0
397 149 3 -0.8476 7.8632248442135975 8.280908077117292 14.175438467851688 0 0 0
255 101 4 0.4238 4.224951823034336 7.092621650496108 16.711270553877267 0 0 0
157 69 3 -0.8476 0.7114882871642291 9.135205749045086 12.807511759002331 0 0 0
399 149 4 0.4238 7.140453712689584 8.855850348945147 13.791975805848095 0 0 0
123 57 4 0.4238 0.1728626542764581 2.0181635873205455 9.55686086062765 0 0 0
225 91 4 0.4238 7.816768412673801 0.8081877810287403 6.235830770216829 0 0 0
21 11 1 0 5.8832 10.1898 21.4018 0 0 0
417 155 4 0.4238 7.446840838580808 7.638526256652861 17.47844985435655 0 0 0
362 137 4 0.4238 8.438368672558527 1.697843860243226 18.184511664154215 0 0 0
129 59 4 0.4238 2.3771977665576043 1.8808184338387064 14.85662965445542 0 0 0
359 136 4 0.4238 8.004317147899858 3.470311511692344 15.659339900839715 0 0 0
128 59 4 0.4238 2.5853876652451317 3.4859493525534666 14.640206423330152 0 0 0
256 102 3 -0.8476 3.36490296390101 2.609708506768986 18.019307140512538 0 0 0
257 102 4 0.4238 2.989126363066441 2.6901816560721703 17.09609745176498 0 0 0
258 102 4 0.4238 3.0647304195149228 1.7475126999269013 18.42736968436024 0 0 0
382 144 3 -0.8476 6.308567838033942 2.476405458922918 18.00362734600325 0 0 0
383 144 4 0.4238 6.593826337020496 3.427881594462966 17.888209006303875 0 0 0
384 144 4 0.4238 5.361992496088107 2.3728369988438636 17.69822741313443 0 0 0
272 107 4 0.4238 3.0726725732915128 4.603284898982291 18.635316954863068 0 0 0
136 62 3 -0.8476 0.23948646424302802 3.6277413105394416 5.266501733024619 0 0 0
365 138 4 0.4238 6.60152996763605 0.43507104006823966 18.019264498760286 0 0 0
127 59 3 -0.8476 3.0145932097721304 2.643552260009665 14.96601392575784 0 0 0
271 107 3 -0.8476 2.827278930096859 5.559554731210942 18.476163062225744 0 0 0
158 69 4 0.4238 0.16630528129120115 9.089290910056087 13.644570644109479 0 0 0
143 64 4 0.4238 0.11900142343143351 5.141919127824521 9.905160447540569 0 0 0
415 155 3 -0.8476 7.9442542108115335 8.345727638599643 16.976009837116557 0 0 0
4 2 1 0 1.4708 7.6424 21.4018 0 0 0
276 108 4 0.4238 5.037529413861975 7.933581116564438 18.631487966790633 0 0 0
254 101 4 0.4238 3.6649393772595342 8.214616238881469 15.66525877571223 0 0 0
273 107 4 0.4238 1.8466314153892824 5.625798601756419 18.291929064604975 0 0 0
612 220 4 0.4238 0.010930989959980764 2.2950979118534867 16.414655321355454 1 0 0
402 150 4 0.4238 7.106876741389108 5.041237644705272 16.640202749296954 0 0 0
401 150 4 0.4238 6.160816653506991 5.742470969945153 17.771516210789446 0 0 0
400 150 3 -0.8476 6.996177466129156 5.214390702343716 17.618857043546885 0 0 0
274 108 3 -0.8476 5.0193324614485215 7.043802573153883 18.17545833659005 0 0 0
528 192 4 0.4238 8.623421722431294 5.7883736084345525 18.747118071306133 0 0 0
275 108 4 0.4238 4.270941130836966 6.494210206303432 18.54675158901018 0 0 0
130 60 3 -0.8476 0.30151484910318527 2.9901129901722614 19.260524594746823 0 0 0
11 6 1 0 2.9416 5.0949 21.4018 0 0 0
18 9 1 0 7.354000000000001 2.5475 21.4018 0 0 0
3 2 1 0 0 5.0949 21.4018 0 0 0
10 5 1 0 4.4124 2.5475 21.4018 0 0 0
9 5 1 0 2.9416 0 21.4018 0 0 0
418 156 3 -0.8476 4.815860863260777 9.600073631276539 19.091570737625037 0 0 0
339 129 4 0.4238 2.9025423126390995 0.19480209169066873 12.601698136013006 0 1 0
109 53 3 -0.8476 0.7320791233467872 0.6615070322554488 17.651667727097692 0 0 0
165 71 4 0.4238 2.859472025585106 9.797582345892868 15.993242699480307 0 0 0
142 64 3 -0.8476 0.16654348806994 5.167371806030668 10.903705304455558 0 0 0
163 71 3 -0.8476 1.9414938951301373 9.863706489144873 16.384324307347644 0 0 0
138 62 4 0.4238 0.46610741541910466 4.573831154626459 5.035076125954408 0 0 0
110 53 4 0.4238 1.4763821044438006 0.016750063584620126 17.82574113464481 0 0 0
148 66 3 -0.8476 0.2769703268883889 5.693561891799246 17.702776395141402 0 0 0
168 72 4 0.4238 0.3851910025501984 8.779692776604824 19.126201816661716 0 0 0
155 68 4 0.4238 0.10882260140155935 8.290546750038025 9.473605554039466 0 0 0
419 156 4 0.4238 4.047967060581894 10.091196220875956 19.502834381376417 0 0 0
279 109 4 0.4238 1.5891078696758345 10.112454310586116 5.464507454644324 0 0 0
291 113 4 0.4238 5.063106516523704 9.955504370697694 16.334894862001168 0 0 0
54 27 2 0 1.4708 12.7373 2.4018 0 0 0
55 28 2 0 0 15.2847 2.4018 0 0 0
62 31 2 0 4.4124 12.7373 2.4018 0 0 0
63 32 2 0 2.9416 15.2847 2.4018 0 0 0
70 35 2 0 7.354000000000001 12.7373 2.4018 0 0 0
71 36 2 0 5.8832 15.2847 2.4018 0 0 0
318 122 4 0.4238 2.4931000294030397 14.68049042504776 5.4920668045650025 0 0 0
296 115 4 0.4238 2.208767730761098 12.293362577947239 5.072155343064113 0 0 0
295 115 3 -0.8476 2.7410377681036264 11.51283534649287 5.39997510809189 0 0 0
199 83 3 -0.8476 0.06129132430832457 15.968850902749507 14.273604552188592 0 0 0
212 87 4 0.4238 0.3953399839920288 18.41963167641668 8.462803851856744 0 0 0
56 28 2 0 1.4708 17.8322 2.4018 0 0 0
64 32 2 0 4.4124 17.8322 2.4018 0 0 0
72 36 2 0 7.354000000000001 17.8322 2.4018 0 0 0
297 115 4 0.4238 3.5789798694053823 11.840523499251022 5.836407740178439 0 0 0
316 122 3 -0.8476 1.631070916269115 14.178948300051426 5.418846200398046 0 0 0
596 215 4 0.4238 7.109490500299251 16.657127794200864 15.625332570434084 0 0 0
314 121 4 0.4238 4.490843993311033 14.308637759802288 5.7106306175219235 0 0 0
317 122 4 0.4238 1.2228714849231572 14.08342483249297 6.326727512493262 0 0 0
174 74 4 0.4238 0.10528366135845268 10.672156321950682 8.064974532168508 0 0 0
424 158 3 -0.8476 5.101470449901436 12.351136442855362 8.772696925752863 0 0 0
425 158 4 0.4238 5.649118560615081 11.587884372956601 9.115520413794723 0 0 0
426 158 4 0.4238 5.518356916008868 13.214561207653139 9.056780336843094 0 0 0
439 163 3 -0.8476 5.216895399703456 12.666087681674787 6.107919140409087 0 0 0
440 163 4 0.4238 5.134428643535018 12.421224390109284 7.073963155217279 0 0 0
441 163 4 0.4238 6.100613681787685 13.106659778250902 5.950000862088552 0 0 0
443 164 4 0.4238 3.0179543685175823 12.072582679909768 8.848462487266309 0 0 0
445 165 3 -0.8476 6.966218323718499 14.281372161941382 9.127169341964189 0 0 0
447 165 4 0.4238 7.624646039950888 13.622453813299824 8.763439333415302 0 0 0
460 170 3 -0.8476 7.231000148289769 14.474338072546802 5.1752234073088434 0 0 0
566 205 4 0.4238 7.518646792922765 11.165670099715314 5.4767432294161615 0 0 0
313 121 3 -0.8476 4.249374596810806 15.278291683142973 5.672357126140297 0 0 0
446 165 4 0.4238 6.995056551501562 15.117996997967099 8.580152736531433 0 0 0
442 164 3 -0.8476 2.144166379995316 11.593027145751554 8.767705401585385 0 0 0
444 164 4 0.4238 1.865344831645564 11.254665778946087 9.666466135499824 0 0 0
462 170 4 0.4238 6.776273488291953 15.331599425251477 5.4167323900106 0 0 0
299 116 4 0.4238 4.0091104777731 10.462167685474132 8.065982115733604 0 0 0
192 80 4 0.4238 1.3860580922058752 13.1436420054917 8.112211821661765 0 0 0
223 91 3 -0.8476 7.52144010123177 20.2328986694854 6.260038148125913 0 -1 0
567 205 4 0.4238 7.955736322443579 12.60235407524488 4.835245774032379 0 0 0
305 118 4 0.4238 6.893786791944795 11.515500740653623 11.433469545335605 0 0 0
461 170 4 0.4238 8.21976057692041 14.619771975490195 5.140557051180058 0 0 0
164 71 4 0.4238 1.3048907045107163 10.192492429629349 15.686730789235462 0 0 0
99 49 4 0.4238 1.0827619391029717 18.26873197575731 5.107129350002369 0 -1 0
352 134 3 -0.8476 8.394595542324181 20.120875755975867 8.788527591447366 0 -1 0
569 206 4 0.4238 8.682110941177735 16.514860767752086 8.0240313566335 0 0 0
333 127 4 0.4238 2.504646078973971 17.96447094238861 6.618993185042102 0 0 0
315 121 4 0.4238 5.057127339180615 15.813425143166752 5.425034770839435 0 0 0
331 127 3 -0.8476 2.954653688178904 17.216242853434046 7.106485686197738 0 0 0
332 127 4 0.4238 3.3551983060071806 16.58127747290928 6.445892087695467 0 0 0
334 128 3 -0.8476 5.043566489540578 18.004186709137286 9.213366138097703 0 0 0
335 128 4 0.4238 4.8534442245780065 17.08711847665592 9.563850392227947 0 0 0
336 128 4 0.4238 4.502654882669719 18.164209712655897 8.387650033745803 0 0 0
457 169 3 -0.8476 6.386951423593993 17.09407894375587 5.485002802094392 0 0 0
458 169 4 0.4238 5.61892086420923 17.69724507997371 5.269782898552741 0 0 0
459 169 4 0.4238 7.245351610676392 17.55200717248309 5.253808457823567 0 0 0
587 212 4 0.4238 6.379917790162203 17.31978420187041 8.579723356366076 0 0 0
319 123 3 -0.8476 2.0677114935593575 19.18609967444404 9.32533337014183 0 0 0
320 123 4 0.4238 2.090368391204653 20.00813559780426 8.756348571129193 0 0 0
97 49 3 -0.8476 1.7504097903352551 18.96219016666924 5.377983758614883 0 -1 0
228 92 4 0.4238 3.581463417361676 19.071976505337624 5.184605072808598 0 -1 0
588 212 4 0.4238 6.867012146053887 16.99579012623044 7.055127228361595 0 0 0
586 212 3 -0.8476 7.025608428738302 16.797780868958256 8.022411877651955 0 0 0
354 134 4 0.4238 7.827463202425872 20.019031781296853 7.971221332030429 0 -1 0
226 92 3 -0.8476 4.562210484918086 19.26013212674296 5.1323305800502 0 -1 0
193 81 3 -0.8476 0.8245833071004024 15.300666811708652 10.602945389409069 0 0 0
321 123 4 0.4238 2.6437193555376313 18.479848078853944 8.913722343322581 0 0 0
227 92 4 0.4238 4.712710077676816 20.248725681455316 5.1380374657472725 0 -1 0
98 49 4 0.4238 1.3169099320926019 19.863308853601175 5.370047176076334 0 -1 0
195 81 4 0.4238 1.045026299766095 16.23909236758004 10.868960098517407 0 0 0
190 80 3 -0.8476 1.0673503147674046 14.085080247246221 8.002121033682439 0 0 0
351 133 4 0.4238 8.779395441989571 18.67398725375506 5.871414963418736 0 -1 0
341 130 4 0.4238 3.725862356405534 15.178378283914109 10.363935258652589 0 0 0
238 96 3 -0.8476 2.946487702291966 19.844718958102625 18.430810194805673 0 -1 0
561 203 4 0.4238 8.487062671012106 13.174506720978874 16.752807885129265 0 0 0
14 7 1 0 4.4124 12.7373 21.4018 0 0 0
306 118 4 0.4238 7.592713515283044 11.24309034151053 12.883959279040775 0 0 0
302 117 4 0.4238 2.2917433244225363 12.480034374758912 11.089180564282227 0 0 0
492 180 4 0.4238 7.2798614407449715 18.48354654936143 18.243027445798187 0 -1 0
304 118 3 -0.8476 6.741312426600244 11.49049946331648 12.421460688803913 0 0 0
183 77 4 0.4238 2.201548550563256 13.161992926349898 14.583303285425934 0 0 0
301 117 3 -0.8476 2.6357063505321605 13.418277941169993 11.126442794024449 0 0 0
177 75 4 0.4238 0.19204032170237526 11.327264418539333 10.849228099788682 0 0 0
322 124 3 -0.8476 3.4867447532822444 14.045576532793149 13.647754803089441 0 0 0
323 124 4 0.4238 3.1658011972240745 13.858651548000461 12.719286015494765 0 0 0
324 124 4 0.4238 4.26580535268166 13.454389428056905 13.856470892541978 0 0 0
448 166 3 -0.8476 6.579157498376083 14.52764103922264 11.879113428187129 0 0 0
449 166 4 0.4238 6.675526155039823 14.266590458656776 10.918609993418364 0 0 0
450 166 4 0.4238 6.551221579412191 13.704955354686108 12.446923268432739 0 0 0
327 125 4 0.4238 3.061708014353232 15.519451541059949 14.566416364520057 0 0 0
303 117 4 0.4238 1.8693136785662339 14.057151356098624 11.059487163386526 0 0 0
182 77 4 0.4238 1.0148338056408361 13.058404785217737 15.700265397978635 0 0 0
181 77 3 -0.8476 1.3760596420800968 12.666739304066796 14.85402984054153 0 0 0
307 119 3 -0.8476 5.577590489353157 12.605116663955032 14.44720455247256 0 0 0
308 119 4 0.4238 5.926057421748659 12.93507429329256 15.324530351358025 0 0 0
309 119 4 0.4238 6.31821835851717 12.166755458317258 13.937978772621406 0 0 0
290 113 4 0.4238 4.749002859603123 11.001502011390924 15.120870949373925 0 0 0
24 12 1 0 7.354000000000001 17.8322 21.4018 0 0 0
175 75 3 -0.8476 1.090507061728097 11.393348279515585 11.283267717479667 0 0 0
240 96 4 0.4238 3.3222779866144156 19.188357866486633 17.77661393841368 0 -1 0
214 88 3 -0.8476 1.0041440810762274 17.927962188247605 11.451026414053889 0 0 0
463 171 3 -0.8476 6.478201880018026 18.231732824554882 14.915456188855625 0 0 0
465 171 4 0.4238 7.331603333633061 18.73234587278177 15.060688869833879 0 0 0
342 130 4 0.4238 5.151525977130013 15.419699471374381 11.122798860463224 0 0 0
467 172 4 0.4238 7.373650730002787 16.12868172847659 12.292759417267117 0 0 0
590 213 4 0.4238 7.725648904318353 19.422181263009772 10.259925608254184 0 0 0
216 88 4 0.4238 1.4153466561258405 18.4878207590961 10.731671944033392 0 0 0
468 172 4 0.4238 7.8682878047740346 17.628912068879078 11.878912178039954 0 0 0
437 162 4 0.4238 7.1569382445566525 11.404678434047124 17.082162602372872 0 0 0
589 213 3 -0.8476 7.357564300487368 19.16732661285633 11.154108379375014 0 0 0
591 213 4 0.4238 6.413143304412662 18.85574473106839 11.049295698727546 0 0 0
217 89 3 -0.8476 2.064286019730025 18.728445270950314 13.637846451800218 0 0 0
236 95 4 0.4238 1.418715591647955 20.090858346659182 14.558337650277243 0 -1 0
597 215 4 0.4238 8.70246632792204 16.46727080170849 15.93030620143767 0 0 0
436 162 3 -0.8476 6.569742653568437 10.596838324126017 17.133110468886443 0 0 0
215 88 4 0.4238 0.08715363937956366 18.269960061366785 11.65636997646002 0 0 0
340 130 3 -0.8476 4.353122850014628 15.86964660354185 10.722672907024947 0 0 0
464 171 4 0.4238 6.2701227645746105 18.204285930924424 13.93772904528681 0 0 0
343 131 3 -0.8476 4.88784150983056 18.004372378244586 12.654559147182416 0 0 0
345 131 4 0.4238 4.2421926520515125 18.749219219212854 12.486210891320729 0 0 0
218 89 4 0.4238 1.6778928796021548 18.302424080386913 12.81979617913041 0 0 0
344 131 4 0.4238 4.501475250618193 17.145800216306796 12.317549750824261 0 0 0
219 89 4 0.4238 2.3393750095214916 18.017837434553265 14.285428506544493 0 0 0
466 172 3 -0.8476 8.164454664814901 16.73625177658097 12.218680653823448 0 0 0
552 200 4 0.4238 8.577169536694708 12.443351977855762 6.998753646239745 0 0 0
224 91 4 0.4238 6.584978788736939 20.16475927385633 5.915949157194169 0 -1 0
201 83 4 0.4238 0.9935726128790141 16.274863843792748 14.466501082610389 0 0 0
170 73 4 0.4238 0.15705997876552483 12.519334239761646 4.630530335389882 0 0 0
16 8 1 0 4.4124 17.8322 21.4018 0 0 0
364 138 3 -0.8476 6.366307006108234 19.974586154222894 17.53080628881647 0 -1 0
595 215 3 -0.8476 7.780662951582441 16.18863261155242 16.199824213366497 0 0 0
293 114 4 0.4238 1.9703783268715727 12.276659478071428 18.69543152820229 0 0 0
565 205 3 -0.8476 8.264468631172923 11.825293895949471 5.383754879656755 0 0 0
294 114 4 0.4238 2.5190378334598873 11.012727617204137 17.81903228135006 0 0 0
453 167 4 0.4238 4.835483104335401 17.279043988713962 17.46997800663247 0 0 0
310 120 3 -0.8476 0.6065213206590157 14.217798272189098 17.358859661169866 0 0 0
312 120 4 0.4238 0.1479468689007446 13.443270025706306 17.794537825304722 0 0 0
328 126 3 -0.8476 4.244821463031273 14.002780695856922 18.50302264302004 0 0 0
329 126 4 0.4238 3.8406651384614183 13.088860779050396 18.46549938220707 0 0 0
330 126 4 0.4238 3.5359242101158874 14.671810290106164 18.726325291291452 0 0 0
454 168 3 -0.8476 6.484450039595873 13.836390187869883 16.68928336195824 0 0 0
455 168 4 0.4238 5.6319511436742085 13.867898528487181 17.211061921013215 0 0 0
456 168 4 0.4238 6.932978435045694 14.729258702175622 16.729384499993166 0 0 0
292 114 3 -0.8476 2.7860244782055217 11.834757104744316 18.322009695562482 0 0 0
191 80 4 0.4238 0.9690093276172831 14.511009418156055 8.901517517950873 0 0 0
239 96 4 0.4238 2.9923969244117603 19.459980091914108 19.35269336323246 0 -1 0
176 75 4 0.4238 1.1646262863451595 10.702948035039366 12.002888355816044 0 0 0
222 90 4 0.4238 0.1453878739340946 16.847889041005075 18.290254998907823 0 0 0
346 132 3 -0.8476 5.656540959385894 16.438996625983226 18.654765488300594 0 0 0
347 132 4 0.4238 6.617635439103294 16.701054655697625 18.74208254158271 0 0 0
490 180 3 -0.8476 7.937659864014185 17.91834349940131 18.74087071091535 0 -1 0
7 4 1 0 0 15.2847 21.4018 0 0 0
23 12 1 0 5.8832 15.2847 21.4018 0 0 0
326 125 4 0.4238 3.497310910343585 16.868229494682133 15.377387787061595 0 0 0
451 167 3 -0.8476 4.4549813660146595 17.84619270794852 16.739525544730768 0 0 0
6 3 1 0 1.4708 12.7373 21.4018 0 0 0
325 125 3 -0.8476 2.7573430590165198 16.420499344018907 14.875406414758897 0 0 0
452 167 4 0.4238 5.188875233615405 18.133558720493767 16.12404151631669 0 0 0
348 132 4 0.4238 5.550868825582559 15.474284262611643 18.895936618194007 0 0 0
472 174 3 -0.8476 2.080609622031638 16.35011037096637 18.27189638693749 0 0 0
473 174 4 0.4238 1.9635393067535534 15.378703243526882 18.065346184779028 0 0 0
474 174 4 0.4238 2.6071515105921335 16.78509131506686 17.541454495391882 0 0 0
8 4 1 0 1.4708 17.8322 21.4018 0 0 0
22 11 1 0 7.354000000000001 12.7373 21.4018 0 0 0
15 8 1 0 2.9416 15.2847 21.4018 0 0 0
366 138 4 0.4238 5.798440311007832 20.197486158530367 16.738440844421206 0 -1 0
427 159 3 -0.8476 6.69880532212971 10.54685438717572 9.535169837784467 0 0 0
428 159 4 0.4238 7.638372417732451 10.888386579014366 9.511300231205533 0 0 0
491 180 4 0.4238 8.80852796828548 18.404704793089476 18.811876741226857 0 -1 0
420 156 4 0.4238 5.295698243366386 10.204323718807027 18.45545874784971 0 0 0
73 37 2 0 8.8248 0 2.4018 0 0 0
74 37 2 0 10.2956 2.5475 2.4018 0 0 0
75 38 2 0 8.8248 5.0949 2.4018 0 0 0
81 41 2 0 11.7664 0 2.4018 0 0 0
82 41 2 0 13.237200000000001 2.5475 2.4018 0 0 0
83 42 2 0 11.7664 5.0949 2.4018 0 0 0
89 45 2 0 14.708000000000002 0 2.4018 0 0 0
90 45 2 0 16.178800000000003 2.5475 2.4018 0 0 0
91 46 2 0 14.708000000000002 5.0949 2.4018 0 0 0
44 22 1 0 16.178800000000003 7.6424 21.4018 0 0 0
620 223 4 0.4238 14.50573307562817 3.3878102935088648 5.252599862542667 0 0 0
431 160 4 0.4238 9.728730115312695 9.332074012330212 10.936077127438926 0 0 0
119 56 4 0.4238 15.447689337407642 1.5804577157846718 6.2865858126131124 -1 0 0
76 38 2 0 10.2956 7.6424 2.4018 0 0 0
77 39 2 0 8.8248 10.1898 2.4018 0 0 0
84 42 2 0 13.237200000000001 7.6424 2.4018 0 0 0
85 43 2 0 11.7664 10.1898 2.4018 0 0 0
92 46 2 0 16.178800000000003 7.6424 2.4018 0 0 0
93 47 2 0 14.708000000000002 10.1898 2.4018 0 0 0
125 58 4 0.4238 17.11980738695315 4.451613797715876 12.165175118415005 -1 0 0
639 229 4 0.4238 12.240251955899847 6.329826917238441 6.3967366381970745 0 0 0
621 223 4 0.4238 13.029328966637872 4.0377610045012355 4.998784080340424 0 0 0
173 74 4 0.4238 16.379291133562425 10.123405568744293 7.376647193452647 -1 0 0
475 175 3 -0.8476 10.238461486464052 0.672832311221596 5.291254220629026 0 0 0
495 181 4 0.4238 10.87679348779582 2.802199547341775 5.12069937092746 0 0 0
493 181 3 -0.8476 11.185778219804481 3.7303901733267684 5.328041508387651 0 0 0
511 187 3 -0.8476 9.131405616083761 5.3896269313997776 6.015399717127127 0 0 0
619 223 3 -0.8476 13.923837028776344 4.183349355513367 5.421465935555536 0 0 0
118 56 3 -0.8476 15.48762876858227 1.9617212570246132 5.362982578990697 -1 0 0
518 189 4 0.4238 11.338664336046872 3.4747961660093996 9.850526387435213 0 0 0
643 231 3 -0.8476 14.965600376927245 5.243104974403139 7.730205989674371 0 0 0
645 231 4 0.4238 14.354822391535658 4.6184020137875255 7.243691399839285 0 0 0
120 56 4 0.4238 15.126526800635466 1.2948143897129842 4.711184645838061 -1 0 0
121 57 3 -0.8476 17.152518579677942 2.4739895822142235 8.97063089765563 -1 0 0
476 175 4 0.4238 9.541180180939875 1.362564867501539 5.4863632446361095 0 0 0
514 188 3 -0.8476 12.708114465413592 3.17130683982108 8.893190601446161 0 0 0
515 188 4 0.4238 12.655773634711728 2.1832397115286697 8.748333344050575 0 0 0
503 184 4 0.4238 12.607089924550714 6.103512603430973 9.450598149442257 0 0 0
644 231 4 0.4238 14.557652021400914 5.491235006156537 8.608846776033309 0 0 0
269 106 4 0.4238 17.08703987118386 7.263949554768752 14.623663476105321 -1 0 0
717 255 4 0.4238 16.385497451663372 1.2728758889145508 7.9333612062641965 0 1 0
141 63 4 0.4238 16.65789297152239 5.185262771894378 7.945286202375017 -1 0 0
614 221 4 0.4238 14.616703771621246 0.1698807512440305 15.409771368522266 0 0 0
607 219 3 -0.8476 14.462344009394053 0.6793423116269275 11.105758826612533 0 0 0
263 104 4 0.4238 17.603971760421423 6.278664588640379 5.123299856226946 -1 0 0
517 189 3 -0.8476 10.525057194673842 3.444777251501295 10.431165937462886 0 0 0
519 189 4 0.4238 10.151901971569751 4.367263784723073 10.530028483274075 0 0 0
650 233 4 0.4238 16.32595622025606 9.996431981399743 15.08216287942173 0 0 0
107 52 4 0.4238 16.48508153364432 1.008917763693127 13.063941417530929 -1 0 0
622 224 3 -0.8476 13.023155884557012 0.2648033403280529 8.631455865220707 0 0 0
715 255 3 -0.8476 15.724422789824505 0.5744355810299474 7.65920531052352 0 1 0