LAMMPS data file via write_data, version 3 Nov 2022, timestep = 100000

726 atoms
4 atom types
420 bonds
1 bond types
210 angles
1 angle types

0 17.6494 xlo xhi
0 20.3798 ylo yhi
0 26 zlo zhi

Masses

1 500
2 196.97
3 15.9994
4 1.008

Pair Coeffs # lj/cut/coul/long

1 0.069 2.78
2 5.29 2.951
3 0.1553 3.166
4 0 0

Bond Coeffs # harmonic

1 600 1

Angle Coeffs # harmonic

1 75 109.47

Atoms # full

49 25 2 0.008543040314262548 0 0 2.4018 0 0 0
50 25 2 0.0160448240953976 1.4708 2.5475 2.4018 0 0 0
51 26 2 -0.0079256875305239 0 5.0949 2.4018 0 0 0
57 29 2 -0.005227878579680007 2.9416 0 2.4018 0 0 0
58 29 2 0.01534182829253148 4.4124 2.5475 2.4018 0 0 0
59 30 2 0.005249625623138609 2.9416 5.0949 2.4018 0 0 0
676 242 3 -0.8476 2.819460981381933 5.027845836373835 5.552858700712285 1 0 0
677 242 4 0.4238 3.6237064095951212 5.498057979630644 5.1894159030362905 1 0 0
678 242 4 0.4238 3.0474931330566792 4.071918834795528 5.737806475295655 1 0 0
709 253 3 -0.8476 3.326005069719568 2.1405935467748485 5.508189818283542 1 1 0
195 81 4 0.4238 0.9649465875607126 4.340812162842168 5.657183047543541 0 0 0
193 81 3 -0.8476 0.07822017262197362 3.9629228426194305 5.3908801998879925 0 0 0
194 81 4 0.4238 0.11965319368873736 2.964163951647319 5.41854519664211 0 0 0
103 51 3 -0.8476 6.804813198264613 5.084871250040471 11.277692419576146 1 0 0
710 253 4 0.4238 2.3404190574558714 1.9714070000250485 5.508878140894409 1 1 0
713 254 4 0.4238 9.064078450490644 2.446520257897097 5.3348626027546535 0 1 0
65 33 2 0.01159205120014908 5.8832 0 2.4018 0 0 0
66 33 2 0.01814012345205012 7.354000000000001 2.5475 2.4018 0 0 0
67 34 2 0.001406594129736151 5.8832 5.0949 2.4018 0 0 0
73 37 2 0.007725405338865237 8.8248 0 2.4018 0 0 0
74 37 2 0.01259870480846824 10.2956 2.5475 2.4018 0 0 0
75 38 2 -0.0004634638718638646 8.8248 5.0949 2.4018 0 0 0
712 254 3 -0.8476 8.802633903527065 3.406390680517518 5.233373245990451 0 1 0
714 254 4 0.4238 9.596656647074049 3.988446812598421 5.408709008648956 0 1 0
604 218 3 -0.8476 10.053718350737668 0.9458152116350096 5.395407376762871 0 0 0
189 79 4 0.4238 7.4156883111781475 3.478062124305858 6.469061899326572 -1 1 0
170 73 4 0.4238 11.80947244959249 4.900763207760851 5.38132073658318 -1 0 0
315 121 4 0.4238 12.776759773328315 8.761973185109612 12.512691519633954 0 0 0
605 218 4 0.4238 11.02536148980741 0.7580225920428326 5.251723453806732 0 0 0
116 55 4 0.4238 6.860405297106715 1.6714006503015966 5.673388843698673 -1 0 0
388 146 3 -0.8476 13.766836983830515 3.9827224990972567 5.330985943540624 0 -1 0
389 146 4 0.4238 13.425795558197045 3.8960741688633775 6.267033057995917 0 -1 0
586 212 3 -0.8476 12.99172583601213 0.9627880677417303 5.186804494815568 0 1 0
81 41 2 -0.006484897416350773 11.7664 0 2.4018 0 0 0
82 41 2 0.008703081094077752 13.237200000000001 2.5475 2.4018 0 0 0
83 42 2 0.00416546498595383 11.7664 5.0949 2.4018 0 0 0
89 45 2 -0.01428117869162144 14.708000000000002 0 2.4018 0 0 0
90 45 2 0.008098914705004666 16.178800000000003 2.5475 2.4018 0 0 0
91 46 2 -0.02631301835063423 14.708000000000002 5.0949 2.4018 0 0 0
601 217 3 -0.8476 14.580700057086469 2.470074704951404 9.549553516230905 0 0 0
602 217 4 0.4238 13.852177407353523 2.485606699806581 10.234399813568656 0 0 0
107 52 4 0.4238 1.7753325684361263 5.260464281758941 12.927518370297552 0 0 0
603 217 4 0.4238 15.320102605212748 3.0795550665438127 9.835591885333054 0 0 0
378 142 4 0.4238 15.457095569986127 9.173371129323348 12.171458596416667 0 -1 0
422 157 4 0.4238 4.786861348572543 7.318978962263422 5.502857747714512 0 0 0
52 26 2 -0.01097199601095499 1.4708 7.6424 2.4018 0 0 0
53 27 2 0.01511923962052951 0 10.1898 2.4018 0 0 0
60 30 2 -0.006773385603520778 4.4124 7.6424 2.4018 0 0 0
61 31 2 -0.0006618884891667937 2.9416 10.1898 2.4018 0 0 0
316 122 3 -0.8476 13.376991964874126 9.733980167782747 5.2443510947274685 -1 0 0
423 157 4 0.4238 6.118596559257136 6.376695231617992 5.575034452052516 0 0 0
421 157 3 -0.8476 5.134517216890271 6.414178710640228 5.748768298079106 0 0 0
643 231 3 -0.8476 3.1763474635956395 8.886111555148053 5.282080436718036 1 0 0
644 231 4 0.4238 2.513118087318634 8.218141042299745 4.944523274214661 1 0 0
581 210 4 0.4238 1.9210593488372454 5.953179684029002 6.41990460669887 1 2 0
426 158 4 0.4238 15.617845693245721 0.24896899149304588 12.27982548992809 0 0 0
582 210 4 0.4238 0.738973409880735 7.079488872493541 6.392936823978947 1 2 0
299 116 4 0.4238 1.8742478531098932 0.3995180953106482 9.934219884593341 0 0 0
691 247 3 -0.8476 7.689714173805594 6.217320019017989 5.258073041482447 0 0 0
693 247 4 0.4238 8.37284176321211 6.235548870214623 5.9881454257142686 0 0 0
369 139 4 0.4238 8.495516986476424 8.433565798354097 5.028752451013381 0 0 0
300 116 4 0.4238 2.911599743969392 1.5040316802567835 10.542971525540692 0 0 0
367 139 3 -0.8476 8.981733107973055 8.98237922473984 5.708751536331027 0 0 0
368 139 4 0.4238 9.966826030721563 8.844561146157186 5.605781099266854 0 0 0
68 34 2 -0.005353421945912079 7.354000000000001 7.6424 2.4018 0 0 0
69 35 2 -0.02242224817485722 5.8832 10.1898 2.4018 0 0 0
76 38 2 -0.008749553110635829 10.2956 7.6424 2.4018 0 0 0
77 39 2 -0.001587975150694571 8.8248 10.1898 2.4018 0 0 0
169 73 3 -0.8476 10.86775468338433 5.19328586965271 5.547456960295855 -1 0 0
171 73 4 0.4238 10.800651355284717 6.183975873079292 5.42898775849054 -1 0 0
425 158 4 0.4238 16.365686839954538 1.6918548567498142 12.120323120019671 0 0 0
543 197 4 0.4238 15.74455376269356 5.985972014656273 4.244902593730374 1 -1 0
522 190 4 0.4238 12.358773694396177 8.241027948029787 5.4342692843409335 0 0 0
541 197 3 -0.8476 15.948040102134595 5.877893730968188 5.217997046194076 1 -1 0
520 190 3 -0.8476 11.521538237363735 7.820855042448146 5.784258984209179 0 0 0
521 190 4 0.4238 11.640196773280092 7.596913910660865 6.751612100022279 0 0 0
213 87 4 0.4238 16.94869795729418 7.658694530040734 4.96211922323137 -1 1 0
84 42 2 -0.02253342595559467 13.237200000000001 7.6424 2.4018 0 0 0
85 43 2 -0.02386325442458492 11.7664 10.1898 2.4018 0 0 0
92 46 2 -0.03395260336333754 16.178800000000003 7.6424 2.4018 0 0 0
93 47 2 -0.02530118571584997 14.708000000000002 10.1898 2.4018 0 0 0
211 87 3 -0.8476 17.523577595505472 8.373665168921514 5.360027780919543 -1 1 0
212 87 4 0.4238 17.0831513845729 9.262879118182907 5.236238106470797 -1 1 0
205 85 3 -0.8476 5.522367248324516 5.082933874779558 8.132800488002275 0 0 0
207 85 4 0.4238 4.856839636565012 5.040433764778345 8.877963749174969 0 0 0
206 85 4 0.4238 5.248881626300537 5.7908645558964675 7.4816162727356925 0 0 0
188 79 4 0.4238 6.497322905499542 3.778149013994996 7.785564626115502 -1 1 0
104 51 4 0.4238 6.975223059984354 6.057718294907826 11.434323932547846 1 0 0
240 96 4 0.4238 15.907149183138676 1.5390029324335393 8.501706376153551 0 0 0
186 78 4 0.4238 10.809679491055352 4.82920260257931 12.234285165918621 -1 0 0
627 225 4 0.4238 1.142311523721859 0.5701072346557061 5.407977967350236 1 0 0
679 243 3 -0.8476 14.388344112145468 5.895841187409739 12.553492598002434 0 0 0
298 116 3 -0.8476 2.249658462135075 0.7910692719529153 10.774314024535329 0 0 0
498 182 4 0.4238 3.1782299333534842 4.421584435342713 10.843305251025729 0 0 0
242 97 4 0.4238 0.11372454909840307 4.5608406751586585 8.512959914844476 1 0 0
497 182 4 0.4238 3.635093197649102 3.6372270746257795 9.485847319495857 0 0 0
496 182 3 -0.8476 3.891719288381077 4.3420728032109785 10.147162657393025 0 0 0
243 97 4 0.4238 1.166929713515916 3.3148448925475837 8.443094046894181 1 0 0
653 234 4 0.4238 7.986724447375092 9.58663088134249 7.078331051080797 0 -1 0
291 113 4 0.4238 1.3902648936489443 6.574700931558314 8.627083040419217 2 0 0
476 175 4 0.4238 10.873396710796088 3.7503648821895377 7.099886667034369 0 0 0
626 225 4 0.4238 17.341387780659073 1.3131579087511918 5.302792549204005 0 0 0
187 79 3 -0.8476 6.972728954372332 3.0679623101137263 7.266310623507446 -1 1 0
198 82 4 0.4238 11.676864533923228 2.4008557059764484 11.887821076968272 0 1 0
477 175 4 0.4238 11.028257394545655 2.35049554258184 6.2734372961507034 0 0 0
385 145 3 -0.8476 9.464341047888412 3.3817188372167357 10.216775935923458 0 0 0
432 160 4 0.4238 7.4158023596883 5.242602008656209 8.911704625300178 1 0 0
386 145 4 0.4238 9.834023311752183 3.1577521519269993 11.118538449130567 0 0 0
387 145 4 0.4238 8.839522007452976 2.6580907515237095 9.923575914839613 0 0 0
431 160 4 0.4238 8.97937772550123 4.855861822733754 9.180574759645397 1 0 0
430 160 3 -0.8476 8.360641109810988 5.4265820345806866 8.640716144277553 1 0 0
475 175 3 -0.8476 11.185122253842481 2.80161992224134 7.152006656534362 0 0 0
577 209 3 -0.8476 11.892138326574036 4.606875557740573 8.77639055263619 0 0 0
578 209 4 0.4238 11.15205283743665 4.662613397329064 9.446591004081876 0 0 0
579 209 4 0.4238 11.806616036319609 3.757706369789849 8.255238997490805 0 0 0
282 110 4 0.4238 11.993978725584078 0.6955935520855357 10.362669416358116 1 -1 0
281 110 4 0.4238 13.246870870022725 0.7932688823507881 11.405429138463369 1 -1 0
280 110 3 -0.8476 12.399897412926068 1.230819260076083 11.103456814170583 1 -1 0
576 208 4 0.4238 7.424477420107739 1.9205433206111677 8.347065650914391 0 0 0
115 55 3 -0.8476 6.566829197641645 0.7852168728409362 5.314930190030221 -1 0 0
117 55 4 0.4238 7.3699037409564365 0.24315040972892277 5.0674680046309595 -1 0 0
654 234 4 0.4238 6.5231563540652955 9.334766916189148 7.757419217563333 0 -1 0
196 82 3 -0.8476 11.325205678636125 3.0960265761644146 12.514778502806406 0 1 0
353 134 4 0.4238 10.34648669613546 9.717097284025227 12.21531953491664 1 -1 0
575 208 4 0.4238 6.8621106467674515 0.6153612624236356 9.151348490167914 0 0 0
390 146 4 0.4238 14.71592873372509 4.297162424310161 5.349801109951233 0 -1 0
468 172 4 0.4238 14.334820367346975 9.458375422451784 9.389857451086156 0 1 0
680 243 4 0.4238 14.420209860242771 5.620779336744502 11.592592717412877 0 0 0
401 150 4 0.4238 13.58439176144119 5.20555361726743 9.602450324228725 0 0 0
241 97 3 -0.8476 0.3452523216688656 3.6651747745441994 8.892669971959721 1 0 0
400 150 3 -0.8476 14.455722458405065 5.628055139668128 9.852004866869082 0 0 0
562 204 3 -0.8476 16.641350343283886 4.083296189715342 10.989056663280612 0 0 0
563 204 4 0.4238 16.037770379422128 4.850987807509285 10.773784577109874 0 0 0
564 204 4 0.4238 17.178401412678653 3.844498107566038 10.180011679572727 0 0 0
687 245 4 0.4238 16.714761709756484 4.337732009968187 12.639387839102408 0 0 0
467 172 4 0.4238 13.346114040811248 9.313588789790407 10.681417293752048 0 1 0
666 238 4 0.4238 4.34126756117676 8.905137414158627 6.516509692747207 0 0 0
664 238 3 -0.8476 4.751093055532058 9.063792850376354 7.414773021734108 0 0 0
637 229 3 -0.8476 0.7471877141074242 8.354301697005937 11.535489275372338 1 -1 0
290 113 4 0.4238 1.5797294433316216 5.599705770675408 9.923275349951421 2 0 0
652 234 3 -0.8476 7.361488829472968 9.878076947823384 7.802307315600979 0 -1 0
402 150 4 0.4238 14.817635634485477 6.133309514160487 9.068590593856563 0 0 0
257 102 4 0.4238 2.654784049830047 9.360773717063745 10.840199367879586 1 0 0
256 102 3 -0.8476 2.7861525988520546 9.125527207512318 9.87717977353219 1 0 0
424 158 3 -0.8476 16.282645750155215 0.8737366464771422 12.689346105039219 0 0 0
665 238 4 0.4238 4.161382545837657 8.676258785766425 8.123335852134215 0 0 0
122 57 4 0.4238 7.825760402756952 0.4118083408578644 10.770069138315867 0 0 0
258 102 4 0.4238 2.6507626673715956 8.142581237775797 9.752715909565804 1 0 0
466 172 3 -0.8476 13.51508294943025 9.818693918214702 9.83505984792318 0 1 0
377 142 4 0.4238 17.080578433321772 9.22752863551317 12.004131277448275 0 -1 0
105 51 4 0.4238 5.853746057457844 4.953910172266563 10.997832121722793 1 0 0
580 210 3 -0.8476 1.3210642970676016 6.5207610408534675 6.98369360583625 1 2 0
638 229 4 0.4238 0.9970176405359414 7.548196505367084 10.999036348164699 1 -1 0
717 255 4 0.4238 12.39024162854418 0.28840285676654837 6.591412796748799 1 1 0
352 134 3 -0.8476 11.226526547688243 9.242192984029268 12.216220312698256 1 -1 0
137 62 4 0.4238 2.027815877839267 1.8732362417553365 7.987025431651223 0 0 0
692 247 4 0.4238 7.786529711776536 5.3723882747118985 4.732032313657794 0 0 0
645 231 4 0.4238 2.8214978665553723 9.809957726487395 5.138560233155634 1 0 0
185 78 4 0.4238 10.316334741569422 6.044854419256892 11.261952987588222 -1 0 0
292 114 3 -0.8476 5.67656046565693 9.596732521658042 10.995975339349497 0 0 0
294 114 4 0.4238 4.789939140622079 9.742378050555555 11.434941355604284 0 0 0
574 208 3 -0.8476 7.516492206466037 1.3710743960569696 9.177498905408314 0 0 0
711 253 4 0.4238 3.810396593432228 1.2880838486682353 5.311739399800884 1 1 0
437 162 4 0.4238 6.860466827809697 8.422553075168016 11.337314477776795 1 0 0
436 162 3 -0.8476 7.571135241081482 7.730803749388945 11.465517092648946 1 0 0
588 212 4 0.4238 13.498663213828278 0.38996264096399363 4.542687820493753 0 1 0
438 162 4 0.4238 8.31154777226707 7.888534002434359 10.812132835679304 1 0 0
701 250 4 0.4238 9.286513797831446 6.646575924029509 9.147658317438076 2 -1 0
700 250 3 -0.8476 9.643385938511667 7.47449461758298 9.580320183736939 2 -1 0
513 187 4 0.4238 1.8185112493161812 10.053298043923604 8.893843011592004 1 0 0
106 52 3 -0.8476 2.266275159877156 4.688670030017356 12.270229177579722 0 0 0
702 250 4 0.4238 10.60077224354893 7.600272590312019 9.32033378097907 2 -1 0
138 62 4 0.4238 3.3080664559545965 2.543423811679406 7.226477171885048 0 0 0
542 197 4 0.4238 16.61438869395917 5.142214492766869 5.339474575210934 1 -1 0
376 142 3 -0.8476 16.267806197381876 9.752608027087469 12.256508250931114 0 -1 0
639 229 4 0.4238 1.2657862555275905 8.359520313997795 12.390492314175315 1 -1 0
524 191 4 0.4238 13.000197848284115 7.591623195457351 8.231720539306574 0 -1 0
360 136 4 0.4238 16.927450088881905 9.623013099606048 8.250041448548666 0 0 0
359 136 4 0.4238 16.11845308444977 9.867127694636144 6.852701508709072 0 0 0
358 136 3 -0.8476 16.050165493006663 9.508888830997453 7.78383224839627 0 0 0
289 113 3 -0.8476 1.4110503224699262 6.539558634958015 9.626249498776556 2 0 0
384 144 4 0.4238 2.493028840280995 9.719794300761412 12.910496964228098 0 -1 0
406 152 3 -0.8476 15.247929159060655 7.012234071819868 7.773022011622398 0 0 0
408 152 4 0.4238 15.48816222034174 6.532006856700564 6.929416156188867 0 0 0
523 191 3 -0.8476 12.082020144652011 7.21880883213217 8.365736806678662 0 -1 0
407 152 4 0.4238 15.63244454689617 7.93511971351192 7.752267289359093 0 0 0
525 191 4 0.4238 12.142278624301815 6.233249103608379 8.523992954763008 0 -1 0
625 225 3 -0.8476 0.6808462683385743 1.4551937786169056 5.347366251301949 1 0 0
136 62 3 -0.8476 2.697762074389062 2.615104290660337 8.015394827891544 0 0 0
587 212 4 0.4238 13.566186954572455 1.7288682835758 5.475103447756109 0 1 0
184 78 3 -0.8476 10.806213490399747 5.820732453607262 12.104443472749216 -1 0 0
404 151 4 0.4238 0.19226097555573238 0.6070051864264498 8.178840137751594 1 0 0
313 121 3 -0.8476 13.713176980186857 8.464536347918953 12.326518306939699 0 0 0
238 96 3 -0.8476 16.147179753895433 0.6588013419307613 8.092271913343968 0 0 0
461 170 4 0.4238 9.724872597026858 0.5544258850846108 9.053145916541903 0 0 0
354 134 4 0.4238 11.073991971501862 8.257853428140294 12.30459990822289 1 -1 0
314 121 4 0.4238 13.814688248066297 7.503222137375749 12.582601723500172 0 0 0
403 151 3 -0.8476 1.1872556285218714 0.5093445341888718 8.200033176326532 1 0 0
698 249 4 0.4238 15.55803239857769 0.7459365278981882 6.259847956511043 0 1 0
114 54 4 0.4238 7.782158286850564 4.869601692703211 12.807668425470919 0 -1 0
697 249 3 -0.8476 15.855429109033778 0.4369326727389228 5.356480411028421 0 1 0
606 218 4 0.4238 9.544775439662294 0.08501982626141869 5.398561718648435 0 0 0
317 122 4 0.4238 13.333479801593976 9.740943665116738 4.24532200523119 -1 0 0
108 52 4 0.4238 2.6709587275475806 3.9072302649054578 12.745192231166719 0 0 0
382 144 3 -0.8476 3.147429286024961 10.109636142426924 12.262589634326233 0 -1 0
219 89 4 0.4238 6.364020207274239 2.520405553770681 12.99540340928131 0 1 0
670 240 3 -0.8476 6.773533755134105 3.717038175159099 16.491590206755482 1 1 0
396 148 4 0.4238 5.803462923264418 5.197637234493128 18.99743460565577 1 0 0
395 148 4 0.4238 6.231119807997449 5.430041501948986 17.438676906564567 1 0 0
394 148 3 -0.8476 5.703165163684741 5.798066954915367 18.20406962093302 1 0 0
204 84 4 0.4238 0.9285041127500067 6.081115753960207 17.765142563298816 0 0 0
608 219 4 0.4238 3.4847098211944805 4.983851303239975 16.51022523448973 2 0 0
203 84 4 0.4238 2.239308631405881 6.936298376846396 18.23106240529696 0 0 0
202 84 3 -0.8476 1.7977361263740537 6.4724758132065725 17.4630234950725 0 0 0
486 178 4 0.4238 1.5196084362896762 6.12225022226849 15.824399106036145 2 -1 0
347 132 4 0.4238 3.6682462328407848 1.7981456998993772 14.104840128555262 0 0 0
45 23 1 0.006123381361742108 14.708000000000002 10.1898 23.449863020791625 0 0 0
471 173 4 0.4238 1.169657196352889 2.3243122122885453 14.225856073802426 1 0 0
348 132 4 0.4238 3.2986057185518605 3.2227066069571335 14.81238521553265 0 0 0
275 108 4 0.4238 3.030667138719297 2.590837305059514 17.506935704777117 0 1 0
346 132 3 -0.8476 3.0631397880047393 2.5935970488364877 14.071588140230032 0 0 0
572 207 4 0.4238 5.938146311728662 1.1988717244542944 18.449373741134067 2 0 0
338 129 4 0.4238 3.072928503496896 1.7841590474751556 19.542649762121915 1 1 0
485 178 4 0.4238 0.47678333061827677 5.47396748641097 14.747888473867437 2 -1 0
571 207 3 -0.8476 5.4801718917026605 1.015513120679157 17.579521025148217 2 0 0
591 213 4 0.4238 1.6285162972905645 3.4120124953752153 19.93620754678186 1 0 0
589 213 3 -0.8476 0.8251068536873744 3.8954462084678685 20.28381032825206 1 0 0
607 219 3 -0.8476 3.867930772442749 4.066191566694831 16.405134372982015 2 0 0
609 219 4 0.4238 4.806032103818568 4.055085076366629 16.75132234398619 2 0 0
180 76 4 0.4238 6.828372582015677 7.87413160734309 14.827932072927481 1 0 0
274 108 3 -0.8476 2.2754290519199434 2.0804855419940176 17.918224542873194 0 1 0
686 245 4 0.4238 17.05951378440882 3.718092322788279 14.110381025997988 0 0 0
671 240 4 0.4238 7.723844896306422 3.5324942522771177 16.240882591061286 1 1 0
672 240 4 0.4238 6.164914683475686 3.1703614971042993 15.916500506334968 1 1 0
112 54 3 -0.8476 8.040671566798173 4.854493140691428 13.773559856960954 0 -1 0
681 243 4 0.4238 14.923807986964198 5.253612199100808 13.101965411111607 0 0 0
113 54 4 0.4238 7.6698060149863725 5.662965420048592 14.230545447349645 0 -1 0
344 131 4 0.4238 10.95474300812148 4.0896914619293145 14.970342975126565 1 0 0
343 131 3 -0.8476 10.063394350235356 3.7363576006086254 15.254338082590541 1 0 0
345 131 4 0.4238 9.34090547780924 4.213383582128138 14.753881815078818 1 0 0
255 101 4 0.4238 10.85824303556981 3.0901798958905475 17.415063203472258 1 1 0
254 101 4 0.4238 10.431165704841273 2.7912121126124174 18.962593602768095 1 1 0
309 119 4 0.4238 9.657908807892223 1.9712599592283588 15.351618323136861 0 0 0
253 101 3 -0.8476 11.154265512428617 3.1439882841524334 18.368727773437268 1 1 0
479 176 4 0.4238 5.403795086006659 1.4149877692142259 20.021771864299765 0 -1 0
109 53 3 -0.8476 8.600205030653099 2.2462808893047232 19.821549314151852 -1 -1 0
480 176 4 0.4238 6.258921142430334 0.1412548703721989 20.581229029437516 0 -1 0
375 141 4 0.4238 9.117868061991976 1.036566241068436 18.751587159762384 1 0 0
44 22 1 -0.0001812904321965569 16.178800000000003 7.6424 23.449863020791625 0 0 0
110 53 4 0.4238 7.727663154061957 1.8390933537663159 20.091493343399456 -1 -1 0
307 119 3 -0.8476 9.343792417931972 1.0220586309221074 15.332862776937171 0 0 0
685 245 3 -0.8476 16.514983914712488 4.396701916152739 13.617453660612183 0 0 0
635 228 4 0.4238 14.934439265290866 2.288341571568405 19.356194526021124 -1 1 0
636 228 4 0.4238 16.2158222895273 2.6797206531874846 18.422648696940644 -1 1 0
271 107 3 -0.8476 14.384906263459381 5.231528110011023 18.211019803516685 0 0 0
722 257 4 0.4238 0.7841546606140447 3.2030543524924195 17.73657679021505 1 0 0
481 177 3 -0.8476 12.581138481752648 4.859708235311564 14.646852856409735 0 -1 0
721 257 3 -0.8476 17.60844845622247 3.454378290202139 17.230572913673747 0 0 0
483 177 4 0.4238 13.160238723845719 4.100628436368969 14.944244840432273 0 -1 0
723 257 4 0.4238 17.606644439674373 2.9907645897973025 16.344535049328133 0 0 0
482 177 4 0.4238 13.012070955214067 5.324546157865892 13.873402918227042 0 -1 0
210 86 4 0.4238 15.870038382436055 6.148820952871613 19.006015180550836 0 0 0
208 86 3 -0.8476 16.865547237935143 6.098380167171903 19.086141002575904 0 0 0
469 173 3 -0.8476 0.24099730438873146 2.3625139757391653 14.594820907791535 1 0 0
209 86 4 0.4238 17.139292025421696 5.150302069211487 19.248054676505525 0 0 0
688 246 3 -0.8476 14.623886499778722 3.6932990280304163 15.732807373833925 0 0 0
690 246 4 0.4238 14.619196195132695 3.9139495349394897 16.70815146361856 0 0 0
634 228 3 -0.8476 15.93174987773314 2.3544851495071337 19.324605678443945 -1 1 0
689 246 4 0.4238 15.265375999751216 4.295738562336769 15.257869634602969 0 0 0
662 237 4 0.4238 4.978031757165134 0.7547617838359337 14.20344931791269 0 0 0
149 66 4 0.4238 6.142925343814942 8.825398894478063 19.325397902096977 1 -1 0
590 213 4 0.4238 0.07861235173383108 3.2446527141465413 20.422437871943448 1 0 0
433 161 3 -0.8476 13.453174159881309 1.2429493424526434 18.58612891404859 1 0 0
435 161 4 0.4238 13.569356144672101 0.9791538990920698 17.628571988252272 1 0 0
102 50 4 0.4238 6.712168198770753 6.861720337029987 19.24687390403485 2 0 0
140 63 4 0.4238 14.018366924616625 9.69491277775119 14.008138262339143 -2 -1 0
417 155 4 0.4238 5.208444868460392 7.220217558553598 16.73639408130369 0 0 0
415 155 3 -0.8476 5.290910423508213 8.090179521588407 16.250219145720393 0 0 0
416 155 4 0.4238 4.571517941560458 8.713170942042227 16.557394543089575 0 0 0
459 169 4 0.4238 1.274864904832181 9.57147587035769 16.73714616564885 1 0 0
217 89 3 -0.8476 6.03252642387316 1.682543967490432 13.429110083925117 0 1 0
478 176 3 -0.8476 6.321181520041977 1.0326296477116548 20.13225702561793 0 -1 0
361 137 3 -0.8476 1.6007303313238133 8.59744641622387 14.087757338010231 1 -1 0
197 82 4 0.4238 11.189299229444917 2.6912260959037098 13.419027842857094 0 1 0
650 233 4 0.4238 14.003306552648727 1.5742686356038393 16.043690746479285 1 0 0
488 179 4 0.4238 14.200182875506746 9.953534892777244 19.839371915250766 1 -1 0
484 178 3 -0.8476 1.310019783094791 6.016938649674422 14.852293828373476 2 -1 0
661 237 3 -0.8476 4.352879610820145 0.25944931473696636 14.80665155844631 0 0 0
363 137 4 0.4238 1.959463608305586 9.151048377028488 14.839313627996184 1 -1 0
100 50 3 -0.8476 7.520229491829531 7.3048366120870165 19.635059688498004 2 0 0
707 252 4 0.4238 11.76043130595752 9.939320694789002 19.71667383739911 0 1 0
178 76 3 -0.8476 7.517489493276682 7.333706134334132 14.345168774847096 1 0 0
684 244 4 0.4238 17.28192914942711 9.812564778400814 18.086534426021203 0 1 0
36 18 1 -0.0179910439504863 13.237200000000001 7.6424 23.449863020791625 0 0 0
276 108 4 0.4238 2.207595987778979 1.1805886699543764 17.487427077013713 0 1 0
214 88 3 -0.8476 8.637264772060341 8.061628662502454 16.90108297131685 -1 0 0
216 88 4 0.4238 9.630438446102557 8.174027520932198 16.932331381504746 -1 0 0
539 196 4 0.4238 9.695497532266977 6.886264199273172 14.189789226002413 2 0 0
538 196 3 -0.8476 10.563020232995258 6.775061520800534 14.674598753985302 2 0 0
252 100 4 0.4238 7.685168241584919 9.610566187163585 16.889892309335206 0 0 0
228 92 4 0.4238 11.050503228858997 8.010373029173316 15.663121686944693 0 -1 0
226 92 3 -0.8476 11.28429273467671 8.543911989710573 16.475943851978776 0 -1 0
227 92 4 0.4238 11.344287050217062 9.512148354407193 16.233205016457113 0 -1 0
540 196 4 0.4238 11.161666855372657 6.168261200879016 14.151701557933738 2 0 0
596 215 4 0.4238 12.771065336519738 7.748494590220643 16.220536748708703 1 -1 0
215 88 4 0.4238 8.374011229887373 7.6671090745462545 16.020711214547347 -1 0 0
234 94 4 0.4238 16.576430424719607 0.5062309843763978 19.13844592766813 0 0 0
706 252 3 -0.8476 12.36193947812822 9.160747667168573 19.537751621413815 0 1 0
708 252 4 0.4238 11.865171027143662 8.469425792189265 19.01306505088366 0 1 0
373 141 3 -0.8476 9.412620718118959 0.35565490575707015 18.08114998455027 1 0 0
272 107 4 0.4238 13.96923862413299 5.521984167683582 19.072911164078484 0 0 0
273 107 4 0.4238 14.169684339674113 5.896953089438392 17.496254328798827 0 0 0
362 137 4 0.4238 1.6305502404987111 7.6307855704072995 14.342077627004548 1 -1 0
597 215 4 0.4238 13.155595108591708 6.281716998754621 15.614461099800554 1 -1 0
519 189 4 0.4238 0.25052520571656256 7.410000747569126 19.453385808828934 1 0 0
682 244 3 -0.8476 17.37568243426495 9.11353756111006 17.377610598188703 0 1 0
161 70 4 0.4238 0.4276393931068581 9.645404130294276 19.94966591203612 1 0 0
683 244 4 0.4238 16.762775639163923 8.349640967386419 17.579621185009074 0 1 0
339 129 4 0.4238 2.953255533740337 0.7273765470433621 20.781809824703732 1 1 0
470 173 4 0.4238 17.313495807482283 1.701791190164049 14.11457782420363 0 0 0
595 215 3 -0.8476 13.434254199843643 7.000670331013912 16.25121582144323 1 -1 0
649 233 3 -0.8476 13.730521799815536 0.614769911259436 16.114057992895944 1 0 0
179 76 4 0.4238 7.376399341193584 7.418181342250472 13.358780560554386 1 0 0
308 119 4 0.4238 9.328524040796328 0.6575663281326254 16.263946795393448 0 0 0
663 237 4 0.4238 4.505521910089192 0.5457888494359412 15.752543276886664 0 0 0
337 129 3 -0.8476 3.514575860727707 1.4477360756662245 20.37437556806391 1 1 0
327 125 4 0.4238 4.963020305736973 4.844213183983858 21.800104413199907 0 1 0
325 125 3 -0.8476 5.413526513655491 4.683300538459343 20.92195188291159 0 1 0
326 125 4 0.4238 6.356823537007404 4.39129241653594 21.079824846511343 0 1 0
535 195 3 -0.8476 2.983237344424761 5.852992742968334 19.86140129850823 1 0 0
537 195 4 0.4238 3.8877052935337013 5.573139871228802 20.183303829725734 1 0 0
2 1 1 0.01681964573718448 1.4708000000000014 2.5475000000000003 23.449863020791625 0 0 0
1 1 1 0.009530892217576416 1.7763568394002505e-15 1.7763568394002505e-15 23.449863020791625 0 0 0
11 6 1 -0.01524214201230506 2.941600000000001 5.094900000000001 23.449863020791625 0 0 0
3 2 1 0.01449029221643637 1.7763568394002505e-15 5.094900000000001 23.449863020791625 0 0 0
10 5 1 0.00691884776850595 4.4124 2.5474999999999994 23.449863020791625 0 0 0
9 5 1 0.0195314219644623 2.9415999999999993 1.7763568394002505e-15 23.449863020791625 0 0 0
536 195 4 0.4238 2.319795753718221 5.1326684425952385 20.063837216279858 1 0 0
516 188 4 0.4238 8.108138722594667 5.927016819163718 20.411810376184487 1 -1 0
111 53 4 0.4238 8.496355497036129 3.238090310367132 19.747187863764335 -1 -1 0
515 188 4 0.4238 9.362944894589518 4.883962319684104 20.47605173012904 1 -1 0
514 188 3 -0.8476 8.36740867133632 4.961263964951319 20.421886089225346 1 -1 0
168 72 4 0.4238 11.376288543712512 4.443050222600666 19.712926478310834 0 0 0
166 72 3 -0.8476 11.119316529543537 5.1744679228851975 20.344587376759364 0 0 0
17 9 1 -0.0001196702448092049 5.8832 0 23.449863020791625 0 0 0
19 10 1 -0.04577843504398507 5.8832 5.094900000000001 23.449863020791625 0 0 0
18 9 1 0.005448749793554232 7.354000000000001 2.5474999999999994 23.449863020791625 0 0 0
27 14 1 0.01621780275369726 8.8248 5.094900000000001 23.449863020791625 0 0 0
26 13 1 0.009139377486030886 10.2956 2.5474999999999994 23.449863020791625 0 0 0
25 13 1 0.005843126768876098 8.8248 0 23.449863020791625 0 0 0
434 161 4 0.4238 12.577274249871005 1.7121343654934205 18.69868691361602 1 0 0
41 21 1 -0.0175826914366148 14.708 0 23.449863020791625 0 0 0
42 21 1 0.003543843405838151 16.178800000000003 2.5474999999999994 23.449863020791625 0 0 0
43 22 1 -0.008930438763612256 14.708000000000002 5.0949 23.449863020791625 0 0 0
33 17 1 -0.01319754578259268 11.7664 1.7763568394002505e-15 23.449863020791625 0 0 0
35 18 1 0.005624883561307313 11.7664 5.094900000000001 23.449863020791625 0 0 0
34 17 1 -0.001833361793814021 13.237200000000001 2.5474999999999994 23.449863020791625 0 0 0
518 189 4 0.4238 1.7262219883909424 7.436086788297749 20.15214607725663 1 0 0
101 50 4 0.4238 8.106166655216015 7.636318994291072 18.895600145997378 2 0 0
517 189 3 -0.8476 0.8975282537764131 7.9667901703236526 19.974321127200675 1 0 0
150 66 4 0.4238 4.649148498694868 8.243938426512141 19.63710700967118 1 -1 0
37 19 1 0.008059123604893179 11.7664 10.1898 23.449863020791625 0 0 0
13 7 1 0.003562500361631949 2.941600000000001 10.1898 23.449863020791625 0 0 0
4 2 1 0.01118045101209775 1.4708000000000006 7.6424 23.449863020791625 0 0 0
12 6 1 -0.008187862475270539 4.4124 7.6424 23.449863020791625 0 0 0
148 66 3 -0.8476 5.168232450516505 9.047906137187535 19.346953256748833 1 -1 0
5 3 1 0.01564426943939494 1.7763568394002505e-15 10.1898 23.449863020791625 0 0 0
167 72 4 0.4238 11.942045323115195 5.649130151908711 20.657340273077285 0 0 0
328 126 3 -0.8476 13.536656944721523 6.706920305720269 20.30923123396737 0 1 0
329 126 4 0.4238 14.033035625445095 6.901107759295683 21.155340398492882 0 1 0
330 126 4 0.4238 13.32248868402487 7.565726120598325 19.84383926291113 0 1 0
28 14 1 0.005135353479473132 10.2956 7.6424 23.449863020791625 0 0 0
29 15 1 -0.01709114553122559 8.8248 10.1898 23.449863020791625 0 0 0
20 10 1 0.004420735120240576 7.354000000000001 7.6424 23.449863020791625 0 0 0
21 11 1 -8.295950892680149e-05 5.8832 10.1898 23.449863020791625 0 0 0
457 169 3 -0.8476 2.137690785024048 9.831264578841258 16.303498875411698 1 0 0
573 207 4 0.4238 5.848305837212314 0.1762190034544807 17.17943778184179 2 0 0
651 233 4 0.4238 14.491471777300028 0.03037914374267814 15.83219648354528 1 0 0
218 89 4 0.4238 6.5919786085182075 0.9091158018046296 13.131077697911964 0 1 0
54 27 2 0.009538003210554242 1.4708 12.7373 2.4018 0 0 0
55 28 2 -0.003172379929243049 0 15.2847 2.4018 0 0 0
62 31 2 -0.00186117057999337 4.4124 12.7373 2.4018 0 0 0
63 32 2 0.00758887481169554 2.9416 15.2847 2.4018 0 0 0
192 80 4 0.4238 4.794387147708667 14.909075171120765 5.419182095600811 0 0 0