LAMMPS data file via write_data, version 7 Feb 2024, timestep = 100000, units = real

726 atoms
4 atom types
420 bonds
1 bond types
210 angles
1 angle types

0 17.6494 xlo xhi
0 20.3798 ylo yhi
0 26 zlo zhi

Masses

1 500
2 196.97
3 15.9994
4 1.008

Pair Coeffs # lj/cut/coul/long

1 0.069 2.78
2 5.29 2.951
3 0.1553 3.166
4 0 0

Bond Coeffs # harmonic

1 600 1

Angle Coeffs # harmonic

1 75 109.47

Atoms # full

49 25 2 0.01313937832121366 0 0 2.4018 0 0 0
50 25 2 0.01865462761144026 1.4708 2.5475 2.4018 0 0 0
51 26 2 0.01215067828938248 0 5.0949 2.4018 0 0 0
57 29 2 -0.003610807073483032 2.9416 0 2.4018 0 0 0
58 29 2 0.005703013773218414 4.4124 2.5475 2.4018 0 0 0
59 30 2 0.01492950075159763 2.9416 5.0949 2.4018 0 0 0
170 73 4 0.4238 1.1970063131417725 4.448138656468396 5.466951657599895 0 0 0
65 33 2 -0.01336008416568608 5.8832 0 2.4018 0 0 0
66 33 2 0.008131464922511046 7.354000000000001 2.5475 2.4018 0 0 0
67 34 2 0.006428627158081519 5.8832 5.0949 2.4018 0 0 0
73 37 2 0.01530290922280649 8.8248 0 2.4018 0 0 0
74 37 2 0.0178705863531212 10.2956 2.5475 2.4018 0 0 0
75 38 2 0.01605820740803012 8.8248 5.0949 2.4018 0 0 0
339 129 4 0.4238 6.215143407565153 1.5981782348074796 4.622256839105766 0 1 0
655 235 3 -0.8476 8.476564900511942 1.2821844087742245 5.337051952010723 0 0 0
219 89 4 0.4238 10.502021333726653 3.7021423103868947 5.7312543103421625 0 0 0
81 41 2 0.003821352996929769 11.7664 0 2.4018 0 0 0
82 41 2 0.0122499340344385 13.237200000000001 2.5475 2.4018 0 0 0
83 42 2 0.02008338572547091 11.7664 5.0949 2.4018 0 0 0
89 45 2 -0.00220016637598902 14.708000000000002 0 2.4018 0 0 0
90 45 2 0.01916344106292139 16.178800000000003 2.5475 2.4018 0 0 0
91 46 2 0.01585713186018216 14.708000000000002 5.0949 2.4018 0 0 0
422 157 4 0.4238 12.182185463466961 1.5623973821830206 4.952119670183798 -1 0 0
311 120 4 0.4238 16.230200660164634 0.5697212073154095 5.261903478511206 -1 1 0
121 57 3 -0.8476 14.928965974853021 3.8320491507582126 5.646357258624189 -1 0 0
122 57 4 0.4238 15.663742089675145 4.504768415478503 5.559442077530576 -1 0 0
52 26 2 0.009929698685546195 1.4708 7.6424 2.4018 0 0 0
53 27 2 0.01070160392393697 0 10.1898 2.4018 0 0 0
60 30 2 0.002065168034918851 4.4124 7.6424 2.4018 0 0 0
61 31 2 0.008604633418259809 2.9416 10.1898 2.4018 0 0 0
279 109 4 0.4238 4.3692626624440685 8.41895331852646 5.3396246864177614 0 0 0
371 140 4 0.4238 2.4486062593013034 6.793479221771884 5.5865046284837065 0 0 0
68 34 2 0.004714971778387275 7.354000000000001 7.6424 2.4018 0 0 0
69 35 2 0.003924637444139914 5.8832 10.1898 2.4018 0 0 0
76 38 2 0.007917285397572442 10.2956 7.6424 2.4018 0 0 0
77 39 2 -0.01808660951169254 8.8248 10.1898 2.4018 0 0 0
485 178 4 0.4238 10.14363196358318 10.102798405663004 4.167302462597097 0 -1 0
408 152 4 0.4238 9.38291263437119 5.564927602775459 5.045183595795903 0 0 0
84 42 2 0.01241966874518944 13.237200000000001 7.6424 2.4018 0 0 0
85 43 2 -0.01817868841189527 11.7664 10.1898 2.4018 0 0 0
92 46 2 0.009203470152072506 16.178800000000003 7.6424 2.4018 0 0 0
93 47 2 0.01207830870567194 14.708000000000002 10.1898 2.4018 0 0 0
693 247 4 0.4238 11.759233893108473 9.14080805374956 4.994613485874183 0 0 0
691 247 3 -0.8476 12.619729421525784 8.811154786831024 5.383042455327591 0 0 0
54 27 2 0.005629728388362503 1.4708 12.7373 2.4018 0 0 0
55 28 2 0.002513408296186064 0 15.2847 2.4018 0 0 0
62 31 2 0.003092652587940009 4.4124 12.7373 2.4018 0 0 0
63 32 2 0.008508558468704444 2.9416 15.2847 2.4018 0 0 0
537 195 4 0.4238 1.534381720252049 11.860861719269268 6.542947084634663 1 0 0
536 195 4 0.4238 2.676602707730869 11.479113232811624 5.440118771886036 1 0 0
70 35 2 0.02093416092812059 7.354000000000001 12.7373 2.4018 0 0 0
71 36 2 0.0162835107880356 5.8832 15.2847 2.4018 0 0 0
78 39 2 0.005658666939466993 10.2956 12.7373 2.4018 0 0 0
79 40 2 0.01444653211523109 8.8248 15.2847 2.4018 0 0 0
212 87 4 0.4238 9.17689647437603 12.056181317800215 5.899700054352701 -1 0 0
197 82 4 0.4238 10.811203724884162 14.938620779548806 5.143521101460397 -1 0 0
213 87 4 0.4238 9.916127809741116 13.253540453299259 5.071149368154535 -1 0 0
211 87 3 -0.8476 9.032071730946864 12.857093231537508 5.318694103871617 -1 0 0
531 193 4 0.4238 12.030992283922586 12.605823554960878 5.100034965099747 0 0 0
86 43 2 0.005023636657948909 13.237200000000001 12.7373 2.4018 0 0 0
87 44 2 -0.008143953810172733 11.7664 15.2847 2.4018 0 0 0
94 47 2 0.01565233889388304 16.178800000000003 12.7373 2.4018 0 0 0
95 48 2 -0.0009568931481186349 14.708000000000002 15.2847 2.4018 0 0 0
173 74 4 0.4238 14.607048329829912 14.709369240727511 5.225217921443813 -1 0 0
529 193 3 -0.8476 11.686238647240836 13.533907397787061 5.240770699213196 0 0 0
56 28 2 0.02451397099577675 1.4708 17.8322 2.4018 0 0 0
64 32 2 0.0004346307116607769 4.4124 17.8322 2.4018 0 0 0
549 199 4 0.4238 2.8035257638796756 19.94451746271372 5.290160967083597 0 -1 0
547 199 3 -0.8476 3.220242278418862 19.03563378790663 5.306889171843751 0 -1 0
425 158 4 0.4238 2.2192904250669567 17.674274362104903 5.45770242867776 0 0 0
72 36 2 -0.01170623458315166 7.354000000000001 17.8322 2.4018 0 0 0
80 40 2 -0.003752064366203554 10.2956 17.8322 2.4018 0 0 0
584 211 4 0.4238 11.447564153441556 19.671954191394008 5.093755855325763 0 0 0
512 187 4 0.4238 8.000288495265798 18.140951857955233 4.574866834804232 0 -1 0
351 133 4 0.4238 7.438947477451015 14.722835533994202 5.283284390297782 0 -1 0
350 133 4 0.4238 8.678274881612676 15.784894198802297 5.335518060454404 0 -1 0
88 44 2 -0.01375822979594546 13.237200000000001 17.8322 2.4018 0 0 0
96 48 2 -0.002740917165010555 16.178800000000003 17.8322 2.4018 0 0 0
458 169 4 0.4238 3.421534555503742 1.4200532895040254 5.205718648604084 -1 1 0
683 244 4 0.4238 3.567476599791179 4.781786128581657 5.5628705767985975 0 1 0
337 129 3 -0.8476 5.3595063418125735 1.756185300491631 5.115126186134353 0 1 0
338 129 4 0.4238 5.103160503829063 2.7196512122815215 5.037493926885174 0 1 0
682 244 3 -0.8476 4.375390642381924 4.307521060869852 5.213087037727385 0 1 0
348 132 4 0.4238 3.382593086797166 2.6582649725340324 8.899394163639482 -1 0 0
457 169 3 -0.8476 2.5460133336841064 1.2725516181617833 5.665834465490807 -1 1 0
459 169 4 0.4238 2.589096641757538 1.6467500485588584 6.592182668049703 -1 1 0
561 203 4 0.4238 5.34134772960545 2.295447087726068 9.507163619354456 1 1 0
477 175 4 0.4238 1.1383794820837874 2.252829548411057 5.551788680212561 0 0 0
346 132 3 -0.8476 2.621854939654064 2.2807187162263123 8.371434688851567 -1 0 0
347 132 4 0.4238 1.7577917835720536 2.6237577368523186 8.739836673923394 -1 0 0
383 144 4 0.4238 2.013751021656296 5.7853836770492775 8.820622894619671 0 0 0
559 203 3 -0.8476 4.88356003957368 3.182230159728057 9.570778035270529 1 1 0
475 175 3 -0.8476 0.4441306060454029 2.969095805500066 5.4811598260455865 0 0 0
684 244 4 0.4238 5.088994528516322 4.975670185205686 5.002495896526019 0 1 0
384 144 4 0.4238 0.5852422497137534 5.010166403151444 8.97882465943909 0 0 0
446 165 4 0.4238 16.969963796078353 2.624650344678554 9.438794114735915 0 1 0
445 165 3 -0.8476 17.46800479622538 3.4190272308822935 9.786532112927045 0 1 0
133 61 3 -0.8476 4.876806410111092 0.32439160649893634 11.376006535574295 0 0 0
169 73 3 -0.8476 1.674583456761345 5.262162719784211 5.7975370973848515 0 0 0
382 144 3 -0.8476 1.069182487281893 5.739688687583618 8.495501784676557 0 0 0
171 73 4 0.4238 1.3106640973137187 5.521867623412742 6.69202978450027 0 0 0
187 79 3 -0.8476 16.62720577119881 0.930326042887631 8.54479026588559 0 0 0
497 182 4 0.4238 7.839378997418928 3.3814437841168177 6.16452533621845 0 0 0
657 235 4 0.4238 9.272031090332927 1.83712209050886 5.580522819358505 0 0 0
496 182 3 -0.8476 8.158502438157697 4.1808456808602115 5.655489718055916 0 0 0
560 203 4 0.4238 5.558544167193662 3.9135595468724897 9.473032422600387 1 1 0
134 61 4 0.4238 5.572966567570519 0.36773706388079447 10.659428961782988 0 0 0
320 123 4 0.4238 6.060161805639105 0.42325179488669523 8.102448068005529 -1 0 0
100 50 3 -0.8476 6.756557578146551 5.071855368999333 9.86032571931797 0 -1 0
319 123 3 -0.8476 6.2976701265986375 0.9111688382417715 8.94240786444143 -1 0 0
218 89 4 0.4238 11.919622768934 3.042196618470905 6.201897890908077 0 0 0
217 89 3 -0.8476 11.091533855644208 2.897504314620502 5.660292882238534 0 0 0
498 182 4 0.4238 7.39235181929264 4.804271861585367 5.499427861231793 0 0 0
673 241 3 -0.8476 8.72132440503013 2.982111010693392 8.479197221282682 0 0 0
675 241 4 0.4238 9.472560847985294 3.63799712476457 8.553089388517241 0 0 0
315 121 4 0.4238 9.783618797865904 1.3565381734610216 8.142854277918985 -1 0 0
313 121 3 -0.8476 10.641087985568811 0.8450915924487797 8.199185616935535 -1 0 0
656 235 4 0.4238 8.705311185196425 0.3130981855681743 5.429503199432064 0 0 0
321 123 4 0.4238 7.291857043575641 0.9958524437618977 9.008915498770374 -1 0 0
314 121 4 0.4238 11.392357550719073 1.4165705546620657 7.869018352891692 -1 0 0
101 50 4 0.4238 7.602696291781229 5.018646345700789 10.390630557572885 0 -1 0
428 159 4 0.4238 13.536294651585951 5.130827955800905 5.52874090365456 0 0 0
476 175 4 0.4238 17.183591503992144 2.557510755197463 5.532274212078341 -1 0 0
423 157 4 0.4238 12.915229636213642 0.7721644033966159 6.178824792641202 -1 0 0
421 157 3 -0.8476 12.792647828079465 0.8059591347522885 5.186940887095969 -1 0 0
501 183 4 0.4238 13.941179643749352 5.35062707289763 10.498878569878066 -1 0 0
312 120 4 0.4238 14.692034430136435 0.8895962070881698 4.816534411636045 -1 1 0
591 213 4 0.4238 13.351071847481165 2.941187861887174 8.418048382553936 -1 1 0
310 120 3 -0.8476 15.567234528236744 1.2957664610552069 5.07931259036294 -1 1 0
589 213 3 -0.8476 13.12753273250181 2.720571025556741 7.46864676879339 -1 1 0
590 213 4 0.4238 13.75501355893383 3.203248562648256 6.857668437181667 -1 1 0
123 57 4 0.4238 15.254810307885181 2.9401558436833777 5.332733604019717 -1 0 0
462 170 4 0.4238 13.399880789358258 0.5612397722346458 8.301937028492524 0 1 0
460 170 3 -0.8476 13.830254350542669 20.21339558773755 7.767789683970099 0 0 0
500 183 4 0.4238 15.139101303003244 5.143764226309559 9.408548650472385 -1 0 0
499 183 3 -0.8476 14.313107519347962 4.738870829320874 9.800718744114604 -1 0 0
461 170 4 0.4238 13.806841757790728 19.35964290602946 8.287945657181965 0 0 0
642 230 4 0.4238 13.924828446037314 3.192103166011166 10.042815337098027 0 0 0
188 79 4 0.4238 15.651878359345202 0.7202970936706271 8.476773709300652 0 0 0
189 79 4 0.4238 17.119731934741303 0.46913940826563705 7.806733913984351 0 0 0
372 140 4 0.4238 2.1559098027054806 8.390680329253254 5.759435884286429 0 0 0
277 109 3 -0.8476 5.251725056849934 8.853277180020518 5.159004549432832 0 0 0
370 140 3 -0.8476 2.8628007492845517 7.683568349352478 5.7767294855350775 0 0 0
156 68 4 0.4238 2.8150852986677677 8.399635697634759 8.775609296767776 -1 0 0
155 68 4 0.4238 3.5682284865582092 7.799323343928108 7.456885546869966 -1 0 0
154 68 3 -0.8476 3.6941121125704357 8.105231498558357 8.400588181078405 -1 0 0
344 131 4 0.4238 5.851495590776306 7.610268020195233 8.303410633066342 -1 1 0
276 108 4 0.4238 0.6295214161994077 7.955800732747191 9.476625658579314 0 0 0
278 109 4 0.4238 5.108434652534757 9.815403980808044 4.927098708630241 0 0 0
316 122 3 -0.8476 0.6785550047344096 9.233352412166546 5.294545132789045 0 0 0
317 122 4 0.4238 17.343772536332082 9.247243955744489 5.117929828541656 -1 0 0
274 108 3 -0.8476 1.151091478343952 8.802133590012104 9.584730954699129 0 0 0
254 101 4 0.4238 1.4047672246121385 10.402717047765396 8.849432253625244 -2 -1 0
404 151 4 0.4238 4.348339388021353 9.732964506609658 8.16305825421071 0 0 0
253 101 3 -0.8476 1.5634005715993873 11.349547396690783 8.56951677399392 -2 -1 0
296 115 4 0.4238 6.049974642770434 7.005961379640421 4.760383889102717 1 0 0
407 152 4 0.4238 10.893684166125988 6.183904655316318 5.0778448895518 0 0 0
406 152 3 -0.8476 9.92212042239337 6.395593944326714 5.18392681258845 0 0 0
695 248 4 0.4238 7.072663419111676 8.755492401905604 5.307222408462379 0 0 0
295 115 3 -0.8476 6.42489326521015 6.192180884716901 5.204455031976987 1 0 0
153 67 4 0.4238 8.779210794637798 8.625421447058493 9.803957094562449 0 0 0
151 67 3 -0.8476 8.660365397175308 8.533072250541817 8.815347887838605 0 0 0
102 50 4 0.4238 6.676968470482932 5.980291172533071 9.449942413306985 0 -1 0
343 131 3 -0.8476 6.6877815390881965 7.227331943962429 7.910999439459834 -1 1 0
345 131 4 0.4238 7.4737844847511195 7.770043673650436 8.20708275884543 -1 1 0
297 115 4 0.4238 6.548167486855295 6.371956103800878 6.180408248088382 1 0 0
696 248 4 0.4238 8.407631718052315 7.937841760258333 5.771911245838207 0 0 0
266 105 4 0.4238 10.125527147142027 5.899881907831837 7.700846235464896 0 -1 0
694 248 3 -0.8476 8.021629398317938 8.84590763177934 5.6093675780004055 0 0 0
152 67 4 0.4238 8.930290303293235 9.384773358194789 8.366185469432219 0 0 0
486 178 4 0.4238 9.673896467385871 9.736202026628838 5.687691405424343 0 -1 0
479 176 4 0.4238 6.671283907606323 10.929283909165283 7.536694131524121 0 -1 0
108 52 4 0.4238 15.689686278000234 9.852886126152223 5.073893956070031 -1 -1 0
318 122 4 0.4238 1.04516399602464 10.160036886043383 5.211735941197096 0 0 0
429 159 4 0.4238 13.04775836664228 6.686508044310339 5.44031754428302 0 0 0
265 105 3 -0.8476 10.636090713378708 5.1967298416607415 8.195726948026525 0 -1 0
267 105 4 0.4238 11.616401875422898 5.375514677179539 8.111892329040971 0 -1 0
104 51 4 0.4238 17.29639938634143 6.658767486997808 5.41697244336261 -1 -1 0
106 52 3 -0.8476 15.312852705388183 8.952159621375953 5.289971412067087 -1 -1 0
107 52 4 0.4238 14.314625041523152 8.988401490112066 5.242720370467341 -1 -1 0
427 159 3 -0.8476 12.76581221568869 5.734250348907851 5.323218772008595 0 0 0
563 204 4 0.4238 13.048980959535292 7.888697741575689 8.480878050559213 1 0 0
562 204 3 -0.8476 12.227040593668018 8.000330933842479 7.922350810547911 1 0 0
564 204 4 0.4238 11.732672557134151 8.818271900064063 8.216584527290978 1 0 0
692 247 4 0.4238 12.439249191460995 8.35687647064915 6.255429527858298 0 0 0
105 51 4 0.4238 15.7644057782206 7.2206968932244315 5.479087533550543 -1 -1 0
103 51 3 -0.8476 16.34172803824704 6.410609804322348 5.581353946690772 -1 -1 0
233 94 4 0.4238 15.831459483890962 6.3443425412232815 7.506676348102655 -1 -1 0
234 94 4 0.4238 17.207197138288947 6.58665183662654 8.352406396337843 -1 -1 0
232 94 3 -0.8476 16.237496094503037 6.821730002360146 8.285930002143425 -1 -1 0
568 206 3 -0.8476 14.436802869756018 8.066379237357582 9.656320010860052 0 1 0
570 206 4 0.4238 15.171464425763704 7.7573845547850455 9.052336493827966 0 1 0
206 85 4 0.4238 13.135819254007934 10.504053706053634 5.840839099898824 -1 0 0
569 206 4 0.4238 14.82053541511776 8.63463863870175 10.384216696867258 0 1 0
449 166 4 0.4238 4.0285958260301316 15.343584351945665 5.674729337450389 1 0 0
535 195 3 -0.8476 1.7311902045688985 11.779756585356743 5.565865309159913 1 0 0
111 53 4 0.4238 0.5647210915819924 13.356388391731127 5.427024712740609 0 -1 0
713 254 4 0.4238 5.114864454323739 12.17254541331872 5.344615097885859 0 0 0
450 166 4 0.4238 3.321354127455215 13.96810057745761 5.1508197883186915 1 0 0
712 254 3 -0.8476 4.420471355693568 11.461671518193928 5.456320210128772 0 0 0
405 151 4 0.4238 4.529002172190804 11.144785520432174 8.963526376822028 0 0 0
448 166 3 -0.8476 3.1614736111076764 14.853064880509136 5.58817173281572 1 0 0
403 151 3 -0.8476 4.618417094929696 10.69190038264696 8.076452136710195 0 0 0
714 254 4 0.4238 4.306261868188604 11.257121809283122 6.428491588117838 0 0 0
650 233 4 0.4238 0.8261337305710591 15.272855563227955 11.422916396063492 0 0 0
651 233 4 0.4238 1.66943487046593 14.509581557091455 10.251214842599271 0 0 0
175 75 3 -0.8476 17.172315219972358 13.599797919951236 8.480240037975031 -1 0 0
255 101 4 0.4238 2.111601727879556 11.815127535788964 9.264292189404564 -2 -1 0
669 239 4 0.4238 1.32441182429345 14.440534331535007 8.119698252001108 0 -1 0
176 75 4 0.4238 16.919992058996513 13.7590598745656 7.525792869934411 -1 0 0
177 75 4 0.4238 0.14212439820882036 12.816487336818591 8.535057539477759 0 0 0
426 158 4 0.4238 2.0148349179214744 16.05958673041296 5.325003286853482 0 0 0
667 239 3 -0.8476 2.1848064397683484 14.772802155555862 8.50611755159529 0 -1 0
668 239 4 0.4238 2.826360435363054 14.975159669662883 7.766211372331817 0 -1 0
484 178 3 -0.8476 10.357631689874177 10.215682706838484 5.137593326285856 0 -1 0
515 188 4 0.4238 7.237271230821362 13.016850696588378 6.291233855537184 0 -1 0
514 188 3 -0.8476 6.302362345803112 13.314909166429452 6.098601687369539 0 -1 0
516 188 4 0.4238 5.9159319591680255 13.747530614580732 6.913164684522444 0 -1 0
478 176 3 -0.8476 7.649517829269427 10.723084115514967 7.513436353460663 0 -1 0
480 176 4 0.4238 7.821442293527245 9.997393515338612 6.84724073071097 0 -1 0
375 141 4 0.4238 8.262201775857786 12.681244389980177 7.985174959835936 -1 -1 0
373 141 3 -0.8476 8.351343481979528 13.360278166139022 8.713854172750194 -1 -1 0
127 59 3 -0.8476 9.725571949589012 15.799965406891792 8.639971492004653 -1 -1 0
129 59 4 0.4238 9.383943626176912 14.910368743084565 8.943138729244842 -1 -1 0
128 59 4 0.4238 9.78187897329827 15.812796452465063 7.641639904254624 -1 -1 0
670 240 3 -0.8476 10.876081158438845 10.214147348206216 8.664462055509786 0 0 0
716 255 4 0.4238 6.5227205557849794 14.51639237254202 9.157695237319166 0 1 0
715 255 3 -0.8476 5.656410068931462 14.74288667317751 8.712490382023443 0 1 0
717 255 4 0.4238 5.396715203220265 15.679952244365603 8.945875797043128 0 1 0
374 141 4 0.4238 8.147095087998556 12.932874656872187 9.594542632899609 -1 -1 0
690 246 4 0.4238 16.316627758868375 12.417272105899405 5.609830556023115 1 -1 0
688 246 3 -0.8476 15.88450022727728 11.563228829395056 5.3202165565601955 1 -1 0
110 53 4 0.4238 17.403222143019665 14.771437036588974 5.50894993304906 -1 -1 0
530 193 4 0.4238 12.455252864940926 14.171237812645117 5.290056431143296 0 0 0
672 240 4 0.4238 10.93446456953076 11.130757013043066 8.268964586777383 0 0 0
606 218 4 0.4238 13.696925311062042 12.016193744415892 9.42033448199557 0 -1 0
604 218 3 -0.8476 13.199097784370716 12.175725911474224 8.567856309628706 0 -1 0
689 246 4 0.4238 14.951805886784305 11.52332053618768 5.678670862924324 1 -1 0
109 53 3 -0.8476 17.44518184821449 13.833335825788478 5.852765063356562 -1 -1 0
205 85 3 -0.8476 13.408638554629501 11.443690849497175 6.047363985992727 -1 0 0
207 85 4 0.4238 13.219352634578524 11.642002996511048 7.009051887823537 -1 0 0
605 218 4 0.4238 12.764432567986548 13.075775194143777 8.599132109124211 0 -1 0
113 54 4 0.4238 11.526752853301545 15.360710840693375 9.023317467071111 -2 -1 0
503 184 4 0.4238 14.318784694441247 15.15739959317121 8.815434883619313 0 -1 0
112 54 3 -0.8476 12.463653527967322 15.164318472108 9.31253609220812 -2 -1 0
719 256 4 0.4238 16.762922728615607 13.882542054852971 10.562472020809135 0 -1 0
114 54 4 0.4238 12.555583410102484 15.34717931689137 10.291367658555105 -2 -1 0
618 222 4 0.4238 6.148311559852576 16.02626161022556 5.608753804443583 0 -1 0
548 199 4 0.4238 4.155001768830376 19.091027507803666 4.955952128009002 0 -1 0
711 253 4 0.4238 0.956245615044033 20.16155734765175 5.837829871650892 0 0 0
125 58 4 0.4238 3.7327483205332106 19.623338975867025 7.74099072648916 0 -2 0
124 58 3 -0.8476 3.0946065332880934 19.44476887418889 8.489916040495311 0 -2 0
126 58 4 0.4238 2.6716481257293134 20.30346156454942 8.779319328513571 0 -2 0
617 222 4 0.4238 5.234073045261178 17.301463815054312 6.0611421474634195 0 -1 0
534 194 4 0.4238 5.69636760733354 0.22016688690531758 5.87928032633577 0 1 0
467 172 4 0.4238 4.410552940319404 18.162358205230102 8.85743528851177 0 -1 0
616 222 3 -0.8476 5.231395482139811 16.317768569195522 5.881315846511935 0 -1 0
575 208 4 0.4238 2.177620897192864 16.64982393435223 8.761554745053633 0 1 0
576 208 4 0.4238 2.094574505181361 18.21985639375971 9.202835736910075 0 1 0
574 208 3 -0.8476 1.5873217943892133 17.359983182573774 9.145250259424412 0 1 0
424 158 3 -0.8476 1.564206785445587 16.948839460798485 5.246489063063134 0 0 0
578 209 4 0.4238 0.2760161314354884 17.459253764508798 7.916581117516428 1 -1 0
709 253 3 -0.8476 17.62184604917465 20.114099005680494 6.010710031072736 -1 0 0
242 97 4 0.4238 17.40984948086816 16.699345430262625 10.164071784489389 -1 -1 0
513 187 4 0.4238 9.115189452617253 18.724168298812177 5.6157709754579 0 -1 0
468 172 4 0.4238 6.034258727738924 17.988689189495606 8.85060717294741 0 -1 0
466 172 3 -0.8476 5.166589027853813 17.544989350665965 9.074843606247345 0 -1 0
381 143 4 0.4238 4.1591214489581345 15.524908809046764 10.990269722350863 0 -1 0
532 194 3 -0.8476 5.834562824802455 19.887060730724258 6.566790661757808 0 0 0
511 187 3 -0.8476 8.188668075061216 18.845091881965207 5.259485027693011 0 -1 0
196 82 3 -0.8476 10.527262376382927 15.867880764509227 5.379864060368958 -1 0 0
623 224 4 0.4238 8.528221169678154 19.31113215754156 7.824261629619986 0 -1 0
198 82 4 0.4238 11.062901638987622 16.525094673686695 4.849617314139471 -1 0 0
533 194 4 0.4238 6.631147177486181 19.33543163284572 6.319477694784791 0 0 0
349 133 3 -0.8476 7.69607689524864 15.683400937910493 5.177437140121121 0 -1 0
622 224 3 -0.8476 7.888478893752487 18.75285961396988 8.352524879091089 0 -1 0
643 231 3 -0.8476 10.764609330931004 18.70078929569158 9.368107024446358 0 -1 0
645 231 4 0.4238 11.38443546601623 18.224272161997142 8.74461050411629 0 -1 0
644 231 4 0.4238 10.714600259975864 19.666844993781993 9.114653652940364 0 -1 0
624 224 4 0.4238 8.318616297804342 17.87963305837006 8.581561676244952 0 -1 0
583 211 3 -0.8476 10.923680387277354 18.90106219271726 5.456073631082404 0 0 0
174 74 4 0.4238 13.812701589520023 16.099993367558167 5.544291418876141 -1 0 0
504 184 4 0.4238 15.88399643967493 14.722614317395516 8.648992333485126 0 -1 0
172 74 3 -0.8476 13.713001428124947 15.11276340618361 5.420040747545721 -1 0 0
502 184 3 -0.8476 15.256633354866155 15.496055548019697 8.739580218641269 0 -1 0
585 211 4 0.4238 11.40414286428808 18.511473583820692 6.241809732636211 0 0 0
387 145 4 0.4238 12.265671546558718 16.380737435742297 7.1686513413536215 0 -1 0
369 139 4 0.4238 14.681121882135567 18.628753446505907 6.59440054246881 -1 -1 0
611 220 4 0.4238 17.481802587326232 16.639709214951562 4.903714531175374 0 -1 0
612 220 4 0.4238 15.918553047167078 17.11175795529572 4.910655987581638 0 -1 0
579 209 4 0.4238 16.78201906894718 17.325920408163103 6.758352457087368 0 -1 0
385 145 3 -0.8476 12.331377756083219 17.368242490786933 7.311891787604915 0 -1 0
386 145 4 0.4238 12.970558936772463 17.555028613004016 8.057921957800264 0 -1 0
710 253 4 0.4238 17.433607789783785 19.383368605771306 6.6669116430518915 -1 0 0
368 139 4 0.4238 14.227107778925602 18.993012948194856 5.068683005163068 -1 -1 0
259 103 3 -0.8476 14.329652787283667 18.053325372164224 9.13418399297064 -1 -1 0
610 220 3 -0.8476 16.550451245609086 16.37625019023457 5.15506039199796 0 -1 0
367 139 3 -0.8476 14.838696244695667 18.432110772478424 5.626669643597806 -1 -1 0
577 209 3 -0.8476 17.1798101180517 17.93211878211929 7.447037188901601 0 -1 0
447 165 4 0.4238 0.1812793845060234 3.2133495020905416 10.695468049934293 1 1 0
357 135 4 0.4238 1.847556029739268 4.750019700352974 15.001767737024641 0 0 0
97 49 3 -0.8476 4.740821103384455 20.304436935423432 14.92515435856283 -1 -2 0
99 49 4 0.4238 4.178373693671055 0.6308790673370844 14.495182679676672 -1 -1 0
168 72 4 0.4238 4.092559755070765 1.9726288450981528 11.723644946206903 0 -1 0
435 161 4 0.4238 1.8652049665647261 2.529104882577933 11.972384220967834 0 0 0
558 202 4 0.4238 0.4787023196380537 0.9784172030698345 11.983674757347728 0 1 0
166 72 3 -0.8476 3.722204957330288 2.6872039330909865 12.317129443300917 0 -1 0
394 148 3 -0.8476 3.600129810223536 5.711189886722592 9.91127897374719 0 0 0
433 161 3 -0.8476 0.9775133011806281 2.984419097499584 12.0408888299802 0 0 0
434 161 4 0.4238 0.9453105758914859 3.527438181538437 12.879992426286092 0 0 0
167 72 4 0.4238 4.256504961433037 3.5248456706327174 12.20361853529446 0 -1 0
396 148 4 0.4238 4.369323942225964 5.074189350069953 9.962000089090727 0 0 0
355 135 3 -0.8476 1.1940316851586277 4.732773898353678 14.245054728005904 0 0 0
647 232 4 0.4238 1.8279553613860204 1.0549182196346443 15.03870664516926 1 1 0
654 234 4 0.4238 2.7123045598750704 3.03126732097064 15.384352990991019 0 0 0
652 234 3 -0.8476 3.043853077556617 2.221473163587609 14.900296754255706 0 0 0
653 234 4 0.4238 3.443501871147192 2.496242346441958 14.02577780630131 0 0 0
674 241 4 0.4238 7.892284873018967 3.379123004272847 8.87299414189215 0 0 0
246 98 4 0.4238 6.174705839105568 0.8103733560375688 15.585953552731109 0 0 0
245 98 4 0.4238 7.7059877558665955 0.7048163707072558 16.143323425074527 0 0 0
244 98 3 -0.8476 6.8553461484756175 1.2287134080244495 16.187385937552218 0 0 0
697 249 3 -0.8476 10.83831761471495 1.52057398500823 14.182581980610884 0 1 0
698 249 4 0.4238 10.210242664416823 0.8231989403443087 14.5278259235526 0 1 0
629 226 4 0.4238 9.662909714901263 4.794365531285398 11.375689970627544 1 -1 0
593 214 4 0.4238 10.40807559412412 3.1534573657689107 13.657275086695144 0 1 0
592 214 3 -0.8476 9.922606001827361 3.9489839075095747 13.29470320203831 0 1 0
210 86 4 0.4238 7.277002837073857 4.1094452089125735 15.493029225132387 0 1 0
209 86 4 0.4238 7.286164061287226 2.6881361742965186 14.689024342262156 0 1 0
594 214 4 0.4238 8.938734710948083 3.8273333316116873 13.425851125247322 0 1 0
663 237 4 0.4238 5.827808807325225 4.62753019272002 13.404417702965164 0 0 0
208 86 3 -0.8476 7.383014424746107 3.679135358090266 14.596591722696116 0 1 0
419 156 4 0.4238 0.3607084943625497 6.098316380765166 11.804799703813217 0 1 0
641 230 4 0.4238 14.353180736024825 1.7906609315646662 10.763301969550975 0 0 0
640 230 3 -0.8476 13.840489913902166 2.1963234981178763 10.006607544167009 0 0 0
137 62 4 0.4238 12.072289781940233 0.35299104460048664 11.012586562998269 -1 -1 0
699 249 4 0.4238 11.2862135608659 1.1848898153830811 13.353902530381527 0 1 0
136 62 3 -0.8476 12.23072292639147 0.397665446037911 11.998945478595864 -1 -1 0
140 63 4 0.4238 14.867607209668295 1.938752709182049 13.08463832223618 -1 0 0
139 63 3 -0.8476 14.78021627607108 1.1486224670575256 12.477960031682642 -1 0 0
138 62 4 0.4238 13.213575802526444 0.4463785851081826 12.176792489424273 -1 -1 0
286 112 3 -0.8476 15.394577876326938 3.1059264031945113 14.329682330157693 0 0 0
141 63 4 0.4238 15.393986285992415 0.42194716963361606 12.786553485765614 -1 0 0
356 135 4 0.4238 0.3581533842113541 5.210392233397551 14.5155921820269 0 0 0
395 148 4 0.4238 3.856603538115896 6.499626022756107 9.352180381061403 0 0 0
224 91 4 0.4238 3.665540131628934 8.766822079901068 13.52560383146032 -1 -1 0
275 108 4 0.4238 0.7921354634518165 9.317805682629903 10.362699912662606 0 0 0
223 91 3 -0.8476 3.1475931393099716 8.798963862485444 12.67079496023714 -1 -1 0
389 146 4 0.4238 4.678784160455236 8.294957402231551 15.253203116408447 -1 -1 0
216 88 4 0.4238 3.9959639352096077 10.178590384900206 11.243371748278841 0 0 0
257 102 4 0.4238 2.9767178037344864 6.102184067402138 11.44667157530849 -1 -1 0
225 91 4 0.4238 2.793289630849297 7.887606052634235 12.461279975706473 -1 -1 0
258 102 4 0.4238 2.1426164777900727 5.507280901940478 12.718282585374252 -1 -1 0
256 102 3 -0.8476 2.288629921057995 6.311084043070111 12.141582956180768 -1 -1 0
269 106 4 0.4238 6.145338047857415 6.587211058381091 14.096023407757173 0 -1 0
284 111 4 0.4238 1.6547649730419856 9.615458094132954 12.360533668396412 1 -1 0
388 146 3 -0.8476 4.1336175160828486 9.01706227616198 15.679065669504851 -1 -1 0
390 146 4 0.4238 3.278752062602154 8.62968447460259 16.02423850482696 -1 -1 0
686 245 4 0.4238 0.050473204555478116 8.33233481867503 15.35489007150469 0 0 0
630 226 4 0.4238 9.804119270073283 5.686472363021448 10.015236700422788 1 -1 0
628 226 3 -0.8476 9.256514915435922 5.53293526442516 10.837768251306391 1 -1 0
662 237 4 0.4238 6.055655244038911 5.5127515886593095 12.051237698943496 0 0 0
661 237 3 -0.8476 5.39645715645333 4.966977086843131 12.568527627928479 0 0 0
158 69 4 0.4238 8.239784129603814 6.518295232953348 11.762767465452137 0 1 0
157 69 3 -0.8476 7.525721427365336 7.099872414593089 12.152493487393517 0 1 0
331 127 3 -0.8476 9.940292101697922 6.820709072068782 14.168909743748504 0 0 0
333 127 4 0.4238 10.9222641824768 6.811258108109765 14.357704544221606 0 0 0
332 127 4 0.4238 9.588248841650607 5.884912383557486 14.187665406873634 0 0 0
159 69 4 0.4238 7.941296904021835 7.9208242176348564 12.544078932702808 0 1 0
443 164 4 0.4238 9.257282573896715 8.236146821821395 13.82644901446346 -1 0 0
702 250 4 0.4238 8.944556842035203 4.460477944048146 17.220028746753886 -1 1 0
418 156 3 -0.8476 17.04244166005861 5.998736304556262 11.57305385987536 -1 1 0
420 156 4 0.4238 16.929542275845908 5.239054047369782 10.932633742526257 -1 1 0
306 118 4 0.4238 15.054721929761767 6.1988663198682445 12.195550287825709 0 0 0
725 258 4 0.4238 11.763315259015506 4.675923827711252 13.938998247166115 0 0 0
285 111 4 0.4238 0.47886486086631647 10.687324505395337 12.727942385254115 1 -1 0
305 118 4 0.4238 14.247100207506463 7.1072870676606525 11.105070468321909 0 0 0
304 118 3 -0.8476 14.149275445987765 6.481969740029936 11.879287885340991 0 0 0
726 258 4 0.4238 12.960718425168919 5.660168858219739 13.425076283647144 0 0 0
724 258 3 -0.8476 12.468338574375162 5.323652974482742 14.227772092043644 0 0 0
638 229 4 0.4238 12.05956539715828 10.864161281925869 13.802323315521988 -1 -1 0
399 149 4 0.4238 16.750473304787647 9.530503152154038 11.418317259828266 0 1 0
397 149 3 -0.8476 15.763166233431196 9.425157842686454 11.537182449361275 0 1 0
283 111 3 -0.8476 0.820922338317977 10.057794191068144 12.03031158296465 1 -1 0
163 71 3 -0.8476 15.162496118240178 9.870657051117623 14.110440538494784 -1 0 0
164 71 4 0.4238 15.645588456789435 10.715622587912256 13.880969343781755 -1 0 0
685 245 3 -0.8476 16.737395452628256 8.13331549974446 15.539361115979883 -1 0 0
687 245 4 0.4238 16.587379737429536 8.099923479195049 16.527481394265017 -1 0 0