LAMMPS data file via write_data, version 11 Jul 2013, timestep = 10000

1000 atoms
1 atom types

-5.3687390278320350e+00 6.1461796331020025e+01 xlo xhi
-4.6558041136200217e+00 5.3234209917616923e+01 ylo yhi
-6.5611825409372848e+00 4.6247227792940926e+01 zlo zhi

Masses

1 222.12

Atoms

808 1 3.0000000000000000e+02 3.1126920919683769e+00 2.2216331538625722e+00 -4.0778149745654719e+00 0 0 1
835 1 3.0000000000000000e+02 -3.3072771004072274e+00 2.1002775288305759e+00 -4.0956694061705790e+00 1 0 1
196 1 3.0000000000000000e+02 -2.1205146614627246e-01 3.1832997315315215e-01 1.1057163354986859e+00 1 1 0
997 1 3.0000000000000000e+02 -3.6389056715160084e-01 -3.8629439649272719e+00 -4.3438569614718308e+00 1 1 1
803 1 3.0000000000000000e+02 9.8431765184872795e+00 2.3728199420784817e+00 -4.0288647001488815e+00 0 0 1
164 1 3.0000000000000000e+02 1.3006433358066118e+01 3.4716458984576981e-02 1.4047635682945758e+00 0 1 0
167 1 3.0000000000000000e+02 6.5583146636692859e+00 1.0798584505249131e-01 1.2958581805539762e+00 0 1 0
962 1 3.0000000000000000e+02 6.4097972328072714e+00 -3.6083107126788727e+00 -3.9071764500839774e+00 0 1 1
965 1 3.0000000000000000e+02 1.3021960426960327e+01 -3.7102862184212890e+00 -3.6615116640139505e+00 0 1 1
816 1 3.0000000000000000e+02 1.6423301459333743e+01 2.1547212880684015e+00 -3.9039489182038816e+00 0 0 1
175 1 3.0000000000000000e+02 1.9664019024592918e+01 5.2856627409220813e-02 1.3448643652446224e+00 0 1 0
970 1 3.0000000000000000e+02 1.9882169102864921e+01 -3.8609552996521659e+00 -3.7750404150870152e+00 0 1 1
811 1 3.0000000000000000e+02 2.3249670823888149e+01 2.2350540652536841e+00 -3.8994862383868849e+00 0 0 1
172 1 3.0000000000000000e+02 2.6421026886093102e+01 1.6144488007316227e-01 1.3309299134412029e+00 0 1 0
973 1 3.0000000000000000e+02 2.6503327089466190e+01 -3.5346104113939969e+00 -3.9086580761736522e+00 0 1 1
824 1 3.0000000000000000e+02 3.0046156133052676e+01 2.2963983564968720e+00 -3.9159487504011521e+00 0 0 1
183 1 3.0000000000000000e+02 3.3137900835405475e+01 1.8596662340326375e-01 1.5577834037717331e+00 0 1 0
819 1 3.0000000000000000e+02 3.6429486578608895e+01 1.9495021183003125e+00 -4.0720705174294576e+00 0 0 1
180 1 3.0000000000000000e+02 3.9536476486191631e+01 3.1975599381283892e-01 1.6304068354963537e+00 0 1 0
978 1 3.0000000000000000e+02 3.3158723965541760e+01 -3.6875375350536528e+00 -3.7845309392932780e+00 0 1 1
981 1 3.0000000000000000e+02 3.9632039264201765e+01 -3.5877070888774485e+00 -3.7147937629301340e+00 0 1 1
827 1 3.0000000000000000e+02 4.9664983069567299e+01 1.9041932583653365e+00 -3.8738170698782475e+00 0 0 1
832 1 3.0000000000000000e+02 4.3005990444356229e+01 2.2464356272274655e+00 -3.6109009184093193e+00 0 0 1
191 1 3.0000000000000000e+02 4.6344394345744426e+01 2.2490462473399209e-01 1.2129910776746780e+00 0 1 0
986 1 3.0000000000000000e+02 4.6288032365956603e+01 -3.7450619816739854e+00 -3.7180381997742504e+00 0 1 1
188 1 3.0000000000000000e+02 5.3204007488655996e+01 5.9805519789873252e-02 1.1713983697740238e+00 0 1 0
989 1 3.0000000000000000e+02 5.3054855326558581e+01 -4.1359587990877573e+00 -3.8812061618409168e+00 0 1 1
840 1 3.0000000000000000e+02 5.6372774801185592e+01 2.2033041369734638e+00 -3.9391557065443616e+00 0 0 1
199 1 3.0000000000000000e+02 5.9947552275563751e+01 3.2082365411417690e-01 1.1110504874703828e+00 0 1 0
994 1 3.0000000000000000e+02 5.9841849356390611e+01 -3.5311391389493041e+00 -4.0109141631455465e+00 0 1 1
1 1 3.0000000000000000e+02 2.8656513329620594e+00 6.2636939232925943e+00 1.3898577500181677e+00 0 0 0
848 1 3.0000000000000000e+02 3.0519696577219815e+00 1.3910280813906855e+01 -3.9549801841671872e+00 0 0 1
36 1 3.0000000000000000e+02 -5.5440077532064258e-01 1.1890583740162644e+01 1.1843992984408818e+00 1 0 0
38 1 3.0000000000000000e+02 -3.6720016665238520e+00 5.9122460273215367e+00 1.2218485417573159e+00 1 0 0
837 1 3.0000000000000000e+02 -3.8739726353913273e-01 7.9905165977780683e+00 -4.1079056248606420e+00 1 0 1
875 1 3.0000000000000000e+02 -3.6343775666333675e+00 1.3697674018261377e+01 -4.0117370155141465e+00 1 0 1
4 1 3.0000000000000000e+02 1.3286907981704289e+01 1.1653903488514217e+01 1.3526655550004287e+00 0 0 0
6 1 3.0000000000000000e+02 9.6744273335639477e+00 6.0373568167912133e+00 1.5252061504699057e+00 0 0 0
7 1 3.0000000000000000e+02 6.1245309944073671e+00 1.1835518331426659e+01 1.3025859636146464e+00 0 0 0
802 1 3.0000000000000000e+02 6.0863541647180508e+00 7.9370181328949538e+00 -3.8537390453120861e+00 0 0 1
805 1 3.0000000000000000e+02 1.3100248982729486e+01 7.9081416670518667e+00 -3.9652499876612444e+00 0 0 1
843 1 3.0000000000000000e+02 9.5867252307933626e+00 1.3368562826041799e+01 -3.8339767003535941e+00 0 0 1
9 1 3.0000000000000000e+02 1.6404820945991215e+01 5.8195113818606092e+00 1.1969978407728412e+00 0 0 0
15 1 3.0000000000000000e+02 1.9885603794254603e+01 1.1718449406194818e+01 1.3557205047588621e+00 0 0 0
810 1 3.0000000000000000e+02 1.9595408621786518e+01 7.8382902814712399e+00 -4.1133332828425706e+00 0 0 1
856 1 3.0000000000000000e+02 1.6150442574882813e+01 1.3681989625919709e+01 -3.9260363508751683e+00 0 0 1
851 1 3.0000000000000000e+02 2.2924303764172681e+01 1.3874053118731915e+01 -4.0806868228510345e+00 0 0 1
14 1 3.0000000000000000e+02 2.3313153930410763e+01 6.0835039158404829e+00 1.4804805646295520e+00 0 0 0
12 1 3.0000000000000000e+02 2.6231049516393607e+01 1.1593674780453632e+01 1.3787680205757527e+00 0 0 0
813 1 3.0000000000000000e+02 2.6411534502281174e+01 8.0824992186006384e+00 -4.1385705640810659e+00 0 0 1
17 1 3.0000000000000000e+02 2.9606929985773363e+01 5.9914131177487935e+00 1.4395186932905588e+00 0 0 0
864 1 3.0000000000000000e+02 2.9643457991134412e+01 1.3569589536161828e+01 -3.8319067756281036e+00 0 0 1
23 1 3.0000000000000000e+02 3.3143452567219448e+01 1.1878303803574031e+01 1.4320132402420009e+00 0 0 0
20 1 3.0000000000000000e+02 4.0060653008035160e+01 1.1991544209625509e+01 1.2413332363972778e+00 0 0 0
22 1 3.0000000000000000e+02 3.6462797221250185e+01 6.0501518201911058e+00 1.5122598580730795e+00 0 0 0
818 1 3.0000000000000000e+02 3.3312837352477217e+01 7.8951165246363431e+00 -3.8707785093841567e+00 0 0 1
821 1 3.0000000000000000e+02 3.9674397231335497e+01 7.9447754072804475e+00 -3.8479397025524018e+00 0 0 1
859 1 3.0000000000000000e+02 3.6514520387512427e+01 1.3556195844529050e+01 -3.4447406191192442e+00 0 0 1
25 1 3.0000000000000000e+02 4.3260280705322614e+01 5.8961148234134715e+00 1.3740766268410569e+00 0 0 0
30 1 3.0000000000000000e+02 4.9822968886381553e+01 6.0849661851938386e+00 1.4823292591730475e+00 0 0 0
31 1 3.0000000000000000e+02 4.6471218625725186e+01 1.1802901734855521e+01 1.3809380715112942e+00 0 0 0
826 1 3.0000000000000000e+02 4.6631625877966272e+01 7.6210312556800108e+00 -4.0448345159136316e+00 0 0 1
867 1 3.0000000000000000e+02 4.9650500290863889e+01 1.3530771457777217e+01 -4.1047509042318762e+00 0 0 1
872 1 3.0000000000000000e+02 4.3242093332856989e+01 1.3668048254028410e+01 -4.0601293549304618e+00 0 0 1
28 1 3.0000000000000000e+02 5.3213799294907950e+01 1.1708701257909450e+01 1.0408312303962228e+00 0 0 0
829 1 3.0000000000000000e+02 5.3162481750332383e+01 7.7168062000590716e+00 -3.8927729723766871e+00 0 0 1
33 1 3.0000000000000000e+02 5.6460617006011589e+01 5.8493509663766883e+00 1.6170537712941258e+00 0 0 0
39 1 3.0000000000000000e+02 5.9669471689040066e+01 1.1634261059134271e+01 1.3679519635801682e+00 0 0 0
834 1 3.0000000000000000e+02 5.9686030945816938e+01 7.9702169210661680e+00 -4.0209004146367562e+00 0 0 1
880 1 3.0000000000000000e+02 5.6810507143276688e+01 1.3881274839770548e+01 -4.0215847620906136e+00 0 0 1
41 1 3.0000000000000000e+02 2.8538330476031888e+00 1.7578468825572923e+01 1.3155486561894678e+00 0 0 0
76 1 3.0000000000000000e+02 -3.3096868654296330e-01 2.3358774084100222e+01 1.3679167467771798e+00 1 0 0
78 1 3.0000000000000000e+02 -3.9521436225090070e+00 1.7828576958437349e+01 1.1669605020786520e+00 1 0 0
877 1 3.0000000000000000e+02 -4.3184237178281570e-01 1.9353522621050164e+01 -3.9868951630007143e+00 1 0 1
44 1 3.0000000000000000e+02 1.3139795852436965e+01 2.3394566642521795e+01 1.1416390944907118e+00 0 0 0
46 1 3.0000000000000000e+02 9.6292019602016818e+00 1.7404205158132399e+01 1.2622055716091864e+00 0 0 0
47 1 3.0000000000000000e+02 6.1620704417980328e+00 2.3462039989635493e+01 1.3774171782743885e+00 0 0 0
842 1 3.0000000000000000e+02 6.1613380896042731e+00 1.9543430853573128e+01 -3.9350824160938545e+00 0 0 1
845 1 3.0000000000000000e+02 1.2959915173001878e+01 1.9286048863119980e+01 -4.0147327868422318e+00 0 0 1
49 1 3.0000000000000000e+02 1.6266616366505808e+01 1.7330831958494663e+01 1.1973006060636386e+00 0 0 0
54 1 3.0000000000000000e+02 2.2936047052865554e+01 1.7314638498506010e+01 1.4934778901641952e+00 0 0 0
55 1 3.0000000000000000e+02 1.9585564062432340e+01 2.3018481789085062e+01 1.3145049454047060e+00 0 0 0
850 1 3.0000000000000000e+02 1.9592469816336749e+01 1.9338019246605615e+01 -3.8098510497341982e+00 0 0 1
52 1 3.0000000000000000e+02 2.6243872860667480e+01 2.3396405157270507e+01 1.3365568685536813e+00 0 0 0
853 1 3.0000000000000000e+02 2.6313667961692776e+01 1.9194225405159465e+01 -3.8486780813966797e+00 0 0 1
57 1 3.0000000000000000e+02 2.9630002468922235e+01 1.7470996926442314e+01 1.2791086431003516e+00 0 0 0
858 1 3.0000000000000000e+02 3.3132289748287988e+01 1.9482132788622962e+01 -3.7817267180922931e+00 0 0 1
60 1 3.0000000000000000e+02 3.9938214812474783e+01 2.3148929859459091e+01 1.5984234047211583e+00 0 0 0
62 1 3.0000000000000000e+02 3.6734035931870253e+01 1.7603977787032495e+01 1.5233722470515527e+00 0 0 0
63 1 3.0000000000000000e+02 3.2989942135761666e+01 2.3286315932222198e+01 1.5677134303744289e+00 0 0 0
861 1 3.0000000000000000e+02 3.9753100983434500e+01 1.9212527163358867e+01 -3.8900004909064867e+00 0 0 1
65 1 3.0000000000000000e+02 4.3375425812713097e+01 1.7773516791768873e+01 1.3436603354416077e+00 0 0 0
70 1 3.0000000000000000e+02 5.0031510968434198e+01 1.7486077640285178e+01 1.1132882573595344e+00 0 0 0
71 1 3.0000000000000000e+02 4.6535894173363829e+01 2.3369032906010428e+01 1.1142313854441435e+00 0 0 0
866 1 3.0000000000000000e+02 4.6526224725846689e+01 1.9333024948333009e+01 -4.1320275372893036e+00 0 0 1
68 1 3.0000000000000000e+02 5.3089882276464138e+01 2.3201413962274504e+01 1.1220117995283898e+00 0 0 0
869 1 3.0000000000000000e+02 5.3076432435825673e+01 1.9443743790393700e+01 -3.9658501365884851e+00 0 0 1
73 1 3.0000000000000000e+02 5.6444312660213825e+01 1.7590684999286065e+01 1.6132847367810630e+00 0 0 0
79 1 3.0000000000000000e+02 5.9793955989279212e+01 2.3511041276786123e+01 1.2408893156887659e+00 0 0 0
874 1 3.0000000000000000e+02 5.9694691561203641e+01 1.9515276814509821e+01 -4.0047880145348334e+00 0 0 1
81 1 3.0000000000000000e+02 3.0420569536132245e+00 2.9108524233121933e+01 1.2273758658722018e+00 0 0 0
888 1 3.0000000000000000e+02 2.8444467662493427e+00 2.5483167325556234e+01 -3.7664815244923879e+00 0 0 1
118 1 3.0000000000000000e+02 -3.5844915613941737e+00 2.9454776517208302e+01 1.5761107713457374e+00 1 0 0
915 1 3.0000000000000000e+02 -3.7979502427266407e+00 2.5210397570827656e+01 -3.9582182829160044e+00 1 0 1
917 1 3.0000000000000000e+02 -4.3334698274776784e-01 3.1098473996466701e+01 -3.8644678324318185e+00 1 0 1
86 1 3.0000000000000000e+02 9.7930089808705230e+00 2.9267652999757800e+01 1.5491616177490037e+00 0 0 0
882 1 3.0000000000000000e+02 6.2918663520539067e+00 3.0901288013486415e+01 -4.0992996609072758e+00 0 0 1
883 1 3.0000000000000000e+02 9.9090809883489790e+00 2.5196242534479911e+01 -4.2853109012070636e+00 0 0 1
885 1 3.0000000000000000e+02 1.2861895900101260e+01 3.1196558280853466e+01 -4.1431584886698705e+00 0 0 1
89 1 3.0000000000000000e+02 1.6284276093355416e+01 2.9176658236634417e+01 1.2138962371836692e+00 0 0 0
890 1 3.0000000000000000e+02 1.9893221563427286e+01 3.0898999094328197e+01 -3.9576117203381509e+00 0 0 1
891 1 3.0000000000000000e+02 2.3149453242245219e+01 2.5231523078262313e+01 -3.9326920181280625e+00 0 0 1
896 1 3.0000000000000000e+02 1.6419133514032595e+01 2.5110783754464219e+01 -4.0362321645632466e+00 0 0 1
94 1 3.0000000000000000e+02 2.3079906853014467e+01 2.9317875584175511e+01 1.1949435935190005e+00 0 0 0
893 1 3.0000000000000000e+02 2.6285175963738141e+01 3.1151699191212302e+01 -3.9368224938876262e+00 0 0 1
97 1 3.0000000000000000e+02 2.9532234190005354e+01 2.9165513300503186e+01 1.1551607778454525e+00 0 0 0
904 1 3.0000000000000000e+02 2.9798468636156464e+01 2.5275783803985007e+01 -3.9158553732525760e+00 0 0 1
898 1 3.0000000000000000e+02 3.3132167816689972e+01 3.0775163173382964e+01 -4.1300184536829514e+00 0 0 1
102 1 3.0000000000000000e+02 3.6524046134439160e+01 2.8916117827703786e+01 1.5514688114407207e+00 0 0 0
899 1 3.0000000000000000e+02 3.6399795316554552e+01 2.4962336160176520e+01 -3.4826490408909292e+00 0 0 1
901 1 3.0000000000000000e+02 3.9690952920273432e+01 3.1078647315759007e+01 -3.9764593092723741e+00 0 0 1
105 1 3.0000000000000000e+02 4.3208882735181163e+01 2.9246936948132138e+01 1.5362931781073694e+00 0 0 0
110 1 3.0000000000000000e+02 5.0043727408450430e+01 2.9170771562693631e+01 1.1856031576330590e+00 0 0 0
906 1 3.0000000000000000e+02 4.6314862050019258e+01 3.0959305374295511e+01 -3.9238762839563539e+00 0 0 1
907 1 3.0000000000000000e+02 4.9789061576740423e+01 2.5468464161671097e+01 -4.2720155982577452e+00 0 0 1
912 1 3.0000000000000000e+02 4.3252457325185397e+01 2.5026244781033437e+01 -3.8150539347404644e+00 0 0 1
909 1 3.0000000000000000e+02 5.3194438140631632e+01 3.1261872146522578e+01 -3.9226750124936394e+00 0 0 1
113 1 3.0000000000000000e+02 5.6701870761486340e+01 2.9055732934124769e+01 1.4738119081860503e+00 0 0 0
914 1 3.0000000000000000e+02 5.9869265053747114e+01 3.1167987219094570e+01 -3.8796746313497370e+00 0 0 1
920 1 3.0000000000000000e+02 5.6678137914949126e+01 2.5292431275330831e+01 -4.1638873568561294e+00 0 0 1
121 1 3.0000000000000000e+02 3.1362240552607759e+00 4.0548316488968474e+01 1.1290086542988700e+00 0 0 0
928 1 3.0000000000000000e+02 2.9915234805457409e+00 3.6545242121332478e+01 -4.0910404672772032e+00 0 0 1
116 1 3.0000000000000000e+02 -1.6276732933503535e-01 3.4844339848366623e+01 1.3611658527101866e+00 1 0 0
158 1 3.0000000000000000e+02 -3.5757498064204993e+00 4.0212535242841113e+01 1.1481335155823080e+00 1 0 0
955 1 3.0000000000000000e+02 -3.7399317901964872e+00 3.6697827597636824e+01 -4.1747138004208679e+00 1 0 1
957 1 3.0000000000000000e+02 -2.6623342761278934e-01 4.2201554254562154e+01 -3.9012443360568079e+00 1 0 1
84 1 3.0000000000000000e+02 1.2873460343407064e+01 3.5034857077297694e+01 1.1549573039309164e+00 0 0 0
87 1 3.0000000000000000e+02 6.3582885460141956e+00 3.5052987821005807e+01 1.2175295447384702e+00 0 0 0
126 1 3.0000000000000000e+02 9.4853146912829942e+00 4.1072694264369936e+01 1.2797288146926986e+00 0 0 0
922 1 3.0000000000000000e+02 6.2304412648385288e+00 4.2506129642420326e+01 -3.8727844472002575e+00 0 0 1
923 1 3.0000000000000000e+02 9.8175539015028335e+00 3.6899859932954520e+01 -4.0016549093081188e+00 0 0 1
925 1 3.0000000000000000e+02 1.2790866812305094e+01 4.2565552838276091e+01 -3.9776074411566644e+00 0 0 1
95 1 3.0000000000000000e+02 1.9752735550314632e+01 3.4968242319277330e+01 1.4881248426118781e+00 0 0 0
129 1 3.0000000000000000e+02 1.6277083372600913e+01 4.0640902675871686e+01 1.2338572866853958e+00 0 0 0
930 1 3.0000000000000000e+02 1.9512074001240236e+01 4.2729636007002782e+01 -3.8606880884212922e+00 0 0 1
936 1 3.0000000000000000e+02 1.6308137064749371e+01 3.6554769557841638e+01 -4.0357598083460857e+00 0 0 1
931 1 3.0000000000000000e+02 2.3044602833283964e+01 3.7170589921922200e+01 -3.8081383276039187e+00 0 0 1
134 1 3.0000000000000000e+02 2.3064292872095418e+01 4.0833416333950815e+01 1.2837802183328479e+00 0 0 0
92 1 3.0000000000000000e+02 2.6401872564938007e+01 3.5429731330081516e+01 1.5015257614546673e+00 0 0 0
933 1 3.0000000000000000e+02 2.6484081209843151e+01 4.2509212079557145e+01 -3.9241228821957423e+00 0 0 1
137 1 3.0000000000000000e+02 2.9943751573044104e+01 4.0477749614187118e+01 1.3850826171170834e+00 0 0 0
944 1 3.0000000000000000e+02 3.0017013860761196e+01 3.6721890851501861e+01 -4.0458427335557836e+00 0 0 1
100 1 3.0000000000000000e+02 3.9822778809122994e+01 3.4604191109011971e+01 1.3252296024629979e+00 0 0 0
103 1 3.0000000000000000e+02 3.2885767294225069e+01 3.4801901443129182e+01 1.2948933450694593e+00 0 0 0
142 1 3.0000000000000000e+02 3.6393969906401168e+01 4.0309866495441135e+01 1.2285680711098790e+00 0 0 0
938 1 3.0000000000000000e+02 3.3097727980163867e+01 4.2765978145620664e+01 -3.7162208076860916e+00 0 0 1
939 1 3.0000000000000000e+02 3.6306570686885848e+01 3.6757184581165959e+01 -3.8017670964494892e+00 0 0 1
941 1 3.0000000000000000e+02 3.9723275936917112e+01 4.2547742826806214e+01 -3.6082383067658812e+00 0 0 1
111 1 3.0000000000000000e+02 4.6288480216235371e+01 3.4954700727329978e+01 1.5649751997454207e+00 0 0 0
145 1 3.0000000000000000e+02 4.3121979088348475e+01 4.0475400850823192e+01 1.5820030079341834e+00 0 0 0
150 1 3.0000000000000000e+02 4.9676082214317567e+01 4.0819993395341498e+01 1.3758349081410444e+00 0 0 0
946 1 3.0000000000000000e+02 4.6421601876690637e+01 4.2448133621304478e+01 -4.1102611705020484e+00 0 0 1
947 1 3.0000000000000000e+02 4.9789695793820471e+01 3.6650339321376357e+01 -4.2266729348695158e+00 0 0 1
952 1 3.0000000000000000e+02 4.3078185546883809e+01 3.6740829416488161e+01 -4.0994681237849324e+00 0 0 1
108 1 3.0000000000000000e+02 5.2657947760185962e+01 3.5289776175800036e+01 1.5517450805712265e+00 0 0 0
949 1 3.0000000000000000e+02 5.3051332493925663e+01 4.2635259613890668e+01 -4.0961509141274970e+00 0 0 1
119 1 3.0000000000000000e+02 5.9441229105151990e+01 3.4954964764720962e+01 1.2161958479614210e+00 0 0 0
153 1 3.0000000000000000e+02 5.6463714053382631e+01 4.0585402791354248e+01 1.2488534852629378e+00 0 0 0
954 1 3.0000000000000000e+02 5.9838932316661825e+01 4.2837061557374390e+01 -3.8038879894306490e+00 0 0 1
960 1 3.0000000000000000e+02 5.6111584471293135e+01 3.6996468196756126e+01 -4.1736915525037013e+00 0 0 1
161 1 3.0000000000000000e+02 2.6895678065622537e+00 5.2436073783443568e+01 1.2568915151310813e+00 0 0 0
968 1 3.0000000000000000e+02 3.0817706763867445e+00 4.8486438039711238e+01 -3.9015351524621913e+00 0 0 1
156 1 3.0000000000000000e+02 -2.3681038106865859e-01 4.6470532414738614e+01 1.0306828934973700e+00 1 0 0
198 1 3.0000000000000000e+02 -3.6469001634826705e+00 5.2434109742012687e+01 1.4994151609406359e+00 1 0 0
995 1 3.0000000000000000e+02 -3.4219670808938818e+00 4.8501443510206158e+01 -3.9909484334874703e+00 1 0 1
124 1 3.0000000000000000e+02 1.3166443409824506e+01 4.6671476058638781e+01 1.3215533975298435e+00 0 0 0
127 1 3.0000000000000000e+02 6.3488880074555709e+00 4.6720011998366765e+01 1.2893661449684766e+00 0 0 0
166 1 3.0000000000000000e+02 9.5308099934245814e+00 5.2240756342186216e+01 1.3612238158459524e+00 0 0 0
963 1 3.0000000000000000e+02 9.7573418593122891e+00 4.8489527337435703e+01 -4.1357733512429409e+00 0 0 1
135 1 3.0000000000000000e+02 1.9771158827049153e+01 4.6600160271436181e+01 1.2459611928502188e+00 0 0 0
169 1 3.0000000000000000e+02 1.6692902829086453e+01 5.2146532078254999e+01 1.2942631876167416e+00 0 0 0
976 1 3.0000000000000000e+02 1.6553946207096871e+01 4.8088257618572911e+01 -4.0361450930889582e+00 0 0 1
971 1 3.0000000000000000e+02 2.3191984276847986e+01 4.8628901993333216e+01 -3.9525375899632023e+00 0 0 1
174 1 3.0000000000000000e+02 2.3361916715575369e+01 5.2408007870446042e+01 1.8272509282562037e+00 0 0 0
132 1 3.0000000000000000e+02 2.6466097320888313e+01 4.6596170981624091e+01 1.1882568661845729e+00 0 0 0
177 1 3.0000000000000000e+02 2.9824156101024535e+01 5.2021190388292062e+01 1.3586464617897684e+00 0 0 0
984 1 3.0000000000000000e+02 2.9683473357075350e+01 4.8417002296009734e+01 -3.9130269141493299e+00 0 0 1
143 1 3.0000000000000000e+02 3.3194469526214199e+01 4.6482099272704055e+01 1.3443309761715252e+00 0 0 0
140 1 3.0000000000000000e+02 3.9500450987127131e+01 4.6518822255974662e+01 1.6341932385922320e+00 0 0 0
182 1 3.0000000000000000e+02 3.6644730724458626e+01 5.2290246625193340e+01 1.6240515556638773e+00 0 0 0
979 1 3.0000000000000000e+02 3.6525024750045510e+01 4.8160125893330452e+01 -4.0758722121899424e+00 0 0 1
151 1 3.0000000000000000e+02 4.6063704426789080e+01 4.6259687565944944e+01 1.2935410686550055e+00 0 0 0
185 1 3.0000000000000000e+02 4.2791650883849137e+01 5.2132828909927646e+01 1.3691321127353575e+00 0 0 0
190 1 3.0000000000000000e+02 4.9775528565179918e+01 5.2047568381061033e+01 1.2529596001856182e+00 0 0 0
987 1 3.0000000000000000e+02 4.9813727015121742e+01 4.8171960961792109e+01 -3.7874874372345837e+00 0 0 1
992 1 3.0000000000000000e+02 4.2891121755809685e+01 4.8346743522671510e+01 -3.9739679687026586e+00 0 0 1
148 1 3.0000000000000000e+02 5.3110351006180544e+01 4.6491391318864572e+01 1.1173879539060652e+00 0 0 0
159 1 3.0000000000000000e+02 6.0069588183912728e+01 4.6530142538858854e+01 1.4628968725280664e+00 0 0 0
193 1 3.0000000000000000e+02 5.6607335302579905e+01 5.2177537696212113e+01 1.3151528731319733e+00 0 0 0
1000 1 3.0000000000000000e+02 5.6591304161785636e+01 4.8316130617774704e+01 -3.8474623240227648e+00 0 0 1
8 1 3.0000000000000000e+02 3.0549391270753556e+00 1.9696391172615240e+00 6.3583965828860425e+00 0 0 0
35 1 3.0000000000000000e+02 -3.7104701062484802e+00 2.3730121081304185e+00 6.4502347808124512e+00 1 0 0
197 1 3.0000000000000000e+02 -5.4856321031013877e-01 -3.2194481229312881e+00 6.7537458433797486e+00 1 1 0
396 1 3.0000000000000000e+02 -3.0289922318021478e-01 2.4792828022660363e-01 1.1886448934407458e+01 1 1 0
3 1 3.0000000000000000e+02 9.8044605964198688e+00 1.8938499164962845e+00 6.6288317231393101e+00 0 0 0
162 1 3.0000000000000000e+02 6.5830464719463713e+00 -3.8348603887320984e+00 6.6485694637582196e+00 0 1 0
165 1 3.0000000000000000e+02 1.3105434607401303e+01 -3.9253940324432079e+00 6.2982757680255457e+00 0 1 0
364 1 3.0000000000000000e+02 1.3159140987770474e+01 -4.8437510787042726e-03 1.1888729170073805e+01 0 1 0
367 1 3.0000000000000000e+02 6.8284911519146334e+00 1.5385489597384261e-01 1.1668031439854015e+01 0 1 0
16 1 3.0000000000000000e+02 1.6417257506642869e+01 2.0025004043354429e+00 6.6679905790154343e+00 0 0 0
170 1 3.0000000000000000e+02 1.9877990493149074e+01 -3.6249041588705051e+00 6.6573264012170448e+00 0 1 0
375 1 3.0000000000000000e+02 1.9878179927006890e+01 2.8276817590615355e-01 1.1955533304796514e+01 0 1 0
11 1 3.0000000000000000e+02 2.3275394781183529e+01 2.2567508606943711e+00 6.6122189222336445e+00 0 0 0
173 1 3.0000000000000000e+02 2.6655783603112738e+01 -3.7385707476457730e+00 6.9980417469859031e+00 0 1 0
372 1 3.0000000000000000e+02 2.6588606681647359e+01 3.3857619280249107e-01 1.2212646579064081e+01 0 1 0
24 1 3.0000000000000000e+02 2.9892278927020733e+01 2.3998257653097470e+00 6.7210436822210831e+00 0 0 0
19 1 3.0000000000000000e+02 3.6331958671109412e+01 2.2531438901572356e+00 6.8680111807012842e+00 0 0 0
178 1 3.0000000000000000e+02 3.2975292939781546e+01 -3.6734225157709828e+00 6.8069705180120419e+00 0 1 0
181 1 3.0000000000000000e+02 3.9815382571018063e+01 -3.7123360389500513e+00 6.7254537731865920e+00 0 1 0
380 1 3.0000000000000000e+02 3.9941227707408757e+01 3.4098541697187379e-01 1.2015626072779853e+01 0 1 0
383 1 3.0000000000000000e+02 3.3148162640855809e+01 1.4292369199082078e-01 1.1980812000819274e+01 0 1 0
27 1 3.0000000000000000e+02 4.9929582570176620e+01 1.9909953201166113e+00 6.5166698529700984e+00 0 0 0
32 1 3.0000000000000000e+02 4.2886597052150933e+01 2.1494228354230795e+00 6.6561023154807231e+00 0 0 0
186 1 3.0000000000000000e+02 4.6375669222434666e+01 -3.4171576187194708e+00 6.3888685533457767e+00 0 1 0
391 1 3.0000000000000000e+02 4.6513125453805671e+01 2.3672958664222676e-01 1.1989794835868203e+01 0 1 0
189 1 3.0000000000000000e+02 5.3360967322388149e+01 -3.7639510370687841e+00 6.2808584449155482e+00 0 1 0
388 1 3.0000000000000000e+02 5.3314919575585861e+01 1.4313536556309536e-01 1.1744798800857158e+01 0 1 0
40 1 3.0000000000000000e+02 5.6490118202825904e+01 2.1691485112383964e+00 6.6649867193320951e+00 0 0 0
194 1 3.0000000000000000e+02 5.9584457098214756e+01 -3.5380448200011254e+00 6.6435882113240776e+00 0 1 0
399 1 3.0000000000000000e+02 6.0022779740423303e+01 2.0220324333979889e-01 1.1934113481044704e+01 0 1 0
201 1 3.0000000000000000e+02 2.9210976214138658e+00 5.7134670999013935e+00 1.1860233121829413e+01 0 0 0
48 1 3.0000000000000000e+02 2.8688447720667032e+00 1.3757159202209760e+01 6.5323593912812701e+00 0 0 0
37 1 3.0000000000000000e+02 -5.4849400505220558e-01 7.8265106307766299e+00 6.7916005113801550e+00 1 0 0
236 1 3.0000000000000000e+02 -2.7222369870664931e-01 1.1973447767097973e+01 1.1854962052567288e+01 1 0 0
238 1 3.0000000000000000e+02 -3.5897644070509962e+00 6.0890336231911739e+00 1.1838689530537970e+01 1 0 0
75 1 3.0000000000000000e+02 -3.8953514357474939e+00 1.3896192046840309e+01 6.6651817444215187e+00 1 0 0
2 1 3.0000000000000000e+02 6.3224490323560723e+00 8.0896954726911812e+00 6.9000137275956170e+00 0 0 0
5 1 3.0000000000000000e+02 1.3069425133247815e+01 7.8243709278900671e+00 6.7380802965676860e+00 0 0 0
204 1 3.0000000000000000e+02 1.2825958847218033e+01 1.1566406052303805e+01 1.1796903709038364e+01 0 0 0
206 1 3.0000000000000000e+02 9.6708295008607212e+00 5.9257606087016690e+00 1.2196096663630119e+01 0 0 0
207 1 3.0000000000000000e+02 6.1773421467212888e+00 1.1968345354230117e+01 1.1850072464942237e+01 0 0 0
43 1 3.0000000000000000e+02 9.7611277089844197e+00 1.3710958400021198e+01 6.5825919156380710e+00 0 0 0
10 1 3.0000000000000000e+02 1.9730500327392573e+01 7.7469921597129012e+00 6.5768186020827120e+00 0 0 0
209 1 3.0000000000000000e+02 1.6442483984658942e+01 6.1757599592255978e+00 1.1690001703632817e+01 0 0 0
215 1 3.0000000000000000e+02 1.9895856573861909e+01 1.1764033948051459e+01 1.1644219885077771e+01 0 0 0
56 1 3.0000000000000000e+02 1.6405977005499430e+01 1.3536865989076770e+01 6.4223930000014864e+00 0 0 0
214 1 3.0000000000000000e+02 2.2991348385852778e+01 5.8805027085824975e+00 1.1976190010095461e+01 0 0 0
51 1 3.0000000000000000e+02 2.3276109189146130e+01 1.3931621679710815e+01 6.7341765581735853e+00 0 0 0
13 1 3.0000000000000000e+02 2.6632952671374142e+01 7.8103072387744223e+00 6.7949590614047768e+00 0 0 0
212 1 3.0000000000000000e+02 2.6343986961760212e+01 1.1815309083824808e+01 1.2045928927631941e+01 0 0 0
217 1 3.0000000000000000e+02 2.9886198381308432e+01 6.1765710271778502e+00 1.2294961715942957e+01 0 0 0
64 1 3.0000000000000000e+02 2.9570207076709700e+01 1.3670438944250410e+01 6.6151208495850078e+00 0 0 0
18 1 3.0000000000000000e+02 3.3368193038222209e+01 8.0183431657375035e+00 6.7545109053469812e+00 0 0 0
21 1 3.0000000000000000e+02 3.9909563896140490e+01 8.3485685965736760e+00 6.3908598198470070e+00 0 0 0
220 1 3.0000000000000000e+02 3.9590397714748711e+01 1.1767333491136235e+01 1.2139437104382377e+01 0 0 0
222 1 3.0000000000000000e+02 3.6548031839970989e+01 5.9972364165541663e+00 1.2106820208568212e+01 0 0 0
223 1 3.0000000000000000e+02 3.3189265551192221e+01 1.1801641462720738e+01 1.2059680742748814e+01 0 0 0
59 1 3.0000000000000000e+02 3.6324885415005561e+01 1.3690710130364902e+01 6.7777731253681832e+00 0 0 0
26 1 3.0000000000000000e+02 4.6590493413294368e+01 7.8441062392169947e+00 6.6927314319364193e+00 0 0 0
225 1 3.0000000000000000e+02 4.3043459522029252e+01 5.9302463794473574e+00 1.1828592524083529e+01 0 0 0
230 1 3.0000000000000000e+02 4.9836593667047261e+01 6.0111490823668863e+00 1.1910271148952997e+01 0 0 0
231 1 3.0000000000000000e+02 4.6522525983332727e+01 1.1558059401465663e+01 1.1963751054685265e+01 0 0 0
67 1 3.0000000000000000e+02 4.9758322735045205e+01 1.3656385264636654e+01 6.4745521136496986e+00 0 0 0
72 1 3.0000000000000000e+02 4.3149124950869982e+01 1.3605015886841475e+01 6.7584053627574026e+00 0 0 0
29 1 3.0000000000000000e+02 5.3044432160336520e+01 7.7576023342237601e+00 6.6864282110848237e+00 0 0 0
228 1 3.0000000000000000e+02 5.3394808106505536e+01 1.1561752106557105e+01 1.1837137757370996e+01 0 0 0
34 1 3.0000000000000000e+02 5.9898317697470176e+01 7.9402321485900380e+00 6.5011495038145419e+00 0 0 0
233 1 3.0000000000000000e+02 5.6470370107159191e+01 5.7476730894001165e+00 1.1875699437330535e+01 0 0 0
239 1 3.0000000000000000e+02 5.9794944595276519e+01 1.1768024927622463e+01 1.1753187317478588e+01 0 0 0
80 1 3.0000000000000000e+02 5.6658339248024902e+01 1.3828144832584645e+01 6.6448324253703159e+00 0 0 0
241 1 3.0000000000000000e+02 3.1363908230138797e+00 1.7807475703801849e+01 1.1846196012511228e+01 0 0 0
77 1 3.0000000000000000e+02 -3.6820746722804820e-01 1.9650637987923783e+01 6.5236759856199722e+00 1 0 0
276 1 3.0000000000000000e+02 -2.1583572718220978e-01 2.3507016994310998e+01 1.1881017779028554e+01 1 0 0
278 1 3.0000000000000000e+02 -3.4617054894429455e+00 1.7546699609259221e+01 1.1971720692862625e+01 1 0 0
42 1 3.0000000000000000e+02 6.1537695972220430e+00 1.9850156666091415e+01 6.7568426014644096e+00 0 0 0
45 1 3.0000000000000000e+02 1.2824455756649670e+01 1.9527927991045939e+01 6.4495037120648071e+00 0 0 0
244 1 3.0000000000000000e+02 1.3118308540126488e+01 2.3285316221197924e+01 1.1935490924604647e+01 0 0 0
246 1 3.0000000000000000e+02 9.5783692672636054e+00 1.7506017103755262e+01 1.1888345649371704e+01 0 0 0
247 1 3.0000000000000000e+02 6.4155758857057048e+00 2.3827076002312047e+01 1.1836296535250373e+01 0 0 0
50 1 3.0000000000000000e+02 1.9542183396958265e+01 1.9551866198180644e+01 6.5831182603155991e+00 0 0 0
249 1 3.0000000000000000e+02 1.6538209342955753e+01 1.7632028543423690e+01 1.1635840422456976e+01 0 0 0
255 1 3.0000000000000000e+02 1.9905818015908391e+01 2.3226247652656614e+01 1.1852340765276523e+01 0 0 0
254 1 3.0000000000000000e+02 2.3036905181597820e+01 1.7665299936326910e+01 1.1932221615182854e+01 0 0 0
53 1 3.0000000000000000e+02 2.6334656952294075e+01 1.9711758721284578e+01 6.7044442977280276e+00 0 0 0
252 1 3.0000000000000000e+02 2.6212500860449296e+01 2.3435352150153435e+01 1.2186164749460410e+01 0 0 0