LAMMPS (4 Feb 2020)
Lattice spacing in x,y,z = 4.062 4.062 4.062
Created orthogonal box = (0 0 0) to (20.31 20.31 20.31)
  1 by 1 by 1 MPI processor grid
Created 500 atoms
  create_atoms CPU = 0.000529051 secs
500 atoms in group Al
--> PairPACE::settings
PairPACE::coeff: arg[0] = *
PairPACE::coeff: arg[1] = *
PairPACE::coeff: arg[2] = Al.pbe.in.forces.ace
PairPACE::coeff: arg[3] = Al
Create basis set 
Loading Al.pbe.in.forces.ace
Loaded 
Create ACE
ACE.set basis
PairPACE::coeff done
WARNING: Using 'neigh_modify every 1 delay 0 check yes' setting during minimization (src/min.cpp:190)
init_ine i=1, j=1: 8.700000
Neighbor list info ...
  update every 1 steps, delay 0 steps, check yes
  max neighbors/atom: 2000, page size: 100000
  master list distance cutoff = 9
  ghost atom cutoff = 9
  binsize = 4.5, bins = 5 5 5
  1 neighbor lists, perpetual/occasional/extra = 1 0 0
  (1) pair pace, perpetual
      attributes: full, newton on
      pair build: full/bin/atomonly
      stencil: full/bin/3d
      bin: standard
Setting up cg style minimization ...
  Unit style    : metal
  Current step  : 0
Per MPI rank memory allocation (min/avg/max) = 4.32 | 4.32 | 4.32 Mbytes
Step Temp E_pair E_mol TotEng Press 
       0       600.03    -5036.952            0   -4998.2496   -946524.46 
       1       600.03    -5036.952            0   -4998.2496   -946524.46 
Loop time of 0.328196 on 1 procs for 1 steps with 500 atoms

99.7% CPU use with 1 MPI tasks x no OpenMP threads

Minimization stats:
  Stopping criterion = energy tolerance
  Energy initial, next-to-last, final = 
          -5036.951984       -5036.951984       -5036.951984
  Force two-norm initial, final = 9.03079e-12 1.0256e-11
  Force max component initial, final = 7.3721e-13 7.86279e-13
  Final line search alpha, max atom move = 1 7.86279e-13
  Iterations, force evaluations = 1 2

MPI task timing breakdown:
Section |  min time  |  avg time  |  max time  |%varavg| %total
---------------------------------------------------------------
Pair    | 0.32809    | 0.32809    | 0.32809    |   0.0 | 99.97
Neigh   | 0          | 0          | 0          |   0.0 |  0.00
Comm    | 4.7207e-05 | 4.7207e-05 | 4.7207e-05 |   0.0 |  0.01
Output  | 0          | 0          | 0          |   0.0 |  0.00
Modify  | 0          | 0          | 0          |   0.0 |  0.00
Other   |            | 5.698e-05  |            |       |  0.02

Nlocal:    500 ave 500 max 500 min
Histogram: 1 0 0 0 0 0 0 0 0 0
Nghost:    2930 ave 2930 max 2930 min
Histogram: 1 0 0 0 0 0 0 0 0 0
Neighs:    0 ave 0 max 0 min
Histogram: 1 0 0 0 0 0 0 0 0 0
FullNghs:  88000 ave 88000 max 88000 min
Histogram: 1 0 0 0 0 0 0 0 0 0

Total # of neighbors = 88000
Ave neighs/atom = 176
Neighbor list builds = 0
Dangerous builds = 0
init_ine i=1, j=1: 8.700000
Setting up Verlet run ...
  Unit style    : metal
  Current step  : 1
  Time step     : 0.0005
Per MPI rank memory allocation (min/avg/max) = 3.195 | 3.195 | 3.195 Mbytes
Step TotEng PotEng KinEng Pxx Pyy Pzz Press Temp Volume 
       1   -4998.2496    -5036.952    38.702422   -946822.82   -946381.48    -946369.1   -946524.46       600.03    8377.7958 
       2   -4998.2496   -5036.9365    38.686928   -946804.32    -946362.8    -946350.8   -946505.97    599.78978    8377.7958 
       3   -4998.2496     -5036.89    38.640482   -946748.87   -946306.81   -946295.97   -946450.55     599.0697    8377.7958 
       4   -4998.2495   -5036.8127    38.563178   -946656.57    -946213.6   -946204.74   -946358.31    597.87119    8377.7958 
       5   -4998.2495   -5036.7047    38.455148   -946527.63   -946083.36   -946077.32   -946229.44    596.19634    8377.7958 
       6   -4998.2495   -5036.5661    38.316569    -946362.3   -945916.32   -945913.97   -946064.19    594.04786    8377.7958 
       7   -4998.2495   -5036.3972    38.147658   -946160.89   -945712.79   -945715.03    -945862.9    591.42911    8377.7958 
       8   -4998.2495   -5036.1982    37.948674   -945923.81   -945473.16    -945480.9   -945625.96    588.34412    8377.7958 
       9   -4998.2495   -5035.9694    37.719918   -945651.51   -945197.87   -945212.06   -945353.81    584.79756    8377.7958 
      10   -4998.2494   -5035.7112    37.461736   -945344.53   -944887.41   -944908.99   -945046.98     580.7948    8377.7958 
      11   -4998.2494   -5035.4239    37.174519   -945003.34   -944542.37   -944572.31      -944706    576.34188    8377.7958 
      12   -4998.2494   -5035.1081    36.858704   -944628.67   -944163.37    -944202.8   -944331.61    571.44558    8377.7958 
      13   -4998.2494   -5034.7641    36.514776   -944221.24   -943750.93   -943800.08   -943924.09    566.11343    8377.7958 
      14   -4998.2493   -5034.3926    36.143275   -943780.33   -943305.57   -943365.65   -943483.85    560.35379    8377.7958 
      15   -4998.2493   -5033.9941    35.744786   -943309.52   -942825.96   -942901.95   -943012.48    554.17575    8377.7958 
      16   -4998.2493   -5033.5692     35.31995   -942807.07   -942318.35    -942403.1   -942509.51    547.58923    8377.7958 
      17   -4998.2492   -5033.1187    34.869457   -942274.04   -941780.41   -941878.76   -941977.74    540.60492    8377.7958 
      18   -4998.2492   -5032.6432    34.394056    -941711.3   -941205.99   -941327.73   -941415.01    533.23446    8377.7958 
      19   -4998.2491   -5032.1437    33.894552   -941122.94   -940608.83   -940742.45   -940824.74    525.49032    8377.7958 
      20   -4998.2491   -5031.6209    33.371799   -940512.88   -939990.84   -940127.41   -940210.38    517.38571    8377.7958 
      21    -4998.249   -5031.0756    32.826634   -939866.16   -939341.82   -939525.78   -939577.92    508.93366    8377.7958 
      22   -4998.2489   -5030.5091      32.2602   -939186.85   -938643.19   -938825.94   -938885.33    500.15184    8377.7958 
      23    -4998.249   -5029.9224    31.673416   -938535.48   -937976.34   -938170.07    -938227.3    491.05452    8377.7958 
      24   -4998.2488   -5029.3159    31.067154    -937799.9   -937258.39   -937510.75   -937523.01    481.65523    8377.7958 
      25   -4998.2487   -5028.6918    30.443074   -937061.65   -936451.62   -936698.74   -936737.34     471.9797    8377.7958 
      26   -4998.2488   -5028.0508    29.802066   -936338.83   -935788.96    -936024.5   -936050.76    462.04171    8377.7958 
      27   -4998.2485   -5027.3935    29.144985   -935576.34   -935002.58   -935333.59   -935304.17    451.85455    8377.7958 
      28   -4998.2485   -5026.7224    28.473966   -934800.23   -934078.58   -934446.56   -934441.79    441.45128    8377.7958 
      29   -4998.1455   -5025.9357    27.790221   -933714.74   -933447.41   -933074.28   -933412.14    430.85071    8377.7958 
      30   -4998.1456   -5025.2426    27.097027   -933620.76    -933898.4    -933157.8   -933558.98    420.10366    8377.7958 
      31   -4998.1459   -5024.5426    26.396759   -933296.85   -932750.58   -932674.57   -932907.34    409.24692    8377.7958 
      32   -4998.1461    -5023.833    25.686972   -932593.11   -931585.64   -931788.27   -931989.01    398.24262    8377.7958 
      33   -4998.1455   -5023.1131    24.967614   -931526.98   -930483.13   -931045.15   -931018.42    387.08992    8377.7958 
      34   -4998.1453   -5022.3887    24.243428   -930173.21   -929238.68   -930470.74   -929960.88    375.86236    8377.7958 
      35   -4998.1456   -5021.6625    23.516977   -929184.45   -928580.75   -930123.11    -929296.1     364.5997    8377.7958 
      36   -4998.1454   -5020.9329    22.787542   -928304.42   -928083.19    -929087.2    -928491.6    353.29077    8377.7958 
      37   -4998.1453   -5020.2017    22.056458   -927242.09   -926954.25   -927081.24   -927092.53    341.95628    8377.7958 
      38   -4998.1451   -5019.4709    21.325749   -926594.52   -925667.22    -925414.8   -925892.18    330.62761    8377.7958 
      39   -4998.1447   -5018.7429    20.598133   -926241.06   -924901.95   -924825.91   -925322.97    319.34687    8377.7958 
      40   -4998.1447   -5018.0221    19.877338   -925755.64    -924529.8   -925068.19   -925117.88    308.17191    8377.7958 
      41   -4998.1447   -5017.3095    19.164762   -924884.25   -923934.55   -925231.56   -924683.45    297.12435    8377.7958 
      42   -4998.1445   -5016.6058    18.461262   -923527.69   -922943.18   -924253.29   -923574.72    286.21752    8377.7958 
      43   -4998.1447   -5015.9131    17.768394   -922428.45   -922182.38    -922664.6   -922425.15     275.4755    8377.7958 
      44   -4998.1446   -5015.2309    17.086297    -921863.4   -921797.67   -921763.86   -921808.31    264.90049    8377.7958 
      45   -4998.1442   -5014.5608    16.416595   -921126.69   -920902.03   -921359.21   -921129.31    254.51764    8377.7958 
      46   -4998.1441   -5013.9074    15.763374   -920323.79   -919260.37   -920666.77   -920083.64    244.39032    8377.7958 
      47   -4998.1442   -5013.2728    15.128605    -919881.4   -917899.59   -919800.57   -919193.85    234.54906    8377.7958 
      48    -4998.144   -5012.6564    14.512417   -919328.98    -917457.8   -919044.25   -918610.34    224.99587    8377.7958 
      49   -4998.1439   -5012.0602    13.916332   -918509.32   -917396.54   -918337.75    -918081.2    215.75437    8377.7958 
      50   -4998.1439   -5011.4861    13.342216   -917854.97   -916928.18   -917651.78   -917478.31    206.85345    8377.7958 
      51   -4998.1436   -5010.9352    12.791572   -917181.31    -915830.1   -916872.68   -916628.03    198.31645    8377.7958 
      52   -4998.1435   -5010.4101    12.266599   -916226.93   -914623.84   -915936.56   -915595.77    190.17744    8377.7958 
      53   -4998.1438   -5009.9121    11.768302   -915461.83   -914146.14   -915285.09   -914964.35    182.45199    8377.7958 
      54   -4998.1438   -5009.4394    11.295612    -915049.1   -914427.25    -915206.4   -914894.25    175.12356    8377.7958 
      55   -4998.1433   -5008.9928    10.849489   -914439.76   -914394.06   -915065.06   -914632.96    168.20702    8377.7958 
      56    -4998.143   -5008.5773    10.434216   -913598.95   -913364.13   -914254.22    -913739.1    161.76875    8377.7958 
      57   -4998.1434   -5008.1954     10.05196   -913143.68    -912083.9   -913243.89   -912823.82    155.84238    8377.7958 
      58   -4998.1437   -5007.8438     9.700177   -913084.73   -911518.48   -912717.52   -912440.24    150.38845    8377.7958 
      59   -4998.0744   -5007.4514    9.3769795   -911865.34   -911428.82   -911790.01   -911694.72     145.3777    8377.7958 
      60   -4998.0741   -5007.1588      9.08464    -911392.3   -911022.87   -911450.27   -911288.48    140.84536    8377.7958 
      61   -4998.0742   -5006.9002      8.82606   -910819.56   -910357.62   -911151.26   -910776.15    136.83642    8377.7958 
      62   -4998.0744   -5006.6757     8.601266   -910452.86   -909766.16   -911031.33   -910416.78    133.35128    8377.7958 
      63   -4998.0745   -5006.4828    8.4083786   -910383.92   -909304.58   -910998.18   -910228.89    130.36082    8377.7958 
      64   -4998.0743    -5006.321    8.2466272   -910424.99   -908889.17   -910873.71   -910062.63    127.85308    8377.7958 
      65   -4998.0743    -5006.191    8.1167576   -910355.42   -908671.56   -910635.03   -909887.34    125.83962    8377.7958 
      66   -4998.0743   -5006.0936    8.0192995   -910139.37   -908790.97   -910247.27   -909725.87    124.32866    8377.7958 
      67   -4998.0744   -5006.0282    7.9538507   -909899.42   -909005.65   -909604.08   -909503.05    123.31396    8377.7958 
      68   -4998.0744   -5005.9942    7.9197644   -909729.86   -908922.44   -908842.61   -909164.97     122.7855    8377.7958 
      69   -4998.0745    -5005.991    7.9165039   -909604.66    -908516.3   -908418.59   -908846.52    122.73495    8377.7958 
      70   -4998.0746   -5006.0178    7.9431887   -909494.83   -908194.18    -908613.8    -908767.6    123.14866    8377.7958 
      71   -4998.0746   -5006.0731    7.9984778   -909478.68   -908326.57   -909166.96   -908990.74    124.00585    8377.7958 
      72   -4998.0747   -5006.1559    8.0812089   -909639.43   -908832.39   -909584.86   -909352.23    125.28848    8377.7958 
      73   -4998.0747   -5006.2654    8.1907362   -909893.04   -909280.09   -909651.14   -909608.09    126.98656    8377.7958 
      74   -4998.0748   -5006.4011    8.3262271   -910048.15   -909367.28    -909491.9   -909635.78    129.08717    8377.7958 
      75    -4998.075   -5006.5609    8.4859525   -910022.62   -909241.27   -909319.71   -909527.87     131.5635    8377.7958 
      76   -4998.0751   -5006.7429    8.6678357   -909899.34      -909275   -909268.12   -909480.82    134.38336    8377.7958 
      77   -4998.0751   -5006.9456    8.8705645   -909815.38   -909582.73   -909373.73   -909590.61     137.5264    8377.7958 
      78   -4998.0751   -5007.1688    9.0936665   -909893.24   -909880.24   -909570.48   -909781.32     140.9853    8377.7958 
      79   -4998.0751   -5007.4118     9.336638   -910178.41   -909830.77   -909752.44   -909920.54    144.75225    8377.7958 
      80   -4998.0752   -5007.6738    9.5985646   -910507.15   -909416.86   -909869.82   -909931.28    148.81308    8377.7958 
      81   -4998.0753   -5007.9535     9.878224   -910613.13    -908966.4   -909990.81   -909856.78    153.14883    8377.7958 
      82   -4998.0755   -5008.2493     10.17373   -910507.47   -908872.39   -910282.93    -909887.6    157.73027    8377.7958 
      83   -4998.0757   -5008.5582    10.482462    -910474.1   -909253.01      -910837   -910188.04    162.51674    8377.7958 
      84   -4998.0757   -5008.8781    10.802419   -910554.82   -909849.13   -911473.35   -910625.77    167.47726    8377.7958 
      85   -4998.0756   -5009.2089    11.133345   -910482.87   -910352.37   -911910.83   -910915.36    172.60782    8377.7958 
      86   -4998.0758   -5009.5509    11.475069   -910323.87   -910798.93   -912128.97   -911083.92    177.90581    8377.7958 
      87   -4998.0761   -5009.9013    11.825154   -910567.98   -911339.35   -912228.92   -911378.75    183.33342    8377.7958 
      88   -4998.0761   -5010.2565    12.180339    -911305.5    -911764.2   -912048.69   -911706.13    188.84009    8377.7958 
      89   -4998.0759   -5010.6159    12.540003   -911979.94   -911834.89   -911441.05   -911751.96     194.4162    8377.7958 
      90    -4998.076   -5010.9813    12.905292   -912267.33   -911856.64   -910836.54    -911653.5    200.07952    8377.7958 
      91   -4998.0763   -5011.3514    13.275158    -912534.8   -912095.85   -910926.62   -911852.42    205.81382    8377.7958 
      92   -4998.0764   -5011.7229    13.646474   -913058.89   -912195.08   -911721.15   -912325.04    211.57057    8377.7958 
      93   -4998.0763   -5012.0938    14.017485   -913379.05   -912079.93   -912457.16   -912638.71    217.32261    8377.7958 
      94   -4998.0763   -5012.4646    14.388284   -912989.47   -912229.94   -912576.23   -912598.55    223.07136    8377.7958 
      95   -4998.0764   -5012.8352    14.758796   -912360.25   -912365.41   -912355.35   -912360.34    228.81566    8377.7958 
      96   -4998.0766   -5013.2043    15.127658   -912324.56    -912019.6   -912366.57   -912236.91    234.53438    8377.7958 
      97   -4998.0864   -5013.5799    15.493483   -912120.86   -911077.77    -911151.7   -911450.11    240.20602    8377.7958 
      98   -4998.0864    -5013.941     15.85467   -912567.05   -911456.08    -911910.6   -911977.91    245.80574    8377.7958 
      99   -4998.0863   -5014.2965    16.210201   -913147.74   -911706.99   -912458.37    -912437.7    251.31778    8377.7958 
     100   -4998.0864   -5014.6466    16.560236   -913730.57   -911610.48   -912585.05   -912642.03    256.74461    8377.7958 
     101   -4998.0864   -5014.9905     16.90404   -914255.37   -911917.91   -912639.64   -912937.64    262.07484    8377.7958 
Loop time of 13.3508 on 1 procs for 100 steps with 500 atoms

Performance: 0.324 ns/day, 74.171 hours/ns, 7.490 timesteps/s
99.6% CPU use with 1 MPI tasks x no OpenMP threads

MPI task timing breakdown:
Section |  min time  |  avg time  |  max time  |%varavg| %total
---------------------------------------------------------------
Pair    | 13.336     | 13.336     | 13.336     |   0.0 | 99.89
Neigh   | 0.0099442  | 0.0099442  | 0.0099442  |   0.0 |  0.07
Comm    | 0.0016217  | 0.0016217  | 0.0016217  |   0.0 |  0.01
Output  | 0.0019341  | 0.0019341  | 0.0019341  |   0.0 |  0.01
Modify  | 0.00074816 | 0.00074816 | 0.00074816 |   0.0 |  0.01
Other   |            | 0.000401   |            |       |  0.00

Nlocal:    500 ave 500 max 500 min
Histogram: 1 0 0 0 0 0 0 0 0 0
Nghost:    2930 ave 2930 max 2930 min
Histogram: 1 0 0 0 0 0 0 0 0 0
Neighs:    0 ave 0 max 0 min
Histogram: 1 0 0 0 0 0 0 0 0 0
FullNghs:  91410 ave 91410 max 91410 min
Histogram: 1 0 0 0 0 0 0 0 0 0

Total # of neighbors = 91410
Ave neighs/atom = 182.82
Neighbor list builds = 3
Dangerous builds = 0
Total wall time: 0:00:13
