LAMMPS (4 Feb 2020)
Lattice spacing in x,y,z = 4.062 4.062 4.062
Created orthogonal box = (0 0 0) to (20.31 20.31 20.31)
  1 by 1 by 1 MPI processor grid
Created 500 atoms
  create_atoms CPU = 0.000468969 secs
500 atoms in group Al
--> PairPACE::settings
PairPACE::coeff: arg[0] = *
PairPACE::coeff: arg[1] = *
PairPACE::coeff: arg[2] = Al.pbe.in.wRnl1.ace
PairPACE::coeff: arg[3] = Al
Create basis set 
Loading Al.pbe.in.wRnl1.ace
Loaded 
Create ACE
ACE.set basis
PairPACE::coeff done
WARNING: Using 'neigh_modify every 1 delay 0 check yes' setting during minimization (src/min.cpp:190)
init_ine i=1, j=1: 8.700000
Neighbor list info ...
  update every 1 steps, delay 0 steps, check yes
  max neighbors/atom: 2000, page size: 100000
  master list distance cutoff = 9
  ghost atom cutoff = 9
  binsize = 4.5, bins = 5 5 5
  1 neighbor lists, perpetual/occasional/extra = 1 0 0
  (1) pair pace, perpetual
      attributes: full, newton on
      pair build: full/bin/atomonly
      stencil: full/bin/3d
      bin: standard
Setting up cg style minimization ...
  Unit style    : metal
  Current step  : 0
Per MPI rank memory allocation (min/avg/max) = 4.32 | 4.32 | 4.32 Mbytes
Step Temp E_pair E_mol TotEng Press 
       0       600.03   -3308.0373            0   -3269.3349   -445920.73 
       1       600.03   -3308.0373            0   -3269.3349   -445920.73 
Loop time of 0.074991 on 1 procs for 1 steps with 500 atoms

98.1% CPU use with 1 MPI tasks x no OpenMP threads

Minimization stats:
  Stopping criterion = energy tolerance
  Energy initial, next-to-last, final = 
        -3308.03732032     -3308.03732032     -3308.03732032
  Force two-norm initial, final = 1.29685e-12 1.10226e-12
  Force max component initial, final = 9.13462e-14 8.30447e-14
  Final line search alpha, max atom move = 1 8.30447e-14
  Iterations, force evaluations = 1 2

MPI task timing breakdown:
Section |  min time  |  avg time  |  max time  |%varavg| %total
---------------------------------------------------------------
Pair    | 0.074872   | 0.074872   | 0.074872   |   0.0 | 99.84
Neigh   | 0          | 0          | 0          |   0.0 |  0.00
Comm    | 4.8161e-05 | 4.8161e-05 | 4.8161e-05 |   0.0 |  0.06
Output  | 0          | 0          | 0          |   0.0 |  0.00
Modify  | 0          | 0          | 0          |   0.0 |  0.00
Other   |            | 7.081e-05  |            |       |  0.09

Nlocal:    500 ave 500 max 500 min
Histogram: 1 0 0 0 0 0 0 0 0 0
Nghost:    2930 ave 2930 max 2930 min
Histogram: 1 0 0 0 0 0 0 0 0 0
Neighs:    0 ave 0 max 0 min
Histogram: 1 0 0 0 0 0 0 0 0 0
FullNghs:  88000 ave 88000 max 88000 min
Histogram: 1 0 0 0 0 0 0 0 0 0

Total # of neighbors = 88000
Ave neighs/atom = 176
Neighbor list builds = 0
Dangerous builds = 0
init_ine i=1, j=1: 8.700000
Setting up Verlet run ...
  Unit style    : metal
  Current step  : 1
  Time step     : 0.001
Per MPI rank memory allocation (min/avg/max) = 3.195 | 3.195 | 3.195 Mbytes
Step TotEng PotEng KinEng Pxx Pyy Pzz Press Temp Volume 
       1   -3269.3349   -3308.0373    38.702422   -446219.08   -445777.74   -445765.36   -445920.73       600.03    8377.7958 
       2   -3269.3349   -3307.9711    38.636288   -446179.86   -445738.43   -445726.84   -445881.71    599.00467    8377.7958 
       3   -3269.3348   -3307.7732    38.438469   -446062.57   -445620.84   -445611.72   -445765.04    595.93776    8377.7958 
       4   -3269.3346   -3307.4452    38.110623   -445868.34   -445426.04   -445421.16   -445571.85    590.85492    8377.7958 
       5   -3269.3344   -3306.9897    37.655374   -445598.97   -445155.77   -445157.03   -445303.92    583.79689    8377.7958 
       6   -3269.3341   -3306.4104    37.076312   -445256.85   -444812.35   -444821.67   -444963.62     574.8193    8377.7958 
       7   -3269.3338   -3305.7117     36.37799   -444844.93   -444398.53   -444417.42   -444553.63    563.99274    8377.7958 
       8   -3269.3334   -3304.8993     35.56593   -444364.97   -443913.86   -443948.55   -444075.79    551.40283    8377.7958 
       9   -3269.3329   -3303.9795    34.646606   -443819.68   -443369.34    -443412.5   -443533.84    537.14992    8377.7958 
      10   -3269.3324   -3302.9599    33.627422   -443213.95   -442755.01   -442819.68   -442929.55    521.34881    8377.7958 
      11    -3269.332   -3301.8485    32.516518   -442554.31   -442098.68   -442195.77   -442282.92    504.12572    8377.7958 
      12   -3269.3318   -3300.6548    31.322991   -441873.11   -441392.15   -441477.15    -441580.8    485.62165    8377.7958 
      13   -3269.3306   -3299.3881    30.057452   -441076.82   -440568.28   -440699.09    -440781.4    466.00114    8377.7958 
      14   -3269.3297   -3298.0592    28.729503   -440340.71   -439880.77   -440053.94    -440091.8    445.41304    8377.7958 
      15   -3269.2042   -3296.5539    27.349689    -439086.3    -439164.7   -438081.07   -438777.36    424.02085    8377.7958 
      16   -3269.2051    -3295.145    25.939866    -439911.2   -439714.97   -439062.28   -439562.81     402.1634    8377.7958 
      17   -3269.2049   -3293.7089     24.50396   -438811.23   -437348.15    -438471.3   -438210.23    379.90157    8377.7958 
      18    -3269.204    -3292.255    23.051039   -437229.16   -436991.08   -438168.52   -437462.92    357.37595    8377.7958 
      19    -3269.204   -3290.8023    21.598315   -436132.51   -436298.24   -436253.63   -436228.13    334.85338    8377.7958 
      20   -3269.2014   -3289.3534    20.152085   -435844.04   -434891.67   -433913.26   -434882.99    312.43149    8377.7958 
      21   -3269.2012   -3287.9334    18.732127   -435213.29   -434670.85   -435444.65    -435109.6    290.41692    8377.7958 
      22   -3269.2012   -3286.5545    17.353236   -434077.02   -433364.42   -434531.15   -433990.86    269.03902    8377.7958 
      23      -3269.2   -3285.2225    16.022461   -433345.74   -433325.57   -433922.31   -433531.21    248.40711    8377.7958 
      24   -3269.1993   -3283.9487    14.749394   -432628.08   -431771.33   -432089.88    -432163.1    228.66989    8377.7958 
      25   -3269.1984   -3282.7487    13.550292   -431877.78   -430997.51   -431272.82    -431382.7     210.0794    8377.7958 
      26   -3269.1987   -3281.6327    12.434032   -431975.47   -431179.93   -432046.35   -431733.92    192.77326    8377.7958 
      27   -3269.1967    -3280.605    11.408305   -430827.14   -430271.17   -431502.63   -430866.98    176.87071    8377.7958 
      28   -3269.1986   -3279.6812    10.482612    -430523.7   -429691.89   -430253.08   -430156.22    162.51907    8377.7958 
      29   -3269.1958   -3278.8551    9.6592914   -430241.84   -429168.38   -429986.95   -429799.06    149.75457    8377.7958 
      30   -3269.1972   -3278.1459    8.9487137   -429834.21   -428698.59   -428481.55   -429004.78      138.738    8377.7958 
      31   -3269.1141   -3277.4652    8.3511323   -428518.01   -427364.51   -428961.21   -428281.24    129.47329    8377.7958 
      32    -3269.113   -3276.9794    7.8664119   -428031.81   -426960.75   -428899.45      -427964    121.95834    8377.7958 
      33   -3269.1138   -3276.6155    7.5016665   -428829.61   -426990.35   -429259.23   -428359.73    116.30344    8377.7958 
      34   -3269.1137   -3276.3678     7.254111   -429289.61   -428000.02   -429100.99   -428796.87    112.46542    8377.7958 
      35   -3269.1141   -3276.2346    7.1205226   -428875.27   -428597.35   -428800.48    -428757.7    110.39431    8377.7958 
      36   -3269.1148   -3276.2107    7.0959119   -428785.76   -428273.06   -428845.35   -428634.72    110.01275    8377.7958 
      37   -3269.1149   -3276.2879    7.1730179   -428730.71   -427643.35   -428446.51   -428273.52    111.20818    8377.7958 
      38   -3269.1152   -3276.4621    7.3468713   -428740.62   -428176.54   -428255.12   -428390.76    113.90355    8377.7958 
      39   -3269.1152   -3276.7283    7.6131082   -428839.58   -428744.77   -429645.37   -429076.57     118.0312    8377.7958 
      40   -3269.1167   -3277.0821    7.9654588   -428813.82   -429567.69   -430264.79   -429548.77    123.49393    8377.7958 
      41   -3269.1173   -3277.5067    8.3894375   -429980.99   -429929.48   -430653.02   -430187.83    130.06716    8377.7958 
      42   -3269.1165   -3277.9933    8.8767926   -431478.13    -428961.2    -429899.8   -430113.04    137.62296    8377.7958 
      43    -3269.118   -3278.5434    9.4253111   -431154.81   -429259.74   -428975.96   -429796.84    146.12701    8377.7958 
      44    -3269.119   -3279.1405    10.021575   -430706.44   -430692.56   -428850.52   -430083.17    155.37131    8377.7958 
      45   -3269.1188   -3279.7719    10.653039    -430858.1   -431152.57   -429911.41   -430640.69    165.16132    8377.7958 
      46   -3269.1208   -3280.4307    11.309926   -430550.55   -432200.33   -431717.89   -431489.59    175.34548    8377.7958 
      47   -3269.1187   -3281.1022     11.98354   -432632.94   -431500.34   -432463.85   -432199.04    185.78897    8377.7958 
      48   -3269.1203   -3281.7954    12.675062   -432523.22   -430346.89   -432414.62   -431761.58    196.51011    8377.7958 
      49   -3269.1219   -3282.4975    13.375528   -433244.54    -430618.2    -433667.9   -432510.22    207.36992    8377.7958 
      50   -3269.1222   -3283.1868    14.064634   -433383.35   -433401.15    -434435.7   -433740.07    218.05359    8377.7958 
      51   -3269.1216   -3283.8548    14.733171   -434968.06   -434209.83   -434199.47   -434459.12    228.41837    8377.7958 
      52   -3269.1223   -3284.5102     15.38789   -433422.72   -432800.15   -433064.98   -433095.95    238.56893    8377.7958 
      53   -3269.1451   -3285.1663    16.021182   -432279.89   -430414.62   -431108.82   -431267.78    248.38729    8377.7958 
      54   -3269.1458    -3285.773    16.627176   -434292.54   -432893.02    -433170.7   -433452.08    257.78243    8377.7958 
      55   -3269.1464   -3286.3526    17.206159    -436345.8   -436769.26   -434917.81   -436010.96    266.75879    8377.7958 
      56   -3269.1461   -3286.8953    17.749222   -437216.55   -436320.92   -434653.88   -436063.79    275.17826    8377.7958 
      57   -3269.1462   -3287.4031    18.256938   -436561.56   -435082.16   -433522.79   -435055.51    283.04974    8377.7958 
      58   -3269.1488   -3287.8699    18.721187   -435913.17   -436394.29   -435747.99   -436018.48    290.24731    8377.7958 
      59   -3269.1441   -3288.2849    19.140819   -436441.93    -436569.2   -435425.74   -436145.62    296.75315    8377.7958 
      60   -3269.1489   -3288.6662    19.517282   -436926.55   -437546.03   -437505.54   -437326.04    302.58971    8377.7958 
      61   -3269.1457   -3288.9968    19.851161   -436176.45   -437120.42   -436469.87   -436588.91    307.76606    8377.7958 
      62   -3269.1455   -3289.2907    20.145261   -436994.11   -436817.66   -436601.84   -436804.53    312.32569    8377.7958 
      63   -3269.1483   -3289.5449    20.396606   -437967.76   -437371.34   -437470.73   -437603.27    316.22246    8377.7958 
      64   -3269.1453   -3289.7555    20.610209   -437177.66   -437505.37   -437574.05   -437419.03     319.5341    8377.7958 
      65   -3269.1454   -3289.9282    20.782821    -437053.3   -437548.91   -437848.85   -437483.69    322.21022    8377.7958 
      66   -3269.1496   -3290.0678    20.918198   -437360.56   -436109.88   -437268.13   -436912.85    324.30906    8377.7958 
      67     -3269.14   -3290.1639    21.023879   -435827.42   -437392.61   -436738.38    -436652.8    325.94751    8377.7958 
      68   -3269.1504    -3290.244    21.093568   -437289.96   -437097.82   -436172.38   -436853.39    327.02794    8377.7958 
      69   -3269.1792   -3290.3138    21.134549   -436554.25   -435545.21   -434357.84   -435485.76     327.6633    8377.7958 
      70   -3269.1808   -3290.3356    21.154769   -437511.69    -436854.9   -434183.06   -436183.22    327.97678    8377.7958 
      71   -3269.1799   -3290.3295    21.149568   -436000.16   -436746.78   -435342.12   -436029.69    327.89615    8377.7958 
      72   -3269.1787   -3290.3046    21.125857   -434300.55   -436500.11   -434789.51   -435196.72    327.52855    8377.7958 
      73   -3269.1815   -3290.2665    21.085009   -436654.62   -436279.82   -435996.59   -436310.34    326.89524    8377.7958 
      74   -3269.1775   -3290.2013    21.023744   -436346.65   -436579.39   -437539.88   -436821.97    325.94541    8377.7958 
      75   -3269.1809   -3290.1349    20.954009   -435396.41   -436158.51   -436098.32   -435884.41    324.86427    8377.7958 
      76   -3269.1785   -3290.0525    20.873984   -437179.21   -437257.97    -436150.1   -436862.43    323.62359    8377.7958 
      77   -3269.1784   -3289.9644     20.78599    -435647.8   -437569.28   -435983.26   -436400.11    322.25934    8377.7958 
      78   -3269.1792   -3289.8745    20.695348    -435362.8   -436474.58   -436945.38   -436260.92    320.85407    8377.7958 
      79   -3269.1786   -3289.7804    20.601784   -434490.46   -435347.49   -436051.26    -435296.4    319.40347    8377.7958 
      80   -3269.1807   -3289.6946    20.513885   -435109.04    -434448.7   -433545.43   -434367.72    318.04073    8377.7958 
      81   -3269.1759    -3289.594    20.418031    -436211.6   -438791.63   -437223.72   -437408.98    316.55463    8377.7958 
      82   -3269.1777    -3289.503    20.325344   -436234.14   -435303.75   -434007.43   -435181.77    315.11764    8377.7958 
      83   -3269.2147   -3289.4651     20.25039   -434570.84   -434473.43   -434278.46   -434440.91    313.95558    8377.7958 
      84   -3269.2122   -3289.3898    20.177571   -433901.12   -436385.54   -434832.68   -435039.78    312.82662    8377.7958 
      85   -3269.2132    -3289.322    20.108881   -434926.59   -436510.93   -435357.39    -435598.3    311.76167    8377.7958 
      86   -3269.2138   -3289.2674     20.05355   -434640.95   -436007.21   -435619.31   -435422.49    310.90384    8377.7958 
      87    -3269.212    -3289.217    20.004971   -435977.85   -436734.52   -435871.41    -436194.6    310.15068    8377.7958 
      88   -3269.2144   -3289.1758     19.96135   -434483.35    -436518.8      -434082   -435028.05     309.4744    8377.7958 
      89   -3269.2127   -3289.1361    19.923353    -435219.7   -435972.38    -433308.2   -434833.43     308.8853    8377.7958 
      90   -3269.2116    -3289.105    19.893329   -435428.55   -434359.86   -433599.23   -434462.54    308.41982    8377.7958 
      91   -3269.2155   -3289.0888    19.873267   -436159.82   -434567.63   -434921.07   -435216.17    308.10878    8377.7958 
      92    -3269.212   -3289.0715    19.859459   -435168.41   -434144.33   -434872.94   -434728.56    307.89472    8377.7958 
      93   -3269.2144   -3289.0684     19.85394   -434755.03   -433078.65   -435884.64   -434572.77    307.80915    8377.7958 
      94   -3269.2133   -3289.0615    19.848198   -436290.55   -434454.37   -435325.23   -435356.72    307.72013    8377.7958 
      95   -3269.2127   -3289.0615    19.848853   -433733.06   -434978.62    -434549.6   -434420.43    307.73028    8377.7958 
      96   -3269.2131   -3289.0653    19.852269   -434397.35   -434601.06   -435965.16   -434987.86    307.78324    8377.7958 
      97   -3269.2455   -3289.1028    19.857279   -433137.11   -432980.37   -433839.88   -433319.12    307.86092    8377.7958 
      98   -3269.2468   -3289.1166    19.869777   -434409.21   -434730.25   -435105.85   -434748.43    308.05467    8377.7958 
      99   -3269.2461   -3289.1279    19.881789   -434261.76   -433930.05    -434730.1    -434307.3    308.24091    8377.7958 
     100   -3269.2457   -3289.1366    19.890941   -435639.57   -434407.55   -435440.88   -435162.66    308.38279    8377.7958 
     101   -3269.2463    -3289.144    19.897708   -434583.58   -435046.76   -435160.06   -434930.13    308.48772    8377.7958 
Loop time of 2.64093 on 1 procs for 100 steps with 500 atoms

Performance: 3.272 ns/day, 7.336 hours/ns, 37.865 timesteps/s
99.6% CPU use with 1 MPI tasks x no OpenMP threads

MPI task timing breakdown:
Section |  min time  |  avg time  |  max time  |%varavg| %total
---------------------------------------------------------------
Pair    | 2.618      | 2.618      | 2.618      |   0.0 | 99.13
Neigh   | 0.018668   | 0.018668   | 0.018668   |   0.0 |  0.71
Comm    | 0.0015788  | 0.0015788  | 0.0015788  |   0.0 |  0.06
Output  | 0.0017076  | 0.0017076  | 0.0017076  |   0.0 |  0.06
Modify  | 0.00066137 | 0.00066137 | 0.00066137 |   0.0 |  0.03
Other   |            | 0.0003586  |            |       |  0.01

Nlocal:    500 ave 500 max 500 min
Histogram: 1 0 0 0 0 0 0 0 0 0
Nghost:    2930 ave 2930 max 2930 min
Histogram: 1 0 0 0 0 0 0 0 0 0
Neighs:    0 ave 0 max 0 min
Histogram: 1 0 0 0 0 0 0 0 0 0
FullNghs:  91260 ave 91260 max 91260 min
Histogram: 1 0 0 0 0 0 0 0 0 0

Total # of neighbors = 91260
Ave neighs/atom = 182.52
Neighbor list builds = 6
Dangerous builds = 0
Total wall time: 0:00:02
