LAMMPS (4 Feb 2020)
Lattice spacing in x,y,z = 4.062 4.062 4.062
Created orthogonal box = (0 0 0) to (20.31 20.31 20.31)
  1 by 1 by 1 MPI processor grid
Created 500 atoms
  create_atoms CPU = 0.000534058 secs
500 atoms in group Al
--> PairPACE::settings
PairPACE::coeff: arg[0] = *
PairPACE::coeff: arg[1] = *
PairPACE::coeff: arg[2] = Al.pbe.in.wRnl2.ace
PairPACE::coeff: arg[3] = Al
Create basis set 
Loading Al.pbe.in.wRnl2.ace
Loaded 
Create ACE
ACE.set basis
PairPACE::coeff done
WARNING: Using 'neigh_modify every 1 delay 0 check yes' setting during minimization (src/min.cpp:190)
init_ine i=1, j=1: 8.700000
Neighbor list info ...
  update every 1 steps, delay 0 steps, check yes
  max neighbors/atom: 2000, page size: 100000
  master list distance cutoff = 9
  ghost atom cutoff = 9
  binsize = 4.5, bins = 5 5 5
  1 neighbor lists, perpetual/occasional/extra = 1 0 0
  (1) pair pace, perpetual
      attributes: full, newton on
      pair build: full/bin/atomonly
      stencil: full/bin/3d
      bin: standard
Setting up cg style minimization ...
  Unit style    : metal
  Current step  : 0
Per MPI rank memory allocation (min/avg/max) = 4.32 | 4.32 | 4.32 Mbytes
Step Temp E_pair E_mol TotEng Press 
       0       600.03   -3598.7711            0   -3560.0687   -508861.23 
       1       600.03   -3598.7711            0   -3560.0687   -508861.23 
Loop time of 0.133747 on 1 procs for 1 steps with 500 atoms

99.6% CPU use with 1 MPI tasks x no OpenMP threads

Minimization stats:
  Stopping criterion = energy tolerance
  Energy initial, next-to-last, final = 
        -3598.77110669     -3598.77110669     -3598.77110669
  Force two-norm initial, final = 1.06665e-12 1.05203e-12
  Force max component initial, final = 8.5227e-14 7.73076e-14
  Final line search alpha, max atom move = 1 7.73076e-14
  Iterations, force evaluations = 1 2

MPI task timing breakdown:
Section |  min time  |  avg time  |  max time  |%varavg| %total
---------------------------------------------------------------
Pair    | 0.13365    | 0.13365    | 0.13365    |   0.0 | 99.92
Neigh   | 0          | 0          | 0          |   0.0 |  0.00
Comm    | 3.9339e-05 | 3.9339e-05 | 3.9339e-05 |   0.0 |  0.03
Output  | 0          | 0          | 0          |   0.0 |  0.00
Modify  | 0          | 0          | 0          |   0.0 |  0.00
Other   |            | 6.175e-05  |            |       |  0.05

Nlocal:    500 ave 500 max 500 min
Histogram: 1 0 0 0 0 0 0 0 0 0
Nghost:    2930 ave 2930 max 2930 min
Histogram: 1 0 0 0 0 0 0 0 0 0
Neighs:    0 ave 0 max 0 min
Histogram: 1 0 0 0 0 0 0 0 0 0
FullNghs:  88000 ave 88000 max 88000 min
Histogram: 1 0 0 0 0 0 0 0 0 0

Total # of neighbors = 88000
Ave neighs/atom = 176
Neighbor list builds = 0
Dangerous builds = 0
init_ine i=1, j=1: 8.700000
Setting up Verlet run ...
  Unit style    : metal
  Current step  : 1
  Time step     : 0.0005
Per MPI rank memory allocation (min/avg/max) = 3.195 | 3.195 | 3.195 Mbytes
Step TotEng PotEng KinEng Pxx Pyy Pzz Press Temp Volume 
       1   -3560.0687   -3598.7711    38.702422   -509159.58   -508718.24   -508705.86   -508861.23       600.03    8377.7958 
       2   -3560.0687   -3598.7538    38.685081   -509149.13   -508707.75   -508695.57   -508850.81    599.76115    8377.7958 
       3   -3560.0687   -3598.7018    38.633104   -509117.78   -508676.29   -508664.73    -508819.6     598.9553    8377.7958 
       4   -3560.0687   -3598.6153    38.546617   -509065.64   -508623.94   -508613.42   -508767.67    597.61444    8377.7958 
       5   -3560.0686   -3598.4945    38.425816   -508992.82   -508550.82    -508541.8   -508695.15    595.74159    8377.7958 
       6   -3560.0686   -3598.3396    38.270965   -508899.51   -508457.11   -508450.04   -508602.22    593.34082    8377.7958 
       7   -3560.0686    -3598.151    38.082391   -508785.94   -508343.01   -508338.38   -508489.11    590.41724    8377.7958 
       8   -3560.0686   -3597.9291    37.860494   -508652.38   -508208.81   -508207.11    -508356.1    586.97701    8377.7958 
       9   -3560.0685   -3597.6743    37.605736   -508499.14   -508054.82   -508056.54    -508203.5    583.02733    8377.7958 
      10   -3560.0685   -3597.3872    37.318649   -508326.63   -507881.35   -507886.97   -508031.65    578.57641    8377.7958 
      11   -3560.0685   -3597.0683    36.999829   -508135.06   -507688.79   -507698.86    -507840.9    573.63353    8377.7958 
      12   -3560.0684   -3596.7184    36.649939   -507924.97    -507477.6   -507492.88   -507631.81    568.20896    8377.7958 
      13   -3560.0684   -3596.3381    36.269713   -507696.96   -507247.93   -507267.76   -507404.22    562.31404    8377.7958 
      14   -3560.0683   -3595.9283    35.859953    -507448.9   -506999.89   -507025.09   -507157.96    555.96126    8377.7958 
      15   -3560.0683   -3595.4898    35.421524   -507186.23   -506730.76   -506768.11   -506895.04    549.16399    8377.7958 
      16   -3560.0682   -3595.0236    34.955357   -506904.63   -506449.17   -506486.89   -506613.56     541.9367    8377.7958 
      17   -3560.0681   -3594.5306    34.462443   -506605.61   -506151.15   -506195.21   -506317.32    534.29471    8377.7958 
      18   -3560.0681   -3594.0119    33.943847   -506289.21   -505825.72   -505889.18   -506001.37    526.25456    8377.7958 
      19    -3560.068   -3593.4687    33.400681   -505960.18   -505494.15   -505563.34   -505672.56    517.83349    8377.7958 
      20   -3560.0679   -3592.9021    32.834118   -505626.57   -505154.87   -505208.64   -505330.03    509.04968    8377.7958 
      21   -3560.0678   -3592.3131    32.245294   -505259.07   -504796.76   -504901.71   -504985.85    499.92075    8377.7958 
      22   -3560.0677   -3591.7034    31.635698    -504866.2   -504391.56   -504487.24   -504581.67    490.46976    8377.7958 
      23   -3560.0678   -3591.0743    31.006562   -504539.55    -504042.7   -504123.34    -504235.2    480.71583    8377.7958 
      24   -3560.0675   -3590.4265    30.358946   -504112.78   -503656.09   -503804.37   -503857.75    470.67541    8377.7958 
      25   -3560.0675   -3589.7624    29.694966   -503681.33   -503148.94   -503293.27   -503374.51    460.38127    8377.7958 
      26   -3560.0675   -3589.0833    29.015784   -503315.36   -502860.31   -502940.96   -503038.88    449.85145    8377.7958 
      27   -3560.0672   -3588.3894    28.322183   -502913.79   -502462.36    -502638.9   -502671.68    439.09809    8377.7958 
      28   -3560.0671    -3587.684    27.616886   -502448.21   -501795.21   -502085.36   -502109.59    428.16338    8377.7958 
      29   -3559.8969   -3586.7972    26.900267    -501212.2   -501397.45   -499974.37   -500861.34    417.05315    8377.7958 
      30   -3559.8969   -3586.0746    26.177777   -502419.61   -503857.74   -500909.87   -502395.74     405.8519    8377.7958 
      31   -3559.8973   -3585.3525    25.455167   -503005.77   -503152.69   -501972.87   -502710.45    394.64878    8377.7958 
      32   -3559.8981   -3584.6257    24.727553   -502567.18   -501322.31   -501889.26   -501926.25    383.36808    8377.7958 
      33   -3559.8976   -3583.8877    23.990099   -501563.11   -499842.88   -501265.97   -500890.66    371.93483    8377.7958 
      34   -3559.8968   -3583.1439    23.247168   -500256.36   -498881.04    -500693.4    -499943.6    360.41667    8377.7958 
      35   -3559.8969    -3582.403    22.506107   -499572.06   -499071.36   -500619.51   -499754.31     348.9275    8377.7958 
      36    -3559.897   -3581.6652    21.768131   -499249.28   -499580.73   -500386.21   -499738.74    337.48615    8377.7958 
      37   -3559.8971   -3580.9292    21.032063   -498660.32   -498954.25   -499009.48   -498874.68    326.07439    8377.7958 
      38   -3559.8969   -3580.1949    20.297987   -498346.33   -497749.53   -497120.71   -497738.86    314.69351    8377.7958 
      39   -3559.8964   -3579.4652    19.568729    -498249.5   -497289.52    -496043.3   -497194.11    303.38733    8377.7958 
      40   -3559.8964   -3578.7453     18.84891   -498054.72   -497467.28    -496497.8   -497339.94    292.22748    8377.7958 
      41   -3559.8964    -3578.037    18.140608   -497636.38   -497212.35   -497711.41   -497520.05     281.2462    8377.7958 
      42   -3559.8963   -3577.3407     17.44439   -496959.48    -496221.8   -497901.29   -497027.52    270.45225    8377.7958 
      43   -3559.8962   -3576.6578     16.76159   -496535.24   -495392.82    -497011.5   -496313.19    259.86634    8377.7958 
      44   -3559.8961   -3575.9896    16.093536   -496245.36   -495397.63   -496508.45   -496050.48    249.50904    8377.7958 
      45   -3559.8961   -3575.3376     15.44147   -495681.86   -495706.88   -496443.35   -495944.03    239.39962    8377.7958 
      46   -3559.8963   -3574.7019     14.80569   -495256.02   -495443.62   -495808.83   -495502.82    229.54269    8377.7958 
      47    -3559.896   -3574.0823    14.186339   -494859.99   -494476.32    -494675.5    -494670.6    219.94047    8377.7958 
      48   -3559.8955   -3573.4822    13.586747    -494115.3   -493403.25   -493683.86   -493734.14    210.64458    8377.7958 
      49   -3559.8955   -3572.9068     13.01136   -493763.74   -492871.61   -493008.08   -493214.48    201.72398    8377.7958 
      50   -3559.8957   -3572.3566    12.460894   -494104.71   -492958.84   -492931.83   -493331.79    193.18972    8377.7958 
      51   -3559.8957   -3571.8294    11.933689   -494189.33   -493213.34   -493773.01   -493725.23     185.0161    8377.7958 
      52   -3559.8955   -3571.3254     11.42994   -493668.17   -493206.51    -494734.7   -493869.79    177.20613    8377.7958 
      53   -3559.8952   -3570.8476    10.952379   -493066.67   -492837.66   -494523.16   -493475.83    169.80219    8377.7958 
      54   -3559.8953    -3570.399    10.503686   -492632.77   -492268.02    -493328.2      -492743    162.84579    8377.7958 
      55   -3559.8956   -3569.9792    10.083591   -492421.56    -491785.6   -492608.24    -492271.8    156.33278    8377.7958 
      56   -3559.8956   -3569.5854    9.6897451   -492500.68   -491592.05    -492788.9   -492293.87    150.22671    8377.7958 
      57   -3559.8952   -3569.2175    9.3222795   -492576.84   -491527.73   -492804.47   -492303.02    144.52964    8377.7958 
      58   -3559.8949   -3568.8799    8.9849609   -492389.87   -491236.37   -492052.99   -491893.07    139.29997    8377.7958 
      59   -3559.8951   -3568.5756     8.680458    -492288.3   -490716.74   -491239.08   -491414.71    134.57905    8377.7958 
      60   -3559.8954   -3568.3027    8.4072258   -492618.92    -490415.2   -491033.54   -491355.89    130.34294    8377.7958 
      61   -3559.7827   -3567.9449    8.1621584   -491425.28   -488685.92   -490672.27   -490261.16     126.5435    8377.7958 
      62   -3559.7826    -3567.728    7.9453999   -491424.39   -488967.11   -490569.85   -490320.45    123.18294    8377.7958 
      63   -3559.7825   -3567.5416    7.7590681   -491616.19   -489293.19   -490427.45   -490445.61    120.29411    8377.7958 
      64   -3559.7825   -3567.3866    7.6041309   -491837.94   -489411.88   -490411.03   -490553.62    117.89202    8377.7958 
      65   -3559.7826   -3567.2631     7.480502   -492067.04   -489525.02   -490422.14    -490671.4    115.97531    8377.7958 
      66   -3559.7826   -3567.1701    7.3874791   -492311.06    -489843.5   -490409.98   -490854.85    114.53312    8377.7958 
      67   -3559.7826    -3567.107     7.324364   -492464.37   -490296.38   -490473.35   -491078.03     113.5546    8377.7958 
      68   -3559.7827   -3567.0733    7.2906518   -492426.57   -490685.18      -490572   -491227.91    113.03194    8377.7958 
      69   -3559.7828   -3567.0683    7.2854936   -492271.85   -490904.38   -490602.07   -491259.44    112.95197    8377.7958 
      70    -3559.783     -3567.09    7.3069864   -492138.39   -490943.83   -490680.84   -491254.35    113.28518    8377.7958 
      71   -3559.7831   -3567.1358    7.3527135   -491997.47   -490789.11   -490848.46   -491211.68    113.99412    8377.7958 
      72    -3559.783   -3567.2046     7.421581   -491661.39   -490431.35    -490710.7   -490934.48    115.06182    8377.7958 
      73   -3559.7829   -3567.2973    7.5144199   -491136.67   -489961.69   -490055.73    -490384.7    116.50117    8377.7958 
      74    -3559.783    -3567.415    7.6319892   -490798.97   -489596.62   -489510.83   -489968.81    118.32392    8377.7958 
      75   -3559.7832   -3567.5562    7.7730189   -491052.96    -489603.5   -489839.98   -490165.48     120.5104    8377.7958 
      76   -3559.7833   -3567.7184     7.935136    -491789.2    -490105.8   -490796.09   -490897.03    123.02382    8377.7958 
      77   -3559.7832   -3567.9003    8.1171196   -492367.34   -490926.83   -491468.72   -491587.63    125.84523    8377.7958 
      78   -3559.7832   -3568.1021    8.3189216   -492333.41   -491657.01   -491555.53   -491848.65     128.9739    8377.7958 
      79   -3559.7833   -3568.3233    8.5399828   -492008.21   -491996.65   -491455.85   -491820.23    132.40117    8377.7958 
      80   -3559.7835   -3568.5623    8.7788469   -492129.64   -492060.54   -491332.77   -491840.98    136.10444    8377.7958 
      81   -3559.7836   -3568.8175    9.0339576   -492937.76   -492284.31   -490932.83   -492051.63    140.05959    8377.7958 
      82   -3559.7837   -3569.0873     9.303609   -493812.37   -492927.28   -490312.38   -492350.68    144.24018    8377.7958 
      83   -3559.7839   -3569.3695    9.5856008   -493967.74   -493761.17   -489960.07   -492562.99    148.61209    8377.7958 
      84   -3559.7839    -3569.662    9.8781416   -493317.68   -494321.63   -490195.94   -492611.75    153.14755    8377.7958 
      85   -3559.7838   -3569.9647    10.180956    -492474.2   -494347.14   -490940.86    -492587.4     157.8423    8377.7958 
      86   -3559.7838   -3570.2783    10.494568   -492036.39   -494027.43   -491952.09   -492671.97    162.70443    8377.7958 
      87    -3559.784   -3570.6023    10.818354   -492160.51   -493884.06   -493012.52   -493019.03    167.72431    8377.7958 
      88   -3559.7844   -3570.9338     11.14942   -492839.99   -494352.24   -494041.83   -493744.69    172.85704    8377.7958 
      89   -3559.7846   -3571.2681     11.48349   -494018.04   -495017.28   -495028.13   -494687.82    178.03636    8377.7958 
      90   -3559.7842   -3571.6028    11.818613   -495055.78   -494612.94   -495622.93   -495097.22      183.232    8377.7958 
      91   -3559.7836   -3571.9418    12.158172   -494903.73   -492903.62   -495240.88   -494349.41    188.49641    8377.7958 
      92   -3559.7838   -3572.2905    12.506736   -493733.67    -491835.7   -494119.54   -493229.64    193.90044    8377.7958 
      93   -3559.7847   -3572.6468     12.86214   -493379.86   -493029.82   -493607.29   -493338.99    199.41052    8377.7958 
      94   -3559.7851   -3573.0015    13.216431   -494669.84   -495310.06   -494683.94   -494887.95    204.90333    8377.7958 
      95   -3559.7849   -3573.3495    13.564627   -495844.63   -496970.29   -496784.42   -496533.11    210.30165    8377.7958 
      96   -3559.7847   -3573.6921    13.907418   -495697.44   -497977.51    -498318.5   -497331.15    215.61617    8377.7958 
      97   -3559.7846   -3574.0313    14.246739   -495814.11   -498458.08   -498299.49   -497523.89     220.8769    8377.7958 
      98   -3559.7847   -3574.3676    14.582898   -497091.26   -498509.73   -497416.68   -497672.56    226.08859    8377.7958 
      99   -3559.7848   -3574.6997    14.914963   -497690.22   -498798.69   -496893.38    -497794.1    231.23683    8377.7958 
     100   -3559.7845   -3575.0274    15.242849   -496930.11   -498656.32   -496592.12   -497392.85    236.32027    8377.7958 
     101   -3559.7847   -3575.3523    15.567614   -496402.62   -497366.33   -495915.67   -496561.54    241.35532    8377.7958 
Loop time of 5.65781 on 1 procs for 100 steps with 500 atoms

Performance: 0.764 ns/day, 31.432 hours/ns, 17.675 timesteps/s
99.5% CPU use with 1 MPI tasks x no OpenMP threads

MPI task timing breakdown:
Section |  min time  |  avg time  |  max time  |%varavg| %total
---------------------------------------------------------------
Pair    | 5.6466     | 5.6466     | 5.6466     |   0.0 | 99.80
Neigh   | 0.0066409  | 0.0066409  | 0.0066409  |   0.0 |  0.12
Comm    | 0.0015368  | 0.0015368  | 0.0015368  |   0.0 |  0.03
Output  | 0.0019224  | 0.0019224  | 0.0019224  |   0.0 |  0.03
Modify  | 0.00073004 | 0.00073004 | 0.00073004 |   0.0 |  0.01
Other   |            | 0.0004103  |            |       |  0.01

Nlocal:    500 ave 500 max 500 min
Histogram: 1 0 0 0 0 0 0 0 0 0
Nghost:    2930 ave 2930 max 2930 min
Histogram: 1 0 0 0 0 0 0 0 0 0
Neighs:    0 ave 0 max 0 min
Histogram: 1 0 0 0 0 0 0 0 0 0
FullNghs:  91324 ave 91324 max 91324 min
Histogram: 1 0 0 0 0 0 0 0 0 0

Total # of neighbors = 91324
Ave neighs/atom = 182.648
Neighbor list builds = 2
Dangerous builds = 0
Total wall time: 0:00:05
