LAMMPS data file
# Generated by Playmol on 20-Sep-2017 at 21:49:15

8 atom types
2 bond types
4 angle types
10 dihedral types

2445 atoms
1646 bonds
7 angles
29 dihedrals

-14.6203699 14.6203699 xlo xhi
-14.6203699 14.6203699 ylo yhi
-14.6203699 14.6203699 zlo zhi

Masses

1 1.008 # HW
2 1.008 # Ho
3 16.00 # Oh
4 16.00 # Os
5 1.008 # H2
6 1.008 # H1
7 12.01 # Cg
8 16.00 # OW

PairIJ Coeffs # lj/cut/coul/long

1 1 0.0000 0.0 # HW HW
1 2  0.00000000 0.178179994 # HW Ho
1 3  0.00000000 1.53323495 # HW Oh
1 4  0.00000000 1.50000501 # HW Os
1 5  0.00000000 1.14658499 # HW H2
1 6  0.00000000 1.23567498 # HW H1
1 7  0.00000000 1.69983494 # HW Cg
1 8  0.00000000 1.57537496 # HW OW
2 2 0.0300 0.35636 # Ho Ho
2 3  7.94480965E-02 1.71141505 # Ho Oh
2 4  7.14142844E-02 1.67818499 # Ho Os
2 5  2.17025336E-02 1.32476497 # Ho H2
2 6  2.17025336E-02 1.41385496 # Ho H1
2 7  5.72887436E-02 1.87801504 # Ho Cg
2 8  6.75277710E-02 1.75355506 # Ho OW
3 3 0.2104 3.06647 # Oh Oh
3 4  0.189124301 3.03324008 # Oh Os
3 5  5.74741699E-02 2.67982006 # Oh H2
3 6  5.74741699E-02 2.76890993 # Oh H1
3 7  0.151716053 3.23306990 # Oh Cg
3 8  0.178831771 3.10860991 # Oh OW
4 4 0.1700 3.00001 # Os Os
4 5  5.16623668E-02 2.64658999 # Os H2
4 6  5.16623668E-02 2.73568010 # Os H1
4 7  0.136374488 3.19984007 # Os Cg
4 8  0.160748243 3.07538009 # Os OW
5 5 0.0157 2.29317 # H2 H2
5 6  1.56999994E-02 2.38226008 # H2 H1
5 7  4.14436981E-02 2.84642005 # H2 Cg
5 8  4.88507934E-02 2.72196007 # H2 OW
6 6 0.0157 2.47135 # H1 H1
6 7  4.14436981E-02 2.93550992 # H1 Cg
6 8  4.88507934E-02 2.81104994 # H1 OW
7 7 0.1094 3.39967 # Cg Cg
7 8  0.128952712 3.27520990 # Cg OW
8 8 0.1520 3.15075 # OW OW

Bond Coeffs # hybrid

1 harmonic 285.0 1.460 # Cg Os
2 zero # * *

Angle Coeffs # harmonic

1 50.00 111.60 # Cg Os Cg
2 70.00 108.50 # Os Cg Cg
3 60.00 110.00 # H2 Cg Os
4 100.00 112.00 # Os Cg Os

Dihedral Coeffs # charmm

1 -0.270000011 1 0 0 # Os Cg Cg Cg
2 0.159999996 3 0 0 # Cg Os Cg Cg
3 -1.10000002 1 0 0 # Oh Cg Cg Os
4 0.250000000 2 0 0 # Oh Cg Cg Os
5 0.959999979 3 0 0 # Os Cg Os Cg
6 1.38000000 2 0 0 # Os Cg Os Cg
7 1.08000004 1 0 0 # Os Cg Os Cg
8 0.600000024 2 0 0 # H2 Cg Os Cg
9 0.100000001 3 0 0 # H2 Cg Os Cg
10 5.00000007E-02 3 0 0 # H1 Cg Cg Os

Atoms

1 1 4 -0.3880 0.380044 -0.737111 0.298911 # O1_1
2 1 7 0.5090 -0.479956 -1.162111 -0.826089 # C1_1
3 1 5 0.0000 -1.426956 -1.536111 -0.445088 # H1
4 1 7 0.2460 0.190045 -2.289111 -1.631089 # C2_1
5 1 6 0.0000 -0.552955 -2.717111 -2.307090 # H2
6 1 7 0.2860 1.401044 -1.798111 -2.440089 # C3_1
7 1 6 0.0000 2.219045 -1.538111 -1.765088 # H3_1
8 1 7 0.2540 1.028045 -0.585111 -3.314090 # C4_1
9 1 6 0.0000 0.373044 -0.903112 -4.127089 # H4_1
10 1 7 0.2830 0.341045 0.541889 -2.514088 # C5_1
11 1 6 0.0000 1.063045 0.973889 -1.817088 # H5_1
12 1 7 0.2760 -0.231955 1.653889 -3.402089 # C6_1
13 1 6 0.0000 0.540044 2.053889 -4.061089 # H62_1
14 1 6 0.0000 -1.046956 1.273888 -4.019090 # H61_1
15 1 3 -0.6820 -0.719955 2.712889 -2.567088 # O6_1
16 1 2 0.4180 0.007044 3.076889 -2.057090 # H6O_1
17 1 4 -0.5740 -0.781956 -0.031111 -1.728089 # O5_1
18 1 3 -0.7100 2.244044 -0.052111 -3.867089 # O4_1
19 1 2 0.4360 2.687044 -0.732111 -4.380090 # H4O_1
20 1 3 -0.6990 1.819044 -2.865111 -3.311089 # O3_1
21 1 2 0.4270 2.048044 -3.635111 -2.785088 # H3O_1
22 1 3 -0.7130 0.619044 -3.313111 -0.715089 # O2
23 1 2 0.4370 1.246044 -2.940111 -0.091088 # H2O
24 1 7 0.2390 -0.210955 -0.534111 1.645911 # C2_2
25 1 4 -0.4490 -1.478955 0.404889 1.610912 # O5_2
26 1 7 0.3100 -1.339955 1.664889 2.543911 # C5_2
27 1 6 0.0000 -2.159956 1.672889 3.264911 # H5_2
28 1 7 0.2720 -1.404956 2.921889 1.675911 # C6_2
29 1 6 0.0000 -0.639955 2.890889 0.897911 # H62_2
30 1 6 0.0000 -1.245955 3.810889 2.285911 # H61_2
31 1 3 -0.6520 -2.700955 2.993889 1.068911 # O6_2
32 1 2 0.3970 -3.372955 3.027889 1.753911 # H6O_2
33 1 7 0.2930 0.088044 1.495889 3.290911 # C4_2
34 1 6 0.0000 0.673044 2.416889 3.276911 # H4_2
35 1 3 -0.7630 -0.171956 1.128889 4.652911 # O4_2
36 1 2 0.4310 -0.669955 1.827889 5.083911 # H4O_2
37 1 7 0.3330 0.863045 0.245889 2.604911 # C3_2
38 1 6 0.0000 1.300044 -0.421111 3.349911 # H3_2
39 1 3 -0.6910 1.930044 0.820888 1.831911 # O3_2
40 1 2 0.4100 2.402044 0.123889 1.369911 # H3O_2
41 1 7 0.2870 -0.576956 -1.886111 2.290911 # C1_2
42 1 6 0.0000 0.240045 -2.597111 2.164911 # H12
43 1 6 0.0000 -0.746956 -1.754111 3.360912 # H11
44 1 3 -0.6240 -1.770956 -2.433111 1.714912 # O1_2
45 1 2 0.4010 -1.969955 -3.275111 2.130911 # H1O
46 2 1 0.417 -9.803115 -2.230168 0.741649 # HW1
47 2 8 -0.834 -10.249179 -3.051722 0.535956 # OW
48 2 1 0.417 -9.897628 -3.308797 -0.316426 # HW2
49 3 1 0.417 -0.884759 4.089547 7.907090 # HW1
50 3 8 -0.834 -0.092999 4.627453 7.904798 # OW
51 3 1 0.417 0.625977 3.996113 7.878068 # HW2
52 4 1 0.417 -13.046402 6.179744 10.538730 # HW1
53 4 8 -0.834 -13.045076 5.226331 10.623772 # OW
54 4 1 0.417 -12.319438 5.039529 11.219411 # HW2
55 5 1 0.417 -6.864357 -11.943720 -7.221704 # HW1
56 5 8 -0.834 -6.916289 -12.852251 -7.518530 # OW
57 5 1 0.417 -7.853321 -13.047276 -7.531560 # HW2
58 6 1 0.417 -4.478943 1.245444 0.068427 # HW1
59 6 8 -0.834 -5.343331 1.651842 0.130939 # OW
60 6 1 0.417 -5.956817 0.918063 0.093062 # HW2
61 7 1 0.417 -3.877365 -2.824538 10.012815 # HW1
62 7 8 -0.834 -2.958940 -2.555148 10.025291 # OW
63 7 1 0.417 -2.961771 -1.713920 10.481974 # HW2
64 8 1 0.417 -12.237474 -9.819882 -1.972848 # HW1
65 8 8 -0.834 -12.779294 -10.328187 -1.369283 # OW
66 8 1 0.417 -12.160309 -10.898321 -0.913173 # HW2
67 9 1 0.417 -10.831855 3.564562 4.391219 # HW1
68 9 8 -0.834 -10.507853 2.743746 4.762052 # OW
69 9 1 0.417 -9.586442 2.915396 4.956398 # HW2
70 10 1 0.417 7.735533 -5.485027 2.409513 # HW1
71 10 8 -0.834 7.906667 -5.870899 3.268610 # OW
72 10 1 0.417 7.995990 -5.120007 3.855479 # HW2
73 11 1 0.417 -7.361356 3.638824 5.729507 # HW1
74 11 8 -0.834 -6.407859 3.679824 5.802957 # OW
75 11 1 0.417 -6.128587 2.764364 5.816090 # HW2
76 12 1 0.417 -4.740634 -13.035103 -11.646670 # HW1
77 12 8 -0.834 -4.854408 -13.046665 -10.696326 # OW
78 12 1 0.417 -4.317491 -12.319461 -10.381482 # HW2
79 13 1 0.417 6.508107 -12.267531 -5.067641 # HW1
80 13 8 -0.834 7.056206 -13.051576 -5.034588 # OW
81 13 1 0.417 7.850008 -12.770461 -4.579522 # HW2
82 14 1 0.417 5.609541 12.369760 -10.940418 # HW1
83 14 8 -0.834 4.941466 13.053931 -10.983059 # OW
84 14 1 0.417 4.153089 12.601190 -11.282592 # HW2
85 15 1 0.417 2.573277 10.165128 -9.990157 # HW1
86 15 8 -0.834 2.478696 11.117495 -10.006968 # OW
87 15 1 0.417 2.201751 11.346855 -9.119879 # HW2
88 16 1 0.417 8.259898 -9.461921 12.719521 # HW1
89 16 8 -0.834 8.279982 -8.516752 12.869467 # OW
90 16 1 0.417 8.947332 -8.191992 12.264978 # HW2
91 17 1 0.417 5.674816 -10.615412 4.187693 # HW1
92 17 8 -0.834 6.101249 -11.327096 3.710311 # OW
93 17 1 0.417 6.284838 -10.959862 2.845633 # HW2
94 18 1 0.417 -0.322415 -6.829719 4.214154 # HW1
95 18 8 -0.834 -0.534685 -5.958785 3.878524 # OW
96 18 1 0.417 -1.256703 -6.106403 3.267679 # HW2
97 19 1 0.417 12.779084 -12.948341 9.991454 # HW1
98 19 8 -0.834 13.049284 -13.060542 9.080062 # OW
99 19 1 0.417 13.023783 -12.177415 8.711731 # HW2
100 20 1 0.417 8.663021 -3.096573 -0.052477 # HW1
101 20 8 -0.834 7.776480 -2.863356 -0.327954 # OW
102 20 1 0.417 7.246445 -3.628172 -0.103564 # HW2
103 21 1 0.417 9.480473 7.089954 12.943253 # HW1
104 21 8 -0.834 10.406122 6.867715 13.043331 # OW
105 21 1 0.417 10.797397 7.082457 12.196560 # HW2
106 22 1 0.417 -12.192093 -1.204395 -8.758756 # HW1
107 22 8 -0.834 -13.045544 -1.573894 -8.532208 # OW
108 22 1 0.417 -12.865348 -2.162246 -7.798993 # HW2
109 23 1 0.417 6.147286 -1.576058 1.404818 # HW1
110 23 8 -0.834 6.236678 -0.631684 1.276760 # OW
111 23 1 0.417 7.158946 -0.506015 1.053467 # HW2
112 24 1 0.417 12.690965 2.210518 12.302700 # HW1
113 24 8 -0.834 13.046430 2.736601 13.019019 # OW
114 24 1 0.417 12.487624 3.513265 13.046608 # HW2
115 25 1 0.417 -7.270871 5.681122 -3.233160 # HW1
116 25 8 -0.834 -7.493437 5.079624 -3.943720 # OW
117 25 1 0.417 -7.920173 5.630680 -4.599819 # HW2
118 26 1 0.417 -2.100385 -5.160548 6.579750 # HW1
119 26 8 -0.834 -2.212750 -4.289796 6.198440 # OW
120 26 1 0.417 -3.133527 -4.258509 5.938782 # HW2
121 27 1 0.417 10.208351 2.335188 9.967811 # HW1
122 27 8 -0.834 9.934787 2.297264 9.051320 # OW
123 27 1 0.417 10.753194 2.233256 8.559035 # HW2
124 28 1 0.417 -5.443940 -12.907091 4.168316 # HW1
125 28 8 -0.834 -6.077027 -12.324163 3.749236 # OW
126 28 1 0.417 -6.711655 -12.912950 3.340815 # HW2
127 29 1 0.417 -3.501433 0.489914 -1.863053 # HW1
128 29 8 -0.834 -3.479164 1.292912 -2.383562 # OW
129 29 1 0.417 -4.334653 1.696938 -2.238193 # HW2
130 30 1 0.417 -4.539009 -1.477195 2.405861 # HW1
131 30 8 -0.834 -4.346566 -0.587179 2.110786 # OW
132 30 1 0.417 -5.182277 -0.125567 2.179583 # HW2
133 31 1 0.417 5.951683 -9.909340 12.427434 # HW1
134 31 8 -0.834 5.954741 -10.634877 13.051788 # OW
135 31 1 0.417 5.886783 -11.419700 12.508035 # HW2
136 32 1 0.417 8.945261 8.600736 4.151257 # HW1
137 32 8 -0.834 8.715915 9.071709 4.952392 # OW
138 32 1 0.417 9.090490 9.944484 4.833272 # HW2
139 33 1 0.417 0.119739 -12.374141 -4.858744 # HW1
140 33 8 -0.834 0.628658 -13.046334 -4.405544 # OW
141 33 1 0.417 1.473804 -13.051186 -4.854917 # HW2
142 34 1 0.417 -3.905510 -2.638981 -2.781639 # HW1
143 34 8 -0.834 -3.499946 -2.071939 -2.125733 # OW
144 34 1 0.417 -2.772899 -2.588632 -1.778368 # HW2
145 35 1 0.417 -4.882985 0.087845 12.442618 # HW1
146 35 8 -0.834 -5.591803 -0.126919 13.048989 # OW
147 35 1 0.417 -5.878056 -1.000927 12.783654 # HW2
148 36 1 0.417 -2.406123 2.879276 9.123052 # HW1
149 36 8 -0.834 -3.293018 2.786461 9.470953 # OW
150 36 1 0.417 -3.451548 1.842490 9.475267 # HW2
151 37 1 0.417 -5.459635 0.774706 -5.889254 # HW1
152 37 8 -0.834 -5.674009 1.013050 -4.987329 # OW
153 37 1 0.417 -6.239937 0.304877 -4.680003 # HW2
154 38 1 0.417 3.167367 -12.500130 8.635587 # HW1
155 38 8 -0.834 2.773891 -13.049184 7.957392 # OW
156 38 1 0.417 2.307510 -12.434130 7.391326 # HW2
157 39 1 0.417 -6.283338 -3.198011 12.296864 # HW1
158 39 8 -0.834 -5.815413 -3.561847 13.048463 # OW
159 39 1 0.417 -5.725366 -4.493293 12.847141 # HW2
160 40 1 0.417 2.133362 12.497220 -5.795268 # HW1
161 40 8 -0.834 1.867740 13.055240 -6.526219 # OW
162 40 1 0.417 1.780871 12.455252 -7.266962 # HW2
163 41 1 0.417 0.336005 10.794091 13.008258 # HW1
164 41 8 -0.834 0.301282 9.838458 13.050583 # OW
165 41 1 0.417 0.985459 9.546536 12.448158 # HW2
166 42 1 0.417 -4.396299 8.442603 0.058567 # HW1
167 42 8 -0.834 -5.353166 8.442081 0.033337 # OW
168 42 1 0.417 -5.568943 8.568304 -0.890643 # HW2
169 43 1 0.417 -8.989516 -8.912119 -2.274704 # HW1
170 43 8 -0.834 -9.664273 -8.272604 -2.046767 # OW
171 43 1 0.417 -9.674593 -8.265427 -1.089650 # HW2
172 44 1 0.417 -0.795539 0.573627 7.749001 # HW1
173 44 8 -0.834 -0.756249 1.527511 7.679755 # OW
174 44 1 0.417 0.176921 1.733788 7.733371 # HW2
175 45 1 0.417 -3.100547 12.765445 -6.520654 # HW1
176 45 8 -0.834 -3.855268 13.046001 -7.038260 # OW
177 45 1 0.417 -4.540883 12.412811 -6.825574 # HW2
178 46 1 0.417 8.706390 13.013251 11.935811 # HW1
179 46 8 -0.834 8.570858 13.027306 12.883263 # OW
180 46 1 0.417 7.937599 12.328098 13.045505 # HW2
181 47 1 0.417 0.962055 8.203465 -0.813161 # HW1
182 47 8 -0.834 0.227541 8.611669 -0.354806 # OW
183 47 1 0.417 0.291500 9.540254 -0.578120 # HW2
184 48 1 0.417 3.605453 4.852979 -11.623999 # HW1
185 48 8 -0.834 4.187240 4.120950 -11.828669 # OW
186 48 1 0.417 4.520198 3.834021 -10.978349 # HW2
187 49 1 0.417 -6.738636 -11.010560 -4.738000 # HW1
188 49 8 -0.834 -7.667245 -10.982092 -4.968447 # OW
189 49 1 0.417 -7.843219 -10.057338 -5.141928 # HW2
190 50 1 0.417 8.066324 10.926956 -9.367828 # HW1
191 50 8 -0.834 7.214574 10.880848 -8.933515 # OW
192 50 1 0.417 6.835235 11.751075 -9.056149 # HW2
193 51 1 0.417 -7.331597 9.303510 9.443668 # HW1
194 51 8 -0.834 -7.854812 9.771647 10.094302 # OW
195 51 1 0.417 -8.700823 9.323906 10.089190 # HW2
196 52 1 0.417 11.055511 0.155159 -10.174263 # HW1
197 52 8 -0.834 10.614440 0.366664 -9.351491 # OW
198 52 1 0.417 9.685831 0.406289 -9.580287 # HW2
199 53 1 0.417 -12.181214 7.655882 12.945725 # HW1
200 53 8 -0.834 -13.042523 7.250270 13.045006 # OW
201 53 1 0.417 -12.877871 6.311818 12.953188 # HW2
202 54 1 0.417 -10.492144 -6.061864 -11.163581 # HW1
203 54 8 -0.834 -11.159823 -5.786903 -10.535224 # OW
204 54 1 0.417 -11.004424 -4.850158 -10.414426 # HW2
205 55 1 0.417 10.244391 -12.522562 6.330873 # HW1
206 55 8 -0.834 10.920963 -13.048694 6.757096 # OW
207 55 1 0.417 11.571683 -12.410912 7.050403 # HW2
208 56 1 0.417 4.304040 13.045433 -5.493150 # HW1
209 56 8 -0.834 4.591675 12.459944 -4.792650 # OW
210 56 1 0.417 5.496569 12.243335 -5.017326 # HW2
211 57 1 0.417 3.880351 1.815976 12.400432 # HW1
212 57 8 -0.834 4.570247 1.679050 13.049682 # OW
213 57 1 0.417 5.353045 2.060362 12.652112 # HW2
214 58 1 0.417 -5.637765 5.090164 -1.069905 # HW1
215 58 8 -0.834 -4.854922 4.540637 -1.032375 # OW
216 58 1 0.417 -4.148713 5.144382 -0.802172 # HW2
217 59 1 0.417 -1.824787 -5.896577 -2.181975 # HW1
218 59 8 -0.834 -2.023880 -5.052714 -1.776402 # OW
219 59 1 0.417 -2.807046 -4.745733 -2.233179 # HW2
220 60 1 0.417 3.091077 0.612965 10.153543 # HW1
221 60 8 -0.834 2.292092 0.798643 10.646879 # OW
222 60 1 0.417 2.221045 1.753163 10.638196 # HW2
223 61 1 0.417 -12.371585 -5.361192 6.069987 # HW1
224 61 8 -0.834 -12.947683 -4.599254 6.008391 # OW
225 61 1 0.417 -12.358662 -3.847346 6.071008 # HW2
226 62 1 0.417 -7.487298 5.915083 12.379477 # HW1
227 62 8 -0.834 -6.968043 5.484050 13.058311 # OW
228 62 1 0.417 -6.509351 4.780504 12.599120 # HW2
229 63 1 0.417 -8.173347 -10.463790 10.841842 # HW1
230 63 8 -0.834 -7.727933 -10.547998 9.998783 # OW
231 63 1 0.417 -8.070430 -11.360615 9.626520 # HW2
232 64 1 0.417 -5.408110 -0.426545 -1.593535 # HW1
233 64 8 -0.834 -6.149572 -0.368562 -2.196116 # OW
234 64 1 0.417 -6.467314 -1.268213 -2.272930 # HW2
235 65 1 0.417 -8.733368 7.453315 12.746716 # HW1
236 65 8 -0.834 -9.602064 7.212765 13.068795 # OW
237 65 1 0.417 -10.208339 7.698564 12.509633 # HW2
238 66 1 0.417 -12.590965 4.773314 -3.251651 # HW1
239 66 8 -0.834 -13.045361 4.635684 -2.420499 # OW
240 66 1 0.417 -12.959718 5.469980 -1.959145 # HW2
241 67 1 0.417 10.645496 12.578892 7.099588 # HW1
242 67 8 -0.834 9.949630 13.045834 7.562153 # OW
243 67 1 0.417 9.208707 12.439843 7.555874 # HW2
244 68 1 0.417 12.703713 0.771796 -1.270422 # HW1
245 68 8 -0.834 13.046958 0.838380 -0.379366 # OW
246 68 1 0.417 12.268018 0.877487 0.175570 # HW2
247 69 1 0.417 7.078179 -10.136893 -10.103266 # HW1
248 69 8 -0.834 7.627836 -10.588651 -10.743597 # OW
249 69 1 0.417 8.482672 -10.659258 -10.318740 # HW2
250 70 1 0.417 5.117053 11.916325 -7.254402 # HW1
251 70 8 -0.834 4.579460 12.305331 -7.944257 # OW
252 70 1 0.417 4.601299 11.664962 -8.655370 # HW2
253 71 1 0.417 -6.137833 -10.604864 12.627248 # HW1
254 71 8 -0.834 -6.882367 -10.178526 13.051673 # OW
255 71 1 0.417 -7.230079 -9.584631 12.386379 # HW2
256 72 1 0.417 12.524118 13.045614 7.601950 # HW1
257 72 8 -0.834 13.050986 12.357541 8.008396 # OW
258 72 1 0.417 12.409619 11.736237 8.353161 # HW2
259 73 1 0.417 -10.285907 -5.348399 -5.498894 # HW1
260 73 8 -0.834 -10.199783 -5.581742 -6.423213 # OW
261 73 1 0.417 -11.079074 -5.465231 -6.783079 # HW2
262 74 1 0.417 -10.935191 5.826119 -5.620002 # HW1
263 74 8 -0.834 -10.465699 5.313530 -4.961928 # OW
264 74 1 0.417 -10.620519 5.778894 -4.139919 # HW2
265 75 1 0.417 7.597077 -6.103193 9.731914 # HW1
266 75 8 -0.834 8.135573 -6.707375 10.243010 # OW
267 75 1 0.417 7.504544 -7.250183 10.715656 # HW2
268 76 1 0.417 13.045069 12.182508 4.704228 # HW1
269 76 8 -0.834 12.722903 13.049099 4.952141 # OW
270 76 1 0.417 11.804228 12.907311 5.180538 # HW2
271 77 1 0.417 -12.246839 10.893262 7.419736 # HW1
272 77 8 -0.834 -13.045256 10.368829 7.358650 # OW
273 77 1 0.417 -12.734385 9.467991 7.268745 # HW2
274 78 1 0.417 7.038379 12.267916 -3.036407 # HW1
275 78 8 -0.834 7.388675 13.047885 -3.466723 # OW
276 78 1 0.417 8.320408 13.044943 -3.247414 # HW2
277 79 1 0.417 -2.236838 6.861969 5.247301 # HW1
278 79 8 -0.834 -2.632845 7.690407 5.517674 # OW
279 79 1 0.417 -2.462070 7.742412 6.458080 # HW2
280 80 1 0.417 -13.046451 -0.912515 1.715863 # HW1
281 80 8 -0.834 -13.045334 -1.867136 1.786078 # OW
282 80 1 0.417 -12.141426 -2.090375 2.008218 # HW2
283 81 1 0.417 -7.292288 -1.191774 5.816091 # HW1
284 81 8 -0.834 -6.591374 -1.193394 6.467972 # OW
285 81 1 0.417 -7.041215 -1.317410 7.303731 # HW2
286 82 1 0.417 1.287967 -3.847965 7.920825 # HW1
287 82 8 -0.834 0.648019 -4.429205 7.509901 # OW
288 82 1 0.417 0.521585 -5.134173 8.144933 # HW2
289 83 1 0.417 12.231192 8.943611 12.702609 # HW1
290 83 8 -0.834 13.046938 8.586169 13.053359 # OW
291 83 1 0.417 12.958867 7.638896 12.947769 # HW2
292 84 1 0.417 -12.467179 -4.347679 0.353835 # HW1
293 84 8 -0.834 -13.054504 -4.157386 -0.377650 # OW
294 84 1 0.417 -12.490355 -4.180218 -1.150597 # HW2
295 85 1 0.417 0.181466 -2.250471 -5.942135 # HW1
296 85 8 -0.834 0.341679 -3.190385 -6.026542 # OW
297 85 1 0.417 1.282010 -3.287968 -5.876585 # HW2
298 86 1 0.417 13.045794 7.628411 -12.556974 # HW1
299 86 8 -0.834 13.041850 6.805280 -13.045514 # OW
300 86 1 0.417 12.805963 6.142247 -12.396687 # HW2
301 87 1 0.417 13.045259 -1.251781 12.608020 # HW1
302 87 8 -0.834 12.887571 -0.416281 13.047685 # OW
303 87 1 0.417 13.046550 0.243752 12.372915 # HW2
304 88 1 0.417 -12.791662 -7.953184 -9.346133 # HW1
305 88 8 -0.834 -13.049777 -8.286070 -10.205665 # OW
306 88 1 0.417 -12.306114 -8.085435 -10.773946 # HW2
307 89 1 0.417 4.182258 8.592371 -10.043140 # HW1
308 89 8 -0.834 4.916103 9.145145 -10.311737 # OW
309 89 1 0.417 4.976660 9.812466 -9.628182 # HW2
310 90 1 0.417 -9.346924 8.546599 7.500783 # HW1
311 90 8 -0.834 -10.241543 8.884170 7.544772 # OW
312 90 1 0.417 -10.709614 8.414121 6.854702 # HW2
313 91 1 0.417 3.107218 -10.494654 -5.356991 # HW1
314 91 8 -0.834 3.045771 -11.031900 -4.567166 # OW
315 91 1 0.417 3.866148 -10.868989 -4.101685 # HW2
316 92 1 0.417 -9.370652 -7.848158 -7.799408 # HW1
317 92 8 -0.834 -9.300002 -7.555730 -8.708103 # OW
318 92 1 0.417 -9.552090 -6.632651 -8.683443 # HW2
319 93 1 0.417 -4.067529 -9.893553 -3.041270 # HW1
320 93 8 -0.834 -3.982847 -10.543924 -2.344076 # OW
321 93 1 0.417 -3.773847 -11.359020 -2.800331 # HW2
322 94 1 0.417 -5.045178 -4.943627 2.446312 # HW1
323 94 8 -0.834 -5.092037 -3.990075 2.515405 # OW
324 94 1 0.417 -5.923191 -3.759924 2.100138 # HW2
325 95 1 0.417 -4.980166 5.802255 -11.692892 # HW1
326 95 8 -0.834 -4.066924 5.690146 -11.428975 # OW
327 95 1 0.417 -3.970041 4.747438 -11.294265 # HW2
328 96 1 0.417 1.941430 12.736954 5.533987 # HW1
329 96 8 -0.834 1.207668 13.046507 5.002948 # OW
330 96 1 0.417 1.256772 12.527654 4.200071 # HW2
331 97 1 0.417 -12.375240 9.635714 2.973712 # HW1
332 97 8 -0.834 -13.049973 10.125415 2.503435 # OW
333 97 1 0.417 -12.620581 10.412094 1.697414 # HW2
334 98 1 0.417 -2.772720 -8.822957 -12.945262 # HW1
335 98 8 -0.834 -2.373100 -7.959156 -13.047162 # OW
336 98 1 0.417 -1.887906 -7.821709 -12.233573 # HW2
337 99 1 0.417 -8.076214 10.575801 12.530759 # HW1
338 99 8 -0.834 -8.813571 10.263140 13.054953 # OW
339 99 1 0.417 -9.413934 9.876058 12.417801 # HW2
340 100 1 0.417 12.862700 9.913981 -10.302481 # HW1
341 100 8 -0.834 13.051922 8.977646 -10.363340 # OW
342 100 1 0.417 12.708922 8.610053 -9.548810 # HW2
343 101 1 0.417 -7.756088 1.666858 -1.919072 # HW1
344 101 8 -0.834 -7.409341 2.545598 -2.073391 # OW
345 101 1 0.417 -8.100669 2.994325 -2.560159 # HW2
346 102 1 0.417 -4.822933 11.139517 12.348392 # HW1
347 102 8 -0.834 -3.866769 11.182166 12.335657 # OW
348 102 1 0.417 -3.666884 12.113930 12.425628 # HW2
349 103 1 0.417 -10.441592 0.894238 10.694727 # HW1
350 103 8 -0.834 -10.223611 1.821187 10.597351 # OW
351 103 1 0.417 -9.269224 1.837051 10.525755 # HW2
352 104 1 0.417 -1.990993 4.880733 -9.513823 # HW1
353 104 8 -0.834 -2.544222 4.222238 -9.093640 # OW
354 104 1 0.417 -1.967149 3.790546 -8.463672 # HW2
355 105 1 0.417 -2.737974 1.317207 -12.705253 # HW1
356 105 8 -0.834 -3.123129 0.510555 -13.047598 # OW
357 105 1 0.417 -3.554560 0.111188 -12.292214 # HW2
358 106 1 0.417 -7.821202 10.847707 -9.498633 # HW1
359 106 8 -0.834 -7.045612 10.369991 -9.792708 # OW
360 106 1 0.417 -7.359428 9.822856 -10.512704 # HW2
361 107 1 0.417 12.668044 -9.176270 -7.440792 # HW1
362 107 8 -0.834 13.046954 -10.016311 -7.699616 # OW
363 107 1 0.417 12.339447 -10.466788 -8.160849 # HW2
364 108 1 0.417 7.808645 5.561716 -5.747738 # HW1
365 108 8 -0.834 7.022012 6.081812 -5.911875 # OW
366 108 1 0.417 6.791148 5.887627 -6.820295 # HW2
367 109 1 0.417 -7.116394 -10.991763 -12.968888 # HW1
368 109 8 -0.834 -6.362379 -11.576457 -13.045212 # OW
369 109 1 0.417 -5.769415 -11.295639 -12.348242 # HW2
370 110 1 0.417 -5.396102 8.975503 -12.800978 # HW1
371 110 8 -0.834 -5.385397 8.050442 -13.046700 # OW
372 110 1 0.417 -4.478492 7.776355 -12.910204 # HW2
373 111 1 0.417 7.679564 5.070389 -12.374189 # HW1
374 111 8 -0.834 7.090123 4.605975 -12.968421 # OW
375 111 1 0.417 7.470209 3.731110 -13.048279 # HW2
376 112 1 0.417 -11.917472 -10.538739 -13.045676 # HW1
377 112 8 -0.834 -12.529142 -9.802477 -13.048901 # OW
378 112 1 0.417 -12.141013 -9.165398 -12.449137 # HW2
379 113 1 0.417 -10.569324 12.373104 12.002772 # HW1
380 113 8 -0.834 -9.900861 13.054113 12.077717 # OW
381 113 1 0.417 -9.184137 12.749136 11.521366 # HW2
382 114 1 0.417 5.499580 6.436792 -3.326716 # HW1
383 114 8 -0.834 5.515884 5.486954 -3.209358 # OW
384 114 1 0.417 5.385941 5.134115 -4.089614 # HW2
385 115 1 0.417 11.082510 -0.463706 -1.553522 # HW1
386 115 8 -0.834 11.335394 -1.309606 -1.923299 # OW
387 115 1 0.417 10.619919 -1.899180 -1.685117 # HW2
388 116 1 0.417 -0.765908 -7.695104 6.172754 # HW1
389 116 8 -0.834 -1.721725 -7.744517 6.187027 # OW
390 116 1 0.417 -1.938236 -7.942136 7.098236 # HW2
391 117 1 0.417 -10.320349 7.832904 -12.691046 # HW1
392 117 8 -0.834 -9.463423 7.600418 -13.048620 # OW
393 117 1 0.417 -8.840815 8.110713 -12.530749 # HW2
394 118 1 0.417 5.238979 1.898113 8.272953 # HW1
395 118 8 -0.834 5.921339 2.438391 7.874560 # OW
396 118 1 0.417 6.469952 1.817367 7.395410 # HW2
397 119 1 0.417 -0.728190 1.375479 -12.624833 # HW1
398 119 8 -0.834 0.048978 1.015870 -13.052528 # OW
399 119 1 0.417 0.581522 0.673905 -12.334414 # HW2
400 120 1 0.417 -5.445026 -1.502800 -9.114425 # HW1
401 120 8 -0.834 -4.962794 -0.676440 -9.085895 # OW
402 120 1 0.417 -4.043253 -0.932610 -9.156980 # HW2
403 121 1 0.417 9.250787 3.367109 3.678753 # HW1
404 121 8 -0.834 10.146333 3.492945 3.365076 # OW
405 121 1 0.417 10.362046 2.673500 2.919868 # HW2
406 122 1 0.417 -12.691830 3.203353 -9.366136 # HW1
407 122 8 -0.834 -13.067765 3.776478 -10.034293 # OW
408 122 1 0.417 -12.377684 3.863256 -10.691932 # HW2
409 123 1 0.417 1.874444 -11.553522 9.851078 # HW1
410 123 8 -0.834 1.085885 -11.034089 9.694247 # OW
411 123 1 0.417 1.377789 -10.319665 9.128012 # HW2
412 124 1 0.417 -12.238597 8.823466 0.202550 # HW1
413 124 8 -0.834 -13.050142 8.541443 -0.219457 # OW
414 124 1 0.417 -12.802483 7.764639 -0.720929 # HW2
415 125 1 0.417 -10.345868 2.515077 2.069106 # HW1
416 125 8 -0.834 -10.119356 3.368080 1.698551 # OW
417 125 1 0.417 -10.530268 4.001900 2.286475 # HW2
418 126 1 0.417 3.761751 -5.598578 3.984511 # HW1
419 126 8 -0.834 4.112731 -6.488348 3.947725 # OW
420 126 1 0.417 5.057469 -6.378311 4.055403 # HW2
421 127 1 0.417 -6.129398 -13.046413 -4.894301 # HW1
422 127 8 -0.834 -5.172230 -13.048163 -4.901966 # OW
423 127 1 0.417 -4.930353 -12.122332 -4.878204 # HW2
424 128 1 0.417 -5.140133 5.912383 -4.576496 # HW1
425 128 8 -0.834 -4.538544 6.170890 -3.878286 # OW
426 128 1 0.417 -4.337642 5.354774 -3.420220 # HW2
427 129 1 0.417 -3.174645 4.211630 -4.844210 # HW1
428 129 8 -0.834 -3.535060 3.326579 -4.789282 # OW
429 129 1 0.417 -2.777816 2.751752 -4.900586 # HW2
430 130 1 0.417 10.291561 -5.261837 -1.322721 # HW1
431 130 8 -0.834 10.085695 -4.457876 -1.799689 # OW
432 130 1 0.417 10.789322 -4.373728 -2.443163 # HW2
433 131 1 0.417 10.306984 9.215005 -7.311051 # HW1
434 131 8 -0.834 9.890649 10.058553 -7.488038 # OW
435 131 1 0.417 10.593202 10.699921 -7.381750 # HW2
436 132 1 0.417 9.239402 -10.796516 2.117273 # HW1
437 132 8 -0.834 8.781765 -10.018719 1.798161 # OW
438 132 1 0.417 7.866461 -10.290196 1.729241 # HW2
439 133 1 0.417 -8.408125 2.298224 -11.333772 # HW1
440 133 8 -0.834 -8.655041 1.967781 -10.470018 # OW
441 133 1 0.417 -7.908698 1.435632 -10.194297 # HW2
442 134 1 0.417 12.234451 4.088313 -12.878111 # HW1
443 134 8 -0.834 13.049282 3.617092 -13.051986 # OW
444 134 1 0.417 12.870911 2.718641 -12.774134 # HW2
445 135 1 0.417 -5.366479 4.893645 9.492000 # HW1
446 135 8 -0.834 -5.885452 4.471588 8.807334 # OW
447 135 1 0.417 -5.238004 4.143376 8.183379 # HW2
448 136 1 0.417 5.750551 -5.137135 -1.971088 # HW1
449 136 8 -0.834 6.686657 -5.335692 -1.948454 # OW
450 136 1 0.417 6.728204 -6.290333 -1.892187 # HW2
451 137 1 0.417 9.029790 -6.777099 0.533392 # HW1
452 137 8 -0.834 8.175230 -7.193815 0.422455 # OW
453 137 1 0.417 8.353575 -7.969083 -0.109883 # HW2
454 138 1 0.417 8.160570 -5.124004 12.525240 # HW1
455 138 8 -0.834 7.455378 -5.482092 13.064415 # OW
456 138 1 0.417 7.116592 -6.219893 12.557359 # HW2
457 139 1 0.417 -1.113179 -10.428857 -8.363442 # HW1
458 139 8 -0.834 -1.977175 -10.058086 -8.183800 # OW
459 139 1 0.417 -2.562899 -10.508637 -8.792210 # HW2
460 140 1 0.417 3.215061 9.943462 -0.935934 # HW1
461 140 8 -0.834 2.553586 10.470972 -1.383613 # OW
462 140 1 0.417 2.046160 9.838488 -1.892254 # HW2
463 141 1 0.417 4.694153 -1.734485 9.716705 # HW1
464 141 8 -0.834 3.832126 -1.895164 10.100531 # OW
465 141 1 0.417 3.327639 -2.301579 9.395867 # HW2
466 142 1 0.417 -0.095716 12.470216 -8.086643 # HW1
467 142 8 -0.834 -0.922685 12.133762 -7.741457 # OW
468 142 1 0.417 -0.670340 11.384816 -7.201426 # HW2
469 143 1 0.417 6.166144 6.683298 9.144691 # HW1
470 143 8 -0.834 6.247980 5.753175 8.933962 # OW
471 143 1 0.417 5.974099 5.301280 9.732092 # HW2
472 144 1 0.417 11.015149 3.075723 -11.568426 # HW1
473 144 8 -0.834 10.120204 2.739727 -11.519309 # OW
474 144 1 0.417 9.571663 3.523093 -11.478405 # HW2
475 145 1 0.417 -0.215806 -6.837780 -4.359894 # HW1
476 145 8 -0.834 -0.016514 -5.962955 -4.026434 # OW
477 145 1 0.417 0.584640 -5.591264 -4.671950 # HW2
478 146 1 0.417 10.856386 -9.518374 -9.189415 # HW1
479 146 8 -0.834 10.831585 -9.618823 -10.141006 # OW
480 146 1 0.417 9.967966 -9.292889 -10.394305 # HW2
481 147 1 0.417 3.566627 -11.095346 10.931480 # HW1
482 147 8 -0.834 4.029167 -10.336513 10.575868 # OW
483 147 1 0.417 3.427715 -9.604129 10.710412 # HW2
484 148 1 0.417 12.381141 -2.017646 2.101808 # HW1
485 148 8 -0.834 13.052022 -1.349245 2.241061 # OW
486 148 1 0.417 12.727530 -0.581736 1.770033 # HW2
487 149 1 0.417 8.101395 8.703313 -0.966511 # HW1
488 149 8 -0.834 8.611938 9.509575 -0.892217 # OW
489 149 1 0.417 7.964379 10.186381 -0.695159 # HW2
490 150 1 0.417 1.445515 8.346193 -12.620634 # HW1
491 150 8 -0.834 2.137135 8.975121 -12.414859 # OW
492 150 1 0.417 2.757732 8.482270 -11.878027 # HW2
493 151 1 0.417 -6.087579 -7.727698 -9.962186 # HW1
494 151 8 -0.834 -6.557456 -6.935820 -10.223674 # OW
495 151 1 0.417 -7.370950 -7.256904 -10.612729 # HW2
496 152 1 0.417 -6.086366 -8.123428 -6.808270 # HW1
497 152 8 -0.834 -7.020941 -8.102183 -6.602481 # OW
498 152 1 0.417 -7.179010 -7.209168 -6.296262 # HW2
499 153 1 0.417 7.310914 -7.112646 -5.686227 # HW1
500 153 8 -0.834 7.929777 -7.842254 -5.656021 # OW
501 153 1 0.417 8.772245 -7.434230 -5.456031 # HW2
502 154 1 0.417 4.725985 7.552161 4.182169 # HW1
503 154 8 -0.834 3.779196 7.479347 4.302666 # OW
504 154 1 0.417 3.447277 7.218653 3.443538 # HW2
505 155 1 0.417 -7.515800 8.326710 5.423159 # HW1
506 155 8 -0.834 -8.351329 7.909534 5.213189 # OW
507 155 1 0.417 -8.998249 8.609270 5.303163 # HW2
508 156 1 0.417 -9.095067 -11.480732 -7.580483 # HW1
509 156 8 -0.834 -9.194082 -10.534753 -7.687965 # OW
510 156 1 0.417 -9.922992 -10.437841 -8.300771 # HW2
511 157 1 0.417 -0.571853 7.649204 -12.099796 # HW1
512 157 8 -0.834 -1.239696 7.025976 -11.813781 # OW
513 157 1 0.417 -2.068322 7.420570 -12.085637 # HW2
514 158 1 0.417 12.770544 -7.437232 1.378602 # HW1
515 158 8 -0.834 13.048914 -6.530307 1.505996 # OW
516 158 1 0.417 12.342514 -6.131578 2.014175 # HW2
517 159 1 0.417 -10.959759 7.821027 -8.517178 # HW1
518 159 8 -0.834 -11.080941 7.337091 -7.700262 # OW
519 159 1 0.417 -10.384288 7.656264 -7.126646 # HW2
520 160 1 0.417 10.971886 -6.951763 -4.011378 # HW1
521 160 8 -0.834 10.909499 -6.069885 -4.378299 # OW
522 160 1 0.417 10.248898 -6.142746 -5.067160 # HW2
523 161 1 0.417 -7.988140 -1.659264 12.165427 # HW1
524 161 8 -0.834 -8.359401 -1.637120 13.047417 # OW
525 161 1 0.417 -9.076924 -2.270155 13.021731 # HW2
526 162 1 0.417 -0.856772 -12.658629 -10.318835 # HW1
527 162 8 -0.834 -1.731598 -13.044931 -10.277818 # OW
528 162 1 0.417 -2.320258 -12.296287 -10.181673 # HW2
529 163 1 0.417 -12.128714 0.766579 -2.350907 # HW1
530 163 8 -0.834 -13.048266 0.920248 -2.134015 # OW
531 163 1 0.417 -13.021493 1.475816 -1.355004 # HW2
532 164 1 0.417 9.555078 1.162811 -1.044974 # HW1
533 164 8 -0.834 9.097303 1.393434 -0.236588 # OW
534 164 1 0.417 8.197403 1.099556 -0.378180 # HW2
535 165 1 0.417 -9.290155 6.313785 7.774617 # HW1
536 165 8 -0.834 -8.343575 6.199770 7.859583 # OW
537 165 1 0.417 -7.992844 7.090356 7.850878 # HW2
538 166 1 0.417 -3.128689 5.460568 12.019685 # HW1
539 166 8 -0.834 -4.011737 5.091837 12.041950 # OW
540 166 1 0.417 -4.585713 5.850021 12.151225 # HW2
541 167 1 0.417 -10.425906 -12.418762 -6.344968 # HW1
542 167 8 -0.834 -10.011987 -13.047841 -5.754067 # OW
543 167 1 0.417 -9.077315 -12.981716 -5.949641 # HW2
544 168 1 0.417 0.719898 -0.339066 -9.925497 # HW1
545 168 8 -0.834 0.092747 -0.978042 -10.264055 # OW
546 168 1 0.417 -0.303786 -0.547160 -11.021244 # HW2
547 169 1 0.417 9.328699 -8.988566 10.394339 # HW1
548 169 8 -0.834 10.237775 -9.049808 10.100977 # OW