LAMMPS Description
 
        2004  atoms
        1365  bonds
         786  angles
         207  dihedrals
          12  impropers
 
          14  atom types
          18  bond types
          31  angle types
          21  dihedral types
           2  improper types
 
 36.840194 64.211560 xlo xhi
 41.013691 68.385058 ylo yhi
 29.768095 57.139462 zlo zhi
 
Masses
 
  1 12.0110
  2 12.0110
  3 15.9990
  4  1.0080
  5 14.0070
  6 12.0110
  7 12.0110
  8 12.0110
  9 15.9990
 10  1.0080
 11  1.0080
 12 32.0660
 13 16.0000
 14  1.0100
 
Pair Coeffs
 
  1    0.110000    3.563595    0.110000    3.563595
  2    0.080000    3.670503    0.010000    3.385415
  3    0.120000    3.029056    0.120000    2.494516
  4    0.022000    2.351973    0.022000    2.351973
  5    0.200000    3.296325    0.200000    2.761786
  6    0.020000    4.053589    0.010000    3.385415
  7    0.055000    3.875410    0.010000    3.385415
  8    0.070000    3.550053    0.070000    3.550053
  9    0.152100    3.153782    0.152100    3.153782
 10    0.046000    0.400014    0.046000    0.400014
 11    0.030000    2.420037    0.030000    2.420037
 12    0.450000    3.563595    0.450000    3.563595
 13    0.152100    3.150570    0.152100    3.150570
 14    0.046000    0.400014    0.046000    0.400014
 
Bond Coeffs
 
  1  249.999999    1.490000
  2  620.000001    1.230000
  3  370.000000    1.345000
  4  322.000001    1.111000
  5  319.999999    1.430000
  6  440.000000    0.997000
  7  222.500001    1.538000
  8  330.000001    1.080000
  9  230.000000    1.490000
 10  309.000001    1.111000
 11  305.000000    1.375000
 12  340.000001    1.080000
 13  334.300000    1.411000
 14  545.000001    0.960000
 15  222.500001    1.530000
 16  198.000000    1.818000
 17  239.999999    1.816000
 18  450.000000    0.957200
 
Angle Coeffs
 
  1   33.000000  109.500000   30.000000    2.163000
  2   50.000000  120.000000    0.000000    0.000000
  3   34.000000  123.000000    0.000000    0.000000
  4   80.000000  121.000000    0.000000    0.000000
  5   80.000000  116.500000    0.000000    0.000000
  6   80.000000  122.500000    0.000000    0.000000
  7   35.500000  108.400000    5.400000    1.802000
  8   50.000000  107.000000    0.000000    0.000000
  9   70.000000  113.500000    0.000000    0.000000
 10   48.000000  108.000000    0.000000    0.000000
 11   35.000000  117.000000    0.000000    0.000000
 12   51.800000  107.500000    0.000000    0.000000
 13   33.430000  110.100000   22.530000    2.179000
 14   52.000000  108.000000    0.000000    0.000000
 15   50.000000  109.500000    0.000000    0.000000
 16   35.000000  111.000000    0.000000    0.000000
 17   45.800000  122.300000    0.000000    0.000000
 18   49.300000  107.500000    0.000000    0.000000
 19   40.000000  120.000000   35.000000    2.416200
 20   30.000000  120.000000   22.000000    2.152500
 21   45.200000  120.000000    0.000000    0.000000
 22   65.000000  108.000000    0.000000    0.000000
 23   35.500000  109.000000    5.400000    1.802000
 24   36.000000  115.000000    0.000000    0.000000
 25   58.350000  113.500000   11.160000    2.561000
 26   58.000000  114.500000    0.000000    0.000000
 27   26.500000  110.100000   22.530000    2.179000
 28   34.000000   95.000000    0.000000    0.000000
 29   46.100000  111.300000    0.000000    0.000000
 30   51.500000  109.500000    0.000000    0.000000
 31   55.000000  104.520000    0.000000    0.000000
 
Dihedral Coeffs
 
  1    0.200000   1 180    1.000000
  2    1.800000   1   0    1.000000
  3    0.000000   1   0    1.000000
  4    1.600000   1   0    0.500000
  5    2.500000   2 180    0.500000
  6    2.500000   2 180    1.000000
  7    0.600000   1   0    1.000000
  8    0.200000   3   0    1.000000
  9    0.230000   2 180    1.000000
 10    0.040000   3   0    1.000000
 11    1.400000   1   0    1.000000
 12    3.100000   2 180    1.000000
 13    4.200000   2 180    1.000000
 14    3.100000   2 180    0.500000
 15    0.990000   2 180    1.000000
 16    2.400000   2 180    1.000000
 17    0.195000   3   0    1.000000
 18    0.240000   1 180    0.500000
 19    0.370000   3   0    0.500000
 20    0.280000   3   0    1.000000
 21    0.010000   3   0    1.000000
 
Improper Coeffs
 
  1  120.000000    0.000000
  2   20.000000    0.000000
 
Atoms
 
      1      1   1   0.510  43.99993  58.52678  36.78550   0   0   0
      2      1   2  -0.270  45.10395  58.23499  35.86693   0   0   0
      3      1   3  -0.510  43.81519  59.54928  37.43995   0   0   0
      4      1   4   0.090  45.71714  57.34797  36.13434   0   0   0
      5      1   4   0.090  45.72261  59.13657  35.67007   0   0   0
      6      1   4   0.090  44.66624  58.09539  34.85538   0   0   0
      7      1   5  -0.470  43.28193  57.47427  36.91953   0   0   0
      8      1   6   0.070  42.07157  57.45486  37.62418   0   0   0
      9      1   1   0.510  42.19985  57.57789  39.12163   0   0   0
     10      1   3  -0.510  41.88641  58.62251  39.70398   0   0   0
     11      1   7  -0.180  41.25052  56.15304  37.41811   0   0   0
     12      1   8   0.000  40.88511  55.94638  35.97460   0   0   0
     13      1   8  -0.115  41.48305  54.96372  35.11223   0   0   0
     14      1   8  -0.115  39.74003  56.60996  35.46443   0   0   0
     15      1   8  -0.115  41.02111  54.75715  33.80764   0   0   0
     16      1   8  -0.115  39.26180  56.39194  34.12024   0   0   0
     17      1   8   0.110  39.92330  55.46092  33.27135   0   0   0
     18      1   9  -0.540  39.48164  55.22919  31.91865   0   0   0
     19      1  10   0.310  43.60633  56.61693  36.52744   0   0   0
     20      1   4   0.090  41.49619  58.31145  37.30543   0   0   0
     21      1   4   0.090  41.88498  55.29476  37.72657   0   0   0
     22      1   4   0.090  40.30899  56.19690  38.00627   0   0   0
     23      1  11   0.115  42.31528  54.36176  35.44606   0   0   0
     24      1  11   0.115  39.26330  57.31216  36.13230   0   0   0
     25      1  11   0.115  41.62695  54.10606  33.19490   0   0   0
     26      1  11   0.115  38.42147  56.98236  33.78612   0   0   0
     27      1  10   0.430  38.78233  55.86217  31.74004   0   0   0
     28      1   5  -0.470  42.79933  56.56370  39.79000   0   0   0
     29      1   7  -0.020  42.96709  56.75379  41.28116   0   0   0
     30      1   1   0.510  43.83019  55.68988  41.92255   0   0   0
     31      1   3  -0.510  44.98521  55.93104  42.21713   0   0   0
     32      1  10   0.310  43.13466  55.75696  39.30966   0   0   0
     33      1   4   0.090  42.04692  56.86721  41.83507   0   0   0
     34      1   4   0.090  43.52938  57.66324  41.43329   0   0   0
     35      1   5  -0.470  43.26792  54.43342  42.07043   0   0   0
     36      1   7  -0.020  43.92411  53.28930  42.63327   0   0   0
     37      1   1   0.510  43.51012  53.02289  44.10510   0   0   0
     38      1   3  -0.510  42.35086  53.07863  44.50806   0   0   0
     39      1  10   0.310  42.28859  54.34993  41.90323   0   0   0
     40      1   4   0.090  44.98464  53.47473  42.54797   0   0   0
     41      1   4   0.090  43.49715  52.54787  41.97419   0   0   0
     42      1   5  -0.470  44.51925  52.64535  44.88133   0   0   0
     43      1   6   0.070  44.47588  52.35054  46.24397   0   0   0
     44      1   1   0.510  45.40218  53.34579  46.94730   0   0   0
     45      1   3  -0.510  45.23520  54.55893  46.92038   0   0   0
     46      1   7  -0.180  44.77960  50.82831  46.50232   0   0   0
     47      1   8   0.000  43.72184  49.84551  45.98093   0   0   0
     48      1   8  -0.115  44.14810  49.00477  44.97195   0   0   0
     49      1   8  -0.115  42.43499  49.66652  46.53541   0   0   0
     50      1   8  -0.115  43.26154  48.00434  44.46769   0   0   0
     51      1   8  -0.115  41.54732  48.79670  45.95416   0   0   0
     52      1   8  -0.115  41.98220  47.90746  44.95574   0   0   0
     53      1  10   0.310  45.39510  52.50937  44.42482   0   0   0
     54      1   4   0.090  43.51312  52.58974  46.67092   0   0   0
     55      1   4   0.090  44.89709  50.54313  47.56965   0   0   0
     56      1   4   0.090  45.72096  50.49337  46.01654   0   0   0
     57      1  11   0.115  45.13573  49.07933  44.54134   0   0   0
     58      1  11   0.115  42.07869  50.34816  47.29358   0   0   0
     59      1  11   0.115  43.47793  47.29281  43.68456   0   0   0
     60      1  11   0.115  40.52625  48.76134  46.30425   0   0   0
     61      1  11   0.115  41.35446  47.13287  44.54059   0   0   0
     62      1   5  -0.470  46.41448  52.86278  47.68291   0   0   0
     63      1   6   0.070  47.25136  53.68184  48.51163   0   0   0
     64      1   1   0.510  48.33905  54.40097  47.73886   0   0   0
     65      1   3  -0.510  49.27132  53.85220  47.16549   0   0   0
     66      1   7  -0.180  47.88329  52.75681  49.60227   0   0   0
     67      1   7  -0.140  48.82515  53.51102  50.61578   0   0   0
     68      1  12  -0.090  48.12492  55.00373  51.43039   0   0   0
     69      1   2  -0.220  47.70783  54.12980  53.04072   0   0   0
     70      1  10   0.310  46.67199  51.90088  47.73231   0   0   0
     71      1   4   0.090  46.64593  54.43552  48.99310   0   0   0
     72      1   4   0.090  48.41361  51.90817  49.11968   0   0   0
     73      1   4   0.090  47.08748  52.35196  50.26341   0   0   0
     74      1   4   0.090  49.16067  52.81305  51.41238   0   0   0
     75      1   4   0.090  49.73705  53.67062  50.00155   0   0   0
     76      1   4   0.090  47.18593  54.84215  53.71488   0   0   0
     77      1   4   0.090  48.69939  53.91624  53.49408   0   0   0
     78      1   4   0.090  47.19749  53.18294  52.76264   0   0   0
     79      1   5  -0.470  48.34472  55.71775  47.80498   0   0   0
     80      1   2  -0.110  49.37792  56.51754  47.29492   0   0   0
     81      1  10   0.310  47.51777  56.11617  48.19410   0   0   0
     82      1   4   0.090  50.41495  56.13038  47.38980   0   0   0
     83      1   4   0.090  49.23515  57.51193  47.76940   0   0   0
     84      1   4   0.090  49.28612  56.52094  46.18773   0   0   0
     85      2  13  -0.834  52.28049  45.72878  41.48140  -1   0   1
     86      2  14   0.417  51.97210  46.07066  40.64218  -1   0   1
     87      2  14   0.417  52.43689  44.79855  41.31868  -1   0   1
     88      3  13  -0.834  43.84472  45.66062  47.17660  -2  -1  -1
     89      3  14   0.417  43.42120  44.88337  46.81226  -2  -1  -1
     90      3  14   0.417  44.31099  46.04907  46.43636  -2  -1  -1
     91      4  13  -0.834  51.27805  50.25403  54.67397   0   0  -1
     92      4  14   0.417  50.81295  50.23728  53.83753   0   0  -1
     93      4  14   0.417  52.00273  49.63953  54.55795   0   0  -1
     94      5  13  -0.834  44.71976  53.72011  56.43834  -1   0  -1
     95      5  14   0.417  44.56050  53.84218  55.50241  -1   0  -1
     96      5  14   0.417  44.91937  52.78829  56.52828  -1   0  -1
     97      6  13  -0.834  37.07074  62.07204  53.35752  -1  -1  -1
     98      6  14   0.417  64.17057  61.77089  52.49043  -2  -1  -1
     99      6  14   0.417  37.90147  62.52273  53.20573  -1  -1  -1
    100      7  13  -0.834  38.31817  66.10834  49.17406   0  -1   0
    101      7  14   0.417  37.39300  65.93985  48.99534   0  -1   0
    102      7  14   0.417  38.36506  66.20528  50.12520   0  -1   0
    103      8  13  -0.834  60.90915  45.97690  35.53863  -1  -1   1
    104      8  14   0.417  61.19898  46.87819  35.39745  -1  -1   1
    105      8  14   0.417  59.98680  45.97855  35.28269  -1  -1   1
    106      9  13  -0.834  54.33913  64.47210  51.00391  -1  -2   0
    107      9  14   0.417  54.43191  63.71377  50.42724  -1  -2   0
    108      9  14   0.417  55.16289  64.94980  50.90662  -1  -2   0
    109     10  13  -0.834  44.58017  54.03749  53.84708   1   0  -1
    110     10  14   0.417  43.87040  54.43768  53.34476   1   0  -1
    111     10  14   0.417  45.02999  53.47261  53.21873   1   0  -1
    112     11  13  -0.834  45.48693  52.12363  34.38241   0  -1   1
    113     11  14   0.417  45.46898  52.67450  33.59981   0  -1   1
    114     11  14   0.417  44.61476  52.22113  34.76457   0  -1   1
    115     12  13  -0.834  60.15770  61.68799  54.74753   1   0  -2
    116     12  14   0.417  59.23977  61.46439  54.59378   1   0  -2
    117     12  14   0.417  60.43785  61.08922  55.43980   1   0  -2
    118     13  13  -0.834  60.74732  66.72156  42.80906   1  -2   0
    119     13  14   0.417  60.34713  66.21969  42.09898   1  -2   0
    120     13  14   0.417  60.92444  66.07344  43.49082   1  -2   0
    121     14  13  -0.834  60.82245  64.17281  50.54212   0   0   0
    122     14  14   0.417  61.43571  64.88448  50.35863   0   0   0
    123     14  14   0.417  60.87804  64.04633  51.48930   0   0   0
    124     15  13  -0.834  36.92704  63.01353  56.05215   0  -1   0
    125     15  14   0.417  37.10744  62.17054  56.46815   0  -1   0
    126     15  14   0.417  64.06237  62.79109  55.15157  -1  -1   0
    127     16  13  -0.834  48.35559  58.70568  56.14001   1   0   0
    128     16  14   0.417  48.11655  59.48087  55.63191   1   0   0
    129     16  14   0.417  47.93212  58.83502  56.98865   1   0   0
    130     17  13  -0.834  58.14651  57.18542  51.08241   0  -1  -1
    131     17  14   0.417  57.88523  56.72609  51.88052   0  -1  -1
    132     17  14   0.417  57.35121  57.63116  50.79076   0  -1  -1
    133     18  13  -0.834  58.09837  59.68005  36.16995  -1   0   0
    134     18  14   0.417  58.25901  58.76822  36.41283  -1   0   0
    135     18  14   0.417  58.56239  60.19049  36.83355  -1   0   0
    136     19  13  -0.834  52.29019  60.51169  50.55611   0  -2   1
    137     19  14   0.417  52.61972  60.01708  51.30645   0  -2   1
    138     19  14   0.417  52.55621  59.99722  49.79401   0  -2   1
    139     20  13  -0.834  41.36642  50.33705  42.98530   0  -1  -1
    140     20  14   0.417  41.27846  50.09969  43.90844   0  -1  -1
    141     20  14   0.417  40.99321  51.21659  42.92708   0  -1  -1
    142     21  13  -0.834  53.76920  67.02645  32.18667  -1   0   1
    143     21  14   0.417  53.59447  67.18509  31.25901  -1   0   1
    144     21  14   0.417  54.65308  67.36647  32.32596  -1   0   1
    145     22  13  -0.834  57.83691  45.33663  46.94671   0   0  -2
    146     22  14   0.417  57.36287  45.59552  46.15647   0   0  -2
    147     22  14   0.417  58.62995  44.91017  46.62197   0   0  -2
    148     23  13  -0.834  60.34518  45.83000  45.57964  -1   0   0
    149     23  14   0.417  60.61871  44.93757  45.79176  -1   0   0
    150     23  14   0.417  61.09971  46.21212  45.13141  -1   0   0
    151     24  13  -0.834  55.97902  46.85046  56.80163   0   1   1
    152     24  14   0.417  56.57528  46.69952  30.16370   0   1   2
    153     24  14   0.417  55.81156  47.79276  56.81850   0   1   1
    154     25  13  -0.834  57.54668  45.52135  31.46139  -1   0   1
    155     25  14   0.417  58.36291  46.00311  31.32743  -1   0   1
    156     25  14   0.417  57.54151  45.31312  32.39566  -1   0   1
    157     26  13  -0.834  58.03029  52.86783  46.33564  -1  -1   0
    158     26  14   0.417  58.13662  52.56730  47.23820  -1  -1   0
    159     26  14   0.417  58.81317  52.55269  45.88396  -1  -1   0
    160     27  13  -0.834  62.89253  60.86549  46.75131  -2  -1   0
    161     27  14   0.417  63.83924  60.74010  46.81653  -2  -1   0
    162     27  14   0.417  62.51896  60.12788  47.23361  -2  -1   0
    163     28  13  -0.834  43.29171  48.58106  31.82206  -1   0   2
    164     28  14   0.417  43.07532  49.46362  32.12290  -1   0   2
    165     28  14   0.417  43.82286  48.21072  32.52701  -1   0   2
    166     29  13  -0.834  64.19867  44.17673  45.81391  -1   1  -1
    167     29  14   0.417  63.72986  44.44010  45.02202  -1   1  -1
    168     29  14   0.417  37.02069  43.24876  45.68087   0   1  -1
    169     30  13  -0.834  50.42749  42.01163  53.60484   0   2   0
    170     30  14   0.417  51.03177  41.90084  52.87081   0   2   0
    171     30  14   0.417  50.77279  42.76181  54.08882   0   2   0
    172     31  13  -0.834  38.63739  61.71113  49.95150   1   0   0
    173     31  14   0.417  38.55432  62.15607  49.10808   1   0   0
    174     31  14   0.417  37.81718  61.22751  50.04950   1   0   0
    175     32  13  -0.834  61.47262  53.02922  33.08309  -1  -1   0
    176     32  14   0.417  61.21894  52.67931  33.93717  -1  -1   0
    177     32  14   0.417  61.89351  53.86564  33.28182  -1  -1   0
    178     33  13  -0.834  54.44545  60.06011  48.63522  -1   0   1
    179     33  14   0.417  54.80032  60.94424  48.72810  -1   0   1
    180     33  14   0.417  54.09041  60.03614  47.74662  -1   0   1
    181     34  13  -0.834  56.34364  60.90201  52.60838  -1  -1   0
    182     34  14   0.417  56.48857  60.19161  53.23333  -1  -1   0
    183     34  14   0.417  56.17362  61.67024  53.15351  -1  -1   0
    184     35  13  -0.834  56.05881  51.84328  55.76103  -1   0   0
    185     35  14   0.417  55.59060  51.75146  54.93121  -1   0   0
    186     35  14   0.417  55.46974  52.35732  56.31335  -1   0   0
    187     36  13  -0.834  39.00621  42.74743  30.97845   0   0   1
    188     36  14   0.417  39.67620  42.11390  30.72152   0   0   1
    189     36  14   0.417  39.43456  43.29673  31.63499   0   0   1
    190     37  13  -0.834  46.77585  55.39774  30.24026   0   1   0
    191     37  14   0.417  46.10274  54.90237  29.77360   0   1   0
    192     37  14   0.417  46.39626  56.26890  30.35527   0   1   0
    193     38  13  -0.834  45.10722  57.60431  31.54688  -1   0   0
    194     38  14   0.417  44.80783  58.50032  31.70105  -1   0   0
    195     38  14   0.417  44.44237  57.22463  30.97238  -1   0   0
    196     39  13  -0.834  43.94230  46.99244  34.45668  -2   1   1
    197     39  14   0.417  44.62010  46.49140  34.00306  -2   1   1
    198     39  14   0.417  44.38150  47.79794  34.72964  -2   1   1
    199     40  13  -0.834  51.39443  50.96507  34.69072  -1   1   0
    200     40  14   0.417  51.18729  50.42829  35.45570  -1   1   0
    201     40  14   0.417  51.33198  51.86665  35.00616  -1   1   0
    202     41  13  -0.834  58.96398  48.19727  42.98856  -2   1   0
    203     41  14   0.417  58.42587  48.90112  42.62618  -2   1   0
    204     41  14   0.417  58.82383  48.25054  43.93397  -2   1   0
    205     42  13  -0.834  62.89335  41.94260  37.40820   0   0   0
    206     42  14   0.417  62.48690  41.07818  37.46980   0   0   0
    207     42  14   0.417  63.01802  42.08284  36.46957   0   0   0
    208     43  13  -0.834  54.19388  47.88689  36.24110  -1   0   1
    209     43  14   0.417  54.32054  48.63090  35.65235  -1   0   1
    210     43  14   0.417  53.24370  47.78935  36.30358  -1   0   1
    211     44  13  -0.834  39.19734  57.40342  41.28495   0   0  -2
    212     44  14   0.417  39.05428  57.72940  40.39641   0   0  -2
    213     44  14   0.417  39.30846  56.45861  41.17895   0   0  -2
    214     45  13  -0.834  52.85483  61.73749  54.63897   0   0   0
    215     45  14   0.417  53.34938  62.52765  54.42147   0   0   0
    216     45  14   0.417  53.01046  61.14656  53.90221   0   0   0
    217     46  13  -0.834  47.09467  62.01384  35.02302   1   0   1
    218     46  14   0.417  47.54527  61.47644  35.67448   1   0   1
    219     46  14   0.417  47.10116  62.89626  35.39385   1   0   1
    220     47  13  -0.834  46.80497  49.60334  37.05700   0   0   1
    221     47  14   0.417  46.70216  49.79770  36.12540   0   0   1
    222     47  14   0.417  45.91311  49.45393  37.37084   0   0   1
    223     48  13  -0.834  63.21969  59.12311  54.43455  -1  -1  -1
    224     48  14   0.417  63.94585  59.72833  54.28405  -1  -1  -1
    225     48  14   0.417  63.63016  58.34481  54.81141  -1  -1  -1
    226     49  13  -0.834  59.88416  59.64215  44.04914  -2   1   0
    227     49  14   0.417  59.74255  59.14412  44.85422  -2   1   0
    228     49  14   0.417  59.02635  60.01323  43.84248  -2   1   0
    229     50  13  -0.834  40.50825  42.85328  50.81112  -1   1   0
    230     50  14   0.417  40.34650  43.39801  51.58141  -1   1   0
    231     50  14   0.417  39.63964  42.69867  50.43985  -1   1   0
    232     51  13  -0.834  63.77522  64.97067  44.83010  -2   0   0
    233     51  14   0.417  37.00507  65.56132  45.28388  -1   0   0
    234     51  14   0.417  64.14243  64.88383  43.95041  -2   0   0
    235     52  13  -0.834  62.47161  67.86189  47.38235  -1   0  -1
    236     52  14   0.417  61.58819  67.64608  47.08360  -1   0  -1
    237     52  14   0.417  62.79136  67.05596  47.78790  -1   0  -1
    238     53  13  -0.834  43.90800  54.16107  50.35199   0   0   0
    239     53  14   0.417  43.96769  53.24711  50.07388   0   0   0
    240     53  14   0.417  43.72593  54.64554  49.54677   0   0   0
    241     54  13  -0.834  63.46829  44.63390  34.73615  -1   1   1
    242     54  14   0.417  62.63731  45.04623  34.97217  -1   1   1
    243     54  14   0.417  64.11050  45.03645  35.32075  -1   1   1
    244     55  13  -0.834  37.30679  58.22047  51.04345   0   0   0
    245     55  14   0.417  38.18596  58.37862  50.69950   0   0   0
    246     55  14   0.417  36.85723  59.06017  50.94824   0   0   0
    247     56  13  -0.834  58.72649  42.45768  31.23820  -1   1  -1
    248     56  14   0.417  59.43634  42.77561  30.68028  -1   1  -1
    249     56  14   0.417  58.76581  41.50474  31.15690  -1   1  -1
    250     57  13  -0.834  52.47101  42.85691  41.60986   0   1  -1
    251     57  14   0.417  51.62289  42.91562  41.16997   0   1  -1
    252     57  14   0.417  52.53109  41.94497  41.89448   0   1  -1
    253     58  13  -0.834  60.63476  59.78356  56.53663  -2  -1  -1
    254     58  14   0.417  60.87428  58.86269  56.43247  -2  -1  -1
    255     58  14   0.417  59.72615  59.76269  56.83705  -2  -1  -1
    256     59  13  -0.834  52.78127  57.47386  30.66786  -1  -1   0
    257     59  14   0.417  52.55495  58.26092  30.17228  -1  -1   0
    258     59  14   0.417  53.05203  56.84104  30.00267  -1  -1   0
    259     60  13  -0.834  46.04848  57.65321  54.89998   0   3  -1
    260     60  14   0.417  46.96883  57.71336  55.15607   0   3  -1
    261     60  14   0.417  46.02768  57.98076  54.00081   0   3  -1
    262     61  13  -0.834  60.39356  51.43705  35.66109  -1   1  -1
    263     61  14   0.417  60.57739  52.08235  36.34376  -1   1  -1
    264     61  14   0.417  59.59475  50.99860  35.95414  -1   1  -1
    265     62  13  -0.834  50.32338  62.46972  35.65752  -1   0   2
    266     62  14   0.417  51.24156  62.23287  35.52678  -1   0   2
    267     62  14   0.417  49.89601  61.64851  35.90085  -1   0   2
    268     63  13  -0.834  38.23983  45.11908  50.02773   0   1   0
    269     63  14   0.417  38.61336  45.27494  50.89515   0   1   0
    270     63  14   0.417  38.91224  45.42406  49.41856   0   1   0
    271     64  13  -0.834  58.93720  57.36605  46.08362  -3   0   0
    272     64  14   0.417  58.65753  56.63297  46.63190  -3   0   0
    273     64  14   0.417  58.29914  58.05674  46.26268  -3   0   0
    274     65  13  -0.834  47.99806  43.44789  47.43046  -1   0   0
    275     65  14   0.417  48.39580  43.78289  46.62684  -1   0   0
    276     65  14   0.417  47.85848  44.22523  47.97128  -1   0   0
    277     66  13  -0.834  51.26744  52.05593  47.09995  -1   0   0
    278     66  14   0.417  51.36736  52.09873  46.14894  -1   0   0
    279     66  14   0.417  50.33779  52.22629  47.25149  -1   0   0
    280     67  13  -0.834  39.06132  52.11517  46.39010   0   0  -1
    281     67  14   0.417  38.53402  51.36282  46.65876   0   0  -1
    282     67  14   0.417  39.47133  52.42190  47.19884   0   0  -1
    283     68  13  -0.834  60.17907  58.95174  50.22759  -1   1   0
    284     68  14   0.417  60.34080  59.56538  50.94420  -1   1   0
    285     68  14   0.417  59.41497  58.44908  50.50992  -1   1   0
    286     69  13  -0.834  40.47698  59.65154  34.92537   0  -1   1
    287     69  14   0.417  40.89044  60.49055  35.12877   0  -1   1
    288     69  14   0.417  41.17964  59.12336  34.54648   0  -1   1
    289     70  13  -0.834  60.12998  66.51474  47.03971  -1   0  -1
    290     70  14   0.417  59.26620  66.39701  47.43506  -1   0  -1
    291     70  14   0.417  60.21358  65.78625  46.42443  -1   0  -1
    292     71  13  -0.834  49.25986  47.27506  43.03372  -1   0   1
    293     71  14   0.417  49.11810  48.15331  42.68041  -1   0   1
    294     71  14   0.417  49.86162  47.40550  43.76662  -1   0   1
    295     72  13  -0.834  41.48105  63.65699  31.84433   0   0   1
    296     72  14   0.417  41.11022  64.48589  32.14713   0   0   1
    297     72  14   0.417  40.89461  63.37379  31.14281   0   0   1
    298     73  13  -0.834  47.82875  47.97039  54.56720   0   2   0
    299     73  14   0.417  46.99167  47.50633  54.55352   0   2   0
    300     73  14   0.417  47.60488  48.87558  54.35102   0   2   0
    301     74  13  -0.834  62.36735  58.64445  48.35778  -2   1   0
    302     74  14   0.417  62.88767  57.90867  48.68045  -2   1   0
    303     74  14   0.417  61.65918  58.73544  48.99531  -2   1   0
    304     75  13  -0.834  52.09508  65.08907  32.87560   0   0   0
    305     75  14   0.417  52.67402  65.75058  32.49683   0   0   0
    306     75  14   0.417  52.41855  64.97003  33.76859   0   0   0
    307     76  13  -0.834  39.06932  41.62988  40.69498   1   1   0
    308     76  14   0.417  39.51114  41.04433  40.08003   1   1   0
    309     76  14   0.417  38.93584  42.43936  40.20186   1   1   0
    310     77  13  -0.834  37.68325  49.50718  46.00750   0   2   0
    311     77  14   0.417  64.11601  49.67107  45.91568  -1   2   0
    312     77  14   0.417  37.90845  48.96991  45.24796   0   2   0
    313     78  13  -0.834  53.00757  59.49351  52.98404  -2   1  -1
    314     78  14   0.417  52.16721  59.28329  53.39127  -2   1  -1
    315     78  14   0.417  53.61000  58.83023  53.32076  -2   1  -1
    316     79  13  -0.834  51.89369  64.75001  56.68467   1   0   0
    317     79  14   0.417  51.88079  65.63682  56.32462   1   0   0
    318     79  14   0.417  52.40589  64.82531  30.11841   1   0   1
    319     80  13  -0.834  48.43261  63.10155  32.63566   0   0   1
    320     80  14   0.417  47.68021  63.01753  32.04993   0   0   1
    321     80  14   0.417  48.13916  62.71424  33.46035   0   0   1
    322     81  13  -0.834  62.41171  68.18251  30.67168   0  -1   2
    323     81  14   0.417  61.79235  41.16145  30.03143   0   0   2
    324     81  14   0.417  63.18314  67.94790  30.15584   0  -1   2
    325     82  13  -0.834  42.57575  41.32197  37.66791   0   0   1
    326     82  14   0.417  42.98116  41.36016  36.80164   0   0   1
    327     82  14   0.417  42.32522  42.22654  37.85569   0   0   1
    328     83  13  -0.834  50.17315  67.44398  36.91606   0  -2   0
    329     83  14   0.417  50.08765  67.03449  37.77701   0  -2   0
    330     83  14   0.417  50.35347  66.71621  36.32101   0  -2   0
    331     84  13  -0.834  39.70163  60.45247  40.03790   0  -2  -1
    332     84  14   0.417  38.85282  60.01540  40.10676   0  -2  -1
    333     84  14   0.417  40.20579  60.11563  40.77858   0  -2  -1
    334     85  13  -0.834  51.74323  42.80814  51.33239   0   0  -1
    335     85  14   0.417  52.44810  43.22892  51.82466   0   0  -1
    336     85  14   0.417  51.80961  43.17998  50.45286   0   0  -1
    337     86  13  -0.834  51.34695  47.68316  36.38089   0   0   1
    338     86  14   0.417  50.77701  46.92707  36.52138   0   0   1
    339     86  14   0.417  51.27109  47.87031  35.44523   0   0   1
    340     87  13  -0.834  62.66950  50.66085  43.15883  -2   0   0
    341     87  14   0.417  63.57796  50.36318  43.11051  -2   0   0
    342     87  14   0.417  62.24654  50.26548  42.39659  -2   0   0
    343     88  13  -0.834  46.37996  60.13914  31.06428  -2  -1   1
    344     88  14   0.417  46.89125  59.89673  31.83632  -2  -1   1
    345     88  14   0.417  45.51811  60.37092  31.41028  -2  -1   1
    346     89  13  -0.834  50.23251  41.17559  46.18435   0   1   2
    347     89  14   0.417  49.40509  68.16142  45.89628   0   0   2
    348     89  14   0.417  50.55747  67.94506  46.85395   0   0   2
    349     90  13  -0.834  56.10446  66.70018  42.60390   0  -2   1
    350     90  14   0.417  56.27454  67.42915  42.00732   0  -2   1
    351     90  14   0.417  56.27819  67.05729  43.47483   0  -2   1
    352     91  13  -0.834  55.53824  48.43866  51.97225  -1   0   1
    353     91  14   0.417  56.26440  48.96682  52.30388  -1   0   1
    354     91  14   0.417  55.26306  48.88494  51.17140  -1   0   1
    355     92  13  -0.834  37.88016  52.62502  33.55552   0  -1   0
    356     92  14   0.417  37.58757  51.72397  33.41859   0  -1   0
    357     92  14   0.417  38.51960  52.77804  32.85986   0  -1   0
    358     93  13  -0.834  50.40592  66.14455  39.40035  -1  -2  -1
    359     93  14   0.417  49.74974  66.37168  40.05920  -1  -2  -1
    360     93  14   0.417  50.22642  65.22843  39.18876  -1  -2  -1
    361     94  13  -0.834  59.56315  43.63477  50.02876  -1   0   0
    362     94  14   0.417  60.08533  44.36640  50.35782  -1   0   0
    363     94  14   0.417  60.10101  42.86112  50.19730  -1   0   0
    364     95  13  -0.834  57.16125  61.75981  55.17964   0   0  -1
    365     95  14   0.417  56.45534  61.68609  55.82189   0   0  -1
    366     95  14   0.417  57.38335  62.69087  55.17297   0   0  -1
    367     96  13  -0.834  54.81274  43.48714  43.13392  -1   2   1
    368     96  14   0.417  53.88771  43.40698  42.90124  -1   2   1
    369     96  14   0.417  54.97915  42.74512  43.71525  -1   2   1
    370     97  13  -0.834  41.23040  49.49766  49.75568   0  -2   0
    371     97  14   0.417  40.54278  49.43865  49.09241   0  -2   0
    372     97  14   0.417  41.81904  48.76959  49.55653   0  -2   0