data.lmp create_conf simbox.xyz (Built with Packmol)

3000 atoms
2750 bonds
3250 angles
3000 dihedrals

8 atom types
8 bond types
7 angle types
4 dihedral types

-14.013845 14.016930 xlo xhi
-14.027809 14.017730 ylo yhi
-14.018882 14.085730 zlo zhi

Masses

   1   11.6110 # C3H
   2   11.6110 # CTO
   3    1.0080 # H
   4   15.5990 # OH
   5    1.0080 # HO
   6    0.4000 # D_C3H
   7    0.4000 # D_CTO
   8    0.4000 # D_OH

Bond Coeffs

   1  267.9907    1.5290 # C3H-CTO
   2  339.9894    1.0900 # C3H-H
   3  339.9894    1.0900 # CTO-H
   4  319.9971    1.4100 # CTO-OH
   5  552.9862    0.9450 # OH-HO
   6  500.0000    0.0000 # D_C3H
   7  500.0000    0.0000 # D_CTO
   8  500.0000    0.0000 # D_OH

Angle Coeffs

   1   37.4991  110.7000 # C3H-CTO-H
   2   49.9988  109.5000 # C3H-CTO-OH
   3   37.4991  110.7000 # CTO-C3H-H
   4   54.9939  108.5000 # CTO-OH-HO
   5   32.9939  107.8000 # H-CTO-H
   6   35.0015  109.5000 # H-CTO-OH
   7   32.9939  107.8000 # H-C3H-H

Dihedral Coeffs

   1   -0.3560   -0.1740    0.4920    0.0000 # C3H-CTO-OH-HO
   2    0.0000    0.0000    0.3000    0.0000 # H-CTO-C3H-H
   3    0.0000    0.0000    0.4500    0.0000 # H-CTO-OH-HO
   4    0.0000    0.0000    0.4680    0.0000 # H-C3H-CTO-OH

Atoms

      1       1       1   -2.6652 -1.146231e+01 -1.613876e+00  1.115011e+01 # C3H
      2       1       2   -1.7698 -1.006198e+01 -1.935158e+00  1.083904e+01 # CTO
      3       1       3    0.0600 -9.524523e+00 -1.019307e+00  1.059317e+01 # H
      4       1       3    0.0600 -1.199977e+01 -2.529727e+00  1.139598e+01 # H
      5       1       3    0.0600 -1.002519e+01 -2.616710e+00  9.989198e+00 # H
      6       1       3    0.0600 -1.149911e+01 -9.323240e-01  1.199995e+01 # H
      7       1       4   -2.3989 -9.459757e+00 -2.546847e+00  1.195764e+01 # OH
      8       1       3    0.0600 -1.192786e+01 -1.141010e+00  1.028538e+01 # H
      9       1       5    0.4180 -8.559547e+00 -2.753385e+00  1.175767e+01 # HO
     10       2       1   -2.6652 -1.116537e+01  6.078369e+00  4.948456e+00 # C3H
     11       2       2   -1.7698 -1.108129e+01  4.904148e+00  4.068096e+00 # CTO
     12       2       3    0.0600 -1.093591e+01  5.231007e+00  3.038472e+00 # H
     13       2       3    0.0600 -1.131076e+01  5.751510e+00  5.978080e+00 # H
     14       2       3    0.0600 -1.200456e+01  4.329161e+00  4.139291e+00 # H
     15       2       3    0.0600 -1.024211e+01  6.653356e+00  4.877261e+00 # H
     16       2       4   -2.3989 -9.994279e+00  4.097226e+00  4.462274e+00 # OH
     17       2       3    0.0600 -1.200569e+01  6.702160e+00  4.643737e+00 # H
     18       2       5    0.4180 -9.940229e+00  3.342369e+00  3.896328e+00 # HO
     19       3       1   -2.6652 -6.821385e+00 -1.140232e+01  4.603995e+00 # C3H
     20       3       2   -1.7698 -6.418888e+00 -1.009507e+01  5.142512e+00 # CTO
     21       3       3    0.0600 -5.690587e+00 -1.023895e+01  5.940621e+00 # H
     22       3       3    0.0600 -7.549685e+00 -1.125845e+01  3.805885e+00 # H
     23       3       3    0.0600 -7.293904e+00 -9.579599e+00  5.538405e+00 # H
     24       3       3    0.0600 -5.946369e+00 -1.191780e+01  4.208102e+00 # H
     25       3       4   -2.3989 -5.842482e+00 -9.320103e+00  4.115246e+00 # OH
     26       3       3    0.0600 -7.266974e+00 -1.200141e+01  5.398123e+00 # H
     27       3       5    0.4180 -5.583734e+00 -8.479729e+00  4.461435e+00 # HO
     28       4       1   -2.6652 -1.698317e+00  8.289407e+00 -8.052979e+00 # C3H
     29       4       2   -1.7698 -9.897210e-01  7.600721e+00 -9.141328e+00 # CTO
     30       4       3    0.0600 -4.979670e-01  6.710462e+00 -8.749261e+00 # H
     31       4       3    0.0600 -2.190071e+00  9.179666e+00 -8.445046e+00 # H
     32       4       3    0.0600 -2.426250e-01  8.269134e+00 -9.569312e+00 # H
     33       4       3    0.0600 -2.445413e+00  7.620994e+00 -7.624995e+00 # H
     34       4       4   -2.3989 -1.911634e+00  7.226181e+00 -1.014028e+01 # OH
     35       4       3    0.0600 -9.856320e-01  8.578944e+00 -7.280742e+00 # H
     36       4       5    0.4180 -1.456108e+00  6.783454e+00 -1.083993e+01 # HO
     37       5       1   -2.6652 -3.017968e+00 -7.023348e+00  4.317840e+00 # C3H
     38       5       2   -1.7698 -2.222830e+00 -7.909342e+00  5.180203e+00 # CTO
     39       5       3    0.0600 -2.495420e+00 -8.946685e+00  4.985998e+00 # H
     40       5       3    0.0600 -2.745379e+00 -5.986006e+00  4.512044e+00 # H
     41       5       3    0.0600 -2.419707e+00 -7.672103e+00  6.225696e+00 # H
     42       5       3    0.0600 -2.821091e+00 -7.260587e+00  3.272346e+00 # H
     43       5       4   -2.3989 -8.517710e-01 -7.725384e+00  4.907332e+00 # OH
     44       5       3    0.0600 -4.077864e+00 -7.165558e+00  4.528782e+00 # H
     45       5       5    0.4180 -3.406110e-01 -8.294952e+00  5.461708e+00 # HO
     46       6       1   -2.6652 -1.106359e+01  8.346060e-01  3.186292e+00 # C3H
     47       6       2   -1.7698 -1.059962e+01  8.649970e-01  4.580818e+00 # CTO
     48       6       3    0.0600 -1.044448e+01 -1.541300e-01  4.934953e+00 # H
     49       6       3    0.0600 -1.121873e+01  1.853733e+00  2.832157e+00 # H
     50       6       3    0.0600 -1.134854e+01  1.355191e+00  5.202852e+00 # H
     51       6       3    0.0600 -1.031467e+01  3.444120e-01  2.564258e+00 # H
     52       6       4   -2.3989 -9.385839e+00  1.578406e+00  4.657572e+00 # OH
     53       6       3    0.0600 -1.200191e+01  2.831050e-01  3.126958e+00 # H
     54       6       5    0.4180 -9.087568e+00  1.597943e+00  5.554052e+00 # HO
     55       7       1   -2.6652  7.474380e-01  8.872643e+00  1.094999e+01 # C3H
     56       7       2   -1.7698  1.001107e+00  7.425861e+00  1.089190e+01 # CTO
     57       7       3    0.0600  2.075702e+00  7.243947e+00  1.090780e+01 # H
     58       7       3    0.0600 -3.271570e-01  9.054557e+00  1.093409e+01 # H
     59       7       3    0.0600  5.777660e-01  7.018811e+00  9.973650e+00 # H
     60       7       3    0.0600  1.170778e+00  9.279694e+00  1.186824e+01 # H
     61       7       4   -2.3989  4.023200e-01  6.798032e+00  1.200338e+01 # OH
     62       7       3    0.0600  1.210331e+00  9.357986e+00  1.009076e+01 # H
     63       7       5    0.4180  5.653930e-01  5.867958e+00  1.196605e+01 # HO
     64       8       1   -2.6652 -1.470571e+00  5.126701e+00  9.866365e+00 # C3H
     65       8       2   -1.7698 -2.711787e+00  4.665182e+00  1.050455e+01 # CTO
     66       8       3    0.0600 -2.945074e+00  5.307704e+00  1.135357e+01 # H
     67       8       3    0.0600 -1.237284e+00  4.484179e+00  9.017341e+00 # H
     68       8       3    0.0600 -2.583556e+00  3.639439e+00  1.085025e+01 # H
     69       8       3    0.0600 -1.598802e+00  6.152444e+00  9.520666e+00 # H
     70       8       4   -2.3989 -3.768135e+00  4.717597e+00  9.572090e+00 # OH
     71       8       3    0.0600 -6.539620e-01  5.086183e+00  1.058720e+01 # H
     72       8       5    0.4180 -4.566060e+00  4.420905e+00  9.982353e+00 # HO
     73       9       1   -2.6652 -8.856720e+00 -1.104481e+01 -6.662827e+00 # C3H
     74       9       2   -1.7698 -7.943734e+00 -1.125967e+01 -7.794724e+00 # CTO
     75       9       3    0.0600 -7.708467e+00 -1.030209e+01 -8.259261e+00 # H
     76       9       3    0.0600 -9.091988e+00 -1.200238e+01 -6.198291e+00 # H
     77       9       3    0.0600 -8.419750e+00 -1.191120e+01 -8.527533e+00 # H
     78       9       3    0.0600 -8.380704e+00 -1.039327e+01 -5.930018e+00 # H
     79       9       4   -2.3989 -6.755342e+00 -1.186194e+01 -7.333103e+00 # OH
     80       9       3    0.0600 -9.775406e+00 -1.057922e+01 -7.019684e+00 # H
     81       9       5    0.4180 -6.168423e+00 -1.200006e+01 -8.060751e+00 # HO
     82      10       1   -2.6652 -4.544020e+00 -1.029383e+01 -1.138811e+01 # C3H
     83      10       2   -1.7698 -5.698702e+00 -1.102212e+01 -1.084295e+01 # CTO
     84      10       3    0.0600 -6.298099e+00 -1.034810e+01 -1.023097e+01 # H
     85      10       3    0.0600 -3.944623e+00 -1.096785e+01 -1.200009e+01 # H
     86      10       3    0.0600 -5.348653e+00 -1.185332e+01 -1.023084e+01 # H
     87      10       3    0.0600 -4.894069e+00 -9.462631e+00 -1.200022e+01 # H
     88      10       4   -2.3989 -6.485273e+00 -1.151836e+01 -1.190274e+01 # OH
     89      10       3    0.0600 -3.935962e+00 -9.910217e+00 -1.056884e+01 # H
     90      10       5    0.4180 -7.227569e+00 -1.198654e+01 -1.155227e+01 # HO
     91      11       1   -2.6652 -3.843498e+00  8.303061e+00 -1.121719e+01 # C3H
     92      11       2   -1.7698 -3.309649e+00  9.607704e+00 -1.080028e+01 # CTO
     93      11       3    0.0600 -2.296282e+00  9.481243e+00 -1.041924e+01 # H
     94      11       3    0.0600 -4.856865e+00  8.429522e+00 -1.159824e+01 # H
     95      11       3    0.0600 -3.942062e+00  1.002626e+01 -1.001736e+01 # H
     96      11       3    0.0600 -3.211085e+00  7.884503e+00 -1.200011e+01 # H
     97      11       4   -2.3989 -3.289654e+00  1.048302e+01 -1.190551e+01 # OH
     98      11       3    0.0600 -3.858954e+00  7.626395e+00 -1.036280e+01 # H
     99      11       5    0.4180 -2.946465e+00  1.132172e+01 -1.163749e+01 # HO
    100      12       1   -2.6652  1.119157e+01  2.777612e+00  8.257550e+00 # C3H
    101      12       2   -1.7698  1.104888e+01  3.593537e+00  7.043135e+00 # CTO
    102      12       3    0.0600  1.201454e+01  3.675428e+00  6.544260e+00 # H
    103      12       3    0.0600  1.022590e+01  2.695721e+00  8.756425e+00 # H
    104      12       3    0.0600  1.069427e+01  4.588353e+00  7.312762e+00 # H
    105      12       3    0.0600  1.154617e+01  1.782796e+00  7.987923e+00 # H
    106      12       4   -2.3989  1.012134e+01  2.984465e+00  6.173184e+00 # OH
    107      12       3    0.0600  1.190860e+01  3.248455e+00  8.930064e+00 # H
    108      12       5    0.4180  1.002961e+01  3.508988e+00  5.392489e+00 # HO
    109      13       1   -2.6652  8.110207e+00  1.569166e+00 -2.983954e+00 # C3H
    110      13       2   -1.7698  7.498330e+00  1.832129e+00 -4.294434e+00 # CTO
    111      13       3    0.0600  7.412466e+00  8.982110e-01 -4.849884e+00 # H
    112      13       3    0.0600  8.196070e+00  2.503084e+00 -2.428505e+00 # H
    113      13       3    0.0600  8.121166e+00  2.530655e+00 -4.853215e+00 # H
    114      13       3    0.0600  7.487370e+00  8.706400e-01 -2.425174e+00 # H
    115      13       4   -2.3989  6.215978e+00  2.389214e+00 -4.111866e+00 # OH
    116      13       3    0.0600  9.101527e+00  1.138511e+00 -3.125089e+00 # H
    117      13       5    0.4180  5.822629e+00  2.558261e+00 -4.954318e+00 # HO
    118      14       1   -2.6652 -4.677062e+00 -8.236092e+00  6.845590e+00 # C3H
    119      14       2   -1.7698 -4.026960e+00 -8.856242e+00  8.009068e+00 # CTO
    120      14       3    0.0600 -4.469281e+00 -8.464184e+00  8.924897e+00 # H
    121      14       3    0.0600 -4.234742e+00 -8.628150e+00  5.929762e+00 # H
    122      14       3    0.0600 -2.961101e+00 -8.628573e+00  7.994569e+00 # H
    123      14       3    0.0600 -5.742922e+00 -8.463761e+00  6.860090e+00 # H
    124      14       4   -2.3989 -4.209104e+00 -1.025359e+01  7.960702e+00 # OH
    125      14       3    0.0600 -4.536256e+00 -7.155872e+00  6.882981e+00 # H
    126      14       5    0.4180 -3.791182e+00 -1.065226e+01  8.708652e+00 # HO
    127      15       1   -2.6652 -1.470799e+00 -9.022337e+00 -9.413926e+00 # C3H
    128      15       2   -1.7698 -1.891341e+00 -1.041760e+01 -9.220805e+00 # CTO
    129      15       3    0.0600 -2.914889e+00 -1.044066e+01 -8.846750e+00 # H
    130      15       3    0.0600 -4.472520e-01 -8.999276e+00 -9.787981e+00 # H
    131      15       3    0.0600 -1.230856e+00 -1.090031e+01 -8.500495e+00 # H
    132      15       3    0.0600 -2.131285e+00 -8.539622e+00 -1.013424e+01 # H
    133      15       4   -2.3989 -1.825640e+00 -1.110355e+01 -1.045095e+01 # OH
    134      15       3    0.0600 -1.521590e+00 -8.492063e+00 -8.462963e+00 # H
    135      15       5    0.4180 -2.095989e+00 -1.200050e+01 -1.032680e+01 # HO
    136      16       1   -2.6652 -1.004453e+01 -3.094040e+00 -7.183968e+00 # C3H
    137      16       2   -1.7698 -1.134794e+01 -2.815914e+00 -6.563746e+00 # CTO
    138      16       3    0.0600 -1.198381e+01 -3.697739e+00 -6.642228e+00 # H
    139      16       3    0.0600 -9.408668e+00 -2.212216e+00 -7.105486e+00 # H
    140      16       3    0.0600 -1.182328e+01 -1.979135e+00 -7.075557e+00 # H
    141      16       3    0.0600 -9.569192e+00 -3.930819e+00 -6.672157e+00 # H
    142      16       4   -2.3989 -1.116249e+01 -2.490492e+00 -5.204405e+00 # OH
    143      16       3    0.0600 -1.018790e+01 -3.345608e+00 -8.234805e+00 # H
    144      16       5    0.4180 -1.200039e+01 -2.311697e+00 -4.805691e+00 # HO
    145      17       1   -2.6652  5.938434e+00 -7.910176e+00 -3.404481e+00 # C3H
    146      17       2   -1.7698  6.304435e+00 -6.493330e+00 -3.264877e+00 # CTO
    147      17       3    0.0600  7.383650e+00 -6.407059e+00 -3.138580e+00 # H
    148      17       3    0.0600  4.859219e+00 -7.996448e+00 -3.530778e+00 # H
    149      17       3    0.0600  5.802388e+00 -6.071954e+00 -2.393963e+00 # H
    150      17       3    0.0600  6.440482e+00 -8.331552e+00 -4.275395e+00 # H
    151      17       4   -2.3989  5.909383e+00 -5.789064e+00 -4.420751e+00 # OH
    152      17       3    0.0600  6.243830e+00 -8.454608e+00 -2.510933e+00 # H
    153      17       5    0.4180  6.144669e+00 -4.878235e+00 -4.331006e+00 # HO
    154      18       1   -2.6652  1.090295e+01  7.706810e-01 -8.662556e+00 # C3H
    155      18       2   -1.7698  9.961618e+00  1.336721e+00 -7.685625e+00 # CTO
    156      18       3    0.0600  9.574495e+00  2.284314e+00 -8.060194e+00 # H
    157      18       3    0.0600  1.129007e+01 -1.769120e-01 -8.287987e+00 # H
    158      18       3    0.0600  1.047598e+01  1.503610e+00 -6.739219e+00 # H
    159      18       3    0.0600  1.038859e+01  6.037910e-01 -9.608962e+00 # H
    160      18       4   -2.3989  8.892837e+00  4.387570e-01 -7.486952e+00 # OH
    161      18       3    0.0600  1.172917e+01  1.464852e+00 -8.816140e+00 # H
    162      18       5    0.4180  8.287696e+00  8.026400e-01 -6.858925e+00 # HO
    163      19       1   -2.6652  5.143946e+00  3.545412e+00  1.117840e+01 # C3H
    164      19       2   -1.7698  3.785997e+00  3.905051e+00  1.074535e+01 # CTO
    165      19       3    0.0600  3.271430e+00  3.014568e+00  1.038429e+01 # H
    166      19       3    0.0600  5.658513e+00  4.435894e+00  1.153945e+01 # H
    167      19       3    0.0600  3.842791e+00  4.641388e+00  9.943671e+00 # H
    168      19       3    0.0600  5.087152e+00  2.809075e+00  1.198007e+01 # H
    169      19       4   -2.3989  3.073789e+00  4.449901e+00  1.183346e+01 # OH
    170      19       3    0.0600  5.694517e+00  3.124215e+00  1.033723e+01 # H
    171      19       5    0.4180  2.200822e+00  4.681098e+00  1.155507e+01 # HO
    172      20       1   -2.6652  1.054101e+00  1.059726e+01 -2.468914e+00 # C3H
    173      20       2   -1.7698  2.066502e+00  1.090035e+01 -1.447111e+00 # CTO
    174      20       3    0.0600  2.570156e+00  9.980535e+00 -1.149847e+00 # H
    175      20       3    0.0600  5.504470e-01  1.151708e+01 -2.766178e+00 # H
    176      20       3    0.0600  1.583763e+00  1.134690e+01 -5.778260e-01 # H
    177      20       3    0.0600  1.536839e+00  1.015071e+01 -3.338199e+00 # H
    178      20       4   -2.3989  3.011903e+00  1.180369e+01 -1.974645e+00 # OH
    179      20       3    0.0600  3.232600e-01  9.898936e+00 -2.061104e+00 # H
    180      20       5    0.4180  3.662732e+00  1.199854e+01 -1.317772e+00 # HO
    181      21       1   -2.6652 -2.572076e+00  8.287821e+00  8.630763e+00 # C3H
    182      21       2   -1.7698 -3.769841e+00  8.286402e+00  7.778555e+00 # CTO
    183      21       3    0.0600 -4.562039e+00  8.856869e+00  8.263414e+00 # H
    184      21       3    0.0600 -1.779877e+00  7.717354e+00  8.145904e+00 # H
    185      21       3    0.0600 -4.104446e+00  7.260770e+00  7.622931e+00 # H
    186      21       3    0.0600 -2.237470e+00  9.313452e+00  8.786387e+00 # H
    187      21       4   -2.3989 -3.462739e+00  8.873831e+00  6.534081e+00 # OH
    188      21       3    0.0600 -2.809481e+00  7.833710e+00  9.592803e+00 # H
    189      21       5    0.4180 -4.232731e+00  8.872919e+00  5.986233e+00 # HO
    190      22       1   -2.6652  1.711874e+00  2.562569e+00 -4.762594e+00 # C3H
    191      22       2   -1.7698  4.612830e-01  1.819121e+00 -4.972850e+00 # CTO
    192      22       3    0.0600  1.985420e-01  1.283646e+00 -4.060528e+00 # H
    193      22       3    0.0600  1.974615e+00  3.098044e+00 -5.674917e+00 # H
    194      22       3    0.0600  5.942570e-01  1.106124e+00 -5.786516e+00 # H
    195      22       3    0.0600  1.578900e+00  3.275566e+00 -3.948928e+00 # H
    196      22       4   -2.3989 -5.721040e-01  2.720004e+00 -5.302431e+00 # OH
    197      22       3    0.0600  2.510733e+00  1.866142e+00 -4.507811e+00 # H
    198      22       5    0.4180 -1.376055e+00  2.242073e+00 -5.437596e+00 # HO
    199      23       1   -2.6652  1.099441e+01  1.603781e+00 -2.075500e-01 # C3H
    200      23       2   -1.7698  1.119504e+01  3.056978e+00 -1.134040e-01 # CTO
    201      23       3    0.0600  1.180193e+01  3.284469e+00  7.629710e-01 # H
    202      23       3    0.0600  1.038752e+01  1.376290e+00 -1.083926e+00 # H
    203      23       3    0.0600  1.022842e+01  3.552694e+00 -2.395500e-02 # H
    204      23       3    0.0600  1.196103e+01  1.108065e+00 -2.970000e-01 # H
    205      23       4   -2.3989  1.185310e+01  3.517317e+00 -1.272343e+00 # OH
    206      23       3    0.0600  1.048569e+01  1.247917e+00  6.883680e-01 # H
    207      23       5    0.4180  1.198208e+01  4.451515e+00 -1.211821e+00 # HO
    208      24       1   -2.6652  1.101207e+01  1.102567e+01  4.594260e-01 # C3H
    209      24       2   -1.7698  1.014518e+01  1.100944e+01  1.646500e+00 # CTO
    210      24       3    0.0600  9.154002e+00  1.065127e+01  1.368339e+00 # H
    211      24       3    0.0600  1.200325e+01  1.138384e+01  7.375870e-01 # H
    212      24       3    0.0600  1.006578e+01  1.201773e+01  2.052871e+00 # H
    213      24       3    0.0600  1.109148e+01  1.001738e+01  5.305500e-02 # H
    214      24       4   -2.3989  1.069739e+01  1.015285e+01  2.620890e+00 # OH
    215      24       3    0.0600  1.058519e+01  1.168785e+01 -2.938260e-01 # H
    216      24       5    0.4180  1.014011e+01  1.014242e+01  3.384010e+00 # HO
    217      25       1   -2.6652 -7.101620e+00 -2.023100e+00 -7.046678e+00 # C3H
    218      25       2   -1.7698 -5.786220e+00 -1.981234e+00 -6.391797e+00 # CTO
    219      25       3    0.0600 -5.911787e+00 -2.098126e+00 -5.315383e+00 # H
    220      25       3    0.0600 -6.976053e+00 -1.906208e+00 -8.123092e+00 # H
    221      25       3    0.0600 -5.306708e+00 -1.024636e+00 -6.599377e+00 # H
    222      25       3    0.0600 -7.581132e+00 -2.979698e+00 -6.839098e+00 # H
    223      25       4   -2.3989 -4.980572e+00 -3.027247e+00 -6.886661e+00 # OH
    224      25       3    0.0600 -7.724426e+00 -1.214481e+00 -6.664123e+00 # H
    225      25       5    0.4180 -4.134957e+00 -3.000333e+00 -6.465666e+00 # HO
    226      26       1   -2.6652  4.759289e+00  6.748534e+00  1.070058e+01 # C3H
    227      26       2   -1.7698  6.193009e+00  6.936485e+00  1.096519e+01 # CTO
    228      26       3    0.0600  6.724580e+00  6.005656e+00  1.076749e+01 # H
    229      26       3    0.0600  4.227718e+00  7.679364e+00  1.089828e+01 # H
    230      26       3    0.0600  6.336309e+00  7.221822e+00  1.200738e+01 # H
    231      26       3    0.0600  4.615989e+00  6.463198e+00  9.658393e+00 # H
    232      26       4   -2.3989  6.697165e+00  7.952018e+00  1.012697e+01 # OH
    233      26       3    0.0600  4.369552e+00  5.963477e+00  1.134857e+01 # H
    234      26       5    0.4180  7.618842e+00  8.072843e+00  1.029708e+01 # HO
    235      27       1   -2.6652 -3.041323e+00  9.660200e-01  8.310980e+00 # C3H
    236      27       2   -1.7698 -1.594416e+00  1.210640e+00  8.397693e+00 # CTO
    237      27       3    0.0600 -1.093375e+00  7.317090e-01  7.556454e+00 # H
    238      27       3    0.0600 -3.542365e+00  1.444950e+00  9.152219e+00 # H
    239      27       3    0.0600 -1.210969e+00  7.982410e-01  9.330964e+00 # H
    240      27       3    0.0600 -3.424770e+00  1.378418e+00  7.377708e+00 # H
    241      27       4   -2.3989 -1.348749e+00  2.598613e+00  8.361933e+00 # OH
    242      27       3    0.0600 -3.231235e+00 -1.069530e-01  8.338624e+00 # H
    243      27       5    0.4180 -4.185940e-01  2.755869e+00  8.417677e+00 # HO
    244      28       1   -2.6652 -1.136707e+01  8.494128e+00 -5.801592e+00 # C3H
    245      28       2   -1.7698 -9.974855e+00  8.900143e+00 -5.561194e+00 # CTO
    246      28       3    0.0600 -9.340746e+00  8.516322e+00 -6.360373e+00 # H
    247      28       3    0.0600 -1.200118e+01  8.877949e+00 -5.002413e+00 # H
    248      28       3    0.0600 -9.638214e+00  8.497504e+00 -4.605864e+00 # H
    249      28       3    0.0600 -1.170371e+01  8.896767e+00 -6.756922e+00 # H
    250      28       4   -2.3989 -9.893310e+00  1.030749e+01 -5.532274e+00 # OH
    251      28       3    0.0600 -1.143011e+01  7.406182e+00 -5.823949e+00 # H
    252      28       5    0.4180 -8.998315e+00  1.056850e+01 -5.377733e+00 # HO
    253      29       1   -2.6652 -8.806310e-01  1.054589e+01 -5.287872e+00 # C3H
    254      29       2   -1.7698 -2.720600e-02  1.113454e+01 -6.330011e+00 # CTO
    255      29       3    0.0600 -5.550520e-01  1.195859e+01 -6.810043e+00 # H
    256      29       3    0.0600 -3.527860e-01  9.721850e+00 -4.807840e+00 # H
    257      29       3    0.0600  2.141160e-01  1.037565e+01 -7.074282e+00 # H
    258      29       3    0.0600 -1.121954e+00  1.130479e+01 -4.543601e+00 # H
    259      29       4   -2.3989  1.163189e+00  1.161570e+01 -5.747302e+00 # OH
    260      29       3    0.0600 -1.800866e+00  1.017394e+01 -5.738336e+00 # H
    261      29       5    0.4180  1.711819e+00  1.199412e+01 -6.417248e+00 # HO
    262      30       1   -2.6652 -1.151223e+01 -8.972403e+00  6.363856e+00 # C3H
    263      30       2   -1.7698 -1.009493e+01 -8.783576e+00  6.022514e+00 # CTO
    264      30       3    0.0600 -1.001675e+01 -8.271102e+00  5.063683e+00 # H
    265      30       3    0.0600 -1.159041e+01 -9.484876e+00  7.322688e+00 # H
    266      30       3    0.0600 -9.604205e+00 -9.754587e+00  5.955993e+00 # H
    267      30       3    0.0600 -1.200296e+01 -8.001392e+00  6.430378e+00 # H
    268      30       4   -2.3989 -9.469474e+00 -8.009044e+00  7.021015e+00 # OH
    269      30       3    0.0600 -1.199574e+01 -9.571154e+00  5.591965e+00 # H
    270      30       5    0.4180 -8.558354e+00 -7.887655e+00  6.801581e+00 # HO
    271      31       1   -2.6652 -9.177029e+00 -1.106706e+01 -2.010659e+00 # C3H
    272      31       2   -1.7698 -9.744752e+00 -1.112303e+01 -6.558690e-01 # CTO
    273      31       3    0.0600 -1.038559e+01 -1.200014e+01 -5.658530e-01 # H
    274      31       3    0.0600 -8.536190e+00 -1.018995e+01 -2.100675e+00 # H
    275      31       3    0.0600 -1.033221e+01 -1.022387e+01 -4.701110e-01 # H
    276      31       3    0.0600 -8.589568e+00 -1.196622e+01 -2.196417e+00 # H
    277      31       4   -2.3989 -8.701175e+00 -1.120530e+01  2.887360e-01 # OH
    278      31       3    0.0600 -9.983766e+00 -1.100346e+01 -2.740885e+00 # H
    279      31       5    0.4180 -9.066140e+00 -1.124128e+01  1.159673e+00 # HO
    280      32       1   -2.6652 -2.886662e+00  1.107457e+01  5.324048e+00 # C3H
    281      32       2   -1.7698 -2.196886e+00  1.132096e+01  4.049528e+00 # CTO
    282      32       3    0.0600 -1.215581e+00  1.175351e+01  4.244579e+00 # H
    283      32       3    0.0600 -3.867966e+00  1.064203e+01  5.128997e+00 # H
    284      32       3    0.0600 -2.784537e+00  1.201225e+01  3.445474e+00 # H
    285      32       3    0.0600 -2.299010e+00  1.038328e+01  5.928103e+00 # H
    286      32       4   -2.3989 -2.043545e+00  1.010386e+01  3.354371e+00 # OH
    287      32       3    0.0600 -3.005201e+00  1.201545e+01  5.861439e+00 # H
    288      32       5    0.4180 -1.600117e+00  1.026225e+01  2.535036e+00 # HO
    289      33       1   -2.6652 -1.059891e+01  2.276239e+00 -5.003002e+00 # C3H
    290      33       2   -1.7698 -1.112520e+01  2.144618e+00 -6.369236e+00 # CTO
    291      33       3    0.0600 -1.200002e+01  1.494451e+00 -6.361091e+00 # H
    292      33       3    0.0600 -9.724084e+00  2.926407e+00 -5.011147e+00 # H
    293      33       3    0.0600 -1.035923e+01  1.714169e+00 -7.014308e+00 # H
    294      33       3    0.0600 -1.136487e+01  2.706688e+00 -4.357931e+00 # H
    295      33       4   -2.3989 -1.148990e+01  3.416051e+00 -6.857652e+00 # OH
    296      33       3    0.0600 -1.031697e+01  1.293358e+00 -4.625433e+00 # H
    297      33       5    0.4180 -1.182823e+01  3.331437e+00 -7.735946e+00 # HO
    298      34       1   -2.6652  2.317226e+00  9.765684e+00 -9.082286e+00 # C3H
    299      34       2   -1.7698  2.752841e+00  1.112644e+01 -8.736606e+00 # CTO
    300      34       3    0.0600  1.882713e+00  1.177831e+01 -8.658895e+00 # H
    301      34       3    0.0600  3.187354e+00  9.113812e+00 -9.159998e+00 # H
    302      34       3    0.0600  3.420095e+00  1.150286e+01 -9.511963e+00 # H
    303      34       3    0.0600  1.649973e+00  9.389261e+00 -8.306929e+00 # H
    304      34       4   -2.3989  3.433704e+00  1.110332e+01 -7.502105e+00 # OH
    305      34       3    0.0600  1.790885e+00  9.783554e+00 -1.003662e+01 # H
    306      34       5    0.4180  3.713743e+00  1.197809e+01 -7.279882e+00 # HO
    307      35       1   -2.6652  1.132476e+00 -1.059732e+01  3.557858e+00 # C3H
    308      35       2   -1.7698 -1.739580e-01 -1.098249e+01  4.110828e+00 # CTO
    309      35       3    0.0600 -6.530540e-01 -1.010957e+01  4.554197e+00 # H
    310      35       3    0.0600  1.611572e+00 -1.147024e+01  3.114489e+00 # H
    311      35       3    0.0600 -3.447500e-02 -1.174712e+01  4.875016e+00 # H
    312      35       3    0.0600  9.929930e-01 -9.832692e+00  2.793670e+00 # H
    313      35       4   -2.3989 -9.895320e-01 -1.149254e+01  3.079912e+00 # OH
    314      35       3    0.0600  1.762954e+00 -1.020303e+01  4.354808e+00 # H
    315      35       5    0.4180 -1.829383e+00 -1.174015e+01  3.435393e+00 # HO
    316      36       1   -2.6652  6.812354e+00  1.108975e+01 -7.757748e+00 # C3H
    317      36       2   -1.7698  8.279177e+00  1.101207e+01 -7.700343e+00 # CTO
    318      36       3    0.0600  8.709428e+00  1.187338e+01 -8.211356e+00 # H
    319      36       3    0.0600  6.382102e+00  1.022845e+01 -7.246734e+00 # H
    320      36       3    0.0600  8.614387e+00  1.009643e+01 -8.187514e+00 # H
    321      36       3    0.0600  6.477144e+00  1.200540e+01 -7.270576e+00 # H
    322      36       4   -2.3989  8.697944e+00  1.100774e+01 -6.353971e+00 # OH
    323      36       3    0.0600  6.488627e+00  1.109310e+01 -8.798560e+00 # H
    324      36       5    0.4180  9.640901e+00  1.095780e+01 -6.317067e+00 # HO
    325      37       1   -2.6652 -1.146497e+01  1.104797e+01  7.449640e-01 # C3H
    326      37       2   -1.7698 -1.003335e+01  1.125606e+01  1.005870e+00 # CTO
    327      37       3    0.0600 -9.641611e+00  1.200045e+01  3.126690e-01 # H
    328      37       3    0.0600 -1.185670e+01  1.030359e+01  1.438165e+00 # H
    329      37       3    0.0600 -9.498296e+00  1.031626e+01  8.695370e-01 # H
    330      37       3    0.0600 -1.200002e+01  1.198778e+01  8.812970e-01 # H
    331      37       4   -2.3989 -9.857094e+00  1.170873e+01  2.329550e+00 # OH
    332      37       3    0.0600 -1.160122e+01  1.069804e+01 -2.783070e-01 # H
    333      37       5    0.4180 -8.936768e+00  1.184250e+01  2.497275e+00 # HO
    334      38       1   -2.6652  1.104473e+01  7.361958e+00  7.788150e+00 # C3H
    335      38       2   -1.7698  9.997380e+00  8.387700e+00  7.679448e+00 # CTO
    336      38       3    0.0600  1.018742e+01  9.179919e+00  8.403584e+00 # H
    337      38       3    0.0600  1.085469e+01  6.569738e+00  7.064015e+00 # H
    338      38       3    0.0600  9.025178e+00  7.937781e+00  7.880686e+00 # H
    339      38       3    0.0600  1.201693e+01  7.811876e+00  7.586913e+00 # H
    340      38       4   -2.3989  1.000314e+01  8.930180e+00  6.377994e+00 # OH
    341      38       3    0.0600  1.104028e+01  6.942595e+00  8.794239e+00 # H
    342      38       5    0.4180  9.329845e+00  9.589585e+00  6.308115e+00 # HO
    343      39       1   -2.6652 -3.641718e+00 -7.263764e+00 -1.183432e+00 # C3H
    344      39       2   -1.7698 -4.450688e+00 -7.545173e+00 -2.378119e+00 # CTO
    345      39       3    0.0600 -4.088507e+00 -6.944601e+00 -3.212528e+00 # H
    346      39       3    0.0600 -4.003899e+00 -7.864336e+00 -3.490230e-01 # H
    347      39       3    0.0600 -5.493162e+00 -7.297354e+00 -2.178290e+00 # H
    348      39       3    0.0600 -2.599243e+00 -7.511583e+00 -1.383261e+00 # H
    349      39       4   -2.3989 -4.347726e+00 -8.912939e+00 -2.704793e+00 # OH
    350      39       3    0.0600 -3.721312e+00 -6.206413e+00 -9.308980e-01 # H
    351      39       5    0.4180 -4.867778e+00 -9.093845e+00 -3.472806e+00 # HO
    352      40       1   -2.6652 -6.000818e+00 -4.928750e+00 -2.599090e-01 # C3H
    353      40       2   -1.7698 -5.891594e+00 -6.214772e+00  4.437370e-01 # CTO
    354      40       3    0.0600 -4.909636e+00 -6.291858e+00  9.105500e-01 # H
    355      40       3    0.0600 -6.982776e+00 -4.851664e+00 -7.267220e-01 # H
    356      40       3    0.0600 -6.020301e+00 -7.030720e+00 -2.674330e-01 # H