LAMMPS (17 Jul 2010-ICMS)
#Input file for CO2
boundary p p p
units		lj
atom_style	full
read_data	initial.conf
  1 = max bonds/atom
  1 = max angles/atom
  orthogonal box = (-25 -25 -25) to (25 25 25)
  1 by 2 by 2 processor grid
  using 2 OpenMP thread(s) per MPI task
  1401 atoms
  934 bonds
  467 angles
  2 = max # of 1-2 neighbors
  1 = max # of 1-3 neighbors
  1 = max # of 1-4 neighbors
  2 = max # of special neighbors
mass           1 12.0107
mass           2 15.9994
pair_style     lj/charmm/coul/long 16.0 18.0 18.0
kspace_style   pppm 5.0e-5
pair_coeff     1 1 0.0023266827 2.800
pair_coeff     1 2 0.0039798693 2.925
pair_coeff     2 2 0.0068077011 3.050
velocity       all create 300.0 234324324 dist gaussian mom yes rot yes
thermo_style   multi
thermo         100
thermo_modify  norm no

fix             1 all rigid/nvt molecule temp 300.0 300.0 0.1 torque * on on on
467 rigid bodies with 1401 atoms
#dump            1 all dcd 50 co2.dcd
#dump_modify     1 unwrap yes
timestep 0.001
run     1000
PPPM initialization ...
  G vector = 0.137869
  grid = 12 12 12
  stencil order = 5
  RMS precision = 2.58637e-05
  using double precision FFTs
  brick FFT buffer size/proc = 2057 432 1683
Memory usage per processor = 3.25941 Mbytes
---------------- Step        0 ----- CPU =      0.0000 (sec) ----------------
TotEng   =    344740.0986 KinEng   =    344755.2352 Temp     =       295.6734 
PotEng   =       -15.1366 E_bond   =         0.0000 E_angle  =         0.0000 
E_dihed  =         0.0000 E_impro  =         0.0000 E_vdwl   =       -14.8333 
E_coul   =        26.3875 E_long   =       -26.6908 Press    =        -1.7942 
---------------- Step      100 ----- CPU =      0.3167 (sec) ----------------
TotEng   =    350220.5957 KinEng   =    350173.5598 Temp     =       300.3204 
PotEng   =        47.0359 E_bond   =         0.0000 E_angle  =         0.0000 
E_dihed  =         0.0000 E_impro  =         0.0000 E_vdwl   =        47.2854 
E_coul   =        26.4415 E_long   =       -26.6910 Press    =         1.0762 
---------------- Step      200 ----- CPU =      0.6363 (sec) ----------------
TotEng   =    368463.4233 KinEng   =    367396.0178 Temp     =       315.0909 
PotEng   =      1067.4055 E_bond   =         0.0000 E_angle  =         0.0000 
E_dihed  =         0.0000 E_impro  =         0.0000 E_vdwl   =      1067.5788 
E_coul   =        26.5176 E_long   =       -26.6910 Press    =         1.1864 
---------------- Step      300 ----- CPU =      0.9603 (sec) ----------------
TotEng   =    397433.0940 KinEng   =    393775.4864 Temp     =       337.7148 
PotEng   =      3657.6076 E_bond   =         0.0000 E_angle  =         0.0000 
E_dihed  =         0.0000 E_impro  =         0.0000 E_vdwl   =      3657.7356 
E_coul   =        26.5629 E_long   =       -26.6909 Press    =         1.4741 
---------------- Step      400 ----- CPU =      1.2889 (sec) ----------------
TotEng   =    376253.5832 KinEng   =    371320.3589 Temp     =       318.4566 
PotEng   =      4933.2243 E_bond   =         0.0000 E_angle  =         0.0000 
E_dihed  =         0.0000 E_impro  =         0.0000 E_vdwl   =      4933.3034 
E_coul   =        26.6121 E_long   =       -26.6911 Press    =         1.4797 
---------------- Step      500 ----- CPU =      1.6157 (sec) ----------------
TotEng   =    347089.3675 KinEng   =    343698.7202 Temp     =       294.7673 
PotEng   =      3390.6473 E_bond   =         0.0000 E_angle  =         0.0000 
E_dihed  =         0.0000 E_impro  =         0.0000 E_vdwl   =      3390.6621 
E_coul   =        26.6765 E_long   =       -26.6913 Press    =         1.2707 
---------------- Step      600 ----- CPU =      1.9424 (sec) ----------------
TotEng   =    339776.0907 KinEng   =    335844.1065 Temp     =       288.0310 
PotEng   =      3931.9842 E_bond   =         0.0000 E_angle  =         0.0000 
E_dihed  =         0.0000 E_impro  =         0.0000 E_vdwl   =      3931.8665 
E_coul   =        26.8091 E_long   =       -26.6914 Press    =         1.2605 
---------------- Step      700 ----- CPU =      2.2716 (sec) ----------------
TotEng   =    358426.2605 KinEng   =    356020.5458 Temp     =       305.3349 
PotEng   =      2405.7147 E_bond   =         0.0000 E_angle  =         0.0000 
E_dihed  =         0.0000 E_impro  =         0.0000 E_vdwl   =      2405.6880 
E_coul   =        26.7180 E_long   =       -26.6913 Press    =         1.2043 
---------------- Step      800 ----- CPU =      2.6076 (sec) ----------------
TotEng   =    376912.6521 KinEng   =    373320.5552 Temp     =       320.1720 
PotEng   =      3592.0969 E_bond   =         0.0000 E_angle  =         0.0000 
E_dihed  =         0.0000 E_impro  =         0.0000 E_vdwl   =      3592.0456 
E_coul   =        26.7425 E_long   =       -26.6912 Press    =         1.2841 
---------------- Step      900 ----- CPU =      2.9417 (sec) ----------------
TotEng   =    381943.8981 KinEng   =    378634.5459 Temp     =       324.7295 
PotEng   =      3309.3522 E_bond   =         0.0000 E_angle  =         0.0000 
E_dihed  =         0.0000 E_impro  =         0.0000 E_vdwl   =      3309.3218 
E_coul   =        26.7220 E_long   =       -26.6916 Press    =         1.4421 
---------------- Step     1000 ----- CPU =      3.2702 (sec) ----------------
TotEng   =    353095.6441 KinEng   =    351064.6165 Temp     =       301.0846 
PotEng   =      2031.0276 E_bond   =         0.0000 E_angle  =         0.0000 
E_dihed  =         0.0000 E_impro  =         0.0000 E_vdwl   =      2030.9673 
E_coul   =        26.7522 E_long   =       -26.6919 Press    =         1.2412 
Loop time of 3.27025 on 8 procs (4 MPI x 2 OpenMP) for 1000 steps with 1401 atoms

Pair  time (%) = 1.72404 (52.719)
Bond  time (%) = 9.78708e-05 (0.00299276)
Kspce time (%) = 0.934135 (28.5646)
Neigh time (%) = 0.185149 (5.66161)
Comm  time (%) = 0.130052 (3.97682)
Outpt time (%) = 0.000406921 (0.0124431)
Other time (%) = 0.296366 (9.06248)

FFT time (% of Kspce) = 0.065136 (6.97286)
FFT Gflps 3d (1d only) = 3.95534 12.1416

Nlocal:    350.25 ave 407 max 318 min
Histogram: 2 0 0 0 1 0 0 0 0 1
Nghost:    3136.5 ave 3300 max 2943 min
Histogram: 1 0 0 0 0 1 1 0 0 1
Neighs:    52215 ave 67148 max 43562 min
Histogram: 1 0 2 0 0 0 0 0 0 1

Total # of neighbors = 208860
Ave neighs/atom = 149.079
Ave special neighs/atom = 2
Neighbor list builds = 94
Dangerous builds = 48
