LAMMPS (17 Jul 2010-ICMS)
#Input file for CO2
boundary p p p
units		metal
atom_style	full
read_data	initial.conf
  1 = max bonds/atom
  1 = max angles/atom
  orthogonal box = (-25 -25 -25) to (25 25 25)
  1 by 2 by 2 processor grid
  using 2 OpenMP thread(s) per MPI task
  1401 atoms
  934 bonds
  467 angles
  2 = max # of 1-2 neighbors
  1 = max # of 1-3 neighbors
  1 = max # of 1-4 neighbors
  2 = max # of special neighbors
mass           1 12.0107
mass           2 15.9994
pair_style     lj/charmm/coul/long 16.0 18.0 18.0
kspace_style   pppm 5.0e-5
pair_coeff     1 1 0.0023266827 2.800
pair_coeff     1 2 0.0039798693 2.925
pair_coeff     2 2 0.0068077011 3.050
velocity       all create 300.0 234324324 dist gaussian mom yes rot yes
thermo_style   multi
thermo         100
thermo_modify  norm no

fix             1 all rigid/nvt molecule temp 300.0 300.0 0.1 torque * off off off
467 rigid bodies with 1401 atoms
#dump            1 all dcd 50 co2.dcd
#dump_modify     1 unwrap yes
timestep 0.001
run     1000
PPPM initialization ...
  G vector = 0.137869
  grid = 12 12 12
  stencil order = 5
  RMS precision = 2.58637e-05
  using double precision FFTs
  brick FFT buffer size/proc = 2057 432 1683
Memory usage per processor = 3.30748 Mbytes
---------------- Step        0 ----- CPU =      0.0000 (sec) ----------------
TotEng   =        10.5082 KinEng   =        29.7087 Temp     =       295.6734 
PotEng   =       -19.2006 E_bond   =         0.0000 E_angle  =         0.0000 
E_dihed  =         0.0000 E_impro  =         0.0000 E_vdwl   =       -14.8333 
E_coul   =       379.9710 E_long   =      -384.3382 Press    =      -382.5257 
---------------- Step      100 ----- CPU =      0.3191 (sec) ----------------
TotEng   =        16.0704 KinEng   =        32.8221 Temp     =       326.6585 
PotEng   =       -16.7516 E_bond   =         0.0000 E_angle  =         0.0000 
E_dihed  =         0.0000 E_impro  =         0.0000 E_vdwl   =       -13.1805 
E_coul   =       380.7699 E_long   =      -384.3411 Press    =       245.1962 
---------------- Step      200 ----- CPU =      0.6388 (sec) ----------------
TotEng   =        19.5275 KinEng   =        34.2080 Temp     =       340.4522 
PotEng   =       -14.6805 E_bond   =         0.0000 E_angle  =         0.0000 
E_dihed  =         0.0000 E_impro  =         0.0000 E_vdwl   =       -12.4744 
E_coul   =       382.1369 E_long   =      -384.3431 Press    =       313.8095 
---------------- Step      300 ----- CPU =      0.9611 (sec) ----------------
TotEng   =        22.5387 KinEng   =        36.2718 Temp     =       360.9916 
PotEng   =       -13.7331 E_bond   =         0.0000 E_angle  =         0.0000 
E_dihed  =         0.0000 E_impro  =         0.0000 E_vdwl   =       -12.2146 
E_coul   =       382.8285 E_long   =      -384.3471 Press    =       272.5928 
---------------- Step      400 ----- CPU =      1.2830 (sec) ----------------
TotEng   =        23.3009 KinEng   =        35.9916 Temp     =       358.2031 
PotEng   =       -12.6907 E_bond   =         0.0000 E_angle  =         0.0000 
E_dihed  =         0.0000 E_impro  =         0.0000 E_vdwl   =       -11.2429 
E_coul   =       382.9020 E_long   =      -384.3497 Press    =       270.3587 
---------------- Step      500 ----- CPU =      1.6055 (sec) ----------------
TotEng   =        25.0975 KinEng   =        37.1449 Temp     =       369.6815 
PotEng   =       -12.0474 E_bond   =         0.0000 E_angle  =         0.0000 
E_dihed  =         0.0000 E_impro  =         0.0000 E_vdwl   =       -10.4342 
E_coul   =       382.7381 E_long   =      -384.3513 Press    =       309.1698 
---------------- Step      600 ----- CPU =      1.9300 (sec) ----------------
TotEng   =        25.1160 KinEng   =        37.8355 Temp     =       376.5545 
PotEng   =       -12.7195 E_bond   =         0.0000 E_angle  =         0.0000 
E_dihed  =         0.0000 E_impro  =         0.0000 E_vdwl   =       -11.0421 
E_coul   =       382.6825 E_long   =      -384.3599 Press    =       188.5165 
---------------- Step      700 ----- CPU =      2.2555 (sec) ----------------
TotEng   =        24.5489 KinEng   =        36.6980 Temp     =       365.2332 
PotEng   =       -12.1491 E_bond   =         0.0000 E_angle  =         0.0000 
E_dihed  =         0.0000 E_impro  =         0.0000 E_vdwl   =       -10.6882 
E_coul   =       382.9112 E_long   =      -384.3721 Press    =       184.4775 
---------------- Step      800 ----- CPU =      2.5794 (sec) ----------------
TotEng   =        24.0018 KinEng   =        36.3348 Temp     =       361.6189 
PotEng   =       -12.3330 E_bond   =         0.0000 E_angle  =         0.0000 
E_dihed  =         0.0000 E_impro  =         0.0000 E_vdwl   =       -10.9287 
E_coul   =       382.9733 E_long   =      -384.3776 Press    =       160.3452 
---------------- Step      900 ----- CPU =      2.9000 (sec) ----------------
TotEng   =        23.8663 KinEng   =        36.1364 Temp     =       359.6437 
PotEng   =       -12.2701 E_bond   =         0.0000 E_angle  =         0.0000 
E_dihed  =         0.0000 E_impro  =         0.0000 E_vdwl   =       -10.7486 
E_coul   =       382.8541 E_long   =      -384.3755 Press    =       176.1404 
---------------- Step     1000 ----- CPU =      3.2215 (sec) ----------------
TotEng   =        24.3705 KinEng   =        36.0800 Temp     =       359.0825 
PotEng   =       -11.7094 E_bond   =         0.0000 E_angle  =         0.0000 
E_dihed  =         0.0000 E_impro  =         0.0000 E_vdwl   =       -10.2660 
E_coul   =       382.9314 E_long   =      -384.3748 Press    =       243.5158 
Loop time of 3.22153 on 8 procs (4 MPI x 2 OpenMP) for 1000 steps with 1401 atoms

Pair  time (%) = 1.89954 (58.9638)
Bond  time (%) = 8.98242e-05 (0.00278825)
Kspce time (%) = 0.836137 (25.9547)
Neigh time (%) = 0.0367551 (1.14092)
Comm  time (%) = 0.151224 (4.69418)
Outpt time (%) = 0.00039494 (0.0122594)
Other time (%) = 0.297394 (9.23144)

FFT time (% of Kspce) = 0.0711083 (8.50439)
FFT Gflps 3d (1d only) = 3.62314 11.5264

Nlocal:    350.25 ave 394 max 295 min
Histogram: 1 0 0 0 1 0 0 0 1 1
Nghost:    3675.75 ave 3872 max 3488 min
Histogram: 1 0 0 1 0 0 1 0 0 1
Neighs:    67689.8 ave 81398 max 53308 min
Histogram: 1 0 0 0 1 1 0 0 0 1

Total # of neighbors = 270759
Ave neighs/atom = 193.261
Ave special neighs/atom = 2
Neighbor list builds = 17
Dangerous builds = 0
