LAMMPS (24 Dec 2020)
Processor partition = 2
OMP_NUM_THREADS environment is not set. Defaulting to 1 thread. (src/comm.cpp:94)
  using 1 OpenMP thread(s) per MPI task
units lj
atom_style atomic
atom_modify map yes
boundary f f f
region mybox block -5.0 5.0 -5.0 5.0 -5.0 5.0
create_box 1 mybox
Created orthogonal box = (-5.0000000 -5.0000000 -5.0000000) to (5.0000000 5.0000000 5.0000000)
  1 by 1 by 1 MPI processor grid
create_atoms 1 single 0.0 0.0 0.0 units box
Created 1 atoms
  create_atoms CPU = 0.000 seconds
pair_style zero 2.0 nocoeff
pair_coeff * *
mass 1 1.0
timestep 0.2

#thermo_style custom step ke pe etotal

fix 1 all spring/self 1.0 xyz
fix_modify 1 energy yes
#fix 2 all nve
velocity all set 0.1 0.1 0.1

fix 4 all pimd3 method nmpimd ensemble nvt temp 1.0 thermostat PILE_G 975481
#fix 4 all pimd2 method nmpimd thermostat baoab 975481 fmass 1.0 temp 1.0
#fix 4 all pimd3 method nmpimd ensemble nve

thermo_style custom step f_4[1] f_4[2] f_4[3] f_4[4] f_4[5] f_4[6] f_4[7] f_4[8] f_4[9]
thermo 100

run 1000000
Neighbor list info ...
  update every 1 steps, delay 10 steps, check yes
  max neighbors/atom: 2000, page size: 100000
  master list distance cutoff = 2.3
  ghost atom cutoff = 2.3
  binsize = 1.15, bins = 9 9 9
  1 neighbor lists, perpetual/occasional/extra = 1 0 0
  (1) pair zero, perpetual
      attributes: half, newton on
      pair build: half/bin/atomonly/newton
      stencil: half/bin/3d/newton
      bin: standard
Per MPI rank memory allocation (min/avg/max) = 3.047 | 3.047 | 3.047 Mbytes
Step f_4[1] f_4[2] f_4[3] f_4[4] f_4[5] f_4[6] f_4[7] f_4[8] f_4[9] 
       0            0            0            0            0            6           -0          1.5        0.004        0.003 
     100    5.4838138    4.4836721    2.1614616    12.128947    1.5163279    2.1614616    1.5034825 -0.00043008912 -0.0013159581 
     200    4.9987952    7.8406889   0.66974799    13.509232   -1.8406889   0.66974799    1.5051277 -0.0016736246 0.0016707595 
     300    6.2721135     9.228973    3.1384818    18.639568    -3.228973    3.1384818    1.5053759 -0.0042449698 -0.0032662118 
     400    5.2772868    4.9387691   0.42194648    10.638002    1.0612309   0.42194648    1.5031712 0.00042618959 0.0021624494 
     500    4.0291913    10.021119   0.19953644    14.249846   -4.0211186   0.19953644    1.5077815  -0.00281377 0.0026164902 
     600    5.9368115    9.5354689   0.22469757    15.696978   -3.5354689   0.22469757    1.5065893 -0.0025067776 0.0025637835 
     700    6.9934463    5.3057111   0.46722248     12.76638   0.69428894   0.46722248    1.5038083 0.00015137764 0.0020731717 
     800    4.5281119    3.8630356   0.86188509    9.2530326    2.1369644   0.86188509    1.5027644 0.00085005287 0.0012817587 
     900    7.5618062    3.9881942   0.56076098    12.110761    2.0118058   0.56076098    1.5026253 0.00096736322 0.0018837287 
    1000    5.5588908    7.8487809   0.27080244    13.678474   -1.8487809   0.27080244     1.505307 -0.0014130555 0.0024690092 
    1100    4.0680606    1.7016647 0.0084992111    5.7782246    4.2983353 0.0084992111    1.5007376 0.0028598907 0.0029844768 
    1200    7.3344011    2.6813548   0.41187202    10.427628    3.3186452   0.41187202    1.5017841 0.0019378488 0.0021798241 
    1300    10.072771    5.7800342 0.0047463621    15.857551    0.2199658 0.0047463621    1.5043701 0.00014347963 0.0029992476 
    1400    3.2330652    6.3518865  0.010627723    9.5955794  -0.35188655  0.010627723    1.5039805 -0.00024167618 0.0029867056 
    1500    4.0204885     3.148722    3.2627493     10.43196     2.851278    3.2627493    1.5018667 -0.00027431417 -0.0035217652 
    1600    5.5071614    4.6734115   0.07895621    10.259529    1.3265885   0.07895621    1.5033501 0.00083175484 0.0028487878 
    1700    5.0410647    4.2089338    2.8408709    12.090869    1.7910662    2.8408709    1.5023303 -0.00069986978 -0.0026770813 
    1800    9.5258165    3.8178686   0.90420626    14.247891    2.1821314   0.90420626    1.5026981 0.00085195008 0.0011969836 
    1900    6.1508671    4.3984155    3.8705999    14.419883    1.6015845    3.8705999    1.5029209 -0.001512677 -0.0047353581 
    2000     9.085257    3.0645556    3.3894199    15.539233    2.9354444    3.3894199    1.5016392 -0.00030265035 -0.0037755615 
    2100    7.4608555    7.3281622  0.089370652    14.878388   -1.3281622  0.089370652    1.5053864 -0.0009450219 0.0028320314 
    2200    4.5211135    1.6677537    2.1581088    8.3469759    4.3322463    2.1581088    1.5009185 0.0014494251 -0.0013143805 
    2300    5.5216766    3.3226868     1.956216    10.800579    2.6773132     1.956216    1.5026132 0.0004807315 -0.00090720564 
    2400    6.4007833    0.8071283   0.44679044    7.6547021    5.1928717   0.44679044    1.5006015 0.0031640542  0.002107622 
    2500    7.1645045    5.7355353    1.5720172    14.472057    0.2644647    1.5720172    1.5041909 -0.00087170167 -0.00013565268 
    2600     4.523189    1.9385908    1.0417934    7.5035732    4.0614092    1.0417934    1.5013134 0.0020130772 0.00091904001 
    2700    2.3635617    5.5643184   0.99421864    8.9220988   0.43568157   0.99421864    1.5036264 -0.00037235804 0.0010188156 
    2800    4.8470308    6.6801872    2.3876692    13.914887  -0.68018718    2.3876692    1.5044403 -0.0020452376 -0.0017664578 
    2900     4.080437    1.2862701   0.37158979    5.7382969    4.7137299   0.37158979    1.5009617 0.0028947601 0.0022587438 
    3000    5.9228527    5.1150739    2.7313915    13.769318   0.88492606    2.7313915    1.5039242 -0.0012309769 -0.0024549345 
    3100    5.0862503    4.9068675    1.4189205    11.412038    1.0931325    1.4189205     1.503117 -0.00021719203 0.00016839299 
    3200    6.1499913    3.9841023   0.42308453    10.557178    2.0158977   0.42308453    1.5027923 0.0010618754 0.0021594155 
    3300    7.1515005    1.1444046     1.683023    9.9789281    4.8555954     1.683023    1.5008887 0.0021150482 -0.00036426878 
    3400    3.6147117    3.7625757   0.23555303    7.6128404    2.2374243   0.23555303    1.5024043 0.0013345809 0.0025337025 
    3500    3.0268434    4.7350676    4.7439437    12.505855    1.2649324    4.7439437    1.5035317 -0.0023193409 -0.0064808241 
    3600    5.5099337    4.4691688    7.4529498    17.432052    1.5308312    7.4529498    1.5025878 -0.0039480791 -0.011900724 
    3700    10.556384    4.7417335   0.14439736    15.442515    1.2582665   0.14439736     1.503609 0.00074257946 0.0027184233 
    3800    10.274587    2.2353349     2.183228     14.69315    3.7646651     2.183228    1.5013431 0.0010542914 -0.0013637698 
    3900    7.3205568    5.7172188  0.095111146    13.132887   0.28278125  0.095111146    1.5038776 0.0001251134 0.0028175328 
    4000    7.5750641    2.4184895    1.3413478    11.334901    3.5815105    1.3413478    1.5017104 0.0014934418 0.00032072523 
    4100    8.0306591    3.2107957   0.66321469     11.90467    2.7892043   0.66321469    1.5022611 0.0014173264 0.0016780929 
    4200    5.1554149    2.5256694   0.73421507    8.4152994    3.4743306   0.73421507    1.5014771 0.0018267437  0.001534524 
    4300    4.9404082    3.1494759     2.646913    10.736797    2.8505241     2.646913    1.5023798 0.00013574073 -0.0022890665 
    4400    6.3562741    2.7238038    2.1966048    11.276683    3.2761962    2.1966048    1.5017849 0.00071972761 -0.0013896399 
    4500     7.708155    2.4597468   0.79634861     10.96425    3.5402532   0.79634861    1.5015665 0.0018292697 0.0014104357 
    4600    5.7659737    4.2891893    2.6558711    12.711034    1.7108107    2.6558711    1.5020689 -0.00063004028 -0.0023076044 
    4700    7.3280743    7.1138036    2.3961401    16.838018   -1.1138036    2.3961401    1.5052745 -0.0023399625 -0.0017817312 
    4800    5.4152825    4.2314142    1.8319957    11.478692    1.7685858    1.8319957    1.5020928 -4.2273283e-05 -0.00065980584 
    4900    4.6862321    2.2913602    1.1966351    8.1742275    3.7086398    1.1966351    1.5014564 0.0016746698 0.00060964268 
    5000    5.3786932      4.36604    1.9148933    11.659627      1.63396    1.9148933    1.5024565 -0.00018728886 -0.00082487357 
    5100    6.2722855    5.9428618    3.5689905    15.784138  0.057138159    3.5689905    1.5043917 -0.0023412349 -0.0041291975 
    5200    6.7527689    5.1670237    4.5826797    16.502472   0.83297626    4.5826797    1.5040793 -0.0024998023 -0.0061572007 
    5300    4.8291545    4.1904141    1.9119498    10.931518    1.8095859    1.9119498    1.5031776 -6.8242603e-05 -0.00081754441 
    5400    4.0968482    4.8754043    2.8921336    11.864386    1.1245957    2.8921336    1.5035084 -0.0011783587 -0.0027772505 
    5500    12.792895    4.0709291  0.088849338    16.952673    1.9290709  0.088849338    1.5023845 0.0012268144 0.0028270703 
    5600    3.9062506    4.5377726      5.59777    14.041793    1.4622274      5.59777    1.5032826 -0.0027570284 -0.0081889748 
    5700    4.6664718    4.8231988   0.98779196    10.477463    1.1768012   0.98779196    1.5029386 0.00012600613 0.0010302934 
    5800    4.8897397    9.5381121    1.6719178     16.09977   -3.5381121    1.6719178    1.5051252 -0.0034733533 -0.00033358522 
    5900    5.9590358    1.9316774    1.5989808     9.489694    4.0683226    1.5989808    1.5014775 0.0016462278 -0.00019500671 
    6000    4.5213597    2.8214687    1.1065699    8.4493983    3.1785313    1.1065699    1.5021478 0.0013813076 0.00079115579 
    6100     11.55848    1.9133178   0.83089832    14.302696    4.0866822   0.83089832     1.501036 0.0021705226 0.0013402753 
    6200     2.881095    6.3423011    1.6893033    10.912699   -0.3423011    1.6893033    1.5047471 -0.0013544029 -0.0003691123 
    6300    1.7989667    6.2424777    1.3140891    9.3555335  -0.24247767    1.3140891    1.5035926 -0.0010377112  0.000379007 
    6400    3.3877799    5.3006994    1.9910346    10.679514   0.69930056    1.9910346    1.5037451 -0.00086115603 -0.00097457909 
    6500    7.1976163      2.84724      0.82512    10.869976      3.15276      0.82512    1.5016771   0.00155176 0.0013531142 
    6600    4.6717964    6.9488835   0.22228018     11.84296  -0.94888345   0.22228018    1.5052134 -0.00078077576 0.0025658664 
    6700    4.0783755    4.1272113   0.31539533    8.5209821    1.8727887   0.31539533    1.5022974 0.0010382623 0.0023738042 
    6800    6.7701302    2.5257733   0.79134307    10.087247    3.4742267   0.79134307    1.5019113 0.0017885891 0.0014211365 
    6900    5.0868488    4.4313739    0.7534517    10.271674    1.5686261    0.7534517    1.5028504 0.00054344963 0.0014987974 
    7000    1.7100375    3.0442635    1.6574713    6.4117723    2.9557365    1.6574713    1.5019142 0.00086551013 -0.00031111426 
    7100    2.9292474    4.3900984   0.70931589    8.0286618    1.6099016   0.70931589    1.5029681 0.00060039046 0.0015873045 
    7200    8.8918196    5.6602827    2.6570961    17.209198   0.33971733    2.6570961    1.5037601 -0.0015449192 -0.0023066718 
    7300    4.0030649    1.8469968    1.4174452    7.2675069    4.1530032    1.4174452    1.5011072 0.0018237053 0.00016732391 
    7400    3.5625755    3.9755152    1.9087624    9.4468531    2.0244848    1.9087624    1.5024587 7.7148267e-05 -0.00081260744 
    7500    5.7597384    4.8813755     2.488956     13.13007    1.1186245     2.488956     1.503117 -0.00091355433 -0.0019716781 
    7600    3.4928279    3.0682479  0.099169455    6.6602453    2.9317521  0.099169455    1.5022259 0.0018883884 0.0028061129 
    7700     3.288617    4.6676653   0.61774674     8.574029    1.3323347   0.61774674    1.5031222 0.00047639197  0.001770751 
    7800    4.8313243    3.2403378    2.6452279     10.71689    2.7596622    2.6452279    1.5017826 7.6289504e-05 -0.0022868906 
    7900    7.3744683    5.9402991    2.0238363    15.338604  0.059700896    2.0238363    1.5031458 -0.0013094236 -0.0010413809 
    8000    3.9155907    3.3775066    1.1916233    8.4847206    2.6224934    1.1916233    1.5020349 0.00095391337 0.00062082325 
    8100    8.8491551        3.285   0.99540138    13.129557        2.715   0.99540138    1.5020335  0.001146399 0.0010132642 
    8200     4.902921    8.4495571     4.091683    17.444161   -2.4495571     4.091683    1.5045082 -0.0043608268 -0.0051743496 
    8300    6.3055713    2.8581315    5.0947389    14.258442    3.1418685    5.0947389    1.5015928 -0.0013019136 -0.0071862923 
    8400    3.8086875    9.2550907    6.6335581    19.697336   -3.2550907    6.6335581    1.5070536 -0.0065924325 -0.010253009 
    8500    9.5565534    6.7289065     1.943127    18.228587  -0.72890646     1.943127    1.5050611 -0.0017813556 -0.00087613181 
    8600    4.3996763    5.3799556   0.12962572    9.9092577   0.62004436   0.12962572    1.5041282 0.00032694576 0.0027490049 
    8700    3.4619003    2.3164166   0.84312282    6.6214398    3.6835834   0.84312282    1.5012375 0.0018936404 0.0013162293 
    8800    6.5219142    1.1501195   0.10104071    7.7730744    4.8498805   0.10104071    1.5008677 0.0031658932  0.002799654 
    8900    6.6417583    5.4425489    1.1978934    13.282201   0.55745107    1.1978934    1.5038838 -0.00042696152 0.00061198081 
    9000    3.8865172    4.4464753     1.695784    10.028777    1.5535247     1.695784    1.5027791 -9.4839561e-05 -0.00038600975 
    9100    2.2448384    2.7680574    2.6961481    7.7090439    3.2319426    2.6961481    1.5019894 0.00035719633 -0.0023883175 
    9200    2.9604383    5.0372833    1.4964035    9.4941251   0.96271671    1.4964035    1.5039155 -0.00035579121 1.5024026e-05 
    9300    2.3525172    2.8131746   0.81237213     5.978064    3.1868254   0.81237213    1.5019464 0.0015829688 0.0013791485 
    9400    4.1641728    4.1517552   0.39140151    8.7073295    1.8482448   0.39140151    1.5030079 0.00097122885 0.0022232129 
    9500    6.2211584    5.5170117   0.22696474    11.965135    0.4829883   0.22696474    1.5036701 0.00017068237 0.0025534107 
    9600    5.8004084    4.3325894    0.4908296    10.623827    1.6674106    0.4908296    1.5032979 0.00078438735 0.0020249366 
    9700    6.9501508    5.0714357    1.8758211    13.897408   0.92856431    1.8758211    1.5037832 -0.00063150451 -0.00074407567 
    9800    5.6182829    2.9581021    3.1752791    11.751664    3.0418979    3.1752791    1.5018545 -8.8920806e-05 -0.0033468494 
    9900    6.8539958    4.8537736    3.0449957    14.752765    1.1462264    3.0449957    1.5036159 -0.0012658462 -0.0030827596 
   10000    6.8700668    3.3987877    1.2842957     11.55315    2.6012123    1.2842957    1.5015466 0.00087794443 0.00043450189 
   10100     6.355454    2.4291978     1.663636    10.448288    3.5708022     1.663636    1.5017764 0.0012714441 -0.00032371906 
   10200    4.5616169    3.0070483    1.1549864    8.7236516    2.9929517    1.1549864    1.5017679 0.0012253102 0.00069356303 
   10300     5.030829    2.9315567    2.2714975    10.233883    3.0684433    2.2714975    1.5019684 0.00053129721 -0.0015390583 
   10400    8.8958895    2.9404008   0.95678835    12.793079    3.0595992   0.95678835    1.5018606 0.0014018739 0.0010901444 
   10500    9.0110665    5.7347852   0.19854855      14.9444   0.26521485   0.19854855    1.5036754 4.4444199e-05 0.0026102537 
   10600    6.3454192    6.4369484    3.8978949    16.680263  -0.43694844    3.8978949    1.5040648 -0.0028898956 -0.0047876602 
   10700    6.1366618    3.3888971    2.4106045    11.936163    2.6111029    2.4106045     1.502188 0.0001336656 -0.0018168329 
   10800    5.4819169     3.357915   0.13810421    8.9779362     2.642085   0.13810421    1.5025055 0.0016693205 0.0027288026 
   10900    6.4571003    2.4930072    1.3174835    10.267591    3.5069928    1.3174835    1.5016861 0.0014596729 0.00036840523 
   11000    4.4638915    1.2022143   0.56090192    6.2270077    4.7977857   0.56090192    1.5007832 0.0028245892 0.0018797626 
   11100    7.0811237    3.8088954   0.61316152    11.503181    2.1911046   0.61316152    1.5025436 0.0010519621 0.0017787642 
   11200    5.5069053    3.2168265     1.937851    10.661583    2.7831735     1.937851    1.5020444 0.00056354832 -0.00087161336 
   11300     6.279226    5.8634673    1.5503721    13.693065   0.13653267    1.5503721     1.503643 -0.00094255965 -9.3458298e-05 
   11400    5.5541907      3.20725    3.4223121    12.183753      2.79275    3.4223121    1.5024204 -0.00041970805 -0.0038397833 
   11500    2.3568377    5.6786342    3.2453861    11.280858   0.32136577    3.2453861    1.5040494 -0.0019493469 -0.0034826736 
   11600    6.2956663    5.8324183    1.8395537    13.967638   0.16758166    1.8395537    1.5045512 -0.0011146481 -0.00067000506 
   11700    8.0200204    4.2621116    3.4763732    15.758505    1.7378884    3.4763732    1.5025431 -0.0011589899 -0.0039476602 
   11800    6.0705156    3.3787978    1.7400302    11.189344    2.6212022    1.7400302    1.5019998 0.00058744802 -0.00047606091 
   11900    5.6417846    4.9177613    1.8515738     12.41112    1.0822387    1.8515738    1.5032755 -0.00051289004 -0.00069659658 
   12000    9.3055496    2.2689224    2.4296948    14.004167    3.7310776    2.4296948     1.501636 0.00086758857 -0.0018561176 
   12100    6.6107843    6.6744399   0.73343167    14.018656  -0.67443987   0.73343167    1.5039099 -0.00093858103 0.0015409564 
   12200    5.1859105    6.6599427    3.8628828    15.708736  -0.65994271    3.8628828    1.5034477 -0.003015217 -0.0047188702 
   12300    4.4381617    5.0569424    3.8704275    13.365532   0.94305756    3.8704275    1.5037099 -0.0019515799 -0.0047334351 
   12400    6.2890962      8.36433  0.082230301    14.735656     -2.36433  0.082230301    1.5064476 -0.0016310402 0.0028484346 
   12500    9.2231464    2.0888109    1.3206285    12.632586    3.9111891    1.3206285    1.5013738 0.0017270404 0.00036149062 
   12600    7.3206138    2.2263344   0.30408988     9.851038    3.7736656   0.30408988    1.5013302 0.0023130505 0.0023944806 
   12700    5.0929553    4.6283138    1.3947586    11.116028    1.3716862    1.3947586    1.5025647 -1.5381629e-05 0.00021561228 
   12800    2.8108455    11.772834   0.77945751    15.363137    -5.772834   0.77945751    1.5055569 -0.0043681943 0.0014521988 
   12900    6.8391052    3.6327094   0.13892213    10.610737    2.3672906   0.13892213    1.5023714  0.001485579 0.0027268986 
   13000    8.3237406    4.0374798   0.15506697    12.516287    1.9625202   0.15506697    1.5023554 0.0012049688 0.0026945769 
   13100    5.9246856    2.7139677     5.459118    14.097771    3.2860323     5.459118    1.5020979 -0.0014487238 -0.0079140402 
   13200    3.4150325    7.2465668    3.7472765    14.408876   -1.2465668    3.7472765    1.5044597 -0.0033292288 -0.0044856335 
   13300    5.1271033    2.9466036    2.3377845    10.411491    3.0533964    2.3377845    1.5022274 0.00047707456 -0.0016711142 
   13400     4.494916     3.237457     0.554677      8.28705     2.762543     0.554677    1.5021496 0.0014719107 0.0018949451 
   13500    7.2877079    6.0909755   0.24732603    13.626009 -0.090975472   0.24732603     1.504733 -0.00022553433  0.002514814 
   13600    4.3038616    9.6113054    3.4021828     17.31735   -3.6113054    3.4021828    1.5064539 -0.0046756588 -0.0037914578 
   13700    4.3347213    5.2193441   0.06468773    9.6187532   0.78065585   0.06468773    1.5035133 0.00047731208 0.0028776511 
   13800    3.7767794    2.8155761   0.51782861    7.1101841    3.1844239   0.51782861    1.5021439 0.0017777302 0.0019686305 
   13900    2.2248219    2.0892426    4.3728888    8.6869533    3.9107574    4.3728888    1.5015878 -0.0003080876 -0.0057426021 
   14000    7.0390546     1.654876    1.6982307    10.392161     4.345124    1.6982307    1.5011902 0.0017645956 -0.00039408095 
   14100    9.9756039    3.3108304   0.95692885    14.243363    2.6891696   0.95692885     1.501612 0.0011548272 0.0010893663 
   14200    3.9007712    4.1718132   0.84709242    8.9196768    1.8281868   0.84709242    1.5019144 0.00065406294  0.001309644 
   14300    2.7793765    3.7344084   0.61787603     7.131661    2.2655916   0.61787603     1.502839 0.0010984771 0.0017699259 
   14400    5.9268164     5.414351    1.3057407    12.646908   0.58564896    1.3057407    1.5041468 -0.00048006117 0.00039681224 
   14500    7.4915411    6.2796967   0.56605051    14.337288  -0.27969672   0.56605051    1.5042817 -0.00056383148 0.0018764624 
   14600    4.1996777    3.1146513   0.56980135    7.8841304    2.8853487   0.56980135    1.5018395 0.0015436982 0.0018640763 
   14700    4.7172449     2.528272    1.3417588    8.5872756     3.471728    1.3417588    1.5018954 0.0014199795 0.00032027332 
   14800    3.8638862    4.7667838    2.4526153    11.083285    1.2332162    2.4526153    1.5033435 -0.00081293276 -0.0018985437 
   14900    3.8246083    3.7333694   0.18224557    7.7402234    2.2666306   0.18224557    1.5024229   0.00138959 0.0026403547 
   15000    5.7172873    3.4944543    1.3937423    10.605484    2.5055457    1.3937423     1.502383 0.00074120224 0.0002172813 
   15100    5.1409878    2.7925693   0.48786546    8.4214226    3.2074307   0.48786546    1.5019617 0.0018130435 0.0020281925 
   15200    3.4336829     3.750062   0.59790644    7.7816514     2.249938   0.59790644    1.5024061 0.0011013544 0.0018089993 
   15300    9.5255151    8.5771176    1.4648239    19.567457   -2.5771176    1.4648239    1.5057429 -0.0026946277 8.1838116e-05 
   15400    8.7933761    3.7068521    2.2061799    14.706408    2.2931479    2.2061799    1.5022852 5.7978722e-05 -0.0014077894 
   15500    8.2532328    2.5476048   0.24285287     11.04369    3.4523952   0.24285287    1.5015138 0.0021396949 0.0025173218 
   15600    2.6719646     4.960151   0.70593413    8.3380497     1.039849   0.70593413     1.503656 0.0002226099 0.0015954438 
   15700    8.2733964    5.9876885  0.051881063    14.312966  0.012311507  0.051881063    1.5046042 -2.6379704e-05 0.0029054464 
   15800    10.972714    6.4953934    4.2180002    21.686108   -0.4953934    4.2180002    1.5050648 -0.0031422624 -0.0054258708 
   15900    4.0433135   0.85342125   0.25728151    5.1540163    5.1465788   0.25728151    1.5004904 0.0032595315 0.0024864177 
   16000    3.4174098     2.398526    1.2373713    7.0533072     3.601474    1.2373713    1.5011605 0.0015760684 0.00052757832 
   16100     4.845593    3.6723486    1.8926674    10.410609    2.3276514    1.8926674    1.5024131 0.00028998928 -0.00078050868 
   16200    6.2317914    10.077408    3.9785462    20.287746   -4.0774084    3.9785462    1.5073269 -0.0053706364 -0.0049424385 
   16300    2.4700238    2.2197365  0.084793569    4.7745539    3.7802635  0.084793569    1.5013891 0.0024636466  0.002833191 
   16400    6.2732091    4.2030663   0.67486451     11.15114    1.7969337   0.67486451    1.5026622 0.00074804615 0.0016555953 
   16500    3.5949598    4.7851018   0.50648999    8.8865516    1.2148982   0.50648999    1.5035155 0.00047227211 0.0019940511 
   16600    9.0711047    4.9719051   0.58633147    14.629341    1.0280949   0.58633147     1.503111 0.00029450893 0.0018335591 
   16700    4.7900277    5.0959057   0.68209342    10.568027   0.90409435   0.68209342    1.5033746 0.00014800062 0.0016425623 
   16800    3.2080138    3.7553578    1.3841443    8.3475158    2.2446422    1.3841443    1.5025791 0.00057366528 0.00023686975 
   16900    6.2785842    4.7319881    1.0908297    12.101402    1.2680119    1.0908297    1.5027847 0.00011812147 0.00082391006 
   17000     4.798613    4.1614133     1.110181    10.070207    1.8385867     1.110181     1.502739 0.00048560381 0.00078511614 
   17100    4.6763534    5.5515124   0.74975879    10.977625   0.44848764   0.74975879    1.5042896 -0.00020084743 0.0015090616 
   17200    14.204891    8.0172667   0.49003556    22.712193   -2.0172667   0.49003556    1.5055059 -0.0016715348 0.0020309407 
   17300    8.4702836    7.7794669   0.98093902     17.23069   -1.7794669   0.98093902    1.5055828 -0.0018402706 0.0010492876 
   17400    6.2691327    5.9130141    2.4463376    14.628484  0.086985887    2.4463376    1.5046304 -0.0015729011 -0.0018834143 
   17500    6.9665172    8.8051482    4.5426081    20.314273   -2.8051482    4.5426081     1.504417 -0.0048985042 -0.0060763822 
   17600    13.921298    5.0814389   0.14284235    19.145579   0.91856112   0.14284235    1.5035441 0.00051714585 0.0027214034 
   17700    6.4544521    5.8089938    1.2307532    13.494199   0.19100622    1.2307532    1.5040643 -0.00069316466 0.00054662211 
   17800    3.6491138    1.3694047    3.6985895    8.7171079    4.6305953    3.6985895    1.5009068 0.00062133721 -0.0043953653 
   17900    5.3727613    3.4316853    1.8490883    10.653535    2.5683147    1.8490883    1.5027094 0.00047948425 -0.00069275781 
   18000    3.5176541    10.411416   0.72079025     14.64986   -4.4114156   0.72079025    1.5079787 -0.0034214706 0.0015743769 
   18100    3.4384334    1.9315477      1.88093    7.2509112    4.0684523      1.88093     1.501343 0.0014583482 -0.00075917409 
   18200    9.8735536    6.9355009    1.1651486    17.974203  -0.93550088    1.1651486    1.5045534 -0.001400433 0.00067880965 
   18300    8.1029451    7.1402196    1.6637838    16.906949   -1.1402196    1.6637838    1.5043048 -0.0018693356 -0.00031895797 
   18400    5.6862534    6.4822655    2.2513427    14.419862  -0.48226547    2.2513427    1.5036451 -0.0018224055 -0.0014953952 
   18500    4.8333124    5.1588063    2.1009238    12.093043   0.84119366    2.1009238    1.5028361 -0.00083982012 -0.0011961755 
   18600    3.0347958    3.3703358   0.43346306    6.8385947    2.6296642   0.43346306    1.5020556 0.0014641341 0.0021371851 
   18700    5.1831983     4.661681   0.61653996    10.461419     1.338319   0.61653996    1.5033196  0.000481186 0.0017735592 
   18800    7.4397912    1.7523572   0.80317142    9.9953198    4.2476428   0.80317142      1.50109 0.0022963143 0.0013958372 
   18900    2.8358305    4.7621293   0.58429347    8.1822533    1.2378707   0.58429347    1.5035447 0.00043571813 0.0018385025 
   19000    4.3484454     3.875928    3.9834078    12.207781     2.124072    3.9834078    1.5024608 -0.0012395572 -0.004961894 
   19100    6.2831658    5.3066148    2.1671908    13.756971   0.69338518    2.1671908    1.5040057 -0.00098253705 -0.0013263702 
   19200    2.4816893    5.7725599    1.9086553    10.162905   0.22744008    1.9086553    1.5039282 -0.0011208102 -0.00080945425 
   19300    8.4440303    3.1819452   0.56529661    12.191272    2.8180548   0.56529661    1.5022315 0.0015018388 0.0018738697 
   19400    4.1500454    3.7436526    2.0456377    9.9393356    2.2563474    2.0456377    1.5024715 0.00014047317 -0.0010863325 
   19500    8.5403531    6.0104238   0.24459297     14.79537 -0.010423811   0.24459297    1.5041292 -0.00017001119 0.0025190724 
   19600    4.0909374    7.2693945   0.33731734    11.697649   -1.2693945   0.33731734    1.5050317 -0.0010711412 0.0023354288 
   19700     8.060006    3.2546649     1.861202    13.175873    2.7453351     1.861202    1.5017469 0.00058942209 -0.00071891018 
   19800    5.5695559    2.8497938   0.63903965    9.0583894    3.1502062   0.63903965    1.5019921  0.001674111  0.001725905 
   19900    8.5337996     9.032604   0.48182223    18.048226    -3.032604   0.48182223    1.5064286 -0.0023429508 0.0020492128 
   20000    4.0051962    4.1304183   0.50131458    8.6369291    1.8695817   0.50131458    1.5031361 0.0009121781  0.002003643 
   20100    3.4442836    4.7623071    2.7221641    10.928755    1.2376929    2.7221641     1.503364 -0.00098964744 -0.0024376002 
   20200    3.6666524    5.5364977   0.39239601    9.5955462   0.46350228   0.39239601    1.5033501 4.7404179e-05 0.0022219082 
   20300     7.659158    3.3019725   0.87880907     11.83994    2.6980275   0.87880907    1.5025307 0.0012128123 0.0012474432 
   20400    9.5465079    6.1558901  0.074213613    15.776612  -0.15589007  0.074213613    1.5045055 -0.00015340246 0.0028605838 
   20500    4.2361329    3.7112899     0.401252    8.3486749    2.2887101     0.401252    1.5027292 0.0012583054 0.0022029543 
   20600    10.085635    4.7824171   0.99820368    15.866255    1.2175829   0.99820368    1.5025896 0.00014625282 0.0010087718 
   20700    7.6861418    2.3751791   0.79865396    10.859975    3.6248209   0.79865396    1.5013622 0.0018841113 0.0014054165 
   20800    9.8052503    4.6264537    1.3021196    15.733824    1.3735463    1.3021196    1.5027733 4.7617839e-05 0.00040130756 
   20900    6.0534167    5.1164483   0.38085099    11.550716   0.88355166   0.38085099    1.5033036 0.00033513379 0.0022449052 
   21000    3.8772791    1.7749206   0.85189411    6.5040938    4.2250794   0.85189411    1.5010602 0.0022487902 0.0012983323 
   21100    4.5797392    3.0950368   0.96751567    8.6422916    2.9049632   0.96751567     1.502301 0.0012916317 0.0010695707 
   21200    10.346638    2.9110243     1.151766    14.409428    3.0889757     1.151766    1.5015492 0.0012914731 0.00069956649 
   21300    6.8804452    2.2008417    1.8480772    10.929364    3.7991583    1.8480772    1.5012834 0.0013007207 -0.00069358763 
   21400    5.6169276    2.6789967    3.4001762    11.696101    3.3210033    3.4001762    1.5014392 -5.2781974e-05 -0.003797474 
   21500     6.013998    2.0093459    1.2881003    9.3114442    3.9906541    1.2881003    1.5015249 0.0018017026 0.00042684921 
   21600    6.2853544    4.3024552   0.39908575    10.986895    1.6975448   0.39908575    1.5032797 0.00086563939  0.002208388 
   21700    9.8681701    3.7308645   0.32792482    13.926959    2.2691355   0.32792482    1.5024836 0.0012941405 0.0023491176 
   21800    9.4085874    6.6720999   0.51824439    16.598932  -0.67209991   0.51824439    1.5040144 -0.00079356287 0.0019715399 
   21900    2.4532042    3.7367636   0.50307312     6.693041    2.2632364   0.50307312    1.5021637 0.0011734422 0.0019981812 
   22000    8.2977243    1.3614929   0.77599645    10.435214    4.6385071   0.77599645    1.5009236 0.0025750071 0.0014498542 
   22100     8.775766    6.7031975    2.2412622    17.720226   -0.7031975    2.2412622     1.504877 -0.0019629731 -0.0014727704 
   22200    5.7516275      1.84339   0.21894621    7.8139637      4.15661   0.21894621    1.5012666 0.0026251092 0.0025646408 
   22300    5.1017226    4.3782812   0.14744072    9.6274445    1.6217188   0.14744072    1.5024899 0.00098285203 0.0027100984 
   22400    9.1529948    2.0754581   0.13903109    11.367484    3.9245419   0.13903109     1.500987 0.0025236739 0.0027239119 
   22500    6.4152105    1.7348354   0.18993678    8.3399828    4.2651646   0.18993678     1.500936 0.0027168185 0.0026219984 
   22600    4.6034122    3.9217843    1.7784013    10.303598    2.0782157    1.7784013    1.5029317 0.00019987625 -0.00055093924 
   22700    5.4929248    5.6563736    1.3590297    12.508328   0.34362642    1.3590297    1.5034016 -0.0006769355 0.0002887439 
   22800    7.1297252    4.9815264    2.1951408    14.306392    1.0184736    2.1951408    1.5027336 -0.00078444484 -0.0013848145 
   22900    7.0784359    5.5541835    0.8215115    13.454131   0.44581648    0.8215115    1.5032143 -0.00025046335 0.0013634055 
   23000    4.2786507    2.2239347   0.85855722    7.3611426    3.7760653   0.85855722    1.5013614 0.0019450054 0.0012856084 
   23100    6.5620333    1.8900625    1.8578989    10.309995    4.1099375    1.8578989    1.5012888 0.0015013591 -0.00071322021 
   23200    5.6978075    3.1145016    3.2343852    12.046694    2.8854984    3.2343852    1.5022528 -0.00023259123 -0.0034642648 
   23300    7.6651304     5.924285   0.26398083    13.853396  0.075714978   0.26398083    1.5038668 -0.00012551057 0.0024797719 
   23400    8.2311559    3.9556344    3.7333829    15.920173    2.0443656    3.7333829    1.5029311 -0.0011260115 -0.0044609036 
   23500    8.4588421    4.1745382   0.95035549    13.583736    1.8254618   0.95035549    1.5028032 0.0005834042 0.0011048955 
   23600    9.7615563    4.3348164    1.4606864    15.557059    1.6651836    1.4606864    1.5027604 0.00013633147 8.4147969e-05 
   23700    3.5786489    1.8051873   0.45616359    5.8399998    4.1948127   0.45616359    1.5013293 0.0024924327 0.0020903314 
   23800    5.8727816    4.5794643   0.68332127    11.135567    1.4205357   0.68332127    1.5032902 0.00049147631 0.0016399379 
   23900    7.3004175    1.8168694   0.33841467    9.4557016    4.1831306   0.33841467    1.5010369  0.002563144 0.0023252444 
   24000    4.2733086    2.1925751    4.5085524    10.974436    3.8074249    4.5085524    1.5011486 -0.00046741829 -0.0060148075 
   24100    5.4160262    1.7747815   0.79405363    7.9848614    4.2252185   0.79405363    1.5012095 0.0022874432 0.0014143118 
   24200    5.2590638    7.3768251    1.0747854    13.710674   -1.3768251    1.0747854    1.5036282 -0.001634407 0.00085768557 
   24300    5.7317996    1.9553159    1.9307001    9.6178156    4.0446841    1.9307001    1.5013438 0.0014093226 -0.00085871269 
   24400    6.3258116    6.2421975   0.74791251    13.315922  -0.24219753   0.74791251    1.5039431 -0.00066007336 0.0015120611 
   24500    2.7616485    2.8669358     0.267789    5.8963733    3.1330642     0.267789     1.501557 0.0019101835 0.0024675359 
   24600    3.9210244    5.2704911    1.6073976    10.798913   0.72950893    1.6073976    1.5041316 -0.00058525911 -0.00020653194 
   24700    3.8108266    2.7111177    1.5948845    8.1168288    3.2888823    1.5948845    1.5018829 0.0011293319 -0.0001860033 
   24800    8.2721376    3.2156088   0.69268186    12.180428    2.7843912   0.69268186    1.5024435 0.0013944729 0.0016195232 
   24900    7.4101043    4.0016817   0.79197413     12.20376    1.9983183   0.79197413    1.5020855 0.00080422946 0.0014202227 
   25000    7.3561628    2.5377508   0.42841797    10.322332    3.4622492   0.42841797    1.5015161 0.0020225541 0.0021461963 
   25100    7.0409037    4.2367248    2.2720383    13.549667    1.7632752    2.2720383     1.502527 -0.00033917541 -0.0015390228 
   25200    8.0806918    6.0224702   0.24219305    14.345355 -0.022470206   0.24219305    1.5042355 -0.00017644217 0.0025240849 
   25300    1.7274394     4.496109   0.43463996    6.6581884     1.503891   0.43463996    1.5029721 0.00071283401 0.0021366643 
   25400    4.9395246    2.7611205    1.1697925    8.8704376    3.2388795    1.1697925    1.5018316 0.0013793914 0.0006640782 
   25500    6.7110595    3.9263767    1.2354164    11.872853    2.0736233    1.2354164    1.5026436 0.00055880456 0.00053445426 
   25600    5.1376115    6.8400342  0.048641773    12.026287  -0.84003423  0.048641773    1.5035793 -0.00059245067  0.002909875 
   25700    7.4054388    3.2725868     0.310447    10.988473    2.7274132     0.310447    1.5025401 0.0016113108 0.0023841861 
   25800    7.1807713     7.274167    1.9658923    16.420831    -1.274167    1.9658923    1.5038759 -0.0021600395 -0.00092403266 
   25900    4.8661113    1.7155209   0.69785465    7.2794869    4.2844791   0.69785465     1.501283  0.002391083 0.0016068568 
   26000    2.7791883    7.5703661   0.19250717    10.542062   -1.5703661   0.19250717     1.505349 -0.0011752489 0.0026256836 
   26100    4.8954403    2.1049469   0.82474681     7.825134    3.8950531   0.82474681    1.5011087 0.0020468709 0.0013527237 
   26200    1.2619173    2.5200528   0.46627413    4.2482442    3.4799472   0.46627413    1.5018214 0.0020091153 0.0020710946 
   26300    7.7821955      5.63821    2.9905018    16.410907   0.36179002    2.9905018     1.503046 -0.0017524745 -0.0029749115 
   26400    5.0587188    5.3372896   0.70284124     11.09885   0.66271039   0.70284124    1.5028674 -2.6753901e-05 0.0016000524 
   26500    9.7328236    4.1669287   0.11065138    14.010404    1.8330713   0.11065138    1.5031021 0.0011482799 0.0027849015 
   26600     9.642385    4.6182988    1.0700572    15.330741    1.3817012    1.0700572     1.502834 0.00020776269 0.0008655536 
   26700    7.0393808    3.7692873    1.0556087    11.864277    2.2307127    1.0556087     1.502968 0.00078340273 0.0008947186 
   26800    6.3192864    3.9530578   0.90821286    11.180557    2.0469422   0.90821286    1.5019147 0.00075915293 0.0011874037 
   26900    4.9888528    2.3766231    2.2538264    9.6193023    3.6233769    2.2538264    1.5015365 0.00091303363 -0.0015045798 
   27000    9.4371243    2.8879949   0.48872701    12.813846    3.1120051   0.48872701    1.5020169 0.0017488521 0.0020265798 
   27100    5.3782734    3.4024294   0.45818007    9.2388829    2.5975706   0.45818007    1.5025997 0.0014262604 0.0020888392 
   27200    5.6770949    4.3977692    1.3587317    11.433596    1.6022308    1.3587317    1.5024547 0.00016233272 0.00028744605 
   27300     4.455627    3.2048148    0.6945889    8.3550307    2.7951852    0.6945889    1.5022196 0.0014003975 0.0016152614 
   27400    8.4230939    6.2370808    2.4378453     17.09802  -0.23708079    2.4378453      1.50369 -0.0017832841 -0.0018683106 
   27500    6.2266655    4.1651092    3.7429136    14.134688    1.8348908    3.7429136    1.5022889 -0.0012720153 -0.0044812495 
   27600    5.3651803    3.5247801   0.58588005    9.4758405    2.4752199   0.58588005    1.5023556 0.0012595599 0.0018329511 
   27700    7.4403089    6.8489108     2.243382    16.532602  -0.84891082     2.243382     1.504806 -0.0020615286 -0.0014771521 
   27800    3.4598522    7.7039772     2.185302    13.349131   -1.7039772     2.185302    1.5052358 -0.0025928528 -0.0013601324 
   27900    4.0206005    5.6665476    2.8068074    12.493956   0.33345238    2.8068074    1.5037421 -0.0016489034 -0.0026061306 
   28000    4.1528885     3.680276   0.23412287    8.0672874     2.319724   0.23412287    1.5023271 0.0013904007 0.0025364084 
   28100    3.1460268     5.960232   0.77538158    9.8816404  0.039768007   0.77538158    1.5039536 -0.00049040905 0.0014571441 
   28200    3.8075428    3.1118379  0.069506859    6.9888876    2.8881621  0.069506859    1.5018882 0.0018791035 0.0028647627 
   28300    10.088401    3.3132432   0.38600927    13.787653    2.6867568   0.38600927     1.502374 0.0015338317 0.0022327295 
   28400    6.0978481    3.8717122    1.0556077    11.025168    2.1282878    1.0556077    1.5027038 0.00071512011 0.00089419226 
   28500    6.6623095    4.6792602   0.25885142    11.600421    1.3207398   0.25885142     1.503199 0.0007079256 0.0024886951 
   28600    10.541462    2.0254614   0.29763211    12.864556    3.9745386   0.29763211    1.5015676  0.002451271  0.002407871 
   28700    5.2029445    4.2527242    1.7683625    11.224031    1.7472758    1.7683625    1.5027493 -1.4057834e-05 -0.00053122645 
   28800    4.9918747     5.846951    1.0305635    11.869389   0.15304899    1.0305635     1.503968 -0.00058500968 0.00094680907 
   28900    8.2620965    7.6515917   0.96140585    16.875094   -1.6515917   0.96140585    1.5042602 -0.0017419984 0.0010857087 
   29000    3.8932889    3.8187439   0.88553116    8.5975639    2.1812561   0.88553116    1.5022487 0.00086381664 0.0012334352 
   29100    5.4606015    2.8990807    4.7308478     13.09053    3.1009193    4.7308478    1.5020593 -0.001086619 -0.006457577 
   29200    9.5700099    6.5369651     1.445346    17.552321  -0.53696507     1.445346    1.5050231 -0.0013215407 0.00011935405 
   29300    6.6918213    5.1673804    1.3620232    13.221225   0.83261958    1.3620232    1.5037495 -0.00035293574 0.00028345257 
   29400    7.2785846    5.1212673   0.23255488    12.632407   0.87873272   0.23255488    1.5035116 0.00043078523 0.0025419135 
   29500     5.649996    3.9916713     1.756761    11.398428    2.0083287     1.756761    1.5026452 0.00016771179 -0.00050823152 
   29600     6.103243    9.5356041    1.7573905    17.396238   -3.5356041    1.7573905    1.5048554 -0.003528663  -0.00050507 
   29700     5.786435    5.6801946    1.9930965    13.459726   0.31980536    1.9930965    1.5034075 -0.0011155274 -0.00097937806 
   29800    8.0281612    2.7359621     2.005917     12.77004    3.2640379     2.005917    1.5013938 0.00083874729 -0.0010090464 
   29900    5.8193523    2.9313185    2.6769387     11.42761    3.0686815    2.6769387    1.5021073 0.00026116182 -0.0023496628 
   30000    1.8564275      4.53669    1.9339842    8.3271017      1.46331    1.9339842      1.50289 -0.00031378279 -0.00086218846 
   30100    8.1987547    3.6073422   0.73589735    12.541994    2.3926578   0.73589735    1.5025991  0.001104507 0.0015334035 
   30200    3.6827638    2.7424319    2.6719353    9.0971311    3.2575681    2.6719353    1.5017086 0.00039042183 -0.0023404534 
   30300    4.2452092     7.944172   0.70984528    12.899226    -1.944172   0.70984528    1.5044906 -0.0017693448 0.0015892906 
   30400    4.1704913    6.0054349    1.1257591    11.301685 -0.0054348818    1.1257591    1.5033037 -0.00075412932 0.00075508916 
   30500    2.7925165    3.0498313    1.1819342     7.024282    2.9501687    1.1819342    1.5014796  0.001178823 0.00063909075 
   30600    4.3767452    11.125077   0.54356621    16.045389   -5.1250774   0.54356621    1.5071637 -0.0037790958  0.001927195 
   30700    6.5884504    6.3578319    1.5449776     14.49126  -0.35783189    1.5449776    1.5039866 -0.0012685397 -8.1982066e-05 
   30800    8.4443798    7.3830878   0.44788634    16.275354   -1.3830878   0.44788634    1.5044854 -0.0012206494 0.0021131981 
   30900    6.2465377    4.3593135    1.7011118    12.306963    1.6406865    1.7011118    1.5028151 -4.0283531e-05 -0.00039659335 
   31000    5.3913555    1.8805019    1.3391814    8.6110387    4.1194981    1.3391814     1.501237 0.0018535445 0.00032411133 
   31100    6.3688612    2.5401896    5.0076199    13.916671    3.4598104    5.0076199    1.5014454 -0.001031873 -0.0070123492 
   31200    5.2819937    4.5595839    1.2047789    11.046357    1.4404161    1.2047789    1.5032211 0.00015709146 0.00059688444 
   31300    5.7112241    5.7799753    2.0447806     13.53598   0.22002474    2.0447806    1.5032824 -0.0012165039 -0.0010829964 
   31400     6.734394    11.319884   0.82365459    18.877933   -5.3198843   0.82365459    1.5087628 -0.0040956926 0.0013702164 
   31500    3.6626945    2.7013829     2.032241    8.3963185    3.2986171     2.032241    1.5020404 0.0008442507 -0.0010604012 
   31600    3.9944666    7.5328482    1.2959036    12.823218   -1.5328482    1.2959036    1.5040795 -0.0018858346 0.00041635177 
   31700    5.3495371    5.2878539   0.99913592    11.636527   0.71214612   0.99913592    1.5035767 -0.00019132653 0.0010088815 
   31800    5.8092967    2.6101656    0.7695315    9.1889938    3.3898344    0.7695315    1.5012339 0.0017468686 0.0014634049 
   31900      5.63268    7.9963043    1.4648231    15.093807   -1.9963043    1.4648231    1.5062936 -0.0023074183 8.2941142e-05 
   32000     6.516998    3.2783284     1.424236    11.219562    2.7216716     1.424236    1.5019924 0.0008649571 0.00015551289 
   32100    2.6166567    3.6676023    1.9557136    8.2399726    2.3323977    1.9557136    1.5027699 0.00025112274 -0.0009058874 
   32200    3.5097178     5.408087    0.5648431    9.4826479   0.59191304    0.5648431     1.503904 1.8046626e-05 0.0018781218 
   32300    11.478815    4.6910304   0.28264567    16.452492    1.3089696   0.28264567    1.5032036 0.00068421593 0.0024411159 
   32400    7.6036317     4.912393   0.29160504     12.80763     1.087607   0.29160504    1.5031097 0.00053066794 0.0024230092 
   32500    8.7837956    4.2123342    5.7293953    18.725525    1.7876658    5.7293953    1.5020629 -0.0026278197 -0.0084546648 
   32600    6.1440975    4.3111783   0.25977985    10.715056    1.6888217   0.25977985     1.502972 0.00095269455 0.0024863844 
   32700    7.0986116    7.3110365    1.8497728    16.259421   -1.3110365    1.8497728    1.5050359 -0.0021072062 -0.00068947366 
   32800    3.0909013    2.3543762    1.5092743    6.9545518    3.6456238    1.5092743    1.5016476  0.001424233 -1.5253508e-05 
   32900    4.3151189      2.06134   0.62246231    6.9989213      3.93866   0.62246231    1.5014553 0.0022107984 0.0017579859 
   33000    5.9124975    2.3929276   0.45069614    8.7561212    3.6070724   0.45069614    1.5014917 0.0021042508 0.0021015911 
   33100    4.0927691    6.1777648   0.83332331    11.103857  -0.17776484   0.83332331    1.5043278 -0.00067405877  0.001342009 
   33200    8.1115933     6.872538    1.3286482     16.31278  -0.87253805    1.3286482    1.5047048 -0.0014674575 0.00035211304 
   33300    5.6829112    1.6978667   0.83475075    8.2155286    4.3021333   0.83475075    1.5011284 0.0023115883 0.0013327552 
   33400    4.8349317    4.1927695   0.53368009    9.5613814    1.8072305   0.53368009    1.5031919 0.00084903358 0.0019390236 
   33500     1.993043    2.0520218   0.57387884    4.6189436    3.9479782   0.57387884    1.5015279 0.0022493996 0.0018552981 
   33600     8.944808    5.7788215   0.46767068      15.1913   0.22117847   0.46767068    1.5039435 -0.00016432814 0.0020725456 
   33700    5.0155536    3.6130225    1.1680179     9.796594    2.3869775    1.1680179    1.5026386 0.00081263975 0.00066924141 
   33800    5.4178839    7.6813193  0.090527827    13.189731   -1.6813193  0.090527827    1.5060164 -0.0011812314 0.0028309771 
   33900    3.6716365    4.5080513   0.34122379    8.5209116    1.4919487   0.34122379    1.5034463 0.00076714997  0.002324445 
   34000    5.7500899    1.1439167    2.3732473    9.2672539    4.8560833    2.3732473    1.5008103  0.001655224 -0.0017448741 
   34100    5.0126599    4.1461843   0.72857572    9.8874199    1.8538157   0.72857572    1.5029381   0.00075016 0.0015487248 
   34200    2.5710302     4.368546    1.3915873    8.3311635     1.631454    1.3915873    1.5026635 0.00015991113 0.00022215236 
   34300    4.8405701    6.6801335    1.7915889    13.312293  -0.68013352    1.7915889     1.504579 -0.0016478149 -0.00057401971 
   34400    3.9213115    4.1220669    1.5230358    9.5664142    1.8779331    1.5230358    1.5022441 0.00023659816 -4.158346e-05 
   34500    4.2905994    1.5169703   0.11479179    5.9223615    4.4830297   0.11479179    1.5010232 0.0029121586 0.0027724629 
   34600    3.4295468    4.5284038   0.72534389    8.6832945    1.4715962   0.72534389    1.5030058 0.00049750152 0.0015553238 
   34700    5.1370524    8.0764672     2.869345    16.082865   -2.0764672     2.869345     1.506254 -0.0032972081 -0.0027261819 
   34800     3.683657    4.4956827     2.815884    10.995224    1.5043173     2.815884    1.5033125 -0.00087437775 -0.0026251428 
   34900    6.8324062    8.7402892    5.5491358    21.121831   -2.7402892    5.5491358    1.5054897 -0.0055262833 -0.0080872923 
   35000    7.4906987    1.6920748    2.2099966     11.39277    4.3079252    2.2099966    1.5011885  0.001398619 -0.0014176161 
   35100     8.143356    8.7700072    3.3088813    20.222245   -2.7700072    3.3088813    1.5068786 -0.0040525924 -0.0036040054 
   35200    8.9144331    2.2253143    0.3175419    11.457289    3.7746857    0.3175419    1.5013591 0.0023047625 0.0023676345 
   35300    5.4010709    9.3689223    3.6678654    18.437859   -3.3689223    3.6678654    1.5067622 -0.0046911918 -0.0043222064 
   35400    5.4559194    5.9402003   0.56007337    11.956193  0.059799711   0.56007337    1.5043576 -0.00033351578 0.0018885684 
   35500    6.0861848    9.6742568    2.7362731    18.496715   -3.6742568    2.7362731    1.5069572 -0.0042736866 -0.0024586319 
   35600    2.6166255    7.7856152   0.99790413    11.400145   -1.7856152   0.99790413    1.5049287 -0.0018556795 0.0010140492 
   35700    4.0905107    7.0992828   0.45910472    11.648898   -1.0992828   0.45910472    1.5040753 -0.001038925 0.0020899411 
   35800    5.6150103    3.3663642    1.6369166    10.618291    2.6336358    1.6369166    1.5022648 0.00066447951 -0.00026930358 
   35900    10.353034    7.1452752    2.3033301     19.80164   -1.1452752    2.3033301    1.5051153 -0.0022990702 -0.0015964295 
   36000    9.4217153    4.0257524   0.42880329    13.876271    1.9742476   0.42880329    1.5026612 0.0010302962 0.0021477159 
   36100    3.0598585    6.5004778  0.069354193    9.6296906  -0.50047782  0.069354193    1.5039169 -0.00037988801 0.0028691254 
   36200    6.0428797    3.3307848   0.11275766    9.4864221    2.6692152   0.11275766     1.501913  0.001704305 0.0027783107 
   36300    12.115525     6.853729   0.56295578     19.53221  -0.85372901   0.56295578    1.5047207 -0.00094445653 0.0018835298 
   36400    5.3825686    2.9831427   0.89278985    9.2585011    3.0168573   0.89278985    1.5020898  0.001416045 0.0012185999 
   36500    6.4061948    6.4012792    2.2678365     15.07531  -0.40127919    2.2678365    1.5043743 -0.0017794104 -0.0015269242 
   36600    4.6449449    3.7421347   0.76828685    9.1553665    2.2578653   0.76828685    1.5028916 0.00099305229 0.0014692095 
   36700    3.6057534     4.137258    2.3828527    10.125864     1.862742    2.3828527    1.5022097 -0.00034674052 -0.001761286 
   36800    4.2517766    2.6942622    3.0939468    10.039986    3.3057378    3.0939468    1.5017741 0.00014119399 -0.0031843455 
   36900    5.2102436    4.9445027    1.6644655    11.819212    1.0554973    1.6644655    1.5032001 -0.0004059788 -0.0003225309 
   37000    8.7131882    3.6074212    1.3631412    13.683751    2.3925788    1.3631412    1.5025065 0.00068629167 0.00027873049 
   37100    7.1494474    4.0539891    1.3749623    12.578399    1.9460109    1.3749623    1.5031103 0.00038069907 0.00025629601 
   37200     4.827683    9.4436718    1.5666991    15.838054   -3.4436718    1.5666991    1.5052145 -0.0033402473 -0.00012296917 
   37300    4.7592288    6.0078159    1.0753426    11.842387 -0.0078158664    1.0753426    1.5036103 -0.00072210565 0.00085653536 
   37400    5.7696005    5.2623447    5.1606948     16.19264   0.73765529    5.1606948    1.5026771 -0.002948693 -0.0073160354 
   37500    3.0620604    11.313336    1.6678339     16.04323   -5.3133357    1.6678339    1.5059807 -0.0046541131 -0.00032370633 
   37600    7.6317916    8.2355728    2.4123489    18.279713   -2.2355728    2.4123489    1.5050737 -0.0030986145 -0.0018145505 
   37700    4.1503491    3.0320659    1.0719428    8.2543578    2.9679341    1.0719428    1.5023858 0.0012639942 0.00086088599 
   37800    7.9473032     3.372352   0.24899268    11.568648     2.627648   0.24899268    1.5020681 0.0015857702 0.0025061508 
   37900    4.3883168    6.5842184   0.34589605    11.318431  -0.58421841   0.34589605    1.5047674 -0.00062007631 0.0023177428 
   38000    3.7864334    2.9049944     0.359897    7.0513248    3.0950056     0.359897    1.5016034 0.0018234057 0.0022834127 
   38100    6.2670948    2.8753975   0.78330303    9.9257954    3.1246025   0.78330303    1.5016481 0.0015608663 0.0014366902 
   38200    5.2283637    6.1923108    1.4196988    12.840373  -0.19231076    1.4196988    1.5030927 -0.001074673 0.00016678774 
   38300    6.7060425    6.9128297    1.2952832    14.914155  -0.91282966    1.2952832    1.5042678 -0.0014720753 0.00041796906 
   38400    9.9099614    4.8519075    2.8813938    17.643263    1.1480925    2.8813938    1.5031447 -0.0011555342 -0.0027564982 
   38500    7.4306178    3.5649896   0.49343286     11.48904    2.4350104   0.49343286    1.5020626  0.001294385 0.0020172595 
   38600    4.3261625    3.8711665    1.8531192    10.050448    2.1288335    1.8531192    1.5025602 0.0001838095 -0.00070111812 
   38700    5.2839969    9.8120832    1.0726023    16.168682   -3.8120832    1.0726023     1.507164 -0.003256457 0.00086912339 
   38800    5.0656499    3.2683244   0.48653982    8.8205141    2.7316756   0.48653982    1.5023396 0.0014967572 0.0020315996 
   38900    5.0375669    3.4385703    1.4464655    9.9226027    2.5614297    1.4464655    1.5026152 0.00074330946 0.00011229948 
   39000    6.0410025    2.3216181    3.3162704    11.678891    3.6783819    3.3162704    1.5017496 0.00024140767 -0.0036290416 
   39100     6.323651    2.4158659   0.20277712    8.9422941    3.5841341   0.20277712    1.5014548  0.002254238 0.0025973553 
   39200    4.5485504    5.0633356    5.0227263    14.634612   0.93666436    5.0227263    1.5036317 -0.0027240413 -0.0070381892 
   39300    1.4298861     4.575677   0.99858017    7.0041433     1.424323   0.99858017    1.5027993 0.00028382855 0.0010084383 
   39400    6.0975948    4.8743547   0.41921812    11.391168    1.1256453   0.41921812     1.502784 0.00047095148 0.0021671317 
   39500    2.4241151    6.0794738   0.85694574    9.3605346  -0.07947381   0.85694574    1.5034789 -0.0006242797 0.0012930663 
   39600    9.4832583    1.9130331     3.774561    15.170852    4.0869669     3.774561    1.5014074 0.00020827056 -0.0045463073 
   39700    5.2648824    2.5434858    2.1231815    9.9315497    3.4565142    2.1231815    1.5015155 0.00088888849 -0.0012433319 
   39800    5.3320693    3.7396579    3.0250111    12.096738    2.2603421    3.0250111    1.5023186 -0.0005097793 -0.003045385 
   39900    5.5185173    4.6820398    2.0657795    12.266337    1.3179602    2.0657795    1.5032668 -0.00049854623 -0.0011250255 
   40000    10.124049    2.8287076    1.5987429    14.551499    3.1712924    1.5987429    1.5018818 0.0010483663 -0.00019372233 
   40100    9.1867808    5.4861998    1.4774681    16.150449   0.51380019    1.4774681    1.5041506 -0.00064244526 5.3364972e-05 
   40200    4.6129119    2.8925333    2.1480886    9.6535339    3.1074667    2.1480886    1.5017509 0.00063958537 -0.0012926755 
   40300    6.2270058    1.4597351    1.5477925    9.2345335    4.5402649    1.5477925    1.5010638 0.0019949815 -9.3457411e-05 
   40400    4.7099056    4.0527864   0.10851247    8.8712045    1.9472136   0.10851247    1.5026199 0.0012258007 0.0027882148 
   40500    10.145078    2.0734973   0.13386206    12.352437    3.9265027   0.13386206    1.5011575 0.0025284271  0.002734591 
   40600    13.770752    4.4051044    2.7888819    20.964738    1.5948956    2.7888819    1.5028424 -0.00079599086 -0.002572079 
   40700    4.5307933    8.2622978     1.616575    14.409666   -2.2622978     1.616575     1.505015 -0.0025859152 -0.00022312009 
   40800    4.0838143    7.0657124     2.048506    13.198033   -1.0657124     2.048506    1.5039545 -0.0020761456 -0.001089103 
   40900    8.6980805     3.245021   0.53884297    12.481944     2.754979   0.53884297    1.5024408  0.001477424 0.0019271956 
   41000    7.7138702    2.5924628   0.27814619    10.584479    3.4075372   0.27814619    1.5014756 0.0020862607 0.0024466588 
   41100    6.7237097     3.261745     1.053042    11.038497     2.738255     1.053042    1.5019123 0.0011234753 0.00089774053 
   41200    3.5413925    3.1058904   0.61955226    7.2668352    2.8941096   0.61955226    1.5023543 0.0015163716 0.0017656042 
   41300    2.5488731    4.5162005    1.5824266    8.6475002    1.4837995    1.5824266    1.5034253 -6.5751417e-05 -0.00015800262 
   41400    5.3525655    5.4557226   0.28061569    11.088904   0.54427743   0.28061569    1.5037401 0.00017577449 0.0024462488 
   41500    3.0853117    4.9503024    5.1447406    13.180355    1.0496976    5.1447406    1.5036016 -0.0027300286 -0.0072822778 
   41600    5.6367954    8.4850454    3.5764547    17.698296   -2.4850454    3.5764547    1.5063062 -0.0040410001 -0.004140297 
   41700    2.1895273    7.3121219    1.3057365    10.807386   -1.3121219    1.3057365     1.504699 -0.0017452389 0.00039792504 
   41800     9.030693    2.6412595    0.1576474      11.8296    3.3587405    0.1576474    1.5017572 0.0021340621 0.0026882195 
   41900    4.9066023    8.1155644   0.25799659    13.280163   -2.1155644   0.25799659    1.5052434 -0.001582374 0.0024944936 
   42000    7.5567783     4.626849    1.2348809    13.418508     1.373151    1.2348809    1.5033996 9.2180091e-05 0.00053703744 
   42100    3.9165973    6.1548702    2.0234368    12.094904  -0.15487016    2.0234368    1.5041435 -0.0014522046 -0.0010385865 
   42200    7.2261766    10.088168     0.565005    17.879349   -4.0881676     0.565005    1.5075013 -0.0031021151 0.0018849927 
   42300    5.9922296     5.575768    1.0905999    12.658597   0.42423203    1.0905999    1.5031867 -0.00044424522 0.00082517375 
   42400    3.6981082    6.6043538    1.2475123    11.549974  -0.60435383    1.2475123    1.5039852 -0.0012345774 0.00051294582 
   42500    7.2810786    1.4758684      1.13511     9.892057    4.5241316      1.13511    1.5008697 0.0022593477 0.00073151931 
   42600    5.8752933    5.1283643   0.23192691    11.235584   0.87163567   0.23192691    1.5032085 0.00042647251 0.0025425631 
   42700    2.8435929    4.6512932   0.59663036    8.0915164    1.3487068   0.59663036    1.5028694 0.0005013843 0.0018124781 
   42800    5.4061148    3.1875137    1.0695369    9.6631654    2.8124863    1.0695369    1.5021521 0.0011619663 0.00086523031 
   42900    2.3828063    2.1974611    3.0103153    7.5905827    3.8025389    3.0103153    1.5016681 0.00052814909 -0.0030172943 
   43000    7.7203672    8.5631395   0.27992472    16.563431   -2.5631395   0.27992472    1.5064745 -0.0018953761 0.0024530995 
   43100    6.1050645    8.1537102    1.8595091    16.118284   -2.1537102    1.8595091    1.5049987 -0.0026754796 -0.00070902075 
   43200    4.5265409    6.1821549    1.2836947    11.992391  -0.18215488    1.2836947    1.5045164 -0.00097723307 0.00044164327 
   43300    3.2984875     5.393527  0.070454316    8.7624689   0.60647299  0.070454316    1.5039288 0.00035734579  0.002866949 
   43400    3.0462966    4.3774409   0.59499272    8.0187302    1.6225591   0.59499272    1.5031853 0.00068504427 0.0018163852 
   43500    3.3130074    2.3514175   0.95045489    6.6148798    3.6485825   0.95045489    1.5015396 0.0017987517 0.0011021694 
   43600    5.4022246     3.717192   0.43372443     9.553141     2.282808   0.43372443    1.5022194 0.0012327224 0.0021369899 
   43700    5.4314118    2.4403605   0.76589802    8.6376704    3.5596395   0.76589802    1.5016225 0.0018624943  0.001471449 
   43800    8.6197693    6.2411496    1.7192795    16.580198  -0.24114961    1.7192795    1.5036766 -0.0013069527 -0.00043120581 
   43900     7.040271    3.3927947     1.473523    11.906589    2.6072053     1.473523    1.5026158 0.00075578823 5.8185649e-05 
   44000    5.2758583    2.9739293   0.88625919    9.1360468    3.0260707   0.88625919    1.5021496  0.001426541 0.0012317807 
   44100    6.8300245    2.7807706    2.3623297    11.973125    3.2192294    2.3623297    1.5018806 0.00057126649 -0.0017208981 
   44200    3.9751896    7.8045616   0.14709261    11.926844   -1.8045616   0.14709261    1.5051921 -0.0013011028  0.002716199 
   44300    5.3307525    10.303335   0.33538773    15.969475   -4.3033348   0.33538773    1.5077482 -0.0030924817 0.0023447209 
   44400    2.9268242    4.4072365    4.1087598    11.442821    1.5927635    4.1087598    1.5032872 -0.0016773309 -0.0052109452 
   44500    7.8498318    4.0724351    4.1679772    16.090244    1.9275649    4.1679772    1.5020797 -0.0014936082 -0.005331795 
   44600    8.5082465     3.995344    5.3928662    17.896457     2.004656    5.3928662    1.5024172 -0.0022588068 -0.0077808979 
   44700    9.9025057    5.6744348     5.112546    20.689487   0.32556515     5.112546    1.5037818 -0.0031913206 -0.0072175284 
   44800    3.4043207    5.2880409   0.27757834    8.9699399   0.71195911   0.27757834     1.503924 0.00028958718 0.0024526914 
   44900    11.088355    5.3278159   0.81328602    17.229457   0.67218406   0.81328602    1.5033695 -9.4067973e-05 0.0013801671 
   45000    3.8584763   0.97176057   0.77709153    5.6073284    5.0282394   0.77709153    1.5005496 0.0028340986 0.0014469161 
   45100    7.2803394    2.8821547    1.1233039    11.285798    3.1178453    1.1233039    1.5018661 0.0013296943 0.0007571244 
   45200    5.4333034    7.9027255    1.5862823    14.922311   -1.9027255    1.5862823    1.5049559 -0.0023260052 -0.0001626529 
   45300    2.7794518    3.4512333    1.6721506    7.9028357    2.5487667    1.6721506    1.5023728 0.00058441076 -0.0003395555 
   45400    8.3916848    7.1854448   0.49688884    16.074018   -1.1854448   0.49688884    1.5045582 -0.0011215557 0.0020153388 
   45500    4.6011861    2.4214202    1.1968689    8.2194752    3.5785798    1.1968689    1.5011455 0.0015878073 0.0006085532 
   45600     7.086856    3.9380456    1.0706636    12.095565    2.0619544    1.0706636    1.5021668 0.0006608605 0.00086300634 
   45700    5.2884279    3.9834736    1.8483467    11.120248    2.0165264    1.8483467    1.5023549 0.00011211976 -0.00069198361 
   45800    5.9045182    2.0169157    2.7466534    10.668087    3.9830843    2.7466534    1.5015417 0.00082428724 -0.0024902234 
   45900    7.9820162    3.9060283    1.8002419    13.688286    2.0939717    1.8002419    1.5028195 0.00019581984 -0.00059484494 
   46000    6.2768142    1.8514731    1.3947997     9.523087    4.1485269    1.3947997    1.5012914 0.0018358181 0.00021298334 
   46100     3.012907    7.6758693    1.6403567    12.329133   -1.6758693    1.6403567    1.5043009 -0.0022108173 -0.00027211142 
   46200    4.7121823    1.6917597    2.0764652    8.4804072    4.3082403    2.0764652    1.5011681 0.0014878501 -0.0011505942 
   46300     11.33318     2.856996   0.77974035    14.969916     3.143004   0.77974035    1.5019087 0.0015755091 0.0014443367 
   46400    1.9968564       9.7074   0.45668457    12.160941      -3.7074   0.45668457    1.5056112 -0.0027760564 0.0020978532 
   46500    4.9200461    5.2473949    1.2171637    11.384605   0.75260508    1.2171637    1.5032732 -0.00030970572 0.00057221907 
   46600    7.0076304    7.6283471    2.5478938    17.183871   -1.6283471    2.5478938    1.5044767 -0.0027841606 -0.0020868343 
   46700    4.3573848    5.4305276    3.3762815    13.164194   0.56947241    3.3762815    1.5031006 -0.001871206 -0.0037463616 
   46800    4.1011536    4.5061187   0.81893806    9.4262104    1.4938813   0.81893806    1.5027386 0.00044996213 0.0013676011 
   46900    4.1189048    1.5513173   0.50849685     6.178719    4.4486827   0.50849685    1.5010703 0.0026267905 0.0019851468 
   47000    6.5187041    4.5575748    4.3143683    15.390647    1.4424252    4.3143683    1.5032561 -0.0019146287 -0.0056222244 
   47100    6.0310497    3.8952501    3.8948001      13.8211    2.1047499    3.8948001    1.5028389 -0.0011933668 -0.0047839226 
   47200    4.5783554    10.029715    5.7638346    20.371905   -4.0297147    5.7638346    1.5061668 -0.0065290329 -0.0085153356 
   47300    5.2211903    4.2926448    1.8280735    11.341909    1.7073552    1.8280735    1.5024067 -8.0478908e-05 -0.00065133378 
   47400    4.7719627    4.4888816   0.85269786    10.113542    1.5111184   0.85269786    1.5027052 0.00043894702 0.0013000147 
   47500    4.5585755    8.6691908    1.7257843    14.953551   -2.6691908    1.7257843    1.5056995 -0.0029299834 -0.00044016951 
   47600    4.3212391   0.82648679     1.444907    6.5926328    5.1735132     1.444907    1.5005738 0.0024857375 0.00011133362 
   47700    4.9183612    6.7492378    4.6807571    16.348356   -0.7492378    4.6807571    1.5045191 -0.0036199966 -0.0063524759 
   47800    16.919764    1.3454572    2.0321613    20.297382    4.6545428    2.0321613    1.5009946 0.0017482543 -0.0010623335 
   47900      6.10318    6.1573837    2.4463872    14.706951  -0.15738369    2.4463872    1.5038135 -0.0017358473 -0.0018851475 
   48000    6.0863885    4.5721548    2.0891256    12.747669    1.4278452    2.0891256    1.5030933 -0.00044085358 -0.0011720645 
   48100    7.1392589   0.94470666    5.1195987    13.203564    5.0552933    5.1195987    1.5006751 -4.2870256e-05 -0.0072378472 
   48200    3.4391939    1.7497131    2.9017879    8.0906949    4.2502869    2.9017879    1.5013429 0.00089899933  -0.00280089 
   48300    3.3366973      3.58289    2.5191535    9.4387408      2.41711    2.5191535    1.5027869 -6.802898e-05 -0.0020327332 
   48400    7.7647246    6.0973721    1.1641651    15.026262 -0.097372082    1.1641651    1.5045262 -0.00084102477 0.00068072233 
   48500    4.7231588    4.0311575    1.2943222    10.048638    1.9688425    1.2943222     1.502757 0.00044968021 0.00041686965 
   48600    6.6801497    6.9173322    2.4412665    16.038748  -0.91733222    2.4412665    1.5048536 -0.0022390658 -0.0018728258 
   48700    2.1527237    5.6469504   0.89358089    8.6932549   0.35304963   0.89358089    1.5038791 -0.00036035417 0.0012205965 
   48800    9.8340975    4.6583607   0.67858125    15.171039    1.3416393   0.67858125     1.502884 0.00044203873 0.0016486054 
   48900     5.423007    2.0633096     1.829287    9.3156036    3.9366904     1.829287    1.5014949 0.0014049356 -0.00065558419 
   49000    3.9155495    8.3929522   0.17395893    12.482461   -2.3929522   0.17395893     1.505517 -0.0017112741 0.0026631161 
   49100    6.4133337    4.6087511    2.8772626    13.899347    1.3912489    2.8772626    1.5034366 -0.00099067579 -0.0027476521 
   49200    7.6369552    3.8062273    1.2166729    12.659855    2.1937727    1.2166729    1.5029574 0.0006513999 0.0005725691 
   49300    6.3684369    3.3062245    1.9473064    11.621968    2.6937755    1.9473064    1.5020468 0.00049764606 -0.0008905191 
   49400    8.4589923     14.02998    1.3632783    23.852251     -8.02998    1.3632783    1.5091187 -0.0062621722 0.00029168086 
   49500    4.5154136    4.1866046    2.6118066    11.313825    1.8133954    2.6118066    1.5032566 -0.00053227418   -0.0022171 
   49600    3.1687313    3.2292036    1.5372447    7.9351796    2.7707964    1.5372447     1.501906 0.00082236779 -7.0677479e-05 
   49700    6.9538288    3.6085744    1.6970364     12.25944    2.3914256    1.6970364    1.5022347 0.00046292612 -0.00038960352 
   49800    6.5282956    2.1456575    2.0246931    10.698646    3.8543425    2.0246931    1.5016029 0.0012197663 -0.0010461804 
   49900    4.3875937    3.6983559    1.4965569    9.5825065    2.3016441    1.4965569    1.5021842 0.0005367248 1.1254471e-05 
   50000    9.1827051    5.3639237   0.68759873    15.234228   0.63607629   0.68759873    1.5040211 -3.4348292e-05 0.0016328448 
   50100    8.2852603    2.0521351    2.5150027    12.852398    3.9478649    2.5150027    1.5012329 0.00095524143 -0.0020275398 
   50200    3.1037871     8.035699    3.8446392    14.984125    -2.035699    3.8446392    1.5039651 -0.0039202255 -0.0046813484 
   50300    7.4985573    4.3704275    2.1883827    14.057367    1.6295725    2.1883827    1.5028956 -0.00037254013 -0.0013709743 
   50400    5.8304993    1.6180877   0.43300478    7.8815917    4.3819123   0.43300478    1.5010572  0.002632605 0.0021361048 
   50500    8.6387239    6.8065194   0.86721508    16.312458  -0.80651943   0.86721508    1.5049552 -0.001115823 0.0012754802 
   50600    5.3914917    9.5354377   0.28440712    15.211337   -3.5354377   0.28440712    1.5056759 -0.0025465632 0.0024425375 
   50700    3.7756668    2.0008194    1.8969723    7.6734586    3.9991806    1.8969723    1.5012866 0.0014014722 -0.00079137148 
   50800    9.9186252    4.5624264    3.2886279    17.769679    1.4375736    3.2886279    1.5028557 -0.0012340362 -0.0035715445 
   50900     6.434239    4.9909241    0.5131055    11.938269    1.0090759    0.5131055    1.5035484 0.00033064696 0.0019808857 
   51000    3.5277008    5.5340217    1.1740133    10.235736   0.46597828    1.1740133    1.5040761 -0.00047202336 0.00066012551 
   51100    1.7343052    4.8217483   0.70046867    7.2565222    1.1782517   0.70046867    1.5023871 0.00031852201 0.0016038368 
   51200    6.8955787    3.7207807   0.58345583    11.199815    2.2792193   0.58345583    1.5026593  0.001130509 0.0018384068 
   51300    6.8102118    5.2688852   0.37684875    12.455946   0.73111484   0.37684875    1.5040312 0.00023617739 0.0022543648 
   51400    2.8383535    3.5673466   0.11651231    6.5222124    2.4326534   0.11651231    1.5023534 0.0015440941 0.0027716822 
   51500    5.9507343    4.1193489    0.1164908    10.186574    1.8806511    0.1164908    1.5023209 0.0011761068 0.0027716603 
   51600    4.8555804    10.504771    3.3800758    18.740428   -4.5047715    3.3800758    1.5062552 -0.0052565649 -0.0037476412 
   51700    2.7055813    5.6810416   0.68635035    9.0729733   0.31895837   0.68635035    1.5041949 -0.00024492799 0.0016356891 
   51800    4.3580234    4.6187597    2.0204564     10.99724    1.3812403    2.0204564    1.5025647 -0.0004261441 -0.0010357835 
   51900    4.6582791    2.8784243   0.10113602    7.6378395    3.1215757   0.10113602    1.5017942 0.0020136264 0.0028013164 
   52000    13.883513    7.1937022   0.99269578    22.069911   -1.1937022   0.99269578    1.5042102 -0.0014575986 0.0010230289 
   52100    3.5941425    3.9666933    1.9239505    9.4847863    2.0333067    1.9239505    1.5026752 7.2904091e-05 -0.0008425506 
   52200    5.7482597    5.2528562    1.3704119    12.371528   0.74714381    1.3704119    1.5033377 -0.00041551208 0.00026585162 
   52300    4.8600378    2.0171084    3.8630685    10.740215    3.9828916    3.8630685    1.5015035 7.9882069e-05 -0.0047231301 
   52400    2.9828102    3.6608117     2.312074    8.9556959    2.3391883     2.312074    1.5021888 1.8076187e-05 -0.0016197704 
   52500     6.055012    2.5978332   0.46958055    9.1224257    3.4021668   0.46958055    1.5012984 0.0019550575 0.0020634357 
   52600    6.9497456    3.9002072   0.17214114    11.022094    2.0997928   0.17214114    1.5029411 0.0012851011 0.0026615999 
   52700    4.4903492    2.3991682    1.3107289    8.2002462    3.6008318    1.3107289    1.5016101 0.0015267353 0.00038176239 
   52800     3.484499    7.5139245    2.1088914    13.107315   -1.5139245    2.1088914    1.5051994 -0.0024152106 -0.001207384 
   52900    8.7564499    4.5621634    2.0928637    15.411477    1.4378366    2.0928637    1.5034724 -0.00043668473 -0.0011787825 
   53000    6.5212437    2.0585447   0.91118584    9.4909743    3.9414553   0.91118584    1.5014315 0.0020201796 0.0011804913 
   53100    7.0536385    7.5363548   0.11836468    14.708358   -1.5363548   0.11836468    1.5055944 -0.0011031463 0.0027744594 
   53200    4.3303045    6.5850639    1.8877904    12.803159  -0.58506393    1.8877904    1.5044987 -0.0016485696 -0.00076658335 
   53300    5.2440073    5.8537695    3.2521273    14.349904   0.14623046    3.2521273    1.5043504 -0.0020705979 -0.0034955537 
   53400    5.6299467    2.4495389    3.7172942     11.79678    3.5504611    3.7172942    1.5018272 -0.00011122212 -0.0044309342 
   53500    10.209146     2.116898    0.6915795    13.017623     3.883102    0.6915795     1.501631 0.0021276817 0.0016201029 
   53600    4.8993039    5.1683159    1.0499694    11.117589    0.8316841    1.0499694    1.5039358 -0.00014552352 0.00090793279 
   53700    9.0402979    6.9984247    1.2405467    17.279269  -0.99842468    1.2405467    1.5047709 -0.0014926476 0.00052844829 
   53800    2.7763196    3.2071964    3.4843761     9.467892    2.7928036    3.4843761    1.5022171 -0.00046104828 -0.0039643179 
   53900    3.2904673    2.8039011    1.3187025    7.4130709    3.1960989    1.3187025    1.5018754 0.0012515976 0.00036634585 
   54000    4.5271288     3.189023   0.43387222     8.150024     2.810977   0.43387222    1.5021134 0.0015847365 0.0021364823 
   54100    6.9054009    3.3250198  0.091585353    10.322006    2.6749802  0.091585353    1.5020566 0.0017222632 0.0028209425 
   54200    5.3853401    2.6889624   0.25468775    8.3289902    3.3110376   0.25468775     1.501684 0.0020375666 0.0024939924 
   54300    5.2081842    3.0443732    1.0739932    9.3265507    2.9556268    1.0739932    1.5018178 0.0012544224 0.00085564919 
   54400    6.1435712    5.1657419    1.3440506    12.653364   0.83425811    1.3440506    1.5037701 -0.00033986168 0.00031943897 
   54500    1.9645959    4.7710989   0.26743932    7.0031341    1.2289011   0.26743932    1.5035307 0.00064097455 0.0024721828 
   54600    3.4259119     5.716279    2.5381179    11.680309   0.28372103    2.5381179    1.5028416 -0.0015029312 -0.0020705526 
   54700    5.0144975    3.9818242    1.2313669    10.227689    2.0181758    1.2313669    1.5029353 0.0005245393 0.00054313677 
   54800    5.7729229    4.3483458    5.3042867    15.425555    1.6516542    5.3042867    1.5023708 -0.0024350883 -0.0076038319 
   54900    5.5167656    2.4362118    2.3059495    10.258927    3.5637882    2.3059495    1.5018987 0.00083855917 -0.0016081016 
   55000    9.2961542    5.9384585   0.97900273    16.213615  0.061541512   0.97900273    1.5028446 -0.00061164081 0.0010476838 
   55100    5.6969972    7.3486275    1.7567494    14.802374   -1.3486275    1.7567494    1.5054065 -0.0020702512 -0.0005026859 
   55200    14.129881    4.4214451   0.59603656    19.147362    1.5785549   0.59603656    1.5029876 0.00065501224 0.0018139021 
   55300    7.0164207    6.7941149   0.42955174    14.240087  -0.79411487   0.42955174    1.5037326 -0.00081577774 0.0021483617 
   55400    6.2700171    6.3829722   0.41241928    13.065409  -0.38297221   0.41241928     1.503868 -0.000530261 0.0021828975 
   55500    11.629825    1.5748102   0.30792156    13.512556    4.4251898   0.30792156    1.5009354 0.0027448455 0.0023860277 
   55600    6.1247809    1.6519046    1.7709059    9.5475914    4.3480954    1.7709059    1.5010129 0.0017181263 -0.00053978605 
   55700    1.2075412    1.6782376   0.95558329    3.8413621    4.3217624   0.95558329    1.5012948 0.0022441194  0.001091423 
   55800    8.3969271    9.6557778   0.93584735    18.988552   -3.6557778   0.93584735    1.5062247 -0.0030610834 0.0011407547 
   55900    3.7227763    8.3416214    2.4330147    14.497412   -2.3416214    2.4330147    1.5049435 -0.0031830907 -0.0018561422 
   56000     2.537729    2.5526053    1.4130456    6.5033799    3.4473947    1.4130456    1.5017221 0.0013562327 0.00017735301 
   56100    6.4215917      7.45672    1.2497208    15.128033     -1.45672    1.2497208    1.5053556 -0.0018042939 0.00051126952 
   56200    3.1738469    4.5680317    2.1691538    9.9110325    1.4319683    2.1691538    1.5034121 -0.00049145703 -0.0013314833 
   56300    6.4261475    3.9886601    2.0895331    12.504341    2.0113399    2.0895331    1.5030667 -5.2128845e-05 -0.0011729329 
   56400    9.8400488    10.064689    1.1106555    21.015393   -4.0646888    1.1106555    1.5062425 -0.0034502295 0.00079117391 
   56500    7.7160381    2.7881332   0.20711295    10.711284    3.2118668   0.20711295    1.5020375 0.0020031692 0.0025898491 
   56600    4.2027313    2.2848523   0.77101245     7.258596    3.7151477   0.77101245     1.501158 0.0019627569 0.0014602911 
   56700    1.8471562    3.1528364  0.059136896    5.0591294    2.8471636  0.059136896    1.5022558 0.0018586845 0.0028862378 
   56800    2.9948976    3.8741097    1.0464512    7.9154585    2.1258903    1.0464512    1.5021075 0.00071962608 0.00091131251 
   56900    5.3432213    2.4868276   0.49360649    8.3236554    3.5131724   0.49360649    1.5019296  0.002013044 0.0020166462 
   57000    2.0922377    4.5078228    4.7151774    11.315238    1.4921772    4.7151774    1.5034322 -0.0021486668 -0.0064234903 
   57100    5.6486987    1.8216702    1.9598166    9.4301855    4.1783298    1.9598166    1.5011781 0.0014790089 -0.00091727699 
   57200    3.2102725    6.5834981    2.2557995     12.04957   -0.5834981    2.2557995    1.5042154 -0.0018928651 -0.0015031682 
   57300    3.4385647    5.5691131    1.5254348    10.533113   0.43088693    1.5254348    1.5028142 -0.0007296986 -4.5241196e-05 
   57400    8.6702443    3.8425114    2.4151408    14.927897    2.1574886    2.4151408    1.5028392 -0.00017176815 -0.0018246032 
   57500    3.0220999    2.2322596       4.1683    9.4226595    3.7677404       4.1683    1.5011699 -0.00026703973 -0.0053342603 
   57600    4.5077895    7.0410848   0.26599716    11.814871   -1.0410848   0.26599716    1.5036926 -0.00087138797 0.0024753908 
   57700     4.016324    4.4500889    1.0453642    9.5117772    1.5499111    1.0453642    1.5020234 0.00033636457 0.00091331824 
   57800     8.353722    6.4502939    1.3524626    16.156479  -0.45029392    1.3524626    1.5037706 -0.0012018377 0.00030261593 
   57900    4.5130212    6.9801035     1.218942    12.712067  -0.98010347     1.218942    1.5047766 -0.0014660303 0.00057166911 
   58000    2.5392254    3.5099203     3.799689    9.8488347    2.4900797     3.799689    1.5025369 -0.00087307285 -0.0045943041 
   58100    5.8378048   0.63304646    4.2033236    10.674175    5.3669535    4.2033236     1.500374 0.0007757533 -0.0054058992 
   58200    7.4137131    5.1705283   0.61032216    13.194564   0.82947166   0.61032216    1.5037317 0.00014609967 0.0017868191 
   58300    8.5004266    6.9836319   0.43408101     15.91814  -0.98363191   0.43408101    1.5050296 -0.00094514194 0.0021418973 
   58400    4.5316459    6.3274384    1.0397168    11.898801  -0.32743835    1.0397168    1.5044603 -0.00091143677 0.00092948696 
   58500    4.3048268      4.61837   0.74773708    9.6709338      1.38163   0.74773708    1.5033439 0.00042259529 0.0015112137 
   58600    4.9481024    6.0602654    1.7942684    12.802636 -0.060265359    1.7942684    1.5033366 -0.0012363558 -0.00058186356 
   58700    6.4025843    6.5559449    1.0772174    14.035747  -0.55594495    1.0772174    1.5042742 -0.0010887749 0.00085411349 
   58800     5.569285    2.5820564    1.4906338    9.6419752    3.4179436    1.4906338    1.5013845 0.0012848732 2.1501292e-05 
   58900    6.5429593    4.6534948    2.5224864     13.71894    1.3465052    2.5224864      1.50259 -0.00078398742 -0.0020397927 
   59000    5.1794873    3.1951376    1.1751467    9.5497717    2.8048624    1.1751467     1.502148 0.0010864771 0.0006540025 
   59100     7.329206    6.0852954   0.55323256    13.967734 -0.085295404   0.55323256    1.5037726 -0.00042568531 0.0019010801 
   59200    4.8243252    3.5962019      2.07145    10.491977    2.4037981      2.07145    1.5022728 0.00022156543 -0.0011383544 
   59300    7.7450206    2.0410685    2.5056472    12.291736    3.9589315    2.5056472      1.50135 0.00096885619 -0.0020085943 
   59400     7.171477    3.5528211   0.70809872    11.432397    2.4471789   0.70809872    1.5023334 0.0011593868 0.0015884694 
   59500    6.6545923    4.5027543    1.2092823    12.366629    1.4972457    1.2092823    1.5029363 0.00019197561 0.00058730807 
   59600    4.5243584    4.2151089   0.12057373     8.860041    1.7848911   0.12057373     1.503179 0.0011095449 0.0027652105 
   59700    4.7664964    3.4312822    1.2472525    9.4450311    2.5687178    1.2472525    1.5023822 0.00088097686 0.00051025932 
   59800    8.3565991    3.2936565   0.41216876    12.062424    2.7063435   0.41216876    1.5014769 0.0015294498 0.0021786163 
   59900    4.5256934    5.6776839    4.5182342    14.721611   0.32231614    4.5182342    1.5043643 -0.0027972787 -0.0060277398 
   60000    8.5000801    1.2964204    1.4900185    11.286519    4.7035796    1.4900185    1.5009182 0.0021423741 2.1799437e-05 
   60100    4.4998426    12.294802    1.1698764    17.964521   -6.2948018    1.1698764     1.507234 -0.0049764521 0.00067471519 
   60200    4.3938035    6.7765058    3.7565439    14.926853   -0.7765058    3.7565439    1.5043195 -0.0030220331 -0.0045044489 
   60300    7.9404584    3.4339638    2.4667308    13.841153    2.5660362    2.4667308    1.5018834 6.620362e-05 -0.0019296946 
   60400    5.9904545    3.5339186   0.74560639    10.269979    2.4660814   0.74560639    1.5023119 0.0011469834 0.0015134111 
   60500    7.4922714    6.5527223    2.5242847    16.569278  -0.55272233    2.5242847    1.5041483 -0.002051338 -0.0020402727 
   60600    2.6509575    3.3659169    7.5592763    13.576151    2.6340831    7.5592763    1.5023778 -0.0032834621 -0.012113797 
   60700    1.6524866    4.3821974   0.49557976    6.5302637    1.6178026   0.49557976    1.5025336 0.00074814857 0.0020139076 
   60800     6.891635    4.4381915   0.93558457    12.265411    1.5618085   0.93558457    1.5027224 0.00041748263 0.0011342756 
   60900    9.6855873    1.2709623   0.67177058     11.62832    4.7290377   0.67177058    1.5009572 0.0027048447 0.0016583732 
[...]
  985400    5.7851746     3.758861    2.4393085    11.983344     2.241139    2.4393085    1.5024646 -0.00013211305 -0.0018736878 
  985500    4.3861698    4.1354231   0.25546983    8.7770627    1.8645769   0.25546983    1.5032174  0.001072738 0.0024954951 
  985600    4.8195943     1.892137    1.3028907     8.014622     4.107863    1.3028907    1.5011295 0.0018699815 0.00039647753 
  985700    6.4691825    3.1430949    1.6250649    11.237342    2.8569051    1.6250649    1.5023193 0.00082122683 -0.00024549117 
  985800    3.8561813    5.1228168    3.3435481    12.322546   0.87718324    3.3435481    1.5033241 -0.0016442432 -0.003680448 
  985900    5.6571388    3.9652287    1.3184347    10.940802    2.0347713    1.3184347    1.5020253 0.00047755775 0.00036718132 
  986000    7.3496738    4.8948848    1.8707519     14.11531    1.1051152    1.8707519    1.5024263 -0.00051042445 -0.00073665115 
  986100    6.3693274    2.6498074    1.2012521    10.220387    3.3501926    1.2012521    1.5020255  0.001432627 0.00060154671 
  986200     3.933507    5.6223821  0.095343922    9.6512331   0.37761787  0.095343922    1.5039387 0.00018818263 0.0028171896 
  986300    5.8132937    9.3786694   0.39691765    15.588881   -3.3786694   0.39691765    1.5064403 -0.002517058 0.0022190452 
  986400    7.6723351    2.2732161    1.0581897    11.003741    3.7267839    1.0581897    1.5017078 0.0017790628 0.00088703631 
  986500    5.9561445    5.3617526   0.80778481    12.125682   0.63824744   0.80778481    1.5026499 -0.00011302492 0.0013897302 
  986600     9.546857     4.414183   0.23110297    14.192143     1.585817   0.23110297    1.5034029 0.00090314267 0.0025445999 
  986700    7.2093788    3.3374009    1.4102949    11.957075    2.6625991    1.4102949    1.5023938 0.00083486944 0.00018419781 
  986800    4.5145973    2.8312426    3.1326533    10.478493    3.1687574    3.1326533    1.5016991 2.4069428e-05 -0.0032619083 
  986900    10.636784    3.1411828    1.1966051    14.974572    2.8588172    1.1966051    1.5022072 0.0011081414 0.00061120432 
  987000    10.094497    5.1216367    3.4490031    18.665137   0.87836325    3.4490031    1.5035664 -0.0017137599 -0.0038908733 
  987100    4.3543779    2.8268215   0.34503966    7.5262391    3.1731785   0.34503966    1.5012136 0.0018854259  0.002312348 
  987200    4.7314757     5.924134   0.34963451    11.005244  0.075866026   0.34963451    1.5045078 -0.00018251232 0.0023097466 
  987300    6.4747975    5.8929986    3.5801679    15.947964   0.10700144    3.5801679    1.5042367 -0.0023154443 -0.0041518623 
  987400    4.5895651    9.3251996    2.6811984    16.595963   -3.3251996    2.6811984    1.5066433 -0.0040042653 -0.0023491101 
  987500    3.6214866    2.7534796    1.2652007    7.6401669    3.2465204    1.2652007    1.5020419 0.0013208798 0.00047368234 
  987600    5.1955381    6.4725165   0.71196909    12.380024  -0.47251646   0.71196909    1.5048689 -0.00078965703 0.0015857996 
  987700    3.2738496     2.793656    0.1610104    6.2285159     3.206344    0.1610104    1.5020919 0.0020302224  0.002682163 
  987800      4.09058    9.1221885   0.67716933    13.889938   -3.1221885   0.67716933    1.5062784 -0.0025329052 0.0016582181 
  987900    4.6608595    6.3398173   0.98439203    11.985069  -0.33981726   0.98439203    1.5044901 -0.0008828062 0.0010401961 
  988000    5.8655762    6.9462569   0.74904185    13.560875  -0.94625693   0.74904185    1.5047554 -0.0011301992 0.0015114271 
  988100    3.5989103    8.5615499    2.0470239    14.207484   -2.5615499    2.0470239    1.5056757 -0.0030723825 -0.0010826965 
  988200    5.1733546    1.4668544    2.5638927    9.2041017    4.5331456    2.5638927    1.5011086 0.0013128353 -0.0021255682 
  988300    5.8355315    5.3531375   0.35045849    11.539127   0.64686254   0.35045849    1.5041032 0.0001976027 0.0023072895 
  988400    10.343075    4.2085585   0.40085292    14.952487    1.7914415   0.40085292    1.5026981 0.00092705909 0.0022036903 
  988500     4.594424    6.0614043    1.7274906    12.383319 -0.061404334    1.7274906    1.5044994 -0.0011925966 -0.00044598231 
  988600    6.7651559    3.8272394    1.5916874    12.184083    2.1727606    1.5916874    1.5025452 0.00038738213 -0.00017828429 
  988700    5.7064383    3.5915125   0.41086169    9.7088125    2.4084875   0.41086169    1.5024839 0.0013317505 0.0021832444 
  988800    5.4316924    4.9308549   0.44967369    10.812221    1.0691451   0.44967369    1.5027444 0.00041298093 0.0021061414 
  988900    4.0082864    2.2458828   0.79908545    7.0532546    3.7541172   0.79908545     1.501543 0.0019700212 0.0014049151 
  989000    4.9498941    2.0868312   0.45640104    7.4931264    3.9131688   0.45640104    1.5013067 0.0023045118 0.0020898112 
  989100    5.5322997    7.4640043   0.73070548    13.727009   -1.4640043   0.73070548    1.5048582 -0.0014631398 0.0015483055 
  989200     5.393987    1.2499043   0.58348032    7.2273716    4.7500957   0.58348032    1.5009502 0.0027777436 0.0018349398 
  989300    7.0662318    2.7836748   0.51840638    10.368313    3.2163252   0.51840638    1.5019679 0.0017986126 0.0019671231 
  989400    6.4362279    3.2149377    1.7925047     11.44367    2.7850623    1.7925047    1.5023117 0.00066170506 -0.00058038609 
  989500    4.6542369    1.3094593    1.5058987    7.4695949    4.6905407    1.5058987    1.5008847 0.0021230947 -1.0027883e-05 
  989600    5.7646323    2.7241316   0.99703034    9.4857942    3.2758684   0.99703034    1.5018095 0.0015192254 0.0010095584 
  989700    4.0294004    2.4119777   0.06837858    6.5097567    3.5880223   0.06837858    1.5017261 0.0023464291 0.0028666949 
  989800    4.7303623    3.6751137    1.1965646    9.6020406    2.3248863    1.1965646    1.5027928 0.00075221449 0.00061245633 
  989900    2.8851716    6.9427706    3.4425244    13.270467  -0.94277057    3.4425244    1.5044132  -0.00292353 -0.0038762223 
  990000    4.6334141    2.9595738   0.62371225    8.2167002    3.0404262   0.62371225    1.5022177 0.0016111426 0.0017570109 
  990100    4.4438552    5.5374433   0.13817127     10.11947   0.46255673   0.13817127    1.5037389 0.00021625698 0.0027311353 
  990200    8.8883221    2.2257483    3.7355154    14.849586    3.7742517    3.7355154    1.5015262 2.5824217e-05 -0.0044679783 
  990300    10.098288    5.2317821    2.1750129    17.505083   0.76821794    2.1750129    1.5031663 -0.00093786332 -0.0013436932 
  990400    3.1852923    6.5941417   0.69703809    10.476472  -0.59414167   0.69703809    1.5040345 -0.00086078651 0.0016139928 
  990500    6.5764661    3.7678599    2.3556058    12.699932    2.2321401    2.3556058    1.5023736 -8.2310492e-05 -0.0017064645 
  990600    9.9087674    7.0192309    1.8192816     18.74728   -1.0192309    1.8192816    1.5046262 -0.0018923417 -0.00062931084 
  990700    5.5569183    3.4398171   0.39469409    9.3914295    2.5601829   0.39469409    1.5020348 0.0014436592 0.0022146815 
  990800     8.536382    6.2714808   0.58494164    15.392804  -0.27148079   0.58494164    1.5041622 -0.00057094829 0.0018384412 
  990900    7.2548269    4.8073788    2.4359257    14.498131    1.1926212    2.4359257    1.5035253 -0.0008288697 -0.0018648008 
  991000     8.561152    3.8041144    2.9516698    15.316936    2.1958856    2.9516698    1.5028333 -0.00050385617 -0.0028976731 
  991100    3.9786321    5.0776143    1.1199172    10.176164   0.92238569    1.1199172    1.5024129 -0.00013168765 0.0007649914 
  991200    4.4754292    4.7263909    1.7823276    10.984148    1.2736091    1.7823276     1.503259 -0.00033914567 -0.00055813728 
  991300    4.2797954    2.2955078   0.57840422    7.1537074    3.7044922   0.57840422    1.5015056 0.0020840587 0.0018462027 
  991400    8.1671921    6.1214832    3.1158536    17.404529  -0.12148325    3.1158536    1.5029514 -0.0021582246 -0.0032258044 
  991500    8.6110702    7.1367368    2.1120322    17.859839   -1.1367368    2.1120322    1.5053078 -0.002165846 -0.0012134488 
  991600    8.5446497    2.7269074    6.1572283    17.428785    3.2730926    6.1572283    1.5018829 -0.0019227571 -0.0093106906 
  991700    5.0848568    4.3802383    5.0590742    14.524169    1.6197617    5.0590742    1.5023852 -0.002292875 -0.0071133781 
  991800    9.7223801    3.0016884    2.9363962    15.660465    2.9983116    2.9363962    1.5014347 4.1276915e-05 -0.0028699231 
  991900    4.4325081     2.059658  0.099276233    6.5914424     3.940342  0.099276233    1.5015825 0.0025607105 0.0028046125 
  992000    5.9695142    5.4381007    3.9260846      15.3337   0.56189925    3.9260846     1.504194 -0.0022427902 -0.0048437811 
  992100    4.7291285    11.539777    2.7017792    18.970684   -5.5397766    2.7017792    1.5070153 -0.0054943705 -0.0023895278 
  992200    3.3544707    5.7305838   0.20903682    9.2940913    0.2694162   0.20903682    1.5039067 4.0252922e-05 0.0025897398 
  992300    6.2379354    1.5690799   0.91246405    8.7194793    4.4309201   0.91246405    1.5011403 0.0023456374 0.0011773524 
  992400    2.0453679    1.6213237   0.58008019    4.2467718    4.3786763   0.58008019    1.5011196 0.0025323974 0.0018420788 
  992500    5.8234838    4.5125841   0.99629851    11.332366    1.4874159   0.99629851    1.5032357 0.00032741158 0.0010138743 
  992600    10.506972    8.3183638    0.3824065    19.207742   -2.3183638    0.3824065    1.5062194 -0.0018005135 0.0022476258 
  992700    10.821736    4.2866016   0.95490819    16.063245    1.7133984   0.95490819    1.5023778 0.00050566012 0.0010949391 
  992800    4.5745044    1.8304195   0.69007809     7.095002    4.1695805   0.69007809    1.5010577 0.0023196683 0.0016219591 
  992900    6.4971215    4.5579262    2.0576631    13.112711    1.4420738    2.0576631    1.5032016 -0.00041039287 -0.001108923 
  993000     6.585157    1.1975368    0.5512253    8.3339191    4.8024632    0.5512253    1.5007795 0.0028341586 0.0018991083 
  993100    7.1636468     5.182686   0.45582072    12.802154   0.81731398   0.45582072    1.5028764 0.00024099551 0.0020941113 
  993200    5.5569315    4.0227932   0.27483273    9.8545574    1.9772068   0.27483273    1.5023587 0.0011349161 0.0024550519 
  993300    10.198667    3.3059872    3.9254242    17.430079    2.6940128    3.9254242    1.5024132 -0.00082094092 -0.0048460218 
  993400    3.7854865    2.5907443   0.37455259    6.7507834    3.4092557   0.37455259    1.5014624 0.0020231354 0.0022538197 
  993500    4.4109495    7.3754023    1.4589281     13.24528   -1.3754023    1.4589281    1.5040865 -0.0018895536 9.0316646e-05 
  993600    6.8147757    5.5445175    0.2514578    12.610751   0.45548251    0.2514578    1.5031479 0.00013601648 0.0025033801 
  993700    6.3195788    6.5715261   0.78278382    13.673889  -0.57152613   0.78278382    1.5040834 -0.0009028733 0.0014425992 
  993800    11.860117    4.1774299    1.7522116    17.789758    1.8225701    1.7522116    1.5029813 4.6905715e-05 -0.00049846044 
  993900    3.3266958    3.3748928    1.8298334    8.5314219    2.6251072    1.8298334    1.5020746 0.00053018258 -0.00065551762 
  994000    5.7655178    4.7495525    1.5841934    12.099264    1.2504475    1.5841934    1.5036297 -0.00022249728 -0.00016112747 
  994100    4.5998517    8.4456552    1.8196848    14.865192   -2.4456552    1.8196848    1.5053199  -0.00284356 -0.00062872979 
  994200    5.3806081    5.8176927   0.37467883     11.57298   0.18230727   0.37467883    1.5045425 -0.0001282477 0.0022597273 
  994300    10.582402    1.8607432   0.44626213    12.889407    4.1392568   0.44626213     1.501191 0.0024619964 0.0021098578 
  994400    5.8761546    2.4150264  0.016924424    8.3081054    3.5849736  0.016924424    1.5012719 0.0023786995 0.0029686949 
  994500    6.3546295    2.5897883    2.5277917    11.472209    3.4102117    2.5277917    1.5018661 0.00058828001 -0.0020518511 
  994600    5.0449386    2.1910743    3.6743897    10.910403    3.8089257    3.6743897    1.5016929 8.969066e-05 -0.0043453937 
  994700    7.3347339    8.6377115    1.2209548      17.1934   -2.6377115    1.2209548    1.5063232 -0.0025724442 0.00057073686 
  994800     7.453602    6.3189803    2.2591454    16.031728  -0.31898032    2.2591454    1.5044164 -0.0017187505 -0.001509458 
  994900    9.3190602    5.1760259    1.1116124    15.606699   0.82397413    1.1116124    1.5037041 -0.00019175887 0.00078418331 
  995000     8.594175    10.286277   0.60948523    19.489938   -4.2862773   0.60948523    1.5066006 -0.0032638417 0.0017942307 
  995100    11.098839    5.7805017    1.2157843    18.095125   0.21949826    1.2157843    1.5044706 -0.00066419069 0.00057737265 
  995200    5.8479484    4.6964092    1.5594484    12.103806    1.3035908    1.5594484    1.5026091 -0.00017057175 -0.00011367861 
  995300    4.4042071     5.153905    1.8781964    11.436308     0.846095    1.8781964    1.5037159 -0.0006880676 -0.00074896103 
  995400    8.2356858     10.70283   0.72153975    19.660056   -4.7028305   0.72153975    1.5073371 -0.0036162468 0.0015715946 
  995500    9.5496575    8.9714695    1.8344781    20.355605   -2.9714695    1.8344781    1.5055893 -0.0032039651 -0.00065777757 
  995600    6.6036948    6.6621601    1.3504117    14.616267  -0.66216015    1.3504117    1.5052287 -0.0013417146 0.00030963391 
  995700    6.0468297    1.8289836    1.0198758    8.8956892    4.1710164    1.0198758    1.5011915 0.0021007604 0.00096263142 
  995800    7.4286739    5.9655169    1.7858632    15.180054  0.034483096    1.7858632    1.5042415 -0.0011675868 -0.00056324345 
  995900    12.201825    5.3398149      1.22329     18.76493   0.66018514      1.22329    1.5032885 -0.00037540322 0.0005599971 
  996000    4.7525673    6.5609517    1.6439419    12.957461  -0.56095167    1.6439419    1.5037479 -0.001469929 -0.000280388 
  996100    6.9845569    5.0896217   0.31706906    12.391248   0.91037834   0.31706906    1.5024431 0.00039553952  0.002370748 
  996200    5.2064922    5.6480704   0.44857865    11.303141   0.35192957   0.44857865      1.50414 -6.4432717e-05 0.0021111228 
  996300    5.8534415    5.1599638    2.4836503    13.497056   0.84003618    2.4836503    1.5031027 -0.0010957427 -0.0019610952 
  996400    5.1420979    2.5340192     2.012152    9.6882691    3.4659808     2.012152    1.5015145 0.0009692192 -0.001021275 
  996500    7.1144267    6.4478662   0.24574074    13.808034  -0.44786616   0.24574074    1.5050331 -0.0004624046 0.0025185847 
  996600    7.3528605    4.2460028   0.57761517    12.176478    1.7539972   0.57761517     1.503252 0.0007842547 0.0018512737 
  996700    4.0234004    1.7410743    1.2622513    7.0267261    4.2589257    1.2622513    1.5012109 0.0019977829 0.0004779192 
  996800    6.8823762     3.368475   0.94487724    11.195728     2.631525   0.94487724    1.5026093 0.0011244319 0.0011154641 
  996900    6.2031887    3.0616569    1.2122673    10.477113    2.9383431    1.2122673    1.5019981 0.0011507172 0.00057946174 
  997000    6.1896588    4.9006357    1.2643112    12.354606    1.0993643    1.2643112    1.5035527 -0.00010996457 0.00047848301 
  997100    10.950513    1.8501388   0.46614257    13.266794    4.1498612   0.46614257    1.5011808 0.0024558125 0.0020700765 
  997200     9.135666    1.6040375    1.1581296    11.897833    4.3959625    1.1581296    1.5010343 0.0021585553 0.00068580933 
  997300    12.718116    2.0650057    1.4801526    16.263274    3.9349943    1.4801526    1.5012947 0.0016365612 4.2284293e-05 
  997400     5.763137     5.155096    2.9153783    13.833611     0.844904    2.9153783    1.5035708 -0.0013803162 -0.002823615 
  997500    3.1316409    2.3631786   0.37052197    5.8653415    3.6368214   0.37052197     1.501549 0.0021775329 0.0022620541 
  997600    6.4853685    5.2875076    1.4131308    13.186007    0.7124924    1.4131308    1.5031588 -0.00046709228  0.000180056 
  997700      8.75129    3.0567086    1.7745691    13.582568    2.9432914    1.7745691    1.5021851 0.0007791482 -0.00054476789 
  997800    6.6102809     3.897732    0.1041792    10.612192     2.102268    0.1041792    1.5019156 0.0013320592 0.0027954728 
  997900    6.3967847    7.3134118   0.72369307     14.43389   -1.3134118   0.72369307    1.5050451 -0.0013580699  0.001562704 
  998000    4.6537739    9.9531515  0.098505586    14.705431   -3.9531515  0.098505586    1.5064637 -0.0027011047 0.0028159163 
  998100    8.5092215    3.5733103    1.1954373    13.277969    2.4266897    1.1954373    1.5025964 0.00082083492 0.00061431819 
  998200    2.5963346    3.1975642   0.81723813    6.6111369    2.8024358   0.81723813    1.5018494 0.0013234651 0.0013692225 
  998300     9.756643    1.9648406    1.4388571    13.160341    4.0351594    1.4388571    1.5010709 0.0017308682 0.00012442761 
  998400    5.0783582    2.6740095    1.0927493     8.845117    3.3259905    1.0927493    1.5017403 0.0014888275 0.00081798203 
  998500    3.5708665    4.8035127    1.0079761    9.3823552    1.1964873    1.0079761    1.5031904 0.00012567417 0.00099042866 
  998600    4.6511905    10.866778   0.40922085    15.927189   -4.8667775   0.40922085     1.508279 -0.0035173322 0.0021981162 
  998700     6.402537    5.4584909   0.61705317    12.478081   0.54150912   0.61705317    1.5037635 -5.0362695e-05 0.0017734206 
  998800    3.4522749    8.5163313   0.41862884    12.387235   -2.5163313   0.41862884    1.5049309 -0.0019566401 0.0021726041 
  998900    1.1967152    5.6069992    2.2303114    9.0340258    0.3930008    2.2303114    1.5040855 -0.0012248737 -0.0014524518 
  999000    9.3669462    3.3867085   0.72326043    13.476915    2.6132915   0.72326043    1.5024538 0.0012600207 0.0015583867 
  999100    11.273116    5.7443814    1.7560376    18.773536    0.2556186    1.7560376    1.5034998 -0.0010002794 -0.00050507572 
  999200     9.299617    6.8414631    1.1774581    17.318538  -0.84146313    1.1774581    1.5047264 -0.0013459475 0.00065453652 
  999300    6.7348761    2.6081776    1.7447289    11.087783    3.3918224    1.7447289    1.5011956 0.0010980623 -0.00048706664 
  999400    4.7764332    2.9418168   0.65272519    8.3709751    3.0581832   0.65272519    1.5020681 0.0016036387 0.0016986859 
  999500    4.2255498    4.2350705    3.2638914    11.724512    1.7649295    3.2638914    1.5025037 -0.00099930794 -0.0035227755 
  999600    6.5093792    1.2707417   0.60190778    8.3820287    4.7292583   0.60190778    1.5008167  0.002751567 0.0017978179 
  999700    1.4754578    6.5278894    1.4619878    9.4653349  -0.52788936    1.4619878    1.5041614 -0.0013265848 8.4347221e-05 
  999800     6.857775    3.1408867    0.4253507    10.424012    2.8591133    0.4253507    1.5017605 0.0016225084 0.0021528196 
  999900    3.2797217     4.750902    1.4137098    9.4443335     1.249098    1.4137098    1.5026751 -0.0001097412 0.0001779307 
 1000000    3.4733495    2.4352015    1.0347381    6.9432891    3.5647985    1.0347381    1.5013638 0.0016867069 0.00093325131 
Loop time of 26.2152 on 1 procs for 1000000 steps with 1 atoms

Performance: 659159546.402 tau/day, 38145.807 timesteps/s
99.5% CPU use with 1 MPI tasks x 1 OpenMP threads

MPI task timing breakdown:
Section |  min time  |  avg time  |  max time  |%varavg| %total
---------------------------------------------------------------
Pair    | 0.051206   | 0.051206   | 0.051206   |   0.0 |  0.20
Neigh   | 0.11392    | 0.11392    | 0.11392    |   0.0 |  0.43
Comm    | 0.084585   | 0.084585   | 0.084585   |   0.0 |  0.32
Output  | 0.052335   | 0.052335   | 0.052335   |   0.0 |  0.20
Modify  | 25.765     | 25.765     | 25.765     |   0.0 | 98.28
Other   |            | 0.1483     |            |       |  0.57

Nlocal:        1.00000 ave           1 max           1 min
Histogram: 1 0 0 0 0 0 0 0 0 0
Nghost:         0.00000 ave           0 max           0 min
Histogram: 1 0 0 0 0 0 0 0 0 0
Neighs:         0.00000 ave           0 max           0 min
Histogram: 1 0 0 0 0 0 0 0 0 0

Total # of neighbors = 0
Ave neighs/atom = 0.0000000
Neighbor list builds = 98459
Dangerous builds = 89494
Total wall time: 0:00:26
