Created by AJB

6912 atoms
2 atom types

-205.448 200.448   xlo xhi
0.0 25.0560   ylo yhi
0.0 25.0560   zlo zhi

Masses

1 6.941000      # Li nuclei mass
2 1.000000      # electron mass

Atoms
#tag|type|x|y|z|q|spin|r
1 1 4.366227 4.073547 4.174716 3.000000 0 0
2 1 8.015197 8.131971 4.142375 3.000000 0 0
3 1 4.261472 8.440564 8.238099 3.000000 0 0
4 1 8.014788 4.024823 8.534886 3.000000 0 0
5 1 4.05791 4.221641 12.68838 3.000000 0 0
6 1 8.304696 8.354729 12.527547 3.000000 0 0
7 1 4.089486 8.003159 17.238187 3.000000 0 0
8 1 8.587335 4.364931 16.331085 3.000000 0 0
9 1 3.902371 4.332097 20.948412 3.000000 0 0
10 1 8.45269 8.570484 20.936279 3.000000 0 0
11 1 4.132709 8.134229 0.294103 3.000000 0 0
12 1 8.293372 4.125858 24.841832 3.000000 0 0
13 1 3.951099 12.720172 4.241754 3.000000 0 0
14 1 8.18781 16.593173 4.063514 3.000000 0 0
15 1 4.064604 17.047798 8.413562 3.000000 0 0
16 1 8.244492 12.451846 8.645075 3.000000 0 0
17 1 3.776865 12.644841 12.825559 3.000000 0 0
18 1 8.550407 16.590061 12.681531 3.000000 0 0
19 1 4.310758 16.219119 16.933769 3.000000 0 0
20 1 8.112669 12.753162 16.648338 3.000000 0 0
21 1 4.026234 12.442104 21.241736 3.000000 0 0
22 1 8.382339 16.79752 20.788781 3.000000 0 0
23 1 4.190757 16.929381 24.93402 3.000000 0 0
24 1 8.222746 12.373778 0.109172 3.000000 0 0
25 1 3.833261 21.036717 4.176523 3.000000 0 0
26 1 8.45142 0.027003 4.263671 3.000000 0 0
27 1 4.010001 24.940316 8.305952 3.000000 0 0
28 1 8.109906 21.093456 8.19519 3.000000 0 0
29 1 4.267764 20.853859 12.815999 3.000000 0 0
30 1 8.464784 24.880573 12.142882 3.000000 0 0
31 1 4.568885 0.270461 16.422004 3.000000 0 0
32 1 8.288915 20.806659 16.496972 3.000000 0 0
33 1 4.413691 21.065327 20.490862 3.000000 0 0
34 1 8.679054 0.447339 20.728485 3.000000 0 0
35 1 4.062637 0.054178 0.029188 3.000000 0 0
36 1 8.343423 21.174883 25.022042 3.000000 0 0
37 1 11.962123 4.537927 4.303362 3.000000 0 0
38 1 16.452769 8.255992 4.196595 3.000000 0 0
39 1 12.478533 8.439801 8.077208 3.000000 0 0
40 1 16.491235 3.855337 8.593308 3.000000 0 0
41 1 12.524024 4.47225 12.398965 3.000000 0 0
42 1 16.866254 8.48216 12.398797 3.000000 0 0
43 1 12.38752 8.685834 16.443113 3.000000 0 0
44 1 16.801844 4.595313 16.589477 3.000000 0 0
45 1 12.687989 4.776818 20.652757 3.000000 0 0
46 1 16.876511 8.424446 21.00702 3.000000 0 0
47 1 12.596161 8.208781 0.382012 3.000000 0 0
48 1 16.744288 4.157122 0.082472 3.000000 0 0
49 1 12.395052 12.506359 4.319301 3.000000 0 0
50 1 16.830518 16.370067 3.972573 3.000000 0 0
51 1 12.452148 16.542117 8.256625 3.000000 0 0
52 1 16.793403 12.292761 8.254483 3.000000 0 0
53 1 12.489273 12.742175 12.44758 3.000000 0 0
54 1 16.661042 16.598446 12.456181 3.000000 0 0
55 1 12.592103 16.800809 17.050997 3.000000 0 0
56 1 16.983103 12.217594 16.765324 3.000000 0 0
57 1 12.82341 12.312291 20.850256 3.000000 0 0
58 1 16.784154 16.649424 21.197587 3.000000 0 0
59 1 12.429072 16.30552 0.12101 3.000000 0 0
60 1 16.76854 12.290378 25.029988 3.000000 0 0
61 1 12.350783 20.625027 4.196214 3.000000 0 0
62 1 16.691389 24.944812 4.135863 3.000000 0 0
63 1 12.524771 24.609664 7.891456 3.000000 0 0
64 1 16.396441 20.857701 8.016537 3.000000 0 0
65 1 12.773697 20.557659 12.235001 3.000000 0 0
66 1 17.038979 24.805557 12.656301 3.000000 0 0
67 1 12.899493 0.387864 16.541011 3.000000 0 0
68 1 16.465447 20.671602 16.856259 3.000000 0 0
69 1 12.630735 20.890263 20.975417 3.000000 0 0
70 1 16.77086 0.405046 21.006958 3.000000 0 0
71 1 12.515083 0.178285 0.23953 3.000000 0 0
72 1 16.565513 20.645978 24.900556 3.000000 0 0
73 1 21.132532 4.037372 4.217652 3.000000 0 0
74 1 0.038836 8.403152 4.372958 3.000000 0 0
75 1 20.638263 8.255209 8.301362 3.000000 0 0
76 1 24.936707 4.03084 8.301326 3.000000 0 0
77 1 20.981742 4.272236 12.286077 3.000000 0 0
78 1 24.939967 8.399398 12.394663 3.000000 0 0
79 1 20.878401 8.292785 16.655531 3.000000 0 0
80 1 24.969926 4.575641 16.551327 3.000000 0 0
81 1 21.096196 4.114044 20.947365 3.000000 0 0
82 1 25.049928 8.548128 21.139524 3.000000 0 0
83 1 21.042045 8.298167 0.100921 3.000000 0 0
84 1 0.14843 4.187229 0.144043 3.000000 0 0
85 1 21.01138 12.385128 4.30779 3.000000 0 0
86 1 24.936097 16.765296 4.196326 3.000000 0 0
87 1 20.947817 16.837463 8.364919 3.000000 0 0
88 1 24.625453 12.510496 8.570384 3.000000 0 0
89 1 20.876758 12.660374 12.448447 3.000000 0 0
90 1 24.92584 16.980761 12.371669 3.000000 0 0
91 1 21.189081 16.57822 16.721317 3.000000 0 0
92 1 24.878417 12.410817 16.604856 3.000000 0 0
93 1 20.740479 12.668253 21.043706 3.000000 0 0
94 1 0.094684 16.691931 21.210267 3.000000 0 0
95 1 20.730422 16.695036 0.086775 3.000000 0 0
96 1 24.79645 12.499623 0.302497 3.000000 0 0
97 1 20.693512 20.807446 4.31313 3.000000 0 0
98 1 24.907549 0.01887 4.114409 3.000000 0 0
99 1 21.029632 24.513605 8.236006 3.000000 0 0
100 1 0.180542 21.033579 8.217018 3.000000 0 0
101 1 21.329493 20.695004 12.48975 3.000000 0 0
102 1 25.010639 0.250599 12.319274 3.000000 0 0
103 1 20.940677 0.06944 16.493602 3.000000 0 0
104 1 0.743452 20.720033 16.479671 3.000000 0 0
105 1 21.270237 20.784592 20.595619 3.000000 0 0
106 1 0.001954 0.462958 20.864623 3.000000 0 0
107 1 21.120638 24.762329 0.01406 3.000000 0 0
108 1 25.022885 20.9383 24.977797 3.000000 0 0
109 1 29.422227 4.073547 4.174716 3.000000 0 0
110 1 33.071197 8.131971 4.142375 3.000000 0 0
111 1 29.317472 8.440564 8.238099 3.000000 0 0
112 1 33.070788 4.024823 8.534886 3.000000 0 0
113 1 29.11391 4.221641 12.68838 3.000000 0 0
114 1 33.360696 8.354729 12.527547 3.000000 0 0
115 1 29.145486 8.003159 17.238187 3.000000 0 0
116 1 33.643335 4.364931 16.331085 3.000000 0 0
117 1 28.958371 4.332097 20.948412 3.000000 0 0
118 1 33.50869 8.570484 20.936279 3.000000 0 0
119 1 29.188709 8.134229 0.294103 3.000000 0 0
120 1 33.349372 4.125858 24.841832 3.000000 0 0
121 1 29.007099 12.720172 4.241754 3.000000 0 0
122 1 33.24381 16.593173 4.063514 3.000000 0 0
123 1 29.120604 17.047798 8.413562 3.000000 0 0
124 1 33.300492 12.451846 8.645075 3.000000 0 0
125 1 28.832865 12.644841 12.825559 3.000000 0 0
126 1 33.606407 16.590061 12.681531 3.000000 0 0
127 1 29.366758 16.219119 16.933769 3.000000 0 0
128 1 33.168669 12.753162 16.648338 3.000000 0 0
129 1 29.082234 12.442104 21.241736 3.000000 0 0
130 1 33.438339 16.79752 20.788781 3.000000 0 0
131 1 29.246757 16.929381 24.93402 3.000000 0 0
132 1 33.278746 12.373778 0.109172 3.000000 0 0
133 1 28.889261 21.036717 4.176523 3.000000 0 0
134 1 33.50742 0.027003 4.263671 3.000000 0 0
135 1 29.066001 24.940316 8.305952 3.000000 0 0
136 1 33.165906 21.093456 8.19519 3.000000 0 0
137 1 29.323764 20.853859 12.815999 3.000000 0 0
138 1 33.520784 24.880573 12.142882 3.000000 0 0
139 1 29.624885 0.270461 16.422004 3.000000 0 0
140 1 33.344915 20.806659 16.496972 3.000000 0 0
141 1 29.469691 21.065327 20.490862 3.000000 0 0
142 1 33.735054 0.447339 20.728485 3.000000 0 0
143 1 29.118637 0.054178 0.029188 3.000000 0 0
144 1 33.399423 21.174883 25.022042 3.000000 0 0
145 1 37.018123 4.537927 4.303362 3.000000 0 0
146 1 41.508769 8.255992 4.196595 3.000000 0 0
147 1 37.534533 8.439801 8.077208 3.000000 0 0
148 1 41.547235 3.855337 8.593308 3.000000 0 0
149 1 37.580024 4.47225 12.398965 3.000000 0 0
150 1 41.922254 8.48216 12.398797 3.000000 0 0
151 1 37.44352 8.685834 16.443113 3.000000 0 0
152 1 41.857844 4.595313 16.589477 3.000000 0 0
153 1 37.743989 4.776818 20.652757 3.000000 0 0
154 1 41.932511 8.424446 21.00702 3.000000 0 0
155 1 37.652161 8.208781 0.382012 3.000000 0 0
156 1 41.800288 4.157122 0.082472 3.000000 0 0
157 1 37.451052 12.506359 4.319301 3.000000 0 0
158 1 41.886518 16.370067 3.972573 3.000000 0 0
159 1 37.508148 16.542117 8.256625 3.000000 0 0
160 1 41.849403 12.292761 8.254483 3.000000 0 0
161 1 37.545273 12.742175 12.44758 3.000000 0 0
162 1 41.717042 16.598446 12.456181 3.000000 0 0
163 1 37.648103 16.800809 17.050997 3.000000 0 0
164 1 42.039103 12.217594 16.765324 3.000000 0 0
165 1 37.87941 12.312291 20.850256 3.000000 0 0
166 1 41.840154 16.649424 21.197587 3.000000 0 0
167 1 37.485072 16.30552 0.12101 3.000000 0 0
168 1 41.82454 12.290378 25.029988 3.000000 0 0
169 1 37.406783 20.625027 4.196214 3.000000 0 0
170 1 41.747389 24.944812 4.135863 3.000000 0 0
171 1 37.580771 24.609664 7.891456 3.000000 0 0
172 1 41.452441 20.857701 8.016537 3.000000 0 0
173 1 37.829697 20.557659 12.235001 3.000000 0 0
174 1 42.094979 24.805557 12.656301 3.000000 0 0
175 1 37.955493 0.387864 16.541011 3.000000 0 0
176 1 41.521447 20.671602 16.856259 3.000000 0 0
177 1 37.686735 20.890263 20.975417 3.000000 0 0
178 1 41.82686 0.405046 21.006958 3.000000 0 0
179 1 37.571083 0.178285 0.23953 3.000000 0 0
180 1 41.621513 20.645978 24.900556 3.000000 0 0
181 1 46.188532 4.037372 4.217652 3.000000 0 0
182 1 25.094836 8.403152 4.372958 3.000000 0 0
183 1 45.694263 8.255209 8.301362 3.000000 0 0
184 1 49.992707 4.03084 8.301326 3.000000 0 0
185 1 46.037742 4.272236 12.286077 3.000000 0 0
186 1 49.995967 8.399398 12.394663 3.000000 0 0
187 1 45.934401 8.292785 16.655531 3.000000 0 0
188 1 50.025926 4.575641 16.551327 3.000000 0 0
189 1 46.152196 4.114044 20.947365 3.000000 0 0
190 1 50.105928 8.548128 21.139524 3.000000 0 0
191 1 46.098045 8.298167 0.100921 3.000000 0 0
192 1 25.20443 4.187229 0.144043 3.000000 0 0
193 1 46.06738 12.385128 4.30779 3.000000 0 0
194 1 49.992097 16.765296 4.196326 3.000000 0 0
195 1 46.003817 16.837463 8.364919 3.000000 0 0
196 1 49.681453 12.510496 8.570384 3.000000 0 0
197 1 45.932758 12.660374 12.448447 3.000000 0 0
198 1 49.98184 16.980761 12.371669 3.000000 0 0
199 1 46.245081 16.57822 16.721317 3.000000 0 0
200 1 49.934417 12.410817 16.604856 3.000000 0 0
201 1 45.796479 12.668253 21.043706 3.000000 0 0
202 1 25.150684 16.691931 21.210267 3.000000 0 0
203 1 45.786422 16.695036 0.086775 3.000000 0 0
204 1 49.85245 12.499623 0.302497 3.000000 0 0
205 1 45.749512 20.807446 4.31313 3.000000 0 0
206 1 49.963549 0.01887 4.114409 3.000000 0 0
207 1 46.085632 24.513605 8.236006 3.000000 0 0
208 1 25.236542 21.033579 8.217018 3.000000 0 0
209 1 46.385493 20.695004 12.48975 3.000000 0 0
210 1 50.066639 0.250599 12.319274 3.000000 0 0
211 1 45.996677 0.06944 16.493602 3.000000 0 0
212 1 25.799452 20.720033 16.479671 3.000000 0 0
213 1 46.326237 20.784592 20.595619 3.000000 0 0
214 1 25.057954 0.462958 20.864623 3.000000 0 0
215 1 46.176638 24.762329 0.01406 3.000000 0 0
216 1 50.078885 20.9383 24.977797 3.000000 0 0
217 1 54.478227 4.073547 4.174716 3.000000 0 0
218 1 58.127197 8.131971 4.142375 3.000000 0 0
219 1 54.373472 8.440564 8.238099 3.000000 0 0
220 1 58.126788 4.024823 8.534886 3.000000 0 0
221 1 54.16991 4.221641 12.68838 3.000000 0 0
222 1 58.416696 8.354729 12.527547 3.000000 0 0
223 1 54.201486 8.003159 17.238187 3.000000 0 0
224 1 58.699335 4.364931 16.331085 3.000000 0 0
225 1 54.014371 4.332097 20.948412 3.000000 0 0
226 1 58.56469 8.570484 20.936279 3.000000 0 0
227 1 54.244709 8.134229 0.294103 3.000000 0 0
228 1 58.405372 4.125858 24.841832 3.000000 0 0
229 1 54.063099 12.720172 4.241754 3.000000 0 0
230 1 58.29981 16.593173 4.063514 3.000000 0 0
231 1 54.176604 17.047798 8.413562 3.000000 0 0
232 1 58.356492 12.451846 8.645075 3.000000 0 0
233 1 53.888865 12.644841 12.825559 3.000000 0 0
234 1 58.662407 16.590061 12.681531 3.000000 0 0
235 1 54.422758 16.219119 16.933769 3.000000 0 0
236 1 58.224669 12.753162 16.648338 3.000000 0 0
237 1 54.138234 12.442104 21.241736 3.000000 0 0
238 1 58.494339 16.79752 20.788781 3.000000 0 0
239 1 54.302757 16.929381 24.93402 3.000000 0 0
240 1 58.334746 12.373778 0.109172 3.000000 0 0
241 1 53.945261 21.036717 4.176523 3.000000 0 0
242 1 58.56342 0.027003 4.263671 3.000000 0 0
243 1 54.122001 24.940316 8.305952 3.000000 0 0
244 1 58.221906 21.093456 8.19519 3.000000 0 0
245 1 54.379764 20.853859 12.815999 3.000000 0 0
246 1 58.576784 24.880573 12.142882 3.000000 0 0
247 1 54.680885 0.270461 16.422004 3.000000 0 0
248 1 58.400915 20.806659 16.496972 3.000000 0 0
249 1 54.525691 21.065327 20.490862 3.000000 0 0
250 1 58.791054 0.447339 20.728485 3.000000 0 0
251 1 54.174637 0.054178 0.029188 3.000000 0 0
252 1 58.455423 21.174883 25.022042 3.000000 0 0
253 1 62.074123 4.537927 4.303362 3.000000 0 0
254 1 66.564769 8.255992 4.196595 3.000000 0 0
255 1 62.590533 8.439801 8.077208 3.000000 0 0
256 1 66.603235 3.855337 8.593308 3.000000 0 0
257 1 62.636024 4.47225 12.398965 3.000000 0 0
258 1 66.978254 8.48216 12.398797 3.000000 0 0
259 1 62.49952 8.685834 16.443113 3.000000 0 0
260 1 66.913844 4.595313 16.589477 3.000000 0 0
261 1 62.799989 4.776818 20.652757 3.000000 0 0
262 1 66.988511 8.424446 21.00702 3.000000 0 0
263 1 62.708161 8.208781 0.382012 3.000000 0 0
264 1 66.856288 4.157122 0.082472 3.000000 0 0
265 1 62.507052 12.506359 4.319301 3.000000 0 0
266 1 66.942518 16.370067 3.972573 3.000000 0 0
267 1 62.564148 16.542117 8.256625 3.000000 0 0
268 1 66.905403 12.292761 8.254483 3.000000 0 0
269 1 62.601273 12.742175 12.44758 3.000000 0 0
270 1 66.773042 16.598446 12.456181 3.000000 0 0
271 1 62.704103 16.800809 17.050997 3.000000 0 0
272 1 67.095103 12.217594 16.765324 3.000000 0 0
273 1 62.93541 12.312291 20.850256 3.000000 0 0
274 1 66.896154 16.649424 21.197587 3.000000 0 0
275 1 62.541072 16.30552 0.12101 3.000000 0 0
276 1 66.88054 12.290378 25.029988 3.000000 0 0
277 1 62.462783 20.625027 4.196214 3.000000 0 0
278 1 66.803389 24.944812 4.135863 3.000000 0 0
279 1 62.636771 24.609664 7.891456 3.000000 0 0
280 1 66.508441 20.857701 8.016537 3.000000 0 0
281 1 62.885697 20.557659 12.235001 3.000000 0 0
282 1 67.150979 24.805557 12.656301 3.000000 0 0
283 1 63.011493 0.387864 16.541011 3.000000 0 0
284 1 66.577447 20.671602 16.856259 3.000000 0 0
285 1 62.742735 20.890263 20.975417 3.000000 0 0
286 1 66.88286 0.405046 21.006958 3.000000 0 0
287 1 62.627083 0.178285 0.23953 3.000000 0 0
288 1 66.677513 20.645978 24.900556 3.000000 0 0
289 1 71.244532 4.037372 4.217652 3.000000 0 0
290 1 50.150836 8.403152 4.372958 3.000000 0 0
291 1 70.750263 8.255209 8.301362 3.000000 0 0
292 1 75.048707 4.03084 8.301326 3.000000 0 0
293 1 71.093742 4.272236 12.286077 3.000000 0 0
294 1 75.051967 8.399398 12.394663 3.000000 0 0
295 1 70.990401 8.292785 16.655531 3.000000 0 0
296 1 75.081926 4.575641 16.551327 3.000000 0 0
297 1 71.208196 4.114044 20.947365 3.000000 0 0
298 1 75.161928 8.548128 21.139524 3.000000 0 0
299 1 71.154045 8.298167 0.100921 3.000000 0 0
300 1 50.26043 4.187229 0.144043 3.000000 0 0
301 1 71.12338 12.385128 4.30779 3.000000 0 0
302 1 75.048097 16.765296 4.196326 3.000000 0 0
303 1 71.059817 16.837463 8.364919 3.000000 0 0
304 1 74.737453 12.510496 8.570384 3.000000 0 0
305 1 70.988758 12.660374 12.448447 3.000000 0 0
306 1 75.03784 16.980761 12.371669 3.000000 0 0
307 1 71.301081 16.57822 16.721317 3.000000 0 0
308 1 74.990417 12.410817 16.604856 3.000000 0 0
309 1 70.852479 12.668253 21.043706 3.000000 0 0
310 1 50.206684 16.691931 21.210267 3.000000 0 0
311 1 70.842422 16.695036 0.086775 3.000000 0 0
312 1 74.90845 12.499623 0.302497 3.000000 0 0
313 1 70.805512 20.807446 4.31313 3.000000 0 0
314 1 75.019549 0.01887 4.114409 3.000000 0 0
315 1 71.141632 24.513605 8.236006 3.000000 0 0
316 1 50.292542 21.033579 8.217018 3.000000 0 0
317 1 71.441493 20.695004 12.48975 3.000000 0 0
318 1 75.122639 0.250599 12.319274 3.000000 0 0
319 1 71.052677 0.06944 16.493602 3.000000 0 0
320 1 50.855452 20.720033 16.479671 3.000000 0 0
321 1 71.382237 20.784592 20.595619 3.000000 0 0
322 1 50.113954 0.462958 20.864623 3.000000 0 0
323 1 71.232638 24.762329 0.01406 3.000000 0 0
324 1 75.134885 20.9383 24.977797 3.000000 0 0
325 1 79.534227 4.073547 4.174716 3.000000 0 0
326 1 83.183197 8.131971 4.142375 3.000000 0 0
327 1 79.429472 8.440564 8.238099 3.000000 0 0
328 1 83.182788 4.024823 8.534886 3.000000 0 0
329 1 79.22591 4.221641 12.68838 3.000000 0 0
330 1 83.472696 8.354729 12.527547 3.000000 0 0
331 1 79.257486 8.003159 17.238187 3.000000 0 0
332 1 83.755335 4.364931 16.331085 3.000000 0 0
333 1 79.070371 4.332097 20.948412 3.000000 0 0
334 1 83.62069 8.570484 20.936279 3.000000 0 0
335 1 79.300709 8.134229 0.294103 3.000000 0 0
336 1 83.461372 4.125858 24.841832 3.000000 0 0
337 1 79.119099 12.720172 4.241754 3.000000 0 0
338 1 83.35581 16.593173 4.063514 3.000000 0 0
339 1 79.232604 17.047798 8.413562 3.000000 0 0
340 1 83.412492 12.451846 8.645075 3.000000 0 0
341 1 78.944865 12.644841 12.825559 3.000000 0 0
342 1 83.718407 16.590061 12.681531 3.000000 0 0
343 1 79.478758 16.219119 16.933769 3.000000 0 0
344 1 83.280669 12.753162 16.648338 3.000000 0 0
345 1 79.194234 12.442104 21.241736 3.000000 0 0
346 1 83.550339 16.79752 20.788781 3.000000 0 0
347 1 79.358757 16.929381 24.93402 3.000000 0 0
348 1 83.390746 12.373778 0.109172 3.000000 0 0
349 1 79.001261 21.036717 4.176523 3.000000 0 0
350 1 83.61942 0.027003 4.263671 3.000000 0 0
351 1 79.178001 24.940316 8.305952 3.000000 0 0
352 1 83.277906 21.093456 8.19519 3.000000 0 0
353 1 79.435764 20.853859 12.815999 3.000000 0 0
354 1 83.632784 24.880573 12.142882 3.000000 0 0
355 1 79.736885 0.270461 16.422004 3.000000 0 0
356 1 83.456915 20.806659 16.496972 3.000000 0 0
357 1 79.581691 21.065327 20.490862 3.000000 0 0
358 1 83.847054 0.447339 20.728485 3.000000 0 0
359 1 79.230637 0.054178 0.029188 3.000000 0 0
360 1 83.511423 21.174883 25.022042 3.000000 0 0
361 1 87.130123 4.537927 4.303362 3.000000 0 0
362 1 91.620769 8.255992 4.196595 3.000000 0 0
363 1 87.646533 8.439801 8.077208 3.000000 0 0
364 1 91.659235 3.855337 8.593308 3.000000 0 0
365 1 87.692024 4.47225 12.398965 3.000000 0 0
366 1 92.034254 8.48216 12.398797 3.000000 0 0
367 1 87.55552 8.685834 16.443113 3.000000 0 0
368 1 91.969844 4.595313 16.589477 3.000000 0 0
369 1 87.855989 4.776818 20.652757 3.000000 0 0
370 1 92.044511 8.424446 21.00702 3.000000 0 0
371 1 87.764161 8.208781 0.382012 3.000000 0 0
372 1 91.912288 4.157122 0.082472 3.000000 0 0
373 1 87.563052 12.506359 4.319301 3.000000 0 0
374 1 91.998518 16.370067 3.972573 3.000000 0 0
375 1 87.620148 16.542117 8.256625 3.000000 0 0
376 1 91.961403 12.292761 8.254483 3.000000 0 0
377 1 87.657273 12.742175 12.44758 3.000000 0 0
378 1 91.829042 16.598446 12.456181 3.000000 0 0
379 1 87.760103 16.800809 17.050997 3.000000 0 0
380 1 92.151103 12.217594 16.765324 3.000000 0 0
381 1 87.99141 12.312291 20.850256 3.000000 0 0
382 1 91.952154 16.649424 21.197587 3.000000 0 0
383 1 87.597072 16.30552 0.12101 3.000000 0 0
384 1 91.93654 12.290378 25.029988 3.000000 0 0
385 1 87.518783 20.625027 4.196214 3.000000 0 0
386 1 91.859389 24.944812 4.135863 3.000000 0 0
387 1 87.692771 24.609664 7.891456 3.000000 0 0
388 1 91.564441 20.857701 8.016537 3.000000 0 0
389 1 87.941697 20.557659 12.235001 3.000000 0 0
390 1 92.206979 24.805557 12.656301 3.000000 0 0
391 1 88.067493 0.387864 16.541011 3.000000 0 0
392 1 91.633447 20.671602 16.856259 3.000000 0 0
393 1 87.798735 20.890263 20.975417 3.000000 0 0
394 1 91.93886 0.405046 21.006958 3.000000 0 0
395 1 87.683083 0.178285 0.23953 3.000000 0 0
396 1 91.733513 20.645978 24.900556 3.000000 0 0
397 1 96.300532 4.037372 4.217652 3.000000 0 0
398 1 75.206836 8.403152 4.372958 3.000000 0 0
399 1 95.806263 8.255209 8.301362 3.000000 0 0
400 1 100.104707 4.03084 8.301326 3.000000 0 0
401 1 96.149742 4.272236 12.286077 3.000000 0 0
402 1 100.107967 8.399398 12.394663 3.000000 0 0
403 1 96.046401 8.292785 16.655531 3.000000 0 0
404 1 100.137926 4.575641 16.551327 3.000000 0 0
405 1 96.264196 4.114044 20.947365 3.000000 0 0
406 1 100.217928 8.548128 21.139524 3.000000 0 0
407 1 96.210045 8.298167 0.100921 3.000000 0 0
408 1 75.31643 4.187229 0.144043 3.000000 0 0
409 1 96.17938 12.385128 4.30779 3.000000 0 0
410 1 100.104097 16.765296 4.196326 3.000000 0 0
411 1 96.115817 16.837463 8.364919 3.000000 0 0
412 1 99.793453 12.510496 8.570384 3.000000 0 0
413 1 96.044758 12.660374 12.448447 3.000000 0 0
414 1 100.09384 16.980761 12.371669 3.000000 0 0
415 1 96.357081 16.57822 16.721317 3.000000 0 0
416 1 100.046417 12.410817 16.604856 3.000000 0 0
417 1 95.908479 12.668253 21.043706 3.000000 0 0
418 1 75.262684 16.691931 21.210267 3.000000 0 0
419 1 95.898422 16.695036 0.086775 3.000000 0 0
420 1 99.96445 12.499623 0.302497 3.000000 0 0
421 1 95.861512 20.807446 4.31313 3.000000 0 0
422 1 100.075549 0.01887 4.114409 3.000000 0 0
423 1 96.197632 24.513605 8.236006 3.000000 0 0
424 1 75.348542 21.033579 8.217018 3.000000 0 0
425 1 96.497493 20.695004 12.48975 3.000000 0 0
426 1 100.178639 0.250599 12.319274 3.000000 0 0
427 1 96.108677 0.06944 16.493602 3.000000 0 0
428 1 75.911452 20.720033 16.479671 3.000000 0 0
429 1 96.438237 20.784592 20.595619 3.000000 0 0
430 1 75.169954 0.462958 20.864623 3.000000 0 0
431 1 96.288638 24.762329 0.01406 3.000000 0 0
432 1 100.190885 20.9383 24.977797 3.000000 0 0
433 1 104.590227 4.073547 4.174716 3.000000 0 0
434 1 108.239197 8.131971 4.142375 3.000000 0 0
435 1 104.485472 8.440564 8.238099 3.000000 0 0
436 1 108.238788 4.024823 8.534886 3.000000 0 0
437 1 104.28191 4.221641 12.68838 3.000000 0 0
438 1 108.528696 8.354729 12.527547 3.000000 0 0
439 1 104.313486 8.003159 17.238187 3.000000 0 0
440 1 108.811335 4.364931 16.331085 3.000000 0 0
441 1 104.126371 4.332097 20.948412 3.000000 0 0
442 1 108.67669 8.570484 20.936279 3.000000 0 0
443 1 104.356709 8.134229 0.294103 3.000000 0 0
444 1 108.517372 4.125858 24.841832 3.000000 0 0
445 1 104.175099 12.720172 4.241754 3.000000 0 0
446 1 108.41181 16.593173 4.063514 3.000000 0 0
447 1 104.288604 17.047798 8.413562 3.000000 0 0
448 1 108.468492 12.451846 8.645075 3.000000 0 0
449 1 104.000865 12.644841 12.825559 3.000000 0 0
450 1 108.774407 16.590061 12.681531 3.000000 0 0
451 1 104.534758 16.219119 16.933769 3.000000 0 0
452 1 108.336669 12.753162 16.648338 3.000000 0 0
453 1 104.250234 12.442104 21.241736 3.000000 0 0
454 1 108.606339 16.79752 20.788781 3.000000 0 0
455 1 104.414757 16.929381 24.93402 3.000000 0 0
456 1 108.446746 12.373778 0.109172 3.000000 0 0
457 1 104.057261 21.036717 4.176523 3.000000 0 0
458 1 108.67542 0.027003 4.263671 3.000000 0 0
459 1 104.234001 24.940316 8.305952 3.000000 0 0
460 1 108.333906 21.093456 8.19519 3.000000 0 0
461 1 104.491764 20.853859 12.815999 3.000000 0 0
462 1 108.688784 24.880573 12.142882 3.000000 0 0
463 1 104.792885 0.270461 16.422004 3.000000 0 0
464 1 108.512915 20.806659 16.496972 3.000000 0 0
465 1 104.637691 21.065327 20.490862 3.000000 0 0
466 1 108.903054 0.447339 20.728485 3.000000 0 0
467 1 104.286637 0.054178 0.029188 3.000000 0 0
468 1 108.567423 21.174883 25.022042 3.000000 0 0
469 1 112.186123 4.537927 4.303362 3.000000 0 0
470 1 116.676769 8.255992 4.196595 3.000000 0 0
471 1 112.702533 8.439801 8.077208 3.000000 0 0
472 1 116.715235 3.855337 8.593308 3.000000 0 0
473 1 112.748024 4.47225 12.398965 3.000000 0 0
474 1 117.090254 8.48216 12.398797 3.000000 0 0
475 1 112.61152 8.685834 16.443113 3.000000 0 0
476 1 117.025844 4.595313 16.589477 3.000000 0 0
477 1 112.911989 4.776818 20.652757 3.000000 0 0
478 1 117.100511 8.424446 21.00702 3.000000 0 0
479 1 112.820161 8.208781 0.382012 3.000000 0 0
480 1 116.968288 4.157122 0.082472 3.000000 0 0
481 1 112.619052 12.506359 4.319301 3.000000 0 0
482 1 117.054518 16.370067 3.972573 3.000000 0 0
483 1 112.676148 16.542117 8.256625 3.000000 0 0
484 1 117.017403 12.292761 8.254483 3.000000 0 0
485 1 112.713273 12.742175 12.44758 3.000000 0 0
486 1 116.885042 16.598446 12.456181 3.000000 0 0
487 1 112.816103 16.800809 17.050997 3.000000 0 0
488 1 117.207103 12.217594 16.765324 3.000000 0 0
489 1 113.04741 12.312291 20.850256 3.000000 0 0
490 1 117.008154 16.649424 21.197587 3.000000 0 0
491 1 112.653072 16.30552 0.12101 3.000000 0 0
492 1 116.99254 12.290378 25.029988 3.000000 0 0
493 1 112.574783 20.625027 4.196214 3.000000 0 0
494 1 116.915389 24.944812 4.135863 3.000000 0 0
495 1 112.748771 24.609664 7.891456 3.000000 0 0
496 1 116.620441 20.857701 8.016537 3.000000 0 0
497 1 112.997697 20.557659 12.235001 3.000000 0 0
498 1 117.262979 24.805557 12.656301 3.000000 0 0
499 1 113.123493 0.387864 16.541011 3.000000 0 0
500 1 116.689447 20.671602 16.856259 3.000000 0 0
501 1 112.854735 20.890263 20.975417 3.000000 0 0
502 1 116.99486 0.405046 21.006958 3.000000 0 0
503 1 112.739083 0.178285 0.23953 3.000000 0 0
504 1 116.789513 20.645978 24.900556 3.000000 0 0
505 1 121.356532 4.037372 4.217652 3.000000 0 0
506 1 100.262836 8.403152 4.372958 3.000000 0 0
507 1 120.862263 8.255209 8.301362 3.000000 0 0
508 1 125.160707 4.03084 8.301326 3.000000 0 0
509 1 121.205742 4.272236 12.286077 3.000000 0 0
510 1 125.163967 8.399398 12.394663 3.000000 0 0
511 1 121.102401 8.292785 16.655531 3.000000 0 0
512 1 125.193926 4.575641 16.551327 3.000000 0 0
513 1 121.320196 4.114044 20.947365 3.000000 0 0
514 1 125.273928 8.548128 21.139524 3.000000 0 0
515 1 121.266045 8.298167 0.100921 3.000000 0 0
516 1 100.37243 4.187229 0.144043 3.000000 0 0
517 1 121.23538 12.385128 4.30779 3.000000 0 0
518 1 125.160097 16.765296 4.196326 3.000000 0 0
519 1 121.171817 16.837463 8.364919 3.000000 0 0
520 1 124.849453 12.510496 8.570384 3.000000 0 0
521 1 121.100758 12.660374 12.448447 3.000000 0 0
522 1 125.14984 16.980761 12.371669 3.000000 0 0
523 1 121.413081 16.57822 16.721317 3.000000 0 0
524 1 125.102417 12.410817 16.604856 3.000000 0 0
525 1 120.964479 12.668253 21.043706 3.000000 0 0
526 1 100.318684 16.691931 21.210267 3.000000 0 0
527 1 120.954422 16.695036 0.086775 3.000000 0 0
528 1 125.02045 12.499623 0.302497 3.000000 0 0
529 1 120.917512 20.807446 4.31313 3.000000 0 0
530 1 125.131549 0.01887 4.114409 3.000000 0 0
531 1 121.253632 24.513605 8.236006 3.000000 0 0
532 1 100.404542 21.033579 8.217018 3.000000 0 0
533 1 121.553493 20.695004 12.48975 3.000000 0 0
534 1 125.234639 0.250599 12.319274 3.000000 0 0
535 1 121.164677 0.06944 16.493602 3.000000 0 0
536 1 100.967452 20.720033 16.479671 3.000000 0 0
537 1 121.494237 20.784592 20.595619 3.000000 0 0
538 1 100.225954 0.462958 20.864623 3.000000 0 0
539 1 121.344638 24.762329 0.01406 3.000000 0 0
540 1 125.246885 20.9383 24.977797 3.000000 0 0
541 1 129.646227 4.073547 4.174716 3.000000 0 0
542 1 133.295197 8.131971 4.142375 3.000000 0 0
543 1 129.541472 8.440564 8.238099 3.000000 0 0
544 1 133.294788 4.024823 8.534886 3.000000 0 0
545 1 129.33791 4.221641 12.68838 3.000000 0 0
546 1 133.584696 8.354729 12.527547 3.000000 0 0
547 1 129.369486 8.003159 17.238187 3.000000 0 0
548 1 133.867335 4.364931 16.331085 3.000000 0 0
549 1 129.182371 4.332097 20.948412 3.000000 0 0
550 1 133.73269 8.570484 20.936279 3.000000 0 0
551 1 129.412709 8.134229 0.294103 3.000000 0 0
552 1 133.573372 4.125858 24.841832 3.000000 0 0
553 1 129.231099 12.720172 4.241754 3.000000 0 0
554 1 133.46781 16.593173 4.063514 3.000000 0 0
555 1 129.344604 17.047798 8.413562 3.000000 0 0
556 1 133.524492 12.451846 8.645075 3.000000 0 0
557 1 129.056865 12.644841 12.825559 3.000000 0 0
558 1 133.830407 16.590061 12.681531 3.000000 0 0
559 1 129.590758 16.219119 16.933769 3.000000 0 0
560 1 133.392669 12.753162 16.648338 3.000000 0 0
561 1 129.306234 12.442104 21.241736 3.000000 0 0
562 1 133.662339 16.79752 20.788781 3.000000 0 0
563 1 129.470757 16.929381 24.93402 3.000000 0 0
564 1 133.502746 12.373778 0.109172 3.000000 0 0
565 1 129.113261 21.036717 4.176523 3.000000 0 0
566 1 133.73142 0.027003 4.263671 3.000000 0 0
567 1 129.290001 24.940316 8.305952 3.000000 0 0
568 1 133.389906 21.093456 8.19519 3.000000 0 0
569 1 129.547764 20.853859 12.815999 3.000000 0 0
570 1 133.744784 24.880573 12.142882 3.000000 0 0
571 1 129.848885 0.270461 16.422004 3.000000 0 0
572 1 133.568915 20.806659 16.496972 3.000000 0 0
573 1 129.693691 21.065327 20.490862 3.000000 0 0
574 1 133.959054 0.447339 20.728485 3.000000 0 0
575 1 129.342637 0.054178 0.029188 3.000000 0 0
576 1 133.623423 21.174883 25.022042 3.000000 0 0
577 1 137.242123 4.537927 4.303362 3.000000 0 0
578 1 141.732769 8.255992 4.196595 3.000000 0 0
579 1 137.758533 8.439801 8.077208 3.000000 0 0
580 1 141.771235 3.855337 8.593308 3.000000 0 0
581 1 137.804024 4.47225 12.398965 3.000000 0 0
582 1 142.146254 8.48216 12.398797 3.000000 0 0
583 1 137.66752 8.685834 16.443113 3.000000 0 0
584 1 142.081844 4.595313 16.589477 3.000000 0 0
585 1 137.967989 4.776818 20.652757 3.000000 0 0
586 1 142.156511 8.424446 21.00702 3.000000 0 0
587 1 137.876161 8.208781 0.382012 3.000000 0 0
588 1 142.024288 4.157122 0.082472 3.000000 0 0
589 1 137.675052 12.506359 4.319301 3.000000 0 0
590 1 142.110518 16.370067 3.972573 3.000000 0 0
591 1 137.732148 16.542117 8.256625 3.000000 0 0
592 1 142.073403 12.292761 8.254483 3.000000 0 0
593 1 137.769273 12.742175 12.44758 3.000000 0 0
594 1 141.941042 16.598446 12.456181 3.000000 0 0
595 1 137.872103 16.800809 17.050997 3.000000 0 0
596 1 142.263103 12.217594 16.765324 3.000000 0 0
597 1 138.10341 12.312291 20.850256 3.000000 0 0
598 1 142.064154 16.649424 21.197587 3.000000 0 0
599 1 137.709072 16.30552 0.12101 3.000000 0 0
600 1 142.04854 12.290378 25.029988 3.000000 0 0
601 1 137.630783 20.625027 4.196214 3.000000 0 0
602 1 141.971389 24.944812 4.135863 3.000000 0 0
603 1 137.804771 24.609664 7.891456 3.000000 0 0
604 1 141.676441 20.857701 8.016537 3.000000 0 0
605 1 138.053697 20.557659 12.235001 3.000000 0 0
606 1 142.318979 24.805557 12.656301 3.000000 0 0
607 1 138.179493 0.387864 16.541011 3.000000 0 0
608 1 141.745447 20.671602 16.856259 3.000000 0 0
609 1 137.910735 20.890263 20.975417 3.000000 0 0
610 1 142.05086 0.405046 21.006958 3.000000 0 0
611 1 137.795083 0.178285 0.23953 3.000000 0 0
612 1 141.845513 20.645978 24.900556 3.000000 0 0
613 1 146.412532 4.037372 4.217652 3.000000 0 0
614 1 125.318836 8.403152 4.372958 3.000000 0 0
615 1 145.918263 8.255209 8.301362 3.000000 0 0
616 1 150.216707 4.03084 8.301326 3.000000 0 0
617 1 146.261742 4.272236 12.286077 3.000000 0 0
618 1 150.219967 8.399398 12.394663 3.000000 0 0
619 1 146.158401 8.292785 16.655531 3.000000 0 0
620 1 150.249926 4.575641 16.551327 3.000000 0 0
621 1 146.376196 4.114044 20.947365 3.000000 0 0