LAMMPS (15 Sep 2022)
variable	name string mixer

thermo_modify	flush yes
variable	seed equal 14314

###############################################
# Particle parameters
################################################

variable	rlo equal 0.3
variable	rhi equal 0.6
variable	dlo equal 2.0*${rlo}
variable	dlo equal 2.0*0.3
variable	dhi equal 2.0*${rhi}
variable	dhi equal 2.0*0.6
variable 	skin equal ${rhi}
variable 	skin equal 0.6

variable	coeffRes equal 0.1
variable	coeffFric equal 0.5

variable	kn equal 10^5
variable	kt equal 0.2*${kn}
variable	kt equal 0.2*100000

variable	gravity equal 1.0
variable	density equal 1.0

variable	min_mass equal ${density}*4.0/3.0*PI*${rlo}*${rlo}*${rlo}
variable	min_mass equal 1*4.0/3.0*PI*${rlo}*${rlo}*${rlo}
variable	min_mass equal 1*4.0/3.0*PI*0.3*${rlo}*${rlo}
variable	min_mass equal 1*4.0/3.0*PI*0.3*0.3*${rlo}
variable	min_mass equal 1*4.0/3.0*PI*0.3*0.3*0.3
variable	a equal (-2.0*log(${coeffRes})/PI)^2
variable	a equal (-2.0*log(0.1)/PI)^2
variable        gamma_n equal sqrt($a*2*${kn}/${min_mass}/(1+0.25*$a))
variable        gamma_n equal sqrt(0.405284734569351*2*${kn}/${min_mass}/(1+0.25*$a))
variable        gamma_n equal sqrt(0.405284734569351*2*100000/${min_mass}/(1+0.25*$a))
variable        gamma_n equal sqrt(0.405284734569351*2*100000/0.113097335529233/(1+0.25*$a))
variable        gamma_n equal sqrt(0.405284734569351*2*100000/0.113097335529233/(1+0.25*0.405284734569351))
variable        gamma_t equal ${gamma_n}*0.5
variable        gamma_t equal 806.699778405191*0.5

variable	tcol equal PI/sqrt(2*${kn}/${min_mass}-${gamma_n}/4.0)
variable	tcol equal PI/sqrt(2*100000/${min_mass}-${gamma_n}/4.0)
variable	tcol equal PI/sqrt(2*100000/0.113097335529233-${gamma_n}/4.0)
variable	tcol equal PI/sqrt(2*100000/0.113097335529233-806.699778405191/4.0)

variable	dt equal ${tcol}*0.02
variable	dt equal 0.00236257621510454*0.02
timestep	${dt}
timestep	4.72515243020908e-05

###############################################

variable	dumpfreq equal 1000
variable	logfreq equal 1000

newton 		on
atom_style	sphere

boundary	p p f

region		boxreg block 0 20 0 20 0 20
create_box	1 boxreg
Created orthogonal box = (0 0 0) to (20 20 20)
  1 by 2 by 2 MPI processor grid

pair_style	gran/hertz/history 		${kn} ${kt} ${gamma_n} ${gamma_t} ${coeffFric} 1
pair_style	gran/hertz/history 		100000 ${kt} ${gamma_n} ${gamma_t} ${coeffFric} 1
pair_style	gran/hertz/history 		100000 20000 ${gamma_n} ${gamma_t} ${coeffFric} 1
pair_style	gran/hertz/history 		100000 20000 806.699778405191 ${gamma_t} ${coeffFric} 1
pair_style	gran/hertz/history 		100000 20000 806.699778405191 403.349889202595 ${coeffFric} 1
pair_style	gran/hertz/history 		100000 20000 806.699778405191 403.349889202595 0.5 1
pair_coeff	* *

neighbor        ${skin} multi
neighbor        0.6 multi
thermo 		${logfreq}
thermo 		1000

comm_style	brick
comm_modify 	mode multi group all vel yes
balance		1.1 shift xyz 20 1.1
Balancing ...
Generated 0 of 0 mixed pair_coeff terms from geometric mixing rule
Neighbor list info ...
  update: every = 1 steps, delay = 0 steps, check = yes
  max neighbors/atom: 2000, page size: 100000
  master list distance cutoff = 0
  ghost atom cutoff = 0
  binsize = 20, bins = 1 1 1
  1 neighbor lists, perpetual/occasional/extra = 1 0 0
  (1) pair gran/hertz/history, perpetual
      attributes: half, newton on, size, history
      pair build: half/size/multi/newton
      stencil: half/multi/3d
      bin: multi
WARNING: Communication cutoff is 0.0. No ghost atoms will be generated. Atoms may get lost. (../comm_brick.cpp:210)
fix		bal all balance 10000 1.1 shift xyz 20 1.01

####################### Options specific to pouring #########################

region	     	insreg cylinder z 10 10 8 10 18 side in units box
region	    	cylreg cylinder z 10 10 10 0 20 side in units box

variable	theta equal (step/400000)*2*PI

region          b1 block 2 18 9 11 0 4 side out                 rotate v_theta 10 10 0 0 0 1 units box
region          b2 block 9 11 2 18 0 3.99999 side out                 rotate v_theta 10 10 0 0 0 1 units box

region		mixer intersect 3 cylreg b1 b2 side in

fix		grav all gravity ${gravity} vector 0 0 -1
fix		grav all gravity 1 vector 0 0 -1
fix		1 all nve/sphere

fix		mixwall all wall/gran/region hertz/history                 ${kn} ${kt} ${gamma_n} ${gamma_t} ${coeffFric} 1 region mixer
fix		mixwall all wall/gran/region hertz/history                 100000 ${kt} ${gamma_n} ${gamma_t} ${coeffFric} 1 region mixer
fix		mixwall all wall/gran/region hertz/history                 100000 20000 ${gamma_n} ${gamma_t} ${coeffFric} 1 region mixer
fix		mixwall all wall/gran/region hertz/history                 100000 20000 806.699778405191 ${gamma_t} ${coeffFric} 1 region mixer
fix		mixwall all wall/gran/region hertz/history                 100000 20000 806.699778405191 403.349889202595 ${coeffFric} 1 region mixer
fix		mixwall all wall/gran/region hertz/history                 100000 20000 806.699778405191 403.349889202595 0.5 1 region mixer

fix		ins all pour 1000 1 42424 region insreg 		diam range ${dlo} ${dhi} dens ${density} ${density}
fix		ins all pour 1000 1 42424 region insreg 		diam range 0.6 ${dhi} dens ${density} ${density}
fix		ins all pour 1000 1 42424 region insreg 		diam range 0.6 1.2 dens ${density} ${density}
fix		ins all pour 1000 1 42424 region insreg 		diam range 0.6 1.2 dens 1 ${density}
fix		ins all pour 1000 1 42424 region insreg 		diam range 0.6 1.2 dens 1 1
Particle insertion: 444 every 84653 steps, 1000 by step 169307

#dump		1 all custom ${dumpfreq} ${name}_pour.dump #		id type mass diameter x y z

#dump		2 all image 4000 image.*.jpg type type #		axes yes 0.8 0.02 view 60 -30 zoom 1.5 #                box no 0.0 axes no 0.0 0.0
#dump_modify	2 pad 6

thermo_style	custom step cpu atoms ke v_theta
WARNING: New thermo_style command, previous thermo_modify settings will be lost (../output.cpp:896)
thermo_modify	flush yes lost warn

run		200000

CITE-CITE-CITE-CITE-CITE-CITE-CITE-CITE-CITE-CITE-CITE-CITE-CITE

Your simulation uses code contributions which should be cited:

- neighbor multi command: doi:10.1016/j.cpc.2008.03.005, doi:10.1007/s40571-020-00361-2

@Article{Intveld08,
 author =  {in 't Veld, P. J. and S. J.~Plimpton and G. S. Grest},
 title =   {Accurate and Efficient Methods for Modeling Colloidal
            Mixtures in an Explicit Solvent using Molecular Dynamics},
 journal = {Comput.\ Phys.\ Commut.},
 year =    2008,
 volume =  179,
 pages =   {320--329}
}

@article{Shire2020,
 author = {Shire, Tom and Hanley, Kevin J. and Stratford, Kevin},
 title = {{DEM} Simulations of Polydisperse Media: Efficient Contact
          Detection Applied to Investigate the Quasi-Static Limit},
 journal = {Computational Particle Mechanics},
 year = {2020}
}

CITE-CITE-CITE-CITE-CITE-CITE-CITE-CITE-CITE-CITE-CITE-CITE-CITE

Generated 0 of 0 mixed pair_coeff terms from geometric mixing rule
Per MPI rank memory allocation (min/avg/max) = 5.816 | 5.816 | 5.816 Mbytes
   Step          CPU          Atoms        KinEng        v_theta    
         0   0                      0  -0              0            
      1000   0.089993907          444  -0              0.015707963  
      2000   0.14885989           444  -0              0.031415927  
      3000   0.20954563           444  -0              0.04712389   
      4000   0.27002257           444  -0              0.062831853  
      5000   0.33034347           444  -0              0.078539816  
      6000   0.39049526           444  -0              0.09424778   
      7000   0.45002664           444  -0              0.10995574   
      8000   0.50911338           444  -0              0.12566371   
      9000   0.56771745           444  -0              0.14137167   
     10000   0.62699472           444  -0              0.15707963   
     11000   0.67300351           444  -0              0.1727876    
     12000   0.71981356           444  -0              0.18849556   
     13000   0.76697682           444  -0              0.20420352   
     14000   0.81412229           444  -0              0.21991149   
     15000   0.86284749           444  -0              0.23561945   
     16000   0.91199522           444  -0              0.25132741   
     17000   0.96230663           444  -0              0.26703538   
     18000   1.0118327            444  -0              0.28274334   
     19000   1.0617397            444  -0              0.2984513    
     20000   1.111586             444  -0              0.31415927   
     21000   1.1556637            444  -0              0.32986723   
     22000   1.2005913            444  -0              0.34557519   
     23000   1.2455061            444  -0              0.36128316   
     24000   1.2910181            444  -0              0.37699112   
     25000   1.3370577            444  -0              0.39269908   
     26000   1.383595             444  -0              0.40840704   
     27000   1.430922             444  -0              0.42411501   
     28000   1.478627             444  -0              0.43982297   
     29000   1.5278607            444  -0              0.45553093   
     30000   1.576597             444  -0              0.4712389    
     31000   1.6202694            444  -0              0.48694686   
     32000   1.6646667            444  -0              0.50265482   
     33000   1.7092726            444  -0              0.51836279   
     34000   1.7535573            444  -0              0.53407075   
     35000   1.7985995            444  -0              0.54977871   
     36000   1.8440346            444  -0              0.56548668   
     37000   1.8900841            444  -0              0.58119464   
     38000   1.9368772            444  -0              0.5969026    
     39000   1.9842867            444  -0              0.61261057   
     40000   2.0318482            444  -0              0.62831853   
     41000   2.0753049            444  -0              0.64402649   
     42000   2.1196274            444  -0              0.65973446   
     43000   2.1647071            444  -0              0.67544242   
     44000   2.2101195            444  -0              0.69115038   
     45000   2.2564642            444  -0              0.70685835   
     46000   2.3033573            444  -0              0.72256631   
     47000   2.3500515            444  -0              0.73827427   
     48000   2.3972268            444  -0              0.75398224   
     49000   2.4444727            444  -0              0.7696902    
     50000   2.4921003            444  -0              0.78539816   
     51000   2.535088             444  -0              0.80110613   
     52000   2.5785564            444  -0              0.81681409   
     53000   2.6221392            444  -0              0.83252205   
     54000   2.6664169            444  -0              0.84823002   
     55000   2.7108951            444  -0              0.86393798   
     56000   2.7560522            444  -0              0.87964594   
     57000   2.8010254            444  -0              0.89535391   
     58000   2.8484456            444  -0              0.91106187   
     59000   2.8951674            444  -0              0.92676983   
     60000   2.9424205            444  -0              0.9424778    
     61000   2.9885999            444  -0              0.95818576   
     62000   3.0338676            444  -0              0.97389372   
     63000   3.0793674            444  -0              0.98960169   
     64000   3.1253557            444  -0              1.0053096    
     65000   3.1723823            444  -0              1.0210176    
     66000   3.2203846            444  -0              1.0367256    
     67000   3.2690443            444  -0              1.0524335    
     68000   3.317707             444  -0              1.0681415    
     69000   3.3670196            444  -0              1.0838495    
     70000   3.4160505            444  -0              1.0995574    
     71000   3.4621197            444  -0              1.1152654    
     72000   3.5086434            444  -0              1.1309734    
     73000   3.555691             444  -0              1.1466813    
     74000   3.6032072            444  -0              1.1623893    
     75000   3.6514849            444  -0              1.1780972    
     76000   3.7002713            444  -0              1.1938052    
     77000   3.7497321            444  -0              1.2095132    
     78000   3.7997711            444  -0              1.2252211    
     79000   3.8504338            444  -0              1.2409291    
     80000   3.9020416            444  -0              1.2566371    
     81000   3.9496762            444  -0              1.272345     
     82000   3.9968215            444  -0              1.288053     
     83000   4.04496              444  -0              1.303761     
     84000   4.0936477            444  -0              1.3194689    
     85000   4.1618384            888  -0              1.3351769    
     86000   4.2472086            888  -0              1.3508848    
     87000   4.3322855            888  -0              1.3665928    
     88000   4.4169835            888  -0              1.3823008    
     89000   4.5014588            888  -0              1.3980087    
     90000   4.5861842            888  -0              1.4137167    
     91000   4.653654             888  -0              1.4294247    
     92000   4.7217642            888  -0              1.4451326    
     93000   4.791842             888  -0              1.4608406    
     94000   4.8601789            888  -0              1.4765485    
     95000   4.92849              888  -0              1.4922565    
     96000   4.9976811            888  -0              1.5079645    
     97000   5.0687073            888  -0              1.5236724    
     98000   5.1387234            888  -0              1.5393804    
     99000   5.2086037            888  -0              1.5550884    
    100000   5.2786924            888  -0              1.5707963    
    101000   5.3466895            888  -0              1.5865043    
    102000   5.417132             888  -0              1.6022123    
    103000   5.4865633            888  -0              1.6179202    
    104000   5.5565911            888  -0              1.6336282    
    105000   5.6266394            888  -0              1.6493361    
    106000   5.6975394            888  -0              1.6650441    
    107000   5.7687753            888  -0              1.6807521    
    108000   5.8408498            888  -0              1.69646      
    109000   5.9132618            888  -0              1.712168     
    110000   5.9872629            888  -0              1.727876     
    111000   6.0588115            888  -0              1.7435839    
    112000   6.1308729            888  -0              1.7592919    
    113000   6.2047311            888  -0              1.7749998    
    114000   6.2780757            888  -0              1.7907078    
    115000   6.3528542            888  -0              1.8064158    
    116000   6.4277704            888  -0              1.8221237    
    117000   6.5034683            888  -0              1.8378317    
    118000   6.5795779            888  -0              1.8535397    
    119000   6.655928             888  -0              1.8692476    
    120000   6.7335119            888  -0              1.8849556    
    121000   6.806827             888  -0              1.9006636    
    122000   6.881052             888  -0              1.9163715    
    123000   6.9559647            888  -0              1.9320795    
    124000   7.0300829            888  -0              1.9477874    
    125000   7.1047925            888  -0              1.9634954    
    126000   7.1797025            888  -0              1.9792034    
    127000   7.2556934            888  -0              1.9949113    
    128000   7.3317803            888  -0              2.0106193    
    129000   7.4088096            888  -0              2.0263273    
    130000   7.4862461            888  -0              2.0420352    
    131000   7.5633585            888  -0              2.0577432    
    132000   7.641939             888  -0              2.0734512    
    133000   7.7192741            888  -0              2.0891591    
    134000   7.7970156            888  -0              2.1048671    
    135000   7.8760712            888  -0              2.120575     
    136000   7.9563099            888  -0              2.136283     
    137000   8.0381808            888  -0              2.151991     
    138000   8.1210957            888  -0              2.1676989    
    139000   8.20401              888  -0              2.1834069    
    140000   8.2871705            888  -0              2.1991149    
    141000   8.364321             888  -0              2.2148228    
    142000   8.4426744            888  -0              2.2305308    
    143000   8.5238377            888  -0              2.2462387    
    144000   8.6050517            888  -0              2.2619467    
    145000   8.6865872            888  -0              2.2776547    
    146000   8.767621             888  -0              2.2933626    
    147000   8.8496616            888  -0              2.3090706    
    148000   8.9329599            888  -0              2.3247786    
    149000   9.0165929            888  -0              2.3404865    
    150000   9.1015214            888  -0              2.3561945    
    151000   9.1847289            888  -0              2.3719025    
    152000   9.2689185            888  -0              2.3876104    
    153000   9.3518862            888  -0              2.4033184    
    154000   9.4367057            888  -0              2.4190263    
    155000   9.5227466            888  -0              2.4347343    
    156000   9.6087196            888  -0              2.4504423    
    157000   9.6955661            888  -0              2.4661502    
    158000   9.7838227            888  -0              2.4818582    
    159000   9.8731804            888  -0              2.4975662    
    160000   9.9626648            888  -0              2.5132741    
    161000   10.050473            888  -0              2.5289821    
    162000   10.137725            888  -0              2.54469      
    163000   10.227259            888  -0              2.560398     
    164000   10.318501            888  -0              2.576106     
    165000   10.409218            888  -0              2.5918139    
    166000   10.502055            888  -0              2.6075219    
    167000   10.593786            888  -0              2.6232299    
    168000   10.688536            888  -0              2.6389378    
    169000   10.786033            888  -0              2.6546458    
    170000   10.886377           1000  -0              2.6703538    
    171000   10.987493           1000  -0              2.6860617    
    172000   11.084584           1000  -0              2.7017697    
    173000   11.181502           1000  -0              2.7174776    
    174000   11.28434            1000  -0              2.7331856    
    175000   11.387838           1000  -0              2.7488936    
    176000   11.490915           1000  -0              2.7646015    
    177000   11.595473           1000  -0              2.7803095    
    178000   11.699823           1000  -0              2.7960175    
    179000   11.803927           1000  -0              2.8117254    
    180000   11.90548            1000  -0              2.8274334    
    181000   12.00857            1000  -0              2.8431414    
    182000   12.112787           1000  -0              2.8588493    
    183000   12.217943           1000  -0              2.8745573    
    184000   12.322668           1000  -0              2.8902652    
    185000   12.428332           1000  -0              2.9059732    
    186000   12.535414           1000  -0              2.9216812    
    187000   12.642404           1000  -0              2.9373891    
    188000   12.749332           1000  -0              2.9530971    
    189000   12.856872           1000  -0              2.9688051    
    190000   12.965335           1000  -0              2.984513     
    191000   13.073275           1000  -0              3.000221     
    192000   13.180122           1000  -0              3.0159289    
    193000   13.288112           1000  -0              3.0316369    
    194000   13.394688           1000  -0              3.0473449    
    195000   13.501251           1000  -0              3.0630528    
    196000   13.607472           1000  -0              3.0787608    
    197000   13.71396            1000  -0              3.0944688    
    198000   13.821133           1000  -0              3.1101767    
    199000   13.929192           1000  -0              3.1258847    
    200000   14.036724           1000  -0              3.1415927    
Loop time of 14.0368 on 4 procs for 200000 steps with 1000 atoms

Performance: 58169.166 tau/day, 14248.307 timesteps/s, 14.248 Matom-step/s
95.5% CPU use with 4 MPI tasks x no OpenMP threads

MPI task timing breakdown:
Section |  min time  |  avg time  |  max time  |%varavg| %total
---------------------------------------------------------------
Pair    | 0.47004    | 0.75698    | 1.1        |  33.1 |  5.39
Neigh   | 0.0078501  | 0.010659   | 0.013902   |   2.7 |  0.08
Comm    | 3.9589     | 4.4102     | 4.9322     |  21.6 | 31.42
Output  | 0.0031054  | 0.0046208  | 0.0069341  |   2.1 |  0.03
Modify  | 6.1829     | 6.8363     | 7.6135     |  24.8 | 48.70
Other   |            | 2.018      |            |       | 14.38

Nlocal:            250 ave         260 max         242 min
Histogram: 1 0 1 0 0 1 0 0 0 1
Nghost:         279.25 ave         325 max         232 min
Histogram: 1 1 0 0 0 0 0 0 1 1
Neighs:         939.75 ave        1397 max         509 min
Histogram: 2 0 0 0 0 0 0 0 0 2

Total # of neighbors = 3759
Ave neighs/atom = 3.759
Neighbor list builds = 201
Dangerous builds = 0
unfix 		ins
run		200000
Generated 0 of 0 mixed pair_coeff terms from geometric mixing rule
Per MPI rank memory allocation (min/avg/max) = 11.87 | 11.88 | 11.89 Mbytes
   Step          CPU          Atoms        KinEng        v_theta    
    200000   0                   1000   1.0071568      3.1415927    
    201000   0.099357585         1000   1.0036239      3.1573006    
    202000   0.19922889          1000   0.99846844     3.1730086    
    203000   0.29896537          1000   0.98236169     3.1887165    
    204000   0.39875771          1000   0.98625572     3.2044245    
    205000   0.49759454          1000   0.9893407      3.2201325    
    206000   0.59609243          1000   1.0012123      3.2358404    
    207000   0.69408206          1000   1.0231892      3.2515484    
    208000   0.79216806          1000   1.0265912      3.2672564    
    209000   0.8902274           1000   1.0190202      3.2829643    
    210000   0.98909509          1000   1.0267754      3.2986723    
    211000   1.0882901           1000   1.0186847      3.3143802    
    212000   1.1895753           1000   1.0159848      3.3300882    
    213000   1.2891277           1000   0.99326329     3.3457962    
    214000   1.387486            1000   0.97263135     3.3615041    
    215000   1.4850078           1000   0.97246409     3.3772121    
    216000   1.58405             1000   0.96000626     3.3929201    
    217000   1.6853829           1000   0.95730432     3.408628     
    218000   1.7911163           1000   0.95605591     3.424336     
    219000   1.8974141           1000   0.94983        3.440044     
    220000   2.0029829           1000   0.95291888     3.4557519    
    221000   2.108723            1000   0.93612997     3.4714599    
    222000   2.2151561           1000   0.93414081     3.4871678    
    223000   2.3220866           1000   0.93321246     3.5028758    
    224000   2.4285504           1000   0.93026943     3.5185838    
    225000   2.5356173           1000   0.930478       3.5342917    
    226000   2.6415516           1000   0.92909096     3.5499997    
    227000   2.747634            1000   0.92308495     3.5657077    
    228000   2.8524082           1000   0.91075986     3.5814156    
    229000   2.9570172           1000   0.9006662      3.5971236    
    230000   3.0627535           1000   0.88869212     3.6128316    
    231000   3.1683919           1000   0.8877611      3.6285395    
    232000   3.2749534           1000   0.89409636     3.6442475    
    233000   3.3824185           1000   0.90866091     3.6599554    
    234000   3.4917899           1000   0.90454601     3.6756634    
    235000   3.6009156           1000   0.89408327     3.6913714    
    236000   3.7111309           1000   0.8881044      3.7070793    
    237000   3.8197619           1000   0.89322168     3.7227873    
    238000   3.9302291           1000   0.89018045     3.7384953    
    239000   4.0407242           1000   0.88771268     3.7542032    
    240000   4.1521989           1000   0.88957717     3.7699112    
    241000   4.2639861           1000   0.89362036     3.7856191    
    242000   4.3782856           1000   0.90967472     3.8013271    
    243000   4.4925107           1000   0.91366381     3.8170351    
    244000   4.6057342           1000   0.9150959      3.832743     
    245000   4.7199383           1000   0.92725789     3.848451     
    246000   4.8346784           1000   0.93024722     3.864159     
    247000   4.9515438           1000   0.93297974     3.8798669    
    248000   5.0696512           1000   0.94755869     3.8955749    
    249000   5.1838845           1000   0.94761679     3.9112829    
    250000   5.297991            1000   0.92701064     3.9269908    
    251000   5.412562            1000   0.91365252     3.9426988    
    252000   5.5274859           1000   0.90918381     3.9584067    
    253000   5.6418647           1000   0.90612685     3.9741147    
    254000   5.7593721           1000   0.90352142     3.9898227    
    255000   5.8759086           1000   0.90421567     4.0055306    
    256000   5.993588            1000   0.90024688     4.0212386    
    257000   6.1142027           1000   0.88540341     4.0369466    
    258000   6.2318882           1000   0.87890423     4.0526545    
    259000   6.3502765           1000   0.86833748     4.0683625    
    260000   6.4677878           1000   0.85465694     4.0840704    
    261000   6.5875341           1000   0.83941242     4.0997784    
    262000   6.7063481           1000   0.81790404     4.1154864    
    263000   6.8249742           1000   0.82284562     4.1311943    
    264000   6.9421188           1000   0.80961447     4.1469023    
    265000   7.0588866           1000   0.80567073     4.1626103    
    266000   7.1763855           1000   0.79577448     4.1783182    
    267000   7.295632            1000   0.78489106     4.1940262    
    268000   7.4144463           1000   0.77348757     4.2097342    
    269000   7.5333839           1000   0.76606696     4.2254421    
    270000   7.6527119           1000   0.7649744      4.2411501    
    271000   7.7704222           1000   0.76050309     4.256858     
    272000   7.8903012           1000   0.75378759     4.272566     
    273000   8.0106197           1000   0.75633811     4.288274     
    274000   8.1309707           1000   0.75703106     4.3039819    
    275000   8.2522837           1000   0.75227453     4.3196899    
    276000   8.3730898           1000   0.76003902     4.3353979    
    277000   8.4955037           1000   0.76274661     4.3511058    
    278000   8.6153206           1000   0.75888482     4.3668138    
    279000   8.7339569           1000   0.75071875     4.3825218    
    280000   8.8515447           1000   0.75454927     4.3982297    
    281000   8.9685253           1000   0.75617824     4.4139377    
    282000   9.0856168           1000   0.75230835     4.4296456    
    283000   9.2018894           1000   0.75417571     4.4453536    
    284000   9.3179777           1000   0.74559345     4.4610616    
    285000   9.4341721           1000   0.73274661     4.4767695    
    286000   9.5498722           1000   0.72385193     4.4924775    
    287000   9.6651326           1000   0.72398899     4.5081855    
    288000   9.7810274           1000   0.72009027     4.5238934    
    289000   9.8959471           1000   0.72026686     4.5396014    
    290000   10.010007           1000   0.72330145     4.5553093    
    291000   10.123304           1000   0.71630656     4.5710173    
    292000   10.238277           1000   0.71089192     4.5867253    
    293000   10.351465           1000   0.70584923     4.6024332    
    294000   10.464794           1000   0.71350398     4.6181412    
    295000   10.57818            1000   0.72781836     4.6338492    
    296000   10.692249           1000   0.72285512     4.6495571    
    297000   10.80741            1000   0.71649517     4.6652651    
    298000   10.923694           1000   0.71132209     4.6809731    
    299000   11.039173           1000   0.73602072     4.696681     
    300000   11.157002           1000   0.74400837     4.712389     
    301000   11.272462           1000   0.76618562     4.7280969    
    302000   11.386581           1000   0.77476041     4.7438049    
    303000   11.499191           1000   0.77124283     4.7595129    
    304000   11.611585           1000   0.7625748      4.7752208    
    305000   11.725012           1000   0.74979361     4.7909288    
    306000   11.838032           1000   0.74515733     4.8066368    
    307000   11.949194           1000   0.74302741     4.8223447    
    308000   12.060586           1000   0.73732959     4.8380527    
    309000   12.171445           1000   0.73368237     4.8537606    
    310000   12.283518           1000   0.72374292     4.8694686    
    311000   12.393447           1000   0.72107784     4.8851766    
    312000   12.505136           1000   0.72944426     4.9008845    
    313000   12.616959           1000   0.73958637     4.9165925    
    314000   12.730312           1000   0.75160847     4.9323005    
    315000   12.846163           1000   0.74419683     4.9480084    
    316000   12.960328           1000   0.74652593     4.9637164    
    317000   13.073994           1000   0.74933482     4.9794244    
    318000   13.186549           1000   0.74200509     4.9951323    
    319000   13.296925           1000   0.7346024      5.0108403    
    320000   13.406825           1000   0.72806145     5.0265482    
    321000   13.51703            1000   0.72147888     5.0422562    
    322000   13.628261           1000   0.71460041     5.0579642    
    323000   13.74063            1000   0.70255075     5.0736721    
    324000   13.853826           1000   0.70640327     5.0893801    
    325000   13.968533           1000   0.70643428     5.1050881    
    326000   14.081456           1000   0.69751794     5.120796     
    327000   14.195505           1000   0.69035108     5.136504     
    328000   14.310048           1000   0.68068243     5.152212     
    329000   14.426048           1000   0.69123492     5.1679199    
    330000   14.543349           1000   0.70326515     5.1836279    
    331000   14.662021           1000   0.70551726     5.1993358    
    332000   14.782194           1000   0.70514444     5.2150438    
    333000   14.901573           1000   0.71102045     5.2307518    
    334000   15.020642           1000   0.71336747     5.2464597    
    335000   15.136739           1000   0.70816388     5.2621677    
    336000   15.252554           1000   0.69502472     5.2778757    
    337000   15.368496           1000   0.69314289     5.2935836    
    338000   15.483744           1000   0.68565794     5.3092916    
    339000   15.599584           1000   0.67268053     5.3249995    
    340000   15.717342           1000   0.68313196     5.3407075    
    341000   15.835594           1000   0.68782815     5.3564155    
    342000   15.954546           1000   0.6989326      5.3721234    
    343000   16.074184           1000   0.694926       5.3878314    
    344000   16.193902           1000   0.7006474      5.4035394    
    345000   16.314878           1000   0.70783177     5.4192473    
    346000   16.434704           1000   0.71334276     5.4349553    
    347000   16.554708           1000   0.72917419     5.4506633    
    348000   16.673034           1000   0.74315705     5.4663712    
    349000   16.791269           1000   0.76731311     5.4820792    
    350000   16.912554           1000   0.79761434     5.4977871    
    351000   17.03323            1000   0.80447724     5.5134951    
    352000   17.155644           1000   0.80118728     5.5292031    
    353000   17.281134           1000   0.77990459     5.544911     
    354000   17.406672           1000   0.76453299     5.560619     
    355000   17.532346           1000   0.76538392     5.576327     
    356000   17.657256           1000   0.76310698     5.5920349    
    357000   17.782477           1000   0.75897095     5.6077429    
    358000   17.909642           1000   0.75071115     5.6234508    
    359000   18.035032           1000   0.74034801     5.6391588    
    360000   18.160696           1000   0.72671924     5.6548668    
    361000   18.285089           1000   0.72111017     5.6705747    
    362000   18.408849           1000   0.71875181     5.6862827    
    363000   18.533901           1000   0.71469706     5.7019907    
    364000   18.659326           1000   0.70470493     5.7176986    
    365000   18.784109           1000   0.70863047     5.7334066    
    366000   18.911344           1000   0.70850561     5.7491146    
    367000   19.039756           1000   0.71413452     5.7648225    
    368000   19.169907           1000   0.71314184     5.7805305    
    369000   19.299066           1000   0.71309549     5.7962384    
    370000   19.428116           1000   0.71132937     5.8119464    
    371000   19.553027           1000   0.70788039     5.8276544    
    372000   19.678121           1000   0.71780071     5.8433623    
    373000   19.804465           1000   0.72352571     5.8590703    
    374000   19.92949            1000   0.71723739     5.8747783    
    375000   20.053554           1000   0.71556941     5.8904862    
    376000   20.177991           1000   0.70935312     5.9061942    
    377000   20.301972           1000   0.71551157     5.9219022    
    378000   20.427612           1000   0.7235163      5.9376101    
    379000   20.554742           1000   0.73896421     5.9533181    
    380000   20.680899           1000   0.74906169     5.969026     
    381000   20.805515           1000   0.75303336     5.984734     
    382000   20.931483           1000   0.75359492     6.000442     
    383000   21.05731            1000   0.75579354     6.0161499    
    384000   21.184712           1000   0.75178368     6.0318579    
    385000   21.310667           1000   0.74412159     6.0475659    
    386000   21.433509           1000   0.7360955      6.0632738    
    387000   21.554251           1000   0.73461103     6.0789818    
    388000   21.674477           1000   0.72496617     6.0946897    
    389000   21.794698           1000   0.7219047      6.1103977    
    390000   21.914083           1000   0.71837013     6.1261057    
    391000   22.033188           1000   0.71495923     6.1418136    
    392000   22.152689           1000   0.71436707     6.1575216    
    393000   22.271183           1000   0.71447834     6.1732296    
    394000   22.389775           1000   0.71334298     6.1889375    
    395000   22.509106           1000   0.71510229     6.2046455    
    396000   22.628068           1000   0.7121714      6.2203535    
    397000   22.746926           1000   0.70818894     6.2360614    
    398000   22.865086           1000   0.70059455     6.2517694    
    399000   22.982394           1000   0.69960089     6.2674773    
    400000   23.100381           1000   0.70261998     6.2831853    
Loop time of 23.1004 on 4 procs for 200000 steps with 1000 atoms

Performance: 35345.963 tau/day, 8657.854 timesteps/s, 8.658 Matom-step/s
92.9% CPU use with 4 MPI tasks x no OpenMP threads

MPI task timing breakdown:
Section |  min time  |  avg time  |  max time  |%varavg| %total
---------------------------------------------------------------
Pair    | 1.263      | 2.1388     | 3.0295     |  58.6 |  9.26
Neigh   | 0.012633   | 0.017793   | 0.023147   |   3.7 |  0.08
Comm    | 7.8521     | 9.0474     | 10.284     |  39.6 | 39.17
Output  | 0.0029549  | 0.004916   | 0.0068506  |   2.0 |  0.02
Modify  | 8.3635     | 9.8066     | 11.142     |  41.0 | 42.45
Other   |            | 2.085      |            |       |  9.03

Nlocal:            250 ave         258 max         241 min
Histogram: 1 0 0 0 1 0 0 1 0 1
Nghost:            412 ave         492 max         332 min
Histogram: 2 0 0 0 0 0 0 0 0 2
Neighs:         1258.5 ave        1588 max         953 min
Histogram: 2 0 0 0 0 0 0 0 1 1

Total # of neighbors = 5034
Ave neighs/atom = 5.034
Neighbor list builds = 159
Dangerous builds = 0
Total wall time: 0:00:37
