LAMMPS (15 Sep 2022)
variable	name string mixer

thermo_modify	flush yes
variable	seed equal 14314

###############################################
# Particle parameters
################################################

variable	rlo equal 0.3
variable	rhi equal 0.6
variable	dlo equal 2.0*${rlo}
variable	dlo equal 2.0*0.3
variable	dhi equal 2.0*${rhi}
variable	dhi equal 2.0*0.6
variable 	skin equal ${rhi}
variable 	skin equal 0.6

variable	coeffRes equal 0.1
variable	coeffFric equal 0.5

variable	kn equal 10^5
variable	kt equal 0.2*${kn}
variable	kt equal 0.2*100000

variable	gravity equal 1.0
variable	density equal 1.0

variable	min_mass equal ${density}*4.0/3.0*PI*${rlo}*${rlo}*${rlo}
variable	min_mass equal 1*4.0/3.0*PI*${rlo}*${rlo}*${rlo}
variable	min_mass equal 1*4.0/3.0*PI*0.3*${rlo}*${rlo}
variable	min_mass equal 1*4.0/3.0*PI*0.3*0.3*${rlo}
variable	min_mass equal 1*4.0/3.0*PI*0.3*0.3*0.3
variable	a equal (-2.0*log(${coeffRes})/PI)^2
variable	a equal (-2.0*log(0.1)/PI)^2
variable        gamma_n equal sqrt($a*2*${kn}/${min_mass}/(1+0.25*$a))
variable        gamma_n equal sqrt(0.405284734569351*2*${kn}/${min_mass}/(1+0.25*$a))
variable        gamma_n equal sqrt(0.405284734569351*2*100000/${min_mass}/(1+0.25*$a))
variable        gamma_n equal sqrt(0.405284734569351*2*100000/0.113097335529233/(1+0.25*$a))
variable        gamma_n equal sqrt(0.405284734569351*2*100000/0.113097335529233/(1+0.25*0.405284734569351))
variable        gamma_t equal ${gamma_n}*0.5
variable        gamma_t equal 806.699778405191*0.5

variable	tcol equal PI/sqrt(2*${kn}/${min_mass}-${gamma_n}/4.0)
variable	tcol equal PI/sqrt(2*100000/${min_mass}-${gamma_n}/4.0)
variable	tcol equal PI/sqrt(2*100000/0.113097335529233-${gamma_n}/4.0)
variable	tcol equal PI/sqrt(2*100000/0.113097335529233-806.699778405191/4.0)

variable	dt equal ${tcol}*0.02
variable	dt equal 0.00236257621510454*0.02
timestep	${dt}
timestep	4.72515243020908e-05

###############################################

variable	dumpfreq equal 1000
variable	logfreq equal 1000

newton 		on
atom_style	sphere

boundary	p p f

region		boxreg block 0 20 0 20 0 20
create_box	1 boxreg
Created orthogonal box = (0 0 0) to (20 20 20)
  1 by 1 by 1 MPI processor grid

pair_style	gran/hertz/history 		${kn} ${kt} ${gamma_n} ${gamma_t} ${coeffFric} 1
pair_style	gran/hertz/history 		100000 ${kt} ${gamma_n} ${gamma_t} ${coeffFric} 1
pair_style	gran/hertz/history 		100000 20000 ${gamma_n} ${gamma_t} ${coeffFric} 1
pair_style	gran/hertz/history 		100000 20000 806.699778405191 ${gamma_t} ${coeffFric} 1
pair_style	gran/hertz/history 		100000 20000 806.699778405191 403.349889202595 ${coeffFric} 1
pair_style	gran/hertz/history 		100000 20000 806.699778405191 403.349889202595 0.5 1
pair_coeff	* *

neighbor        ${skin} multi
neighbor        0.6 multi
thermo 		${logfreq}
thermo 		1000

comm_style	brick
comm_modify 	mode multi group all vel yes
balance		1.1 shift xyz 20 1.1
Balancing ...
Generated 0 of 0 mixed pair_coeff terms from geometric mixing rule
Neighbor list info ...
  update: every = 1 steps, delay = 0 steps, check = yes
  max neighbors/atom: 2000, page size: 100000
  master list distance cutoff = 0
  ghost atom cutoff = 0
  binsize = 20, bins = 1 1 1
  1 neighbor lists, perpetual/occasional/extra = 1 0 0
  (1) pair gran/hertz/history, perpetual
      attributes: half, newton on, size, history
      pair build: half/size/multi/newton
      stencil: half/multi/3d
      bin: multi
WARNING: Communication cutoff is 0.0. No ghost atoms will be generated. Atoms may get lost. (../comm_brick.cpp:210)
fix		bal all balance 10000 1.1 shift xyz 20 1.01

####################### Options specific to pouring #########################

region	     	insreg cylinder z 10 10 8 10 18 side in units box
region	    	cylreg cylinder z 10 10 10 0 20 side in units box

variable	theta equal (step/400000)*2*PI

region          b1 block 2 18 9 11 0 4 side out                 rotate v_theta 10 10 0 0 0 1 units box
region          b2 block 9 11 2 18 0 3.99999 side out                 rotate v_theta 10 10 0 0 0 1 units box

region		mixer intersect 3 cylreg b1 b2 side in

fix		grav all gravity ${gravity} vector 0 0 -1
fix		grav all gravity 1 vector 0 0 -1
fix		1 all nve/sphere

fix		mixwall all wall/gran/region hertz/history                 ${kn} ${kt} ${gamma_n} ${gamma_t} ${coeffFric} 1 region mixer
fix		mixwall all wall/gran/region hertz/history                 100000 ${kt} ${gamma_n} ${gamma_t} ${coeffFric} 1 region mixer
fix		mixwall all wall/gran/region hertz/history                 100000 20000 ${gamma_n} ${gamma_t} ${coeffFric} 1 region mixer
fix		mixwall all wall/gran/region hertz/history                 100000 20000 806.699778405191 ${gamma_t} ${coeffFric} 1 region mixer
fix		mixwall all wall/gran/region hertz/history                 100000 20000 806.699778405191 403.349889202595 ${coeffFric} 1 region mixer
fix		mixwall all wall/gran/region hertz/history                 100000 20000 806.699778405191 403.349889202595 0.5 1 region mixer

fix		ins all pour 1000 1 42424 region insreg 		diam range ${dlo} ${dhi} dens ${density} ${density}
fix		ins all pour 1000 1 42424 region insreg 		diam range 0.6 ${dhi} dens ${density} ${density}
fix		ins all pour 1000 1 42424 region insreg 		diam range 0.6 1.2 dens ${density} ${density}
fix		ins all pour 1000 1 42424 region insreg 		diam range 0.6 1.2 dens 1 ${density}
fix		ins all pour 1000 1 42424 region insreg 		diam range 0.6 1.2 dens 1 1
Particle insertion: 444 every 84653 steps, 1000 by step 169307

#dump		1 all custom ${dumpfreq} ${name}_pour.dump #		id type mass diameter x y z

#dump		2 all image 4000 image.*.jpg type type #		axes yes 0.8 0.02 view 60 -30 zoom 1.5 #                box no 0.0 axes no 0.0 0.0
#dump_modify	2 pad 6

thermo_style	custom step cpu atoms ke v_theta
WARNING: New thermo_style command, previous thermo_modify settings will be lost (../output.cpp:896)
thermo_modify	flush yes lost warn

run		200000

CITE-CITE-CITE-CITE-CITE-CITE-CITE-CITE-CITE-CITE-CITE-CITE-CITE

Your simulation uses code contributions which should be cited:

- neighbor multi command: doi:10.1016/j.cpc.2008.03.005, doi:10.1007/s40571-020-00361-2

@Article{Intveld08,
 author =  {in 't Veld, P. J. and S. J.~Plimpton and G. S. Grest},
 title =   {Accurate and Efficient Methods for Modeling Colloidal
            Mixtures in an Explicit Solvent using Molecular Dynamics},
 journal = {Comput.\ Phys.\ Commut.},
 year =    2008,
 volume =  179,
 pages =   {320--329}
}

@article{Shire2020,
 author = {Shire, Tom and Hanley, Kevin J. and Stratford, Kevin},
 title = {{DEM} Simulations of Polydisperse Media: Efficient Contact
          Detection Applied to Investigate the Quasi-Static Limit},
 journal = {Computational Particle Mechanics},
 year = {2020}
}

CITE-CITE-CITE-CITE-CITE-CITE-CITE-CITE-CITE-CITE-CITE-CITE-CITE

Generated 0 of 0 mixed pair_coeff terms from geometric mixing rule
Per MPI rank memory allocation (min/avg/max) = 5.861 | 5.861 | 5.861 Mbytes
   Step          CPU          Atoms        KinEng        v_theta    
         0   0                      0  -0              0            
      1000   0.10672296           444  -0              0.015707963  
      2000   0.2090638            444  -0              0.031415927  
      3000   0.31029663           444  -0              0.04712389   
      4000   0.41047624           444  -0              0.062831853  
      5000   0.51132361           444  -0              0.078539816  
      6000   0.61279172           444  -0              0.09424778   
      7000   0.71396622           444  -0              0.10995574   
      8000   0.81644319           444  -0              0.12566371   
      9000   0.91730959           444  -0              0.14137167   
     10000   1.0181635            444  -0              0.15707963   
     11000   1.1182214            444  -0              0.1727876    
     12000   1.2190013            444  -0              0.18849556   
     13000   1.3196138            444  -0              0.20420352   
     14000   1.4183593            444  -0              0.21991149   
     15000   1.5178458            444  -0              0.23561945   
     16000   1.6169535            444  -0              0.25132741   
     17000   1.7219188            444  -0              0.26703538   
     18000   1.8266303            444  -0              0.28274334   
     19000   1.9331589            444  -0              0.2984513    
     20000   2.0392693            444  -0              0.31415927   
     21000   2.1457521            444  -0              0.32986723   
     22000   2.2507526            444  -0              0.34557519   
     23000   2.3548243            444  -0              0.36128316   
     24000   2.4606335            444  -0              0.37699112   
     25000   2.5657643            444  -0              0.39269908   
     26000   2.6698254            444  -0              0.40840704   
     27000   2.7732221            444  -0              0.42411501   
     28000   2.8766441            444  -0              0.43982297   
     29000   2.9801547            444  -0              0.45553093   
     30000   3.0839748            444  -0              0.4712389    
     31000   3.1880063            444  -0              0.48694686   
     32000   3.2923439            444  -0              0.50265482   
     33000   3.3969501            444  -0              0.51836279   
     34000   3.5012646            444  -0              0.53407075   
     35000   3.6057831            444  -0              0.54977871   
     36000   3.7098273            444  -0              0.56548668   
     37000   3.8146061            444  -0              0.58119464   
     38000   3.9215588            444  -0              0.5969026    
     39000   4.0474026            444  -0              0.61261057   
     40000   4.1544945            444  -0              0.62831853   
     41000   4.2605761            444  -0              0.64402649   
     42000   4.3665287            444  -0              0.65973446   
     43000   4.4728216            444  -0              0.67544242   
     44000   4.5782483            444  -0              0.69115038   
     45000   4.6833043            444  -0              0.70685835   
     46000   4.7902207            444  -0              0.72256631   
     47000   4.8968527            444  -0              0.73827427   
     48000   5.0035027            444  -0              0.75398224   
     49000   5.1117191            444  -0              0.7696902    
     50000   5.2186233            444  -0              0.78539816   
     51000   5.3244005            444  -0              0.80110613   
     52000   5.4316153            444  -0              0.81681409   
     53000   5.5381785            444  -0              0.83252205   
     54000   5.6458179            444  -0              0.84823002   
     55000   5.759203             444  -0              0.86393798   
     56000   5.8779849            444  -0              0.87964594   
     57000   5.9953108            444  -0              0.89535391   
     58000   6.1115532            444  -0              0.91106187   
     59000   6.2298342            444  -0              0.92676983   
     60000   6.3474382            444  -0              0.9424778    
     61000   6.4642217            444  -0              0.95818576   
     62000   6.5815141            444  -0              0.97389372   
     63000   6.6999766            444  -0              0.98960169   
     64000   6.8181369            444  -0              1.0053096    
     65000   6.9368124            444  -0              1.0210176    
     66000   7.0560733            444  -0              1.0367256    
     67000   7.1761749            444  -0              1.0524335    
     68000   7.2942246            444  -0              1.0681415    
     69000   7.4146786            444  -0              1.0838495    
     70000   7.5364025            444  -0              1.0995574    
     71000   7.6565177            444  -0              1.1152654    
     72000   7.7776652            444  -0              1.1309734    
     73000   7.8972494            444  -0              1.1466813    
     74000   8.0183599            444  -0              1.1623893    
     75000   8.1423045            444  -0              1.1780972    
     76000   8.2667013            444  -0              1.1938052    
     77000   8.3876604            444  -0              1.2095132    
     78000   8.5095993            444  -0              1.2252211    
     79000   8.6317663            444  -0              1.2409291    
     80000   8.7562108            444  -0              1.2566371    
     81000   8.8812625            444  -0              1.272345     
     82000   9.006825             444  -0              1.288053     
     83000   9.1310939            444  -0              1.303761     
     84000   9.2540049            444  -0              1.3194689    
     85000   9.4210019            888  -0              1.3351769    
     86000   9.6509014            888  -0              1.3508848    
     87000   9.8827304            888  -0              1.3665928    
     88000   10.113857            888  -0              1.3823008    
     89000   10.34324             888  -0              1.3980087    
     90000   10.574203            888  -0              1.4137167    
     91000   10.806069            888  -0              1.4294247    
     92000   11.037044            888  -0              1.4451326    
     93000   11.262596            888  -0              1.4608406    
     94000   11.490532            888  -0              1.4765485    
     95000   11.716452            888  -0              1.4922565    
     96000   11.943883            888  -0              1.5079645    
     97000   12.171353            888  -0              1.5236724    
     98000   12.396787            888  -0              1.5393804    
     99000   12.623788            888  -0              1.5550884    
    100000   12.849633            888  -0              1.5707963    
    101000   13.082904            888  -0              1.5865043    
    102000   13.316986            888  -0              1.6022123    
    103000   13.54777             888  -0              1.6179202    
    104000   13.77928             888  -0              1.6336282    
    105000   14.014818            888  -0              1.6493361    
    106000   14.250986            888  -0              1.6650441    
    107000   14.485754            888  -0              1.6807521    
    108000   14.720106            888  -0              1.69646      
    109000   14.970869            888  -0              1.712168     
    110000   15.219203            888  -0              1.727876     
    111000   15.469876            888  -0              1.7435839    
    112000   15.721351            888  -0              1.7592919    
    113000   15.972099            888  -0              1.7749998    
    114000   16.222357            888  -0              1.7907078    
    115000   16.474863            888  -0              1.8064158    
    116000   16.725352            888  -0              1.8221237    
    117000   16.979634            888  -0              1.8378317    
    118000   17.231379            888  -0              1.8535397    
    119000   17.483691            888  -0              1.8692476    
    120000   17.737897            888  -0              1.8849556    
    121000   17.991241            888  -0              1.9006636    
    122000   18.245626            888  -0              1.9163715    
    123000   18.499984            888  -0              1.9320795    
    124000   18.754367            888  -0              1.9477874    
    125000   19.006448            888  -0              1.9634954    
    126000   19.260545            888  -0              1.9792034    
    127000   19.513633            888  -0              1.9949113    
    128000   19.769389            888  -0              2.0106193    
    129000   20.025088            888  -0              2.0263273    
    130000   20.277534            888  -0              2.0420352    
    131000   20.529284            888  -0              2.0577432    
    132000   20.785132            888  -0              2.0734512    
    133000   21.038442            888  -0              2.0891591    
    134000   21.293932            888  -0              2.1048671    
    135000   21.545354            888  -0              2.120575     
    136000   21.799547            888  -0              2.136283     
    137000   22.053639            888  -0              2.151991     
    138000   22.310106            888  -0              2.1676989    
    139000   22.569362            888  -0              2.1834069    
    140000   22.829416            888  -0              2.1991149    
    141000   23.089132            888  -0              2.2148228    
    142000   23.345737            888  -0              2.2305308    
    143000   23.60621             888  -0              2.2462387    
    144000   23.867414            888  -0              2.2619467    
    145000   24.132954            888  -0              2.2776547    
    146000   24.39395             888  -0              2.2933626    
    147000   24.657881            888  -0              2.3090706    
    148000   24.918563            888  -0              2.3247786    
    149000   25.177446            888  -0              2.3404865    
    150000   25.446598            888  -0              2.3561945    
    151000   25.715494            888  -0              2.3719025    
    152000   25.985991            888  -0              2.3876104    
    153000   26.256676            888  -0              2.4033184    
    154000   26.525639            888  -0              2.4190263    
    155000   26.82656             888  -0              2.4347343    
    156000   27.157272            888  -0              2.4504423    
    157000   27.481755            888  -0              2.4661502    
    158000   27.80198             888  -0              2.4818582    
    159000   28.123258            888  -0              2.4975662    
    160000   28.437502            888  -0              2.5132741    
    161000   28.756496            888  -0              2.5289821    
    162000   29.080609            888  -0              2.54469      
    163000   29.399252            888  -0              2.560398     
    164000   29.718986            888  -0              2.576106     
    165000   30.045206            888  -0              2.5918139    
    166000   30.365168            888  -0              2.6075219    
    167000   30.684007            888  -0              2.6232299    
    168000   31.006154            888  -0              2.6389378    
    169000   31.330336            888  -0              2.6546458    
    170000   31.681761           1000  -0              2.6703538    
    171000   32.049778           1000  -0              2.6860617    
    172000   32.421067           1000  -0              2.7017697    
    173000   32.79935            1000  -0              2.7174776    
    174000   33.178002           1000  -0              2.7331856    
    175000   33.54236            1000  -0              2.7488936    
    176000   33.904734           1000  -0              2.7646015    
    177000   34.269671           1000  -0              2.7803095    
    178000   34.633106           1000  -0              2.7960175    
    179000   35.001441           1000  -0              2.8117254    
    180000   35.374769           1000  -0              2.8274334    
    181000   35.742362           1000  -0              2.8431414    
    182000   36.115908           1000  -0              2.8588493    
    183000   36.490149           1000  -0              2.8745573    
    184000   36.866289           1000  -0              2.8902652    
    185000   37.252911           1000  -0              2.9059732    
    186000   37.644586           1000  -0              2.9216812    
    187000   38.028002           1000  -0              2.9373891    
    188000   38.40724            1000  -0              2.9530971    
    189000   38.77431            1000  -0              2.9688051    
    190000   39.14138            1000  -0              2.984513     
    191000   39.519083           1000  -0              3.000221     
    192000   39.895243           1000  -0              3.0159289    
    193000   40.237532           1000  -0              3.0316369    
    194000   40.587663           1000  -0              3.0473449    
    195000   40.939032           1000  -0              3.0630528    
    196000   41.290257           1000  -0              3.0787608    
    197000   41.643778           1000  -0              3.0944688    
    198000   41.992818           1000  -0              3.1101767    
    199000   42.335934           1000  -0              3.1258847    
    200000   42.681071           1000  -0              3.1415927    
Loop time of 42.6811 on 1 procs for 200000 steps with 1000 atoms

Performance: 19130.397 tau/day, 4685.915 timesteps/s, 4.686 Matom-step/s
98.5% CPU use with 1 MPI tasks x no OpenMP threads

MPI task timing breakdown:
Section |  min time  |  avg time  |  max time  |%varavg| %total
---------------------------------------------------------------
Pair    | 2.6365     | 2.6365     | 2.6365     |   0.0 |  6.18
Neigh   | 0.051681   | 0.051681   | 0.051681   |   0.0 |  0.12
Comm    | 0.52007    | 0.52007    | 0.52007    |   0.0 |  1.22
Output  | 0.02209    | 0.02209    | 0.02209    |   0.0 |  0.05
Modify  | 38.71      | 38.71      | 38.71      |   0.0 | 90.70
Other   |            | 0.7407     |            |       |  1.74

Nlocal:           1000 ave        1000 max        1000 min
Histogram: 1 0 0 0 0 0 0 0 0 0
Nghost:            183 ave         183 max         183 min
Histogram: 1 0 0 0 0 0 0 0 0 0
Neighs:           3757 ave        3757 max        3757 min
Histogram: 1 0 0 0 0 0 0 0 0 0

Total # of neighbors = 3757
Ave neighs/atom = 3.757
Neighbor list builds = 200
Dangerous builds = 0
unfix 		ins
run		200000
Generated 0 of 0 mixed pair_coeff terms from geometric mixing rule
Per MPI rank memory allocation (min/avg/max) = 11.89 | 11.89 | 11.89 Mbytes
   Step          CPU          Atoms        KinEng        v_theta    
    200000   0                   1000   1.0515941      3.1415927    
    201000   0.35477257          1000   1.0348185      3.1573006    
    202000   0.71436123          1000   1.0220859      3.1730086    
    203000   1.0642832           1000   1.0225785      3.1887165    
    204000   1.4165213           1000   1.0206121      3.2044245    
    205000   1.7728133           1000   1.009961       3.2201325    
    206000   2.1279101           1000   0.9993323      3.2358404    
    207000   2.480623            1000   0.99602628     3.2515484    
    208000   2.8321106           1000   0.98341818     3.2672564    
    209000   3.2138945           1000   0.96700718     3.2829643    
    210000   3.5921146           1000   0.95226699     3.2986723    
    211000   3.9643569           1000   0.93911691     3.3143802    
    212000   4.3368151           1000   0.92920029     3.3300882    
    213000   4.7130192           1000   0.91893472     3.3457962    
    214000   5.0881313           1000   0.90873324     3.3615041    
    215000   5.4660106           1000   0.88925817     3.3772121    
    216000   5.8455926           1000   0.89108236     3.3929201    
    217000   6.2204827           1000   0.90176711     3.408628     
    218000   6.6046736           1000   0.90149435     3.424336     
    219000   6.9931145           1000   0.89629307     3.440044     
    220000   7.3771565           1000   0.90390589     3.4557519    
    221000   7.7635603           1000   0.87858148     3.4714599    
    222000   8.1502771           1000   0.88862314     3.4871678    
    223000   8.5393557           1000   0.90394098     3.5028758    
    224000   8.9327212           1000   0.91005462     3.5185838    
    225000   9.315331            1000   0.91753865     3.5342917    
    226000   9.6930994           1000   0.91741233     3.5499997    
    227000   10.077148           1000   0.9041879      3.5657077    
    228000   10.463223           1000   0.9085712      3.5814156    
    229000   10.850271           1000   0.8937854      3.5971236    
    230000   11.230235           1000   0.88740571     3.6128316    
    231000   11.61003            1000   0.88350028     3.6285395    
    232000   11.988134           1000   0.88344474     3.6442475    
    233000   12.365856           1000   0.88003311     3.6599554    
    234000   12.745397           1000   0.87416727     3.6756634    
    235000   13.120344           1000   0.86154585     3.6913714    
    236000   13.489521           1000   0.85705071     3.7070793    
    237000   13.858736           1000   0.85297378     3.7227873    
    238000   14.230242           1000   0.84879486     3.7384953    
    239000   14.609692           1000   0.86978407     3.7542032    
    240000   14.998899           1000   0.86758733     3.7699112    
    241000   15.40773            1000   0.86123097     3.7856191    
    242000   15.81537            1000   0.86088136     3.8013271    
    243000   16.221448           1000   0.85270311     3.8170351    
    244000   16.619008           1000   0.8524395      3.832743     
    245000   17.003986           1000   0.84054009     3.848451     
    246000   17.380362           1000   0.82623612     3.864159     
    247000   17.756477           1000   0.82787746     3.8798669    
    248000   18.136456           1000   0.83027177     3.8955749    
    249000   18.521277           1000   0.83307565     3.9112829    
    250000   18.906407           1000   0.82612362     3.9269908    
    251000   19.28348            1000   0.8404639      3.9426988    
    252000   19.66549            1000   0.83550946     3.9584067    
    253000   20.053842           1000   0.81516472     3.9741147    
    254000   20.451357           1000   0.79127421     3.9898227    
    255000   20.844416           1000   0.78373024     4.0055306    
    256000   21.228637           1000   0.79885661     4.0212386    
    257000   21.613641           1000   0.80322118     4.0369466    
    258000   21.99162            1000   0.79861523     4.0526545    
    259000   22.367158           1000   0.79216962     4.0683625    
    260000   22.746158           1000   0.79543097     4.0840704    
    261000   23.125626           1000   0.79394211     4.0997784    
    262000   23.504282           1000   0.79269346     4.1154864    
    263000   23.883609           1000   0.80022854     4.1311943    
    264000   24.261864           1000   0.79885184     4.1469023    
    265000   24.639269           1000   0.79595018     4.1626103    
    266000   25.016335           1000   0.78191184     4.1783182    
    267000   25.389754           1000   0.76329279     4.1940262    
    268000   25.762053           1000   0.7342663      4.2097342    
    269000   26.133966           1000   0.72303366     4.2254421    
    270000   26.511157           1000   0.70016481     4.2411501    
    271000   26.888842           1000   0.68891731     4.256858     
    272000   27.26804            1000   0.68545775     4.272566     
    273000   27.644067           1000   0.68712156     4.288274     
    274000   28.024704           1000   0.69249813     4.3039819    
    275000   28.404842           1000   0.70187847     4.3196899    
    276000   28.785799           1000   0.70679419     4.3353979    
    277000   29.165857           1000   0.70955357     4.3511058    
    278000   29.545291           1000   0.70183408     4.3668138    
    279000   29.926113           1000   0.69979273     4.3825218    
    280000   30.302095           1000   0.70822139     4.3982297    
    281000   30.684406           1000   0.71629209     4.4139377    
    282000   31.065873           1000   0.73094905     4.4296456    
    283000   31.445972           1000   0.74554115     4.4453536    
    284000   31.828184           1000   0.74390104     4.4610616    
    285000   32.207807           1000   0.74675359     4.4767695    
    286000   32.58802            1000   0.75330713     4.4924775    
    287000   32.964457           1000   0.75525926     4.5081855    
    288000   33.343222           1000   0.75174884     4.5238934    
    289000   33.717663           1000   0.74062375     4.5396014    
    290000   34.094722           1000   0.72784613     4.5553093    
    291000   34.46982            1000   0.72151574     4.5710173    
    292000   34.843777           1000   0.71712409     4.5867253    
    293000   35.208307           1000   0.71803758     4.6024332    
    294000   35.576207           1000   0.71002715     4.6181412    
    295000   35.942972           1000   0.7070911      4.6338492    
    296000   36.3107             1000   0.71082175     4.6495571    
    297000   36.682044           1000   0.70438977     4.6652651    
    298000   37.054664           1000   0.70240345     4.6809731    
    299000   37.424717           1000   0.70525357     4.696681     
    300000   37.796148           1000   0.70636846     4.712389     
    301000   38.166828           1000   0.70443346     4.7280969    
    302000   38.538428           1000   0.71187973     4.7438049    
    303000   38.907221           1000   0.71047139     4.7595129    
    304000   39.280263           1000   0.71405925     4.7752208    
    305000   39.652902           1000   0.71277063     4.7909288    
    306000   40.02752            1000   0.72005331     4.8066368    
    307000   40.402955           1000   0.72466112     4.8223447    
    308000   40.784177           1000   0.72001329     4.8380527    
    309000   41.173226           1000   0.70611982     4.8537606    
    310000   41.559195           1000   0.70810918     4.8694686    
    311000   41.946697           1000   0.70377166     4.8851766    
    312000   42.337059           1000   0.70434458     4.9008845    
    313000   42.728304           1000   0.70707385     4.9165925    
    314000   43.120803           1000   0.71412995     4.9323005    
    315000   43.510705           1000   0.72228946     4.9480084    
    316000   43.901867           1000   0.72715835     4.9637164    
    317000   44.295667           1000   0.73833476     4.9794244    
    318000   44.687503           1000   0.75953014     4.9951323    
    319000   45.077121           1000   0.76413836     5.0108403    
    320000   45.465317           1000   0.76745045     5.0265482    
    321000   45.86931            1000   0.75813288     5.0422562    
    322000   46.277029           1000   0.75324661     5.0579642    
    323000   46.680799           1000   0.75004276     5.0736721    
    324000   47.082361           1000   0.74316264     5.0893801    
    325000   47.481252           1000   0.74087383     5.1050881    
    326000   47.87511            1000   0.73244882     5.120796     
    327000   48.274582           1000   0.73096631     5.136504     
    328000   48.671718           1000   0.72955403     5.152212     
    329000   49.066335           1000   0.73464916     5.1679199    
    330000   49.459765           1000   0.73130257     5.1836279    
    331000   49.850698           1000   0.73008711     5.1993358    
    332000   50.241012           1000   0.72561074     5.2150438    
    333000   50.643245           1000   0.7214495      5.2307518    
    334000   51.039153           1000   0.71274232     5.2464597    
    335000   51.430328           1000   0.71335777     5.2621677    
    336000   51.819148           1000   0.71317423     5.2778757    
    337000   52.202763           1000   0.70965743     5.2935836    
    338000   52.585061           1000   0.69648518     5.3092916    
    339000   52.967678           1000   0.68985842     5.3249995    
    340000   53.351472           1000   0.6846783      5.3407075    
    341000   53.737731           1000   0.69031602     5.3564155    
    342000   54.131413           1000   0.69035259     5.3721234    
    343000   54.526384           1000   0.69843983     5.3878314    
    344000   54.921609           1000   0.69566088     5.4035394    
    345000   55.314258           1000   0.68309182     5.4192473    
    346000   55.701119           1000   0.68360919     5.4349553    
    347000   56.088194           1000   0.68034628     5.4506633    
    348000   56.467878           1000   0.67155093     5.4663712    
    349000   56.857709           1000   0.66504603     5.4820792    
    350000   57.250758           1000   0.66533658     5.4977871    
    351000   57.643438           1000   0.67726804     5.5134951    
    352000   58.04256            1000   0.68880987     5.5292031    
    353000   58.437369           1000   0.71377276     5.544911     
    354000   58.832421           1000   0.71715625     5.560619     
    355000   59.222221           1000   0.71729576     5.576327     
    356000   59.621431           1000   0.71088872     5.5920349    
    357000   60.013262           1000   0.70564615     5.6077429    
    358000   60.406494           1000   0.69291739     5.6234508    
    359000   60.800632           1000   0.68237469     5.6391588    
    360000   61.195364           1000   0.69105856     5.6548668    
    361000   61.588291           1000   0.69563351     5.6705747    
    362000   61.984821           1000   0.69762747     5.6862827    
    363000   62.377158           1000   0.69717346     5.7019907    
    364000   62.77604            1000   0.69413964     5.7176986    
    365000   63.165863           1000   0.68584257     5.7334066    
    366000   63.5503             1000   0.67653762     5.7491146    
    367000   63.930717           1000   0.66880284     5.7648225    
    368000   64.313698           1000   0.66024732     5.7805305    
    369000   64.708193           1000   0.65451701     5.7962384    
    370000   65.10142            1000   0.64352268     5.8119464    
    371000   65.49169            1000   0.63715296     5.8276544    
    372000   65.879115           1000   0.63840106     5.8433623    
    373000   66.268258           1000   0.64537192     5.8590703    
    374000   66.661807           1000   0.64498753     5.8747783    
    375000   67.052521           1000   0.64666103     5.8904862    
    376000   67.443168           1000   0.65957055     5.9061942    
    377000   67.835892           1000   0.65964257     5.9219022    
    378000   68.229282           1000   0.65720396     5.9376101    
    379000   68.623557           1000   0.66304265     5.9533181    
    380000   69.015967           1000   0.67465814     5.969026     
    381000   69.408981           1000   0.68582945     5.984734     
    382000   69.796561           1000   0.69516677     6.000442     
    383000   70.186403           1000   0.69835516     6.0161499    
    384000   70.5765             1000   0.70403284     6.0318579    
    385000   70.966205           1000   0.6955862      6.0475659    
    386000   71.360054           1000   0.704932       6.0632738    
    387000   71.757912           1000   0.71954173     6.0789818    
    388000   72.147544           1000   0.72347529     6.0946897    
    389000   72.535029           1000   0.72738907     6.1103977    
    390000   72.925842           1000   0.74783091     6.1261057    
    391000   73.306871           1000   0.76739039     6.1418136    
    392000   73.692746           1000   0.77184224     6.1575216    
    393000   74.053385           1000   0.76813357     6.1732296    
    394000   74.416323           1000   0.75994091     6.1889375    
    395000   74.777021           1000   0.74970188     6.2046455    
    396000   75.139847           1000   0.7523174      6.2203535    
    397000   75.502888           1000   0.74652931     6.2360614    
    398000   75.865442           1000   0.74418096     6.2517694    
    399000   76.225245           1000   0.75110038     6.2674773    
    400000   76.590032           1000   0.7609274      6.2831853    
Loop time of 76.5901 on 1 procs for 200000 steps with 1000 atoms

Performance: 10660.735 tau/day, 2611.305 timesteps/s, 2.611 Matom-step/s
99.0% CPU use with 1 MPI tasks x no OpenMP threads

MPI task timing breakdown:
Section |  min time  |  avg time  |  max time  |%varavg| %total
---------------------------------------------------------------
Pair    | 8.693      | 8.693      | 8.693      |   0.0 | 11.35
Neigh   | 0.082655   | 0.082655   | 0.082655   |   0.0 |  0.11
Comm    | 1.1618     | 1.1618     | 1.1618     |   0.0 |  1.52
Output  | 0.0052644  | 0.0052644  | 0.0052644  |   0.0 |  0.01
Modify  | 65.713     | 65.713     | 65.713     |   0.0 | 85.80
Other   |            | 0.934      |            |       |  1.22

Nlocal:           1000 ave        1000 max        1000 min
Histogram: 1 0 0 0 0 0 0 0 0 0
Nghost:            268 ave         268 max         268 min
Histogram: 1 0 0 0 0 0 0 0 0 0
Neighs:           5015 ave        5015 max        5015 min
Histogram: 1 0 0 0 0 0 0 0 0 0

Total # of neighbors = 5015
Ave neighs/atom = 5.015
Neighbor list builds = 163
Dangerous builds = 0
Total wall time: 0:01:59
