/home/users/matoum4n/lammps/ace/trimer_en/trimer_3body_dev/run/data_lammps000001o7fc22oa (written by ASE) 

3 	 atoms 
1  atom types
0.0 20.000000000  xlo xhi
0.0 20.000000000  ylo yhi
0.0 20.000000000  zlo zhi


Atoms 

     1   1 0E-9 0E-9 0E-9
     2   1 0E-9 0E-9 2.000000000
     3   1 0E-9 1.000000000 2.000000000
