ITEM: TIMESTEP
0
ITEM: NUMBER OF ATOMS
3
ITEM: BOX BOUNDS pp pp pp
0.0000000000000000e+00 2.0000000000000000e+01
0.0000000000000000e+00 2.0000000000000000e+01
0.0000000000000000e+00 2.0000000000000000e+01
ITEM: ATOMS id type x y z vx vy vz fx fy fz 
1 1 0 0 0 0 0 0 0 8.88766 37.0278 
2 1 0 0 2 0 0 0 0 -95.7817 -19.2524 
3 1 0 1 2 0 0 0 0 86.894 -17.7753 
