LAMMPS data file via write_data, version 4 Jan 2019, timestep = 0

32 atoms
1 atom types

0.0000000000000000e+00 1.1465999999999999e+01 xlo xhi
0.0000000000000000e+00 1.1465999999999999e+01 ylo yhi
-1.0000000000000000e+00 10.0664999999999998e+00 zlo zhi

Masses

1 55.845

Atoms # spin

1 1 2.2000000000000002e+00 0.0000000000000000e+00 0.0000000000000000e+00 0.0000000000000000e+00 1.0000000000000000e+00 0.0000000000000000e+00 0.0000000000000000e+00 0 0 0
2 1 2.2000000000000002e+00 1.4332499999999999e+00 1.4332499999999999e+00 1.4332499999999999e+00 1.0000000000000000e+00 0.0000000000000000e+00 0.0000000000000000e+00 0 0 0
3 1 2.2000000000000002e+00 2.8664999999999998e+00 0.0000000000000000e+00 0.0000000000000000e+00 1.0000000000000000e+00 0.0000000000000000e+00 0.0000000000000000e+00 0 0 0
4 1 2.2000000000000002e+00 4.2997499999999995e+00 1.4332499999999999e+00 1.4332499999999999e+00 1.0000000000000000e+00 0.0000000000000000e+00 0.0000000000000000e+00 0 0 0
5 1 2.2000000000000002e+00 5.7329999999999997e+00 0.0000000000000000e+00 0.0000000000000000e+00 1.0000000000000000e+00 0.0000000000000000e+00 0.0000000000000000e+00 0 0 0
6 1 2.2000000000000002e+00 7.1662499999999998e+00 1.4332499999999999e+00 1.4332499999999999e+00 1.0000000000000000e+00 0.0000000000000000e+00 0.0000000000000000e+00 0 0 0
7 1 2.2000000000000002e+00 8.5994999999999990e+00 0.0000000000000000e+00 0.0000000000000000e+00 1.0000000000000000e+00 0.0000000000000000e+00 0.0000000000000000e+00 0 0 0
8 1 2.2000000000000002e+00 1.0032750000000000e+01 1.4332499999999999e+00 1.4332499999999999e+00 1.0000000000000000e+00 0.0000000000000000e+00 0.0000000000000000e+00 0 0 0
9 1 2.2000000000000002e+00 0.0000000000000000e+00 2.8664999999999998e+00 0.0000000000000000e+00 1.0000000000000000e+00 0.0000000000000000e+00 0.0000000000000000e+00 0 0 0
11 1 2.2000000000000002e+00 2.8664999999999998e+00 2.8664999999999998e+00 0.0000000000000000e+00 1.0000000000000000e+00 0.0000000000000000e+00 0.0000000000000000e+00 0 0 0
13 1 2.2000000000000002e+00 5.7329999999999997e+00 2.8664999999999998e+00 0.0000000000000000e+00 1.0000000000000000e+00 0.0000000000000000e+00 0.0000000000000000e+00 0 0 0
15 1 2.2000000000000002e+00 8.5994999999999990e+00 2.8664999999999998e+00 0.0000000000000000e+00 1.0000000000000000e+00 0.0000000000000000e+00 0.0000000000000000e+00 0 0 0
10 1 2.2000000000000002e+00 1.4332499999999999e+00 4.2997499999999995e+00 1.4332499999999999e+00 1.0000000000000000e+00 0.0000000000000000e+00 0.0000000000000000e+00 0 0 0
12 1 2.2000000000000002e+00 4.2997499999999995e+00 4.2997499999999995e+00 1.4332499999999999e+00 1.0000000000000000e+00 0.0000000000000000e+00 0.0000000000000000e+00 0 0 0
14 1 2.2000000000000002e+00 7.1662499999999998e+00 4.2997499999999995e+00 1.4332499999999999e+00 1.0000000000000000e+00 0.0000000000000000e+00 0.0000000000000000e+00 0 0 0
16 1 2.2000000000000002e+00 1.0032750000000000e+01 4.2997499999999995e+00 1.4332499999999999e+00 1.0000000000000000e+00 0.0000000000000000e+00 0.0000000000000000e+00 0 0 0
17 1 2.2000000000000002e+00 0.0000000000000000e+00 5.7329999999999997e+00 0.0000000000000000e+00 1.0000000000000000e+00 0.0000000000000000e+00 0.0000000000000000e+00 0 0 0
18 1 2.2000000000000002e+00 1.4332499999999999e+00 7.1662499999999998e+00 1.4332499999999999e+00 1.0000000000000000e+00 0.0000000000000000e+00 0.0000000000000000e+00 0 0 0
19 1 2.2000000000000002e+00 2.8664999999999998e+00 5.7329999999999997e+00 0.0000000000000000e+00 1.0000000000000000e+00 0.0000000000000000e+00 0.0000000000000000e+00 0 0 0
20 1 2.2000000000000002e+00 4.2997499999999995e+00 7.1662499999999998e+00 1.4332499999999999e+00 1.0000000000000000e+00 0.0000000000000000e+00 0.0000000000000000e+00 0 0 0
21 1 2.2000000000000002e+00 5.7329999999999997e+00 5.7329999999999997e+00 0.0000000000000000e+00 1.0000000000000000e+00 0.0000000000000000e+00 0.0000000000000000e+00 0 0 0
22 1 2.2000000000000002e+00 7.1662499999999998e+00 7.1662499999999998e+00 1.4332499999999999e+00 1.0000000000000000e+00 0.0000000000000000e+00 0.0000000000000000e+00 0 0 0
23 1 2.2000000000000002e+00 8.5994999999999990e+00 5.7329999999999997e+00 0.0000000000000000e+00 1.0000000000000000e+00 0.0000000000000000e+00 0.0000000000000000e+00 0 0 0
24 1 2.2000000000000002e+00 1.0032750000000000e+01 7.1662499999999998e+00 1.4332499999999999e+00 1.0000000000000000e+00 0.0000000000000000e+00 0.0000000000000000e+00 0 0 0
25 1 2.2000000000000002e+00 0.0000000000000000e+00 8.5994999999999990e+00 0.0000000000000000e+00 1.0000000000000000e+00 0.0000000000000000e+00 0.0000000000000000e+00 0 0 0
27 1 2.2000000000000002e+00 2.8664999999999998e+00 8.5994999999999990e+00 0.0000000000000000e+00 1.0000000000000000e+00 0.0000000000000000e+00 0.0000000000000000e+00 0 0 0
29 1 2.2000000000000002e+00 5.7329999999999997e+00 8.5994999999999990e+00 0.0000000000000000e+00 1.0000000000000000e+00 0.0000000000000000e+00 0.0000000000000000e+00 0 0 0
31 1 2.2000000000000002e+00 8.5994999999999990e+00 8.5994999999999990e+00 0.0000000000000000e+00 1.0000000000000000e+00 0.0000000000000000e+00 0.0000000000000000e+00 0 0 0
26 1 2.2000000000000002e+00 1.4332499999999999e+00 1.0032750000000000e+01 1.4332499999999999e+00 1.0000000000000000e+00 0.0000000000000000e+00 0.0000000000000000e+00 0 0 0
28 1 2.2000000000000002e+00 4.2997499999999995e+00 1.0032750000000000e+01 1.4332499999999999e+00 1.0000000000000000e+00 0.0000000000000000e+00 0.0000000000000000e+00 0 0 0
30 1 2.2000000000000002e+00 7.1662499999999998e+00 1.0032750000000000e+01 1.4332499999999999e+00 1.0000000000000000e+00 0.0000000000000000e+00 0.0000000000000000e+00 0 0 0
32 1 2.2000000000000002e+00 1.0032750000000000e+01 1.0032750000000000e+01 1.4332499999999999e+00 1.0000000000000000e+00 0.0000000000000000e+00 0.0000000000000000e+00 0 0 0

Velocities

1 0.0000000000000000e+00 0.0000000000000000e+00 0.0000000000000000e+00
2 0.0000000000000000e+00 0.0000000000000000e+00 0.0000000000000000e+00
3 0.0000000000000000e+00 0.0000000000000000e+00 0.0000000000000000e+00
4 0.0000000000000000e+00 0.0000000000000000e+00 0.0000000000000000e+00
5 0.0000000000000000e+00 0.0000000000000000e+00 0.0000000000000000e+00
6 0.0000000000000000e+00 0.0000000000000000e+00 0.0000000000000000e+00
7 0.0000000000000000e+00 0.0000000000000000e+00 0.0000000000000000e+00
8 0.0000000000000000e+00 0.0000000000000000e+00 0.0000000000000000e+00
9 0.0000000000000000e+00 0.0000000000000000e+00 0.0000000000000000e+00
11 0.0000000000000000e+00 0.0000000000000000e+00 0.0000000000000000e+00
13 0.0000000000000000e+00 0.0000000000000000e+00 0.0000000000000000e+00
15 0.0000000000000000e+00 0.0000000000000000e+00 0.0000000000000000e+00
10 0.0000000000000000e+00 0.0000000000000000e+00 0.0000000000000000e+00
12 0.0000000000000000e+00 0.0000000000000000e+00 0.0000000000000000e+00
14 0.0000000000000000e+00 0.0000000000000000e+00 0.0000000000000000e+00
16 0.0000000000000000e+00 0.0000000000000000e+00 0.0000000000000000e+00
17 0.0000000000000000e+00 0.0000000000000000e+00 0.0000000000000000e+00
18 0.0000000000000000e+00 0.0000000000000000e+00 0.0000000000000000e+00
19 0.0000000000000000e+00 0.0000000000000000e+00 0.0000000000000000e+00
20 0.0000000000000000e+00 0.0000000000000000e+00 0.0000000000000000e+00
21 0.0000000000000000e+00 0.0000000000000000e+00 0.0000000000000000e+00
22 0.0000000000000000e+00 0.0000000000000000e+00 0.0000000000000000e+00
23 0.0000000000000000e+00 0.0000000000000000e+00 0.0000000000000000e+00
24 0.0000000000000000e+00 0.0000000000000000e+00 0.0000000000000000e+00
25 0.0000000000000000e+00 0.0000000000000000e+00 0.0000000000000000e+00
27 0.0000000000000000e+00 0.0000000000000000e+00 0.0000000000000000e+00
29 0.0000000000000000e+00 0.0000000000000000e+00 0.0000000000000000e+00
31 0.0000000000000000e+00 0.0000000000000000e+00 0.0000000000000000e+00
26 0.0000000000000000e+00 0.0000000000000000e+00 0.0000000000000000e+00
28 0.0000000000000000e+00 0.0000000000000000e+00 0.0000000000000000e+00
30 0.0000000000000000e+00 0.0000000000000000e+00 0.0000000000000000e+00
32 0.0000000000000000e+00 0.0000000000000000e+00 0.0000000000000000e+00
