LAMMPS data file via write_data, version 11 Aug 2017, timestep = 170

25600 atoms
1 atom types

-9.0272007528377443e+01 9.0272007528377443e+01 xlo xhi
-4.4271887242357309e-07 8.8543774484714618e+01 ylo yhi
0.0000000000000000e+00 1.7500000000000000e+01 zlo zhi

Masses

1 58.6934

Atoms # atomic

5 1 -8.8549511398478870e+01 3.6531717132860331e-01 1.7499998732846487e+00 0 0 0
19 1 -8.7168423354721128e+01 2.5171135710013175e+00 1.7499999773840493e+00 0 0 0
23 1 -8.4964194988220811e+01 1.4605520382760588e+00 1.7500000598226511e+00 0 0 0
661 1 -8.6710922179900294e+01 9.1126210014280240e-01 3.4999999079331667e+00 0 0 0
21 1 -8.6710922059184384e+01 9.1126227290462869e-01 5.6151978281463594e-08 0 0 0
53 1 -8.2732309180707887e+01 3.7064027184641068e-01 1.7500000640808768e+00 0 0 0
54 1 -8.1612971762044140e+01 2.5930093047709533e+00 1.7500000742808890e+00 0 0 0
692 1 -8.1049144728475781e+01 9.3391028825038580e-01 3.5000000003264562e+00 0 0 0
52 1 -8.1049144788282092e+01 9.3391029381095569e-01 1.0231549645769841e-07 0 0 0
96 1 -7.9367523104372694e+01 1.4961522849280193e+00 1.7500000137980902e+00 0 0 0
99 1 -7.7122771303279478e+01 3.9995317503395983e-01 1.7500000135692684e+00 0 0 0
148 1 -7.6000494026816497e+01 2.6188841740767228e+00 1.7499999792002157e+00 0 0 0
790 1 -7.5439350197023956e+01 9.6142332222415716e-01 3.5000000043231636e+00 0 0 0
150 1 -7.5439350291330157e+01 9.6142328215235062e-01 1.7499999994192134e+01 0 0 -1
152 1 -7.3755788962545566e+01 1.5228707988495349e+00 1.7499999893051552e+00 0 0 0
204 1 -7.1511092651212422e+01 4.2684613145952965e-01 1.7499999892128653e+00 0 0 0
205 1 -7.0388741924522975e+01 2.6458248366510180e+00 1.7499999863537039e+00 0 0 0
256 1 -6.8144055451553641e+01 1.5497989159518299e+00 1.7499999527660659e+00 0 0 0
843 1 -6.9827571216474581e+01 9.8832146192181469e-01 3.5000000153283928e+00 0 0 0
203 1 -6.9827571285221396e+01 9.8832141397637840e-01 1.7499999941306502e+01 0 0 -1
259 1 -6.5899367919271356e+01 4.5377269372510703e-01 1.7499999793103265e+00 0 0 0
308 1 -6.4777023960241962e+01 2.6727522539014772e+00 1.7499999818630607e+00 0 0 0
312 1 -6.2532335952063036e+01 1.5767256199514417e+00 1.7500000369562121e+00 0 0 0
362 1 -6.0848819696442106e+01 2.1382020126929659e+00 8.3050963071751438e-08 0 0 0
364 1 -6.0287647863643706e+01 4.8069893816252574e-01 1.7500000593170306e+00 0 0 0
365 1 -5.9165303640979943e+01 2.6996783612487030e+00 1.7500000705451468e+00 0 0 0
1002 1 -6.0848819696138101e+01 2.1382019951584446e+00 3.4999999922840139e+00 0 0 0
416 1 -5.6920615493774321e+01 1.6036514712882981e+00 1.7500000351383167e+00 0 0 0
1055 1 -5.5237099526608070e+01 2.1651278449610891e+00 3.5000000237331559e+00 0 0 0
415 1 -5.5237099624674357e+01 2.1651278477739186e+00 1.1295657208213067e-08 0 0 0
419 1 -5.4675927403889553e+01 5.0762459252938885e-01 1.7500000058295972e+00 0 0 0
468 1 -5.3553583565239364e+01 2.7266039878954405e+00 1.7499999940419111e+00 0 0 0
472 1 -5.1308895549693993e+01 1.6305772198277659e+00 1.7499999719017918e+00 0 0 0
522 1 -4.9625379532419998e+01 2.1920534650261341e+00 1.7499999971082907e+01 0 0 -1
524 1 -4.9064207451502519e+01 5.3455035079408508e-01 1.7499999869227165e+00 0 0 0
523 1 -4.7380691467388687e+01 1.0960267992936328e+00 2.8432025085520858e-08 0 0 0
525 1 -4.7941863555606659e+01 2.7535299033604499e+00 1.7500000216116050e+00 0 0 0
574 1 -4.5697175495858993e+01 1.6575030832671696e+00 1.7500000488223775e+00 0 0 0
3 1 -8.9214901869135701e+01 3.5993754460324028e+00 1.7499998930182252e+00 0 0 0
15 1 -8.8549511240660252e+01 5.8993032258611304e+00 1.7499999845861662e+00 0 0 0
20 1 -8.6132427537733932e+01 4.8013199943717488e+00 1.7500000423641313e+00 0 0 0
49 1 -8.3862485839197248e+01 3.6926628700936561e+00 1.7500000841579255e+00 0 0 0
658 1 -8.5523444824982406e+01 3.1251652205057803e+00 3.4999999422799468e+00 0 0 0
687 1 -8.4431592165575225e+01 5.3473321763728272e+00 3.4999999745421486e+00 0 0 0
18 1 -8.5523444795466560e+01 3.1251653520697400e+00 1.4225841142923533e-07 0 0 0
47 1 -8.4431592194472088e+01 5.3473323050221717e+00 1.9249780666685839e-07 0 0 0
50 1 -8.2732309238131734e+01 5.9046260067021290e+00 1.7500000949456240e+00 0 0 0
92 1 -8.0489604645429509e+01 4.8104684717677992e+00 1.7500000358972021e+00 0 0 0
97 1 -7.8245182007280647e+01 3.7148331136589601e+00 1.7499999947642169e+00 0 0 0
731 1 -7.8805836178499703e+01 5.3722423862468442e+00 3.5000000085699092e+00 0 0 0
734 1 -7.9929644935840045e+01 3.1537828026548875e+00 3.5000000005487943e+00 0 0 0
91 1 -7.8805836339564195e+01 5.3722423866753903e+00 1.7499999984334529e+01 0 0 -1
94 1 -7.9929645074252193e+01 3.1537828003527193e+00 6.9749213732296435e-08 0 0 0
144 1 -7.7122771366901134e+01 5.9339386636343594e+00 1.7499999404231545e+00 0 0 0
149 1 -7.4878100529707453e+01 4.8378812162046421e+00 1.7499999751535071e+00 0 0 0
787 1 -7.4316921339791165e+01 3.1803597014116121e+00 3.5000000040991988e+00 0 0 0
147 1 -7.4316921448571108e+01 3.1803596584696754e+00 1.7499999958787303e+01 0 0 -1
200 1 -7.2633424865174334e+01 3.7418509410773764e+00 1.7499999681848284e+00 0 0 0
201 1 -7.1511092492478923e+01 5.9608314881704816e+00 1.7499999764763641e+00 0 0 0
838 1 -7.3194616898042483e+01 5.3993616074246038e+00 3.4999999769675663e+00 0 0 0
198 1 -7.3194617023567886e+01 5.3993615679970945e+00 1.7499999980295982e+01 0 0 -1
252 1 -6.9266401402799531e+01 4.8648051459174493e+00 1.7499999611034223e+00 0 0 0
894 1 -6.8705228514073113e+01 3.2073023740689686e+00 3.4999999918053777e+00 0 0 0
254 1 -6.8705228552496365e+01 3.2073023475380276e+00 1.7499999942244141e+01 0 0 -1
257 1 -6.7021712332531607e+01 3.7687787768069883e+00 1.7499999706941545e+00 0 0 0
304 1 -6.5899367497818133e+01 5.9877581122905070e+00 1.7499999683864755e+00 0 0 0
306 1 -6.5338195854231671e+01 4.3302551901180681e+00 1.7499999964308209e+01 0 0 -1
946 1 -6.5338195885663112e+01 4.3302551528317608e+00 3.5000000010324239e+00 0 0 0
891 1 -6.7582883769335780e+01 5.4262812951933919e+00 3.4999999968158089e+00 0 0 0
251 1 -6.7582883793371821e+01 5.4262813217253267e+00 1.7499999932438076e+01 0 0 -1
309 1 -6.3654679606739123e+01 4.8917316289336723e+00 1.7500000172951733e+00 0 0 0
360 1 -6.1409991616574182e+01 3.7957050785407938e+00 1.7500000466875123e+00 0 0 0
359 1 -5.9726475537106836e+01 4.3571814625945473e+00 8.2334218242984726e-08 0 0 0
361 1 -6.0287647450624370e+01 6.0146844684305485e+00 1.7500000746936535e+00 0 0 0
412 1 -5.8042959399038331e+01 4.9186577932871742e+00 1.7500000638145188e+00 0 0 0
999 1 -5.9726475498208650e+01 4.3571814460807508e+00 3.4999999939621107e+00 0 0 0
417 1 -5.5798271474010093e+01 3.8226309118708786e+00 1.7500000201698185e+00 0 0 0
464 1 -5.4675927250312391e+01 6.0416102394576585e+00 1.7499999924410741e+00 0 0 0
466 1 -5.4114755504477401e+01 4.3841071627587986e+00 1.7499999975284684e+01 0 0 -1
469 1 -5.2431239426286481e+01 4.9455833880456330e+00 1.7499999860670867e+00 0 0 0
1106 1 -5.4114755403940180e+01 4.3841071786330490e+00 3.5000000326345297e+00 0 0 0
520 1 -5.0186551573622516e+01 3.8495566102251639e+00 1.7499999937962532e+00 0 0 0
521 1 -4.9064207627350285e+01 6.0685360784684574e+00 1.7499999871729317e+00 0 0 0
519 1 -4.8503035637518551e+01 4.4110330471791839e+00 1.4210527286313401e-08 0 0 0
571 1 -4.6819519699299626e+01 4.9725093627270907e+00 1.7500000237604894e+00 0 0 0
573 1 -4.6258347633605524e+01 3.3150062058102514e+00 5.3112527538154891e-08 0 0 0
11 1 -8.9214901379849024e+01 9.1333616043277139e+00 1.7500001243590906e+00 0 0 0
16 1 -8.7168423475020546e+01 8.0510998611686020e+00 1.7500001246272225e+00 0 0 0
653 1 -8.9045576419117836e+01 7.4987161098116353e+00 3.4999998775418404e+00 0 0 0
13 1 -8.9045576369214828e+01 7.4987163467941320e+00 1.7639162684632221e-07 0 0 0
45 1 -8.4964194862416178e+01 6.9945379267970935e+00 1.7500001114220551e+00 0 0 0
46 1 -8.3862485678323907e+01 9.2266488131687137e+00 1.7500001343546923e+00 0 0 0
88 1 -8.1612971740573840e+01 8.1269950549359908e+00 1.7500000627718706e+00 0 0 0
684 1 -8.3289037723854690e+01 7.5633519269478349e+00 3.4999999981690761e+00 0 0 0
44 1 -8.3289037878770912e+01 7.5633520099574119e+00 2.0593755337679529e-07 0 0 0
93 1 -7.9367523095911196e+01 7.0301378670501844e+00 1.7500000038079442e+00 0 0 0
140 1 -7.8245181860987216e+01 9.2488186325664028e+00 1.7499999667805393e+00 0 0 0
782 1 -7.7684225800610591e+01 7.5915083086345421e+00 3.4999999992712314e+00 0 0 0
142 1 -7.7684225961076436e+01 7.5915082894560308e+00 1.7499999962643372e+01 0 0 -1
145 1 -7.6000493947921015e+01 8.1528696521644743e+00 1.7499999545667437e+00 0 0 0
196 1 -7.3755788878224152e+01 7.0568562056738333e+00 1.7499999602605198e+00 0 0 0
197 1 -7.2633424581567837e+01 9.2758362499404470e+00 1.7499999738785708e+00 0 0 0
835 1 -7.2072254513728566e+01 7.6183300478839726e+00 3.4999999742337979e+00 0 0 0
195 1 -7.2072254591349051e+01 7.6183300126529865e+00 1.7499999964132890e+01 0 0 -1
248 1 -7.0388741549881601e+01 8.1798100920623735e+00 1.7499999543010962e+00 0 0 0
253 1 -6.8144055077124818e+01 7.0837842266063502e+00 1.7499999685173699e+00 0 0 0
300 1 -6.7021711781827690e+01 9.3027640684543282e+00 1.7499999839578617e+00 0 0 0
305 1 -6.4777023466655152e+01 8.2067376430158578e+00 1.7500000238780276e+00 0 0 0
942 1 -6.6460539678802462e+01 7.6452610905319887e+00 3.4999999932063051e+00 0 0 0
302 1 -6.6460539713562852e+01 7.6452610779232417e+00 1.7499999971913343e+01 0 0 -1
303 1 -6.4215851546117193e+01 6.5492347012865748e+00 2.0129453271061267e-09 0 0 0
354 1 -6.3093507153092780e+01 8.7682141399022040e+00 8.7148677152423858e-09 0 0 0
356 1 -6.2532335445520907e+01 7.1107111248285682e+00 1.7500000444935218e+00 0 0 0
357 1 -6.1409991056496509e+01 9.3296904706481705e+00 1.7500000524274202e+00 0 0 0
943 1 -6.4215851555981416e+01 6.5492346734292370e+00 3.4999999944443587e+00 0 0 0
994 1 -6.3093507150361198e+01 8.7682140781294837e+00 3.5000000261523132e+00 0 0 0
408 1 -5.9165303201330943e+01 8.2336639259481945e+00 1.7500000462229037e+00 0 0 0
410 1 -5.8604131436808849e+01 6.5761608518684307e+00 6.1451793772107354e-08 0 0 0
1050 1 -5.8604131364990963e+01 6.5761608444561777e+00 3.5000000142421004e+00 0 0 0
413 1 -5.6920615190066705e+01 7.1376370646128580e+00 1.7500000452819544e+00 0 0 0
460 1 -5.5798271110728408e+01 9.3566164383098158e+00 1.7500000079849287e+00 0 0 0
1047 1 -5.7481787019014092e+01 8.7951401609939559e+00 3.4999999958733508e+00 0 0 0
407 1 -5.7481787121936144e+01 8.7951401539674077e+00 3.1749353579258303e-08 0 0 0
465 1 -5.3553583394364566e+01 8.2605895465370001e+00 1.7499999703108098e+00 0 0 0
1103 1 -5.2992411380494197e+01 6.6030864689408482e+00 3.5000000216296843e+00 0 0 0
1154 1 -5.1870067439573127e+01 8.8220658912466234e+00 3.5000000107272009e+00 0 0 0
463 1 -5.2992411450983980e+01 6.6030864510644740e+00 1.7499999955349836e+01 0 0 -1
514 1 -5.1870067482785672e+01 8.8220658528465492e+00 1.7499999946690941e+01 0 0 -1
516 1 -5.1308895534252933e+01 7.1645628233774303e+00 1.7499999666916535e+00 0 0 0
517 1 -5.0186551589012268e+01 9.3835422065076983e+00 1.7499999774066868e+00 0 0 0
568 1 -4.7941863716491696e+01 8.2875155487186181e+00 1.7499999883131030e+00 0 0 0
570 1 -4.7380691710937732e+01 6.6300125317022287e+00 4.2976287052862513e-09 0 0 0
572 1 -4.5697175802998210e+01 7.1914888798753545e+00 1.7500000100835693e+00 0 0 0
1207 1 -4.6258347859218837e+01 8.8489919354397966e+00 3.4999999881874153e+00 0 0 0
567 1 -4.6258347882315597e+01 8.8489919400451953e+00 5.5378282958044832e-09 0 0 0
12 1 -8.8549511169925054e+01 1.1433289305261740e+01 1.7500002149055189e+00 0 0 0
650 1 -8.7753274284549988e+01 9.7762790061373490e+00 3.4999998551460161e+00 0 0 0
10 1 -8.7753274374050378e+01 9.7762791476307367e+00 3.6387040860981675e-07 0 0 0
41 1 -8.6132427416570778e+01 1.0335306075725519e+01 1.7500002019264320e+00 0 0 0
679 1 -8.6710921847663684e+01 1.1979234253778118e+01 3.5000000004015868e+00 0 0 0
39 1 -8.6710921927167959e+01 1.1979234417847431e+01 3.1388300806925729e-07 0 0 0
84 1 -8.2732308987281556e+01 1.1438611912987803e+01 1.7500001161908307e+00 0 0 0
723 1 -8.1049144402759154e+01 1.2001881697602890e+01 3.5000000548982411e+00 0 0 0
726 1 -8.2176994692694862e+01 9.7844867764119119e+00 3.5000000438169190e+00 0 0 0
83 1 -8.1049144622558018e+01 1.2001881706734853e+01 5.4975305368041132e-08 0 0 0
86 1 -8.2176994898746500e+01 9.7844868194714874e+00 1.4340008784563124e-07 0 0 0
89 1 -8.0489604492535349e+01 1.0344454205369525e+01 1.7500000413963568e+00 0 0 0
141 1 -7.7122771058176596e+01 1.1467924153477302e+01 1.7499999502209422e+00 0 0 0
192 1 -7.4878100254464783e+01 1.0371866576369284e+01 1.7499999375944510e+00 0 0 0
779 1 -7.6561517142299451e+01 9.8103317099986018e+00 3.4999999704789366e+00 0 0 0
830 1 -7.5439349776115932e+01 1.2029394140788009e+01 3.4999999763685339e+00 0 0 0
139 1 -7.6561517277505502e+01 9.8103317122785345e+00 1.7499999940504161e+01 0 0 -1
190 1 -7.5439349901389903e+01 1.2029394141428687e+01 1.7499999952572740e+01 0 0 -1
244 1 -7.1511092037136734e+01 1.1494816742803595e+01 1.7499999678133842e+00 0 0 0
886 1 -7.0949918228997547e+01 9.8373152270897144e+00 3.4999999994741122e+00 0 0 0
246 1 -7.0949918328519033e+01 9.8373152185982402e+00 1.7499999961164900e+01 0 0 -1
249 1 -6.9266400865556790e+01 1.0398790364717655e+01 1.7499999775509882e+00 0 0 0
883 1 -6.9827570430226288e+01 1.2056291985637678e+01 3.4999999871563086e+00 0 0 0
243 1 -6.9827570501026287e+01 1.2056291965941236e+01 1.7499999992926917e+01 0 0 -1
301 1 -6.5899366929743394e+01 1.1521743361690818e+01 1.7499999949378078e+00 0 0 0
351 1 -6.1971162958482914e+01 1.0987193503495092e+01 2.0284445828670852e-08 0 0 0
352 1 -6.3654679038605046e+01 1.0425716988019975e+01 1.7500000011586985e+00 0 0 0
991 1 -6.1971162916614148e+01 1.0987193487481246e+01 3.4999999923692724e+00 0 0 0
404 1 -6.0287646877555034e+01 1.1548669928109236e+01 1.7500000196531666e+00 0 0 0
409 1 -5.8042958949620427e+01 1.0452643267426701e+01 1.7500000235795838e+00 0 0 0
1098 1 -5.6359442912759533e+01 1.1014119529687616e+01 3.5000000006522609e+00 0 0 0
458 1 -5.6359443001953046e+01 1.1014119485040673e+01 1.7499999988139571e+01 0 0 -1
461 1 -5.4675926913966613e+01 1.1575595720341020e+01 1.7499999790796128e+00 0 0 0
512 1 -5.2431239275125748e+01 1.0479568968750188e+01 1.7499999723816930e+00 0 0 0
564 1 -4.9064207667883615e+01 1.1602521692879570e+01 1.7499999966497575e+00 0 0 0
1151 1 -5.0747723436947830e+01 1.1041045311632255e+01 3.5000000136626590e+00 0 0 0
511 1 -5.0747723455228154e+01 1.1041045287403749e+01 1.7499999964168232e+01 0 0 -1
569 1 -4.6819519882954530e+01 1.0506495067918570e+01 1.7499999855745585e+00 0 0 0
1203 1 -4.7380691870997417e+01 1.2163998229904751e+01 3.5000000149508548e+00 0 0 0
8 1 -8.9214901824772497e+01 1.4667347676851389e+01 1.7500002577716312e+00 0 0 0
37 1 -8.7168423020254735e+01 1.3585085766847502e+01 1.7500002318180894e+00 0 0 0
42 1 -8.4964194666851583e+01 1.2528524055033147e+01 1.7500002007549831e+00 0 0 0
80 1 -8.3862485250256483e+01 1.4760634800652339e+01 1.7500001439021866e+00 0 0 0
676 1 -8.5523444220681412e+01 1.4193137367799253e+01 3.5000000386563754e+00 0 0 0
36 1 -8.5523444419910064e+01 1.4193137362386313e+01 2.7204806235569790e-07 0 0 0
85 1 -8.1612971301991948e+01 1.3660980876110790e+01 1.7500000546844119e+00 0 0 0
136 1 -7.9367522772192842e+01 1.2564123506472894e+01 1.7499999751097448e+00 0 0 0
137 1 -7.8245181379277383e+01 1.4782804231842748e+01 1.7499999465506308e+00 0 0 0
774 1 -7.9929644355110412e+01 1.4221754148128213e+01 3.5000000148314130e+00 0 0 0
134 1 -7.9929644582925874e+01 1.4221754131710641e+01 1.7499999994139763e+01 0 0 -1
188 1 -7.6000493442245087e+01 1.3686855042957152e+01 1.7499999280866587e+00 0 0 0
827 1 -7.4316920616250783e+01 1.4248330399299780e+01 3.4999999756994074e+00 0 0 0
187 1 -7.4316920701885593e+01 1.4248330406307245e+01 1.7499999955820115e+01 0 0 -1
193 1 -7.3755788409804708e+01 1.2590841502564430e+01 1.7499999591628661e+00 0 0 0
240 1 -7.2633423995923707e+01 1.4809821527286415e+01 1.7499999776660455e+00 0 0 0
245 1 -7.0388741029959093e+01 1.3713795312512181e+01 1.7500000046045787e+00 0 0 0
296 1 -6.8144054515828159e+01 1.2617769435327522e+01 1.7499999728638085e+00 0 0 0
934 1 -6.8705227472538098e+01 1.4275272811405239e+01 3.4999999968770088e+00 0 0 0
294 1 -6.8705227541038610e+01 1.4275272815808918e+01 1.7499999985180185e+01 0 0 -1
297 1 -6.7021711209801168e+01 1.4836749271930199e+01 1.7499999978864471e+00 0 0 0
346 1 -6.5338194709851066e+01 1.5398225736024896e+01 1.7499999990675139e+01 0 0 -1
348 1 -6.4777022812640112e+01 1.3740722906663629e+01 1.7499999974410259e+00 0 0 0
986 1 -6.5338194652513664e+01 1.5398225725290798e+01 3.5000000167643348e+00 0 0 0
353 1 -6.2532334849813502e+01 1.2644696470230913e+01 1.7500000140098559e+00 0 0 0
400 1 -6.1409990473890765e+01 1.4863675890343455e+01 1.7500000057103111e+00 0 0 0
405 1 -5.9165302643269030e+01 1.3767649314015221e+01 1.7500000060375962e+00 0 0 0
1039 1 -5.9726474413929488e+01 1.5425152355380844e+01 3.4999999546560443e+00 0 0 0
1042 1 -6.0848818594603451e+01 1.3206172899387022e+01 3.4999999705591751e+00 0 0 0
399 1 -5.9726474470793576e+01 1.5425152363732888e+01 1.5231492936289895e-08 0 0 0
402 1 -6.0848818639492102e+01 1.3206172895458524e+01 2.1599923132831363e-08 0 0 0
456 1 -5.6920614723348017e+01 1.2671622523510507e+01 1.7499999934491335e+00 0 0 0
457 1 -5.5798270755188810e+01 1.4890601984353959e+01 1.7499999717576933e+00 0 0 0
1095 1 -5.5237098939149476e+01 1.3233098958720602e+01 3.4999999932568628e+00 0 0 0
455 1 -5.5237098993426990e+01 1.3233098924123331e+01 1.7499999968407216e+01 0 0 -1
508 1 -5.3553583152399824e+01 1.3794575152417591e+01 1.7499999743223669e+00 0 0 0
1146 1 -5.4114754919670325e+01 1.5452078344216524e+01 3.5000000032854190e+00 0 0 0
506 1 -5.4114754968651759e+01 1.5452078317912894e+01 1.7499999953218353e+01 0 0 -1
513 1 -5.1308895462445243e+01 1.2698548449476565e+01 1.7499999782018520e+00 0 0 0
560 1 -5.0186551575967655e+01 1.4917527886874476e+01 1.7500000035095908e+00 0 0 0
1199 1 -4.8503035805238852e+01 1.5479004366114427e+01 3.5000000129077931e+00 0 0 0
1202 1 -4.9625379637150587e+01 1.3260024756107795e+01 3.5000000328274687e+00 0 0 0
562 1 -4.9625379662559034e+01 1.3260024727941252e+01 1.7499999975833457e+01 0 0 -1
565 1 -4.7941863836811642e+01 1.3821501260095783e+01 1.7500000242805482e+00 0 0 0
609 1 -4.5697176021429975e+01 1.2725474618253017e+01 1.7499999988588635e+00 0 0 0
1248 1 -4.6258348044212042e+01 1.4382977664213012e+01 3.4999999947502412e+00 0 0 0
31 1 -8.9045576195331265e+01 1.8566688262246441e+01 3.6820341709462923e-07 0 0 0
33 1 -8.8549510753421387e+01 1.6967275368016292e+01 1.7500002276218918e+00 0 0 0
671 1 -8.9045576168486193e+01 1.8566688405845714e+01 3.5000000693531925e+00 0 0 0
38 1 -8.6132426955056886e+01 1.5869292158447745e+01 1.7500001535411953e+00 0 0 0
76 1 -8.4964194103348959e+01 1.8062510045327141e+01 1.7500001198542723e+00 0 0 0
718 1 -8.4431591388668778e+01 1.6415304295473621e+01 3.5000000237526061e+00 0 0 0
78 1 -8.4431591604337328e+01 1.6415304245692283e+01 1.8974495501512338e-07 0 0 0
75 1 -8.3289036949377120e+01 1.8631323839568360e+01 1.0134669407465909e-07 0 0 0
81 1 -8.2732308420582072e+01 1.6972597824377772e+01 1.7500000629273491e+00 0 0 0
715 1 -8.3289036738312149e+01 1.8631323892881554e+01 3.4999999920205713e+00 0 0 0
132 1 -8.0489603912567361e+01 1.5878439928863013e+01 1.7499999884697846e+00 0 0 0
131 1 -7.8805835493242256e+01 1.6440213605191609e+01 1.7499999919123660e+01 0 0 -1
133 1 -7.9367522077994593e+01 1.8098109180297769e+01 1.7499999348975637e+00 0 0 0
182 1 -7.7684224808045968e+01 1.8659479386705367e+01 1.7499999924565294e+01 0 0 -1
771 1 -7.8805835339844904e+01 1.6440213605482302e+01 3.4999999924990433e+00 0 0 0
822 1 -7.7684224727112692e+01 1.8659479390758698e+01 3.4999999742648016e+00 0 0 0
184 1 -7.7122770436595786e+01 1.7001909671080728e+01 1.7499999137069646e+00 0 0 0
189 1 -7.4878099641928756e+01 1.5905851969310524e+01 1.7499999565751105e+00 0 0 0
235 1 -7.2072253402639717e+01 1.8686300573708756e+01 1.5568255891168958e-08 0 0 0
236 1 -7.3755787763057825e+01 1.8124826852544874e+01 1.7499999566322872e+00 0 0 0
241 1 -7.1511091423390297e+01 1.7028801981327319e+01 1.7499999971733187e+00 0 0 0
875 1 -7.2072253391639592e+01 1.8686300567519250e+01 3.4999999900706302e+00 0 0 0
878 1 -7.3194615926390881e+01 1.6467332178543256e+01 3.4999999540212854e+00 0 0 0
238 1 -7.3194615971876857e+01 1.6467332217537702e+01 2.7551018204416412e-09 0 0 0
292 1 -6.9266400310770081e+01 1.5932775562555571e+01 1.7499999973403175e+00 0 0 0
293 1 -6.8144053910095877e+01 1.8151754648995922e+01 1.7500000138228815e+00 0 0 0
291 1 -6.7582882649840229e+01 1.6494251737227454e+01 1.4663323827219454e-09 0 0 0
342 1 -6.6460538562055049e+01 1.8713231558238228e+01 6.9458321792392796e-09 0 0 0
344 1 -6.5899366324459308e+01 1.7055728614500349e+01 1.7500000030301317e+00 0 0 0
931 1 -6.7582882600810365e+01 1.6494251730510399e+01 3.5000000233579898e+00 0 0 0
982 1 -6.6460538503579230e+01 1.8713231569885494e+01 3.5000000217433742e+00 0 0 0
349 1 -6.3654678417547714e+01 1.5959702304539743e+01 1.7500000107396623e+00 0 0 0
396 1 -6.2532334292557557e+01 1.8178681918364667e+01 1.7500000057589362e+00 0 0 0
983 1 -6.4215850331710186e+01 1.7617205292357387e+01 3.5000000028296010e+00 0 0 0
343 1 -6.4215850373373300e+01 1.7617205316917545e+01 8.4020639612609766e-09 0 0 0
401 1 -6.0287646338258568e+01 1.7082655404201457e+01 1.7499999996710665e+00 0 0 0
452 1 -5.8042958467994666e+01 1.5986628799946214e+01 1.7499999745548291e+00 0 0 0
1090 1 -5.8604130387401888e+01 1.7644131880830230e+01 3.4999999450898347e+00 0 0 0
450 1 -5.8604130449125527e+01 1.7644131886575956e+01 1.9327646199112054e-08 0 0 0
453 1 -5.6920614382822592e+01 1.8205608198533390e+01 1.7499999710418341e+00 0 0 0
504 1 -5.4675926675233001e+01 1.7109581412480910e+01 1.7499999653886575e+00 0 0 0
509 1 -5.2431239107270500e+01 1.6013554627379211e+01 1.7499999765271488e+00 0 0 0
1143 1 -5.2992411007958125e+01 1.7671057746098683e+01 3.5000000206139235e+00 0 0 0
503 1 -5.2992411038176527e+01 1.7671057725470497e+01 1.7499999938980320e+01 0 0 -1
556 1 -5.1308895322256930e+01 1.8232534156435122e+01 1.7499999884742712e+00 0 0 0
561 1 -4.9064207701013018e+01 1.7136507413895284e+01 1.7499999997288593e+00 0 0 0
1195 1 -4.9625379562008007e+01 1.8794010478071066e+01 3.5000000222801337e+00 0 0 0
1198 1 -5.0747723389147438e+01 1.6575031012503345e+01 3.5000000101586788e+00 0 0 0
606 1 -4.6819519989384673e+01 1.6040480750335007e+01 1.7500000204644774e+00 0 0 0
607 1 -4.5697176037938846e+01 1.8259460298631300e+01 1.7499999830631920e+00 0 0 0
1245 1 -4.7380691873138154e+01 1.7697983915773406e+01 3.5000000216326663e+00 0 0 0
28 1 -8.7753273747527857e+01 2.0844251050662777e+01 2.4609016085597343e-07 0 0 0
29 1 -8.9214901397903219e+01 2.0201333747259969e+01 1.7500002545423330e+00 0 0 0
34 1 -8.7168422799271028e+01 1.9119071972176616e+01 1.7500001929908882e+00 0 0 0
668 1 -8.7753273548046252e+01 2.0844251224489572e+01 3.5000000097505048e+00 0 0 0
72 1 -8.6132426463855523e+01 2.1403278147271337e+01 1.7500001118289759e+00 0 0 0
77 1 -8.3862484639237806e+01 2.0294620796677460e+01 1.7500000398810376e+00 0 0 0
126 1 -8.2176993679252334e+01 2.0852458538712298e+01 1.9614630174162211e-08 0 0 0
128 1 -8.1612970638474749e+01 1.9194966736674967e+01 1.7499999763430103e+00 0 0 0
766 1 -8.2176993514639022e+01 2.0852458599524304e+01 3.4999999964279547e+00 0 0 0
129 1 -8.0489603201208453e+01 2.1412425739837381e+01 1.7499999679114833e+00 0 0 0
180 1 -7.8245180624628432e+01 2.0316789831045380e+01 1.7499999399106403e+00 0 0 0
179 1 -7.6561515932558891e+01 2.0878302715442533e+01 1.7499999966269701e+01 0 0 -1
185 1 -7.6000492783580128e+01 1.9220840555457023e+01 1.7499999507861363e+00 0 0 0
232 1 -7.4878098979505339e+01 2.1439837408571581e+01 1.7499999851830228e+00 0 0 0
819 1 -7.6561515931090042e+01 2.0878302703098203e+01 3.4999999728298010e+00 0 0 0
237 1 -7.2633423366013389e+01 2.0343806865015456e+01 1.7500000085019731e+00 0 0 0
286 1 -7.0949917126379120e+01 2.0905285743594519e+01 1.5707238084019930e-08 0 0 0
926 1 -7.0949917086031562e+01 2.0905285737121339e+01 3.5000000126965949e+00 0 0 0
288 1 -7.0388740406719180e+01 1.9247780547426217e+01 1.7500000066740857e+00 0 0 0
289 1 -6.9266399762408085e+01 2.1466760846604057e+01 1.7500000407881402e+00 0 0 0
340 1 -6.7021710678720467e+01 2.0370734556250852e+01 1.7500000297887948e+00 0 0 0
345 1 -6.4777022301579393e+01 1.9274708266727874e+01 1.7500000347178659e+00 0 0 0
392 1 -6.3654678022016576e+01 2.1493687803560949e+01 1.7500000111566785e+00 0 0 0
397 1 -6.1409990034320579e+01 2.0397661473943231e+01 1.7500000097646964e+00 0 0 0
1034 1 -6.3093506008816497e+01 1.9836184904427473e+01 3.5000000079364426e+00 0 0 0
1031 1 -6.1971161961214520e+01 2.2055164527552478e+01 3.4999999835325037e+00 0 0 0
394 1 -6.3093506059955111e+01 1.9836184918377938e+01 1.9122878202870674e-08 0 0 0
391 1 -6.1971162007489966e+01 2.2055164530922287e+01 1.0114640793086986e-08 0 0 0
448 1 -5.9165302220867773e+01 1.9301634992043002e+01 1.7499999929503458e+00 0 0 0
449 1 -5.8042958154987375e+01 2.1520614612636084e+01 1.7499999761350120e+00 0 0 0
500 1 -5.5798270473468442e+01 2.0424587771761594e+01 1.7499999708247838e+00 0 0 0
1087 1 -5.7481786211364820e+01 1.9863111364330788e+01 3.4999999646693940e+00 0 0 0
1138 1 -5.6359442300805597e+01 2.2082090962436457e+01 3.4999999779010564e+00 0 0 0
447 1 -5.7481786274939957e+01 1.9863111372444994e+01 1.7499999987188794e+01 0 0 -1
498 1 -5.6359442360937983e+01 2.2082090946057225e+01 1.7499999971659399e+01 0 0 -1
505 1 -5.3553582924268554e+01 1.9328560885322322e+01 1.7499999684280121e+00 0 0 0
552 1 -5.2431238954868604e+01 2.1547540449263632e+01 1.7499999837586417e+00 0 0 0
1194 1 -5.1870067161245267e+01 1.9890037280812287e+01 3.5000000232463275e+00 0 0 0
557 1 -5.0186551451934655e+01 2.0451513620723826e+01 1.7499999893516975e+00 0 0 0
1241 1 -4.8503035720452431e+01 2.1012990123031074e+01 3.4999999972617140e+00 0 0 0
1191 1 -5.0747723256036743e+01 2.2109016825907371e+01 3.5000000327614975e+00 0 0 0
603 1 -4.7941863810087305e+01 1.9355486940194709e+01 1.7499999919461617e+00 0 0 0
604 1 -4.6819519938767144e+01 2.1574466500959367e+01 1.7499999644290150e+00 0 0 0
1242 1 -4.6258347992153688e+01 1.9916963368338028e+01 3.4999999818330476e+00 0 0 0
30 1 -8.8549510415912721e+01 2.2501261331886106e+01 1.7500001655515995e+00 0 0 0
68 1 -8.7168422393107420e+01 2.4653057908763657e+01 1.7500000663201711e+00 0 0 0
70 1 -8.6710921039407850e+01 2.3047206309671715e+01 1.4795011563344776e-07 0 0 0
73 1 -8.4964193531859507e+01 2.3596496030791538e+01 1.7500000380076137e+00 0 0 0
710 1 -8.6710920866507209e+01 2.3047206466289328e+01 3.5000000130029059e+00 0 0 0
123 1 -8.1049143169955400e+01 2.3069853332361248e+01 1.7499999979132831e+01 0 0 -1
124 1 -8.2732307757013714e+01 2.2506583773836873e+01 1.7499999989556927e+00 0 0 0
125 1 -8.1612969962289100e+01 2.4728952603713928e+01 1.7500000037939156e+00 0 0 0
763 1 -8.1049143113905316e+01 2.3069853356256722e+01 3.5000000345084845e+00 0 0 0
176 1 -7.9367521385150908e+01 2.3632094921487869e+01 1.7499999748981239e+00 0 0 0
181 1 -7.7122769737373289e+01 2.2535895251881879e+01 1.7499999819736864e+00 0 0 0
228 1 -7.6000492158844864e+01 2.4754826115689113e+01 1.7500000093971733e+00 0 0 0
230 1 -7.5439348542970350e+01 2.3097365074586023e+01 6.9638126382590805e-09 0 0 0
870 1 -7.5439348522907636e+01 2.3097365071728259e+01 3.5000000133947640e+00 0 0 0
233 1 -7.3755787164189812e+01 2.3658812321864300e+01 1.7500000250805308e+00 0 0 0
284 1 -7.1511090866269342e+01 2.2562787367609182e+01 1.7500000172089349e+00 0 0 0
283 1 -6.9827569412923808e+01 2.3124262572683090e+01 2.4932545658941254e-08 0 0 0
285 1 -7.0388740054173212e+01 2.4781766030658400e+01 1.7500000160976623e+00 0 0 0
336 1 -6.8144053546998578e+01 2.3685740063808431e+01 1.7500000084526537e+00 0 0 0
923 1 -6.9827569380998085e+01 2.3124262550891554e+01 3.5000000170781003e+00 0 0 0
341 1 -6.5899365960671744e+01 2.2589714026372597e+01 1.7500000031961382e+00 0 0 0
388 1 -6.4777022103880512e+01 2.4808693849104987e+01 1.7499999946501719e+00 0 0 0
393 1 -6.2532334035415509e+01 2.3712667586338565e+01 1.7499999957872119e+00 0 0 0
444 1 -6.0287646041618778e+01 2.2616641196647777e+01 1.7499999820935304e+00 0 0 0
445 1 -5.9165302062046514e+01 2.4835620875790063e+01 1.7499999943341766e+00 0 0 0
1082 1 -6.0848817881820125e+01 2.4274144264492978e+01 3.4999999450964321e+00 0 0 0
442 1 -6.0848817929711672e+01 2.4274144218407173e+01 7.1946711698822020e-09 0 0 0
496 1 -5.6920614165588283e+01 2.3739594083259455e+01 1.7499999724323183e+00 0 0 0
1135 1 -5.5237098523659476e+01 2.4301070615548497e+01 3.5000000018251507e+00 0 0 0
495 1 -5.5237098533891434e+01 2.4301070611616499e+01 1.7499999944978470e+01 0 0 -1
501 1 -5.4675926437515770e+01 2.2643567248270308e+01 1.7499999783244604e+00 0 0 0
548 1 -5.3553582844940770e+01 2.4862546901203885e+01 1.7499999837115336e+00 0 0 0
1190 1 -5.2992410856861397e+01 2.3205043623554459e+01 3.5000000100135309e+00 0 0 0
553 1 -5.1308895250767783e+01 2.3766520082375290e+01 1.7499999897929892e+00 0 0 0
599 1 -4.9064207587442084e+01 2.2670493212298691e+01 1.7499999848072734e+00 0 0 0
1237 1 -4.9625379523551466e+01 2.4327996388429487e+01 3.5000000227656587e+00 0 0 0
600 1 -4.7941863782565555e+01 2.4889472876013471e+01 1.7499999755488016e+00 0 0 0
631 1 -4.5697176003602983e+01 2.3793446142160935e+01 1.7499999496601899e+00 0 0 0
1238 1 -4.7380691839895022e+01 2.3231969746607334e+01 3.4999999832880504e+00 0 0 0
26 1 -8.9214901314983180e+01 2.5735319681980911e+01 1.7500000777760449e+00 0 0 0
64 1 -8.8549509931186876e+01 2.8035247224669099e+01 1.7499999990727657e+00 0 0 0
67 1 -8.5523443268445149e+01 2.5261109269928873e+01 4.4900600161993600e-08 0 0 0
69 1 -8.6132425999866072e+01 2.6937264063808740e+01 1.7500000175283550e+00 0 0 0
120 1 -8.3862484014502144e+01 2.5828606701371378e+01 1.7500000079732783e+00 0 0 0
707 1 -8.5523443149423258e+01 2.5261109418080654e+01 3.5000000184440831e+00 0 0 0
758 1 -8.4431590323496224e+01 2.7483276243131652e+01 3.5000000395983046e+00 0 0 0
118 1 -8.4431590411428004e+01 2.7483276152715305e+01 7.4214653998450230e-09 0 0 0