LAMMPS data file via write_data, version 27 Nov 2018, timestep = 100000

3000 atoms
3 atom types

0.0000000000000000e+00 1.0000000000000000e+01 xlo xhi
0.0000000000000000e+00 1.0000000000000000e+01 ylo yhi
0.0000000000000000e+00 1.0000000000000000e+01 zlo zhi

Masses

1 1
2 1
3 1

Atoms # charge

657 1 0.0000000000000000e+00 1.2294315016955035e+00 4.8754276299250893e-01 1.2118465665945548e+00 0 -8 -2
2175 1 0.0000000000000000e+00 2.3164555047786015e+00 6.9845360389465294e-01 2.4142242089353414e+00 3 2 2
1900 1 0.0000000000000000e+00 3.5625331454604198e-01 2.1981204932836338e+00 1.3366724541047856e+00 1 0 2
360 1 0.0000000000000000e+00 2.0895603361093782e+00 2.4549720666315684e+00 1.0320377923642758e+00 -1 -5 2
1860 1 0.0000000000000000e+00 1.3275792365017520e+00 8.6099237428295405e-01 1.9139960339024802e+00 -6 -2 3
23 1 0.0000000000000000e+00 1.6642339027501267e+00 1.5577566857379970e+00 1.6804622139289418e+00 -6 3 0
2797 1 0.0000000000000000e+00 5.0003204102730192e-01 7.5067967687516723e-01 1.5720016693076493e+00 0 5 -1
1094 1 0.0000000000000000e+00 2.1001825771234097e+00 6.0980401814598983e-01 3.7730512216726748e-02 0 -2 3
1915 1 0.0000000000000000e+00 8.6504972483752363e-01 6.9529562892300301e-01 2.1409383282066144e-01 -6 2 -1
2254 1 0.0000000000000000e+00 8.4709225642098163e-01 1.6764907332941801e+00 2.3902229212668153e+00 -3 2 4
2222 1 0.0000000000000000e+00 3.2276348008660966e-01 1.2241204043836138e+00 1.6686429354553034e+00 -6 -1 2
295 1 0.0000000000000000e+00 1.9487232676299715e+00 1.0213051480532678e+00 8.9948266336871641e-01 -2 0 2
1880 1 0.0000000000000000e+00 2.3468938911622801e+00 2.0286524416751570e+00 2.1941502270881865e+00 -2 -1 -1
1478 1 0.0000000000000000e+00 1.2905884503602709e+00 4.2556467268017134e-01 7.7074363470816909e-01 2 2 4
2687 1 0.0000000000000000e+00 2.4935407413815841e-01 1.3670723508591945e-01 1.3071566843654943e+00 3 5 5
1178 1 0.0000000000000000e+00 1.2523002916465782e+00 1.6575493769797520e+00 6.4247903800569173e-01 0 6 0
2662 1 0.0000000000000000e+00 1.7000796180603881e+00 4.5215402918845349e-01 1.3231957241488037e+00 -2 -2 3
1386 1 0.0000000000000000e+00 1.7726236464283465e+00 1.0815723168930323e-01 7.8623670270351120e-01 -6 0 -3
1433 1 0.0000000000000000e+00 2.4420720833941090e+00 5.9579528091996958e-01 8.0952392120540795e-01 -3 5 4
1245 1 0.0000000000000000e+00 2.4791493035754693e+00 7.7748834432190461e-01 1.5241253793997307e+00 2 1 -1
2734 1 0.0000000000000000e+00 9.3100246215522353e-01 2.2767642587479693e+00 2.2864983189416774e+00 8 1 0
1730 1 0.0000000000000000e+00 1.2174663590969930e+00 1.1526504746705513e+00 7.8270337932143308e-01 7 4 2
2781 1 0.0000000000000000e+00 2.2281461511925231e+00 3.5709735101343887e-01 3.9247210141592720e-01 -2 3 1
259 1 0.0000000000000000e+00 2.1368631216963094e+00 2.0587394876396545e+00 4.3858784075461615e-01 1 4 0
1109 1 0.0000000000000000e+00 1.1267209835275558e+00 1.7998515052656139e+00 1.4479472402814413e+00 -3 5 5
2126 1 0.0000000000000000e+00 1.7234999304350955e+00 1.5377879534675687e+00 5.4236670573791856e-01 -1 -1 -4
319 1 0.0000000000000000e+00 1.5640680776895053e+00 2.4022315178398230e+00 1.8713314660465894e+00 -3 3 0
307 1 0.0000000000000000e+00 2.1477162783001660e+00 1.4016860035497622e+00 9.8290760821820464e-02 -5 5 2
2343 1 0.0000000000000000e+00 1.2671254589570664e+00 1.9028737357040748e+00 3.0584689155388055e-02 6 1 4
1162 1 0.0000000000000000e+00 9.9385877625695271e-03 1.3834059644864716e+00 6.8815269206697660e-01 -1 2 -3
1154 1 0.0000000000000000e+00 1.4418694229240092e+00 1.1455981200197769e-01 4.6674313624619074e-02 -5 2 -1
1138 1 0.0000000000000000e+00 7.0143527631015445e-01 9.6619679646717327e-01 6.4000816249950321e-01 -3 0 0
2873 2 -1.0000000000000000e+00 1.2441420842034001e+00 4.1393590605366909e-01 1.9652971408800111e+00 4 5 -6
118 1 0.0000000000000000e+00 4.5684822453318186e-01 1.8254057968479911e+00 1.7692818044476950e+00 -7 -7 0
2023 1 0.0000000000000000e+00 5.9414992979255621e-01 1.7042570689935168e+00 3.6856583747702226e-01 -2 0 -1
2179 1 0.0000000000000000e+00 8.8560892251441614e-01 2.1175891770320732e+00 9.4253464535643883e-01 1 5 5
2395 1 0.0000000000000000e+00 5.2775070133739437e-02 5.3637713433594292e-01 2.3143182426880098e+00 5 4 -5
2546 1 0.0000000000000000e+00 1.1265451254411663e+00 1.2949091275290223e+00 2.0031575040394292e+00 -3 -2 4
863 1 0.0000000000000000e+00 2.0897910289677961e+00 1.7328926247657581e+00 1.3671406997367481e+00 -1 9 -2
1560 1 0.0000000000000000e+00 2.0134073326150315e+00 8.2514057427402232e-01 1.5642128977791498e+00 1 -6 -1
1567 1 0.0000000000000000e+00 2.4762151214309722e+00 1.9820034900288224e+00 4.0619377321249245e-01 -10 -2 1
1960 1 0.0000000000000000e+00 7.0225018861803001e-01 1.7384792491759022e+00 1.3951119278456705e+00 0 0 3
2636 1 0.0000000000000000e+00 6.5761321765887754e-02 8.1374825085868774e-01 8.7359406253994554e-01 2 4 -6
568 1 0.0000000000000000e+00 1.7403318067351436e+00 1.8780377949192477e+00 2.4024895224751592e+00 0 2 0
414 1 0.0000000000000000e+00 1.5961990678977317e-01 2.2533142944334292e+00 2.1926238173946149e+00 2 1 3
452 1 0.0000000000000000e+00 2.7767909968111923e+00 1.2846432520047726e+00 4.3960960537703270e-01 2 3 -3
2097 1 0.0000000000000000e+00 3.1761597015111507e+00 2.1821909037681078e+00 7.3493208013908484e-01 -1 3 6
2242 1 0.0000000000000000e+00 3.4553327473328146e+00 1.6699386951674831e+00 2.4663857213018843e+00 -3 6 -3
1458 1 0.0000000000000000e+00 4.7329815118611647e+00 7.5855606498241923e-01 1.6118530035081400e+00 1 9 7
1690 1 0.0000000000000000e+00 3.7415668616442286e+00 1.5070194843078388e-01 8.4445776759546443e-01 7 -5 2
2890 2 -1.0000000000000000e+00 4.7145627837817088e+00 1.3161447873205676e+00 5.5731741915683064e-01 3 3 -5
941 1 0.0000000000000000e+00 4.5669443543722368e+00 1.8483500834617175e+00 1.4105752427209630e+00 3 1 -3
2307 1 0.0000000000000000e+00 2.6134395043295640e+00 1.6159508581574462e+00 1.9525409360285315e+00 4 6 2
2757 1 0.0000000000000000e+00 3.2399945247689117e+00 7.3523256032153317e-02 2.3544393565980388e+00 3 0 1
292 1 0.0000000000000000e+00 3.2313117080878104e+00 8.2928213582292798e-01 1.7053316899184474e+00 0 7 -4
2408 1 0.0000000000000000e+00 4.4612753265650040e+00 3.7679774218080976e-02 6.7702198442033135e-01 5 4 2
1733 1 0.0000000000000000e+00 4.0533980289861331e+00 2.4001027179691397e+00 1.7525193928692415e+00 6 3 0
313 1 0.0000000000000000e+00 3.1447801970093883e+00 2.4994159497826209e+00 2.7169956584620136e-01 -6 -2 -1
1888 1 0.0000000000000000e+00 2.9868631125020269e+00 2.7782669344138120e-02 1.5504349442251604e+00 -8 1 -2
809 1 0.0000000000000000e+00 4.0004108258896443e+00 2.0518225944997885e+00 2.0162506726285283e+00 4 1 1
1824 1 0.0000000000000000e+00 3.0760621828456527e+00 4.3170537293536099e-01 3.5745549880644926e-02 4 -1 -2
705 1 0.0000000000000000e+00 2.7919624671063166e+00 1.4289031553108618e+00 1.1029735296049670e+00 2 0 -2
24 1 0.0000000000000000e+00 3.6314220354916182e+00 1.7208106755091936e+00 1.3565846885782091e+00 3 -2 3
186 1 0.0000000000000000e+00 2.9796595169243241e+00 7.1412273904887513e-01 7.3644455307131307e-01 -5 1 2
1344 1 0.0000000000000000e+00 4.3095233242940294e+00 2.7104539306398634e-01 7.5171192648935153e-02 1 3 3
153 1 0.0000000000000000e+00 3.5509257096001763e+00 1.4389813746925797e+00 1.8346004572453154e+00 2 -1 0
2246 1 0.0000000000000000e+00 4.3587644767225404e+00 7.1097753359274318e-01 8.0537632391406200e-01 -2 6 -6
1999 1 0.0000000000000000e+00 2.6195447457169356e+00 7.7713610310780862e-02 9.0990487275747212e-01 -1 -3 0
2737 1 0.0000000000000000e+00 4.0481677548413417e+00 2.2143576082291658e+00 6.0248749269903512e-01 -7 2 6
252 1 0.0000000000000000e+00 4.6664072483440373e+00 2.4382351024484890e+00 1.2594819900845593e+00 4 -5 0
2320 1 0.0000000000000000e+00 4.1637232038805374e+00 1.6152455367049663e+00 1.0331058809970348e+00 -1 0 -3
2128 1 0.0000000000000000e+00 3.2190817399104268e+00 2.4471600673818172e+00 2.0341923302561189e+00 -2 3 -3
1449 1 0.0000000000000000e+00 3.7875604580578952e+00 2.4567587091751797e+00 1.1604679955360948e+00 -3 -2 1
1966 1 0.0000000000000000e+00 4.6656118980939638e+00 9.5332525870604312e-01 1.5107741234142941e-01 -3 4 3
2681 1 0.0000000000000000e+00 3.9950334466062167e+00 1.1840724734496522e+00 2.1256343649287688e+00 -4 0 -2
2986 3 1.0000000000000000e+00 3.7992671212747875e+00 4.0449670747083988e-01 1.5161621796965576e+00 4 -1 3
1507 1 0.0000000000000000e+00 4.9191903634224436e+00 1.0850386164340555e+00 1.1914982005251722e+00 -4 7 3
2196 1 0.0000000000000000e+00 4.0312866257015312e+00 1.2527641599282306e+00 1.5218616343660638e+00 1 3 -3
49 1 0.0000000000000000e+00 3.4564174139189827e+00 5.2844721518028603e-01 3.4261836281253538e-01 -3 -2 -2
1365 1 0.0000000000000000e+00 4.7883464383814189e+00 1.5987919580003158e+00 2.2436322620504736e+00 2 -2 2
1452 1 0.0000000000000000e+00 4.4881797771485985e+00 1.4883387889813435e+00 2.1055232490688205e+00 1 -1 -7
1770 1 0.0000000000000000e+00 4.0468665302840696e+00 1.7030347849833458e+00 9.3870072212299885e-02 -3 -1 1
1238 1 0.0000000000000000e+00 2.8050385688585946e+00 1.3684449759828055e+00 1.1472351808454632e-01 6 0 1
140 1 0.0000000000000000e+00 3.1851238409875609e+00 1.6170105118889988e+00 1.4391811048669350e+00 2 2 -4
900 1 0.0000000000000000e+00 4.6727070008332099e+00 5.8655424208445139e-01 2.1828428980591608e+00 2 1 1
596 1 0.0000000000000000e+00 2.6578533071815009e+00 8.2031851461831784e-01 1.8937647482789628e+00 1 -4 4
1771 1 0.0000000000000000e+00 3.6936329411202995e+00 1.4669174207242024e+00 7.3212283726369931e-01 0 -1 5
638 1 0.0000000000000000e+00 2.7494624010763871e+00 2.3100393397227430e+00 1.2576741281063295e+00 -1 -1 -2
2879 2 -1.0000000000000000e+00 3.9182128494845991e+00 7.6287191191636650e-01 1.9421209005256836e+00 -4 -1 0
1932 1 0.0000000000000000e+00 3.9856155915376164e+00 7.8003515073412666e-01 2.9391259063716074e-01 -5 -4 4
1827 1 0.0000000000000000e+00 4.6970898089668616e+00 2.2213435039680620e+00 2.4743271517922086e-01 3 -3 -5
143 1 0.0000000000000000e+00 4.8981719632179344e+00 1.5162870887829505e-01 1.1198398548572199e+00 0 3 -3
1603 1 0.0000000000000000e+00 3.2654398049777940e+00 1.8468158745020600e+00 2.7112633835670863e-03 1 2 -2
687 1 0.0000000000000000e+00 1.2286474952581528e+00 4.2505347721498881e+00 2.4065321338499883e+00 -2 3 2
1128 1 0.0000000000000000e+00 2.1869045768095092e+00 4.5569781461421002e+00 1.8564573343573272e+00 -3 -5 -3
359 1 0.0000000000000000e+00 1.6200179602348741e+00 3.7984048146452412e+00 1.3538693271568969e+00 -4 0 2
7 1 0.0000000000000000e+00 1.9973159346882916e+00 4.0538128096340875e+00 1.9407096673970528e+00 -8 3 -1
2226 1 0.0000000000000000e+00 1.8003682542462831e+00 3.3131053570441442e+00 2.3890904959121673e+00 -3 3 -2
298 1 0.0000000000000000e+00 1.5990893913330586e+00 4.0291363510586766e+00 2.0597995204184421e+00 -1 1 -4
1347 1 0.0000000000000000e+00 1.0381611178220669e+00 4.5124422285239589e+00 5.2754855166159664e-01 1 6 -3
2310 1 0.0000000000000000e+00 1.5536504106107059e+00 3.1475484716009094e+00 9.6642192466495047e-01 0 1 0
617 1 0.0000000000000000e+00 1.0806482870082104e-01 4.8608734413370103e+00 1.0983369991600154e+00 -7 1 0
74 1 0.0000000000000000e+00 1.8428090322705997e+00 4.9106069363557303e+00 2.7897999254228878e-01 5 2 -2
2002 1 0.0000000000000000e+00 1.1595568086473071e+00 3.5605603382683948e+00 4.8829376396476876e-01 -2 1 0
965 1 0.0000000000000000e+00 1.7269290347842217e+00 2.5064429036109179e+00 8.6335957473663738e-02 -1 -6 0
958 1 0.0000000000000000e+00 9.2665776141629463e-02 2.7755569308096484e+00 2.3656291165454109e+00 2 8 -4
138 1 0.0000000000000000e+00 2.2815736812759848e+00 3.8405140359908327e+00 4.3283096963681872e-01 2 1 -1
2349 1 0.0000000000000000e+00 5.0949539563130775e-01 2.5920885673883092e+00 1.6587550071562118e+00 -2 2 1
741 1 0.0000000000000000e+00 3.0864578914811203e-01 3.0043489180919534e+00 8.0760638556009412e-01 4 3 -4
847 1 0.0000000000000000e+00 1.2598326863560310e+00 3.5429836852141783e+00 1.9299780846671590e+00 -5 5 -2
2925 3 1.0000000000000000e+00 2.2651428006112870e+00 3.2924343501755606e+00 1.6230110912121215e-01 -1 7 0
37 1 0.0000000000000000e+00 8.8223524283848054e-01 2.8560924724117043e+00 2.0029932133436663e+00 2 1 3
2923 3 1.0000000000000000e+00 6.2191221841897726e-01 3.3175666344479517e+00 6.5127374239876623e-01 -1 -1 8
1091 1 0.0000000000000000e+00 7.7364798657018952e-01 4.2732233048608004e+00 1.7268578160836041e+00 -4 2 2
331 1 0.0000000000000000e+00 2.3507311742858641e+00 4.1527048075321913e+00 1.0773204308337370e+00 -2 0 2
2891 2 -1.0000000000000000e+00 2.1510816198611007e-01 4.1214132342619152e+00 6.3986823605853671e-01 4 -2 2
626 1 0.0000000000000000e+00 1.0170496046019284e+00 2.8074199379997755e+00 3.9142611765596563e-01 8 2 -6
2197 1 0.0000000000000000e+00 2.3853187876709763e+00 2.7282031707678991e+00 1.6197952026596660e+00 -1 -1 -3
2247 1 0.0000000000000000e+00 3.7269233861904327e-01 4.2212322304069128e+00 2.1857504410985045e+00 -5 5 -3
2125 1 0.0000000000000000e+00 6.9284524997248553e-01 4.3036446712436405e+00 1.5949771794791737e-01 -4 -5 1
1256 1 0.0000000000000000e+00 8.4386636721656427e-01 3.2033978205761851e+00 1.3415791455423023e+00 4 4 3
2327 1 0.0000000000000000e+00 3.9086694991450099e-01 2.5975798404980779e+00 7.2943473505031198e-01 1 7 1
2227 1 0.0000000000000000e+00 7.6952219565061264e-01 4.2653461365656451e+00 1.0025164785182570e+00 3 -3 3
1549 1 0.0000000000000000e+00 1.3703504063234426e+00 4.5746486883308268e+00 1.0394194531578096e+00 -1 -1 3
1174 1 0.0000000000000000e+00 6.1219564523283454e-01 4.8217990117558438e+00 3.2502350180394624e-01 -3 0 -4
1775 1 0.0000000000000000e+00 1.5170462541840117e+00 4.2361831803661216e+00 3.6160082352442846e-01 -6 -1 4
2706 1 0.0000000000000000e+00 3.3141990057147869e-01 3.9148664700434281e+00 1.8713209064913066e+00 2 -2 3
1689 1 0.0000000000000000e+00 1.9389651805611680e-01 3.0620789348224542e+00 1.5396007313123605e+00 9 -1 -2
1963 1 0.0000000000000000e+00 5.4509694131332408e-02 4.7656872820158025e+00 2.2624397734306525e+00 3 3 -2
2967 3 1.0000000000000000e+00 1.4510419992056482e+00 2.8506162765652729e+00 2.2119832034216871e+00 7 -2 -5
1014 1 0.0000000000000000e+00 1.5718877270986540e+00 3.2222067507724170e+00 1.2634163729108416e-02 -6 -3 -2
2069 1 0.0000000000000000e+00 2.2622328184074778e+00 4.8039847797001727e+00 9.2446086496383117e-01 0 -2 0
2715 1 0.0000000000000000e+00 5.8842193052673242e-01 3.9614386783539532e+00 1.1006688405627962e+00 1 -1 3
1597 1 0.0000000000000000e+00 1.4476151567629474e+00 4.3590224137725837e+00 1.4814184478010701e+00 1 1 -2
1237 1 0.0000000000000000e+00 1.8579356863272509e+00 3.3192067698117969e+00 1.3836223551419939e+00 -2 -3 -3
97 1 0.0000000000000000e+00 1.2124788340232597e+00 2.5829705094009663e+00 1.0566876481323435e+00 -5 2 -1
451 1 0.0000000000000000e+00 1.7700627404940239e+00 2.8886817990194231e+00 6.3015199035926805e-01 -1 0 2
1092 1 0.0000000000000000e+00 1.3942051771965671e+00 3.6528121263347795e+00 1.4436279816429537e-01 -3 1 -11
494 1 0.0000000000000000e+00 3.5180915153985015e-01 3.4394463748899713e+00 2.2791291740153179e+00 -3 -3 2
1545 1 0.0000000000000000e+00 4.7781005293462702e+00 3.4218988782187898e+00 7.6702477276438041e-01 -2 -7 3
1082 1 0.0000000000000000e+00 3.2896451098282222e+00 4.5711814852549510e+00 1.2594822320296610e+00 3 -1 4
1367 1 0.0000000000000000e+00 4.6172604270860296e+00 3.1956716562109273e+00 1.6878022745310945e+00 3 3 0
689 1 0.0000000000000000e+00 4.0956834736296299e+00 3.7392971820905974e+00 1.0649170389315152e+00 1 -5 0
814 1 0.0000000000000000e+00 2.9662845473661532e+00 4.9451618754524223e+00 1.2899907761753879e+00 -1 4 -4
2798 1 0.0000000000000000e+00 2.8802587378446409e+00 4.4734308005556738e+00 5.5517917484081125e-01 9 -3 -1
1759 1 0.0000000000000000e+00 4.9729047707161333e+00 4.8275950525811115e+00 1.1381067907824658e+00 0 2 0
430 1 0.0000000000000000e+00 2.9404042624316484e+00 3.8737513462711162e+00 1.0102721249518734e+00 -3 -3 3
619 1 0.0000000000000000e+00 2.7957702961458506e+00 3.7224642501372451e+00 2.2330516323796266e+00 1 -3 0
346 1 0.0000000000000000e+00 2.8699256512088360e+00 2.9319713775738863e+00 9.6268880314552752e-01 -7 2 -5
703 1 0.0000000000000000e+00 4.8816947152112835e+00 4.9270022811962484e+00 1.7008914385339713e+00 -3 1 0
1062 1 0.0000000000000000e+00 4.5297793967195901e+00 4.5444236700195333e+00 2.0377483209475242e+00 0 -4 1
349 1 0.0000000000000000e+00 4.8988296119038655e+00 3.8928494841886114e+00 1.4084479164946182e+00 1 2 -8
1173 1 0.0000000000000000e+00 3.8027084866646454e+00 4.1233236308514591e+00 1.2560028121529132e+00 -4 -1 -1
1125 1 0.0000000000000000e+00 3.8972047694608682e+00 3.0422644805291172e+00 4.5739172837516590e-01 3 2 1
1825 1 0.0000000000000000e+00 3.8186982282823703e+00 4.7578933840936593e+00 2.0955382812519243e+00 0 -2 2
294 1 0.0000000000000000e+00 2.5468691118106972e+00 3.3839775709980837e+00 8.8927795396394771e-01 -1 -5 4
1084 1 0.0000000000000000e+00 4.3896568348418246e+00 4.8877974096585000e+00 1.4073976200894920e+00 -1 2 -1
1659 1 0.0000000000000000e+00 4.4437112347667194e+00 3.1474463377711497e+00 1.1422740416666306e+00 1 4 -2
1743 1 0.0000000000000000e+00 4.4781588445667166e+00 3.6541247421130651e+00 6.0747937804730878e-01 -4 3 -4
2703 1 0.0000000000000000e+00 3.3376488747759185e+00 3.9290666507788301e+00 5.7512507099521459e-01 4 3 5
442 1 0.0000000000000000e+00 3.3449995863805113e+00 4.9608695322869707e+00 2.4491146967768667e+00 -8 3 0
1310 1 0.0000000000000000e+00 2.5946737524033177e+00 2.9684472699253570e+00 1.9678852890355198e+00 -4 2 -1
1873 1 0.0000000000000000e+00 3.8074326669959815e+00 3.1995422160941684e+00 2.3156875751509083e+00 6 -2 4
2282 1 0.0000000000000000e+00 4.6448540997602183e+00 4.3119660086270279e+00 8.5306859111816458e-01 3 1 -2
2336 1 0.0000000000000000e+00 3.5296359204291017e+00 2.9996710079856537e+00 1.2368505419212257e+00 -2 6 -8
2804 1 0.0000000000000000e+00 3.3322507060181872e+00 2.7825327214066928e+00 1.7637611202413976e+00 4 0 6
2431 1 0.0000000000000000e+00 4.8041895896760201e+00 2.5764828570635823e+00 2.0942602701561888e+00 4 0 -3
57 1 0.0000000000000000e+00 3.5171105855049323e+00 4.7392425964197322e+00 3.5143421397004326e-01 -3 -1 6
137 1 0.0000000000000000e+00 2.7329522679829164e+00 4.6076788617560007e+00 2.3154315487926920e+00 -3 4 2
686 1 0.0000000000000000e+00 4.3689320267129013e+00 2.9820892984560983e+00 3.1169287553978486e-01 -1 1 2
2288 1 0.0000000000000000e+00 3.8459553014843988e+00 4.2749321673132830e+00 3.8850723958354133e-01 1 1 -1
2473 1 0.0000000000000000e+00 4.3951997705798833e+00 3.4069602500216991e+00 2.4210464742644739e+00 -3 0 5
2233 1 0.0000000000000000e+00 2.7174962578232176e+00 3.1430705697896468e+00 5.1455130025646600e-01 4 2 5
2293 1 0.0000000000000000e+00 2.6771874045198603e+00 3.9073280843779958e+00 1.6787448974738681e+00 -3 1 -4
167 1 0.0000000000000000e+00 4.6930725498972130e+00 3.9545285214573931e+00 2.4292202343015985e+00 1 0 0
2817 2 -1.0000000000000000e+00 3.5963773215548924e+00 3.9804260117355579e+00 2.1184997315152545e+00 -2 -4 1
2747 1 0.0000000000000000e+00 4.3431192525393696e+00 4.3062334086156415e+00 1.3901356711129780e+00 2 -6 0
2469 1 0.0000000000000000e+00 3.6728013476578290e+00 4.7737793597787865e+00 1.6366785134260260e+00 0 7 0
915 1 0.0000000000000000e+00 3.2300430303159313e+00 3.1379431785439622e+00 2.4026871760965389e+00 3 0 5
874 1 0.0000000000000000e+00 3.8920696948093476e+00 3.8446313753414665e+00 1.9517171616474061e+00 -2 -3 -2
1917 1 0.0000000000000000e+00 2.8093038291552768e+00 3.4473645600608824e+00 1.4854186466747856e+00 3 5 -1
134 1 0.0000000000000000e+00 3.8901886445333203e+00 3.2701274651551451e+00 1.5063124510253021e+00 2 -2 4
1809 1 0.0000000000000000e+00 3.0390865951220722e+00 4.4149445571747448e+00 1.8018944496607519e+00 1 7 1
758 1 0.0000000000000000e+00 3.8548456954701016e+00 3.4556425990146766e+00 5.7738443817049057e-01 -1 -5 -3
66 1 0.0000000000000000e+00 3.0993878657675533e+00 3.3927903741959953e+00 1.0073299769452908e-01 0 -2 3
2731 1 0.0000000000000000e+00 4.8411215525057880e+00 4.1950557970015998e+00 3.7647412426014210e-01 0 4 5
2328 1 0.0000000000000000e+00 1.3504820834142079e+00 2.4741428502607499e+00 3.1321309334682854e+00 -2 4 -1
534 1 0.0000000000000000e+00 2.3609151528360734e+00 2.2019029371597165e+00 3.3313199265395506e+00 -2 -5 3
1496 1 0.0000000000000000e+00 2.0448165975677672e+00 2.2072313974237182e-01 3.1507538374165724e+00 1 2 1
732 1 0.0000000000000000e+00 2.0024016460135008e+00 2.4765465819777788e+00 4.4196346201786341e+00 1 -4 -5
1582 1 0.0000000000000000e+00 1.7395266753271077e+00 7.5510695949270112e-01 4.5869080219741853e+00 4 -3 -5
484 1 0.0000000000000000e+00 1.0034871316431830e+00 6.0318069109102679e-01 4.0235954209126463e+00 1 -3 -3
839 1 0.0000000000000000e+00 1.4602732672373155e+00 2.3720410629719906e+00 4.0384316392322308e+00 -3 2 -1
1110 1 0.0000000000000000e+00 1.6020751988910185e+00 3.0592952837862591e-01 3.3166437670843436e+00 -5 8 2
2353 1 0.0000000000000000e+00 2.1884546697868226e+00 4.5393690145853666e-01 3.8803796542540154e+00 2 -3 -2
1488 1 0.0000000000000000e+00 2.2180321827394783e-01 2.3062671299843385e+00 4.1869331789302047e+00 -1 -5 5
59 1 0.0000000000000000e+00 1.5421370648118005e+00 2.0718006623521861e+00 3.2489985119904659e+00 2 -5 -5
2099 1 0.0000000000000000e+00 1.6289327180304212e+00 1.6012851759252136e+00 4.4689883086346640e+00 1 2 -7
84 1 0.0000000000000000e+00 6.0976953696375591e-01 7.0390840281476974e-01 2.5744479591727010e+00 2 -1 -1
1879 1 0.0000000000000000e+00 4.0615990828567128e-01 1.4641300257627567e+00 3.6602891483217124e+00 -5 3 6
736 1 0.0000000000000000e+00 1.6942993371799835e+00 7.9667936178945831e-01 3.1513167015656349e+00 0 1 -1
1332 1 0.0000000000000000e+00 4.3459600792348663e-01 2.1182261133045417e+00 4.8452805057752810e+00 5 -2 -3
2394 1 0.0000000000000000e+00 1.8620742390220777e+00 8.0000631044595627e-01 2.6905738970495565e+00 -5 2 0
1235 1 0.0000000000000000e+00 5.2048609776880450e-01 2.1686588954293176e+00 2.7540366573653179e+00 -3 2 0
2573 1 0.0000000000000000e+00 7.6241922881672464e-01 4.7142513977802114e-01 4.5210994006918588e+00 3 -2 3
220 1 0.0000000000000000e+00 8.6274610416258890e-01 3.9625474679630468e-01 2.9848046899740308e+00 -2 2 0
2555 1 0.0000000000000000e+00 7.6386058882674246e-01 1.3157314623824063e+00 3.0724886890837060e+00 -4 3 7
1274 1 0.0000000000000000e+00 1.4363626807591476e+00 5.2020819350010383e-01 4.5344089582591698e+00 -2 0 1
2585 1 0.0000000000000000e+00 8.8712447631047198e-01 1.3599599897061154e+00 4.9647338295079804e+00 6 -1 -2
216 1 0.0000000000000000e+00 2.2996866197068941e+00 1.0999814868418869e+00 4.8980200775995364e+00 0 2 4
1029 1 0.0000000000000000e+00 6.2033774762998012e-02 1.5844417493308851e+00 4.8889157029830459e+00 -3 -2 2
1070 1 0.0000000000000000e+00 3.2087898728822212e-01 7.3591885896851228e-01 4.6873827913429986e+00 0 2 -7
1249 1 0.0000000000000000e+00 2.2970107471001927e-01 2.4897538804264920e+00 3.5405874905871451e+00 4 -1 2
2593 1 0.0000000000000000e+00 2.4985024346718503e+00 2.4121406814513038e+00 4.2558497568097309e+00 7 -2 -4
1265 1 0.0000000000000000e+00 4.5309108217541832e-01 1.3211106956525096e+00 4.5650069316345769e+00 7 2 0
422 1 0.0000000000000000e+00 1.8071232408530631e+00 1.4581849665971973e+00 3.0552659197316561e+00 1 2 2
479 1 0.0000000000000000e+00 9.5929629795529991e-01 1.8658789754636040e+00 3.0727527513413926e+00 -2 -2 1
2209 1 0.0000000000000000e+00 1.6060499321884869e-01 2.1355210624001462e+00 3.5498044606345469e+00 -4 -2 3
999 1 0.0000000000000000e+00 7.0959039653791267e-01 8.8877390285051150e-01 3.4032915586725188e+00 1 -3 -2
581 1 0.0000000000000000e+00 8.1411717500190128e-01 1.7548317416347138e-02 2.9215909977210868e+00 -3 -1 1
1939 1 0.0000000000000000e+00 1.4203882923891240e+00 1.5050670537556470e+00 4.7572241181701607e+00 5 5 -3
13 1 0.0000000000000000e+00 1.5023126523227059e+00 9.8290084325644705e-02 3.8379569984607058e+00 2 2 -1
1471 1 0.0000000000000000e+00 2.4049186242967959e+00 1.6752495153104396e+00 4.2707872342577824e+00 4 -2 4
263 1 0.0000000000000000e+00 1.2719705986659036e-01 2.6645215683374712e-01 3.1410842473895677e+00 1 6 9
1577 1 0.0000000000000000e+00 9.7959840360025274e-01 1.6723519961592157e+00 4.0742087733512813e+00 7 1 -4
2690 1 0.0000000000000000e+00 1.4028800271630313e+00 1.1176268271951064e+00 3.6545514424446166e+00 0 -5 -2
824 1 0.0000000000000000e+00 1.8542252436859432e+00 1.6709110576384665e+00 3.8594663674473004e+00 -2 0 3
2818 2 -1.0000000000000000e+00 5.9611161954943448e-01 1.6499347608480389e-01 4.0597783484616201e+00 0 -1 2
830 1 0.0000000000000000e+00 2.3126337390953449e+00 1.1710914680489817e+00 3.6056817402081367e+00 2 1 -7
1871 1 0.0000000000000000e+00 5.7558224556634792e-02 1.1407748039483800e+00 3.0472993834225073e+00 4 -2 -1
1864 1 0.0000000000000000e+00 1.8648487731354730e+00 1.1212252110084743e-01 4.5925504650952584e+00 -6 4 -3
2961 3 1.0000000000000000e+00 1.8905584846011956e+00 1.5313589163569628e+00 2.5074036979296861e+00 0 0 3
1682 1 0.0000000000000000e+00 4.5509984371914296e+00 2.1245826834328896e+00 4.0314635528085363e+00 -2 3 6
2960 3 1.0000000000000000e+00 3.8784313280131291e+00 1.5135771558985247e+00 2.6029198228495480e+00 -1 1 -6
799 1 0.0000000000000000e+00 3.8273047903299293e+00 7.4228078169330514e-01 3.4639408743865774e+00 -3 7 1
2595 1 0.0000000000000000e+00 2.5144656486198160e+00 8.7040954057869446e-01 2.7912623707414124e+00 -6 4 0
1956 1 0.0000000000000000e+00 4.1403921428018222e+00 3.0493260073437167e-01 3.4798613211300458e+00 -5 -1 1
2857 2 -1.0000000000000000e+00 3.2486550769016960e+00 2.0312236616932382e+00 4.2225712917291363e+00 -7 0 -1
789 1 0.0000000000000000e+00 4.8539094291018268e+00 2.6486380379331453e-01 4.0002805375206272e+00 -2 -1 -3
1591 1 0.0000000000000000e+00 4.8531301650811027e+00 6.8255610101173064e-02 3.5661782868548726e+00 2 -8 -6
605 1 0.0000000000000000e+00 3.1494184817884849e+00 2.7624231910979374e-02 4.4496919831596440e+00 2 0 2
2261 1 0.0000000000000000e+00 4.3628333543564839e+00 9.6475492099956217e-01 4.0259646638620845e+00 2 4 1
1738 1 0.0000000000000000e+00 4.3095067017870035e+00 2.4036827080600176e-03 2.7515087877930360e+00 -4 2 2
1737 1 0.0000000000000000e+00 2.8194461006864970e+00 1.9467631397500196e+00 4.5193127853390145e+00 -2 1 -5
1384 1 0.0000000000000000e+00 3.1360737294450458e+00 6.9414646738557839e-01 2.5223736148272313e+00 -4 -1 4
2509 1 0.0000000000000000e+00 4.3145300588459170e+00 1.4342344573947057e+00 3.8883843448941482e+00 1 2 3
2048 1 0.0000000000000000e+00 4.0410247442435407e+00 1.5511153102928494e+00 3.0576947834055592e+00 -2 -2 6
69 1 0.0000000000000000e+00 2.5672011513161190e+00 1.9154878078092794e+00 2.7742761682513701e+00 -3 1 4
1465 1 0.0000000000000000e+00 4.0340081390875433e+00 2.4618075247220648e+00 4.5330068415258102e+00 -2 -1 -1
2332 1 0.0000000000000000e+00 2.8299907077718127e+00 6.7645020378579124e-01 3.1970785903406704e+00 2 -2 -1
2812 2 -1.0000000000000000e+00 3.1264966692619076e+00 1.3944207704218452e+00 3.4951128303502337e+00 0 0 -3
287 1 0.0000000000000000e+00 4.5140515213162642e+00 8.5386730287414003e-01 3.2415410563283280e+00 -3 4 -7
1816 1 0.0000000000000000e+00 3.1798725806817467e+00 4.5984413751914305e-01 3.4797467238738733e+00 2 -2 4
565 1 0.0000000000000000e+00 3.6169518716320805e+00 3.2950899219213731e-01 2.6207407444832875e+00 3 -3 0
2400 1 0.0000000000000000e+00 4.7040515540883092e+00 2.1250275079407643e-01 4.7527353590633599e+00 -3 2 3
2864 2 -1.0000000000000000e+00 2.7364725235974836e+00 2.3107994430823915e+00 2.6173826314416444e+00 2 -2 -4
2463 1 0.0000000000000000e+00 3.6429736286644365e+00 7.4423680572369333e-01 2.8991041150755499e+00 10 -2 -2
1181 1 0.0000000000000000e+00 4.6611335959120499e+00 2.4379678113501679e+00 2.6296914387471189e+00 0 -5 -4
254 1 0.0000000000000000e+00 3.4522158320047640e+00 4.5059828731836393e-01 4.1697496376561132e+00 4 9 0
1320 1 0.0000000000000000e+00 3.8464998241848929e+00 1.4718134914214016e+00 4.3734548780662950e+00 -2 -2 1
1608 1 0.0000000000000000e+00 4.6670101554240819e+00 1.0795365127026961e+00 4.7085899065488386e+00 4 -9 -3
2915 3 1.0000000000000000e+00 4.2748106709299059e+00 2.4649799106199928e+00 3.3603378528727292e+00 -2 0 -1
2062 1 0.0000000000000000e+00 3.1207469686999674e+00 1.3653652930946873e+00 2.7453384259696629e+00 3 3 -6
2621 1 0.0000000000000000e+00 4.8815068646532609e+00 1.0433843991345024e+00 2.7795813355230550e+00 -7 0 7
899 1 0.0000000000000000e+00 4.2758853307417146e+00 3.0069948848524358e-01 4.3840585947113802e+00 -2 2 2
1668 1 0.0000000000000000e+00 3.2319170268028934e+00 1.1220879543736240e+00 4.7459395867346750e+00 3 4 -7
2545 1 0.0000000000000000e+00 4.8553758364273634e+00 1.5015973817579942e+00 3.1899292202705847e+00 1 3 0
2972 3 1.0000000000000000e+00 2.8347073466780923e+00 1.8918790533517427e+00 3.5716657817826087e+00 4 -6 0
2501 1 0.0000000000000000e+00 4.5275378175181968e+00 1.6300714548439770e+00 4.7500486602155840e+00 -1 0 -2
33 1 0.0000000000000000e+00 2.7667759390215911e+00 1.3438901884741956e+00 4.2649053894657287e+00 -3 1 -5
1102 1 0.0000000000000000e+00 2.7226773712541754e+00 5.7034117107152305e-01 3.9658552885908795e+00 -4 4 3
1961 1 0.0000000000000000e+00 4.4133897118948804e+00 1.8610229565221879e+00 3.4440783249691758e+00 6 1 5
2560 1 0.0000000000000000e+00 2.7932442600949723e+00 3.2789439453906105e-01 4.7111016226402551e+00 0 1 -2
1427 1 0.0000000000000000e+00 3.7871574028740205e+00 2.0154681289280769e+00 4.1412268529252465e+00 4 1 -3
1677 1 0.0000000000000000e+00 4.0134617403341108e+00 6.9516616636642192e-01 4.6721376252904578e+00 2 1 -8
1786 1 0.0000000000000000e+00 4.2407086419792615e+00 2.4319481010463599e+00 2.6553928754272875e+00 2 1 -2
1501 1 0.0000000000000000e+00 3.7072792713405542e+00 1.6154425105934580e+00 3.5213722742860001e+00 -1 -4 -2
2992 3 1.0000000000000000e+00 3.2992373922126537e+00 8.3902600062535748e-01 4.1379712437304823e+00 -4 4 0
245 1 0.0000000000000000e+00 3.5909763984777285e+00 2.0035414006947945e+00 3.3123353556532504e+00 -6 -5 -2
1215 1 0.0000000000000000e+00 4.8600315004874117e+00 6.7189094637832036e-01 4.8196183351359947e+00 -3 -1 1