LAMMPS data file via write_data, version 11 May 2018, timestep = 1001

44 atoms
11 atom types
42 bonds
15 bond types
74 angles
29 angle types
102 dihedrals
36 dihedral types
44 impropers
13 improper types

-2.5000000000000000e+01 2.5000000000000000e+01 xlo xhi
-2.5000000000000000e+01 2.5000000000000000e+01 ylo yhi
-2.5000000000000000e+01 2.5000000000000000e+01 zlo zhi

Masses

a 12.0112
b 12.0112
c 15.9994
d 1.00797
e 1.00797
f 15.9994
g 14.0067
h 1.00797
i 14.0067
j 1.00797
k 15.9994

PairIJ Coeffs # lj/class2/coul/long

a a 0.054 4.01 8.5
a b 0.0795595 3.91637 8.5
a c 0.106158 3.80913 8.5
a d 0.0183531 3.62595 8.5
a e 0.0010874 3.57275 8.5
a f 0.102122 3.73725 8.5
a g 0.0591865 4.04056 8.5
a h 0.0010874 3.57275 8.5
a i 0.0755821 4.04056 8.5
a j 0.0010874 3.57275 8.5
a k 0.112837 3.83588 8.5
b b 0.12 3.81 8.5
b c 0.165508 3.68528 8.5
b d 0.0309499 3.46246 8.5
b e 0.00188963 3.39465 8.5
b f 0.16356 3.59954 8.5
b g 0.0866135 3.95066 8.5
b h 0.00188963 3.39465 8.5
b i 0.110607 3.95066 8.5
b j 0.00188963 3.39465 8.5
b k 0.174349 3.71671 8.5
c c 0.24 3.535 8.5
c d 0.0515135 3.24584 8.5
c e 0.00334469 3.1498 8.5
c f 0.247844 3.42754 8.5
c g 0.114512 3.84837 8.5
c h 0.00334469 3.1498 8.5
c i 0.146234 3.84837 8.5
c j 0.00334469 3.1498 8.5
c k 0.249305 3.57348 8.5
d d 0.02 2.7 8.5
d e 0.0021591 2.40724 8.5
d f 0.0615761 3.07137 8.5
d g 0.0193993 3.67573 8.5
d h 0.0021591 2.40724 8.5
d i 0.0247732 3.67573 8.5
d j 0.0021591 2.40724 8.5
d k 0.0513509 3.30378 8.5
e e 0.013 1.098 8.5
e f 0.00433445 2.94063 8.5
e g 0.00114108 3.62619 8.5
e h 0.013 1.098 8.5
e i 0.00145717 3.62619 8.5
e j 0.013 1.098 8.5
e k 0.00326911 3.21657 8.5
f f 0.267 3.3 8.5
f g 0.109368 3.78028 8.5
f h 0.00433445 2.94063 8.5
f i 0.139665 3.78028 8.5
f j 0.00433445 2.94063 8.5
f k 0.254199 3.4722 8.5
g g 0.065 4.07 8.5
g h 0.00114108 3.62619 8.5
g i 0.083006 4.07 8.5
g j 0.00114108 3.62619 8.5
g k 0.122016 3.87381 8.5
h h 0.013 1.098 8.5
h i 0.00145717 3.62619 8.5
h j 0.013 1.098 8.5
h k 0.00326911 3.21657 8.5
i i 0.106 4.07 8.5
i j 0.00145717 3.62619 8.5
i k 0.155817 3.87381 8.5
j j 0.013 1.098 8.5
j k 0.00326911 3.21657 8.5
k k 0.26 3.61 8.5

Bond Coeffs # class2

a 1.101 345 -691.89 844.6
b 1.53 299.67 -501.77 679.81
c 1.3649 368.731 -832.478 1274.02
d 1.5202 253.707 -423.037 396.9
e 1.202 851.14 -1918.49 2160.77
f 0.965 532.506 -1282.9 2004.77
g 1.53 299.67 -501.77 679.81
h 1.101 345 -691.89 844.6
i 1.457 365.805 -699.637 998.484
j 1.006 466.74 -1073.6 1251.11
k 1.452 327.166 -547.899 526.5
l 1.01 462.75 -1053.63 1545.76
m 1.416 359.159 -558.473 1146.38
n 1.457 365.805 -699.637 998.484
o 0.97 563.28 -1428.22 1902.12

Angle Coeffs # class2

a 107.66 39.641 -12.921 -2.4318
b 110.77 41.453 -10.604 5.129
c 112.67 39.516 -7.443 -9.5583
d 123.145 55.5431 -17.2123 0.1348
e 118.986 98.6813 -22.2485 10.3673
f 123.145 55.5431 -17.2123 0.1348
g 111.254 53.5303 -11.8454 -11.5405
h 108.53 51.9747 -9.4851 -10.9985
i 107.734 40.6099 -28.8121 0
j 110.77 41.453 -10.604 5.129
k 112.67 39.516 -7.443 -9.5583
l 107.66 39.641 -12.921 -2.4318
m 111.91 60.7147 -13.3366 -13.0785
n 110.62 51.3137 -6.7198 -2.6003
o 110.954 50.8652 -4.4522 -10.0298
p 107.067 45.252 -7.5558 -9.512
q 113.868 45.9271 -20.0824 0
r 111.037 31.8958 -6.6942 -6.837
s 116.94 37.5749 -8.6676 0
t 117.961 37.4964 -8.1837 0
u 114.302 42.6589 -10.5464 -9.3243
v 108.937 57.401 2.9374 0
w 107.734 40.6099 -28.8121 0
x 116.926 39.4193 -10.9945 -8.7733
y 118.986 98.6813 -22.2485 10.3673
z 125.542 92.572 -34.48 -11.1871
aa 0 0 0 0
bb 111.91 60.7147 -13.3366 -13.0785
cc 103.7 49.84 -11.6 -8

BondBond Coeffs

a 5.3316 1.101 1.101
b 3.3872 1.53 1.101
c 0 1.53 1.53
d 0 1.5202 1.3649
e 0 1.3649 1.202
f 46.0685 1.5202 1.202
g 0 1.3649 0.965
h 5.4199 1.53 1.5202
i 0.7115 1.5202 1.101
j 3.3872 1.53 1.101
k 0 1.53 1.53
l 5.3316 1.101 1.101
m 4.6217 1.53 1.457
n 12.426 1.457 1.101
o -6.4168 1.457 1.006
p -1.8749 1.006 1.006
q -3.471 1.452 1.01
r 12.1186 1.452 1.416
s -0.5655 1.01 1.01
t -4.3126 1.01 1.416
u 3.5446 1.452 1.53
v 15.2994 1.452 1.101
w 0.7115 1.101 1.5202
x 0 1.416 1.5202
y 0 1.202 1.3649
z 138.495 1.416 1.202
aa 0 1.416 1.3649
bb 4.6217 1.457 1.53
cc -9.5 0.97 0.97

BondAngle Coeffs

a 18.103 18.103 1.101 1.101
b 20.754 11.421 1.53 1.101
c 8.016 8.016 1.53 1.53
d 0 0 1.5202 1.3649
e 0 0 1.3649 1.202
f 34.9982 37.1298 1.5202 1.202
g 0 0 1.3649 0.965
h 18.1678 15.8758 1.53 1.5202
i 12.4632 9.1765 1.5202 1.101
j 20.754 11.421 1.53 1.101
k 8.016 8.016 1.53 1.53
l 18.103 18.103 1.101 1.101
m 6.0876 16.5702 1.53 1.457
n 42.4332 13.4582 1.457 1.101
o 31.8096 20.5799 1.457 1.006
p 28.0322 28.0322 1.006 1.006
q 11.8828 5.9339 1.452 1.01
r 3.7812 14.8633 1.452 1.416
s 19.8125 19.8125 1.01 1.01
t 10.8422 29.5743 1.01 1.416
u 4.6031 -5.479 1.452 1.53
v 34.8907 10.6917 1.452 1.101
w 9.1765 12.4632 1.101 1.5202
x 0 0 1.416 1.5202
y 0 0 1.202 1.3649
z 62.7124 52.4045 1.416 1.202
aa 0 0 1.416 1.3649
bb 16.5702 6.0876 1.457 1.53
cc 22.35 22.35 0.97 0.97

Dihedral Coeffs # class2

a -0.0228 0 0.028 0 -0.1863 0
b -0.1432 0 0.0617 0 -0.1083 0
c 0.0972 0 0.0722 0 -0.2581 0
d 0 0 0.0316 0 -0.1681 0
e 0 0 0.0514 0 -0.143 0
f 0 0 0 0 0 0
g -2.7332 0 2.9646 0 -0.0155 0
h 0 0 0 0 0 0
i 0 0 0 0 0 0
j 0.0442 0 0.0292 0 0.0562 0
k -0.1804 0 0.0012 0 0.0371 0
l -0.2428 0 0.4065 0 -0.3079 0
m -0.1432 0 0.0617 0 -0.1083 0
n 0.1764 0 0.1766 0 -0.5206 0
o 0 0 0.0316 0 -0.1681 0
p 0 0 0.0514 0 -0.143 0
q -1.1506 0 -0.6344 0 -0.1845 0
r -0.5187 0 -0.4837 0 -0.1692 0
s -0.0483 0 -0.0077 0 -0.0014 0
t -0.0148 0 -0.0791 0 -0.0148 0
u 0.0143 0 -0.0132 0 0.0091 0
v 0.0219 0 -0.026 0 0.0714 0
w -0.7532 0 2.7392 0 0.0907 0
x 0.8297 0 3.7234 0 -0.0495 0
y 0 0 0 0 0 0
z 0 0 0 0 0 0
aa -1.6938 0 2.7386 0 -0.336 0
bb 0 0 0 0 0 0
cc 0.0972 0 0.0722 0 -0.2581 0
dd -0.0228 0 0.028 0 -0.1863 0
ee 0.1693 0 -0.009 0 -0.0687 0
ff 0.1693 0 -0.009 0 -0.0687 0
gg 0 0 0 0 0 0
hh -1.1506 0 -0.6344 0 -0.1845 0
ii -0.5187 0 -0.4837 0 -0.1692 0
jj 0.1764 0 0.1766 0 -0.5206 0

AngleAngleTorsion Coeffs

a -5.3624 108.53 110.77
b -12.564 110.77 110.77
c -0.3801 112.67 108.53
d -16.164 112.67 110.77
e -22.045 112.67 112.67
f 0 0 111.254
g 0 118.985 111.254
h 0 108.53 0
i 0 107.734 0
j -8.019 108.53 123.145
k -15.3496 107.734 123.145
l -15.7572 111.91 110.77
m -12.564 110.77 110.77
n -27.3953 112.67 111.91
o -16.164 112.67 110.77
p -22.045 112.67 112.67
q -7.5499 111.91 110.954
r -10.4258 110.62 110.954
s -4.6337 113.868 114.302
t -6.659 113.868 108.937
u -7.4314 111.037 114.302
v -8.1335 111.037 108.937
w -6.5335 111.037 116.926
x -15.5547 111.037 125.542
y 0 111.037 0
z -1.3234 117.961 116.926
aa -7.3186 117.961 125.542
bb 0 117.961 0
cc -1.0631 114.302 112.67
dd -12.7974 114.302 110.77
ee -5.4514 108.53 116.926
ff -12.2417 107.734 116.926
gg 0 0 111.254
hh -7.5499 110.954 111.91
ii -10.4258 110.954 110.62
jj -27.3953 111.91 112.67

EndBondTorsion Coeffs

a -0.0204 0.3628 -0.4426 -0.0097 -0.0315 -0.0755 1.5202 1.101
b 0.213 0.312 0.0777 0.213 0.312 0.0777 1.101 1.101
c 0.0062 -0.0002 0.0036 0.0055 0.006 -0.0009 1.53 1.5202
d 0.2486 0.2422 -0.0925 0.0814 0.0591 0.2219 1.53 1.101
e -0.0732 0 0 -0.0732 0 0 1.53 1.53
f 0 0 0 0 0 0 1.5202 0.965
g 0 0 0 0 0 0 1.202 0.965
h 0 0 0 0 0 0 1.53 1.3649
i 0 0 0 0 0 0 1.101 1.3649
j 0.2654 0.0503 0.1046 -0.281 0.0816 -0.1522 1.53 1.202
k 1.2143 0.2831 0.3916 -0.2298 0.0354 0.3853 1.101 1.202
l 0.1022 0.209 0.6433 0.196 0.7056 0.112 1.457 1.101
m 0.213 0.312 0.0777 0.213 0.312 0.0777 1.101 1.101
n 0.1032 0.5896 -0.4836 0.0579 -0.0043 -0.1906 1.53 1.457
o 0.2486 0.2422 -0.0925 0.0814 0.0591 0.2219 1.53 1.101
p -0.0732 0 0 -0.0732 0 0 1.53 1.53
q -0.9466 0.9356 -0.5542 0.057 0.0625 0.4112 1.53 1.006
r -1.1685 0.9266 -0.0993 0.085 0.3061 0.2104 1.101 1.006
s -0.0992 -0.0727 -0.4139 0.132 0.0015 0.1324 1.01 1.53
t -0.4894 0.1644 0.3105 -0.8983 0.2826 0.0881 1.01 1.101
u -0.1245 -0.9369 0.7781 -0.2033 0.0035 0.056 1.416 1.53
v 0.2292 1.1732 -0.058 -0.3667 0.8197 0.1335 1.416 1.101
w 0.2299 -0.1141 -0.1424 0.0933 -0.4631 0.2883 1.452 1.5202
x 0.1598 0.7253 -0.1007 0.1226 -2.1326 0.5581 1.452 1.202
y 0 0 0 0 0 0 1.452 1.3649
z 0.6413 0.1676 0.144 -0.6979 0.5619 0.4212 1.01 1.5202
aa 0.1214 0.1936 0.0816 -0.7604 -2.6431 1.2467 1.01 1.202
bb 0 0 0 0 0 0 1.01 1.3649
cc -0.0797 -0.0406 0.0255 0.0742 0.0105 0.0518 1.452 1.53
dd 0.3022 0.2513 0.4641 -0.0601 -0.3763 -0.1876 1.452 1.101
ee -0.2631 -0.0076 -0.1145 -0.2751 -0.3058 -0.1767 1.53 1.416
ff -0.0268 0.7836 0.0035 0.3552 -0.2685 0.5834 1.101 1.416
gg 0 0 0 0 0 0 1.416 0.965
hh 0.057 0.0625 0.4112 -0.9466 0.9356 -0.5542 1.006 1.53
ii 0.085 0.3061 0.2104 -1.1685 0.9266 -0.0993 1.006 1.101
jj 0.0579 -0.0043 -0.1906 0.1032 0.5896 -0.4836 1.457 1.53

MiddleBondTorsion Coeffs

a -3.5039 1.2458 -0.761 1.53
b -14.261 -0.5322 -0.4864 1.53
c -1.5945 0.2267 -0.6911 1.53
d -14.879 -3.6581 -0.3138 1.53
e -17.787 -7.1877 0 1.53
f 0 0 0 1.3649
g 0 0 0 1.3649
h 0 0 0 1.5202
i 0 0 0 1.5202
j 0.3388 -0.1096 0.1219 1.5202
k 0.2359 0.9139 0.9594 1.5202
l -10.4959 -0.7647 -0.0545 1.53
m -14.261 -0.5322 -0.4864 1.53
n -15.4174 -7.3055 -1.0749 1.53
o -14.879 -3.6581 -0.3138 1.53
p -17.787 -7.1877 0 1.53
q -2.2208 0.5479 -0.3527 1.457
r -3.4611 1.6996 -0.6007 1.457
s -3.5406 -3.3866 0.0352 1.452
t -1.1752 2.8058 0.8083 1.452
u -3.9501 -0.4002 -0.6798 1.452
v -0.6899 -2.2646 1.1579 1.452
w 0 0 0 1.416
x -8.8301 14.3079 -1.7716 1.416
y 0 0 0 1.416
z 0 0 0 1.416
aa -0.9084 6.1447 -0.4852 1.416
bb 0 0 0 1.416
cc -4.2324 -3.3023 -1.3244 1.53
dd -4.1028 -0.5941 -0.047 1.53
ee 0 0 0 1.5202
ff 0 0 0 1.5202
gg 0 0 0 1.3649
hh -2.2208 0.5479 -0.3527 1.457
ii -3.4611 1.6996 -0.6007 1.457
jj -15.4174 -7.3055 -1.0749 1.53

BondBond13 Coeffs

a 0 1.5202 1.101
b 0 1.101 1.101
c 0 1.53 1.5202
d 0 1.53 1.101
e 0 1.53 1.53
f 0 1.5202 0.965
g 0 1.202 0.965
h 0 1.53 1.3649
i 0 1.101 1.3649
j 0 1.53 1.202
k 0 1.101 1.202
l 0 1.457 1.101
m 0 1.101 1.101
n 0 1.53 1.457
o 0 1.53 1.101
p 0 1.53 1.53
q 0 1.53 1.006
r 0 1.101 1.006
s 0 1.01 1.53
t 0 1.01 1.101
u 0 1.416 1.53
v 0 1.416 1.101
w 0 1.452 1.5202
x 0 1.452 1.202
y 0 1.452 1.3649
z 0 1.01 1.5202
aa 0 1.01 1.202
bb 0 1.01 1.3649
cc 0 1.452 1.53
dd 0 1.452 1.101
ee 0 1.53 1.416
ff 0 1.101 1.416
gg 0 1.416 0.965
hh 0 1.006 1.53
ii 0 1.006 1.101
jj 0 1.457 1.53

AngleTorsion Coeffs

a -0.7466 -0.9448 -0.6321 0.0162 1.4211 -1.4092 108.53 110.77
b -0.8085 0.5569 -0.2466 -0.8085 0.5569 -0.2466 110.77 110.77
c -0.2607 0.3203 -0.2283 0.0515 -0.0674 -0.0474 112.67 108.53
d -0.2454 0 -0.1136 0.3113 0.4516 -0.1988 112.67 110.77
e 0.3886 -0.3139 0.1389 0.3886 -0.3139 0.1389 112.67 112.67
f 0 0 0 0 0 0 0 111.254
g 0 0 0 0 0 0 118.985 111.254
h 0 0 0 0 0 0 108.53 0
i 0 0 0 0 0 0 107.734 0
j 0.0885 -1.3703 -0.5452 0.675 0.5965 0.6725 108.53 123.145
k 9.1299 -0.4847 0.3582 -1.4946 0.7308 -0.2083 107.734 123.145
l -1.1075 0.282 0.8318 0.5111 1.6328 -1.0155 111.91 110.77
m -0.8085 0.5569 -0.2466 -0.8085 0.5569 -0.2466 110.77 110.77
n -1.9225 -1.345 0.221 2.0125 0.944 -2.7612 112.67 111.91
o -0.2454 0 -0.1136 0.3113 0.4516 -0.1988 112.67 110.77
p 0.3886 -0.3139 0.1389 0.3886 -0.3139 0.1389 112.67 112.67
q -3.343 4.4558 -0.0346 0.2873 -0.8072 -0.096 111.91 110.954
r -3.9582 2.0063 0.3213 -0.4294 -0.4442 -0.6141 110.62 110.954
s -0.5807 0.2041 -0.1384 -2.8967 2.7084 -0.0375 113.868 114.302
t -0.3868 0.2041 0.0445 -3.7022 1.3876 0.2393 113.868 108.937
u -1.523 1.1296 0.7167 -0.7555 0.0564 1.2177 111.037 114.302
v 0.0372 -0.3418 -0.0775 -1.5157 2.0781 0.5364 111.037 108.937
w 5.916 1.7856 0.4052 4.2133 2.9302 3.2903 111.037 116.926
x 7.4427 2.1505 -0.2206 4.4466 4.0317 1.7129 111.037 125.542
y 0 0 0 0 0 0 111.037 0
z 1.9306 0.2105 0.0557 -2.2134 1.2909 0.9726 117.961 116.926
aa 2.3848 0.703 0.1399 -2.6238 0.3606 0.5474 117.961 125.542
bb 0 0 0 0 0 0 117.961 0
cc 0.2039 0.1602 -0.7946 -0.5501 -1.6982 0.2485 114.302 112.67
dd -1.982 0.2325 -0.3928 -1.2469 1.6933 -1.2081 114.302 110.77
ee 2.1802 -0.0335 -1.3816 2.1221 0.5032 -0.0767 108.53 116.926
ff 7.095 0.0075 0.691 2.0013 0.5068 0.8406 107.734 116.926
gg 0 0 0 0 0 0 0 111.254
hh 0.2873 -0.8072 -0.096 -3.343 4.4558 -0.0346 110.954 111.91
ii -0.4294 -0.4442 -0.6141 -3.9582 2.0063 0.3213 110.954 110.62
jj 2.0125 0.944 -2.7612 -1.9225 -1.345 0.221 111.91 112.67

Improper Coeffs # class2

a 0 0
b 0 0
c 0 0
d 0 0
e 0 0
f 0 0
g 0 0
h 0 0
i 0 0
j 0 0
k 0 0
l 0 0
m 24.3329 0

AngleAngle Coeffs

a 0 0 0 0 118.985 123.145
b 0.2738 -0.4825 0.2738 110.77 107.66 110.77
c -1.3199 -1.3199 0.1184 112.67 110.77 110.77
d 2.0403 -1.8202 1.0827 108.53 107.734 110.77
e -3.3867 -3.4976 -3.3867 107.734 107.66 107.734
f 0 0 0 110.954 107.067 110.954
g 0.2738 -0.4825 0.2738 110.77 107.66 110.77
h -1.3199 -1.3199 0.1184 112.67 110.77 110.77
i -2.5301 0.5381 2.4286 111.91 110.62 110.77
j 2.4321 -3.5496 2.4321 110.62 107.66 110.62
k 0 0 0 123.145 118.985 0
l 0 0 0 113.868 117.961 111.037
m 0 0 0 116.926 123.145 125.542

Atoms # full

31 2 j 4.0999999999999998e-01 1.2931538395368342e+01 1.5697752250848675e+01 -3.1232031946241818e+00 1 0 0
13 1 k -8.1999999999999995e-01 1.3181612441049591e+01 1.5703056031361665e+01 -4.0600669335709378e+00 -1 1 0
20 1 j 4.0999999999999998e-01 1.3481821455928452e+01 1.4799822146188966e+01 -4.2403402312176981e+00 -1 1 0
33 2 h 0.0000000000000000e+00 1.4954144482331400e+00 -3.8656677964186330e+00 5.4873825136263887e+00 0 -1 0
24 2 g -2.9999999999999999e-01 2.0811435900559343e+00 -3.5209652411565657e+00 4.7490292005635082e+00 0 -1 0
34 2 h 0.0000000000000000e+00 2.0091056820857642e+00 -4.1923070193609346e+00 4.0345684276347962e+00 0 -1 0
25 2 a 0.0000000000000000e+00 3.5024497317130412e+00 -3.3350375712836819e+00 5.1652359716033063e+00 0 -1 0
35 2 d 0.0000000000000000e+00 4.0850324093626460e+00 -2.8720820099631941e+00 4.3537827568332634e+00 0 -1 0
36 2 d 0.0000000000000000e+00 3.9289661858403870e+00 -4.3463315683136621e+00 5.2783023613872002e+00 0 -1 0
38 2 d 0.0000000000000000e+00 3.2689486238886034e+00 -3.2874172349478656e+00 7.3091415276404916e+00 0 -1 0
43 2 d 0.0000000000000000e+00 2.0465934900464848e+00 -1.2633525108140737e+00 6.7349840095248092e+00 0 -1 1
21 2 a 0.0000000000000000e+00 5.2367632152359977e+00 8.8469826473068836e-02 7.3264716454061345e+00 0 0 0
26 2 a 0.0000000000000000e+00 3.6909800930754084e+00 -2.6085163954011956e+00 6.4838320621275294e+00 0 -1 0
27 2 d 0.0000000000000000e+00 5.8758059018244433e+00 -7.4383214213464977e-01 7.5947876986643603e+00 0 0 0
28 2 d 0.0000000000000000e+00 5.3289391104086175e+00 2.8498738146720393e-01 6.2633377968391821e+00 0 0 0
32 2 h 0.0000000000000000e+00 6.8907700647158938e+00 2.7011720428743149e+00 7.1531423479116629e+00 1 0 0
37 2 d 0.0000000000000000e+00 4.7937061897511368e+00 -2.5924778730780824e+00 6.7058522620655152e+00 0 -1 0
39 2 a 0.0000000000000000e+00 3.7823172573525237e+00 -2.9518614417027644e-01 7.7014074087054194e+00 0 0 0
40 2 d 0.0000000000000000e+00 3.1925262450423801e+00 5.9352577142060514e-01 7.7848419166906302e+00 0 0 1
42 2 a 0.0000000000000000e+00 3.1447242149310477e+00 -1.1501347713276049e+00 6.6171454597737513e+00 0 -1 0
44 2 d 0.0000000000000000e+00 3.2547412616939972e+00 -6.1894856432052858e-01 5.6727301112951407e+00 0 0 0
22 2 a 0.0000000000000000e+00 5.5624203314807774e+00 1.3682218157188812e+00 8.2005077050198079e+00 0 0 0
23 2 i -2.9999999999999999e-01 6.8490987422056007e+00 2.0152973886395995e+00 7.8836834819392454e+00 1 0 0
30 2 d 0.0000000000000000e+00 4.7743237636252704e+00 2.1274950468656173e+00 8.0362059793784066e+00 0 0 0
1 1 a 0.0000000000000000e+00 1.0934739677496145e+01 3.0067225414512971e-01 8.2617939253238717e+00 0 0 0
7 1 a 0.0000000000000000e+00 1.2435802660645075e+01 5.4425077314827908e-01 7.9816776593300309e+00 0 0 0
8 1 a 0.0000000000000000e+00 9.9567615354710597e+00 7.0381580710014391e-01 7.1365137549829631e+00 0 0 0
9 1 a 0.0000000000000000e+00 9.2157065702806982e+00 1.9306551057306411e+00 7.7561772280512260e+00 0 0 0
15 1 d 0.0000000000000000e+00 1.2678658994737033e+01 1.6079023095417089e+00 7.9842254859269817e+00 0 0 0
17 1 d 0.0000000000000000e+00 1.0525715013593643e+01 1.0642816013837140e+00 6.2794090473517237e+00 0 0 0
18 1 d 0.0000000000000000e+00 8.8703839957073694e+00 2.5922648301858779e+00 6.9505970285629930e+00 0 1 0
2 1 b 2.9999999999999999e-01 1.3007467714632462e+01 -1.9856496594492523e-01 6.7721361874297905e+00 0 0 0
11 1 f 0.0000000000000000e+00 1.2381979849612865e+01 -1.0305915067686136e+00 6.2163717333738244e+00 0 0 0
16 1 d 0.0000000000000000e+00 9.3118657241855178e+00 -1.3932018944137831e-01 6.8119525533752316e+00 0 1 0
6 1 e 0.0000000000000000e+00 1.4797596142019371e+01 5.4703921661131460e-01 6.7725279044394409e+00 0 0 0
3 1 c 0.0000000000000000e+00 1.4185706094770048e+01 1.3948442108007264e-01 6.1480649440432398e+00 0 0 0
41 2 d 0.0000000000000000e+00 3.7655725397478013e+00 -8.8489673916705025e-01 8.6236516276548425e+00 0 0 1
10 1 b 2.9999999999999999e-01 7.9546127349768092e+00 1.4971242248272045e+00 8.4943519614345213e+00 -1 1 0
12 1 f 0.0000000000000000e+00 7.8825956191231823e+00 8.1812066208756240e-01 9.5118456340858000e+00 -1 0 0
29 2 d 0.0000000000000000e+00 5.5294602713995920e+00 1.1089887023057874e+00 9.2760618445737695e+00 0 0 0
4 1 d 0.0000000000000000e+00 1.0843690086143825e+01 -7.9609740780361060e-01 8.4722792354023468e+00 0 0 0
5 1 d 0.0000000000000000e+00 1.0694806643904698e+01 8.4492102703433936e-01 9.1730912377327147e+00 0 0 0
14 1 d 0.0000000000000000e+00 1.3043569299941161e+01 2.2838545820464909e-01 8.8300572051274315e+00 0 0 0
19 1 d 0.0000000000000000e+00 9.9136055538305978e+00 2.5013012575969107e+00 8.4063383422386462e+00 -1 0 0

Velocities

31 3.7522430066395523e-03 1.7758416355713347e-02 -8.6585053514984713e-03
13 3.4526008127726774e-03 1.0714053557430200e-02 -8.2025863414345018e-03
20 -6.3743421168726581e-03 8.7670979930732779e-03 -1.2197905168436905e-02
33 -1.6346718397783636e-02 2.8607891338921668e-03 -2.0941953114884003e-03
24 -8.8670368018856725e-03 2.6825203125794422e-03 -2.2509357537334653e-03
34 -1.1640144070613095e-02 2.5307319225411286e-03 -1.3353278717033925e-02
25 -3.0119742173406001e-03 -1.1952339893557326e-02 2.4908239543145732e-03
35 2.0204572356516590e-03 -3.4930568078257638e-03 -2.4559409948634696e-02
36 4.2432697596757248e-04 -1.0659213868057604e-02 1.3432062134719454e-02
38 -6.8785111973014299e-03 1.5983830546843866e-02 -4.0904750851138341e-03
43 -7.3435284198769338e-03 -6.5050201601051412e-03 8.9135381264509039e-03
21 4.2917781400646435e-03 -4.9129920323092834e-04 3.4966275910292685e-03
26 -5.4431755208144317e-04 -6.2846723060620583e-03 -1.4950156935438720e-03
27 -5.8645258582526684e-03 -1.5487383846163638e-02 1.2063033381118865e-02
28 -1.7370859407129027e-03 -1.5713933527184913e-02 -2.1153695098279461e-03
32 5.0462739618772311e-03 -2.0376841961308968e-03 -5.4486370857438097e-03
37 -1.1484913074647196e-02 9.2017690354347925e-03 -1.3764666147412386e-02
39 -5.1611158868994774e-03 1.0475370015498382e-03 -2.2254370184474886e-03
40 1.1702726465042073e-02 -1.1845880889543706e-02 -1.2443000015933197e-02
42 -6.8813788189181239e-03 -7.5540595860557084e-03 -7.7210430400584623e-04
44 -3.2969142893715959e-03 -5.9214893841917256e-03 3.0413894900924582e-03
22 3.7547650063786842e-03 -3.8631415151912994e-03 -7.9335192782616548e-04
23 -3.9338022262615140e-03 7.9288320724264505e-03 1.8793398470741463e-03
30 -9.5427622468935592e-03 -1.0410372538768167e-02 2.6916158171071155e-03
1 -5.4477464260169403e-03 9.2016756146758114e-04 1.0078481257088354e-02
7 7.1993150062877326e-05 -3.3458608011096018e-03 7.3629121640424698e-04
8 -1.0888103734977210e-04 -1.6610940919803850e-04 -1.3165581644558689e-03
9 5.7530972547311264e-03 6.8380654206648614e-03 -2.8665232041397101e-03
15 7.3145754276663427e-03 -3.5059320246236527e-03 1.0819932336161464e-02
17 1.3640055625647317e-02 -3.9172595231821159e-03 2.9527679903223968e-03
18 5.6990315112280341e-03 2.2967910492301354e-03 -1.3010870030059612e-02
2 -5.2480235735958636e-03 8.6216502733347871e-04 3.6339735758600059e-03
11 4.7405123306877807e-03 5.4959680366585923e-03 7.1936793838558548e-03
16 -1.9665251231838869e-02 9.3467839922102731e-03 -1.1706668069046482e-02
6 -7.8516639277769330e-04 -5.2535157899733361e-03 4.1181486556038675e-04
3 -2.6087591756659475e-03 -1.3409899050953803e-03 -4.0823318420696881e-03
41 1.9469792300142415e-03 6.2605431377477918e-03 -8.7621301110698355e-03
10 -3.7352687424899492e-03 -4.1193594957033624e-03 6.1969265605200281e-03
12 2.7570971655732565e-03 -2.5166941447057963e-03 7.2011461928697899e-03
29 2.0850251501317876e-02 -4.9955343772637014e-03 -9.9487548816704465e-04
4 2.0695888080693382e-02 1.0191997904358858e-02 1.8046263332023513e-02
5 2.3204972895456318e-02 -6.5558209041982948e-03 1.1901494558192610e-02
14 1.0684258158950233e-02 9.7836018875310012e-03 -3.2550318716780782e-02
19 -1.2234003485213958e-02 2.9954304834312037e-02 7.1001344063621524e-03

Bonds

1 o 31 13
2 o 20 13
3 j 24 33
4 j 24 34
5 i 25 24
6 g 25 26
7 h 25 35
8 h 25 36
9 g 21 22
10 h 21 27
11 h 21 28
12 g 21 39
13 h 26 37
14 h 26 38
15 g 26 42
16 h 39 40
17 h 39 41
18 g 39 42
19 h 42 43
20 h 42 44
21 a 22 29
22 a 22 30
23 k 23 22
24 m 23 10
25 l 23 32
26 a 1 5
27 a 1 4
28 b 1 7
29 b 1 8
30 d 7 2
31 a 7 14
32 a 7 15
33 b 8 9
34 a 8 16
35 a 8 17
36 d 9 10
37 a 9 18
38 a 9 19
39 c 2 3
40 e 2 11
41 f 3 6
42 e 10 12

Angles

1 cc 20 13 31
2 o 25 24 33
3 o 25 24 34
4 p 33 24 34
5 m 26 25 24
6 n 24 25 35
7 n 24 25 36
8 j 26 25 35
9 j 26 25 36
10 l 35 25 36
11 j 22 21 27
12 j 22 21 28
13 k 22 21 39
14 l 27 21 28
15 j 39 21 27
16 j 39 21 28
17 j 25 26 37
18 j 25 26 38
19 k 25 26 42
20 l 37 26 38
21 j 42 26 37
22 j 42 26 38
23 j 21 39 40
24 j 21 39 41
25 k 21 39 42
26 l 40 39 41
27 j 42 39 40
28 j 42 39 41
29 k 26 42 39
30 j 26 42 43
31 j 26 42 44
32 j 39 42 43
33 j 39 42 44
34 l 43 42 44
35 u 23 22 21
36 v 23 22 29
37 v 23 22 30
38 b 21 22 29
39 b 21 22 30
40 a 29 22 30
41 r 22 23 10
42 q 22 23 32
43 t 32 23 10
44 a 5 1 4
45 b 7 1 5
46 b 8 1 5
47 b 7 1 4
48 b 8 1 4
49 c 7 1 8
50 h 1 7 2
51 b 1 7 14
52 b 1 7 15
53 i 2 7 14
54 i 2 7 15
55 a 14 7 15
56 c 1 8 9
57 b 1 8 16
58 b 1 8 17
59 b 9 8 16
60 b 9 8 17
61 a 16 8 17
62 h 8 9 10
63 b 8 9 18
64 b 8 9 19
65 i 10 9 18
66 i 10 9 19
67 a 18 9 19
68 d 7 2 3
69 e 3 2 11
70 f 7 2 11
71 g 2 3 6
72 x 23 10 9
73 f 9 10 12
74 z 23 10 12

Dihedrals

1 q 26 25 24 33
2 r 35 25 24 33
3 r 36 25 24 33
4 q 26 25 24 34
5 r 35 25 24 34
6 r 36 25 24 34
7 l 24 25 26 37
8 l 24 25 26 38
9 m 35 25 26 37
10 m 35 25 26 38
11 m 36 25 26 37
12 m 36 25 26 38
13 o 22 21 39 40
14 o 22 21 39 41
15 p 22 21 39 42
16 m 27 21 39 40
17 m 27 21 39 41
18 m 28 21 39 40
19 m 28 21 39 41
20 d 39 21 22 29
21 d 39 21 22 30
22 n 42 26 25 24
23 o 42 26 25 35
24 o 42 26 25 36
25 p 25 26 42 39
26 o 25 26 42 43
27 o 25 26 42 44
28 m 37 26 42 43
29 m 37 26 42 44
30 m 38 26 42 43
31 m 38 26 42 44
32 o 42 39 21 27
33 o 42 39 21 28
34 p 21 39 42 26
35 o 21 39 42 43
36 o 21 39 42 44
37 m 40 39 42 43
38 m 40 39 42 44
39 m 41 39 42 43
40 m 41 39 42 44
41 o 39 42 26 37
42 o 39 42 26 38
43 o 26 42 39 40
44 o 26 42 39 41
45 cc 23 22 21 39
46 dd 23 22 21 27
47 dd 23 22 21 28
48 b 29 22 21 27
49 b 29 22 21 28
50 b 30 22 21 27
51 b 30 22 21 28
52 u 10 23 22 21
53 v 10 23 22 29
54 v 10 23 22 30
55 w 22 23 10 9
56 s 32 23 22 21
57 t 32 23 22 29
58 t 32 23 22 30
59 x 22 23 10 12
60 z 32 23 10 9
61 aa 32 23 10 12
62 b 5 1 7 14
63 b 5 1 7 15
64 b 4 1 7 14
65 b 4 1 7 15
66 c 8 1 7 2
67 d 8 1 7 14
68 d 8 1 7 15
69 b 5 1 8 16
70 b 5 1 8 17
71 b 4 1 8 16
72 b 4 1 8 17
73 e 7 1 8 9
74 d 7 1 8 16
75 d 7 1 8 17
76 a 2 7 1 5
77 a 2 7 1 4
78 h 1 7 2 3
79 i 14 7 2 3
80 i 15 7 2 3
81 j 1 7 2 11
82 k 14 7 2 11
83 k 15 7 2 11
84 d 9 8 1 5
85 d 9 8 1 4
86 c 1 8 9 10
87 d 1 8 9 18
88 d 1 8 9 19
89 b 16 8 9 18
90 b 16 8 9 19
91 b 17 8 9 18
92 b 17 8 9 19
93 a 10 9 8 16
94 a 10 9 8 17
95 ee 8 9 10 23
96 ff 18 9 10 23
97 ff 19 9 10 23
98 j 8 9 10 12
99 k 18 9 10 12
100 k 19 9 10 12
101 f 7 2 3 6
102 g 11 2 3 6

Impropers

1 f 6 25 24 33
2 i 9 26 25 24
3 i 9 26 25 24
4 j 10 24 25 35
5 g 7 26 25 35
6 g 7 22 21 27
7 h 8 22 21 39
8 h 8 22 21 39
9 g 7 39 21 28
10 g 7 25 26 37
11 h 8 25 26 42
12 h 8 25 26 42
13 g 7 42 26 38
14 g 7 21 39 40
15 h 8 21 39 42
16 h 8 21 39 42
17 g 7 42 39 41
18 h 8 26 42 39
19 h 8 26 42 39
20 g 7 26 42 43
21 g 7 39 42 43
22 a 1 23 22 21
23 a 1 23 22 21
24 a 1 23 22 29
25 a 1 21 22 29
26 l 12 22 23 32
27 b 2 7 1 4
28 b 2 8 1 4
29 c 3 7 1 8
30 c 3 7 1 8
31 d 4 1 7 2
32 d 4 1 7 2
33 b 2 1 7 14
34 e 5 2 7 14
35 c 3 1 8 9
36 c 3 1 8 9
37 b 2 1 8 16
38 b 2 9 8 16
39 d 4 8 9 10
40 d 4 8 9 10
41 b 2 8 9 18
42 e 5 10 9 18
43 a 1 7 2 3
44 m 13 23 10 9

bond_react_props_internal

31 0 1 0
13 0 1 0
20 0 1 0
33 0 1 0
24 0 1 0
34 0 1 0
25 0 1 0
35 0 1 0
36 0 1 0
38 0 1 0
43 0 1 0
21 0 1 0
26 0 1 0
27 0 1 0
28 0 1 0
32 0 1 0
37 0 1 0
39 0 1 0
40 0 1 0
42 0 1 0
44 0 1 0
22 0 1 0
23 0 1 0
30 0 1 0
1 0 1 0
7 0 1 0
8 0 1 0
9 0 1 0
15 0 1 0
17 0 1 0
18 0 1 0
2 0 1 0
11 0 1 0
16 0 1 0
6 0 1 0
3 0 1 0
41 0 1 0
10 0 1 0
12 0 1 0
29 0 1 0
4 0 1 0
5 0 1 0
14 0 1 0
19 0 1 0
