this is LAMMPS data file containing two nylon monomers

44 atoms
11 atom types
42 bonds
15 bond types
74 angles
29 angle types
100 dihedrals
36 dihedral types
44 impropers
13 improper types
5 extra bond per atom
15 extra angle per atom
15 extra dihedral per atom
25 extra improper per atom
25 extra special per atom

-25 25 xlo xhi
-25 25 ylo yhi
-25 25 zlo zhi

Masses

a 12.0112
b 12.0112
c 15.9994
d 1.00797
e 1.00797
f 15.9994
g 14.0067
h 1.00797
i 14.0067
j 1.00797
k 15.9994

Pair Coeffs # lj/class2/coul/cut

a 0.054 4.01
b 0.12 3.81
c 0.24 3.535
d 0.02 2.7
e 0.013 1.098
f 0.267 3.3
g 0.065 4.07
h 0.013 1.098
i 0.106 4.07
j 0.013 1.098
k 0.26 3.61

Bond Coeffs # class2

a 1.101 345 -691.89 844.6
b 1.53 299.67 -501.77 679.81
c 1.3649 368.731 -832.478 1274.02
d 1.5202 253.707 -423.037 396.9
e 1.202 851.14 -1918.49 2160.77
f 0.965 532.506 -1282.9 2004.77
g 1.53 299.67 -501.77 679.81
h 1.101 345 -691.89 844.6
i 1.457 365.805 -699.637 998.484
j 1.006 466.74 -1073.6 1251.11
k 1.452 327.166 -547.899 526.5
l 1.01 462.75 -1053.63 1545.76
m 1.416 359.159 -558.473 1146.38
n 1.457 365.805 -699.637 998.484
o 0.97 563.28 -1428.22 1902.12

Angle Coeffs # class2

a  107.66 39.641 -12.921 -2.4318
b  110.77 41.453 -10.604 5.129
c  112.67 39.516 -7.443 -9.5583
d  123.145 55.5431 -17.2123 0.1348
e  118.986 98.6813 -22.2485 10.3673
f  123.145 55.5431 -17.2123 0.1348
g  111.254 53.5303 -11.8454 -11.5405
h  108.53 51.9747 -9.4851 -10.9985
i  107.734 40.6099 -28.8121 0
j  110.77 41.453 -10.604 5.129
k  112.67 39.516 -7.443 -9.5583
l  107.66 39.641 -12.921 -2.4318
m  111.91 60.7147 -13.3366 -13.0785
n  110.62 51.3137 -6.7198 -2.6003
o  110.954 50.8652 -4.4522 -10.0298
p  107.067 45.252 -7.5558 -9.512
q  113.868 45.9271 -20.0824 0
r  111.037 31.8958 -6.6942 -6.837
s  116.94 37.5749 -8.6676 0
t  117.961 37.4964 -8.1837 0
u  114.302 42.6589 -10.5464 -9.3243
v  108.937 57.401 2.9374 0
w  107.734 40.6099 -28.8121 0
x  116.926 39.4193 -10.9945 -8.7733
y  118.986 98.6813 -22.2485 10.3673
z  125.542 92.572 -34.48 -11.1871
aa 0 0 0 0
bb 111.91 60.7147 -13.3366 -13.0785
cc 103.7 49.84 -11.6 -8

BondBond Coeffs

a  5.3316 1.101 1.101
b  3.3872 1.53 1.101
c  0 1.53 1.53
d  0 1.5202 1.3649
e  0 1.3649 1.202
f  46.0685 1.5202 1.202
g  0 1.3649 0.965
h  5.4199 1.53 1.5202
i  0.7115 1.5202 1.101
j  3.3872 1.53 1.101
k  0 1.53 1.53
l  5.3316 1.101 1.101
m  4.6217 1.53 1.457
n  12.426 1.457 1.101
o  -6.4168 1.457 1.006
p  -1.8749 1.006 1.006
q  -3.471 1.452 1.01
r  12.1186 1.452 1.416
s  -0.5655 1.01 1.01
t  -4.3126 1.01 1.416
u  3.5446 1.452 1.53
v  15.2994 1.452 1.101
w  0.7115 1.101 1.5202
x  0 1.416 1.5202
y  0 1.202 1.3649
z  138.495 1.416 1.202
aa 0 1.416 1.3649
bb 4.6217 1.457 1.53
cc -9.5 0.97 0.97

BondAngle Coeffs

a  18.103 18.103 1.101 1.101
b  20.754 11.421 1.53 1.101
c  8.016 8.016 1.53 1.53
d  0 0 1.5202 1.3649
e  0 0 1.3649 1.202
f  34.9982 37.1298 1.5202 1.202
g  0 0 1.3649 0.965
h  18.1678 15.8758 1.53 1.5202
i  12.4632 9.1765 1.5202 1.101
j  20.754 11.421 1.53 1.101
k  8.016 8.016 1.53 1.53
l  18.103 18.103 1.101 1.101
m  6.0876 16.5702 1.53 1.457
n  42.4332 13.4582 1.457 1.101
o  31.8096 20.5799 1.457 1.006
p  28.0322 28.0322 1.006 1.006
q  11.8828 5.9339 1.452 1.01
r  3.7812 14.8633 1.452 1.416
s  19.8125 19.8125 1.01 1.01
t  10.8422 29.5743 1.01 1.416
u  4.6031 -5.479 1.452 1.53
v  34.8907 10.6917 1.452 1.101
w  9.1765 12.4632 1.101 1.5202
x  0 0 1.416 1.5202
y  0 0 1.202 1.3649
z  62.7124 52.4045 1.416 1.202
aa 0 0 1.416 1.3649
bb 16.5702 6.0876 1.457 1.53
cc 22.35 22.35 0.97 0.97

Dihedral Coeffs # class2

a  -0.0228 0 0.028 0 -0.1863 0
b  -0.1432 0 0.0617 0 -0.1083 0
c  0.0972 0 0.0722 0 -0.2581 0
d  0 0 0.0316 0 -0.1681 0
e  0 0 0.0514 0 -0.143 0
f  0 0 0 0 0 0
g  -2.7332 0 2.9646 0 -0.0155 0
h  0 0 0 0 0 0
i  0 0 0 0 0 0
j  0.0442 0 0.0292 0 0.0562 0
k  -0.1804 0 0.0012 0 0.0371 0
l  -0.2428 0 0.4065 0 -0.3079 0
m  -0.1432 0 0.0617 0 -0.1083 0
n  0.1764 0 0.1766 0 -0.5206 0
o  0 0 0.0316 0 -0.1681 0
p  0 0 0.0514 0 -0.143 0
q  -1.1506 0 -0.6344 0 -0.1845 0
r  -0.5187 0 -0.4837 0 -0.1692 0
s  -0.0483 0 -0.0077 0 -0.0014 0
t  -0.0148 0 -0.0791 0 -0.0148 0
u  0.0143 0 -0.0132 0 0.0091 0
v  0.0219 0 -0.026 0 0.0714 0
w  -0.7532 0 2.7392 0 0.0907 0
x  0.8297 0 3.7234 0 -0.0495 0
y  0 0 0 0 0 0
z  0 0 0 0 0 0
aa -1.6938 0 2.7386 0 -0.336 0
bb 0 0 0 0 0 0
cc 0.0972 0 0.0722 0 -0.2581 0
dd -0.0228 0 0.028 0 -0.1863 0
ee 0.1693 0 -0.009 0 -0.0687 0
ff 0.1693 0 -0.009 0 -0.0687 0
gg 0 0 0 0 0 0
hh -1.1506 0 -0.6344 0 -0.1845 0
ii -0.5187 0 -0.4837 0 -0.1692 0
jj 0.1764 0 0.1766 0 -0.5206 0

AngleAngleTorsion Coeffs

a  -5.3624 108.53 110.77
b  -12.564 110.77 110.77
c  -0.3801 112.67 108.53
d  -16.164 112.67 110.77
e  -22.045 112.67 112.67
f  0 0 111.254
g  0 118.985 111.254
h  0 108.53 0
i  0 107.734 0
j  -8.019 108.53 123.145
k  -15.3496 107.734 123.145
l  -15.7572 111.91 110.77
m  -12.564 110.77 110.77
n  -27.3953 112.67 111.91
o  -16.164 112.67 110.77
p  -22.045 112.67 112.67
q  -7.5499 111.91 110.954
r  -10.4258 110.62 110.954
s  -4.6337 113.868 114.302
t  -6.659 113.868 108.937
u  -7.4314 111.037 114.302
v  -8.1335 111.037 108.937
w  -6.5335 111.037 116.926
x  -15.5547 111.037 125.542
y  0 111.037 0
z  -1.3234 117.961 116.926
aa -7.3186 117.961 125.542
bb 0 117.961 0
cc -1.0631 114.302 112.67
dd -12.7974 114.302 110.77
ee -5.4514 108.53 116.926
ff -12.2417 107.734 116.926
gg 0 0 111.254
hh -7.5499 110.954 111.91
ii -10.4258 110.954 110.62
jj -27.3953 111.91 112.67

EndBondTorsion Coeffs

a  -0.0204 0.3628 -0.4426 -0.0097 -0.0315 -0.0755 1.5202 1.101
b  0.213 0.312 0.0777 0.213 0.312 0.0777 1.101 1.101
c  0.0062 -0.0002 0.0036 0.0055 0.006 -0.0009 1.53 1.5202
d  0.2486 0.2422 -0.0925 0.0814 0.0591 0.2219 1.53 1.101
e  -0.0732 0 0 -0.0732 0 0 1.53 1.53
f  0 0 0 0 0 0 1.5202 0.965
g  0 0 0 0 0 0 1.202 0.965
h  0 0 0 0 0 0 1.53 1.3649
i  0 0 0 0 0 0 1.101 1.3649
j  0.2654 0.0503 0.1046 -0.281 0.0816 -0.1522 1.53 1.202
k  1.2143 0.2831 0.3916 -0.2298 0.0354 0.3853 1.101 1.202
l  0.1022 0.209 0.6433 0.196 0.7056 0.112 1.457 1.101
m  0.213 0.312 0.0777 0.213 0.312 0.0777 1.101 1.101
n  0.1032 0.5896 -0.4836 0.0579 -0.0043 -0.1906 1.53 1.457
o  0.2486 0.2422 -0.0925 0.0814 0.0591 0.2219 1.53 1.101
p  -0.0732 0 0 -0.0732 0 0 1.53 1.53
q  -0.9466 0.9356 -0.5542 0.057 0.0625 0.4112 1.53 1.006
r  -1.1685 0.9266 -0.0993 0.085 0.3061 0.2104 1.101 1.006
s  -0.0992 -0.0727 -0.4139 0.132 0.0015 0.1324 1.01 1.53
t  -0.4894 0.1644 0.3105 -0.8983 0.2826 0.0881 1.01 1.101
u  -0.1245 -0.9369 0.7781 -0.2033 0.0035 0.056 1.416 1.53
v  0.2292 1.1732 -0.058 -0.3667 0.8197 0.1335 1.416 1.101
w  0.2299 -0.1141 -0.1424 0.0933 -0.4631 0.2883 1.452 1.5202
x  0.1598 0.7253 -0.1007 0.1226 -2.1326 0.5581 1.452 1.202
y  0 0 0 0 0 0 1.452 1.3649
z  0.6413 0.1676 0.144 -0.6979 0.5619 0.4212 1.01 1.5202
aa 0.1214 0.1936 0.0816 -0.7604 -2.6431 1.2467 1.01 1.202
bb 0 0 0 0 0 0 1.01 1.3649
cc -0.0797 -0.0406 0.0255 0.0742 0.0105 0.0518 1.452 1.53
dd 0.3022 0.2513 0.4641 -0.0601 -0.3763 -0.1876 1.452 1.101
ee -0.2631 -0.0076 -0.1145 -0.2751 -0.3058 -0.1767 1.53 1.416
ff -0.0268 0.7836 0.0035 0.3552 -0.2685 0.5834 1.101 1.416
gg 0 0 0 0 0 0 1.416 0.965
hh 0.057 0.0625 0.4112 -0.9466 0.9356 -0.5542 1.006 1.53
ii 0.085 0.3061 0.2104 -1.1685 0.9266 -0.0993 1.006 1.101
jj 0.0579 -0.0043 -0.1906 0.1032 0.5896 -0.4836 1.457 1.53

MiddleBondTorsion Coeffs

a  -3.5039 1.2458 -0.761 1.53
b  -14.261 -0.5322 -0.4864 1.53
c  -1.5945 0.2267 -0.6911 1.53
d  -14.879 -3.6581 -0.3138 1.53
e  -17.787 -7.1877 0 1.53
f  0 0 0 1.3649
g  0 0 0 1.3649
h  0 0 0 1.5202
i  0 0 0 1.5202
j  0.3388 -0.1096 0.1219 1.5202
k  0.2359 0.9139 0.9594 1.5202
l  -10.4959 -0.7647 -0.0545 1.53
m  -14.261 -0.5322 -0.4864 1.53
n  -15.4174 -7.3055 -1.0749 1.53
o  -14.879 -3.6581 -0.3138 1.53
p  -17.787 -7.1877 0 1.53
q  -2.2208 0.5479 -0.3527 1.457
r  -3.4611 1.6996 -0.6007 1.457
s  -3.5406 -3.3866 0.0352 1.452
t  -1.1752 2.8058 0.8083 1.452
u  -3.9501 -0.4002 -0.6798 1.452
v  -0.6899 -2.2646 1.1579 1.452
w  0 0 0 1.416
x  -8.8301 14.3079 -1.7716 1.416
y  0 0 0 1.416
z  0 0 0 1.416
aa -0.9084 6.1447 -0.4852 1.416
bb 0 0 0 1.416
cc -4.2324 -3.3023 -1.3244 1.53
dd -4.1028 -0.5941 -0.047 1.53
ee 0 0 0 1.5202
ff 0 0 0 1.5202
gg 0 0 0 1.3649
hh -2.2208 0.5479 -0.3527 1.457
ii -3.4611 1.6996 -0.6007 1.457
jj -15.4174 -7.3055 -1.0749 1.53

BondBond13 Coeffs

a  0 1.5202 1.101
b  0 1.101 1.101
c  0 1.53 1.5202
d  0 1.53 1.101
e  0 1.53 1.53
f  0 1.5202 0.965
g  0 1.202 0.965
h  0 1.53 1.3649
i  0 1.101 1.3649
j  0 1.53 1.202
k  0 1.101 1.202
l  0 1.457 1.101
m  0 1.101 1.101
n  0 1.53 1.457
o  0 1.53 1.101
p  0 1.53 1.53
q  0 1.53 1.006
r  0 1.101 1.006
s  0 1.01 1.53
t  0 1.01 1.101
u  0 1.416 1.53
v  0 1.416 1.101
w  0 1.452 1.5202
x  0 1.452 1.202
y  0 1.452 1.3649
z  0 1.01 1.5202
aa 0 1.01 1.202
bb 0 1.01 1.3649
cc 0 1.452 1.53
dd 0 1.452 1.101
ee 0 1.53 1.416
ff 0 1.101 1.416
gg 0 1.416 0.965
hh 0 1.006 1.53
ii 0 1.006 1.101
jj 0 1.457 1.53

AngleTorsion Coeffs

a  -0.7466 -0.9448 -0.6321 0.0162 1.4211 -1.4092 108.53 110.77
b  -0.8085 0.5569 -0.2466 -0.8085 0.5569 -0.2466 110.77 110.77
c  -0.2607 0.3203 -0.2283 0.0515 -0.0674 -0.0474 112.67 108.53
d  -0.2454 0 -0.1136 0.3113 0.4516 -0.1988 112.67 110.77
e  0.3886 -0.3139 0.1389 0.3886 -0.3139 0.1389 112.67 112.67
f  0 0 0 0 0 0 0 111.254
g  0 0 0 0 0 0 118.985 111.254
h  0 0 0 0 0 0 108.53 0
i  0 0 0 0 0 0 107.734 0
j  0.0885 -1.3703 -0.5452 0.675 0.5965 0.6725 108.53 123.145
k  9.1299 -0.4847 0.3582 -1.4946 0.7308 -0.2083 107.734 123.145
l  -1.1075 0.282 0.8318 0.5111 1.6328 -1.0155 111.91 110.77
m  -0.8085 0.5569 -0.2466 -0.8085 0.5569 -0.2466 110.77 110.77
n  -1.9225 -1.345 0.221 2.0125 0.944 -2.7612 112.67 111.91
o  -0.2454 0 -0.1136 0.3113 0.4516 -0.1988 112.67 110.77
p  0.3886 -0.3139 0.1389 0.3886 -0.3139 0.1389 112.67 112.67
q  -3.343 4.4558 -0.0346 0.2873 -0.8072 -0.096 111.91 110.954
r  -3.9582 2.0063 0.3213 -0.4294 -0.4442 -0.6141 110.62 110.954
s  -0.5807 0.2041 -0.1384 -2.8967 2.7084 -0.0375 113.868 114.302
t  -0.3868 0.2041 0.0445 -3.7022 1.3876 0.2393 113.868 108.937
u  -1.523 1.1296 0.7167 -0.7555 0.0564 1.2177 111.037 114.302
v  0.0372 -0.3418 -0.0775 -1.5157 2.0781 0.5364 111.037 108.937
w  5.916 1.7856 0.4052 4.2133 2.9302 3.2903 111.037 116.926
x  7.4427 2.1505 -0.2206 4.4466 4.0317 1.7129 111.037 125.542
y  0 0 0 0 0 0 111.037 0
z  1.9306 0.2105 0.0557 -2.2134 1.2909 0.9726 117.961 116.926
aa 2.3848 0.703 0.1399 -2.6238 0.3606 0.5474 117.961 125.542
bb 0 0 0 0 0 0 117.961 0
cc 0.2039 0.1602 -0.7946 -0.5501 -1.6982 0.2485 114.302 112.67
dd -1.982 0.2325 -0.3928 -1.2469 1.6933 -1.2081 114.302 110.77
ee 2.1802 -0.0335 -1.3816 2.1221 0.5032 -0.0767 108.53 116.926
ff 7.095 0.0075 0.691 2.0013 0.5068 0.8406 107.734 116.926
gg 0 0 0 0 0 0 0 111.254
hh 0.2873 -0.8072 -0.096 -3.343 4.4558 -0.0346 110.954 111.91
ii -0.4294 -0.4442 -0.6141 -3.9582 2.0063 0.3213 110.954 110.62
jj 2.0125 0.944 -2.7612 -1.9225 -1.345 0.221 111.91 112.67

Improper Coeffs # class2

a 0 0
b 0 0
c 0 0
d 0 0
e 0 0
f 0 0
g 0 0
h 0 0
i 0 0
j 0 0
k 0 0
l 0 0
m 24.3329 0

AngleAngle Coeffs

a 0 0 0 0 118.985 123.145
b 0.2738 -0.4825 0.2738 110.77 107.66 110.77
c -1.3199 -1.3199 0.1184 112.67 110.77 110.77
d 2.0403 -1.8202 1.0827 108.53 107.734 110.77
e -3.3867 -3.4976 -3.3867 107.734 107.66 107.734
f 0 0 0 110.954 107.067 110.954
g 0.2738 -0.4825 0.2738 110.77 107.66 110.77
h -1.3199 -1.3199 0.1184 112.67 110.77 110.77
i -2.5301 0.5381 2.4286 111.91 110.62 110.77
j 2.4321 -3.5496 2.4321 110.62 107.66 110.62
k 0 0 0 123.145 118.985 0
l 0 0 0 113.868 117.961 111.037
m 0 0 0 116.926 123.145 125.542

Atoms # full

1  1 a 0.0000000000000000e+00   12.288168        0.738732        4.374280 0 0 0
2  1 b 2.9999999999999999e-01   13.959928       -0.883144        5.090597 0 0 0
3  1 c 0.0000000000000000e+00   14.411288       -1.994419        5.682160 0 0 0
4  1 d 0.0000000000000000e+00   12.881083        0.872503        3.506176 0 0 0
5  1 d 0.0000000000000000e+00   11.232775        0.801641        3.998777 0 0 0
6  1 e 0.0000000000000000e+00   13.704366       -2.470396        6.130105 0 0 0
7  1 a 0.0000000000000000e+00   12.489752       -0.793693        4.710639 0 0 0
8  1 a 0.0000000000000000e+00   12.455071        1.866388        5.385870 0 0 0
9  1 a 0.0000000000000000e+00   11.248961        1.901849        6.347664 0 0 0
10 1 b 2.9999999999999999e-01  10.005971        2.466710        5.772840 -1 1 0
11 1 f 0.0000000000000000e+00  14.795360       -0.034436        4.807367 0 0 0
12 1 f 0.0000000000000000e+00   9.115239        1.654547        5.617002 -1 0 0
13 1 c 0.0000000000000000e+00   9.745096        3.807654        5.573585 -1 1 0
14 1 d 0.0000000000000000e+00  12.248215       -1.371492        3.808598 0 0 0
15 1 d 0.0000000000000000e+00  11.715755       -1.036825        5.500449 0 0 0
16 1 d 0.0000000000000000e+00  12.559724        2.807687        4.858452 0 1 0
17 1 d 0.0000000000000000e+00  13.299968        1.616570        6.123781 0 0 0
18 1 d 0.0000000000000000e+00  11.650505        2.330454        7.282410 0 1 0
19 1 d 0.0000000000000000e+00  10.888420        0.913219        6.637162 -1 0 0
20 1 e 0.0000000000000000e+00  10.550073        4.294209        5.758192 -1 1 0
21 2 a 0.0000000000000000e+00   5.851425        1.929552        6.038335 0 0 0
22 2 a 0.0000000000000000e+00   6.741509        3.160751        6.233074 0 0 0
23 2 g -2.9999999999999999e-01  7.957761        3.121780        5.252257 1 0 0
24 2 g -2.9999999999999999e-01  2.599653       -2.258940        5.985863 0 -1 0
25 2 a 0.0000000000000000e+00   3.834337       -1.907078        5.441528 0 -1 0
26 2 a 0.0000000000000000e+00   4.810793       -1.083699        6.310184 0 -1 0
27 2 d 0.0000000000000000e+00   6.505912        1.182799        5.449104 0 0 0
28 2 d 0.0000000000000000e+00   5.156429        2.256468        5.348423 0 0 0
29 2 d 0.0000000000000000e+00   7.232782        3.178785        7.181911 0 0 0
30 2 d 0.0000000000000000e+00   6.251671        4.103621        6.222913 0 0 0
31 2 h 0.0000000000000000e+00   8.249909        4.070668        4.881297 1 0 0
32 2 h 0.0000000000000000e+00   7.813025        2.623184        4.400744 1 0 0
33 2 h 0.0000000000000000e+00   2.626695       -2.857547        6.817247 0 -1 0
34 2 h 0.0000000000000000e+00   1.955281       -2.684319        5.328460 0 -1 0
35 2 d 0.0000000000000000e+00   3.637708       -1.322842        4.469265 0 -1 0
36 2 d 0.0000000000000000e+00   4.415570       -2.739689        4.997336 0 -1 0
37 2 d 0.0000000000000000e+00   5.710714       -1.010014        5.642798 0 -1 0
38 2 d 0.0000000000000000e+00   5.103831       -1.696423        7.160345 0 -1 0
39 2 a 0.0000000000000000e+00   5.270763        1.286629        7.308822 0 0 0
40 2 d 0.0000000000000000e+00   4.834381        2.168531        7.931687 0 0 1
41 2 d 0.0000000000000000e+00   6.118354        0.786724        7.794709 0 0 1
42 2 a 0.0000000000000000e+00   4.273849        0.167695        6.957862 0 -1 0
43 2 d 0.0000000000000000e+00   3.792544       -0.081782        7.904418 0 -1 1
44 2 d 0.0000000000000000e+00   3.527495        0.674238        6.348869 0 0 0

Velocities

1 -2.4626989626218821e-03 -1.5920230003311222e-03 -3.0621927786115238e-03
2 9.5082416704385837e-03 -6.9903166167507250e-03 1.3702671335945608e-02
3 2.3431518493187576e-03 -2.9261683108242173e-03 1.4269399726982105e-03
4 -1.8184451408256214e-02 3.1103803691687960e-02 -1.3358827768357973e-02
5 2.6084132471017967e-02 -1.0819576493517332e-02 3.0403384454794881e-02
6 -4.7312115958218744e-03 -1.9111462399478338e-02 -3.6793354156497558e-02
7 -7.5068797595949869e-03 6.5661422055962489e-03 1.3226575122695422e-03
8 3.3807881380161281e-03 3.0458732663557089e-03 2.2368826795446284e-03
9 -3.1113905793879316e-03 8.2908867720754773e-03 -1.7561238039496530e-03
10 2.4685206571693056e-03 1.3194776209841030e-03 -2.8041877032800441e-03
11 -3.4945605770565296e-03 3.2323777135621814e-03 1.6223017668450866e-03
12 -6.1153483612847778e-03 -5.1534857074262185e-03 1.7735747357354274e-03
13 2.1384296781859011e-04 -4.5398902942729667e-03 6.1649769894413760e-03
14 2.5004619864373401e-03 -1.5709184283264888e-03 2.0837548254667757e-02
15 6.0547939205643532e-03 -1.2650704436910937e-02 -5.4430753266962190e-03
16 -1.0374605775698001e-02 9.1408658463889240e-03 -1.1306875858287088e-02
17 -1.2736499128987409e-02 -9.1726811852506501e-03 5.1136502685461254e-03
18 7.6741778607048112e-03 1.8629856635459279e-02 -1.1300096447670932e-02
19 -1.8616138775281121e-02 1.0848388547730185e-03 -5.7118433687798576e-03
20 5.4137572241479059e-03 -1.4564578166395727e-02 -1.2618420441909540e-02
21 5.8473521452312256e-03 -4.0595286000332086e-03 -6.2517801580146415e-03
22 3.6402033824753104e-03 -1.4629540504663154e-03 -4.0030712318898046e-03
23 9.0266305019107689e-03 -2.7511425384659687e-03 4.5576402565437142e-03
24 -1.3102302415548614e-02 -4.7286703965305791e-03 -1.8966887841189517e-03
25 7.8621682621103171e-03 -4.2046313540949568e-03 9.6887957374751301e-04
26 -4.7380176438337968e-03 9.6090441940775827e-03 -8.7592431387039336e-03
27 5.4311658811632517e-03 2.0032224663495989e-02 -9.4952076489808503e-03
28 -2.9056381493904374e-03 3.3317109723156875e-03 1.6650350064426677e-02
29 -6.4569944033489122e-03 2.8423983541959541e-03 -2.6066912906505167e-02
30 -2.2173867823429387e-02 1.4628839880961319e-02 -2.3330833961402380e-02
31 9.1925713381983114e-03 -2.5697556639281928e-03 -1.2822203161488303e-02
32 -8.3206975051927905e-03 -2.2538429924858707e-03 7.7620244118580314e-03
33 1.9920685674825727e-02 5.0317764848494097e-03 -2.1106672824976403e-02
34 1.4118463330250982e-02 1.7455545466840316e-02 -1.2482101375598437e-02
35 -6.1116505640437966e-03 1.3353021777303568e-02 -2.5492434283827668e-02
36 9.1001521565859649e-03 5.5737774505222404e-03 1.4573768978939985e-02
37 1.6523593470528035e-03 -2.2107518020000917e-02 2.0311423445130115e-02
38 -1.0346275393471860e-02 1.6055856586351790e-02 5.5489127019262424e-03
39 -3.2054811383248638e-03 1.6779208962376315e-03 2.9390509537535661e-03
40 1.9649219364916443e-02 4.0815776523222859e-03 -9.8422441166041274e-03
41 5.6961697588160361e-04 7.1361132234741477e-04 4.6335764220256257e-03
42 2.2221300208006252e-03 3.6217319632558197e-03 -6.3299398503455151e-03
43 2.5710172734841170e-03 8.0029179814482924e-03 1.9992986928468189e-02
44 -6.0827581822674656e-03 -1.1834273655641976e-02 2.0526923045885208e-02

Bonds

1  a 1 5
2  a 1 4
3  b 1 7
4  b 1 8
5  c 2 3
6  e 2 11
7  f 3 6
8  d 7 2
9  a 7 14
10 a 7 15
11 b 8 9
12 a 8 16
13 a 8 17
14 d 9 10
15 a 9 18
16 a 9 19
17 e 10 12
18 c 10 13
19 f 13 20
20 g 21 22
21 h 21 27
22 h 21 28
23 g 21 39
24 i 22 23
25 h 22 29
26 h 22 30
27 j 23 31
28 j 23 32
29 j 24 33
30 j 24 34
31 i 25 24
32 g 25 26
33 h 25 35
34 h 25 36
35 h 26 37
36 h 26 38
37 g 26 42
38 h 39 40
39 h 39 41
40 g 39 42
41 h 42 43
42 h 42 44

Angles

1  a 5 1 4
2  b 7 1 5
3  b 8 1 5
4  b 7 1 4
5  b 8 1 4
6  c 7 1 8
7  d 7 2 3
8  e 3 2 11
9  f 7 2 11
10 g 2 3 6
11 h 1 7 2
12 b 1 7 14
13 b 1 7 15
14 i 2 7 14
15 i 2 7 15
16 a 14 7 15
17 c 1 8 9
18 b 1 8 16
19 b 1 8 17
20 b 9 8 16
21 b 9 8 17
22 a 16 8 17
23 h 8 9 10
24 b 8 9 18
25 b 8 9 19
26 i 10 9 18
27 i 10 9 19
28 a 18 9 19
29 f 9 10 12
30 d 9 10 13
31 e 13 10 12
32 g 10 13 20
33 j 22 21 27
34 j 22 21 28
35 k 22 21 39
36 l 27 21 28
37 j 39 21 27
38 j 39 21 28
39 m 21 22 23
40 j 21 22 29
41 j 21 22 30
42 n 23 22 29
43 n 23 22 30
44 l 29 22 30
45 o 22 23 31
46 o 22 23 32
47 p 31 23 32
48 o 25 24 33
49 o 25 24 34
50 p 33 24 34
51 m 26 25 24
52 n 24 25 35
53 n 24 25 36
54 j 26 25 35
55 j 26 25 36
56 l 35 25 36
57 j 25 26 37
58 j 25 26 38
59 k 25 26 42
60 l 37 26 38
61 j 42 26 37
62 j 42 26 38
63 j 21 39 40
64 j 21 39 41
65 k 21 39 42
66 l 40 39 41
67 j 42 39 40
68 j 42 39 41
69 k 26 42 39
70 j 26 42 43
71 j 26 42 44
72 j 39 42 43
73 j 39 42 44
74 l 43 42 44

Dihedrals

1   b  5 1 7 14
2   b  5 1 7 15
3   b  4 1 7 14
4   b  4 1 7 15
5   c  8 1 7 2
6   d  8 1 7 14
7   d  8 1 7 15
8   b  5 1 8 16
9   b  5 1 8 17
10  b  4 1 8 16
11  b  4 1 8 17
12  e  7 1 8 9
13  d  7 1 8 16
14  d  7 1 8 17
15  f  7 2 3 6
16  g  11 2 3 6
17  a  2 7 1 5
18  a  2 7 1 4
19  h  1 7 2 3
20  i  14 7 2 3
21  i  15 7 2 3
22  j  1 7 2 11
23  k  14 7 2 11
24  k  15 7 2 11
25  d  9 8 1 5
26  d  9 8 1 4
27  c  1 8 9 10
28  d  1 8 9 18
29  d  1 8 9 19
30  b  16 8 9 18
31  b  16 8 9 19
32  b  17 8 9 18
33  b  17 8 9 19
34  a  10 9 8 16
35  a  10 9 8 17
36  j  8 9 10 12
37  h  8 9 10 13
38  k  18 9 10 12
39  i  18 9 10 13
40  k  19 9 10 12
41  i  19 9 10 13
42  f  9 10 13 20
43  g  12 10 13 20
44  m  27 21 22 29
45  m  27 21 22 30
46  m  28 21 22 29
47  m  28 21 22 30
48  n  39 21 22 23
49  o  39 21 22 29
50  o  39 21 22 30
51  o  22 21 39 40
52  o  22 21 39 41
53  p  22 21 39 42
54  m  27 21 39 40
55  m  27 21 39 41
56  m  28 21 39 40
57  m  28 21 39 41
58  l  23 22 21 27
59  l  23 22 21 28
60  q  21 22 23 31
61  q  21 22 23 32
62  r  29 22 23 31
63  r  29 22 23 32
64  r  30 22 23 31
65  r  30 22 23 32
66  q  26 25 24 33
67  r  35 25 24 33
68  r  36 25 24 33
69  q  26 25 24 34
70  r  35 25 24 34
71  r  36 25 24 34
72  l  24 25 26 37
73  l  24 25 26 38
74  m  35 25 26 37
75  m  35 25 26 38
76  m  36 25 26 37
77  m  36 25 26 38
78  n  42 26 25 24
79  o  42 26 25 35
80  o  42 26 25 36
81  p  25 26 42 39
82  o  25 26 42 43
83  o  25 26 42 44
84  m  37 26 42 43
85  m  37 26 42 44
86  m  38 26 42 43
87  m  38 26 42 44
88  o  42 39 21 27
89  o  42 39 21 28
90  p  21 39 42 26
91  o  21 39 42 43
92  o  21 39 42 44
93  m  40 39 42 43
94  m  40 39 42 44
95  m  41 39 42 43
96  m  41 39 42 44
97  o  39 42 26 37
98  o  39 42 26 38
99  o  26 42 39 40
100 o 26 42 39 41

Impropers

1  b 7 1 4 5
2  b 8 1 4 5
3  c 7 1 8 5
4  c 7 1 8 4
5  a 7 2 3 11
6  d 1 7 2 14
7  d 1 7 2 15
8  b 1 7 14 15
9  e 2 7 14 15
10 c 1 8 9 16
11 c 1 8 9 17
12 b 1 8 16 17
13 b 9 8 16 17
14 d 8 9 10 18
15 d 8 9 10 19
16 b 8 9 18 19
17 e 10 9 18 19
18 a 9 10 13 12
19 g 22 21 27 28
20 h 22 21 39 27
21 h 22 21 39 28
22 g 39 21 28 27
23 i 21 22 23 29
24 i 21 22 23 30
25 g 21 22 29 30
26 j 23 22 29 30
27 f 22 23 31 32
28 f 25 24 33 34
29 i 26 25 24 35
30 i 26 25 24 36
31 j 24 25 35 36
32 g 26 25 35 36
33 g 25 26 37 38
34 h 25 26 42 37
35 h 25 26 42 38
36 g 42 26 38 37
37 g 21 39 40 41
38 h 21 39 42 40
39 h 21 39 42 41
40 g 42 39 41 40
41 h 26 42 39 43
42 h 26 42 39 44
43 g 26 42 43 44
44 g 39 42 43 44
