LAMMPS (24 Dec 2020)
OMP_NUM_THREADS environment is not set. Defaulting to 1 thread. (src/lammps/src/comm.cpp:94)
  using 1 OpenMP thread(s) per MPI task
Reading data file ...
  orthogonal box = (0.0000000 0.0000000 0.0000000) to (29.204526 29.204526 29.204526)
  2 by 2 by 3 MPI processor grid
  reading atoms ...
  1800 atoms
  scanning bonds ...
  1 = max bonds/atom
  scanning angles ...
  1 = max angles/atom
  reading bonds ...
  1200 bonds
  reading angles ...
  600 angles
Finding 1-2 1-3 1-4 neighbors ...
  special bond factors lj:    0        0        0.5     
  special bond factors coul:  0        0        0.5     
     2 = max # of 1-2 neighbors
     1 = max # of 1-3 neighbors
     1 = max # of 1-4 neighbors
     2 = max # of special neighbors
  special bonds CPU = 0.002 seconds
  read_data CPU = 0.020 seconds
Finding SHAKE clusters ...
       0 = # of size 2 clusters
     600 = # of size 3 clusters
       0 = # of size 4 clusters
       0 = # of frozen angles
  find clusters CPU = 0.001 seconds
PPPM initialization ...
  using 12-bit tables for long-range coulomb (src/lammps/src/kspace.cpp:339)
  G vector (1/distance) = 0.2506685
  grid = 20 20 20
  stencil order = 5
  estimated absolute RMS force accuracy = 0.0030770287
  estimated relative force accuracy = 9.2663804e-06
  using double precision FFTW3
  3d grid and FFT values/proc = 3757 800
Neighbor list info ...
  update every 1 steps, delay 10 steps, check yes
  max neighbors/atom: 2000, page size: 100000
  master list distance cutoff = 14
  ghost atom cutoff = 14
  binsize = 7, bins = 5 5 5
  1 neighbor lists, perpetual/occasional/extra = 1 0 0
  (1) pair lj/cut/coul/long, perpetual
      attributes: half, newton on
      pair build: half/bin/newton
      stencil: half/bin/3d/newton
      bin: standard
Setting up Verlet run ...
  Unit style    : real
  Current step  : 0
  Time step     : 1
Per MPI rank memory allocation (min/avg/max) = 8.214 | 8.226 | 8.244 Mbytes
Step CPU TotEng KinEng PotEng E_vdwl E_coul E_long Temp Press Volume Density 
       0            0    1343.8082     1251.046    92.762256    53.823145    30098.377   -30059.438          300    10285.006    24908.667   0.72058313 
    5000    27.484029   -5481.5313    1291.2507   -6772.7821    1417.9265    21710.404   -30351.578    309.64107    573.94807    17792.658    1.0087737 
   10000    51.222479   -5557.9174    1247.8414   -6805.7588    1463.5652    21652.169   -30349.483    299.23155    1155.9001    17391.932    1.0320167 
   15000    81.534825   -5547.6429    1255.8047   -6803.4476    1434.9211    21679.801   -30351.564    301.14114    414.89266    17774.479    1.0098054 
   20000    108.19472   -5520.4365    1226.2567   -6746.6933    1363.6958    21763.102   -30350.115    294.05555    -159.5117    17640.377     1.017482 
   25000    139.47439   -5523.2547    1214.4617   -6737.7163    1403.2241    21727.256   -30347.421     291.2271    682.49951    17446.971    1.0287611 
   30000    173.52324   -5633.4887    1209.4695   -6842.9582    1384.9611    21696.903   -30350.921    290.02999   -439.40705     17870.41    1.0043846 
   35000    207.46148   -5609.1629    1202.7623   -6811.9252    1459.4041    21642.871   -30348.683     288.4216    870.04629    17620.845    1.0186098 
   40000      240.785   -5613.2727     1218.043   -6831.3157    1458.2338    21629.898   -30351.078    292.08591    578.74278    17728.011    1.0124523 
   45000    274.86574   -5567.9001    1234.3625   -6802.2626    1499.8464    21612.157   -30349.505     295.9993    1143.6708    17911.841    1.0020614 
   50000    308.33717   -5534.5804    1253.1529   -6787.7333    1383.4124    21740.111   -30349.237    300.50525   -236.43099     17808.85    1.0078565 
   55000    340.35767   -5558.5567    1237.2613    -6795.818    1472.1262     21640.69     -30349.9    296.69444    1169.6084    17518.859    1.0245396 
   60000    371.42788   -5620.3085    1217.3007   -6837.6091    1335.6617    21764.982   -30350.897     291.9079   -730.47206    17652.428    1.0167873 
   65000     400.4258   -5523.4332    1219.0927   -6742.5258    1377.9207    21790.846   -30351.438    292.33762   -67.377992    18008.535   0.99668103 
   70000    433.12056   -5549.9652    1278.9899   -6828.9551    1405.3901    21680.053   -30344.054    306.70094   -24.208971    17740.923    1.0117154 
   75000    465.43309   -5468.4134    1328.8758   -6797.2892    1404.3997     21721.55   -30346.155    318.66353    422.45424    17600.531    1.0197854 
   80000    498.33654   -5561.5506    1262.2191   -6823.7698    1375.8895    21728.477   -30350.941    302.67932   -480.08789     17936.63    1.0006765 
   85000    531.18843   -5561.7498    1243.7135   -6805.4633    1411.6336     21707.72   -30349.917    298.24169    31.756571    17844.951    1.0058176 
   90000    565.37172   -5548.2883    1305.5336   -6853.8219     1376.838     21698.95   -30345.634    313.06609   -580.39211    18032.442   0.99535964 
   95000     599.1335   -5491.6607    1249.0766   -6740.7373     1327.508    21805.341   -30346.173    299.52775   -747.34141     17928.72     1.001118 
  100000    632.97763   -5504.9781    1270.9776   -6775.9557    1348.4638    21759.337    -30349.51     304.7796   -112.23793    17469.352    1.0274431 
Loop time of 632.978 on 12 procs for 100000 steps with 1800 atoms

Performance: 13.650 ns/day, 1.758 hours/ns, 157.983 timesteps/s
95.0% CPU use with 12 MPI tasks x 1 OpenMP threads

MPI task timing breakdown:
Section |  min time  |  avg time  |  max time  |%varavg| %total
---------------------------------------------------------------
Pair    | 307.42     | 344.2      | 378.91     | 110.2 | 54.38
Bond    | 1.1476     | 1.2339     | 1.3345     |   6.3 |  0.19
Kspace  | 109.33     | 144.47     | 180.71     | 170.1 | 22.82
Neigh   | 25.619     | 25.671     | 25.708     |   0.6 |  4.06
Comm    | 41.234     | 45.135     | 50.464     |  52.8 |  7.13
Output  | 0.0012664  | 0.001324   | 0.0018066  |   0.4 |  0.00
Modify  | 46.059     | 59.064     | 69.016     | 114.7 |  9.33
Other   |            | 13.2       |            |       |  2.09

Nlocal:        150.000 ave         160 max         138 min
Histogram: 2 0 0 2 1 1 3 0 0 3
Nghost:        6169.08 ave        6215 max        6126 min
Histogram: 1 1 2 2 0 1 3 0 1 1
Neighs:        88745.0 ave       98807 max       82382 min
Histogram: 3 0 1 3 0 3 1 0 0 1

Total # of neighbors = 1064940
Ave neighs/atom = 591.63333
Ave special neighs/atom = 2.0000000
Neighbor list builds = 4480
Dangerous builds = 8
PPPM initialization ...
  using 12-bit tables for long-range coulomb (src/lammps/src/kspace.cpp:339)
  G vector (1/distance) = 0.25148052
  grid = 18 18 18
  stencil order = 5
  estimated absolute RMS force accuracy = 0.0034663752
  estimated relative force accuracy = 1.0438886e-05
  using double precision FFTW3
  3d grid and FFT values/proc = 3328 648
FEP settings ...
  temperature = 300.000000
  tail no
  1-1 charge
  2-2 charge
Setting up Verlet run ...
  Unit style    : real
  Current step  : 0
  Time step     : 1
Per MPI rank memory allocation (min/avg/max) = 8.210 | 8.549 | 8.629 Mbytes
Step TotEng KinEng PotEng E_vdwl E_coul E_long Temp Press Density v_lambda v_qO v_qH 
       0   -5504.9889    1270.9776   -6775.9665    1348.4638    21857.535   -30447.719     304.7796   -83.574867    1.0274431            1      -0.8476       0.4238 
    5000   -5524.9498    1270.0815   -6795.0313    1351.1305    21827.149   -30444.933     304.5647   -593.70775     1.005159       0.9975    -0.845481    0.4227405 
   10000   -5540.3394    1230.4582   -6770.7976    1419.9827    21833.217   -30447.512    295.06306    390.92433    1.0060179        0.995    -0.843362     0.421681 
   15000   -5552.7887    1238.4753    -6791.264    1335.4158    21841.316   -30448.525    296.98555   -977.57176    1.0018216       0.9925    -0.841243    0.4206215 
   20000   -5571.4362    1242.7492   -6814.1854    1430.7811    21758.542    -30446.37    298.01044    389.91739    1.0176182         0.99    -0.839124     0.419562 
   25000   -5460.6807    1271.7643    -6732.445    1445.8579     21824.91   -30444.435    304.96824    662.28347   0.99362968       0.9875    -0.837005    0.4185025 
   30000   -5454.6572    1289.2653   -6743.9226    1383.6837    21875.483   -30446.254    309.16498    76.696731    1.0117008        0.985    -0.834886     0.417443 
   35000   -5460.3689    1262.5044   -6722.8733    1424.7799    21854.486   -30444.887    302.74772    469.28759   0.99223648       0.9825    -0.832767    0.4163835 
   40000   -5617.7692    1259.5855   -6877.3547    1466.8238    21653.475   -30448.558    302.04777    518.56945    1.0149626         0.98    -0.830648     0.415324 
   45000   -5498.7892    1260.7599   -6759.5491    1354.8241    21911.823   -30445.433    302.32939    36.724958    1.0199193       0.9775    -0.828529    0.4142645 
   50000   -5556.2521    1276.3605   -6832.6126    1408.5453    21757.203    -30447.43     306.0704    38.976819     1.012915        0.975     -0.82641     0.413205 
   55000   -5513.8511    1239.4864   -6753.3375    1378.8961    21910.688   -30446.837    297.22802   -155.09229   0.99684598       0.9725    -0.824291    0.4121455 
   60000     -5482.86    1287.2484   -6770.1084    1383.4644     21876.85   -30446.035    308.68131   -23.984269     1.002056         0.97    -0.822172     0.411086 
   65000   -5556.4674    1243.4649   -6799.9323    1374.1364    21841.845   -30449.652    298.18207     13.80546    1.0185986       0.9675    -0.820053    0.4100265 
   70000   -5509.3689    1255.8787   -6765.2476    1342.6439    21905.378   -30448.437    301.15889   -636.57169    1.0013923        0.965    -0.817934     0.408967 
   75000   -5599.5463    1235.6343   -6835.1807    1391.5344    21779.525   -30444.409     296.3043   -272.25195    1.0096277       0.9625    -0.815815    0.4079075 
   80000   -5505.7102    1228.1399   -6733.8502    1402.1931    21862.826   -30444.663    294.50714    287.56695     1.007265         0.96    -0.813696     0.406848 
   85000   -5615.9836    1228.8806   -6844.8643    1412.2136    21728.301   -30447.357    294.68477    88.808898    1.0201101       0.9575    -0.811577    0.4057885 
   90000   -5445.8525    1286.0493   -6731.9017    1365.0964    21944.508   -30446.123    308.39376    -159.5813   0.99818678        0.955    -0.809458     0.404729 
   95000   -5555.6599    1255.1923   -6810.8522    1487.4112    21697.426   -30446.382    300.99428    1056.7026    1.0047794       0.9525    -0.807339    0.4036695 
  100000   -5423.2205    1299.4514   -6722.6719    1340.3931    21969.252    -30445.58    311.60759   -104.22862    1.0205672         0.95     -0.80522      0.40261 
  105000   -5510.0668    1219.7044   -6729.7712    1422.1714    21857.811   -30444.935    292.48431    965.21304    1.0267571       0.9475    -0.803101    0.4015505 
  110000   -5487.6062    1264.3775   -6751.9838    1383.7805    21872.105   -30438.176    303.19689    5.0812841    1.0038721        0.945    -0.800982     0.400491 
  115000   -5584.4825    1223.5314   -6808.0139     1305.413    21904.363   -30442.927    293.40202   -578.05444    1.0328242       0.9425    -0.798863    0.3994315 
  120000   -5523.0074    1287.4784   -6810.4858    1458.6493    21678.215    -30441.67    308.73646    671.54744    1.0055922         0.94    -0.796744     0.398372 
  125000   -5523.9631    1261.6061   -6785.5692    1451.4065    21774.541   -30440.463     302.5323    943.71106     1.023251       0.9375    -0.794625    0.3973125 
  130000   -5480.6587    1228.3138   -6708.9725    1318.5357     22013.43   -30444.357    294.54883   -484.16808    1.0024483        0.935    -0.792506     0.396253 
  135000   -5515.4922      1236.63   -6752.1222    1405.2286    21838.239   -30444.636    296.54306   -33.044871   0.99099073       0.9325    -0.790387    0.3951935 
  140000   -5636.9585    1190.5857   -6827.5442    1401.0211    21837.041   -30443.664    285.50167   -131.26918    1.0073498         0.93    -0.788268     0.394134 
  145000   -5520.4299    1242.8162    -6763.246    1425.5354    21801.806    -30441.82    298.02649    375.70839    1.0055963       0.9275    -0.786149    0.3930745 
  150000   -5466.2108    1221.5587   -6687.7695     1315.243    22002.492   -30445.561    292.92898   -458.87734    1.0111682        0.925     -0.78403     0.392015 
  155000    -5461.822    1239.1272   -6700.9492    1371.2953    21931.804   -30440.608    297.14189    404.63471      1.02125       0.9225    -0.781911    0.3909555 
  160000   -5581.5531    1235.5332   -6817.0862      1387.24    21799.458   -30439.508    296.28004   -313.78406     1.005984         0.92    -0.779792     0.389896 
  165000   -5518.8078    1273.6502   -6792.4581    1375.9673     21862.55   -30442.152    305.42049   -35.844433    1.0122448       0.9175    -0.777673    0.3888365 
  170000   -5515.2831    1285.6763   -6800.9594    1404.6207    21813.634   -30442.455    308.30433   -58.986086     1.010512        0.915    -0.775554     0.387777 
  175000   -5547.8632    1237.0346   -6784.8979     1371.988    21866.075   -30441.096    296.64009    8.7538748    1.0204871       0.9125    -0.773435    0.3867175 
  180000   -5550.9154    1284.8683   -6835.7837    1386.3915    21803.513   -30444.858    308.11056    107.40069    1.0274352         0.91    -0.771316     0.385658 
  185000   -5536.9233    1270.2304   -6807.1538    1398.1504    21809.601   -30443.002    304.60042   -174.16652   0.99755738       0.9075    -0.769197    0.3845985 
  190000   -5518.9253    1280.5079   -6799.4332    1373.9909    21862.478   -30442.723    307.06496    9.6282943    1.0156746        0.905    -0.767078     0.383539 
  195000   -5574.7502     1214.359   -6789.1092    1411.3746    21807.743   -30442.797    291.20249    459.43071    1.0173851       0.9025    -0.764959    0.3824795 
  200000   -5586.1746    1230.4227   -6816.5973    1532.8087    21640.232   -30440.345    295.05456    1663.9344    1.0127589          0.9     -0.76284      0.38142 
  205000    -5530.762    1262.3017   -6793.0637    1421.2001    21765.141   -30437.136    302.69912      362.504    1.0112973       0.8975    -0.760721    0.3803605 
  210000    -5482.179    1264.6727   -6746.8517    1332.5039    21878.405   -30436.424    303.26767   -518.59319    1.0144674        0.895    -0.758602     0.379301 
  215000   -5548.4664    1254.2078   -6802.6742      1439.71    21751.539   -30437.604     300.7582    936.14316    1.0295052       0.8925    -0.756483    0.3782415 
  220000   -5566.4852    1224.3179   -6790.8031     1366.173    21833.016   -30437.139    293.59062   -368.10245    1.0080289         0.89    -0.754364     0.377182 
  225000   -5607.3792    1195.1042   -6802.4834    1434.8209    21716.922    -30436.88    286.58521    313.99343    1.0126994       0.8875    -0.752245    0.3761225 
  230000   -5685.3593    1214.5576   -6899.9169    1452.8971    21628.537   -30433.937     291.2501    -34.04353    1.0037164        0.885    -0.750126     0.375063 
  235000   -5458.1208    1277.1379   -6735.2588    1388.7878    21861.855   -30438.247    306.25684    26.373018    1.0027032       0.8825    -0.748007    0.3740035 
  240000   -5471.8252    1281.8041   -6753.6293    1442.5812     21792.96   -30437.921    307.37578    706.48275    1.0008045         0.88    -0.745888     0.372944 
  245000   -5459.3621    1258.1055   -6717.4676    1394.4965    21879.415   -30435.773    301.69286    446.21806    1.0155238       0.8775    -0.743769    0.3718845 
  250000   -5614.6519    1198.1053   -6812.7572    1397.7454    21767.081   -30436.857    287.30486    146.62072    1.0273533        0.875     -0.74165     0.370825 
  255000   -5573.1837    1250.4489   -6823.6325    1354.8074     21829.39   -30434.368    299.85681   -608.07208    1.0009113       0.8725    -0.739531    0.3697655 
  260000    -5630.451    1202.8398   -6833.2907     1380.657    21778.541   -30440.821    288.44019   -195.24451     1.019413         0.87    -0.737412     0.368706 
  265000   -5533.5948    1273.5591   -6807.1539    1419.8611    21794.887   -30438.706    305.39863    339.13963    1.0138164       0.8675    -0.735293    0.3676465 
  270000    -5640.803    1204.5526   -6845.3556    1495.5078    21652.609   -30438.707    288.85092    1463.7932    1.0356466        0.865    -0.733174     0.366587 
  275000   -5514.7021    1283.4057   -6798.1078    1340.6427    21864.301   -30436.815    307.75984   -449.32236    1.0128657       0.8625    -0.731055    0.3655275 
  280000   -5610.2442    1259.5217   -6869.7659    1411.1009    21686.723   -30440.226    302.03248   -123.59673    1.0128803         0.86    -0.728936     0.364468 
  285000   -5550.4897    1281.3066   -6831.7963    1373.2421    21810.977   -30438.399    307.25647   -248.99043    1.0185983       0.8575    -0.726817    0.3634085 
  290000   -5553.4882    1240.2591   -6793.7473    1391.9459    21802.734    -30437.51     297.4133   -158.86961    1.0031364        0.855    -0.724698     0.362349 
  295000   -5524.2791    1255.0193   -6779.2984    1449.4799     21776.57   -30434.687    300.95281     952.9175    1.0131377       0.8525    -0.722579    0.3612895 
  300000   -5476.0212    1284.8796   -6760.9008    1324.2729     21929.73   -30436.686    308.11327    -465.3353    1.0043923         0.85     -0.72046      0.36023 
  305000   -5438.0362    1298.3446   -6736.3809    1407.4391    21826.292   -30430.432    311.34219    517.43655    1.0077139       0.8475    -0.718341    0.3591705 
  310000   -5535.7453    1264.3612   -6800.1065    1343.2269     21832.58   -30432.621    303.19298   -745.84969    1.0074616        0.845    -0.716222     0.358111 
  315000   -5502.0889     1225.373   -6727.4619    1408.6878    21868.726    -30430.42    293.84363    391.97607    1.0057154       0.8425    -0.714103    0.3570515 
  320000   -5551.1885    1247.6582   -6798.8467    1441.5698    21745.518   -30434.212    299.18761    602.66464    1.0106275         0.84    -0.711984     0.355992 
  325000   -5472.7566    1268.0116   -6740.7682    1396.6033     21874.12   -30434.532    304.06836    68.811265    0.9970358       0.8375    -0.709865    0.3549325 
  330000   -5572.2981    1246.5687   -6818.8668    1407.6183    21773.909   -30431.719    298.92634    224.12439    1.0246504        0.835    -0.707746     0.353873 
  335000   -5499.3422    1205.6434   -6704.9856    1285.2624    21998.798   -30434.913    289.11249   -817.85014    1.0147781       0.8325    -0.705627    0.3528135 
  340000   -5562.2169    1219.1939   -6781.4108    1417.0604    21795.894   -30433.607    292.36189    174.41821    1.0058188         0.83    -0.703508     0.351754 
  345000   -5520.3776    1219.9601   -6740.3377    1367.4757    21877.315   -30431.491    292.54563   -222.24612    1.0043509       0.8275    -0.701389    0.3506945 
  350000   -5552.9644    1291.4697   -6844.4341    1376.2399    21787.524   -30434.036    309.69358   -160.81114    1.0193989        0.825     -0.69927     0.349635 
  355000   -5592.6369    1199.1021    -6791.739    1447.0154    21758.057   -30432.531    287.54389    514.62059    1.0124065       0.8225    -0.697151    0.3485755 
  360000   -5529.6905    1251.9083   -6781.5988    1413.2964    21787.146   -30433.685    300.20679    176.70328    1.0073792         0.82    -0.695032     0.347516 
  365000   -5555.2054    1274.6375   -6829.8429    1394.8131    21789.095   -30432.379    305.65724   -24.957537    1.0152213       0.8175    -0.692913    0.3464565 
  370000   -5549.5587    1233.5667   -6783.1253    1413.7135    21800.689   -30434.305    295.80847    536.16714    1.0185709        0.815    -0.690794     0.345397 
  375000   -5600.3525    1246.9961   -6847.3486    1429.7166    21731.282   -30431.632    299.02885    153.53182    1.0080114       0.8125    -0.688675    0.3443375 
  380000   -5546.5526    1248.9012   -6795.4538    1492.7679    21715.426   -30433.665    299.48569    1426.4389    1.0177045         0.81    -0.686556     0.343278 
  385000    -5526.007     1233.736   -6759.7429    1424.1481    21831.876    -30433.42    295.84907     794.1626    1.0185785       0.8075    -0.684437    0.3422185 
  390000   -5596.7029     1243.227   -6839.9299    1421.1174    21693.364   -30433.154    298.12502    108.87841    1.0093018        0.805    -0.682318     0.341159 
  395000   -5546.0663    1265.2707    -6811.337    1447.5582    21710.518    -30434.09    303.41109    435.10835    1.0032239       0.8025    -0.680199    0.3400995 
  400000   -5512.3512    1228.2014   -6740.5526     1323.056    21887.642   -30435.079    294.52189   -597.96971    1.0128567          0.8     -0.67808      0.33904 
  405000   -5452.0555    1256.5329   -6708.5884    1343.4033    21932.615   -30422.632    301.31577   -151.04994    1.0109662       0.7975    -0.675961    0.3379805 
  410000   -5564.1544    1254.1139   -6818.2683    1392.8911    21749.311   -30425.522    300.73568   -588.71236   0.99221624        0.795    -0.673842     0.336921 
  415000   -5492.9731    1270.5302   -6763.5033    1406.1534    21801.397   -30431.784     304.6723    283.61097    1.0125944       0.7925    -0.671723    0.3358615 
  420000   -5595.3267    1203.6829   -6799.0097    1342.6073    21860.776   -30429.796    288.64237    -326.4097    1.0197083         0.79    -0.669604     0.334802 
  425000    -5526.916    1270.6811   -6797.5971    1386.3023    21838.644   -30429.504    304.70849    59.964397    1.0107947       0.7875    -0.667485    0.3337425 
  430000   -5463.4519    1253.2065   -6716.6584    1368.6563    21900.489   -30429.468    300.51809    163.25845    1.0046663        0.785    -0.665366     0.332683 
  435000   -5587.8678    1212.7905   -6800.6583     1357.107    21806.156   -30427.795    290.82636   -669.59026    1.0055054       0.7825    -0.663247    0.3316235 
  440000   -5579.1616    1230.2594    -6809.421    1367.4502    21836.582   -30425.594    295.01539   -322.05693    1.0101379         0.78    -0.661128     0.330564 
  445000    -5532.555    1201.8734   -6734.4284    1386.7876    21878.725   -30427.156    288.20845   -45.792864    1.0052685       0.7775    -0.659009    0.3295045 
  450000   -5569.8426    1278.6957   -6848.5383    1414.4583    21749.442   -30430.096    306.63038    236.64985    1.0219043        0.775     -0.65689     0.328445 
  455000   -5449.1927    1264.9233    -6714.116    1326.8274    21933.446    -30429.11    303.32777   -442.03731   0.99413577       0.7725    -0.654771    0.3273855 
  460000   -5554.4541    1270.3142   -6824.7683    1333.1464    21840.149   -30429.094     304.6205    -747.1109    1.0160003         0.77    -0.652652     0.326326 
  465000   -5528.8036    1284.1598   -6812.9634    1380.0206     21775.39   -30428.738    307.94068   -20.995822    1.0245304       0.7675    -0.650533    0.3252665 
  470000   -5512.8124    1236.1415   -6748.9539    1406.7843    21790.482   -30429.605    296.42591    302.60013    1.0139043        0.765    -0.648414     0.324207 
  475000   -5498.2571    1273.8167   -6772.0739    1435.6038    21790.464     -30429.5    305.46041    483.68473    1.0001103       0.7625    -0.646295    0.3231475 
  480000   -5559.1482    1225.6395   -6784.7878    1384.7454    21844.676   -30428.007    293.90755     30.99406    1.0121504         0.76    -0.644176     0.322088 
  485000   -5496.7804    1282.5658   -6779.3462    1415.6133    21800.486   -30429.421    307.55843    530.11667    1.0187969       0.7575    -0.642057    0.3210285 
  490000    -5537.517    1233.6775   -6771.1945     1371.616    21849.424   -30427.207    295.83505   -358.41182   0.99575692        0.755    -0.639938     0.319969 
  495000   -5554.5243    1212.6181   -6767.1424    1404.0842    21816.065   -30425.237    290.78503    209.62449    1.0112618       0.7525    -0.637819    0.3189095 
  500000   -5622.7664    1199.6165   -6822.3829    1327.3169    21871.075   -30428.955    287.66724   -1311.6743   0.99857938         0.75      -0.6357      0.31785 
  505000   -5480.3266    1256.8007   -6737.1273    1299.6547    21957.857   -30425.971    301.37997   -899.16025    1.0089969       0.7475    -0.633581    0.3167905 
  510000   -5498.9495    1225.5254   -6724.4749    1348.4413    21919.082   -30425.115    293.88018   -394.00866     1.006416        0.745    -0.631462     0.315731 
  515000   -5551.2688    1235.3365   -6786.6053     1382.192    21812.545   -30425.295    296.23288   -234.82847     1.000347       0.7425    -0.629343    0.3146715 
  520000   -5580.0926    1192.4884    -6772.581     1455.062    21751.768   -30422.995    285.95793    899.21376    1.0184475         0.74    -0.627224     0.313612 
  525000   -5536.1025    1254.7959   -6790.8984    1402.6731    21772.842   -30423.645    300.89923   -179.78368    1.0012739       0.7375    -0.625105    0.3125525 
  530000   -5475.5649     1274.227   -6749.7919     1422.191    21806.648   -30423.468     305.5588    412.66908    1.0021064        0.735    -0.622986     0.311493 
  535000   -5535.7717    1220.4498   -6756.2215    1277.0625    21937.566   -30422.661    292.66305   -1373.8334    1.0012496       0.7325    -0.620867    0.3104335 
  540000   -5559.6489    1229.0591    -6788.708     1373.477    21802.469   -30424.781    294.72757   -356.60453    1.0077789         0.73    -0.618748     0.309374 
  545000   -5550.6131    1217.3371   -6767.9502    1356.1731    21855.265   -30426.343    291.91664   -410.40203    1.0164552       0.7275    -0.616629    0.3083145 
  550000   -5552.1925    1225.9662   -6778.1588    1407.9503    21859.108   -30426.047    293.98589    371.95292    1.0041485        0.725     -0.61451     0.307255 
  555000   -5474.3141    1269.9785   -6744.2926    1380.6756    21869.918   -30423.625    304.54001    479.97718    1.0348696       0.7225    -0.612391    0.3061955 
  560000   -5529.7258    1228.0526   -6757.7784    1371.1262    21873.308   -30423.612     294.4862    10.021913    1.0178349         0.72    -0.610272     0.305136 
  565000   -5578.7184    1238.3238   -6817.0421    1364.6801     21831.12   -30424.526    296.94922   -210.96144    1.0145779       0.7175    -0.608153    0.3040765 
  570000   -5590.3739    1178.8219   -6769.1958     1342.169    21850.785   -30426.607    282.68072   -726.65935    1.0040162        0.715    -0.606034     0.303017 
  575000   -5538.2977     1301.251   -6839.5488    1351.7057    21811.514    -30423.38    312.03914   -697.06828    1.0043954       0.7125    -0.603915    0.3019575 
  580000   -5489.5408     1264.601   -6754.1418    1361.3606    21879.773   -30427.021    303.25049    0.8028479    1.0182595         0.71    -0.601796     0.300898 
  585000   -5564.4144    1237.0831   -6801.4975    1372.1667    21823.237   -30425.788     296.6517   -219.05406   0.99937042       0.7075    -0.599677    0.2998385 
  590000   -5642.7568    1231.4142    -6874.171    1428.0404    21658.491   -30425.167    295.29231    186.19832    1.0221448        0.705    -0.597558     0.298779 
  595000   -5623.2882    1246.7224   -6870.0106    1396.3321    21739.583   -30424.594    298.96321   -90.586397    1.0254105       0.7025    -0.595439    0.2977195 
  600000   -5543.5677    1248.7682   -6792.3359    1346.9267    21827.244   -30425.377    299.45379   -291.40394    1.0195264          0.7     -0.59332      0.29666 
  605000   -5474.4972    1249.0604   -6723.5576    1386.9424    21886.849   -30420.093    299.52387    320.72375    1.0078262       0.6975    -0.591201    0.2956005 
  610000   -5444.4392     1268.064   -6712.5032    1336.2434    21909.556   -30420.625    304.08091   -498.11374     1.003753        0.695    -0.589082     0.294541 
  615000   -5576.1847    1305.9815   -6882.1662    1436.2497    21635.143   -30423.656     313.1735    278.60539    1.0176729       0.6925    -0.586963    0.2934815 
  620000   -5527.0897    1239.3078   -6766.3976    1371.3853    21850.583   -30424.469     297.1852   -80.897508     1.007611         0.69    -0.584844     0.292422 
  625000   -5552.9285    1232.0128   -6784.9412    1359.8043    21819.102   -30422.799    295.43585   -417.82041    1.0072509       0.6875    -0.582725    0.2913625 
  630000   -5532.1703    1252.0392   -6784.2094    1416.1466    21807.096   -30422.422    300.23817     369.4296    1.0039576        0.685    -0.580606     0.290303 
  635000   -5571.3255    1249.4908   -6820.8163    1369.6703    21808.738   -30421.932    299.62706   -297.44918    1.0196309       0.6825    -0.578487    0.2892435 
  640000   -5525.2478    1199.2506   -6724.4984    1369.7668    21894.477   -30421.099     287.5795   -72.546596    1.0007716         0.68    -0.576368     0.288184 
  645000   -5542.8568    1255.2316   -6798.0884    1331.6921    21842.315   -30419.358     301.0037    -814.5638    1.0097587       0.6775    -0.574249    0.2871245 
  650000   -5516.7418    1289.6956   -6806.4374    1400.2031     21783.51   -30421.477    309.26815    246.24345    1.0195846        0.675     -0.57213     0.286065 
  655000   -5524.8554    1265.5421   -6790.3975    1416.5196    21786.917   -30421.834    303.47617    529.12757     1.021072       0.6725    -0.570011    0.2850055 
  660000   -5460.2238    1295.8973   -6756.1212    1381.0945    21874.034   -30423.779    310.75533    569.85093    1.0270172         0.67    -0.567892     0.283946 
  665000   -5466.9896    1224.4909   -6691.4805    1377.5505    21903.453   -30415.905    293.63212    415.21587    1.0210181       0.6675    -0.565773    0.2828865 
  670000   -5508.3465    1292.0903   -6800.4368    1402.8444    21826.305   -30419.345     309.8424    362.60575    1.0200837        0.665    -0.563654     0.281827 
  675000   -5529.9825    1270.4695    -6800.452     1392.861    21763.662   -30422.666    304.65774    16.761021    1.0167408       0.6625    -0.561535    0.2807675 
  680000   -5589.5488    1256.7076   -6846.2564    1389.8603    21765.396   -30421.726    301.35765   -118.83353    1.0212456         0.66    -0.559416     0.279708 
  685000   -5461.9707    1282.6044   -6744.5751    1346.0454    21890.857   -30417.827    307.56769   -213.07775    1.0049252       0.6575    -0.557297    0.2786485 
  690000   -5591.4518    1229.1635   -6820.6153    1420.1767    21731.473   -30421.278    294.75259    194.31079    1.0204392        0.655    -0.555178     0.277589 
  695000    -5558.442    1216.2827   -6774.7247    1334.5019    21858.035   -30423.287    291.66379   -603.48558    1.0061448       0.6525    -0.553059    0.2765295 
  700000    -5492.653    1235.4799   -6728.1329    1391.2365     21871.21   -30420.123    296.26726   -41.586711   0.99217704         0.65     -0.55094      0.27547 
  705000   -5481.7595    1269.4684   -6751.2279    1323.5824    21897.228   -30413.262     304.4177   -459.11823    1.0141534       0.6475    -0.548821    0.2744105 
  710000   -5599.7613    1259.4323   -6859.1936    1383.1749    21741.135    -30418.84    302.01104   -358.23129    1.0156425        0.645    -0.546702     0.273351 
  715000   -5532.5713    1228.4966   -6761.0679    1396.4462    21859.914    -30416.53    294.59266    101.27196    1.0038296       0.6425    -0.544583    0.2722915 
  720000   -5584.0626    1229.4865    -6813.549    1388.5647    21769.406   -30418.339    294.83004   -792.67304   0.97380809         0.64    -0.542464     0.271232 
  725000   -5534.3566    1268.5686   -6802.9252    1423.0724    21758.618   -30416.045    304.20193    890.82213    1.0379062       0.6375    -0.540345    0.2701725 
  730000   -5578.7464    1212.5455   -6791.2919    1336.9104    21848.801   -30419.787    290.76761   -553.70126    1.0148611        0.635    -0.538226     0.269113 
  735000   -5618.1113    1206.2457    -6824.357    1375.0888     21801.81   -30417.694    289.25693   -427.22774   0.99982113       0.6325    -0.536107    0.2680535 
  740000   -5465.2032    1230.0118    -6695.215    1379.8548    21895.413   -30416.747    294.95602    315.63989     1.008153         0.63    -0.533988     0.266994 
  745000   -5578.5259     1240.851   -6819.3769    1426.7154     21759.96   -30418.763    297.55525    92.359506   0.99991361       0.6275    -0.531869    0.2659345 
  750000   -5534.8877    1256.4642   -6791.3518    1421.6831    21739.034   -30413.197    301.29928    158.88605    1.0081156        0.625     -0.52975     0.264875 
  755000   -5592.2413    1257.2462   -6849.4875    1366.9032    21783.562    -30418.46    301.48681   -581.61417    1.0056237       0.6225    -0.527631    0.2638155 
  760000   -5588.4063    1228.2425   -6816.6488    1410.3305    21756.183   -30416.341    294.53174    176.20865     1.011915         0.62    -0.525512     0.262756 
  765000    -5474.386    1218.7547   -6693.1407      1352.12    21939.502   -30416.343    292.25658    -320.6219   0.99100601       0.6175    -0.523393    0.2616965 
  770000    -5599.397    1242.7375   -6842.1345     1434.302     21734.26    -30418.21    298.00763    586.02998    1.0211757        0.615    -0.521274     0.260637 
  775000   -5508.8091    1258.5638   -6767.3729    1400.6493    21823.313   -30417.849    301.80278    178.09524   0.99995792       0.6125    -0.519155    0.2595775 
  780000   -5455.2192     1320.084   -6775.3032    1366.0858    21855.521   -30419.279    316.55527     160.2504    1.0264157         0.61    -0.517036     0.258518 
  785000   -5541.1905    1242.1565    -6783.347    1363.1625    21827.702   -30417.255    297.86832    -394.6575    1.0087294       0.6075    -0.514917    0.2574585 
  790000   -5569.3567    1256.7441   -6826.1008    1410.0504    21767.374   -30420.811    301.36641   -96.271799   0.99839497        0.605    -0.512798     0.256399 
  795000    -5537.502    1288.0636   -6825.5656    1435.9958    21711.599   -30417.456     308.8768    221.61169    1.0095005       0.6025    -0.510679    0.2553395 
  800000   -5560.8018    1240.0106   -6800.8124    1438.3265    21719.004   -30418.763    297.35373    775.89511    1.0301028          0.6     -0.50856      0.25428 
  805000   -5565.4599    1257.3617   -6822.8216    1394.5641    21770.009   -30412.251     301.5145   -173.96353     1.005747       0.5975    -0.506441    0.2532205 
  810000   -5497.4553    1284.5004   -6781.9556    1376.4375    21814.087   -30416.038    308.02234    188.25994    1.0214966        0.595    -0.504322     0.252161 
  815000   -5535.8991     1240.611   -6776.5101    1409.3101    21787.935   -30417.071     297.4977    262.65044    1.0117069       0.5925    -0.502203    0.2511015 
  820000   -5517.0729     1299.475   -6816.5479    1327.7472    21854.691   -30412.417    311.61325    -784.1981    1.0122843         0.59    -0.500084     0.250042 
  825000   -5632.9653    1192.4397    -6825.405    1360.7386     21778.67   -30413.486    285.94624   -388.42674    1.0232857       0.5875    -0.497965    0.2489825 
  830000    -5574.662    1257.8343   -6832.4962    1407.1117    21747.991   -30412.959    301.62783   -178.94106    1.0050031        0.585    -0.495846     0.247923 
  835000   -5517.9029    1249.5464   -6767.4493    1434.0858     21785.24   -30413.924    299.64041    516.05215    1.0102407       0.5825    -0.493727    0.2468635 
  840000   -5485.6365    1270.3474   -6755.9839    1335.1605    21840.353   -30411.626    304.62848   -421.00228    1.0133415         0.58    -0.491608     0.245804 
  845000   -5435.7784    1276.5836    -6712.362    1385.5475    21848.907   -30414.112    306.12391    556.14871    1.0239928       0.5775    -0.489489    0.2447445 
  850000   -5564.9093    1250.3893   -6815.2987    1376.9527     21812.84   -30414.994    299.84254   -103.38162    1.0245668        0.575     -0.48737     0.243685 
  855000   -5452.5901    1262.6663   -6715.2564    1378.7612    21881.921   -30415.305    302.78654     34.86207   0.99556351       0.5725    -0.485251    0.2426255 
  860000    -5515.222    1248.0439   -6763.2659    1305.4039    21931.869   -30415.835    299.28011   -908.54473    1.0020125         0.57    -0.483132     0.241566 
  865000    -5460.554    1245.0116   -6705.5656    1376.9247    21872.285   -30415.226    298.55297   -233.80476   0.98431622       0.5675    -0.481013    0.2405065 
  870000   -5476.9636    1272.0524    -6749.016    1362.2558    21845.497   -30416.364    305.03732   -99.216354    1.0114633        0.565    -0.478894     0.239447 
  875000   -5507.2163    1297.9312   -6805.1475    1404.1772    21725.275   -30415.229    311.24305   -162.72463    1.0065653       0.5625    -0.476775    0.2383875 
  880000    -5618.916    1185.2711   -6804.1871    1427.7925    21743.213   -30415.522    284.22724    324.75619    1.0135333         0.56    -0.474656     0.237328 
  885000   -5525.3698    1218.8864   -6744.2562    1360.4312    21880.194   -30413.898    292.28816   -244.38329    1.0135275       0.5575    -0.472537    0.2362685 
  890000   -5505.6369    1238.1666   -6743.8034    1412.5727    21840.193   -30413.202    296.91152    485.94408    1.0063342        0.555    -0.470418     0.235209 
  895000   -5602.1542    1221.0463   -6823.2005    1454.4394     21713.82   -30416.858     292.8061    268.08086   0.99556757       0.5525    -0.468299    0.2341495 
  900000   -5603.8654    1303.5628   -6907.4282    1499.2346    21573.659   -30417.214    312.59349    905.77809    1.0203813         0.55     -0.46618      0.23309 
  905000   -5561.5364    1235.1607    -6796.697    1317.7926    21863.665   -30411.262    296.19071   -899.61575    1.0112152       0.5475    -0.464061    0.2320305 
  910000   -5498.8354    1208.5542   -6707.3895    1394.7617    21874.374   -30410.334    289.81049    474.25045    1.0127648        0.545    -0.461942     0.230971 
  915000   -5592.5796     1194.943   -6787.5226    1393.8431    21788.893   -30415.252    286.54655    127.92132    1.0188573       0.5425    -0.459823    0.2299115 
  920000   -5496.6202    1245.2081   -6741.8283    1351.0512    21874.145   -30404.465    298.60007    2.9909425    1.0206197         0.54    -0.457704     0.228852 
  925000   -5491.3049    1264.9518   -6756.2567    1431.8079    21770.193   -30410.054     303.3346    495.87301    1.0083522       0.5375    -0.455585    0.2277925 
  930000   -5487.3571    1267.2843   -6754.6414    1386.5736    21833.656   -30414.507    303.89394    15.771272    1.0000236        0.535    -0.453466     0.226733 
  935000   -5476.9897    1259.4651   -6736.4548    1407.6301    21830.961    -30406.59     302.0189    581.34887    1.0155958       0.5325    -0.451347    0.2256735 
  940000   -5488.9916    1314.4567   -6803.4483    1466.6629    21737.432   -30413.446    315.20584    1238.1624    1.0288595         0.53    -0.449228     0.224614 
  945000   -5550.7311    1300.1216   -6850.8527    1412.3482    21723.824   -30411.146    311.76831   -169.42496    1.0064279       0.5275    -0.447109    0.2235545 
  950000   -5606.1286    1246.8667   -6852.9952    1472.7784    21676.262   -30413.203     298.9978    518.15276    1.0015579        0.525     -0.44499     0.222495 
  955000   -5539.4856    1253.2903   -6792.7759    1415.4535    21747.222   -30412.732    300.53818    480.02479    1.0216323       0.5225    -0.442871    0.2214355 
  960000   -5535.7958    1215.1899   -6750.9857    1431.2781    21814.097   -30411.881    291.40173    608.69976    1.0136976         0.52    -0.440752     0.220376 
  965000    -5576.559    1234.6144   -6811.1734     1514.023    21649.351   -30410.737    296.05972     1520.794    1.0106841       0.5175    -0.438633    0.2193165 
  970000   -5519.6002    1277.0163   -6796.6165    1466.0566    21699.821   -30415.026    306.22766    510.68622   0.98687386        0.515    -0.436514     0.218257 
  975000   -5591.0137     1254.588   -6845.6017    1429.5069    21702.359   -30411.235    300.84939    297.03602    1.0251394       0.5125    -0.434395    0.2171975 
  980000   -5540.9566    1234.8073   -6775.7639    1338.2556     21868.37   -30412.541    296.10597   -289.71499    1.0212154         0.51    -0.432276     0.216138 
  985000   -5511.5459    1300.1097   -6811.6556    1334.8282    21875.173   -30411.512    311.76544   -693.16807    1.0141634       0.5075    -0.430157    0.2150785 
  990000   -5516.8247    1251.5481   -6768.3728    1358.6891    21823.881   -30410.037     300.1204    -279.3824     1.005663        0.505    -0.428038     0.214019 
  995000   -5524.3561    1215.9313   -6740.2874     1390.687    21855.683    -30411.04    291.57953   -53.642919   0.99690457       0.5025    -0.425919    0.2129595 
 1000000   -5562.5466     1221.827   -6784.3736    1297.5519    21915.287   -30414.226    292.99331   -874.65244    1.0214982          0.5      -0.4238       0.2119 
 1005000   -5542.8861    1229.0938   -6771.9799    1429.8443    21760.776   -30409.275    294.73589    294.86058   0.99993056       0.4975    -0.421681    0.2108405 
 1010000   -5448.4956    1256.3749   -6704.8706    1306.8444    21971.623   -30407.793    301.27788   -942.92568   0.99248512        0.495    -0.419562     0.209781 
 1015000   -5485.7411    1220.3873   -6706.1284    1245.6819    22024.308   -30407.597    292.64806    -1773.327   0.98578512       0.4925    -0.417443    0.2087215 
 1020000   -5502.2773    1265.1614   -6767.4388    1300.0129    21841.931   -30407.973    303.38487    -1114.324    1.0096025         0.49    -0.415324     0.207662 
 1025000   -5494.1313    1283.1074   -6777.2387    1385.6888    21791.255   -30409.205     307.6883    338.12878    1.0286322       0.4875    -0.413205    0.2066025 
 1030000   -5489.9259    1292.1724   -6782.0983    1417.8757     21798.83   -30411.578    309.86209    146.08806   0.99796155        0.485    -0.411086     0.205543 
 1035000   -5580.7036    1227.9308   -6808.6343    1399.7311    21795.838   -30405.508    294.45698     245.3411    1.0203353       0.4825    -0.408967    0.2044835 
 1040000   -5614.6078    1226.5654   -6841.1731    1447.8292     21673.75    -30407.74    294.12956    291.24488     1.012026         0.48    -0.406848     0.203424 
 1045000   -5535.8226    1284.8577   -6820.6803    1375.0415    21807.843   -30408.339    308.10803   -154.07664    1.0167214       0.4775    -0.404729    0.2023645 
 1050000   -5534.4123     1250.095   -6784.5074    1287.9566    21899.002   -30411.016    299.77196   -1161.4357    1.0099009        0.475     -0.40261     0.201305 
 1055000   -5509.4752    1264.9106   -6774.3858    1424.5808    21771.718   -30409.977    303.32473    730.35249    1.0166966       0.4725    -0.400491    0.2002455 
 1060000   -5551.4539     1255.686   -6807.1399    1431.3525    21716.649   -30408.994    301.11268    339.03445    1.0030856         0.47    -0.398372     0.199186 
 1065000   -5539.4142    1262.7344   -6802.1485    1334.5366    21827.192   -30412.447    302.80287   -814.37495    1.0065153       0.4675    -0.396253    0.1981265 
 1070000   -5556.1691    1278.0638   -6834.2329    1448.2492    21710.563   -30409.035    306.47886    526.92483    1.0118442        0.465    -0.394134     0.197067 
 1075000   -5553.9187    1230.9623    -6784.881    1372.5373    21816.292   -30409.602    295.18396     -636.049   0.99842907       0.4625    -0.392015    0.1960075 
 1080000   -5486.3143     1233.146   -6719.4602    1265.7838    21983.124   -30408.372    295.70759   -1226.6108    1.0051532         0.46    -0.389896     0.194948 
 1085000   -5593.4276    1252.6224   -6846.0499    1398.5687    21750.307    -30408.85    300.37801   -199.06834    1.0113585       0.4575    -0.387777    0.1938885 
 1090000   -5615.0746    1189.5983   -6804.6728     1411.201    21758.699   -30408.722    285.26488    205.20475    1.0115124        0.455    -0.385658     0.192829 
 1095000   -5491.0496    1265.9512   -6757.0008    1285.0166    21903.564   -30410.304    303.57426    -1204.071    1.0039435       0.4525    -0.383539    0.1917695 
 1100000   -5602.5736    1259.8652   -6862.4388    1429.2182    21709.793   -30410.235    302.11484    -5.292079    1.0081307         0.45     -0.38142      0.19071 
 1105000   -5491.1776    1274.3708   -6765.5484    1363.4219    21817.395   -30405.818    305.59328   -273.46222    1.0048241       0.4475    -0.379301    0.1896505 
 1110000   -5591.6046    1226.4913    -6818.096    1386.3645    21774.994   -30407.268    294.11181   -54.656076    1.0128633        0.445    -0.377182     0.188591 
 1115000   -5471.7003    1250.9094   -6722.6097    1461.8829    21768.591    -30406.09    299.96726    1171.0124    1.0122551       0.4425    -0.375063    0.1875315 
 1120000   -5629.5757    1215.4906   -6845.0663    1433.0141    21685.611   -30403.695    291.47385     159.7385     1.011959         0.44    -0.372944     0.186472 
 1125000   -5609.7131    1243.3529    -6853.066    1394.1435    21715.512   -30408.244    298.15521   -613.37653     1.001762       0.4375    -0.370825    0.1854125 
 1130000   -5517.8437    1236.2289   -6754.0726    1381.5497    21865.453   -30407.635    296.44686   -50.670512   0.99784522        0.435    -0.368706     0.184353 
 1135000   -5484.0424    1262.4577   -6746.5001    1373.1642    21882.225   -30407.476    302.73652   -109.81081   0.99319158       0.4325    -0.366587    0.1832935 
 1140000   -5464.3225    1242.5082   -6706.8308    1353.1364    21902.474   -30406.855    297.95266   -193.64239   0.99369216         0.43    -0.364468     0.182234 
 1145000   -5616.5098    1231.4613   -6847.9711    1442.3498    21665.897   -30406.708     295.3036     197.4384    1.0013434       0.4275    -0.362349    0.1811745 
 1150000   -5570.9461    1220.6192   -6791.5654    1362.4483     21843.16   -30406.108    292.70369   -472.38468   0.99919513        0.425     -0.36023     0.180115 
 1155000   -5581.5228    1250.4929   -6832.0157    1399.2703    21713.872   -30407.442    299.86736     68.67313    1.0186094       0.4225    -0.358111    0.1790555 
 1160000   -5442.4593    1284.4383   -6726.8977    1424.4524    21823.753   -30403.289    308.00746    659.43865    1.0016333         0.42    -0.355992     0.177996 
 1165000    -5488.402    1266.3593   -6754.7613    1394.1319     21804.35   -30407.391    303.67212    327.86135    1.0142865       0.4175    -0.353873    0.1769365 
 1170000    -5476.149    1306.9735   -6783.1225    1429.0063    21755.183   -30406.784    313.41139     152.9988    0.9921559        0.415    -0.351754     0.175877 
 1175000   -5552.7195    1245.1137   -6797.8332    1460.5394    21718.862   -30405.892    298.57744    929.85903    1.0138017       0.4125    -0.349635    0.1748175 
 1180000   -5424.9372    1280.7552   -6705.6924    1363.0602    21952.781   -30406.655    307.12424   -15.436219   0.99469946         0.41    -0.347516     0.173758 
 1185000   -5547.6406    1244.8045   -6792.4451    1449.3378    21752.476   -30407.929    298.50331    1010.2202     1.029804       0.4075    -0.345397    0.1726985 
 1190000     -5518.33    1248.4316   -6766.7617    1416.6506    21831.584   -30406.854    299.37308    867.46971    1.0239472        0.405    -0.343278     0.171639 
 1195000   -5532.9651    1256.1747   -6789.1397    1330.4657    21843.722   -30406.423    301.22986   -733.82991    1.0016488       0.4025    -0.341159    0.1705795 
 1200000    -5553.066    1253.4742   -6806.5402    1351.6299    21838.577   -30408.246    300.58228   -305.68337    1.0122479          0.4     -0.33904      0.16952 
 1205000   -5519.1215    1249.3055    -6768.427    1350.1732    21804.158   -30403.344    299.58262    -543.0903    1.0018512       0.3975    -0.336921    0.1684605 
 1210000   -5527.9464      1276.42   -6804.3664    1482.4983    21659.348   -30403.541    306.08468    1352.4972    1.0313989        0.395    -0.334802     0.167401 
 1215000   -5528.3907    1207.7953    -6736.186    1320.6852    21903.038    -30405.73    289.62852   -718.49775    1.0053276       0.3925    -0.332683    0.1663415 
 1220000   -5530.8707    1284.7098   -6815.5805    1462.3884    21708.002   -30402.904    308.07255    591.73345   0.99594569         0.39    -0.330564     0.165282 
 1225000   -5510.4733    1242.8785   -6753.3518    1390.7837    21808.754   -30406.464    298.04145    414.48752    1.0266558       0.3875    -0.328445    0.1642225 
 1230000   -5511.1086     1256.014   -6767.1226    1411.3996    21786.166    -30400.32    301.19132    344.60627    1.0144412        0.385    -0.326326     0.163163 
 1235000    -5507.557    1263.7979   -6771.3549    1357.0612     21836.66   -30406.305     303.0579   -421.57464   0.99679054       0.3825    -0.324207    0.1621035 
 1240000     -5521.86    1251.2777   -6773.1376    1403.9886    21790.309   -30403.676    300.05556    223.64336    1.0138134         0.38    -0.322088     0.161044 
 1245000   -5495.1421    1282.2985   -6777.4406    1362.4685    21809.744   -30405.553    307.49434   -477.26223    1.0074571       0.3775    -0.319969    0.1599845 
 1250000   -5480.1139     1278.931   -6759.0449    1392.3278    21789.973   -30403.202     306.6868   -70.223368   0.99977242        0.375     -0.31785     0.158925 
 1255000    -5553.184    1252.6275   -6805.8115    1449.6591     21661.26   -30405.845    300.37925    667.59038    1.0204683       0.3725    -0.315731    0.1578655 
 1260000   -5500.3621    1303.3621   -6803.7242    1399.3677     21781.51   -30403.908    312.54537   -21.919882    1.0040001         0.37    -0.313612     0.156806 
 1265000   -5599.0593    1216.8118   -6815.8711    1448.5308    21734.171   -30405.807    291.79067    680.36892    1.0183911       0.3675    -0.311493    0.1557465 
 1270000   -5499.7199    1247.7042   -6747.4241    1385.0266    21829.215   -30405.427    299.19864    84.592133   0.99816992        0.365    -0.309374     0.154687 
 1275000   -5511.3148    1301.3431    -6812.658    1422.1524    21739.965   -30404.128    312.06122    680.64066    1.0347666       0.3625    -0.307255    0.1536275 
 1280000   -5548.0186     1270.302   -6818.3206    1334.2111    21757.058   -30406.305    304.61757   -967.15786    1.0109717         0.36    -0.305136     0.152568 
 1285000   -5555.0413    1280.8151   -6835.8564    1427.9067     21720.39   -30405.954    307.13862    368.48785    1.0080506       0.3575    -0.303017    0.1515085 
 1290000   -5496.7229    1283.2563   -6779.9793    1378.4038    21781.744   -30404.002    307.72402    8.3452567    1.0137024        0.355    -0.300898     0.150449 
 1295000   -5580.7272    1229.8436   -6810.5707    1366.8265    21783.805   -30404.506    294.91567   -460.30554    1.0085502       0.3525    -0.298779    0.1493895 
 1300000   -5538.7578     1235.394   -6774.1518    1436.4021    21779.128   -30402.492    296.24666    453.61372   0.99617343         0.35     -0.29666      0.14833 
 1305000      -5544.2     1218.136    -6762.336    1357.1673    21850.132   -30403.082     292.1082   -352.96744    1.0108396       0.3475    -0.294541    0.1472705 
 1310000   -5584.6337     1229.473   -6814.1067    1411.4248    21762.836   -30403.104    294.82682    394.62761    1.0211949        0.345    -0.292422     0.146211 
 1315000   -5436.0536    1293.1695   -6729.2231    1355.9564    21913.068   -30402.017    310.10119   -128.48391    1.0085461       0.3425    -0.290303    0.1451515 
 1320000   -5543.0105    1272.0501   -6815.0606    1405.9462    21736.124   -30402.088    305.03677    72.234346    1.0091715         0.34    -0.288184     0.144092 
 1325000   -5548.6163    1239.4869   -6788.1033    1407.6008    21777.171   -30402.102    297.22815    533.16549    1.0233863       0.3375    -0.286065    0.1430325 
 1330000   -5540.8843    1226.3995   -6767.2837    1501.7755    21677.206   -30403.423    294.08978     1240.633    1.0060816        0.335    -0.283946     0.141973 
 1335000   -5586.7627    1257.0633    -6843.826    1395.9593    21687.752   -30403.613    301.44296   -485.85005    1.0034879       0.3325    -0.281827    0.1409135 
 1340000   -5528.6391    1260.2811   -6788.9202    1285.0887    21886.122   -30404.215    302.21458   -1345.2852    1.0004527         0.33    -0.279708     0.139854 
 1345000   -5513.3113     1236.009   -6749.3203    1349.1797    21868.635   -30400.498    296.39414   -474.80145    1.0002406       0.3275    -0.277589    0.1387945 
 1350000   -5522.3768    1267.4323   -6789.8091    1507.5674    21607.325   -30402.928    303.92942    1773.9579    1.0298502        0.325     -0.27547     0.137735 
 1355000   -5551.6776    1188.9567   -6740.6343    1332.4533    21893.924   -30401.702    285.11104   -674.97023    1.0053334       0.3225    -0.273351    0.1366755 
 1360000    -5475.681     1262.222    -6737.903    1329.4781     21926.38   -30406.129       302.68   -200.38302    1.0156755         0.32    -0.271232     0.135616 
 1365000   -5509.3918    1284.2745   -6793.6663    1385.7835    21764.181   -30402.189    307.96817   -260.62121   0.99970234       0.3175    -0.269113    0.1345565 
 1370000   -5510.4413    1244.2221   -6754.6635    1394.1078    21834.473    -30402.98    298.36364    171.69348    1.0078346        0.315    -0.266994     0.133497 
 1375000   -5637.3565    1194.2641   -6831.6206    1352.6619    21790.919   -30403.683    286.38374   -926.31336    1.0014052       0.3125    -0.264875    0.1324375 
 1380000   -5535.2371    1268.7083   -6803.9454    1411.2035    21761.999   -30402.306    304.23541    1.7494611    1.0007021         0.31    -0.262756     0.131378 
 1385000   -5590.6929    1237.1763   -6827.8693    1425.1411    21700.436   -30401.792    296.67407    267.70563    1.0140025       0.3075    -0.260637    0.1303185 
 1390000   -5484.4968    1255.3342    -6739.831    1363.3349    21849.487   -30403.403    301.02831   -334.81743    0.9988136        0.305    -0.258518     0.129259 
 1395000    -5580.766    1216.9164   -6797.6824    1332.1573    21830.007   -30405.348    291.81574   -1230.1209   0.99078414       0.3025    -0.256399    0.1281995 
 1400000   -5542.6463    1270.5354   -6813.1816    1427.1867    21714.231   -30404.136    304.67354    455.15208    1.0157715          0.3     -0.25428      0.12714 
 1405000   -5466.7582    1275.6022   -6742.3604    1355.5736    21897.295   -30400.283    305.88856   -66.657731    1.0151471       0.2975    -0.252161    0.1260805 
 1410000   -5564.8474    1224.3922   -6789.2397    1330.6453    21814.374   -30400.427    293.60845   -774.92937    1.0136303        0.295    -0.250042     0.125021 
 1415000   -5430.2211    1308.0051   -6738.2263    1314.9611    21946.942   -30400.606    313.65877   -717.19161    1.0001463       0.2925    -0.247923    0.1239615 
 1420000   -5598.4838    1257.5011   -6855.9849    1415.0883    21711.443   -30404.958    301.54793    377.08012    1.0352276         0.29    -0.245804     0.122902 
 1425000   -5541.8937    1257.9576   -6799.8513    1400.0802    21773.418   -30403.035     301.6574    281.98161    1.0172007       0.2875    -0.243685    0.1218425 
 1430000   -5556.4346    1254.0053   -6810.4399    1407.8386    21766.868   -30402.715    300.70965    154.64262    1.0114215        0.285    -0.241566     0.120783 
 1435000   -5469.2552     1246.825   -6716.0802    1352.0012    21905.117    -30401.05     298.9878   -178.38426    1.0112743       0.2825    -0.239447    0.1197235 
 1440000    -5458.421    1254.9924   -6713.4134    1378.9303    21832.431   -30400.283    300.94636   -28.519956   0.99961051         0.28    -0.237328     0.118664 
 1445000   -5516.4714    1239.9243   -6756.3957    1405.0322    21790.978   -30400.325    297.33304    429.22692    1.0197884       0.2775    -0.235209    0.1176045 
 1450000   -5552.4255    1249.1142   -6801.5397    1361.7819    21785.875   -30399.912    299.53676   -769.48208   0.99105462        0.275     -0.23309     0.116545 
 1455000   -5517.8609    1220.2712   -6738.1321    1363.8136     21853.35   -30402.958    292.62024   -230.03249    1.0050729       0.2725    -0.230971    0.1154855 
 1460000   -5529.0421    1199.5637   -6728.6058    1281.1525    21947.817   -30402.254    287.65458   -1101.4619    1.0011538         0.27    -0.228852     0.114426 
 1465000   -5504.8124    1269.3051   -6774.1175    1397.0924    21778.739   -30400.882    304.37853    276.58705    1.0179163       0.2675    -0.226733    0.1133665 
 1470000   -5598.0732    1218.3941   -6816.4674    1418.8017    21718.631   -30401.044    292.17011    46.361297    1.0063797        0.265    -0.224614     0.112307 
 1475000    -5548.615    1254.4586   -6803.0737    1382.5152    21759.225       -30400    300.81835   -127.39812    1.0138223       0.2625    -0.222495    0.1112475 
 1480000   -5533.8343    1238.3003   -6772.1346    1436.9725     21759.67   -30400.105    296.94359    764.27767    1.0125907         0.26    -0.220376     0.110188 
 1485000   -5511.3105    1267.9695     -6779.28    1392.4351    21768.579   -30400.786    304.05824   -33.083281     1.008625       0.2575    -0.218257    0.1091285 
 1490000   -5492.7081    1249.7278   -6742.4359    1386.2265    21831.194   -30404.729    299.68391    167.62116    1.0065458        0.255    -0.216138     0.108069 
 1495000   -5565.5529    1257.6075   -6823.1605    1407.2006    21760.612   -30400.372    301.57346   -193.96975   0.99445457       0.2525    -0.214019    0.1070095 
 1500000   -5553.7271     1254.476    -6808.203    1411.4789    21739.068   -30400.776    300.82251    284.45877    1.0111814         0.25      -0.2119      0.10595 
 1505000   -5528.2919    1246.7404   -6775.0322    1494.6724    21668.724   -30400.534    298.96752    1503.5259    1.0199262       0.2475    -0.209781    0.1048905 
 1510000   -5529.2222    1256.6597   -6785.8818    1372.3032    21783.884   -30400.704    301.34616   -356.21245    1.0030809        0.245    -0.207662     0.103831 
 1515000    -5474.306    1292.5933   -6766.8993    1423.7446    21792.826   -30400.201    309.96302    458.75001   0.99603453       0.2425    -0.205543    0.1027715 
 1520000     -5533.15    1215.0608   -6748.2108    1345.4887    21859.918   -30402.082    291.37078   -574.91731    1.0075838         0.24    -0.203424     0.101712 
 1525000   -5534.3424    1275.3714   -6809.7138    1424.5986    21730.717    -30399.28    305.83323    403.09345    1.0170271       0.2375    -0.201305    0.1006525 
 1530000   -5594.0315    1228.3372   -6822.3687    1400.2671    21729.871    -30399.71    294.55445    -117.3201    1.0085693        0.235    -0.199186     0.099593 
 1535000   -5478.4978     1224.412   -6702.9097    1367.3472    21857.313   -30397.796    293.61318   -207.09591    1.0035875       0.2325    -0.197067    0.0985335 
 1540000   -5412.0571    1263.2997   -6675.3568    1365.2658    21913.322   -30400.612    302.93843    217.05159    1.0080531         0.23    -0.194948     0.097474 
 1545000   -5467.8087    1273.7408   -6741.5495    1392.9907    21826.459   -30393.776    305.44219    216.50192    1.0091255       0.2275    -0.192829    0.0964145 
 1550000    -5566.797    1224.1437   -6790.9407    1482.8048    21668.571   -30397.373    293.54885    729.69096    1.0040464        0.225     -0.19071     0.095355 
 1555000   -5497.5888    1259.6664   -6757.2552    1337.6561    21869.942   -30398.222    302.06718   -474.89321    1.0102649       0.2225    -0.188591    0.0942955 
 1560000   -5571.1541    1227.5401   -6798.6942    1443.2923    21702.982   -30401.053    294.36331    600.44478    1.0119193         0.22    -0.186472     0.093236 
 1565000   -5532.4484     1257.767   -6790.2154     1497.098    21657.763   -30398.914    301.61169    1582.7596    1.0279581       0.2175    -0.184353    0.0921765 
 1570000   -5491.3602    1250.8628   -6742.2231    1381.5334    21840.747       -30399    299.95608    319.87288    1.0172885        0.215    -0.182234     0.091117 
 1575000   -5448.4462    1268.2421   -6716.6883    1377.0235    21863.493   -30397.202    304.12362   -262.01917   0.98610142       0.2125    -0.180115    0.0900575 
 1580000    -5580.594    1226.2656   -6806.8595    1422.4858    21713.685    -30396.22    294.05768    357.25756    1.0113499         0.21    -0.177996     0.088998 
 1585000   -5541.0825    1278.2507   -6819.3331    1366.9139    21790.142   -30396.888    306.52367   -743.11524   0.98669546       0.2075    -0.175877    0.0879385 
 1590000   -5531.6035    1232.4292   -6764.0326     1395.465    21795.559   -30398.665     295.5357    42.444177    1.0126547        0.205    -0.173758     0.086879 
 1595000   -5461.4159    1287.0769   -6748.4928    1385.5573    21847.874   -30400.803    308.64018    618.18057     1.023846       0.2025    -0.171639    0.0858195 
 1600000   -5579.7572    1252.3883   -6832.1456    1403.3853    21764.717   -30403.163     300.3219    2.4209385    1.0090886          0.2     -0.16952      0.08476 
 1605000   -5491.6523    1248.6296    -6740.282    1420.4767     21788.29   -30399.543    299.42056    239.38793   0.99225234       0.1975    -0.167401    0.0837005 
 1610000   -5568.2821    1246.7876   -6815.0697    1370.1076    21752.385   -30399.233    298.97885   -468.73385    1.0081855        0.195    -0.165282     0.082641 
 1615000   -5530.1214    1224.1728   -6754.2942    1323.3884    21897.077   -30396.775    293.55582    -898.2112   0.99067847       0.1925    -0.163163    0.0815815 
 1620000    -5462.953     1253.936    -6716.889    1363.9087    21844.806   -30397.011    300.69303    49.460617    1.0189897         0.19    -0.161044     0.080522 
 1625000   -5568.5656    1231.6103   -6800.1759    1439.4406    21713.002   -30399.751    295.33933    590.45469    1.0150474       0.1875    -0.158925    0.0794625 
 1630000   -5513.0103    1230.3044   -6743.3148     1335.981    21895.338   -30397.086    295.02619   -710.37919   0.99994929        0.185    -0.156806     0.078403 
 1635000   -5580.5477     1231.076   -6811.6238    1376.4886    21798.044   -30400.814    295.21122    -206.8981    1.0081086       0.1825    -0.154687    0.0773435 
 1640000   -5540.3331    1256.5851   -6796.9181    1426.8142    21744.777   -30399.595    301.32827    745.57089     1.025877         0.18    -0.152568     0.076284 
 1645000   -5501.1298    1220.0238   -6721.1536     1389.073    21803.781   -30396.275    292.56091    131.20821    1.0089626       0.1775    -0.150449    0.0752245 
 1650000   -5628.1664     1220.696   -6848.8624    1362.9547    21731.445   -30400.636     292.7221   -616.61903    1.0201592        0.175     -0.14833     0.074165 
 1655000   -5592.5867    1211.2372   -6803.8239    1395.9179    21759.947    -30397.15    290.45388    18.913469    1.0103871       0.1725    -0.146211    0.0731055 
 1660000   -5428.2327    1278.6419   -6706.8747    1330.8879    21912.263   -30395.724    306.61749   -481.32774   0.99495838         0.17    -0.144092     0.072046 
 1665000   -5594.5998     1205.962   -6800.5618    1375.2659    21806.513   -30400.577    289.18889   -235.35107    1.0075357       0.1675    -0.141973    0.0709865 
 1670000   -5524.7971    1260.2713   -6785.0684    1344.6328    21851.941   -30396.671    302.21221   -544.14669    1.0114915        0.165    -0.139854     0.069927 
 1675000   -5468.1251    1274.7582   -6742.8834    1380.0088    21825.405   -30396.487    305.68618    38.686488    1.0120959       0.1625    -0.137735    0.0688675 
 1680000   -5473.7314    1242.9607   -6716.6921    1415.1549    21844.285   -30395.776    298.06116    641.25473    1.0114522         0.16    -0.135616     0.067808 
 1685000   -5636.5209     1211.507   -6848.0278    1459.7789    21659.328   -30400.565    290.51857    617.46049    1.0173888       0.1575    -0.133497    0.0667485 
 1690000    -5519.679    1240.1554   -6759.8344    1372.6554    21847.523   -30401.094    297.38845   -401.52343   0.99153655        0.155    -0.131378     0.065689 
 1695000   -5560.9528    1229.8902    -6790.843    1408.2004    21760.223   -30400.762    294.92687    100.67238    1.0033753       0.1525    -0.129259    0.0646295 
 1700000   -5554.1929    1255.6687   -6809.8616    1428.6747    21710.122   -30400.905    301.10854    159.06223   0.99158358         0.15     -0.12714      0.06357 
 1705000   -5542.8539    1230.6745   -6773.5285    1366.5362    21810.674   -30399.629    295.11494   -316.17067   0.99672752       0.1475    -0.125021    0.0625105 
 1710000   -5592.0441    1235.1898   -6827.2339    1407.2236     21724.16   -30397.816    296.19769   -171.98585    1.0010712        0.145    -0.122902     0.061451 
 1715000    -5456.289    1285.0566   -6741.3456    1366.6379    21844.445   -30394.859    308.15573   -103.28366    1.0059297       0.1425    -0.120783    0.0603915 
 1720000   -5492.3095    1254.7872   -6747.0967     1374.291     21873.54   -30397.737    300.89714   -10.335506    1.0122212         0.14    -0.118664     0.059332 
 1725000   -5518.9901    1240.2306   -6759.2207    1293.1765    21919.538   -30398.262    297.40649   -1112.3904    1.0060258       0.1375    -0.116545    0.0582725 
 1730000   -5461.6627    1250.9471   -6712.6098    1312.9461    21924.032   -30396.911    299.97629   -905.20686   0.99780548        0.135    -0.114426     0.057213 
 1735000   -5520.9229    1260.6697   -6781.5926    1351.3162    21851.369   -30398.186    302.30776   -380.34032      1.00967       0.1325    -0.112307    0.0561535 
 1740000   -5587.9319    1198.4018   -6786.3336    1377.0754    21811.513   -30398.588    287.37595    21.848644     1.019459         0.13    -0.110188     0.055094 
 1745000   -5548.2449    1238.1127   -6786.3576    1403.8402    21747.153   -30395.629     296.8986    135.03046      1.01201       0.1275    -0.108069    0.0540345 
 1750000   -5526.8784    1242.7978   -6769.6761    1309.8228    21913.235   -30398.337    298.02209   -850.35833    1.0059241        0.125     -0.10595     0.052975 
 1755000   -5508.0743    1308.7599   -6816.8341     1353.359    21760.125   -30400.191    313.83975    -749.9998   0.99685375       0.1225    -0.103831    0.0519155 
 1760000   -5542.8446    1265.3408   -6808.1854    1391.2186    21776.776   -30396.482    303.42789    117.90427    1.0236881         0.12    -0.101712     0.050856 
 1765000   -5526.6876    1268.5243   -6795.2119    1302.7664    21799.054   -30396.406     304.1913   -1161.5113    1.0216099       0.1175    -0.099593    0.0497965 
 1770000   -5579.5803    1246.8977    -6826.478    1486.5854    21651.454   -30399.954    299.00526    880.22447    1.0109541        0.115    -0.097474     0.048737 
 1775000   -5551.5053    1292.1271   -6843.6324    1405.0247     21688.07   -30398.863    309.85123   -251.03455   0.99873347       0.1125    -0.095355    0.0476775 
 1780000   -5515.8126    1282.9801   -6798.7927    1395.0164    21747.704   -30395.937    307.65779    333.80114    1.0239628         0.11    -0.093236     0.046618 
 1785000   -5510.7284    1208.8107   -6719.5391    1346.5399     21876.38   -30394.751    289.87201   -249.43776    1.0110945       0.1075    -0.091117    0.0455585 
 1790000   -5518.3081    1260.6355   -6778.9436    1399.7684     21796.94     -30397.3    302.29957     82.30008    1.0094344        0.105    -0.088998     0.044499 
 1795000   -5513.5389    1303.7533   -6817.2921      1421.97     21751.65   -30398.865    312.63917    500.03335    1.0096349       0.1025    -0.086879    0.0434395 
 1800000   -5572.7653    1214.8677   -6787.6331    1383.7533    21813.337   -30398.789    291.32448   -172.24736    1.0106323          0.1     -0.08476      0.04238 
 1805000   -5533.6069    1246.7853   -6780.3922    1412.9435    21800.334   -30394.707    298.97828    594.59696    1.0209456       0.0975    -0.082641    0.0413205 
 1810000   -5567.1324    1275.7954   -6842.9277    1442.9318    21676.766   -30398.215    305.93489    453.89649    1.0132054        0.095    -0.080522     0.040261 
 1815000   -5465.3294    1255.0662   -6720.3956    1341.0775     21912.58    -30394.54    300.96405   -302.59143    1.0016089       0.0925    -0.078403    0.0392015 
 1820000   -5588.4657    1233.5824   -6822.0481    1393.0967    21740.859   -30396.671    295.81224   -147.72631    1.0070758         0.09    -0.076284     0.038142 
 1825000   -5599.7235    1244.5645    -6844.288    1527.9294    21571.627   -30396.257    298.44576    1698.1117    1.0275341       0.0875    -0.074165    0.0370825 
 1830000   -5472.5833    1264.0019   -6736.5852    1327.0089    21908.977   -30394.568    303.10682   -394.05428    1.0135733        0.085    -0.072046     0.036023 
 1835000   -5559.5998    1243.4443   -6803.0442    1292.0778     21846.42   -30398.288    298.17713   -1254.4294    1.0141937       0.0825    -0.069927    0.0349635 
 1840000   -5498.5276    1283.2205   -6781.7481    1416.3308    21752.285   -30399.697    307.71542    317.53074     1.003693         0.08    -0.067808     0.033904 
 1845000   -5551.7395    1252.4882   -6804.2277    1374.7399    21772.215   -30396.489    300.34585   -263.50361    1.0114613       0.0775    -0.065689    0.0328445 
 1850000   -5525.5278    1240.7565   -6766.2843    1361.6208    21839.689   -30397.722    297.53259   -186.31575    1.0187838        0.075     -0.06357     0.031785 
 1855000   -5521.2867    1243.7856   -6765.0724    1347.4178    21874.625   -30396.108    298.25898   -284.75269    1.0228705       0.0725    -0.061451    0.0307255 
 1860000   -5640.4121    1146.9485   -6787.3606    1396.2408    21749.618   -30394.203    275.03749   -187.09544     1.006743         0.07    -0.059332     0.029666 
 1865000   -5525.2602    1260.9215   -6786.1817    1402.4348    21758.857   -30397.319    302.36813   -161.29785   0.99503244       0.0675    -0.057213    0.0286065 
 1870000    -5623.139     1216.967   -6840.1059    1413.5807    21703.495   -30397.576    291.82788    76.112007    1.0246491        0.065    -0.055094     0.027547 
 1875000   -5450.2615     1268.385   -6718.6465    1405.9759    21866.321    -30398.11    304.15789    307.93878   0.99773745       0.0625    -0.052975    0.0264875 
 1880000   -5539.8922    1245.1416   -6785.0337    1409.1823    21774.294   -30395.574    298.58413    82.127006    1.0058947         0.06    -0.050856     0.025428 
 1885000   -5514.3045    1240.5608   -6754.8653    1443.7995    21752.107   -30397.218    297.48566    611.17045    1.0085937       0.0575    -0.048737    0.0243685 
 1890000   -5438.3073    1258.3645   -6696.6718    1361.8049    21892.331   -30397.348    301.75497   -267.35927    0.9953092        0.055    -0.046618     0.023309 
 1895000   -5596.2731    1226.9718   -6823.2449    1402.9241    21732.185   -30395.165    294.22702    44.339776    1.0153331       0.0525    -0.044499    0.0222495 
 1900000   -5497.1413    1266.3676   -6763.5089    1373.9826    21832.991   -30399.356    303.67411   -27.290874    1.0132323         0.05     -0.04238      0.02119 
 1905000   -5517.4875    1236.6892   -6754.1767     1367.726    21857.698   -30393.874    296.55726   -499.76394   0.99284077       0.0475    -0.040261    0.0201305 
 1910000   -5552.0873    1269.7208   -6821.8081    1378.8021    21718.781   -30396.478     304.4782   -369.12045    1.0171861        0.045    -0.038142     0.019071 
 1915000   -5499.6451    1278.5051   -6778.1502    1430.6032    21725.761   -30396.795    306.58468    577.53122      1.01326       0.0425    -0.036023    0.0180115 
 1920000   -5487.2658    1251.9078   -6739.1736    1381.7635    21779.483   -30396.642    300.20666   -47.157489    1.0090288         0.04    -0.033904     0.016952 
 1925000   -5538.2174    1250.4348   -6788.6522    1378.1601    21776.002    -30397.01    299.85343   -635.20274   0.98963246       0.0375    -0.031785    0.0158925 
 1930000   -5539.4427    1260.8629   -6800.3057    1358.8021    21770.968   -30400.271     302.3541   -702.50699   0.99578271        0.035    -0.029666     0.014833 
 1935000   -5559.5408    1246.2889   -6805.8297    1426.6663    21737.226   -30396.429    298.85926    214.01347    1.0055051       0.0325    -0.027547    0.0137735 
 1940000   -5527.5821    1225.3364   -6752.9184    1378.8724    21850.255   -30395.169    293.83485    14.506752    1.0028753         0.03    -0.025428     0.012714 
 1945000   -5473.5551    1280.9318   -6754.4869     1425.106    21803.831   -30396.584    307.16659    506.19708    1.0032233       0.0275    -0.023309    0.0116545 
 1950000   -5567.2517    1222.2431   -6789.4948    1305.8232    21889.919   -30396.867    293.09308   -1294.1142   0.99788741        0.025     -0.02119     0.010595 
 1955000   -5484.5853    1260.6694   -6745.2547     1384.597    21831.404   -30392.929    302.30769    156.43697    1.0117059       0.0225    -0.019071    0.0095355 
 1960000   -5620.4544    1193.7438   -6814.1983    1383.8209    21783.257   -30401.598    286.25899   -66.845911    1.0220849         0.02    -0.016952     0.008476 
 1965000   -5545.5269    1233.4885   -6779.0154    1344.2005    21855.912   -30398.255    295.78973   -628.47314    1.0059777       0.0175    -0.014833    0.0074165 
 1970000   -5513.9042    1266.1527    -6780.057     1392.318    21762.753   -30395.542    303.62259    75.831811    1.0061881        0.015    -0.012714     0.006357 
 1975000   -5544.7648    1274.4083   -6819.1731    1391.4464    21746.624   -30396.103    305.60227   -75.461691    1.0034389       0.0125    -0.010595    0.0052975 
 1980000   -5538.5817    1248.0952   -6786.6769     1364.256    21830.009   -30395.903     299.2924   -83.978588    1.0205031         0.01    -0.008476     0.004238 
 1985000   -5595.8323     1230.885   -6826.7174    1357.6211    21780.506   -30393.427    295.16542   -709.11924    1.0035546       0.0075    -0.006357    0.0031785 
 1990000   -5482.4794    1286.6658   -6769.1452    1336.3899    21858.921   -30393.729    308.54161   -827.89365    1.0005728        0.005    -0.004238     0.002119 
 1995000   -5501.4886     1239.738   -6741.2266    1409.7478    21799.031   -30400.217    297.28836    653.89683    1.0202266       0.0025    -0.002119    0.0010595 
 2000000   -5611.4713    1229.0661   -6840.5373    1478.3644    21615.338   -30394.928    294.72923    480.97836      1.00402            0           -0            0 
Loop time of 13776.2 on 12 procs for 2000000 steps with 1800 atoms

Performance: 12.543 ns/day, 1.913 hours/ns, 145.178 timesteps/s
95.3% CPU use with 12 MPI tasks x 1 OpenMP threads

MPI task timing breakdown:
Section |  min time  |  avg time  |  max time  |%varavg| %total
---------------------------------------------------------------
Pair    | 7579.8     | 8070.7     | 8564.2     | 287.6 | 58.58
Bond    | 24.942     | 25.514     | 26.056     |   6.9 |  0.19
Kspace  | 2484.3     | 2979.3     | 3459.7     | 467.2 | 21.63
Neigh   | 523.25     | 524.15     | 525.06     |   2.5 |  3.80
Comm    | 806.39     | 872.63     | 948.24     | 194.3 |  6.33
Output  | 0.033634   | 0.034536   | 0.042227   |   1.2 |  0.00
Modify  | 864.36     | 1044.2     | 1191.5     | 438.5 |  7.58
Other   |            | 259.6      |            |       |  1.88

Nlocal:        150.000 ave         158 max         141 min
Histogram: 1 0 0 2 2 3 2 1 0 1
Nghost:        6106.00 ave        6170 max        6046 min
Histogram: 2 1 1 1 0 1 2 2 1 1
Neighs:        86710.6 ave       92374 max       78975 min
Histogram: 1 0 0 3 0 3 1 0 2 2

Total # of neighbors = 1040527
Ave neighs/atom = 578.07056
Ave special neighs/atom = 2.0000000
Neighbor list builds = 89189
Dangerous builds = 0
Total wall time: 4:00:09
