LAMMPS (29 Oct 2020)
OMP_NUM_THREADS environment is not set. Defaulting to 1 thread. (src/lammps/src/comm.cpp:94)
  using 1 OpenMP thread(s) per MPI task
# created by fftool

units real
boundary p p p

atom_style full
bond_style harmonic
angle_style harmonic
dihedral_style opls
special_bonds lj/coul 0.0 0.0 0.5

read_data data.0.lmp
Reading data file ...
  orthogonal box = (-13.443762 -13.443762 -13.443762) to (13.443762 13.443762 13.443762)
  2 by 2 by 3 MPI processor grid
  reading atoms ...
  1090 atoms
  scanning bonds ...
  1 = max bonds/atom
  scanning angles ...
  10 = max angles/atom
  scanning dihedrals ...
  12 = max dihedrals/atom
  reading bonds ...
  729 bonds
  reading angles ...
  377 angles
  reading dihedrals ...
  16 dihedrals
Finding 1-2 1-3 1-4 neighbors ...
  special bond factors lj:    0        0        0.5     
  special bond factors coul:  0        0        0.5     
     5 = max # of 1-2 neighbors
     4 = max # of 1-3 neighbors
     8 = max # of 1-4 neighbors
     9 = max # of special neighbors
  special bonds CPU = 0.001 seconds
  read_data CPU = 0.015 seconds
# read_restart restart.*.lmp
# reset_timestep 0

pair_style hybrid lj/cut/coul/long 10.0 10.0   lj/cut/coul/long/soft 1 0.5 10.0 10.0 10.0
pair_modify tail no
kspace_style pppm 1.0e-5

# use pair soft for atoms that may overlap
# zero epsilon between appearing and desappearing sites: 2-5 3-5
pair_coeff    1    1 lj/cut/coul/long     0.065999     3.500000  # C-CO C-CO
pair_coeff    1    2 lj/cut/coul/long     0.065999     3.500000  # C-CO C-D
pair_coeff    1    3 lj/cut/coul/long     0.044497     2.958040  # C-CO H-D
pair_coeff    1    4 lj/cut/coul/long     0.044497     2.958040  # C-CO H-H1
pair_coeff    1    5 lj/cut/coul/long     0.105924     3.304542  # C-CO OHD-
pair_coeff    1    6 lj/cut/coul/long     0.000000     1.870829  # C-CO HOD-
pair_coeff    1    7 lj/cut/coul/long     0.000000     1.870829  # C-CO Hw
pair_coeff    1    8 lj/cut/coul/long     0.101281     3.328551  # C-CO Ow
pair_coeff    2    2 lj/cut/coul/long     0.065999     3.500000  # C-D C-D
pair_coeff    2    3 lj/cut/coul/long     0.044497     2.958040  # C-D H-D
pair_coeff    2    4 lj/cut/coul/long     0.044497     2.958040  # C-D H-H1
pair_coeff    2    5 lj/cut/coul/long     0.000000     3.304542  # C-D OHD-
pair_coeff    2    6 lj/cut/coul/long     0.000000     1.870829  # C-D HOD-
pair_coeff    2    7 lj/cut/coul/long/soft     0.000000     1.870829  1.0  # C-D Hw
pair_coeff    2    8 lj/cut/coul/long/soft     0.101281     3.328551  1.0  # C-D Ow
pair_coeff    3    3 lj/cut/coul/long     0.030000     2.500000  # H-D H-D
pair_coeff    3    4 lj/cut/coul/long/soft     0.030000     2.500000  1.0  # H-D H-H1
pair_coeff    3    5 lj/cut/coul/long     0.000000     2.792848  # H-D OHD-
pair_coeff    3    6 lj/cut/coul/long     0.000000     1.581139  # H-D HOD-
pair_coeff    3    7 lj/cut/coul/long/soft     0.000000     1.581139  1.0  # H-D Hw
pair_coeff    3    8 lj/cut/coul/long/soft     0.068284     2.813139  1.0  # H-D Ow
pair_coeff    4    4 lj/cut/coul/long     0.030000     2.500000  # H-H1 H-H1
pair_coeff    4    5 lj/cut/coul/long     0.071414     2.792848  # H-H1 OHD-
pair_coeff    4    6 lj/cut/coul/long/soft     0.000000     1.581139  0.0  # H-H1 HOD-
pair_coeff    4    7 lj/cut/coul/long     0.000000     1.581139  # H-H1 Hw
pair_coeff    4    8 lj/cut/coul/long     0.068284     2.813139  # H-H1 Ow
pair_coeff    5    5 lj/cut/coul/long     0.170000     3.120000  # OHD- OHD-
pair_coeff    5    6 lj/cut/coul/long     0.000000     1.766352  # OHD- HOD-
pair_coeff    5    7 lj/cut/coul/long/soft     0.000000     1.766352  0.0  # OHD- Hw
pair_coeff    5    8 lj/cut/coul/long/soft     0.162549     3.142668  0.0  # OHD- Ow
pair_coeff    6    6 lj/cut/coul/long     0.000000     1.000000  # HOD- HOD-
pair_coeff    6    7 lj/cut/coul/long/soft     0.000000     1.000000  0.0  # HOD- Hw
pair_coeff    6    8 lj/cut/coul/long/soft     0.000000     1.779185  0.0  # HOD- Ow
pair_coeff    7    7 lj/cut/coul/long     0.000000     1.000000  # Hw Hw
pair_coeff    7    8 lj/cut/coul/long     0.000000     1.779185  # Hw Ow
pair_coeff    8    8 lj/cut/coul/long     0.155425     3.165500  # Ow Ow

variable TK equal 300.0
variable PBAR equal 1.0

neighbor 2.0 bin

timestep 1.0

velocity all create ${TK} 12345
velocity all create 300 12345

fix SHAKE all shake 0.0001 20 0 b 2 4 5 a 6
       1 = # of size 2 clusters
       0 = # of size 3 clusters
       2 = # of size 4 clusters
     360 = # of frozen angles
  find clusters CPU = 0.000 seconds

fix NPT all npt temp ${TK} ${TK} 100 iso ${PBAR} ${PBAR} 500
fix NPT all npt temp 300 ${TK} 100 iso ${PBAR} ${PBAR} 500
fix NPT all npt temp 300 300 100 iso ${PBAR} ${PBAR} 500
fix NPT all npt temp 300 300 100 iso 1 ${PBAR} 500
fix NPT all npt temp 300 300 100 iso 1 1 500

thermo_style custom step cpu epair emol etotal temp press density
thermo 1000

run 200000
PPPM initialization ...
  using 12-bit tables for long-range coulomb (src/lammps/src/kspace.cpp:339)
  G vector (1/distance) = 0.30693001
  grid = 24 24 24
  stencil order = 5
  estimated absolute RMS force accuracy = 0.0020308812
  estimated relative force accuracy = 6.1159385e-06
  using double precision FFTW3
  3d grid and FFT values/proc = 5415 1152
Neighbor list info ...
  update every 1 steps, delay 10 steps, check yes
  max neighbors/atom: 2000, page size: 100000
  master list distance cutoff = 12
  ghost atom cutoff = 12
  binsize = 6, bins = 5 5 5
  3 neighbor lists, perpetual/occasional/extra = 3 0 0
  (1) pair lj/cut/coul/long, perpetual, skip from (3)
      attributes: half, newton on
      pair build: skip
      stencil: none
      bin: none
  (2) pair lj/cut/coul/long/soft, perpetual, skip from (3)
      attributes: half, newton on
      pair build: skip
      stencil: none
      bin: none
  (3) neighbor class addition, perpetual
      attributes: half, newton on
      pair build: half/bin/newton
      stencil: half/bin/3d/newton
      bin: standard
Per MPI rank memory allocation (min/avg/max) = 15.89 | 15.91 | 16.08 Mbytes
Step CPU E_pair E_mol TotEng Temp Press Density 
       0            0    -230.1518   0.30946681    743.98832    449.58716    1836.3864    0.5580518 
    1000     2.521868   -3760.5629   0.59638535   -3110.7873    299.70574     -1277.28   0.79067362 
    2000    6.4192251   -3909.1391   0.91421188   -3248.8712    304.40296    627.21851   0.92857421 
    3000    10.268346   -3940.7682    1.1334682   -3276.1614     306.3049    64.045427   0.95775899 
    4000    14.082523   -3980.3178   0.72703825   -3315.8227    306.44098   -516.11728    0.9713616 
    5000    17.624753   -3986.9933   0.97116394   -3331.8999    301.98778    448.43239   0.99567394 
    6000    21.664252   -3974.9025    1.0491532   -3325.6418    299.25899    1089.0245   0.99594225 
    7000    25.724321   -3973.4042    1.2266124   -3319.8817    301.14462     -631.528   0.99259551 
    8000    29.845153    -3999.484    1.3430577   -3294.1046    325.03158    1368.4767     1.012368 
    9000    34.039461   -3984.4415    2.3785255   -3351.2993    291.20387   -438.77481   0.97642373 
   10000    38.183667   -4037.7273    2.2095969   -3395.7868    295.34372   -984.96694   0.99818857 
   11000    42.367021   -3997.3189    2.1442011   -3363.2113    291.75775   -1091.1831    1.0039892 
   12000    46.575262    -4073.485    2.3394411   -3434.8881    293.74018    621.12936    1.0405273 
   13000    50.727131   -4010.1755    1.7231229   -3359.5092    299.59675   -747.11584   0.99118641 
   14000    54.823416   -3986.3652    2.1623017   -3335.9597    299.27361    249.86403    1.0084337 
   15000    59.017138   -3993.7518    1.9576255   -3331.6366     304.7741   -291.48575   0.99195043 
   16000    63.131847   -3974.8869    1.0161967   -3328.9697    297.73063   -1487.8026   0.97866821 
   17000    67.235916   -3959.6335    3.1939806   -3269.7971    317.00135   -445.02078   0.97123803 
   18000    71.450205   -4056.6436    1.9785575   -3399.9348    302.26846    2182.4641    1.0163795 
   19000    75.429518   -3982.4563    1.9145465   -3348.4174    291.83208   -40.427517   0.96488327 
   20000    79.475519   -4012.4915    1.8341835   -3377.8244    292.15917   -603.59869   0.95566644 
   21000    83.677958   -3961.4434    1.4602537   -3293.4518    307.71668    98.917589   0.97258011 
   22000    87.876111   -3960.8562     2.218745   -3291.3414    308.06971   -410.85298   0.98837434 
   23000     91.94455    -4000.328    1.6954705   -3366.2844    291.93533   -439.64395   0.96683636 
   24000    96.041839   -4001.7718    1.2473016   -3363.7499    293.97895   -277.96571   0.99308311 
   25000    100.15633   -3925.8349    2.0246259   -3288.4895    293.30774    -136.7356    1.0037882 
   26000    104.36503    -3912.692    3.1960915   -3238.7346    309.66953    408.15188    1.0031359 
   27000    108.51156   -3972.0584    2.3968298   -3271.7433    322.20701   -732.12466   0.98319581 
   28000    112.59551   -3993.6119    2.7131783   -3358.6548    291.88727    33.154459   0.97850519 
   29000    116.67223   -3954.6271    3.0017509   -3310.0673    296.18732    543.39356   0.99149013 
   30000    120.65739   -3958.2949    3.3229641   -3346.9928    280.68496   -1012.3212    1.0047575 
   31000    124.56191   -3951.9236    5.5925193   -3312.5311    292.60566   -290.47017   0.96918405 
   32000    128.63594   -4008.7644    3.0454472   -3358.4902    298.80526    942.71891   0.99518794 
   33000     132.7509    -3961.563    2.4387925    -3283.978    311.69388   -328.85607   0.99214914 
   34000    136.92565   -4031.5325       3.5345   -3389.6473    294.70654   -201.91394   0.98487894 
   35000    140.96509   -3997.8744    3.8332043   -3341.7581    301.13871   -732.17902   0.97801739 
   36000    145.00257   -3985.2868    3.7447825   -3335.8391    298.10087     272.8159   0.97006646 
   37000    149.10374   -3963.3399     4.888732   -3319.9171    294.79119    350.68483   0.99470236 
   38000    153.21502   -3954.9168    3.6882194   -3286.8458    306.72474   -33.700579   0.98930832 
   39000    157.37814    -4029.811    3.0183594   -3364.6338    305.69805    61.375009   0.99705215 
   40000    161.51284   -4004.8359    1.9235433   -3346.5739    303.01094   -1518.8773   0.98561236 
   41000    165.64411   -3993.5125    2.9233521   -3315.1075    311.84874   -604.89412   0.99481473 
   42000    169.68312   -3972.7468    2.3758277    -3310.021    304.86292   -593.62968   0.98153527 
   43000     173.7119   -3983.0343    3.2910027   -3320.0637    304.55345    568.14606   0.97112826 
   44000    177.76103   -4003.7382    5.0943285   -3331.1041    308.18225   -123.62155   0.99133905 
   45000     181.6937   -4027.7234    3.5533034   -3387.5911    293.88863   -57.425615   0.98533011 
   46000     185.7463    -4022.952    2.7672177   -3383.7969    293.80035    100.10513   0.99506749 
   47000    189.88194   -3974.7942     3.395664   -3316.8909    302.16572   -1315.9427   0.97871551 
   48000    193.93683   -3995.0074    3.5827672   -3365.4867      288.976   -911.04518    0.9804356 
   49000    198.02876   -3979.4125    6.9125234   -3346.7876    288.87188   -305.89012   0.99540919 
   50000    202.06188   -4008.9584     4.127411   -3352.4925     301.1643    681.06962   0.99785731 
   51000    206.11551   -4064.4031    3.1192233   -3460.6796    277.28021    1797.4162    1.0138457 
   52000    210.19287   -4015.3941    3.3056984   -3335.0219    312.58043   -482.49764   0.98921214 
   53000    214.40708   -4040.3742    3.1065386   -3368.8307    308.59648    494.13336    1.0080315 
   54000    218.49955   -4032.1953    5.6431757   -3363.9771    305.89019    1065.5607    1.0005512 
   55000     222.5917   -4028.8339    6.5940611   -3383.6144    294.83337   -492.46498    1.0161363 
   56000     226.5516   -3989.5989     4.158584   -3362.6419    287.52656   -421.74346   0.99978957 
   57000    230.42752   -3987.1719    4.3767323   -3343.0761    295.33825   -610.06676    0.9913266 
   58000    234.52737   -3962.9402    4.9355156   -3316.6213    296.10665    715.96001   0.99029874 
   59000    238.73856   -4016.6906    3.0067024   -3354.2832    304.42469   -871.48849    0.9817091 
   60000    242.78724   -4015.4343    4.3558717   -3353.6229    303.52664     316.0464   0.97739887 
   61000    246.81159   -4027.0171    5.1737874   -3368.3008    301.72017   -111.05183   0.99014744 
   62000    250.80061   -3956.0908     5.111072    -3326.599    288.25707    408.98585   0.96684372 
   63000    254.68616   -4008.0673    8.5694826   -3336.7947    305.94932    1285.3147    0.9640612 
   64000    258.56021   -4008.1952     5.767814   -3337.1561    307.13493     300.7018   0.96239881 
   65000    262.34689   -3987.0731     4.507263   -3317.9552    306.82997    -213.3437   0.98042604 
   66000    266.34815   -4002.5089    5.4206492   -3353.0789    297.31896   -389.65772   0.97473328 
   67000    270.41735      -4092.7    3.7415611   -3427.7874    305.24202    366.29968   0.99802964 
   68000    274.46193   -4039.0585    3.9082514   -3381.0188    301.99204   -614.36062   0.97886156 
   69000    278.59131   -4044.3394    4.5942196   -3406.0282    292.56735    -757.7717   0.98761895 
   70000    282.62254   -4006.5927    2.8985541   -3360.7724    296.81685    572.90493   0.99307457 
   71000    286.63738   -4001.0517    3.1613347   -3326.9325    309.76023     537.4979   0.97640381 
   72000    290.67545   -4016.0838    5.0300855   -3377.5085    292.48803    1030.3645   0.99513533 
   73000    294.58398   -4027.7297    3.9449953   -3377.8684    298.19936   -913.67906    0.9633626 
   74000    298.59708   -3996.3239    4.0496797   -3312.5927    313.78772   -160.69921   0.97892702 
   75000    302.60769   -3989.3333    5.9700273   -3344.5417    294.92391    129.48521   0.98335075 
   76000    306.70749    -4054.621    3.4015329   -3435.8544    284.09481    144.06329    1.0058648 
   77000    310.77709   -4048.3467    3.6662202   -3395.6655    299.62992   -153.52453    1.0062367 
   78000    314.88834   -4019.5408    3.0584627   -3411.0191    279.52343   -584.12614     1.009935 
   79000    318.99679   -4000.0528    4.1460932   -3318.4067    312.78058   -410.51613   0.99311389 
   80000     323.0952   -4043.9996    6.3842219   -3390.1328     298.9225   -185.18481    0.9918148 
   81000    327.20874   -4015.1565    3.9464857   -3360.1078    300.59355    314.04998     1.016105 
   82000    331.28157   -3974.6901    5.1909034   -3307.3988    305.67102    63.881969   0.98768758 
   83000    335.33317   -3909.3111    5.4942086   -3268.9042    293.11936   -88.845594   0.94411008 
   84000    339.35697   -4014.5648    4.4141797   -3344.6144    307.25724   -278.90415   0.97978144 
   85000    343.42572   -3971.8283    4.2496331    -3357.338    281.72903   -1402.3007   0.99500906 
   86000    347.51596   -3977.6629    5.2465057   -3356.8727    284.17727    -738.8419   0.97224664 
   87000     351.6088   -4001.4197    5.5823785   -3323.9702    310.18004   -850.98452   0.98207196 
   88000    355.78844   -4074.4577    4.1724077   -3413.0361    303.43142    716.09326   0.99590659 
   89000    359.93491   -4003.7669    5.9144415   -3324.4599    310.88427   -1038.9137     0.974803 
   90000    363.81999   -3966.4034     4.957977   -3311.8467    299.89943    27.975013    1.0041427 
   91000    367.84023   -3939.8816    4.9166762   -3283.1235    300.93481   -201.71502    1.0118066 
   92000    371.87336    -3964.999    3.7339465   -3319.4701    296.29664   -510.06335    1.0087623 
   93000    375.87218   -3976.7691    4.2506883   -3331.0584    296.14203   -740.14379   0.96988768 
   94000    379.90009   -3960.8861     2.823427   -3293.4543    306.82889    750.83694    1.0007408 
   95000    383.92504   -3982.7189    3.0051603    -3322.549    303.39241   -770.89718   0.98032313 
   96000    386.83176   -4019.7087    3.5340026    -3363.039    301.53231    39.251098   0.99157442 
   97000    389.34719   -4010.7373    3.2820765   -3335.2069    310.35605   -455.49005   0.97819937 
   98000    392.29554   -3946.7507    3.7836653   -3290.4475    301.24783    479.65887   0.99822286 
   99000     396.4586   -4017.1685    3.1328314   -3363.9992    300.10148    824.06025    1.0068177 
  100000    400.51558   -3980.2812    3.3339736    -3365.581    282.24869   -1018.5456   0.95804137 
  101000    404.62794   -4046.6679    5.0341216   -3424.1646    285.06624     809.8347   0.99867991 
  102000    408.71503   -4008.0239    2.6160902   -3375.4854    290.81551   -811.13535   0.98175754 
  103000    412.81222   -3945.6955    4.6989386   -3301.0102    295.46168   -144.95219   0.99265613 
  104000     416.9083     -4009.29    5.0668659   -3371.0034    292.33775   -883.71918   0.98397047 
  105000     421.0217   -3995.9658    5.6169767   -3385.7745    279.11304    823.22331   0.99126453 
  106000    425.09244   -3972.1927    3.3445844   -3306.8431    305.62702    377.53717    1.0000327 
  107000    429.15702   -3961.5261    2.7479754   -3298.7379    304.71992    871.63497   0.98376983 
  108000    433.24119   -3998.0845     4.768875   -3333.7692    304.49196    974.29734   0.99142874 
  109000    437.31018   -4040.4901    3.1278731   -3386.3856    300.53554   -28.100969   0.98478453 
  110000    441.37786    -4053.686    4.6027198   -3393.5207    302.65274   -2176.0606   0.98809975 
  111000    445.51797   -4007.8893    4.4171932   -3373.5208     290.8288   -683.63855    0.9805862 
  112000    449.66346   -3964.7972    4.7381342   -3299.9373    304.75758    1.6110286    1.0030861 
  113000    453.76082   -4025.1176    2.9947319   -3377.5871    297.56198   -110.72924   0.98514869 
  114000    457.84279   -4000.9798    6.3493201   -3327.6062    307.94425   -474.22678   0.97526853 
  115000    461.87233   -3949.1817    3.3527851    -3317.127    290.25203   -69.979324   0.99021911 
  116000    466.01822     -3947.36     4.965743   -3256.6436    316.58962   -887.19073   0.99224593 
  117000    470.10657   -3953.8818    2.2683616   -3314.3691    294.19576    65.667445   0.98404111 
  118000    474.20291   -3941.6139    1.7111792   -3284.7357    302.47009    181.21808   0.99357454 
  119000    478.40228   -4010.7301    2.7820273   -3369.3486     294.8214    419.45239    1.0176668 
  120000    482.60245   -4003.6335    3.5345791    -3343.819    302.98388    673.51472    1.0015215 
  121000     486.7193   -4019.9348    3.2613967   -3389.6484    289.47786    1229.0963    1.0071674 
  122000    490.82095   -3978.0754    3.8882811   -3314.6772    304.47511    125.82345   0.99180717 
  123000    494.97312   -4005.5053    4.4100286   -3335.2268    307.41062    46.682849   0.98052858 
  124000    499.17812   -4001.6245    4.0739449   -3334.7132    306.01129    457.68168    0.9858825 
  125000    503.32962    -4010.101    4.5155019   -3344.9019    305.01695    719.88627   0.97882512 
  126000    507.45673    -3996.009    2.8246029   -3365.4927    289.78563    590.68069   0.99683163 
  127000    511.70133   -3938.4699     4.361478   -3282.0154    301.05096   -241.55177   0.99693357 
  128000    515.87034   -3964.3613    4.0073233   -3301.2061    304.30795    662.90716   0.98737194 
  129000    519.97027   -3972.1691     4.317556   -3325.0874    296.74409    325.89352   0.97668739 
  130000    524.10851   -3994.7576    4.2622205   -3339.2692    300.65076   -422.02232   0.98291355 
  131000    528.21569   -4056.8551    4.3325839   -3422.4662    290.87733   -763.70697   0.99304831 
  132000    532.38041    -4030.438    2.6306991   -3359.4663    308.55214    563.98552   0.98325514 
  133000    536.51502   -4027.2808    3.9931128   -3392.4497    291.23819    367.69655    0.9782162 
  134000    540.66546   -4005.2759    3.2596501   -3395.3202    280.09257   -807.69488   0.98001529 
  135000    544.84468    -3986.752    3.7394064   -3335.9863     298.7118    -482.0525   0.99420977 
  136000    548.97369   -4025.3645    2.7302154   -3384.4538    294.62795    126.87997    0.9924505 
  137000    553.18689   -4024.4739    3.1269812   -3368.0014    301.62921   -744.34318   0.98654793 
  138000    557.45726   -4022.7738     5.299982   -3383.3275    292.76555   -542.01356     0.979804 
  139000    561.64297   -3972.1501    3.8872031   -3344.5584    287.94487   -392.37423   0.96995949 
  140000    565.78305   -3999.5034    3.4112404   -3367.2319     290.3251   -332.72559   0.98088339 
  141000    570.00468   -3987.4548    3.6083117   -3315.7693    308.43033   -140.55419   0.99395087 
  142000    574.16345   -3993.8509    4.1636554    -3338.516    300.62539    -327.1675   0.98998269 
  143000    578.29571   -3974.4392    1.9001533   -3313.6566    304.18539    104.96584    1.0014302 
  144000     582.4891     -4033.93    3.5544129   -3409.9123     286.4485   -554.00493   0.98339341 
  145000    586.53694   -3960.5379    6.3619224   -3260.4024    320.29357    944.10113    0.9887659 
  146000    590.66243   -3974.3913     5.258089   -3312.3084    303.23546    863.36735   0.98324799 
  147000    594.81042   -4019.9453    3.4097057   -3368.3864    299.23022    188.86557   0.98513631 
  148000    598.96611   -3958.3253    1.3246063   -3298.8357     303.8542    1452.4086   0.98128233 
  149000    603.12485   -4039.7496    2.5429347   -3404.0027    292.33047    473.61074   0.97683601 
  150000    607.23706   -4001.4892     1.670871   -3383.2555    284.64778   -513.56719   0.97757686 
  151000    611.40056   -4013.2161    3.5783048   -3345.3297    306.69027   -332.63964   0.98779128 
  152000    615.61379   -3978.2156    2.8407917   -3337.2928    294.58248   -1070.9781   0.99454336 
  153000    619.76633   -4026.8717    4.0115247   -3388.4128    292.90449   -961.26217   0.95961246 
  154000    623.87159   -3995.7692     3.062491   -3323.6857    308.86608    412.62612   0.99164579 
  155000    627.94937   -4084.0998    2.6029381   -3473.9858    280.46886    317.58734    1.0175158 
  156000    632.03365   -4030.8757    4.1470358   -3354.8765    310.17311   -466.43574   0.99396449 
  157000    636.09231    -3994.759    1.9270234   -3350.4998    296.54468    355.14758    0.9836794 
  158000    640.20039   -4009.4372    6.3730375   -3388.2027    283.86232    161.11785   0.98576003 
  159000    644.31816   -3977.4001     4.330539   -3334.0707    295.00576    1571.8247    1.0073938 
  160000     648.3885   -3993.5967    4.5564028   -3335.9606    301.50645     314.5924    1.0000641 
  161000    652.51089   -3978.3875    4.1383737    -3315.814    303.97894    438.32661   0.98779553 
  162000    656.61871   -4009.3546    2.7766612   -3352.0406    302.17941   -345.94553   0.99621464 
  163000    660.76423   -3956.6283    3.7207588   -3287.0917    307.38634   -881.92759   0.98797695 
  164000    664.77278   -3970.7688    3.4753576   -3320.9844    298.38067   -505.30241    0.9863361 
  165000    668.64283   -3945.6586    2.2712996   -3270.5469    310.62939   -55.386601    0.9702413 
  166000     672.4345   -3962.7144    6.7155024   -3338.6633    285.00453    1151.5089   0.98195499 
  167000    676.14095   -3958.3529    5.4119285   -3301.7878    300.61708    595.30051   0.99450324 
  168000    679.15935   -3970.7851    3.9726662   -3342.5453    288.20459    245.71114    0.9885254 
  169000    682.72003   -4015.7686    4.0889626    -3351.836    304.62918   -95.987498   0.98299438 
  170000    685.46843   -4004.9101    5.7179376   -3337.9041    305.29602   -1145.8577   0.98986798 
  171000    689.58676   -3969.6682    5.2303024   -3295.7981     308.6901    354.68998   0.98348486 
  172000    693.72426   -4009.6681    3.6320193   -3329.7688    312.21146    45.599589    1.0050605 
  173000    697.90093   -4018.2986   0.96987754   -3374.7492    296.65885   -139.32428    1.0116225 
  174000    701.97858   -4041.8941    1.7346108   -3384.1325    302.86715    937.97394    1.0008739 
  175000    705.97585   -4049.8237    2.0609413   -3384.1509    306.36886   -311.29634   0.99741503 
  176000    710.02409   -3975.9202    3.8911942   -3314.9717     303.3428    1356.4168   0.97859067 
  177000    714.08857   -3978.6397    2.3620574   -3301.3936    311.57285   -58.712829   0.99128911 
  178000    718.23859   -4019.4242     3.205711    -3383.743    291.99416    193.79612    1.0037976 
  179000    722.33296    -3973.122    5.7203023   -3343.7767    287.90816    32.120737    0.9889566 
  180000       726.53   -4038.0889    4.7359339   -3421.7365    282.36419    1135.1374    1.0031188 
  181000    730.58453   -4029.7656    4.6563667   -3360.7251    306.72538   -338.14915   0.98828666 
  182000    734.67246    -4002.317    2.8582252   -3344.2077    302.50891   -687.15293   0.98334534 
  183000    738.80246   -3971.5007    3.1281342   -3285.6628    315.18577   -58.706558    1.0084404 
  184000    742.90848   -3977.3846    3.2604023   -3303.6088      309.556   -393.93446   0.98425688 
  185000    746.96773   -4016.8919    2.9764713   -3385.3321    290.19728   -1162.5038   0.97756575 
  186000     751.0385   -3996.4774    4.4959128   -3361.1943    291.21472   -503.69506   0.98874562 
  187000    755.10416   -3979.7172    3.2761839   -3334.1443     296.5283    49.389038   0.99090683 
  188000    759.13637   -4006.3563    4.1058743   -3352.0286     300.1871    845.66061   0.99026121 
  189000    763.16732    -3991.605    5.5268164    -3320.565    307.24661    -1263.886   0.98013253 
  190000    767.24057   -3995.2184    5.2983353   -3360.5327    290.56843    590.26457    0.9868963 
  191000     771.3049    -4001.867    3.9743796    -3296.887    323.63239    574.36738   0.98436517 
  192000    775.38236    -4043.464    6.2478737    -3405.615     291.5905   -448.48646   0.99695458 
  193000    779.30689   -3932.8563     3.656468    -3279.021    300.16721   -923.69217   0.98205237 
  194000    782.50359   -3922.2085    3.3985446   -3239.5882    313.57543   -1193.6956   0.96452928 
  195000    786.51374    -3994.321    5.4418688   -3338.2574    300.37171    787.85118    1.0164835 
  196000    790.57153   -4031.2598    3.6287024   -3378.3763    299.74065    369.55055    1.0102649 
  197000    794.57919   -4036.9704    3.9597122   -3385.3709    298.99507   -67.467406   0.98625719 
  198000    798.61043   -3972.0522    3.8558904   -3283.8506    315.94102    1728.6236   0.98982417 
  199000    802.29638   -3997.6043    3.2329464   -3373.0759     286.8327    652.58486   0.99825249 
  200000    805.05451   -3989.8671    4.9888731   -3315.4318    309.06247    -1737.717   0.97162748 
Loop time of 805.055 on 12 procs for 200000 steps with 1090 atoms

Performance: 21.464 ns/day, 1.118 hours/ns, 248.430 timesteps/s
91.0% CPU use with 12 MPI tasks x 1 OpenMP threads

MPI task timing breakdown:
Section |  min time  |  avg time  |  max time  |%varavg| %total
---------------------------------------------------------------
Pair    | 262.92     | 278.06     | 293.1      |  63.2 | 34.54
Bond    | 0.23838    | 0.60998    | 1.6436     |  53.1 |  0.08
Kspace  | 259.62     | 274.63     | 289.27     |  62.8 | 34.11
Neigh   | 21.94      | 21.987     | 22.051     |   0.7 |  2.73
Comm    | 59.199     | 60.576     | 63.291     |  15.2 |  7.52
Output  | 0.011903   | 0.012344   | 0.016729   |   1.2 |  0.00
Modify  | 150.16     | 157.07     | 160.66     |  23.3 | 19.51
Other   |            | 12.1       |            |       |  1.50

Nlocal:        90.8333 ave         102 max          81 min
Histogram: 3 0 0 2 2 2 0 1 0 2
Nghost:        3709.92 ave        3742 max        3677 min
Histogram: 2 1 0 1 1 0 3 2 1 1
Neighs:        31732.8 ave       37483 max       27572 min
Histogram: 1 3 0 2 3 1 0 1 0 1

Total # of neighbors = 380793
Ave neighs/atom = 349.35138
Ave special neighs/atom = 2.0587156
Neighbor list builds = 8444
Dangerous builds = 1

reset_timestep 0

variable lambda equal ramp(0.0,1.0)
variable minusl equal 1.0-v_lambda
variable q1 equal  0.145*v_lambda-0.180*(1.0-v_lambda)
variable q2 equal -0.180*(1.0-v_lambda)
variable q3 equal  0.060*(1.0-v_lambda)
variable q4 equal  0.040*v_lambda+0.060*(1.0-v_lambda)
variable q5 equal -0.683*v_lambda
variable q6 equal  0.418*v_lambda

fix ADAPT all adapt/fep 100000     pair lj/cut/coul/long/soft lambda 2*3 7*8 v_minusl     pair lj/cut/coul/long/soft lambda 3 4 v_minusl     pair lj/cut/coul/long/soft lambda 4 6 v_lambda     pair lj/cut/coul/long/soft lambda 5*6 7*8 v_lambda     atom charge 1 v_q1     atom charge 2 v_q2     atom charge 3 v_q3     atom charge 4 v_q4     atom charge 5 v_q5     atom charge 6 v_q6     after yes

variable dlambda equal  0.05
variable minusdl equal -0.05
variable dq1 equal (0.145+0.180)*v_dlambda
variable dq2 equal  0.180*v_dlambda
variable dq3 equal -0.060*v_dlambda
variable dq4 equal (0.040-0.060)*v_dlambda
variable dq5 equal -0.683*v_dlambda
variable dq6 equal  0.418*v_dlambda

compute FEP all fep ${TK}     pair lj/cut/coul/long/soft lambda 2*3 7*8 v_minusdl     pair lj/cut/coul/long/soft lambda 3 4 v_minusdl     pair lj/cut/coul/long/soft lambda 4 6 v_dlambda     pair lj/cut/coul/long/soft lambda 5*6 7*8 v_dlambda     atom charge 1 v_dq1     atom charge 2 v_dq2     atom charge 3 v_dq3     atom charge 4 v_dq4     atom charge 5 v_dq5     atom charge 6 v_dq6     volume yes
compute FEP all fep 300     pair lj/cut/coul/long/soft lambda 2*3 7*8 v_minusdl     pair lj/cut/coul/long/soft lambda 3 4 v_minusdl     pair lj/cut/coul/long/soft lambda 4 6 v_dlambda     pair lj/cut/coul/long/soft lambda 5*6 7*8 v_dlambda     atom charge 1 v_dq1     atom charge 2 v_dq2     atom charge 3 v_dq3     atom charge 4 v_dq4     atom charge 5 v_dq5     atom charge 6 v_dq6     volume yes

fix FEP all ave/time 20 4000 100000 c_FEP[*] file fep01.fep

thermo_style custom step cpu epair emol etotal temp press density v_lambda

dump TRAJ all custom 20000 dump.lammpstrj id mol type element xu yu zu
dump_modify TRAJ element C C H H O H H O

#restart 20000 restart1.lmp restart2.lmp

run 2000000
PPPM initialization ...
  using 12-bit tables for long-range coulomb (src/lammps/src/kspace.cpp:339)
  G vector (1/distance) = 0.30705953
  grid = 20 20 20
  stencil order = 5
  estimated absolute RMS force accuracy = 0.0026525602
  estimated relative force accuracy = 7.9881064e-06
  using double precision FFTW3
  3d grid and FFT values/proc = 4046 800
FEP settings ...
  temperature = 300.000000
  tail no
  lj/cut/coul/long/soft lambda 2-3 7-8
  lj/cut/coul/long/soft lambda 3-3 4-4
  lj/cut/coul/long/soft lambda 4-4 6-6
  lj/cut/coul/long/soft lambda 5-6 7-8
  1-1 charge
  2-2 charge
  3-3 charge
  4-4 charge
  5-5 charge
  6-6 charge
Neighbor list info ...
  update every 1 steps, delay 10 steps, check yes
  max neighbors/atom: 2000, page size: 100000
  master list distance cutoff = 12
  ghost atom cutoff = 12
  binsize = 6, bins = 4 4 4
  3 neighbor lists, perpetual/occasional/extra = 3 0 0
  (1) pair lj/cut/coul/long, perpetual, skip from (3)
      attributes: half, newton on
      pair build: skip
      stencil: none
      bin: none
  (2) pair lj/cut/coul/long/soft, perpetual, skip from (3)
      attributes: half, newton on
      pair build: skip
      stencil: none
      bin: none
  (3) neighbor class addition, perpetual
      attributes: half, newton on
      pair build: half/bin/newton
      stencil: half/bin/3d/newton
      bin: standard
Per MPI rank memory allocation (min/avg/max) = 17.08 | 17.23 | 17.29 Mbytes
Step CPU E_pair E_mol TotEng Temp Press Density v_lambda 
       0            0   -3989.8626    4.9888731   -3315.4273    309.06247   -1593.3122   0.97162748            0 
    1000     2.861754   -4046.4348    2.6482196   -3399.6567    297.37458    573.11551   0.99943058       0.0005 
    2000    6.2354362   -4015.3429    4.7206277   -3376.1076     292.9356   -914.46001    1.0056144        0.001 
    3000    9.6035216   -4020.2847    3.8734624   -3389.7465    289.31151    749.99923   0.99712019       0.0015 
    4000     12.94163   -4064.0509    2.6404179   -3412.6315    299.52096   -614.95013   0.98609213        0.002 
    5000    15.631035   -4029.8551    4.0986409   -3358.1051    308.23376    -481.9684   0.97864571       0.0025 
    6000    17.847868   -3987.1666    6.0966225   -3317.6476    306.28135    -177.3341   0.96402149        0.003 
    7000    21.216911   -3962.7108    3.8001512   -3300.6418    303.90213    -684.8158   0.95766993       0.0035 
    8000    24.640888   -3972.1824    4.8518107   -3334.9711     291.9406     1540.407    1.0023916        0.004 
    9000    28.092244   -4000.4833    5.5493665   -3371.8821    287.64355   -638.06677   0.98354656       0.0045 
   10000    31.524889   -4011.5914    5.6014225   -3345.7067    304.83212    91.319269   0.97993114        0.005 
   11000    34.994835   -4084.2988    5.8989404   -3449.7734    290.21719    334.58588   0.99263653       0.0055 
   12000    38.419943   -4004.3267    6.6463158   -3352.8733    297.68731   -251.07973   0.99568526        0.006 
   13000    41.863036   -4057.4119    7.0960247   -3366.2432    315.81494   -302.43876    1.0184581       0.0065 
   14000    45.337643   -3985.6322    3.2921874   -3318.4776     306.4845   -450.56741   0.97514814        0.007 
   15000     48.77888   -4018.6684    7.7863333   -3329.6337    314.51107    1818.0177    1.0158004       0.0075 
   16000    52.253076   -3935.2491    5.1507857   -3311.0922    285.77574    405.66107   0.99814814        0.008 
   17000    55.709986   -3986.7236    8.9574591     -3319.59    303.85934   -393.75196    1.0057428       0.0085 
   18000    59.186539   -3935.5024    7.3304685   -3301.8265     289.1641   -1108.0719   0.99369233        0.009 
   19000    62.591856   -3963.0497    3.2999244   -3294.9374    306.92308   -313.32187   0.99200655       0.0095 
   20000    66.033022   -3941.1389    6.9070949   -3286.1983     299.1768   -144.73908   0.96557518         0.01 
   21000    69.710279   -3996.1626    2.4259903   -3300.9165    319.85339    204.95103   0.99074933       0.0105 
   22000    73.592649   -3957.1778    3.5595779   -3297.1781    303.05789   -416.10338   0.99811997        0.011 
   23000     77.39801   -3908.9747    6.1614106   -3231.0334    310.13974    882.19077   0.96803769       0.0115 
   24000    81.247439   -4001.0604    3.6941967   -3350.3428    298.71045   -488.13745   0.97730169        0.012 
   25000    85.048216   -4016.4603    6.1929555   -3349.9873    304.83065   -781.96387    0.9882948       0.0125 
   26000    88.825353   -3971.6918    3.8727837    -3317.304    300.32242   -578.53777   0.97592468        0.013 
   27000    92.640572   -3989.9522    7.0500875   -3335.9713    298.66773    18.073869   0.98099454       0.0135 
   28000    96.424165   -3990.6301     7.001533   -3314.6113    308.86432     -583.029   0.99576334        0.014 
   29000    98.993591   -3960.9647    6.1807549   -3295.8706    304.19968   -236.98089   0.97565273       0.0145 
   30000     101.4451   -3989.4585    7.1152559   -3329.3097    301.48516   -278.23901   0.99367324        0.015 
   31000    105.18831   -4019.6039    5.3453617   -3379.7956    292.91166   -151.63173    0.9943171       0.0155 
   32000    108.96884   -4021.4436    3.8671511   -3372.6887    297.72453   -241.70947   0.98859531        0.016 
   33000    112.79682    -3992.313    5.5747048   -3335.7078     300.5604    498.34771   0.98904449       0.0165 
   34000    116.50342   -4019.9104     4.169775   -3363.9219    300.92429   -566.44233   0.97049389        0.017 
   35000    120.10851   -3980.1747    4.3966666   -3313.3184     305.8369   -254.47569   0.96181128       0.0175 
   36000    123.34414   -3955.4062    4.0928217   -3312.4161     294.9589   -547.78428   0.97666681        0.018 
   37000    126.98773   -4029.8266    5.3028314   -3390.8668    292.53961   -414.99072   0.98991759       0.0185 
   38000     130.6632   -4022.1385    5.3281157    -3364.266    301.25935   -310.50348   0.97250159        0.019 
   39000    134.34238   -4042.3094     6.578766   -3377.6198    303.82916   -171.53998   0.97860061       0.0195 
   40000    137.58663   -3986.4769    4.1123608   -3322.5265    304.62658    383.83087   0.99383787         0.02 
   41000    141.36362   -4027.4684    4.5051618   -3369.2588    301.79489   -92.687647   0.97474073       0.0205 
   42000    145.11537   -4003.3317    2.9931832   -3337.6326    305.95058   -1053.7707   0.97143891        0.021 
   43000    148.94581   -3997.0913    4.5900713   -3337.4888    302.39873     108.1503    0.9695453       0.0215 
   44000    152.79788   -4015.1593     3.550875   -3372.9162    294.86422   -137.11515     1.003113        0.022 
   45000    156.52037   -3957.0401    3.3914445   -3313.9472    295.33016    418.13427   0.98085293       0.0225 
   46000    160.25658   -4020.7642    3.7175796   -3367.3305    299.95363    544.77064   0.99436083        0.023 
   47000    164.00488   -4018.8484    2.4055731   -3389.1954    289.58053   -1363.9109   0.97796034       0.0235 
   48000    167.80815   -3983.9518    1.5833662   -3365.4255    284.82324    1291.9029     1.001315        0.024 
   49000    171.52634   -4025.6152    3.8719158   -3410.6424    282.12615    602.72662    1.0071544       0.0245 
   50000    174.12573   -3983.0497    4.4021987   -3306.5377    310.29205   -610.59387   0.98573704        0.025 
   51000     177.7428   -4008.4734    2.4838602   -3303.5191    324.30863    257.75771   0.98306461       0.0255 
   52000    181.48587   -4003.3071    3.1577878   -3329.0897    309.80723    -147.1165    0.9813666        0.026 
   53000     185.2529   -4065.1012    3.9915463   -3438.9051    287.25239     384.9358    1.0015775       0.0265 
   54000    189.01708   -4040.9634    2.4001939   -3370.8371    308.26828    542.14722    1.0081298        0.027 
   55000    192.79998   -4035.9182    3.9926785   -3344.2086    317.49737    287.31165   0.99017811       0.0275 
   56000    196.56079   -4024.8591    3.7139401   -3364.7134    303.05402     -456.979   0.99424095        0.028 
   57000    200.32842   -4010.8355    4.7002139   -3350.3988    302.73303   -286.31538   0.98002115       0.0285 
   58000    204.06411   -3962.7243    4.1656253   -3282.8842    311.93775    661.21056    1.0044156        0.029 
   59000    207.88132   -4024.1732    4.3220256   -3373.3918    298.45006    80.101785     1.012141       0.0295 
   60000    211.65064   -3974.6464    5.6368103   -3317.0305    300.99835    1801.2648    0.9904831         0.03 
   61000     215.4321   -4011.1191    3.8275172   -3354.0753    301.56955   -794.20257   0.97563964       0.0305 
   62000    219.17188   -3997.5591    4.6927278   -3327.2812    307.27985    37.638525    0.9820382        0.031 
   63000    223.03616   -3999.2085    2.6204335   -3377.2332    285.93677    593.28062    1.0025895       0.0315 
   64000    226.79066   -4035.2122    4.5299781   -3387.5155    296.92996    851.41853    1.0020348        0.032 
   65000    230.57592   -3977.3321     3.901761   -3334.5243     294.9629   -25.700849   0.97274191       0.0325 
   66000    234.31121    -4012.544    7.5111702   -3330.4108     311.4519    1109.5917     1.001015        0.033 
   67000    238.05758    -3988.586    6.0356937   -3338.9959    297.10897    423.29122   0.98925112       0.0335 
   68000    241.77882   -3975.8833    4.0592153   -3330.8203    295.93142   -651.55157   0.97452046        0.034 
   69000    245.45822   -3993.6487    5.1224499   -3341.9945     298.4835   -1080.4028   0.97913233       0.0345 
   70000    249.07081    -3996.797     5.021824   -3345.7347    298.25666    50.054009   0.96382983        0.035 
   71000    252.80542   -3973.8677    5.4883974   -3322.5125    298.17648    -829.7963   0.97435796       0.0355 
   72000    256.57651   -4009.7017     5.835208   -3366.9354    294.05116     -103.718   0.99327154        0.036 
   73000    260.29427   -4004.0884    5.6705264    -3370.144    290.05438   -1021.1105   0.99701792       0.0365 
   74000    264.14518    -3947.454    7.2047901   -3288.1249    301.06537    496.41887    1.0048847        0.037 
   75000    267.95026   -3988.6031    4.1639642   -3320.9367    306.31831    229.33583   0.99763956       0.0375 
   76000    271.73745   -3921.2465    4.0604526   -3289.4906    289.78734   -819.87225   0.98074012        0.038 
   77000    275.44894   -3966.1665     5.217645   -3290.3832    309.57919   -249.07446   0.98918806       0.0385 
   78000    279.19605   -3953.0425    5.5327531   -3278.6484    308.79236    226.77157   0.99189207        0.039 
   79000    282.84643   -4017.7396    3.2836182   -3388.7159    288.88463    115.44883    1.0082387       0.0395 
   80000    286.53149    -3974.776    3.4994804   -3335.6627    293.44304    -130.3206   0.97217861         0.04 
   81000    290.23006   -3982.8017    10.123569   -3274.6001    322.28083   -1117.2194   0.97179732       0.0405 
   82000    293.65959   -3972.9959    8.1881334   -3353.4049    282.26558    489.81762   0.99732497        0.041 
   83000    295.99505   -3962.5015    8.3372495   -3299.6151    302.18489    142.14545   0.99547123       0.0415 
   84000    298.37256    -4011.906    7.7860259   -3374.8244    290.52609    -148.1724    1.0196685        0.042 
   85000    301.06007   -4008.6562    7.3389637   -3395.4621    279.70439   -595.42643   0.99386767       0.0425 
   86000    304.08287   -3978.8291    8.2313076   -3339.4347    291.38825   -325.80102    1.0025945        0.043 
   87000    307.82622   -4032.5322    9.1676851    -3342.588    314.29324    971.02291   0.99187233       0.0435 
   88000    310.81436   -3992.4223    8.8752249   -3353.7216    290.77069   -350.37204   0.98747744        0.044 
   89000      313.694   -3969.0189    8.3779908   -3320.2598    295.64394    446.37299    1.0086398       0.0445 
   90000    317.46637   -4009.0858    5.8923003   -3351.3623    300.93009   -440.81423   0.98426103        0.045 
   91000    320.66157   -3966.9284    5.5735017    -3290.697    309.62177   -720.47047   0.96657561       0.0455 
   92000    324.34631   -3985.3564    4.6519347   -3328.5872    301.06214    175.53383    0.9931494        0.046 
   93000    328.29291   -4035.0728    5.2655399   -3396.6648    292.30206    721.31106    1.0054828       0.0465 
   94000     332.2664   -3972.9493    7.6597612   -3329.2999    293.61656   -919.39648    1.0156417        0.047 
   95000    336.25071   -4020.1584    4.8240572    -3405.033    281.75705    687.01942   0.99861861       0.0475 
   96000    340.12479   -4031.1058    7.2567512   -3376.3229    298.94254   -409.58263     0.995252        0.048 
   97000    343.86542   -3995.2175     5.139844   -3310.4505    313.76259    1032.8857   0.98913094       0.0485 
   98000    347.62877   -3968.1089    3.2157066   -3315.0332    300.02005    420.41334   0.98887441        0.049 
   99000    351.65374   -3919.4257    4.5867036   -3252.2922    305.87713   -110.47522   0.97067744       0.0495 
  100000    355.46057   -4063.7736    4.6358591   -3370.9332     317.7225    483.48474   0.98881699         0.05 
  101000    358.89189   -4075.2681    4.7226581   -3392.5829    312.99412    338.00168   0.99356972       0.0505 
  102000    362.30622   -3988.0766    5.9557661   -3361.6715    286.44204    1727.3591    1.0157394        0.051 
  103000    365.77579   -3992.9751    5.2533701    -3322.395    307.16052   -153.54208   0.97880843       0.0515 
  104000    369.34215   -4037.8974    3.2088946   -3392.5651    296.44831   -1201.2067    0.9842143        0.052 
  105000    372.94114   -4003.3856    3.5549199   -3359.1572    295.77889   -2.4684287   0.99981919       0.0525 
  106000    376.44933   -3932.6227    4.2617139   -3277.2567    300.59451    1054.5704   0.98889213        0.053 
  107000    379.93001   -4044.2486    4.5523854   -3374.2247    307.22738    571.04835     1.007074       0.0535 
  108000    383.34995   -3991.7844    2.1403996   -3357.7224    291.73846   -516.59612   0.98533365        0.054 
  109000    386.81971   -3996.6939    3.8930323   -3352.5144    295.60024    709.56312    1.0011686       0.0545 
  110000    390.34807   -3982.3223    3.4033607   -3311.9274    307.92914    64.116383   0.99692205        0.055 
  111000    393.84103   -3931.7438    2.1224609   -3300.6261    290.38743    1709.0852   0.99651219       0.0555 
  112000    397.40523   -3994.5019    4.2767213   -3343.6213    298.51678   -8.3634986   0.98426498        0.056 
  113000    400.91867   -3965.5246    3.9699635   -3299.9305    305.45121    600.49992    1.0113488       0.0565 
  114000    404.45647   -3975.2078    3.5807123   -3312.9981    304.06842   -811.09628   0.98582139        0.057 
  115000    408.01747   -4035.8683    2.6866278   -3421.4836    282.40187    411.10423   0.99164721       0.0575 
  116000     411.3911   -4002.6007    6.1695443   -3343.2903    301.53468   -753.90747    0.9754699        0.058 
  117000    414.77492   -3973.4825    6.5216778   -3349.8506    284.90052    910.91272   0.98746418       0.0585 
  118000     418.0153    -3972.555    6.0563944   -3313.2665    301.57683   -174.49254   0.99068318        0.059 
  119000    421.54537   -3948.6903     4.089395   -3269.2008    311.81113    333.26892    1.0121605       0.0595 
  120000    424.91244   -4036.0541    5.6514502   -3398.7872    291.59712    455.80286    1.0025836         0.06 
  121000    428.73538   -3978.0451    3.6433139   -3320.5479    301.86391    1037.9669    0.9768199       0.0605 
  122000    432.54159   -3983.3935    5.2884343   -3347.6516    291.06065    286.44493   0.98704764        0.061 
  123000    436.42318   -4003.3747    4.5537076   -3317.6892    314.45721    181.90599   0.96025885       0.0615 
  124000    440.06258   -4002.6969     4.496703   -3367.9015    290.98917   -748.27107   0.96132245        0.062 
  125000    442.82813   -4032.3166    3.8530438   -3381.1491    298.84483   -106.57025   0.97833441       0.0625 
  126000    445.21425   -4017.0881    5.7368664   -3357.2946    301.95747    310.39877    1.0006458        0.063 
  127000    448.90444   -4008.5543    6.5740555   -3382.0206      286.216    323.02836   0.99601483       0.0635 
  128000    451.72472   -3998.4368    7.0926659   -3326.1716    307.08934    407.91538     1.011639        0.064 
  129000    454.14484   -3955.7086     5.247659    -3308.793    296.23801   -875.61077    0.9657699       0.0645 
  130000    458.07606   -4039.9315    3.4013064   -3370.6566    307.41303    84.886744   0.98842532        0.065 
  131000    462.21334   -3989.4566    6.0539376   -3342.0622    296.08685    632.58256   0.98141127       0.0655 
  132000    466.31383   -4008.7664    7.8986335   -3347.2177    301.76981   -1311.0985   0.98428956        0.066 
  133000     470.2204   -4021.9468    7.5034544   -3341.1021    310.86058   -488.08318   0.97190912       0.0665 
  134000    474.10046   -4006.1969    10.234425   -3343.4474    301.24583   -1369.1954   0.99976747        0.067 
  135000    477.97441   -3973.4711    7.0639143   -3327.8977    294.77988   -1284.1035   0.98882623       0.0675 
  136000    481.78758   -4022.7057    6.8679431   -3360.3349    302.62517    -669.2033   0.98579345        0.068 
  137000    485.66199   -3998.0202    8.0523239   -3324.4462    307.25057    210.28401   0.97261366       0.0685 
  138000    489.52952   -4006.2277    8.2231639   -3376.5632        286.9   -776.52588   0.98300736        0.069 
  139000    493.18327   -4039.2845    8.9642869   -3387.6348    296.70777   -220.56754   0.98844235       0.0695 
  140000    496.89297   -3991.9977    8.2228933   -3314.6677    308.90584    56.484804    0.9885566         0.07 
  141000    500.78399   -4041.3875    7.1715639   -3391.9242    296.52602    -1012.693   0.98707775       0.0705 
  142000    504.61837   -4000.0184    4.1025297     -3341.75    302.00793   -662.60471   0.99791335        0.071 
  143000    508.49622   -3982.8788    3.3801576   -3302.7469    312.43509   -1048.5649   0.98481681       0.0715 
  144000     512.3675   -3996.2905    5.6577618   -3332.8652     303.6707    334.19025   0.99809269        0.072 
  145000    516.14009   -4029.2987     4.510054   -3407.7272      284.878   -135.97164   0.99304303       0.0725 
  146000    519.97587   -4009.6033    7.4222268   -3355.0901    298.74169   -988.26734    0.9857478        0.073 
  147000    523.82653   -4060.1974    3.3744313    -3400.504    303.00197   -44.755956   0.99326189       0.0735 
  148000     527.6034   -3984.7246    6.7807238   -3329.3179    299.45033   -798.05677    0.9712008        0.074 
  149000    531.43656   -3995.8503    5.4154102   -3344.9921    297.98074    662.45313     0.991577       0.0745 
  150000    535.23503    -3966.062    8.1798284   -3314.9115    296.83944   -492.92391    0.9751681        0.075 
  151000    538.99308   -3991.3747    4.6322411   -3359.3272      289.658    -213.3165   0.96215461       0.0755 
  152000    542.81138   -4011.8139    6.6631211   -3341.7745     306.2601    1245.2658   0.99437836        0.076 
  153000    546.83675   -3987.3814    5.2544613   -3343.2442    294.95216    1610.5526   0.98565927       0.0765 
  154000    550.97456   -3970.9883     6.536377   -3281.1366     315.4653    1000.3703   0.99570403        0.077 
  155000    554.78655   -4020.2195    6.8649362   -3361.5194    300.93192    1357.9011    1.0107826       0.0775 
  156000    558.51124    -4000.448    5.7642203   -3384.3087    281.79111   -531.20965    1.0062937        0.078 
  157000    562.31743   -3983.3887    6.5306558   -3329.5631    298.83582    700.95535   0.98419953       0.0785 
  158000    566.09594   -3989.0763    7.2169004   -3348.0963    292.58865   -1070.1439   0.97194723        0.079 
  159000    569.99482   -4042.6598    8.6735738   -3402.2529    291.65151    710.19656   0.99508815       0.0795 
  160000    573.83509   -4054.9473     5.832569   -3406.6112    296.62377   -214.81855    0.9934703         0.08 
  161000    577.55849   -4012.6608    7.2461002   -3354.1054    300.68911   -1114.9313   0.97669702       0.0805 
  162000    581.11955   -4017.8995    6.2465072   -3334.6026      312.573     405.9397   0.97996121        0.081 
  163000    584.91937   -3987.6796    5.5030889   -3316.8544     307.1584   -389.58576   0.97672837       0.0815 
  164000    588.72151   -3978.7327    5.8977609   -3325.2689    298.96097   -405.39684   0.98106552        0.082 
  165000    592.46758   -4026.5593    4.5105705   -3392.9016    290.45752    1213.7984    0.9856054       0.0825 
  166000    596.13339   -4026.0389    5.1057006   -3351.5151    309.04941   -1340.3386   0.98822366        0.083 
  167000    599.79697   -3979.4738    4.7974163   -3316.6711    303.78046    861.75284    1.0230217       0.0835 
  168000     603.3588   -3998.1763    3.3068545    -3367.772    289.51129    388.91489   0.98452344        0.084 
  169000    607.10841   -4026.7062    2.1148521   -3383.4664    295.98735    660.04491   0.98382359       0.0845 
  170000    610.78997   -3964.7088    3.9105972   -3312.0261    299.51783    937.66791   0.97507395        0.085 
  171000    614.68188   -3934.3267    4.6031545   -3265.5302    306.63729    756.78933    1.0096618       0.0855 
  172000    618.51938   -3944.8443    3.0689887    -3283.177    304.05425     151.5869   0.97740021        0.086 
  173000    622.26805   -3994.7053    2.8398124   -3342.8217    299.64325    522.44385   0.98082579       0.0865 
  174000    626.09998   -3943.1571    5.8826459   -3247.3663    318.50901    351.11346   0.96683631        0.087 
  175000    629.97372   -3974.4591    6.5722391   -3347.4663    286.42881   -1225.8829   0.95695642       0.0875 
  176000    633.69004   -3978.6582    6.6597317   -3333.1611    294.93126   -175.89809   0.98684072        0.088 
  177000    637.46688   -3970.2071     8.697796   -3300.3203    305.25029    -654.5025   0.97618014       0.0885 
  178000    641.14625   -3980.4778    6.9192137   -3332.8661    295.78769    987.71739    1.0173968        0.089 
  179000    644.89961   -4007.0267    7.8030819    -3376.102    287.67573    693.31749    1.0024595       0.0895 
  180000    648.68312   -3933.7307    8.4153656   -3260.8341    306.77022    -607.0913   0.96610184         0.09 
  181000        652.5   -3930.5779    7.6596052   -3259.4145    306.31898   -1014.4476   0.99162923       0.0905 
  182000    656.33846   -3966.0268    7.2749366   -3313.8341    297.73837   -838.89142   0.98519856        0.091 
  183000    660.16313   -3969.1383    7.7536455   -3303.6674    303.64748   -278.45007   0.98805274       0.0915 
  184000    663.99547    -3988.602    7.4756046   -3320.8448    304.83137    74.191658    1.0169284        0.092 
  185000    667.82055   -4074.4691    7.0084683   -3420.2974    298.77499    401.27109    1.0196474       0.0925 
  186000    671.61944   -4004.0972    5.6029173   -3368.2682    290.95569    219.09468    1.0078448        0.093 
  187000    675.43687   -4027.3477    7.7841207   -3370.5755    299.61748    313.89013    0.9960981       0.0935 
  188000     679.2513   -4006.0616    6.4403752   -3337.7706    305.55574    120.84879    0.9799441        0.094 
  189000    683.06037   -4018.5603    7.6587598   -3364.4432    298.44962   -683.44595   0.96449303       0.0945 
  190000     686.8395   -4036.7155     6.630295   -3394.9874    293.20479     105.9543   0.98442297        0.095 
  191000    690.64572    -4016.041    4.2515382   -3357.7325    301.95766    394.83236   0.99240227       0.0955 
  192000    694.49399   -3990.0811    3.9772869   -3351.2759    293.08018     491.3638    0.9912247        0.096 
  193000    698.27663   -3987.4293    6.9131446   -3310.6927    309.23656   -1195.1919   0.97671972       0.0965 
  194000    701.96731   -4047.8411    7.3714922   -3379.2887    305.24655    60.456319   0.99172585        0.097 
  195000    705.85322   -3968.4464    5.3395553   -3325.0404    294.57533    650.96745    1.0033621       0.0975 
  196000    709.61722   -4003.7531    6.2567161   -3342.6238    302.33419     372.9178    1.0014711        0.098 
  197000    713.55016   -3972.0296    7.9295876   -3309.2495    302.32401    315.30463    1.0012942       0.0985 
  198000     717.3826   -4056.6794    2.8438737   -3414.8585     294.9957    1412.9099    1.0059443        0.099 
  199000    721.23568   -3964.7548    4.2343341   -3319.7268     295.8344    801.44591     1.009337       0.0995 
  200000    724.82642   -4050.4473    6.5902154   -3394.0892    299.97751    94.565891   0.99280626          0.1 
  201000    727.09507    -4033.078     5.182499   -3414.8384    283.02929    1141.1355    1.0048053       0.1005 
  202000    730.46322   -3982.6871    5.9419105   -3313.2189    306.32934     1077.061   0.98796839        0.101 
  203000    733.64353   -4018.8358    6.1342417    -3349.561    306.15127   -589.67075    1.0012676       0.1015 
  204000    736.94128   -3970.8072    8.7402757   -3285.3108    312.43712   -1450.7741   0.95212057        0.102 
  205000    740.21602   -4029.4912    6.2684378    -3390.453       292.13   -635.16776     0.968328       0.1025 
  206000    743.58661   -3984.6679     3.850164   -3318.2893    305.86865    799.62233   0.99596527        0.103 
  207000    746.84171    -4002.387      5.60898   -3339.7792    303.31582   -1311.7083   0.98928435       0.1035 
  208000    750.19668   -4012.2176    4.3924491    -3374.136    292.55448   -21.667341    0.9999898        0.104 
  209000     753.4068   -3996.5669    5.5695088   -3342.4578    299.41048    576.41288    1.0005616       0.1045 
  210000    756.72391   -3980.0548    5.4293818   -3318.3995      302.959   -1359.7153   0.97042061        0.105 
  211000    759.53055   -4047.7513    7.2498499    -3397.124    297.02724    638.02669    1.0038454       0.1055 
  212000    761.76291   -4013.3195    5.4620601   -3346.1442     305.4923    305.82955   0.97870416        0.106 
  213000    763.95206    -4038.799    5.8276854   -3400.7772    291.86422    1375.3276    1.0066519       0.1065 
  214000     767.1883   -4003.0122    6.6458518   -3349.8662    298.46889   -415.24026   0.98767858        0.107 
  215000    770.47323   -4004.7836     5.352904   -3363.5106    293.58439   -474.46825   0.98000346       0.1075 
  216000    773.74571   -3981.8556    5.6799894   -3316.0912    304.74033    693.74137    1.0062378        0.108 
  217000    777.01623    -3980.993     5.543367   -3330.9224    297.55808    437.51705   0.98311334       0.1085 
  218000    780.23504   -3962.0208    3.9430792   -3327.7848    290.98651   -497.23337   0.95874667        0.109 
  219000    783.54567   -3962.0181    5.3924832   -3342.7202    283.42091    307.11392   0.96985536       0.1095 
  220000    786.89273     -3988.95    5.8923562   -3316.3934    307.77806    1124.9306   0.97993995         0.11 
  221000    790.72086   -4017.8105    4.4964805   -3360.5398    301.36545    360.40197    0.9885646       0.1105 
  222000    794.56413   -4006.4854    7.1000138   -3372.9473    289.20688   -1005.2118   0.97358303        0.111 
  223000    798.43747   -3997.1649    4.2788696   -3343.8029    299.66141    450.50746   0.99676923       0.1115 
  224000    802.15191   -4009.8839    4.9083826   -3354.3998    300.35047     265.1524    1.0197574        0.112 
  225000    806.10632   -4021.3221    7.4054403   -3372.8753    295.94874   -709.21113    1.0034817       0.1125 
  226000    810.17848   -4053.9245    6.4276729   -3393.8656    301.76112    73.291585   0.99578534        0.113 
  227000    813.99732   -3996.4425    4.5827684   -3329.8686    305.62061    779.19413    1.0080041       0.1135 
  228000    817.77543   -4000.8987    5.9397041   -3361.3656    292.51026   -71.281164   0.99080314        0.114 
  229000    821.49796   -3984.9378      3.10372   -3327.0495    302.29354    145.94098   0.98797041       0.1145 
  230000    825.27859   -3952.6018    3.5732124   -3327.6227    286.88369   -113.99767   0.97884967        0.115 
  231000    829.21891   -4073.5425    4.0600059   -3389.2323    314.05024    389.34493    1.0102133       0.1155 
  232000    832.96905   -3985.8548    3.3772057    -3328.179    302.06919    993.49742    1.0081596        0.116 
  233000    836.87618   -4052.4724    4.3037884   -3401.4922     298.5503    6.7516578   0.98778654       0.1165 
  234000    840.79495   -3994.5301    3.4138695   -3358.2239    292.18661    257.13868   0.98940023        0.117 
  235000    844.69884   -3928.1897    5.3332505   -3313.9312    281.12173    72.241178   0.97892069       0.1175 
  236000    848.63619   -4007.1109    4.0319627   -3353.8168    299.74402    1059.2565   0.98352684        0.118 
  237000    852.56178    -3982.258    4.1582302   -3317.4408    305.00557   -280.80643   0.99515916       0.1185 
  238000    856.45964   -4034.7319    3.2114255   -3388.4068    296.90549    520.52392     0.998973        0.119 
  239000    860.48625   -4015.0194    4.6515468   -3389.4086    286.67746   -510.27442    0.9750928       0.1195 
  240000    864.40075   -4005.2811    2.8738529   -3368.0734    292.85211    -475.8997    1.0055276         0.12 
  241000     868.3753   -3958.8128    6.4201993   -3312.1589    295.57592    59.959389   0.99514512       0.1205 
  242000    872.22874   -3967.9625    6.5853569   -3320.0408    296.08494   -367.70986   0.97457723        0.121 
  243000    876.19751   -4008.0777    10.152184   -3347.2962    300.37521    499.16606   0.99744253       0.1215 
  244000    880.06981   -4029.6909    7.9471197   -3311.1113    328.07683   -255.57398    1.0008236        0.122 
  245000    883.97641   -4013.1917    8.4187338   -3341.1164    306.38949    840.21436    1.0092353       0.1225 
  246000    887.79126   -4009.1246    5.4344773   -3356.4358     298.8171   -670.56713   0.98573237        0.123 
  247000    891.69991   -4048.7047     8.280868    -3408.419    291.77689    -402.1288    1.0085401       0.1235 
  248000    895.64624   -4013.0482    4.9360715   -3323.2568    316.17633    620.44793   0.99544433        0.124 
  249000    899.51688    -4016.888    5.2901097   -3349.4427    305.69634    268.92393   0.99205382       0.1245 
  250000    903.33354   -3976.2347    6.5397007   -3309.3593    304.85631    453.82156   0.99446384        0.125 
  251000    907.13113   -4001.0964      8.20791   -3361.5636      291.463   -2039.8757   0.96378889       0.1255 
  252000    910.96629   -3966.4137    6.3105839   -3335.7629    288.23836    681.51345   0.99214092        0.126 
  253000    914.70245   -4043.4451    5.7259995   -3432.9541    279.20108    1570.6855   0.99758687       0.1265 
  254000    918.58729   -4003.7307    3.1567671   -3338.9099    305.46959   -415.78198   0.98035792        0.127 
  255000    922.25709   -3990.2158     4.346916   -3310.6803    311.71348     769.8732    1.0026157       0.1275 
  256000    926.02872   -3986.0805    4.4905141    -3313.085    308.62783    206.44364   0.99503073        0.128 
  257000    929.70499    -3971.409     7.054712    -3278.582    316.59963   -856.93959    0.9866836       0.1285 
  258000    933.41368   -3968.0451    7.5584102   -3323.7875    293.94406    326.22488   0.99101795        0.129 
  259000    937.20262   -4024.9861    6.5340515   -3382.3667    293.66074    744.12817   0.98410794       0.1295 
  260000    941.04305   -3959.3895    9.3651708   -3280.8798    308.92313    405.03298   0.98829152         0.13 
  261000    944.90737   -3998.6207    7.0820743   -3325.5733    307.45536    175.22295    1.0000374       0.1305 
  262000    948.77514   -4019.5743    7.9943587   -3334.7623    312.46552    1172.8568    1.0020718        0.131 
  263000    952.55893   -4035.7829    9.8185748   -3361.8165    306.61624    1193.2023    1.0010604       0.1315 
  264000    956.34735   -3995.9547    9.2467966   -3337.0811    299.91239      139.386   0.97713508        0.132 
  265000    959.97138   -4040.1059    5.8063174   -3403.7116    291.12274   -63.967446   0.96808859       0.1325 
  266000    962.81481   -3967.6751    4.9125273   -3333.7079    290.41488   -405.09487   0.98385733        0.133 
  267000    966.37043   -4036.4451    7.1702868   -3387.8767    296.11343   -982.43199   0.98632715       0.1335 
  268000    969.81937   -4028.1194    5.6166609   -3363.5158    304.23367   -580.02114   0.98690762        0.134 
  269000    973.38806   -4063.2294    7.2905716   -3429.9676    288.99136    384.48836   0.99518955       0.1345 
  270000    976.80897   -4027.0033    7.4010084   -3375.8508    297.19991   -1283.7948    0.9837154        0.135 
  271000    979.92352   -4009.6787     5.680764   -3335.6116    308.57307   -703.35752   0.97771018       0.1355 
  272000    982.96605   -3972.3922    7.2010493   -3282.9409     314.9736   -385.32737    0.9886344        0.136 
  273000    986.81407   -3944.7309    4.0780217   -3284.9109     302.7356    -222.7726   0.98074526       0.1365 
  274000    990.70404   -4019.4538    5.0860493   -3352.2125    305.69638   -242.32938   0.97908101        0.137 
  275000      994.522   -4042.5866    6.3382407   -3396.1369    295.51946    -299.2999    0.9809371       0.1375 
  276000    998.39216   -4002.5936    5.6351158   -3310.7993    316.77822   -325.79717   0.96166057        0.138 
  277000    1002.1161   -3980.8349    4.5037821   -3317.6392    304.09746    1056.8261   0.97127873       0.1385 
  278000    1005.9092   -3979.2256    6.4704085   -3337.0167    293.50057    188.76684    0.9919513        0.139 
  279000    1009.7543   -3950.2993    6.0809643   -3320.8938    287.76947    1089.5521   0.99818625       0.1395 
  280000    1013.2278   -3962.6318    6.0741504   -3310.4968    298.26609   -971.20321   0.96622086         0.14 
  281000    1015.5607   -3995.5988    4.7197388    -3371.185    286.09337    182.58876   0.98467271       0.1405 
  282000    1017.9602   -4050.9358    4.6728129   -3412.1041    292.77132   -32.840829    1.0031053        0.141 
  283000    1021.1267   -4009.9063    4.9910977   -3345.8468    304.27128    358.02445   0.99556009       0.1415 
  284000    1024.8093   -4038.3846    4.9967748   -3406.9906    289.18801    152.72129    0.9812303        0.142 
  285000    1027.8711   -4001.7255    2.9172224   -3322.9946    312.00203   -744.55667   0.96736185       0.1425 
  286000    1031.6122   -3977.9964    4.1193249   -3344.9641    290.34944   -826.15263    0.9906643        0.143 
  287000    1035.3807   -3992.8763    4.3310985   -3370.9412    285.12845    514.36698   0.99501526       0.1435 
  288000    1039.1544   -4013.3871    2.6026986   -3383.0497     289.8055   -567.94457   0.99484567        0.144 
  289000    1042.8963   -4031.5898    5.8448451   -3394.7422    291.31427     365.6199    1.0067779       0.1445 
  290000    1046.8237   -3971.4458    3.8786119   -3327.2718     295.6044   -153.89201    1.0040732        0.145 
  291000    1050.4676   -4030.3165    4.2551395   -3383.4806    296.65944    -310.3012   0.99185409       0.1455 
  292000    1054.2275   -3996.9861    3.3658398   -3340.4268      301.559    220.99019    1.0124078        0.146 
  293000    1058.0754   -4063.0057    4.3112903   -3386.3615    310.39505   -106.59349    1.0005137       0.1465 
  294000    1061.8723   -3985.3626    2.9402209   -3300.4039    314.86658    675.93448   0.99138819        0.147 
  295000    1065.6771   -3993.0766    4.5824792   -3347.2375    296.04811    659.31523   0.98981418       0.1475 
  296000    1069.5079   -3962.0419    3.4486942   -3294.5455    306.57004    264.80863   0.99049656        0.148 
  297000    1073.4535   -3990.1582    4.6636249   -3310.2726    311.72885    323.62041    0.9885518       0.1485 
  298000    1077.3771   -3979.3146     4.129833   -3335.5019    295.32157   -265.36453    1.0033563        0.149 
  299000    1081.2573   -4007.0481    3.2615266    -3338.052    307.34886    1649.3889    1.0107322       0.1495 
  300000    1085.0911   -4002.0829    5.2585336   -3342.9442    301.87602   -697.82814   0.98786045         0.15 
  301000    1088.5403   -3961.9799    6.7825377   -3296.8187    303.95286   -1171.3927   0.98677232       0.1505 
  302000      1092.02   -3973.2472    4.5831359   -3338.2357    291.04906      156.075    1.0066496        0.151 
  303000    1095.6263   -3995.2018    5.9691686   -3355.0883    292.76462    28.729121   0.98740649       0.1515 
  304000    1099.1267   -4032.1659    6.7163396   -3366.4958    304.21838    328.79214    1.0043888        0.152 
  305000     1102.636   -4026.6207    5.7322241   -3409.2384    282.37972   -766.12181    1.0006362       0.1525 
  306000    1106.2046   -4026.2377    6.0818681    -3395.559    288.35686   -594.36272   0.98359994        0.153 
  307000    1109.7008   -4025.9191    7.8672625   -3374.4314    297.13945    402.46592   0.98461341       0.1535 
  308000    1113.2134   -4019.0174    7.3336547   -3388.2855    287.80346   -254.02493   0.99383029        0.154 
  309000      1116.77   -4010.9822    6.4488725     -3357.38    298.77047    434.19883    1.0090891       0.1545 
  310000    1120.4947   -3969.2867    3.0717831   -3318.3668    299.09121   -679.96545    1.0047608        0.155 
  311000    1124.1045   -4026.0553    3.8337387   -3356.9405    307.13949     -1002.26   0.97173637       0.1555 
  312000     1127.601   -4058.8979    5.2562261   -3406.4246    298.79989    256.93896   0.98232702        0.156 
  313000    1131.1007   -4046.2018    6.3559369   -3388.1197    300.88158   -1374.3634   0.95980231       0.1565 
  314000    1134.4937   -4022.7367     5.993885   -3365.2549    300.77161   -361.08109   0.99335168        0.157 
  315000    1137.9803   -4007.0313     6.781405   -3326.7272    310.94434   -1181.2289   0.96800138       0.1575 
  316000    1141.5104    -3981.604    5.0469186   -3312.9596    306.36224     585.3952   0.99457985        0.158 
  317000    1144.8962   -3990.5523     5.197265   -3351.8769    292.45705   -92.620792   0.97672556       0.1585 
  318000    1148.2524   -3962.6032    4.9872233   -3314.4291    296.93929    490.02734   0.99970256        0.159 
  319000    1151.5169   -3982.6035    6.4883107   -3328.9432    298.77909   -256.26646   0.97208039       0.1595 
  320000    1154.8607   -3972.7359    4.7975472   -3257.7142    327.88826    174.27505   0.97527112         0.16 
  321000    1158.3136   -3978.8533    5.2352119   -3323.1102    300.31912    604.01015   0.98181167       0.1605 
  322000    1161.8112   -3952.7725    6.8707117   -3313.2768    292.06319   -11.299345   0.97112002        0.161 
  323000    1164.4328    -4003.554    6.8627805   -3330.8281    307.40814    1653.3999    1.0235266       0.1615 
  324000    1168.1505   -3987.6232     6.043778   -3350.6252    291.29187   -452.77699   0.98489487        0.162 
  325000    1171.6861   -4017.3913    5.7372952   -3349.7753    305.56869   -63.465257   0.99079624       0.1625 
  326000     1175.109   -3968.0144    6.7793025   -3285.8266      311.815    260.43913   0.96983456        0.163 
  327000    1178.2873   -3975.9687    4.5538086   -3278.5129    319.89119   -1076.7298   0.98340029       0.1635 
  328000    1181.9629   -3971.9755    6.1100991    -3317.767    299.20676    28.398375   0.97209043        0.164 
  329000    1185.8093   -4019.5212    5.2888807   -3343.2039    309.79284    185.12393   0.98806192       0.1645 
  330000     1189.659   -3992.2135    4.3219352   -3315.6829    310.33772   -1284.6786   0.97999829        0.165 
  331000    1193.1232   -4002.2885    4.8334988   -3303.0071    320.60487    582.16894   0.99775922       0.1655 
  332000    1196.2514    -4034.333    3.6734131   -3391.7871    294.94742   -292.59066    0.9895007        0.166 
  333000    1198.7065   -4024.9246     3.279302   -3369.2288    301.20029    139.28208     1.004528       0.1665 
  334000    1202.3014   -4020.4334     3.097056   -3376.8019    295.71472   -276.76299   0.99419157        0.167 
  335000     1205.107   -4051.0539    4.3382547   -3392.4521      302.053    397.18341   0.99200739       0.1675 
  336000    1207.5612    -4050.881    3.0982469   -3393.2188     302.1917   -901.37737   0.96985094        0.168 
  337000    1210.3875   -3992.1809    2.8279316   -3331.6859    303.62432   -1113.5174   0.98033859       0.1685 
  338000    1213.9555   -3985.1031    5.5218083   -3334.3597    297.87865    118.70868   0.99143718        0.169 
  339000    1217.5956   -3988.9633    4.6664821   -3336.0441    299.27802   -380.84821   0.97578795       0.1695 
  340000    1221.4025   -4021.4103     4.104046   -3393.6691    287.91377     194.5928   0.99842772         0.17 
  341000    1225.2701   -4004.5682    6.2843727   -3345.1929    301.51169    207.16142    1.0074499       0.1705 
  342000    1229.0556    -3961.209    2.8392339   -3299.7133    304.08107     114.8465   0.98429605        0.171 
  343000    1232.6646   -3972.9801    3.2709958   -3320.9006    299.53463     925.0345   0.99811049       0.1715 
  344000    1236.3837   -3962.5691    4.2807704   -3318.6024    295.32299   -428.45531   0.98169457        0.172 
  345000    1239.9555   -3994.0424    4.8114659   -3347.8561    296.10272   -494.94814   0.96958179       0.1725 
  346000    1243.7525   -3953.6418    4.7007986   -3307.0774    296.32832    310.79144   0.96629635        0.173 
  347000    1247.6536   -4034.3497    3.5720469   -3403.0004    289.82514    1438.5594    1.0225534       0.1735 
  348000     1251.456   -4025.8671    5.8772673    -3388.846    291.37933   -808.58977   0.99296511        0.174 
  349000    1255.3239   -4064.3193      4.40467   -3395.6516    306.66947   -209.77077   0.99761558       0.1745 
  350000    1259.2654   -4013.1812    5.7857569   -3388.5908    285.68275    603.97371    1.0038614        0.175 
  351000    1263.1002   -3997.5528    4.2127386   -3331.5338    305.53526   -1373.6115   0.97983242       0.1755 
  352000    1266.9159   -3997.3034    4.2858278   -3347.7739    297.88886   -862.31699   0.98696671        0.176 
  353000    1270.7982   -4027.1004    8.5933429   -3392.3998    289.05416   -150.69453   0.98356954       0.1765 
  354000    1274.5971   -3998.8768    6.1794735   -3361.5947    291.36037    119.76083   0.97062796        0.177 
  355000    1278.4393   -3966.2023    6.0386643   -3348.3655    282.44805    1274.8872   0.98490534       0.1775 
  356000    1282.3555   -4064.1375    8.8532871   -3396.5445    304.11951   -561.12739    1.0020237        0.178 
  357000    1286.2828   -4073.7148    5.4781805   -3439.3753    290.32559    435.39139    1.0154999       0.1785 
  358000    1290.2048    -3986.852    5.4396915   -3307.7668    311.00103    -37.54877   0.99875375        0.179 
  359000    1294.1449    -3997.335     8.885056   -3335.9842    301.22303   -1290.4636    0.9847694       0.1795 
  360000    1298.0295   -3985.4078    5.0409979    -3312.982    308.11071    1360.9633    0.9945406         0.18 
  361000     1301.861   -4077.7413    8.2178899   -3412.1597    303.48427    691.30993    1.0014888       0.1805 
  362000    1305.6602   -4016.6589    8.7681787   -3345.5746    305.77065    83.323437   0.98187614        0.181 
  363000    1309.3211   -3975.6249    9.1963764   -3346.4005    286.24753   -755.50514   0.96676568       0.1815 
  364000    1313.2368   -4009.5692    5.4739866   -3325.1939     313.4275    1364.0649    1.0083069        0.182 
  365000     1317.095   -4006.2008    7.8428261   -3367.3879    291.29913    533.59233    1.0009851       0.1825 
  366000    1321.0331   -4025.8807    5.4112213   -3386.5018    292.68306    565.30108    1.0166736        0.183 
  367000    1325.0466   -3998.4973    5.0546059    -3371.784    287.00036   -780.20511    0.9897348       0.1835 
  368000    1328.8472   -4014.9944    9.1974269   -3371.3874    292.88703   -117.71177   0.99467738        0.184 
  369000    1332.7402   -3991.3727    10.571113   -3360.9652    286.15907   -205.11041   0.97580551       0.1845 
  370000    1336.6264   -4016.1872    8.1305029   -3371.4074    293.92107   -360.02528   0.95738258        0.185 
  371000    1340.5081   -4011.2097     9.327008   -3343.6466    303.88702    177.45661   0.96597007       0.1855 
  372000    1344.3606   -4044.1236    8.5495613   -3392.9226    296.69211   -153.87292   0.98204092        0.186 
  373000    1348.1974   -4013.3213    11.441568   -3353.9999    299.10584   -912.05552   0.97767048       0.1865 
  374000    1350.9784   -4020.0993    13.267764   -3341.3985    307.20961   -85.455542   0.98444459        0.187 
  375000    1353.3284   -4037.9124    9.0928579   -3410.7682      285.335    862.76993    1.0077123       0.1875 
  376000     1356.957   -4081.6964     5.903087   -3379.0103    321.68291   -440.06909   0.99637204        0.188 
  377000    1360.5806   -4052.2353     10.03439   -3396.7158    298.00027   -477.95459   0.98594931       0.1885 
  378000      1364.22   -3972.0519    8.7268253   -3316.8798    298.44355   -87.583141   0.99247986        0.189 
  379000    1367.8152   -4003.9114    7.6158492   -3370.5258    288.89832     77.16851   0.98557113       0.1895 
  380000    1370.9284    -4007.078    5.6632257   -3353.4695    299.13609   -952.58772   0.98416467         0.19 
  381000    1373.7231   -4024.9041    6.0660976   -3347.5111    309.93063    118.38962   0.99715053       0.1905 
  382000    1376.1622   -4016.9857    7.1524425   -3379.4534    291.02664    862.53158   0.99347157        0.191 
  383000     1379.717   -3959.2625    4.4671357   -3314.2934    295.69973    232.98137   0.98671698       0.1915 
  384000    1383.2294   -4040.2936    5.6212715   -3405.0491    290.67736    44.322891    1.0017513        0.192 
  385000    1386.5807   -3993.9284    6.1348126   -3359.4215    290.09975    671.06017   0.98588565       0.1925 
  386000    1390.4372   -4002.8509    5.4316994   -3327.1664    309.43474   -183.74884   0.98907038        0.193 
  387000    1394.3818   -4032.8713    7.4969725   -3392.9007    291.99331    182.92737    1.0047547       0.1935 
  388000    1398.2564   -3994.1591    8.9516879   -3343.3253    296.33689   -57.388334   0.98723854        0.194 
  389000    1402.0064   -3993.0621    7.7541788     -3358.38    289.43302   -357.33722    0.9753809       0.1945 
  390000     1405.833   -3976.3549    5.5722728   -3297.0691    311.03249    24.538352    0.9867427        0.195 
  391000    1409.6225   -3975.7407    6.5515047   -3312.2958    303.26718   -80.055546   0.98801766       0.1955 
  392000    1413.3801   -3995.1478    3.6526582   -3306.0156    316.46448   -552.19511   0.99673744        0.196 
  393000    1417.1654   -4016.1337    7.1164842   -3361.7353    298.82979    1423.5046   0.98811112       0.1965 
  394000    1420.9274   -3967.2158    5.9526505   -3289.3985    310.17887    366.72103   0.98765811        0.197 
  395000    1424.6648   -4004.9373    5.4733501    -3314.612    316.17473    120.12221   0.99133607       0.1975 
  396000    1428.4491   -4014.6995    4.1483108   -3361.2536    299.76041   -677.88684   0.99480835        0.198 
  397000    1432.2377   -4047.5349    4.9570914   -3390.9074    300.85584    584.35856    1.0003145       0.1985 
  398000    1435.8179   -3986.2234     4.229442    -3339.331    296.69737    559.38089    1.0013697        0.199 
  399000    1439.0735   -4022.5982    6.5945737    -3369.859    298.30475    42.096175    1.0009577       0.1995 
  400000    1441.8593     -4020.94    6.1326076    -3371.482    297.00322    -858.0608   0.98907643          0.2 
  401000    1445.3436   -3960.0349     7.343795   -3327.5375    288.61387   -52.174082   0.99306463       0.2005 
  402000    1448.8046   -3993.7974     4.416571    -3335.166    302.03055   -205.91609   0.99389027        0.201 
  403000    1452.0593   -3998.0935    7.9101103   -3363.6228    289.26344    314.91368   0.98048933       0.2015 
  404000    1455.4138   -3936.2718    5.8810818   -3271.3887    304.24062   -1251.7062   0.95294087        0.202 
  405000    1458.8131   -3945.6718    4.4329503   -3280.2918    305.13858   -355.59486   0.98221616       0.2025 
  406000    1462.2333    -3972.148    5.5279208   -3308.7211    303.73139       863.17   0.99579703        0.203 
  407000    1465.6726   -4020.3878    7.8617964   -3360.9751    300.80067   -257.58367    1.0046566       0.2035 
  408000    1469.1892   -4044.9144    7.4495558   -3356.0001    314.61095    766.78746    1.0142375        0.204 
  409000    1472.6196   -3991.8903    7.5954338   -3324.8399    304.44971   -1127.6632    0.9783711       0.2045 
  410000    1476.0071   -4021.1811    5.7874006   -3388.3929    289.46665    486.38315   0.98346392        0.205 
  411000    1478.1547   -4018.0701    8.6424923   -3321.5759    317.55966    432.49848   0.98491562       0.2055 
  412000    1481.5325   -3976.4861    9.7806331   -3307.0399    304.54694   -401.52569   0.97861851        0.206 
  413000    1484.9364   -3975.9693    8.6779569    -3286.661    314.22575    123.00035   0.98457433       0.2065 
  414000    1488.4642   -4011.3106    6.7125962   -3342.9141    305.47877    556.79823   0.99990993        0.207 
  415000    1492.0137   -3995.9188    7.1676847   -3294.9568    320.30313    712.91398   0.98897585       0.2075 
  416000    1495.5798   -4009.2239    6.1581181    -3366.618    293.82804    917.47639    1.0063968        0.208 
  417000    1499.0459   -4049.5055    6.1881587    -3395.839    298.92047    -1669.326   0.98175577       0.2085 
  418000    1502.5173   -3911.9638    6.1174753    -3258.262    298.96944   -408.45788     0.976223        0.209 
  419000    1505.9879    -4028.992    7.1527084   -3354.3919    308.13956   -634.71009   0.98083376       0.2095 
  420000    1509.4253   -4052.4317     6.349119   -3400.4624    298.06265     662.4137   0.97669365         0.21 
  421000    1513.2455   -3997.1313    3.5608627   -3300.9509    319.76078    585.48476   0.98524407       0.2105 
  422000    1516.8491    -3968.271    4.1777965   -3333.8718    290.95351    166.28367    1.0010037        0.211 
  423000    1520.5182    -4013.383    2.8353042   -3352.9235    303.60452     545.5317     1.001804       0.2115 
  424000    1524.2851    -3966.848    3.6623965   -3309.0363    302.00026   -183.85222   0.98159549        0.212 
  425000     1528.099   -4014.1818    2.8377813    -3403.386    280.67521    1251.4342   0.99380824       0.2125 
[...]
 1847000    6604.1118   -3952.3663    6.3729935   -3305.8587    295.53012   -369.63577    0.9788182       0.9235 
 1848000    6607.6917   -3979.9453    6.5981016   -3311.4373     305.5831    10.827353   0.98139214        0.924 
 1849000    6610.5602   -3989.0757    8.4943241   -3337.1534    297.05056    191.04766   0.99017944       0.9245 
 1850000    6613.6329   -4058.1711    5.2052714   -3429.2952    287.92925    8.2491631   0.98642884        0.925 
 1851000    6617.3201   -4033.0443    7.3397213   -3369.2787    303.05128   -158.98035    0.9955315       0.9255 
 1852000    6621.0809   -4082.9797    5.2289163   -3428.0926    299.92687   -1224.2996   0.98283404        0.926 
 1853000     6624.861   -4084.8015    5.5942084   -3452.4328    289.36221   -869.86758   0.98687107       0.9265 
 1854000    6628.6397     -4045.66    5.6791036   -3370.5771    309.04283    1539.6119    0.9847647        0.927 
 1855000    6632.1321   -4003.2923    7.5637936   -3382.1062    283.29025   -1157.2077   0.96582251       0.9275 
 1856000    6634.7412   -3961.7417    6.1300873   -3293.2539    305.78987    100.94994   0.97757226        0.928 
 1857000    6637.9626   -4009.5903     7.353032   -3318.9456    315.45438    -674.7445   0.98043981       0.9285 
 1858000    6641.5209    -3995.496    5.7755599   -3335.3096    302.12103   -869.14891   0.95077098        0.929 
 1859000    6643.8398   -4036.2953    6.9717642   -3367.9384    305.34084    270.39543   0.98808175       0.9295 
 1860000    6647.5573   -4011.6702    9.7711965   -3333.6921    308.49023    777.84927   0.99125345         0.93 
 1861000    6651.2002   -4032.3563    5.9067607   -3380.9113    298.02483   -390.45957   0.99183297       0.9305 
 1862000    6654.6442   -4007.4433    6.8649592   -3300.1415    323.36978    693.36701   0.98729947        0.931 
 1863000    6657.0331    -4038.011    7.9367419    -3395.732    292.85599    -297.7996   0.97320035       0.9315 
 1864000    6660.7984   -4013.8772    4.9239301   -3363.8945    297.80346   -112.22665   0.97782513        0.932 
 1865000    6664.3943    -3984.467    6.2975695   -3344.4736    292.55753    813.50829   0.99508758       0.9325 
 1866000     6668.181   -3961.7099    6.0210616   -3303.4773    301.10564    386.06827    1.0007471        0.933 
 1867000    6671.7011   -4026.8778    4.5967097   -3357.0956    307.09535    1257.6184    0.9981916       0.9335 
 1868000    6675.2408   -3977.4037    3.5469279    -3298.606    311.74218    736.95049   0.98920192        0.934 
 1869000    6678.8384   -3992.6401    3.7620356   -3342.4848    298.41955     458.7151   0.98579184       0.9345 
 1870000    6682.6695   -3981.3224    5.1884752   -3308.8506    308.06387    1285.3549    0.9996664        0.935 
 1871000    6686.3107   -3994.2726    4.3796535   -3353.0102    294.02884   -516.73143   0.98167167       0.9355 
 1872000    6690.0055   -3963.3925    6.9924584   -3277.3364    313.50241     136.0697   0.98587078        0.936 
 1873000    6693.5102   -4029.1822    6.6980907   -3439.3926    269.19512   -715.51213    0.9822171       0.9365 
 1874000    6697.3656   -4005.6913    2.3751923   -3310.1913    319.99402    1781.1458   0.98221754        0.937 
 1875000    6701.1186   -4000.0615    7.5013449   -3347.9078    297.61584   -80.913431   0.96375387       0.9375 
 1876000    6704.9441   -4000.4835     6.154098   -3346.2573    299.19462    -740.7687   0.97875541        0.938 
 1877000     6708.749   -4052.3259    9.5805165   -3421.4209    286.84608   -601.45248   0.99049314       0.9385 
 1878000    6712.4557     -4006.56    7.4809148   -3363.3081    293.51556   -457.11369   0.97370256        0.939 
 1879000    6716.1829   -4034.2966     6.429107   -3347.7301    313.99818   -378.41726    0.9836737       0.9395 
 1880000    6719.9599   -3969.0729    8.3003519   -3298.5806    305.71333   -28.770535    1.0008004         0.94 
 1881000    6723.5756   -4047.9845    5.1683785   -3389.1999    301.75417   -329.28041   0.99540688       0.9405 
 1882000    6727.2408   -4001.5974    5.0698906    -3311.432    316.28718   -558.93768   0.98812694        0.941 
 1883000    6730.9784   -4037.2269    7.7844724   -3407.7512    287.01537   -772.64089    0.9994412       0.9415 
 1884000    6734.7605   -4042.9658    5.9024964   -3400.1673    294.03497    402.58155    1.0036152        0.942 
 1885000    6738.6685   -4018.1578    5.9645376    -3369.075    296.90758   -232.75644   0.99406903       0.9425 
 1886000    6742.5659   -4035.7354    7.1856546   -3393.7603    293.06246    635.59185    0.9989975        0.943 
 1887000    6746.1339   -3993.2417    8.4321158   -3323.6599    305.23213     17.76264   0.98238669       0.9435 
 1888000    6749.7936   -3981.5156    6.2732164   -3330.5025    297.65623   -756.22798   0.99443541        0.944 
 1889000    6753.0315   -3912.3612    5.6213988   -3256.9877    299.97022   -283.22921    1.0104409       0.9445 
 1890000    6755.7361   -3966.5946    6.5295578   -3277.9704     314.9018    859.00744   0.99253966        0.945 
 1891000    6758.1498   -4002.2219    9.7989228    -3330.544    305.56882    1128.5752   0.99487956       0.9455 
 1892000    6761.7469    -3983.313    6.5740401   -3341.8962    293.08704     841.6369   0.97533787        0.946 
 1893000    6765.3323   -3966.9666    3.7986761   -3305.2291    303.74978    1670.2927    1.0020538       0.9465 
 1894000    6768.8298     -3991.96    5.2672043    -3330.724     302.8403   -22.640201   0.98360621        0.947 
 1895000    6772.5975   -4010.5892    6.0040718   -3323.2631    314.54511    37.628577    1.0033426       0.9475 
 1896000    6776.5438   -3998.1678    6.4407704   -3330.7434     305.1555    671.99186   0.99905333        0.948 
 1897000    6780.3723   -4036.7249    3.5005009   -3363.7025    309.09732    546.53866    1.0005606       0.9485 
 1898000     6784.229   -4027.2575    5.8021926   -3355.8141    307.30573    -558.7565   0.98975383        0.949 
 1899000    6788.2619   -4005.0289    5.6783726   -3372.9196    289.20358    160.92093     1.007353       0.9495 
 1900000    6792.1425   -4001.0511    7.8076702   -3356.4877    293.97018    1098.1216    1.0001997         0.95 
 1901000    6795.6104   -4007.2749    5.3141346   -3383.0251    285.74325    811.76132    1.0055469       0.9505 
 1902000    6799.1012   -3972.5824    7.8181595   -3309.7991    302.37693    329.44108   0.99091104        0.951 
 1903000    6802.5719   -4035.3767     8.361996   -3351.7402    311.75311    613.19046    1.0107766       0.9515 
 1904000    6805.9832   -3989.8852    4.8303476   -3317.1382    308.35625    152.01492   0.98564716        0.952 
 1905000    6809.4496   -3988.6876     3.140928   -3317.3628    308.47962    961.54658    1.0124309       0.9525 
 1906000    6812.8377   -4029.2701     5.584924   -3362.1313    305.41876    286.95232   0.98824678        0.953 
 1907000    6816.3767   -4100.4198    7.3696016   -3436.3686    303.16936    1118.0559   0.98155966       0.9535 
 1908000    6819.7548   -3996.7674     6.418567     -3344.91     297.9789    -1476.847   0.98223473        0.954 
 1909000    6823.2361   -3982.2247    4.7340993   -3282.5886    320.81455   -684.18633   0.95739944       0.9545 
 1910000    6826.7151   -4009.9395    4.0844112   -3345.6176      304.811   -856.87637   0.98084788        0.955 
 1911000    6830.2646   -3982.3114    4.8145465   -3327.0975    300.26904    571.90142    1.0002579       0.9555 
 1912000    6833.6936   -4012.2392    5.6912288   -3373.2291     292.3835   -282.31497   0.98014253        0.956 
 1913000    6837.1196    -4027.344    5.7766289   -3366.9785    302.20322    797.32011   0.99806414       0.9565 
 1914000    6840.5247   -3971.4392    4.2901165   -3292.5911    311.42232    303.37611   0.97622446        0.957 
 1915000    6843.9739   -3989.1572    5.2909847   -3329.5517    302.07653   -209.93713   0.99719991       0.9575 
 1916000    6847.4179   -3977.3646    6.4942588   -3303.9854    307.87992   -1084.9828   0.97744482        0.958 
 1917000    6850.9211   -3970.2133    6.1422915   -3295.6412    308.59311   -43.192596    0.9771882       0.9585 
 1918000    6854.4162   -4005.4044    5.8115275   -3339.8752    304.57102   -790.91456   0.99550217        0.959 
 1919000    6858.0161   -4009.0005    2.5363193   -3354.7286    300.88596   -393.48131    1.0177656       0.9595 
 1920000    6861.6089   -3947.9247    4.2043675   -3255.8863    317.55149   -781.10527   0.96942629         0.96 
 1921000    6865.4828   -3995.9887    4.6965154   -3306.8065    316.00565     -828.757    1.0022286       0.9605 
 1922000     6869.291   -4014.8481    3.3785752    -3351.347    304.75793    517.87546    1.0006245        0.961 
 1923000    6873.0585   -3991.2038    5.3015416   -3356.0369    290.78913    -326.0334   0.98739295       0.9615 
 1924000    6876.8581   -3995.9468    6.7480493   -3349.3405    295.40253    919.99641   0.99540444        0.962 
 1925000    6880.6578   -3992.2076    5.8148159   -3327.2222    304.31846     389.0867    1.0061181       0.9625 
 1926000    6884.3076   -3983.0113    7.5734192   -3338.8137    293.90948     602.4143   0.99319332        0.963 
 1927000    6888.2132    -3935.296    7.9715517   -3273.2419    301.96947   -974.94417   0.96964393       0.9635 
 1928000    6892.0179    -4021.215     6.198815   -3350.2931    306.88185   -111.46773   0.98318907        0.964 
 1929000    6895.8744   -3988.5677     7.621591   -3322.8787    303.80914    1195.1797     1.000695       0.9645 
 1930000    6899.8314   -3996.0602    5.9335473   -3357.3694    292.12421    -258.4025   0.98059346        0.965 
 1931000     6903.776   -4029.6632    8.8426346   -3367.7721    301.49203   -126.65283   0.99532121       0.9655 
 1932000    6907.5291   -4038.7934     6.256403   -3395.2532      294.214     898.3994    0.9941921        0.966 
 1933000    6911.2868   -4053.1847    8.1173074   -3384.7096    304.86652    15.184148   0.99896826       0.9665 
 1934000    6915.0487   -3974.3058    6.8460004   -3321.7447    298.10647   -223.74475    0.9875024        0.967 
 1935000      6918.83   -4065.4255     6.401587   -3409.1581    300.02271    1342.6887   0.99111187       0.9675 
 1936000    6922.6071   -4028.6727     5.994393    -3400.078    287.43511   -449.74266    1.0081267        0.968 
 1937000    6926.3881   -4004.9543    5.5062833   -3340.9503    304.00784    1385.6857   0.99475497       0.9685 
 1938000    6929.9855   -4053.2977    3.4379039    -3434.521     284.0827    417.06936   0.99589035        0.969 
 1939000    6933.8021   -4021.4076    4.0999965   -3365.8742    300.74644    630.27348    1.0079473       0.9695 
 1940000      6937.72    -4002.137    5.7721523   -3360.6119    293.50725     495.0135    1.0088532         0.97 
 1941000    6941.5874   -4033.3338    3.3638423   -3380.2185    299.96994   -1116.1769   0.98556834       0.9705 
 1942000    6945.4076   -4065.2399    7.4476637   -3445.1789    282.82444    386.81432   0.99015168        0.971 
 1943000    6949.1655   -4015.5951    4.8043238   -3377.0447    292.58077    -763.5963   0.97683944       0.9715 
 1944000    6952.9973     -4047.99    6.7383618   -3399.1842    296.42249   -422.68043   0.99610723        0.972 
 1945000    6955.6335   -4038.9797    5.5558779   -3362.5072    309.74121    247.42979    1.0058913       0.9725 
 1946000    6959.0845   -4033.1465    5.6104348   -3395.5981    291.74603   -162.58266    1.0013319        0.973 
 1947000     6962.962   -4011.0352    5.6092001   -3370.2968    293.21931   -343.30874    1.0024918       0.9735 
 1948000    6966.8702   -3982.2415    3.7346025   -3357.6398     286.6349   -302.45064   0.98765468        0.974 
 1949000    6970.7861   -4009.5064     5.724778   -3375.7808    289.92834    630.14601    1.0098962       0.9745 
 1950000    6974.6653   -3990.4744    9.4069772   -3378.2838    278.28635    724.07907   0.97979718        0.975 
 1951000    6978.3942   -3983.0193    5.1144888   -3351.8034    289.05147   -829.61536   0.98742944       0.9755 
 1952000    6981.4993   -4048.0147    6.5864855   -3414.9825    289.21043   -244.19478    1.0191713        0.976 
 1953000    6985.1887   -4040.9211    6.8436477   -3360.5229    310.95908    -120.4426     0.995252       0.9765 
 1954000    6989.0799   -3959.8464    8.8600196   -3330.7915    286.32458   -10.301697    1.0018863        0.977 
 1955000    6993.0103   -4000.1899       7.9886   -3361.5749     291.1405    261.19323   0.99961606       0.9775 
 1956000    6996.8373   -3992.8774    6.5655669   -3333.3512    301.45152     770.8606   0.98787352        0.978 
 1957000    7000.6678   -4019.0174    3.8909229   -3388.4933    289.29692    28.358255   0.98117196       0.9785 
 1958000    7004.4505   -3989.3344     3.916082   -3363.9357    286.91905    745.82542   0.99294254        0.979 
 1959000     7008.312   -4017.2042    4.0417152   -3338.4443    311.49632   -518.92642    1.0117999       0.9795 
 1960000    7012.1833   -4021.0485    4.7938742   -3374.5374    296.26077   -167.05812    1.0141242         0.98 
 1961000    7016.2243   -4025.9557    4.5066119   -3367.9067    301.72009    1764.0637    1.0182024       0.9805 
 1962000    7020.0469    -4007.817    4.6433932   -3326.3502    312.46817   -133.65455   0.99690542        0.981 
 1963000    7023.7898   -4034.4843    4.3780821   -3386.8777    296.95853    16.205741   0.99619594       0.9815 
 1964000    7027.5969   -3977.9887    5.0107452   -3288.9209    315.80776   -47.884702   0.99298516        0.982 
 1965000    7031.4693   -4010.7619    5.2831046   -3340.1297    307.17087     921.2102    1.0060207       0.9825 
 1966000    7035.3815    -4018.376    3.8808127   -3373.6529    295.85684   -399.05447   0.99229015        0.983 
 1967000     7039.206   -4006.8615    2.9934419   -3349.2542    302.21473    57.573436   0.96937356       0.9835 
 1968000    7043.0546    -4029.714    10.047811   -3358.2439    305.35798   -116.66886   0.98198967        0.984 
 1969000    7046.9047   -4075.7901    3.4798259   -3416.9673    302.55136   -1041.6139   0.98051775       0.9845 
 1970000    7050.7557   -4032.2662    5.0124646   -3350.9915    312.20912   -627.63401   0.98210283        0.985 
 1971000    7054.6008   -4007.6522    4.7252116   -3390.3767    282.79533   -304.98647   0.98928333       0.9855 
 1972000    7058.3946   -4028.8247    6.7048285   -3368.9166    301.56352    748.60091   0.98917361        0.986 
 1973000    7062.1655   -4047.4221    4.7622126   -3393.8279    299.54543   -734.49944   0.97123744       0.9865 
 1974000    7065.9802   -4030.4012    4.9286074   -3372.1115    301.63635    252.25572   0.99700959        0.987 
 1975000    7069.7708   -4026.6106    5.8408934    -3345.639     311.6867    380.96417    1.0079613       0.9875 
 1976000    7073.5718   -3982.7478    6.0046665   -3345.4117    291.46597    94.052932    0.9859027        0.988 
 1977000    7077.3406   -3995.2482    3.5806098   -3354.0493    294.36843   -218.30729     1.002807       0.9885 
 1978000     7081.112   -3986.2335    4.3380639   -3340.6348    296.04999    38.049944   0.98061915        0.989 
 1979000    7085.0196   -3992.4049     2.385127   -3340.5267    299.85068    49.934138   0.99303159       0.9895 
 1980000    7089.0269   -4040.0722    5.1361855    -3390.523    297.50532   -279.12151   0.98525818         0.99 
 1981000    7092.9263    -4016.339    5.7254579   -3365.7642    297.70677    691.45816    1.0067787       0.9905 
 1982000    7096.8216   -4033.6189    6.1170249   -3376.4006     300.5931    209.05483    1.0004654        0.991 
 1983000    7100.8055   -3986.8673    3.4977263   -3316.8558    307.70854    869.01543    0.9920248       0.9915 
 1984000    7104.6407   -3916.7218    5.5327334   -3256.5652    302.21936   -662.39932   0.98169825        0.992 
 1985000    7108.4378   -3986.0451    5.2314646   -3332.5853    299.26675    445.11703   0.97636852       0.9925 
 1986000    7112.2036   -3971.2232    5.0670651   -3347.6534    285.54337   -635.00608     0.990315        0.993 
 1987000    7116.1052   -4011.7854    7.2989356    -3374.851    290.68301   -179.89331    1.0068307       0.9935 
 1988000      7120.02    -3980.998    4.6885385   -3319.4952     303.2306   -1301.0539   0.98091193        0.994 
 1989000    7123.9298   -3988.5171    2.3131825   -3330.0344    302.93295   -5.2620779    1.0097913       0.9945 
 1990000    7127.7645    -3913.495    5.8983975   -3251.3811    302.95417    572.10821   0.97462395        0.995 
 1991000     7131.607   -4043.9517    2.0250893   -3379.6108    305.77052    549.89446    1.0287626       0.9955 
 1992000    7135.5952   -3950.9431    2.5746935   -3307.4757    295.88012    154.49737   0.99508564        0.996 
 1993000    7139.3835   -3990.2961    2.9893412   -3340.1931    298.75213   -1136.7006    0.9650661       0.9965 
 1994000    7143.2671   -4037.9391    5.1261869   -3382.8313    300.07621   -934.09316    1.0019566        0.997 
 1995000    7147.1351   -4061.5743    5.0970842   -3384.9685    310.01457   -37.840945    1.0040555       0.9975 
 1996000    7150.9324   -4020.5925      3.28136   -3419.4362    276.02018   -1518.4678   0.98884462        0.998 
 1997000    7154.7066   -3992.0864    4.7909846   -3343.7582    297.10104    -328.8397    1.0193864       0.9985 
 1998000    7158.4375   -4000.6673    5.1424761   -3352.2398    296.98457    506.32744   0.99337337        0.999 
 1999000    7162.1978   -4006.9582    4.6722183   -3382.7283    286.03037    701.75392   0.99367834       0.9995 
 2000000    7165.9759   -3959.9254    7.9860117   -3330.1199    287.07461    807.54569   0.96301234            1 
Loop time of 7165.98 on 12 procs for 2000000 steps with 1090 atoms

Performance: 24.114 ns/day, 0.995 hours/ns, 279.097 timesteps/s
93.2% CPU use with 12 MPI tasks x 1 OpenMP threads

MPI task timing breakdown:
Section |  min time  |  avg time  |  max time  |%varavg| %total
---------------------------------------------------------------
Pair    | 2727.8     | 2940.1     | 3191.2     | 220.2 | 41.03
Bond    | 3.0978     | 5.5882     | 9.6872     |  76.2 |  0.08
Kspace  | 1832.8     | 2091.7     | 2300.1     | 263.4 | 29.19
Neigh   | 213.6      | 214.23     | 214.73     |   2.3 |  2.99
Comm    | 575.08     | 637.81     | 740.01     | 254.5 |  8.90
Output  | 0.18118    | 0.18544    | 0.22493    |   2.8 |  0.00
Modify  | 766.08     | 1051.9     | 1213.9     | 562.7 | 14.68
Other   |            | 224.5      |            |       |  3.13

Nlocal:        90.8333 ave         104 max          76 min
Histogram: 1 0 0 3 1 3 1 2 0 1
Nghost:        3671.00 ave        3735 max        3598 min
Histogram: 2 0 0 2 3 0 0 2 1 2
Neighs:        31428.2 ave       35955 max       26489 min
Histogram: 1 0 0 3 1 3 2 1 0 1

Total # of neighbors = 377138
Ave neighs/atom = 345.99817
Ave special neighs/atom = 2.0587156
Neighbor list builds = 84208
Dangerous builds = 0

write_data data.*.lmp
System init for write_data ...
PPPM initialization ...
  using 12-bit tables for long-range coulomb (src/lammps/src/kspace.cpp:339)
  G vector (1/distance) = 0.30684643
  grid = 20 20 20
  stencil order = 5
  estimated absolute RMS force accuracy = 0.002679522
  estimated relative force accuracy = 8.0693008e-06
  using double precision FFTW3
  3d grid and FFT values/proc = 4046 800
Neighbor list info ...
  update every 1 steps, delay 10 steps, check yes
  max neighbors/atom: 2000, page size: 100000
  master list distance cutoff = 12
  ghost atom cutoff = 12
  binsize = 6, bins = 4 4 4
  3 neighbor lists, perpetual/occasional/extra = 3 0 0
  (1) pair lj/cut/coul/long, perpetual, skip from (3)
      attributes: half, newton on
      pair build: skip
      stencil: none
      bin: none
  (2) pair lj/cut/coul/long/soft, perpetual, skip from (3)
      attributes: half, newton on
      pair build: skip
      stencil: none
      bin: none
  (3) neighbor class addition, perpetual
      attributes: half, newton on
      pair build: half/bin/newton
      stencil: half/bin/3d/newton
      bin: standard
Total wall time: 2:12:51
