LAMMPS description

     864      atoms    
       0      bonds    
       0      angles   
       0      dihedrals
       0      impropers

       1      atom types    
       0      bond types    
       0      angle types   
       0      dihedral types
       0      improper types


  0.0000000      32.146000     xlo xhi
  0.0000000      32.146000     ylo yhi
  0.0000000      32.146000     zlo zhi

 Atoms

      1      1      1      0.0000000      0.0000000      2.6790000      2.6790000
      2      2      1      0.0000000      0.0000000      2.6790000      8.0360000
      3      3      1      0.0000000      0.0000000      2.6790000     13.3940000
      4      4      1      0.0000000      0.0000000      2.6790000     18.7520000
      5      5      1      0.0000000      0.0000000      2.6790000     24.1090000
      6      6      1      0.0000000      0.0000000      2.6790000     29.4670000
      7      7      1      0.0000000      0.0000000      8.0360000      2.6790000
      8      8      1      0.0000000      0.0000000      8.0360000      8.0360000
      9      9      1      0.0000000      0.0000000      8.0360000     13.3940000
     10     10      1      0.0000000      0.0000000      8.0360000     18.7520000
     11     11      1      0.0000000      0.0000000      8.0360000     24.1090000
     12     12      1      0.0000000      0.0000000      8.0360000     29.4670000
     13     13      1      0.0000000      0.0000000     13.3940000      2.6790000
     14     14      1      0.0000000      0.0000000     13.3940000      8.0360000
     15     15      1      0.0000000      0.0000000     13.3940000     13.3940000
     16     16      1      0.0000000      0.0000000     13.3940000     18.7520000
     17     17      1      0.0000000      0.0000000     13.3940000     24.1090000
     18     18      1      0.0000000      0.0000000     13.3940000     29.4670000
     19     19      1      0.0000000      0.0000000     18.7520000      2.6790000
     20     20      1      0.0000000      0.0000000     18.7520000      8.0360000
     21     21      1      0.0000000      0.0000000     18.7520000     13.3940000
     22     22      1      0.0000000      0.0000000     18.7520000     18.7520000
     23     23      1      0.0000000      0.0000000     18.7520000     24.1090000
     24     24      1      0.0000000      0.0000000     18.7520000     29.4670000
     25     25      1      0.0000000      0.0000000     24.1090000      2.6790000
     26     26      1      0.0000000      0.0000000     24.1090000      8.0360000
     27     27      1      0.0000000      0.0000000     24.1090000     13.3940000
     28     28      1      0.0000000      0.0000000     24.1090000     18.7520000
     29     29      1      0.0000000      0.0000000     24.1090000     24.1090000
     30     30      1      0.0000000      0.0000000     24.1090000     29.4670000
     31     31      1      0.0000000      0.0000000     29.4670000      2.6790000
     32     32      1      0.0000000      0.0000000     29.4670000      8.0360000
     33     33      1      0.0000000      0.0000000     29.4670000     13.3940000
     34     34      1      0.0000000      0.0000000     29.4670000     18.7520000
     35     35      1      0.0000000      0.0000000     29.4670000     24.1090000
     36     36      1      0.0000000      0.0000000     29.4670000     29.4670000
     37     37      1      0.0000000      5.3580000      2.6790000      2.6790000
     38     38      1      0.0000000      5.3580000      2.6790000      8.0360000
     39     39      1      0.0000000      5.3580000      2.6790000     13.3940000
     40     40      1      0.0000000      5.3580000      2.6790000     18.7520000
     41     41      1      0.0000000      5.3580000      2.6790000     24.1090000
     42     42      1      0.0000000      5.3580000      2.6790000     29.4670000
     43     43      1      0.0000000      5.3580000      8.0360000      2.6790000
     44     44      1      0.0000000      5.3580000      8.0360000      8.0360000
     45     45      1      0.0000000      5.3580000      8.0360000     13.3940000
     46     46      1      0.0000000      5.3580000      8.0360000     18.7520000
     47     47      1      0.0000000      5.3580000      8.0360000     24.1090000
     48     48      1      0.0000000      5.3580000      8.0360000     29.4670000
     49     49      1      0.0000000      5.3580000     13.3940000      2.6790000
     50     50      1      0.0000000      5.3580000     13.3940000      8.0360000
     51     51      1      0.0000000      5.3580000     13.3940000     13.3940000
     52     52      1      0.0000000      5.3580000     13.3940000     18.7520000
     53     53      1      0.0000000      5.3580000     13.3940000     24.1090000
     54     54      1      0.0000000      5.3580000     13.3940000     29.4670000
     55     55      1      0.0000000      5.3580000     18.7520000      2.6790000
     56     56      1      0.0000000      5.3580000     18.7520000      8.0360000
     57     57      1      0.0000000      5.3580000     18.7520000     13.3940000
     58     58      1      0.0000000      5.3580000     18.7520000     18.7520000
     59     59      1      0.0000000      5.3580000     18.7520000     24.1090000
     60     60      1      0.0000000      5.3580000     18.7520000     29.4670000
     61     61      1      0.0000000      5.3580000     24.1090000      2.6790000
     62     62      1      0.0000000      5.3580000     24.1090000      8.0360000
     63     63      1      0.0000000      5.3580000     24.1090000     13.3940000
     64     64      1      0.0000000      5.3580000     24.1090000     18.7520000
     65     65      1      0.0000000      5.3580000     24.1090000     24.1090000
     66     66      1      0.0000000      5.3580000     24.1090000     29.4670000
     67     67      1      0.0000000      5.3580000     29.4670000      2.6790000
     68     68      1      0.0000000      5.3580000     29.4670000      8.0360000
     69     69      1      0.0000000      5.3580000     29.4670000     13.3940000
     70     70      1      0.0000000      5.3580000     29.4670000     18.7520000
     71     71      1      0.0000000      5.3580000     29.4670000     24.1090000
     72     72      1      0.0000000      5.3580000     29.4670000     29.4670000
     73     73      1      0.0000000     10.7150000      2.6790000      2.6790000
     74     74      1      0.0000000     10.7150000      2.6790000      8.0360000
     75     75      1      0.0000000     10.7150000      2.6790000     13.3940000
     76     76      1      0.0000000     10.7150000      2.6790000     18.7520000
     77     77      1      0.0000000     10.7150000      2.6790000     24.1090000
     78     78      1      0.0000000     10.7150000      2.6790000     29.4670000
     79     79      1      0.0000000     10.7150000      8.0360000      2.6790000
     80     80      1      0.0000000     10.7150000      8.0360000      8.0360000
     81     81      1      0.0000000     10.7150000      8.0360000     13.3940000
     82     82      1      0.0000000     10.7150000      8.0360000     18.7520000
     83     83      1      0.0000000     10.7150000      8.0360000     24.1090000
     84     84      1      0.0000000     10.7150000      8.0360000     29.4670000
     85     85      1      0.0000000     10.7150000     13.3940000      2.6790000
     86     86      1      0.0000000     10.7150000     13.3940000      8.0360000
     87     87      1      0.0000000     10.7150000     13.3940000     13.3940000
     88     88      1      0.0000000     10.7150000     13.3940000     18.7520000
     89     89      1      0.0000000     10.7150000     13.3940000     24.1090000
     90     90      1      0.0000000     10.7150000     13.3940000     29.4670000
     91     91      1      0.0000000     10.7150000     18.7520000      2.6790000
     92     92      1      0.0000000     10.7150000     18.7520000      8.0360000
     93     93      1      0.0000000     10.7150000     18.7520000     13.3940000
     94     94      1      0.0000000     10.7150000     18.7520000     18.7520000
     95     95      1      0.0000000     10.7150000     18.7520000     24.1090000
     96     96      1      0.0000000     10.7150000     18.7520000     29.4670000
     97     97      1      0.0000000     10.7150000     24.1090000      2.6790000
     98     98      1      0.0000000     10.7150000     24.1090000      8.0360000
     99     99      1      0.0000000     10.7150000     24.1090000     13.3940000
    100    100      1      0.0000000     10.7150000     24.1090000     18.7520000
    101    101      1      0.0000000     10.7150000     24.1090000     24.1090000
    102    102      1      0.0000000     10.7150000     24.1090000     29.4670000
    103    103      1      0.0000000     10.7150000     29.4670000      2.6790000
    104    104      1      0.0000000     10.7150000     29.4670000      8.0360000
    105    105      1      0.0000000     10.7150000     29.4670000     13.3940000
    106    106      1      0.0000000     10.7150000     29.4670000     18.7520000
    107    107      1      0.0000000     10.7150000     29.4670000     24.1090000
    108    108      1      0.0000000     10.7150000     29.4670000     29.4670000
    109    109      1      0.0000000     16.0730000      2.6790000      2.6790000
    110    110      1      0.0000000     16.0730000      2.6790000      8.0360000
    111    111      1      0.0000000     16.0730000      2.6790000     13.3940000
    112    112      1      0.0000000     16.0730000      2.6790000     18.7520000
    113    113      1      0.0000000     16.0730000      2.6790000     24.1090000
    114    114      1      0.0000000     16.0730000      2.6790000     29.4670000
    115    115      1      0.0000000     16.0730000      8.0360000      2.6790000
    116    116      1      0.0000000     16.0730000      8.0360000      8.0360000
    117    117      1      0.0000000     16.0730000      8.0360000     13.3940000
    118    118      1      0.0000000     16.0730000      8.0360000     18.7520000
    119    119      1      0.0000000     16.0730000      8.0360000     24.1090000
    120    120      1      0.0000000     16.0730000      8.0360000     29.4670000
    121    121      1      0.0000000     16.0730000     13.3940000      2.6790000
    122    122      1      0.0000000     16.0730000     13.3940000      8.0360000
    123    123      1      0.0000000     16.0730000     13.3940000     13.3940000
    124    124      1      0.0000000     16.0730000     13.3940000     18.7520000
    125    125      1      0.0000000     16.0730000     13.3940000     24.1090000
    126    126      1      0.0000000     16.0730000     13.3940000     29.4670000
    127    127      1      0.0000000     16.0730000     18.7520000      2.6790000
    128    128      1      0.0000000     16.0730000     18.7520000      8.0360000
    129    129      1      0.0000000     16.0730000     18.7520000     13.3940000
    130    130      1      0.0000000     16.0730000     18.7520000     18.7520000
    131    131      1      0.0000000     16.0730000     18.7520000     24.1090000
    132    132      1      0.0000000     16.0730000     18.7520000     29.4670000
    133    133      1      0.0000000     16.0730000     24.1090000      2.6790000
    134    134      1      0.0000000     16.0730000     24.1090000      8.0360000
    135    135      1      0.0000000     16.0730000     24.1090000     13.3940000
    136    136      1      0.0000000     16.0730000     24.1090000     18.7520000
    137    137      1      0.0000000     16.0730000     24.1090000     24.1090000
    138    138      1      0.0000000     16.0730000     24.1090000     29.4670000
    139    139      1      0.0000000     16.0730000     29.4670000      2.6790000
    140    140      1      0.0000000     16.0730000     29.4670000      8.0360000
    141    141      1      0.0000000     16.0730000     29.4670000     13.3940000
    142    142      1      0.0000000     16.0730000     29.4670000     18.7520000
    143    143      1      0.0000000     16.0730000     29.4670000     24.1090000
    144    144      1      0.0000000     16.0730000     29.4670000     29.4670000
    145    145      1      0.0000000     21.4310000      2.6790000      2.6790000
    146    146      1      0.0000000     21.4310000      2.6790000      8.0360000
    147    147      1      0.0000000     21.4310000      2.6790000     13.3940000
    148    148      1      0.0000000     21.4310000      2.6790000     18.7520000
    149    149      1      0.0000000     21.4310000      2.6790000     24.1090000
    150    150      1      0.0000000     21.4310000      2.6790000     29.4670000
    151    151      1      0.0000000     21.4310000      8.0360000      2.6790000
    152    152      1      0.0000000     21.4310000      8.0360000      8.0360000
    153    153      1      0.0000000     21.4310000      8.0360000     13.3940000
    154    154      1      0.0000000     21.4310000      8.0360000     18.7520000
    155    155      1      0.0000000     21.4310000      8.0360000     24.1090000
    156    156      1      0.0000000     21.4310000      8.0360000     29.4670000
    157    157      1      0.0000000     21.4310000     13.3940000      2.6790000
    158    158      1      0.0000000     21.4310000     13.3940000      8.0360000
    159    159      1      0.0000000     21.4310000     13.3940000     13.3940000
    160    160      1      0.0000000     21.4310000     13.3940000     18.7520000
    161    161      1      0.0000000     21.4310000     13.3940000     24.1090000
    162    162      1      0.0000000     21.4310000     13.3940000     29.4670000
    163    163      1      0.0000000     21.4310000     18.7520000      2.6790000
    164    164      1      0.0000000     21.4310000     18.7520000      8.0360000
    165    165      1      0.0000000     21.4310000     18.7520000     13.3940000
    166    166      1      0.0000000     21.4310000     18.7520000     18.7520000
    167    167      1      0.0000000     21.4310000     18.7520000     24.1090000
    168    168      1      0.0000000     21.4310000     18.7520000     29.4670000
    169    169      1      0.0000000     21.4310000     24.1090000      2.6790000
    170    170      1      0.0000000     21.4310000     24.1090000      8.0360000
    171    171      1      0.0000000     21.4310000     24.1090000     13.3940000
    172    172      1      0.0000000     21.4310000     24.1090000     18.7520000
    173    173      1      0.0000000     21.4310000     24.1090000     24.1090000
    174    174      1      0.0000000     21.4310000     24.1090000     29.4670000
    175    175      1      0.0000000     21.4310000     29.4670000      2.6790000
    176    176      1      0.0000000     21.4310000     29.4670000      8.0360000
    177    177      1      0.0000000     21.4310000     29.4670000     13.3940000
    178    178      1      0.0000000     21.4310000     29.4670000     18.7520000
    179    179      1      0.0000000     21.4310000     29.4670000     24.1090000
    180    180      1      0.0000000     21.4310000     29.4670000     29.4670000
    181    181      1      0.0000000     26.7880000      2.6790000      2.6790000
    182    182      1      0.0000000     26.7880000      2.6790000      8.0360000
    183    183      1      0.0000000     26.7880000      2.6790000     13.3940000
    184    184      1      0.0000000     26.7880000      2.6790000     18.7520000
    185    185      1      0.0000000     26.7880000      2.6790000     24.1090000
    186    186      1      0.0000000     26.7880000      2.6790000     29.4670000
    187    187      1      0.0000000     26.7880000      8.0360000      2.6790000
    188    188      1      0.0000000     26.7880000      8.0360000      8.0360000
    189    189      1      0.0000000     26.7880000      8.0360000     13.3940000
    190    190      1      0.0000000     26.7880000      8.0360000     18.7520000
    191    191      1      0.0000000     26.7880000      8.0360000     24.1090000
    192    192      1      0.0000000     26.7880000      8.0360000     29.4670000
    193    193      1      0.0000000     26.7880000     13.3940000      2.6790000
    194    194      1      0.0000000     26.7880000     13.3940000      8.0360000
    195    195      1      0.0000000     26.7880000     13.3940000     13.3940000
    196    196      1      0.0000000     26.7880000     13.3940000     18.7520000
    197    197      1      0.0000000     26.7880000     13.3940000     24.1090000
    198    198      1      0.0000000     26.7880000     13.3940000     29.4670000
    199    199      1      0.0000000     26.7880000     18.7520000      2.6790000
    200    200      1      0.0000000     26.7880000     18.7520000      8.0360000
    201    201      1      0.0000000     26.7880000     18.7520000     13.3940000
    202    202      1      0.0000000     26.7880000     18.7520000     18.7520000
    203    203      1      0.0000000     26.7880000     18.7520000     24.1090000
    204    204      1      0.0000000     26.7880000     18.7520000     29.4670000
    205    205      1      0.0000000     26.7880000     24.1090000      2.6790000
    206    206      1      0.0000000     26.7880000     24.1090000      8.0360000
    207    207      1      0.0000000     26.7880000     24.1090000     13.3940000
    208    208      1      0.0000000     26.7880000     24.1090000     18.7520000
    209    209      1      0.0000000     26.7880000     24.1090000     24.1090000
    210    210      1      0.0000000     26.7880000     24.1090000     29.4670000
    211    211      1      0.0000000     26.7880000     29.4670000      2.6790000
    212    212      1      0.0000000     26.7880000     29.4670000      8.0360000
    213    213      1      0.0000000     26.7880000     29.4670000     13.3940000
    214    214      1      0.0000000     26.7880000     29.4670000     18.7520000
    215    215      1      0.0000000     26.7880000     29.4670000     24.1090000
    216    216      1      0.0000000     26.7880000     29.4670000     29.4670000
    217    217      1      0.0000000      2.6790000      5.3580000      2.6790000
    218    218      1      0.0000000      2.6790000      5.3580000      8.0360000
    219    219      1      0.0000000      2.6790000      5.3580000     13.3940000
    220    220      1      0.0000000      2.6790000      5.3580000     18.7520000
    221    221      1      0.0000000      2.6790000      5.3580000     24.1090000
    222    222      1      0.0000000      2.6790000      5.3580000     29.4670000
    223    223      1      0.0000000      2.6790000     10.7150000      2.6790000
    224    224      1      0.0000000      2.6790000     10.7150000      8.0360000
    225    225      1      0.0000000      2.6790000     10.7150000     13.3940000
    226    226      1      0.0000000      2.6790000     10.7150000     18.7520000
    227    227      1      0.0000000      2.6790000     10.7150000     24.1090000
    228    228      1      0.0000000      2.6790000     10.7150000     29.4670000
    229    229      1      0.0000000      2.6790000     16.0730000      2.6790000
    230    230      1      0.0000000      2.6790000     16.0730000      8.0360000
    231    231      1      0.0000000      2.6790000     16.0730000     13.3940000
    232    232      1      0.0000000      2.6790000     16.0730000     18.7520000
    233    233      1      0.0000000      2.6790000     16.0730000     24.1090000
    234    234      1      0.0000000      2.6790000     16.0730000     29.4670000
    235    235      1      0.0000000      2.6790000     21.4310000      2.6790000
    236    236      1      0.0000000      2.6790000     21.4310000      8.0360000
    237    237      1      0.0000000      2.6790000     21.4310000     13.3940000
    238    238      1      0.0000000      2.6790000     21.4310000     18.7520000
    239    239      1      0.0000000      2.6790000     21.4310000     24.1090000
    240    240      1      0.0000000      2.6790000     21.4310000     29.4670000
    241    241      1      0.0000000      2.6790000     26.7880000      2.6790000
    242    242      1      0.0000000      2.6790000     26.7880000      8.0360000
    243    243      1      0.0000000      2.6790000     26.7880000     13.3940000
    244    244      1      0.0000000      2.6790000     26.7880000     18.7520000
    245    245      1      0.0000000      2.6790000     26.7880000     24.1090000
    246    246      1      0.0000000      2.6790000     26.7880000     29.4670000
    247    247      1      0.0000000      2.6790000     32.1460000      2.6790000
    248    248      1      0.0000000      2.6790000     32.1460000      8.0360000
    249    249      1      0.0000000      2.6790000     32.1460000     13.3940000
    250    250      1      0.0000000      2.6790000     32.1460000     18.7520000
    251    251      1      0.0000000      2.6790000     32.1460000     24.1090000
    252    252      1      0.0000000      2.6790000     32.1460000     29.4670000
    253    253      1      0.0000000      8.0360000      5.3580000      2.6790000
    254    254      1      0.0000000      8.0360000      5.3580000      8.0360000
    255    255      1      0.0000000      8.0360000      5.3580000     13.3940000
    256    256      1      0.0000000      8.0360000      5.3580000     18.7520000
    257    257      1      0.0000000      8.0360000      5.3580000     24.1090000
    258    258      1      0.0000000      8.0360000      5.3580000     29.4670000
    259    259      1      0.0000000      8.0360000     10.7150000      2.6790000
    260    260      1      0.0000000      8.0360000     10.7150000      8.0360000
    261    261      1      0.0000000      8.0360000     10.7150000     13.3940000
    262    262      1      0.0000000      8.0360000     10.7150000     18.7520000
    263    263      1      0.0000000      8.0360000     10.7150000     24.1090000
    264    264      1      0.0000000      8.0360000     10.7150000     29.4670000
    265    265      1      0.0000000      8.0360000     16.0730000      2.6790000
    266    266      1      0.0000000      8.0360000     16.0730000      8.0360000
    267    267      1      0.0000000      8.0360000     16.0730000     13.3940000
    268    268      1      0.0000000      8.0360000     16.0730000     18.7520000
    269    269      1      0.0000000      8.0360000     16.0730000     24.1090000
    270    270      1      0.0000000      8.0360000     16.0730000     29.4670000
    271    271      1      0.0000000      8.0360000     21.4310000      2.6790000
    272    272      1      0.0000000      8.0360000     21.4310000      8.0360000
    273    273      1      0.0000000      8.0360000     21.4310000     13.3940000
    274    274      1      0.0000000      8.0360000     21.4310000     18.7520000
    275    275      1      0.0000000      8.0360000     21.4310000     24.1090000
    276    276      1      0.0000000      8.0360000     21.4310000     29.4670000
    277    277      1      0.0000000      8.0360000     26.7880000      2.6790000
    278    278      1      0.0000000      8.0360000     26.7880000      8.0360000
    279    279      1      0.0000000      8.0360000     26.7880000     13.3940000
    280    280      1      0.0000000      8.0360000     26.7880000     18.7520000
    281    281      1      0.0000000      8.0360000     26.7880000     24.1090000
    282    282      1      0.0000000      8.0360000     26.7880000     29.4670000
    283    283      1      0.0000000      8.0360000     32.1460000      2.6790000
    284    284      1      0.0000000      8.0360000     32.1460000      8.0360000
    285    285      1      0.0000000      8.0360000     32.1460000     13.3940000
    286    286      1      0.0000000      8.0360000     32.1460000     18.7520000
    287    287      1      0.0000000      8.0360000     32.1460000     24.1090000
    288    288      1      0.0000000      8.0360000     32.1460000     29.4670000
    289    289      1      0.0000000     13.3940000      5.3580000      2.6790000
    290    290      1      0.0000000     13.3940000      5.3580000      8.0360000
    291    291      1      0.0000000     13.3940000      5.3580000     13.3940000
    292    292      1      0.0000000     13.3940000      5.3580000     18.7520000
    293    293      1      0.0000000     13.3940000      5.3580000     24.1090000
    294    294      1      0.0000000     13.3940000      5.3580000     29.4670000
    295    295      1      0.0000000     13.3940000     10.7150000      2.6790000
    296    296      1      0.0000000     13.3940000     10.7150000      8.0360000
    297    297      1      0.0000000     13.3940000     10.7150000     13.3940000
    298    298      1      0.0000000     13.3940000     10.7150000     18.7520000
    299    299      1      0.0000000     13.3940000     10.7150000     24.1090000
    300    300      1      0.0000000     13.3940000     10.7150000     29.4670000
    301    301      1      0.0000000     13.3940000     16.0730000      2.6790000
    302    302      1      0.0000000     13.3940000     16.0730000      8.0360000
    303    303      1      0.0000000     13.3940000     16.0730000     13.3940000
    304    304      1      0.0000000     13.3940000     16.0730000     18.7520000
    305    305      1      0.0000000     13.3940000     16.0730000     24.1090000
    306    306      1      0.0000000     13.3940000     16.0730000     29.4670000
    307    307      1      0.0000000     13.3940000     21.4310000      2.6790000
    308    308      1      0.0000000     13.3940000     21.4310000      8.0360000
    309    309      1      0.0000000     13.3940000     21.4310000     13.3940000
    310    310      1      0.0000000     13.3940000     21.4310000     18.7520000
    311    311      1      0.0000000     13.3940000     21.4310000     24.1090000
    312    312      1      0.0000000     13.3940000     21.4310000     29.4670000
    313    313      1      0.0000000     13.3940000     26.7880000      2.6790000
    314    314      1      0.0000000     13.3940000     26.7880000      8.0360000
    315    315      1      0.0000000     13.3940000     26.7880000     13.3940000
    316    316      1      0.0000000     13.3940000     26.7880000     18.7520000
    317    317      1      0.0000000     13.3940000     26.7880000     24.1090000
    318    318      1      0.0000000     13.3940000     26.7880000     29.4670000
    319    319      1      0.0000000     13.3940000     32.1460000      2.6790000
    320    320      1      0.0000000     13.3940000     32.1460000      8.0360000
    321    321      1      0.0000000     13.3940000     32.1460000     13.3940000
    322    322      1      0.0000000     13.3940000     32.1460000     18.7520000
    323    323      1      0.0000000     13.3940000     32.1460000     24.1090000
    324    324      1      0.0000000     13.3940000     32.1460000     29.4670000
    325    325      1      0.0000000     18.7520000      5.3580000      2.6790000
    326    326      1      0.0000000     18.7520000      5.3580000      8.0360000
    327    327      1      0.0000000     18.7520000      5.3580000     13.3940000
    328    328      1      0.0000000     18.7520000      5.3580000     18.7520000
    329    329      1      0.0000000     18.7520000      5.3580000     24.1090000
    330    330      1      0.0000000     18.7520000      5.3580000     29.4670000
    331    331      1      0.0000000     18.7520000     10.7150000      2.6790000
    332    332      1      0.0000000     18.7520000     10.7150000      8.0360000
    333    333      1      0.0000000     18.7520000     10.7150000     13.3940000
    334    334      1      0.0000000     18.7520000     10.7150000     18.7520000
    335    335      1      0.0000000     18.7520000     10.7150000     24.1090000
    336    336      1      0.0000000     18.7520000     10.7150000     29.4670000
    337    337      1      0.0000000     18.7520000     16.0730000      2.6790000
    338    338      1      0.0000000     18.7520000     16.0730000      8.0360000
    339    339      1      0.0000000     18.7520000     16.0730000     13.3940000
    340    340      1      0.0000000     18.7520000     16.0730000     18.7520000
    341    341      1      0.0000000     18.7520000     16.0730000     24.1090000
    342    342      1      0.0000000     18.7520000     16.0730000     29.4670000
    343    343      1      0.0000000     18.7520000     21.4310000      2.6790000
    344    344      1      0.0000000     18.7520000     21.4310000      8.0360000
    345    345      1      0.0000000     18.7520000     21.4310000     13.3940000
    346    346      1      0.0000000     18.7520000     21.4310000     18.7520000
    347    347      1      0.0000000     18.7520000     21.4310000     24.1090000
    348    348      1      0.0000000     18.7520000     21.4310000     29.4670000
    349    349      1      0.0000000     18.7520000     26.7880000      2.6790000
    350    350      1      0.0000000     18.7520000     26.7880000      8.0360000
    351    351      1      0.0000000     18.7520000     26.7880000     13.3940000
    352    352      1      0.0000000     18.7520000     26.7880000     18.7520000
    353    353      1      0.0000000     18.7520000     26.7880000     24.1090000
    354    354      1      0.0000000     18.7520000     26.7880000     29.4670000
    355    355      1      0.0000000     18.7520000     32.1460000      2.6790000
    356    356      1      0.0000000     18.7520000     32.1460000      8.0360000
    357    357      1      0.0000000     18.7520000     32.1460000     13.3940000
    358    358      1      0.0000000     18.7520000     32.1460000     18.7520000
    359    359      1      0.0000000     18.7520000     32.1460000     24.1090000
    360    360      1      0.0000000     18.7520000     32.1460000     29.4670000