LAMMPS (8 Feb 2023)
Running on 2 partitions of processors
Starting alchemical transformation at   0%
  Alchemical transformation progress:  10%
  Alchemical transformation progress:  20%
  Alchemical transformation progress:  30%
  Alchemical transformation progress:  40%
  Alchemical transformation progress:  50%
  Alchemical transformation progress:  60%
  Alchemical transformation progress:  70%
  Alchemical transformation progress:  80%
  Alchemical transformation progress:  90%
  Alchemical transformation progress: 100%
