Generated by yaff2lammps

                 152 atoms
                 184 bonds
                 736 angles 
                 288 dihedrals
                  64 impropers

                   8 atom types
                   8 bond types
                  34 angle types
                   9 dihedral types
                   3 improper types

    0.0000000000000000000000000000000000    13.3259954452999984653160936431959271 xlo xhi
    0.0000000000000000000000000000000000    17.0769005354000000806991010904312134 ylo yhi
    0.0000000000000000000000000000000000    12.5451650575000002163505996577441692 zlo zhi
    0.2406519637999999794431005284423009    -0.0003290864999999999263892436207612     0.0000597691999999999968857904153463 xy xz yz

Masses

    1     15.99940000 #            O_HY
    2     15.99940000 #            O_CA
    3      1.00794000 #            H_HY
    4      1.00794000 #            H_PH
    5     26.98153860 #              AL
    6     12.01070000 #            C_PH
    7     12.01070000 #            C_PC
    8     12.01070000 #            C_CA

Bond Coeffs

       1    567.89714613      0.99006574
       2    149.93642745      1.86984652
       3    111.04240192      1.91161348
       4    389.90538840      1.09141352
       5    491.67603879      1.38895490
       6    451.37211172      1.40304450
       7    668.04674737      1.27972749
       8    320.55756064      1.49110450

Angle Coeffs

       1     cosine/periodic     2.83639133     1     4
       2               cross      6.00819953     13.51503788     20.21646410      1.85789452      0.98840688    111.64709450
       3               cross      6.00819953     20.21646410     13.51503788      0.98840688      1.85789452    111.64709450
       4               cross     44.73850113     10.65965583     10.65965583      1.85789452      1.85789452    128.05371526
       5               cross     79.26686011     18.67531488     42.84377495      1.90495331      1.27905582    132.82471928
       6               cross     79.26686011     42.84377495     18.67531488      1.27905582      1.90495331    132.82471928
       7               cross     -6.85938357      0.00000000      0.00000000      1.85789452      1.85789452      0.00000000
       8               cross     20.15880651     47.33122583     34.90884408      1.90495331      1.85789452     89.96038503
       9               cross     20.15880651     34.90884408     47.33122583      1.85789452      1.90495331     89.96038503
      10               cross     26.34746514      0.00000000      0.00000000      1.90495331      1.90495331      0.00000000
      11               cross     29.49811022     32.88373608     17.10597622      1.09150478      1.40308083    119.48992692
      12               cross     29.49811022     17.10597622     32.88373608      1.40308083      1.09150478    119.48992692
      13               cross    130.12394367      9.80817840     18.96121618      1.40308083      1.38855980    120.04435536
      14               cross    130.12394367     18.96121618      9.80817840      1.38855980      1.40308083    120.04435536
      15               cross     26.93982909     21.36148219     26.91818347      1.38855980      1.09150478    120.51713090
      16               cross     26.93982909     26.91818347     21.36148219      1.09150478      1.38855980    120.51713090
      17               cross     69.39565871     31.02625485     12.91121121      1.49380304      1.40308083    120.04236743
      18               cross     69.39565871     12.91121121     31.02625485      1.40308083      1.49380304    120.04236743
      19               cross    132.39591455      8.36520076      8.36520076      1.40308083      1.40308083    119.90683966
      20               cross    101.87765421    105.70691653     47.75221042      1.27905582      1.49380304    117.59476167
      21               cross    101.87765421     47.75221042    105.70691653      1.49380304      1.27905582    117.59476167
      22               cross    183.45287073     91.94550669     91.94550669      1.27905582      1.27905582    124.82435184
      23            harmonic     16.58040240    109.62517017
      24            harmonic     17.35339453    114.44875517
      25            harmonic     17.77569321    132.30806010
      26            harmonic     31.05808424     89.91290461
      27            harmonic     35.90327756    119.61990442
      28            harmonic     65.78425626    120.00645318
      29            harmonic     31.59874504    120.45871258
      30            harmonic     43.33676649    120.04493381
      31            harmonic     62.87326877    119.94842490
      32            harmonic     75.47920221    117.59298491
      33            harmonic     76.76979213    124.86144100
      34      cosine/squared  1689.15160421    180.00000000

Dihedral Coeffs

       1    1      3.73165017     2   -180.00000000
       2    1      2.24530337     2   -180.00000000
       3    1      4.66917332     2   -180.00000000
       4    1      3.98899930     2   -180.00000000
       5    1      3.29635668     2   -180.00000000
       6    1      1.54619053     2   -180.00000000
       7    1      3.86252462     2   -180.00000000
       8    1      2.05124797     2   -180.00000000
       9    1      2.35456853     2   -180.00000000

Improper Coeffs

       1      9.10278571      0.00000000
       2    167.11786187      0.00000000
       3     18.17859622      0.00000000

Pair Coeffs

    1       0.059000000000       1.820000000000       1.132500000000 #            O_HY
    2       0.059000000000       1.820000000000       1.132500000000 #            O_CA
    3       0.016000000000       1.600000000000       0.730800000000 #            H_HY
    4       0.020000000000       1.620000000000       0.730800000000 #            H_PH
    5       0.116000000000       2.360000000000       1.674200000000 #              AL
    6       0.056000000000       1.940000000000       1.170300000000 #            C_PH
    7       0.056000000000       1.940000000000       1.170300000000 #            C_PC
    8       0.056000000000       1.940000000000       1.170300000000 #            C_CA

Atoms

    1   1   1    -1.2098756939999999460155777342151850     6.7153870720493431534237060986924917     4.2828041318282634719594170746859163     8.5866133816897338704166031675413251
    2   1   1    -1.2098756939999999460155777342151850    13.3783843949194771738575582276098430     4.2828041318282634719594170746859163     8.5866133816897338704166031675413251
    3   1   1    -1.2098756939999999460155777342151850     3.5035237129981489090368995675817132    12.8223120918310673488349493709392846     2.3141018836642901490563417610246688
    4   1   1    -1.2098756939999999460155777342151850    10.1665216355380785273609944852069020    12.8223120918310673488349493709392846     2.3141018836642901490563417610246688
    5   1   1    -1.2098756939999999460155777342151850     6.8349996196255871083735655702184886    12.8213427865959719298416530364193022     3.9586200971404887916094139654887840
    6   1   1    -1.2098756939999999460155777342151850    13.4979977420554568823263252852484584    12.8213427865959701534848136361688375     3.9586200971404887916094139654887840
    7   1   1    -1.2098756939999999460155777342151850     3.3839079367670850118088310409802943     4.2840038831740319125174210057593882    10.2311117738051464698401105124503374
    8   1   1    -1.2098756939999999460155777342151850    10.0469052596372208085995225701481104     4.2840038831740310243390013056341559    10.2311117738051464698401105124503374
    9   1   2    -0.7445643530000000120949721349461470     1.2589905770693332609511116970679723    14.0689460511913626561408818815834820     1.8089686548556627165851296012988314
   10   1   2    -0.7445643530000000120949721349461470     7.9219883930013077488752060162369162    14.0689460511913626561408818815834820     1.8089686548556627165851296012988314
   11   1   2    -0.7445643530000000120949721349461470     4.4707674159202488439746048243250698     5.5288543253806796684557411936111748     8.0795827217564895050827544764615595
   12   1   2    -0.7445643530000000120949721349461470    11.1337651385702471884542319457978010     5.5288543253806796684557411936111748     8.0795827217564895050827544764615595
   13   1   2    -0.7445643530000000120949721349461470     1.2229986327132931211991717646014877     2.7734064633669284205552685307338834    10.4955229434339933902720076730474830
   14   1   2    -0.7445643530000000120949721349461470     7.8859965552532269583707602578215301     2.7734064633669279764660586806712672    10.4955229434339933902720076730474830
   15   1   2    -0.7445643530000000120949721349461470     4.6742044121247552368458855198696256    11.3101997821180297876253462163731456     4.2205434978126090683758775412570685
   16   1   2    -0.7445643530000000120949721349461470    11.3372021347747544695039323414675891    11.3101997821180297876253462163731456     4.2205434978126090683758775412570685
   17   1   2    -0.7445643530000000120949721349461470     5.5525225224355230224659862869884819     5.7375722500320405217166808142792434    10.5597464481615510578649264061823487
   18   1   2    -0.7445643530000000120949721349461470    12.2155206315393947136271890485659242     5.7375722500320396335382611141540110    10.5597464481615510578649264061823487
   19   1   2    -0.7445643530000000120949721349461470     2.3407580474861306996103849087376148    14.2746180205582611222325795097276568     4.2891813575851065465371902973856777
   20   1   2    -0.7445643530000000120949721349461470     9.0037557701361325968036908307112753    14.2746180205582593458757401094771922     4.2891813575851065465371902973856777
   21   1   2    -0.7445643530000000120949721349461470     5.7700538186296190801272132375743240    11.5405550825335865283705061301589012     1.8195962287082991792885877657681704
   22   1   2    -0.7445643530000000120949721349461470    12.4330511414997584296315835672430694    11.5405550825335865283705061301589012     1.8195962287082991792885877657681704
   23   1   2    -0.7445643530000000120949721349461470     2.3187182063798501552298603201052174     3.0004106930250986629005183203844354     8.0941017932647998378570264321751893
   24   1   2    -0.7445643530000000120949721349461470     8.9817157424659139763889470486901700     3.0004106930250982188113084703218192     8.0941017932647998378570264321751893
   25   1   2    -0.7445643530000000120949721349461470     5.6502316143841939677372465666849166     3.0020828644755410685718288732459769    10.7252833635608215701040535350330174
   26   1   2    -0.7445643530000000120949721349461470    12.3132293370342029703579100896604359     3.0020828644755406244826190231833607    10.7252833635608215701040535350330174
   27   1   2    -0.7445643530000000120949721349461470     2.4385834497316842828240623930469155    11.5390906922377300958260093466378748     4.4515765998441914064187585609033704
   28   1   2    -0.7445643530000000120949721349461470     9.1015815721615513922415630077011883    11.5390906922377300958260093466378748     4.4515765998441914064187585609033704
   29   1   2    -0.7445643530000000120949721349461470     5.6722249356407399289992099511437118    14.2759679355859336880030241445638239     1.9851114660623476737555392901413143
   30   1   2    -0.7445643530000000120949721349461470    12.3352230580706052620598711655475199    14.2759679355859336880030241445638239     1.9851114660623476737555392901413143
   31   1   2    -0.7445643530000000120949721349461470     2.2210375988136932257077660324284807     5.7360095476548309534337022341787815     8.2560278212604032432864187285304070
   32   1   2    -0.7445643530000000120949721349461470     8.8840349216838294665876674116589129     5.7360095476548309534337022341787815     8.2560278212604032432864187285304070
   33   1   2    -0.7445643530000000120949721349461470     1.3426929459297589630750735523179173    11.3116032563078015016344579635187984     2.0503536005570812683629355888115242
   34   1   2    -0.7445643530000000120949721349461470     8.0056903754078607704514070064760745    11.3116032563078015016344579635187984     2.0503536005570812683629355888115242
   35   1   2    -0.7445643530000000120949721349461470     4.5544349664199854643698017753195018     2.7717800127098115581247839145362377     8.3243804039794877525082483771257102
   36   1   2    -0.7445643530000000120949721349461470    11.2174326890699891379199470975436270     2.7717800127098111140355740644736215     8.3243804039794877525082483771257102
   37   1   2    -0.7445643530000000120949721349461470     1.1392762498379640501156018217443489     5.5307225590439976770085195312276483    10.7363410985781104756142667611129582
   38   1   2    -0.7445643530000000120949721349461470     7.8022735727081062861998361768200994     5.5307225590439967888300998311024159    10.7363410985781104756142667611129582
   39   1   2    -0.7445643530000000120949721349461470     4.5904838756409240829725604271516204    14.0673016329479629860088607529178262     4.4653546409977158404558394977357239
   40   1   2    -0.7445643530000000120949721349461470    11.2534815982909286447011254495009780    14.0673016329479629860088607529178262     4.4653546409977158404558394977357239
   41   1   3     0.5185263799999999534406924794893712     6.7033022636923433879019285086542368     4.6749920341423978342731970769818872     7.7032864563136307367585686733946204
   42   1   3     0.5185263799999999534406924794893712    13.3662995865624836255847185384482145     4.6749920341423969460947773768566549     7.7032864563136307367585686733946204
   43   1   3     0.5185263799999999534406924794893712     3.4911946343224471434041333850473166    13.2152028467359965446803471422754228     1.4310936932968010282252180331852287
   44   1   3     0.5185263799999999534406924794893712    10.1541925435363875607208683504723012    13.2152028467359947683235077420249581     1.4310936932968010282252180331852287
   45   1   3     0.5185263799999999534406924794893712     6.8226445109087379137235984671860933    13.2137951050594022461837084847502410     4.8418266265675384829592076130211353
   46   1   3     0.5185263799999999534406924794893712    13.4856422335587406990953240892849863    13.2137951050594004698268690844997764     4.8418266265675384829592076130211353
   47   1   3     0.5185263799999999534406924794893712     3.3718390257973132051461107039358467     4.6776567735304457329448268865235150    11.1137888972667671083627283223904669
   48   1   3     0.5185263799999999534406924794893712    10.0348367484473133259825772256590426     4.6776567735304457329448268865235150    11.1137888972667671083627283223904669
   49   1   4     0.1519691589999999925542084611151950     2.3150111389406484718733736372087151    15.7561391408537811997803146368823946     0.3851155792041089376276374878216302
   50   1   4     0.1519691589999999925542084611151950     8.9780090614805825310895670554600656    15.7561391408537811997803146368823946     0.3851155792041089376276374878216302
   51   1   4     0.1519691589999999925542084611151950     5.5251997890205615249215043149888515     7.2122227707358952386584860505536199     6.6487285031154712555689911823719740
   52   1   4     0.1519691589999999925542084611151950    12.1881975116705607575795511365868151     7.2122227707358943504800663504283875     6.6487285031154712555689911823719740
   53   1   4     0.1519691589999999925542084611151950     2.1513768927132632668985934287775308     0.7793385220131339163884831577888690    11.5512885193109173798120536957867444
   54   1   4     0.1519691589999999925542084611151950     8.8143748152531955497579474467784166     0.7793385220131333612769708452105988    11.5512885193109173798120536957867444
   55   1   4     0.1519691589999999925542084611151950     5.6018395825408164867553750809747726     9.3122840258958383685694570885971189     5.2698941286277101170298919896595180
   56   1   4     0.1519691589999999925542084611151950    12.2648377049706844843512953957542777     9.3122840258958365922126176883466542     5.2698941286277101170298919896595180
   57   1   4     0.1519691589999999925542084611151950     4.6402743945654769675002171425148845     7.7570678771031307263683629571460187    11.5742489313024528030382498400285840
   58   1   4     0.1519691589999999925542084611151950    11.3032725036693442177693214034661651     7.7570678771031298381899432570207864    11.5742489313024528030382498400285840
   59   1   4     0.1519691589999999925542084611151950     1.4289916763510370767420454285456799    16.2937782613533990172527410322800279     5.3045340265619520536688469292130321
   60   1   4     0.1519691589999999925542084611151950     8.0919889992211722073989221826195717    16.2937782613533954645390622317790985     5.3045340265619520536688469292130321
   61   1   4     0.1519691589999999925542084611151950     4.7188867445007129930445444188080728     9.8576336883462030158398192725144327     0.4106092614660375450519325113418745
   62   1   4     0.1519691589999999925542084611151950    11.3818848669305765497483662329614162     9.8576336883462012394829798722639680     0.4106092614660375450519325113418745
   63   1   4     0.1519691589999999925542084611151950     1.2672446555857233008168805099558085     1.3174924965356069606059463694691658     6.6860210385656291265377149102278054
   64   1   4     0.1519691589999999925542084611151950     7.9302420850638259963716336642391980     1.3174924965356062944721315943752415     6.6860210385656291265377149102278054
   65   1   4     0.1519691589999999925542084611151950     4.5976454677133533621713468164671212     1.3167699335050779829714429070008919    12.1295236794261001023187418468296528
   66   1   4     0.1519691589999999925542084611151950    11.2606431903633534830078133381903172     1.3167699335050770947930232068756595    12.1295236794261001023187418468296528
   67   1   4     0.1519691589999999925542084611151950     1.3874618992261169569957246494595893     9.8559985125562405983146163634955883     5.8599964503548598315774142974987626
   68   1   4     0.1519691589999999925542084611151950     8.0504595152681570624508822220377624     9.8559985125562370456009375629946589     5.8599964503548598315774142974987626
   69   1   4     0.1519691589999999925542084611151950     4.7594768289705067232375768071506172    16.2928537268444415531121194362640381     0.9657755315474335633396663070016075
   70   1   4     0.1519691589999999925542084611151950    11.4224745516205032913603645283728838    16.2928537268444380003984406357631087     0.9657755315474335633396663070016075
   71   1   4     0.1519691589999999925542084611151950     1.3090438015508472080483670652029105     7.7552807308893543236649747996125370     7.2413518635770861564537881349679083
   72   1   4     0.1519691589999999925542084611151950     7.9720419239807123190644233545754105     7.7552807308893543236649747996125370     7.2413518635770861564537881349679083
   73   1   4     0.1519691589999999925542084611151950     2.2705998288829158937573993171099573     9.3150495706767486581156845204532146     0.9992716491478911278178998145449441
   74   1   4     0.1519691589999999925542084611151950     8.9335973516429838525709783425554633     9.3150495706767468817588451202027500     0.9992716491478911278178998145449441
   75   1   4     0.1519691589999999925542084611151950     5.4818417666741723337509029079228640     0.7738074986951422040704073879169300     7.2745362714613577281852485612034798
   76   1   4     0.1519691589999999925542084611151950    12.1448398891040394431684035225771368     0.7738074986951416489588950753386598     7.2745362714613577281852485612034798
   77   1   4     0.1519691589999999925542084611151950     2.1937673007028561933395849337102845     7.2151514782616867904607715900056064    12.1654336247804373272174416342750192
   78   1   4     0.1519691589999999925542084611151950     8.8567648234629228198855344089679420     7.2151514782616867904607715900056064    12.1654336247804373272174416342750192
   79   1   4     0.1519691589999999925542084611151950     5.6453609802319695276651145832147449    15.7507340863305405065375452977605164     5.8955942218219092865183483809232712
   80   1   4     0.1519691589999999925542084611151950    12.3083583031021088771694849128834903    15.7507340863305387301807058975100517     5.8955942218219092865183483809232712
   81   1   5     2.0909989460000000249806362262461334     1.7220884276321977157664377955370583     4.2577041896622827010787659673951566     9.3989182512193298890679216128773987
   82   1   5     2.0909989460000000249806362262461334     8.3850859503922716697843497968278825     4.2577041896622818129003462672699243     9.3989182512193298890679216128773987
   83   1   5     2.0909989460000000249806362262461334     5.1732895332567778723387164063751698    12.7961141377704930022218832164071500     3.1261246626124026271043021552031860
   84   1   5     2.0909989460000000249806362262461334    11.8362872559067771049967632279731333    12.7961141377704930022218832164071500     3.1261246626124026271043021552031860
   85   1   5     2.0909989460000000249806362262461334     1.8417926657907308651829225709661841    12.7961386721601790839031309587880969     3.1465567471285815770443150540813804
   86   1   5     2.0909989460000000249806362262461334     8.5047905883306658125775356893427670    12.7961386721601773075462915585376322     3.1465567471285815770443150540813804
   87   1   5     2.0909989460000000249806362262461334     5.0535778772553525683974839921575040     4.2576796083468551046280481386929750     9.4188173794883720546522454242222011
   88   1   5     2.0909989460000000249806362262461334    11.7165752001254901415450149215757847     4.2576796083468533282712087384425104     9.4188173794883720546522454242222011
   89   1   6    -0.1065741179999999954652878386696102     1.4141707527268658761698816306306981    16.3400809537558444617388886399567127     0.2022529879698692911738078237249283
   90   1   6    -0.1065741179999999954652878386696102     8.0771686752667974928954208735376596    16.3400809537558444617388886399567127     0.2022529879698692911738078237249283
   91   1   6    -0.1065741179999999954652878386696102     4.6246955781035241628273979586083442     7.7975351373134911270312841224949807     6.4685670866407551926613450632430613
   92   1   6    -0.1065741179999999954652878386696102    11.2876933007535207309501856798306108     7.7975351373134911270312841224949807     6.4685670866407551926613450632430613
   93   1   6    -0.1065741179999999954652878386696102     1.2180418815135878318756113003473729     0.4262156085319599996275030662218342    11.9882078772904936414533949573524296
   94   1   6    -0.1065741179999999954652878386696102     7.8810392976656951091740666015539318     0.4262156085319593334936882911279099    11.9882078772904936414533949573524296
   95   1   6    -0.1065741179999999954652878386696102     4.6691704987195228326868345902767032     8.9605484349032789026523460051976144     5.7093670549547432813142222585156560
   96   1   6    -0.1065741179999999954652878386696102    11.3321682213695300589506587130017579     8.9605484349032771262955066049471498     5.7093670549547432813142222585156560
   97   1   6    -0.1065741179999999954652878386696102     5.5731262922007358540099630772601813     8.1037524473176567596510722069069743    12.0169282136407069572214822983369231
   98   1   6    -0.1065741179999999954652878386696102    12.2361240148507377512032689992338419     8.1037524473176549832942328066565096    12.0169282136407069572214822983369231
   99   1   6    -0.1065741179999999954652878386696102     2.3619457998798174536148053448414430    16.6401915820548325086747354362159967     5.7472080650212156172074173809960485
  100   1   6    -0.1065741179999999954652878386696102     9.0249439223096850071215158095583320    16.6401915820548325086747354362159967     5.7472080650212156172074173809960485
  101   1   6    -0.1065741179999999954652878386696102     5.6164918446169611598861592938192189     9.2670862695492175475919793825596571     0.2304860073834236744438896948850015
  102   1   6    -0.1065741179999999954652878386696102    12.2794899670468264929468205082230270     9.2670862695492157712351399823091924     0.2304860073834236744438896948850015
  103   1   6    -0.1065741179999999954652878386696102     2.1646735340058396168672061321558431     0.7266775681237089834496600815327838     6.5059044961463232681353474617935717
  104   1   6    -0.1065741179999999954652878386696102     8.8276710567659080197699950076639652     0.7266775681237084283381477689545136     6.5059044961463232681353474617935717
  105   1   6    -0.1065741179999999954652878386696102     5.4954840105190072563345893286168575     0.7272885255903810408639742490777280    12.3119305800847929077690423582680523
  106   1   6    -0.1065741179999999954652878386696102    12.1584817331690135944199937512166798     0.7272885255903803747301594739838038    12.3119305800847929077690423582680523
  107   1   6    -0.1065741179999999954652878386696102     2.2849532575684836643858943716622889     9.2651606566280424459591813501901925     6.0397320212017060470088836154900491
  108   1   6    -0.1065741179999999954652878386696102     8.9479509802184900024712987942621112     9.2651606566280424459591813501901925     6.0397320212017060470088836154900491
  109   1   6    -0.1065741179999999954652878386696102     5.6929776458884013834449433488771319    16.6407061629956416481945780105888844     0.5254053499251585268581266063847579
  110   1   6    -0.1065741179999999954652878386696102    12.3559757549922686337140476098284125    16.6407061629956380954808992100879550     0.5254053499251585268581266063847579
  111   1   6    -0.1065741179999999954652878386696102     2.2418392805257347788483457406982780     8.1017188456549362740588549058884382     6.7983615238712307160540149197913706
  112   1   6    -0.1065741179999999954652878386696102     8.9048370031757357878632319625467062     8.1017188456549362740588549058884382     6.7983615238712307160540149197913706
  113   1   6    -0.1065741179999999954652878386696102     1.3378988445639905524586765750427730     8.9631021552237744032254340709187090     0.5600409072322938275334536228911020
  114   1   6    -0.1065741179999999954652878386696102     8.0008963673240636182981688762083650     8.9631021552237744032254340709187090     0.5600409072322938275334536228911020
  115   1   6    -0.1065741179999999954652878386696102     4.5490129888977781646985931729432195     0.4220911682453661883940299048845191     6.8353863705893926905332591559272259
  116   1   6    -0.1065741179999999954652878386696102    11.2120103117679210669166423031128943     0.4220911682453655777713663610484218     6.8353863705893926905332591559272259
  117   1   6    -0.1065741179999999954652878386696102     1.2931697223744265112799212147365324     7.8002126371303779350796503422316164    12.3459248034638537916407585726119578
  118   1   6    -0.1065741179999999954652878386696102     7.9561673517424651436158455908298492     7.8002126371303779350796503422316164    12.3459248034638537916407585726119578
  119   1   6    -0.1065741179999999954652878386696102     4.7449200366800932116007061267737299    16.3360242466580523057473328663036227     6.0761321312451688214650857844389975
  120   1   6    -0.1065741179999999954652878386696102    11.4079181457839649027619088883511722    16.3360242466580523057473328663036227     6.0761321312451688214650857844389975
  121   1   7    -0.1475182609999999838734652257699054     6.8625612135502791488761431537568569    15.8993490470899345723410078790038824     0.7462376897096898442640622306498699
  122   1   7    -0.1475182609999999838734652257699054    13.5255589362002837106047081761062145    15.8993490470899345723410078790038824     0.7462376897096898442640622306498699
  123   1   7    -0.1475182609999999838734652257699054     3.4109618177191207699650021822890267     7.3586684715520229715934874548111111     7.0160031640105362527037868858315051
  124   1   7    -0.1475182609999999838734652257699054    10.0739595403691204467122588539496064     7.3586684715520220834150677546858788     7.0160031640105362527037868858315051
  125   1   7    -0.1475182609999999838734652257699054     0.0473415571287404482458960330859554     1.1642431334386127428359714031103067    11.7662756401595451904995570657774806
  126   1   7    -0.1475182609999999838734652257699054     6.7103393197567315908713680983055383     1.1642431334386122987467615530476905    11.7662756401595451904995570657774806
  127   1   7    -0.1475182609999999838734652257699054     3.4989796446374041849480818200390786     9.7004408763167386808845549239777029     5.4908995164190423921013461949769408
  128   1   7    -0.1475182609999999838734652257699054    10.1619773672874043057845483417622745     9.7004408763167351281708761234767735     5.4908995164190423921013461949769408
  129   1   7    -0.1475182609999999838734652257699054     6.7423569930703077801581457606516778     7.3609697445742119370493128371890634    11.7989650409209776427132965181954205
  130   1   7    -0.1475182609999999838734652257699054    13.4053547157203087891730319825001061     7.3609697445742101606924734369385988    11.7989650409209776427132965181954205
  131   1   7    -0.1475182609999999838734652257699054     3.5309961971541143910258142568636686    15.8971691701905903926217433763667941     5.5291046875368072832657162507530302
  132   1   7    -0.1475182609999999838734652257699054    10.1939941196940502265988470753654838    15.8971691701905903926217433763667941     5.5291046875368072832657162507530302
  133   1   7    -0.1475182609999999838734652257699054     0.1675527733465424773395824331601034     9.7025773236021279899432556703686714     0.7790777077228052682755787827773020