LAMMPS data file from restart file: timestep = 1000000, procs = 16

2709 atoms
1806 bonds
903 angles

2 atom types
1 bond types
1 angle types

-1.5000000000000000e+01 1.5000000000000000e+01 xlo xhi
-1.5000000000000000e+01 1.5000000000000000e+01 ylo yhi
-1.5000000000000000e+01 1.5000000000000000e+01 zlo zhi

Masses

1 1.008
2 15.9994

Pair Coeffs

1 0 0
2 0.006596 3.1507

Bond Coeffs

1 19.5139 0.9572

Angle Coeffs

1 2.38503 104.52

Atoms

1178 393 2 -8.2999999999999996e-01 -9.8872529844069881e+00 -1.0400602872144541e+01 -1.2082451328094830e+01 1 0 0
1476 492 1 4.1499999999999998e-01 -1.1710289353846562e+01 -1.1500804776290479e+01 -8.6282562115374866e+00 0 0 0
1475 492 2 -8.2999999999999996e-01 -1.2356118863757857e+01 -1.1050435614611587e+01 -8.0783264879600836e+00 0 0 0
1535 512 2 -8.2999999999999996e-01 -1.0930875056699985e+01 -1.2184901928362175e+01 -1.0177577328561139e+01 0 0 1
1534 512 1 4.1499999999999998e-01 -1.1229556070931679e+01 -1.2898095990960563e+01 -1.0747417163669127e+01 0 0 1
1536 512 1 4.1499999999999998e-01 -1.0689043336660919e+01 -1.1484592409307904e+01 -1.0789235029866632e+01 0 0 1
1179 393 1 4.1499999999999998e-01 -1.0294681768631168e+01 -9.9527610030504050e+00 -1.2829441165691387e+01 1 0 0
573 191 1 4.1499999999999998e-01 -9.9969082129169333e+00 -1.2733166874958441e+01 -8.8325006256025667e+00 0 0 0
1474 492 1 4.1499999999999998e-01 -1.2938537363860801e+01 -1.0619495068789359e+01 -8.7094666701985108e+00 0 0 0
1177 393 1 4.1499999999999998e-01 -9.2830227184408116e+00 -1.1026018740225203e+01 -1.2488033897980477e+01 1 0 0
1985 662 2 -8.2999999999999996e-01 -9.0318197165957219e+00 -8.3050652913775771e+00 -1.0196676993291350e+01 1 1 1
1644 548 1 4.1499999999999998e-01 -8.9644965354886654e+00 -9.6355686134445087e+00 -8.7582130342443811e+00 0 0 0
1984 662 1 4.1499999999999998e-01 -9.4592177154145123e+00 -8.8820723074229662e+00 -1.0835218693003011e+01 1 1 1
572 191 2 -8.2999999999999996e-01 -9.4690053144750639e+00 -1.3257410249194111e+01 -8.2246468399167281e+00 0 0 0
1643 548 2 -8.2999999999999996e-01 -8.4511054504300631e+00 -1.0112350547114659e+01 -8.1004400433283763e+00 0 0 0
571 191 1 4.1499999999999998e-01 -8.9346697991283186e+00 -1.3811334562782871e+01 -8.7993479582557210e+00 0 0 0
392 131 2 -8.2999999999999996e-01 -1.3385768827978001e+01 -1.2888344830492935e+01 -1.4065911015104064e+01 -1 0 0
1172 391 2 -8.2999999999999996e-01 -1.2135880043603068e+01 -1.4065415811603355e+01 -1.2022519634951109e+01 0 1 1
1171 391 1 4.1499999999999998e-01 -1.2499934050662803e+01 -1.3510938606107022e+01 -1.2718221278491324e+01 0 1 1
976 326 1 4.1499999999999998e-01 -1.4174230486603282e+01 -9.3347945361974816e+00 -1.0559843157228016e+01 1 1 1
539 180 2 -8.2999999999999996e-01 -9.3622221178131149e+00 -1.2522067905442862e+01 -1.4185084161623173e+01 1 0 0
170 57 2 -8.2999999999999996e-01 -1.1848054971644993e+01 -9.4820286899619184e+00 -1.4166519523395447e+01 0 0 0
2053 685 1 4.1499999999999998e-01 -1.4583317194999040e+01 -1.2392960308349990e+01 -1.2692175247299105e+01 0 1 1
977 326 2 -8.2999999999999996e-01 -1.4265191099778216e+01 -1.0152128324849739e+01 -1.0064431491306301e+01 1 1 1
1986 662 1 4.1499999999999998e-01 -8.6223575358138600e+00 -7.6243819228655951e+00 -1.0736349886666767e+01 1 1 1
2438 813 2 -8.2999999999999996e-01 -7.6641159066600935e+00 -8.8474742884669872e+00 -1.4412674383281878e+01 0 1 1
86 29 2 -8.2999999999999996e-01 -6.7438900176897514e+00 -6.6411199253816351e+00 -8.5485646269291973e+00 1 0 0
663 221 1 4.1499999999999998e-01 -1.2878785079777293e+01 -8.5474392098165133e+00 -1.2645214274586870e+01 0 0 -1
662 221 2 -8.2999999999999996e-01 -1.3649961158914557e+01 -8.2358778853015284e+00 -1.2165862191417668e+01 0 0 -1
661 221 1 4.1499999999999998e-01 -1.4234507197696205e+01 -7.9069969043209785e+00 -1.2854370475208475e+01 0 0 -1
978 326 1 4.1499999999999998e-01 -1.4242038893027843e+01 -1.0836550758955111e+01 -1.0738799505281357e+01 1 1 1
2629 877 1 4.1499999999999998e-01 -5.2200914133034546e+00 -1.3602485289164548e+01 -1.4914188463613756e+01 0 1 0
1375 459 1 4.1499999999999998e-01 -1.2141879169081835e+00 -1.3225058844220822e+01 -1.4551075521433118e+01 0 2 0
1538 513 2 -8.2999999999999996e-01 -7.8305227967194746e+00 -1.4419476915033471e+01 -1.0219037259230754e+01 1 1 1
321 107 1 4.1499999999999998e-01 -7.9223687033314185e+00 -1.2988407806697669e+01 -1.3143569056882566e+01 0 1 0
1642 548 1 4.1499999999999998e-01 -7.8980220557968943e+00 -1.0701077028313076e+01 -8.6195800451901192e+00 0 0 0
1539 513 1 4.1499999999999998e-01 -7.6864167728769681e+00 -1.3746464765666406e+01 -1.0889850732825511e+01 1 1 1
320 107 2 -8.2999999999999996e-01 -7.2453360178059576e+00 -1.2817468765951048e+01 -1.2483272483531154e+01 0 1 0
970 324 1 4.1499999999999998e-01 -1.0159420646001605e+01 -7.5407505153349099e+00 -8.7598337994454969e+00 0 1 0
2538 846 1 4.1499999999999998e-01 -8.3691446502393809e+00 -7.1641633841216539e+00 -1.3178106542343496e+01 0 -1 0
2439 813 1 4.1499999999999998e-01 -8.0638094172631227e+00 -9.4985359095818023e+00 -1.4994977459653683e+01 0 1 1
543 181 1 4.1499999999999998e-01 -6.4165989745619658e+00 -1.4883388304372319e+01 -9.0007306004274223e+00 0 0 0
319 107 1 4.1499999999999998e-01 -6.4241047553563932e+00 -1.2846026220103225e+01 -1.2979777297757625e+01 0 1 0
1845 615 1 4.1499999999999998e-01 -6.9807190657458751e+00 -1.1699201756532048e+01 -1.0696276595377141e+01 0 0 1
1376 459 2 -8.2999999999999996e-01 -1.3301721886311157e+00 -1.3944108907836087e+01 -1.3924398760845857e+01 0 2 0
747 249 1 4.1499999999999998e-01 -1.1681002763069359e+00 -8.3939262329007498e+00 -1.0276161386354799e+01 -1 1 1
2305 769 1 4.1499999999999998e-01 -2.7813736258953989e+00 -8.9083567371978312e+00 -1.2884407230274265e+01 0 0 -1
712 238 1 4.1499999999999998e-01 -3.6640446039501602e+00 -1.1328228469136253e+01 -9.3480906397794090e+00 -1 1 0
1843 615 1 4.1499999999999998e-01 -6.2792834181336881e+00 -1.0358021281372318e+01 -1.0729714159888635e+01 0 0 1
1844 615 2 -8.2999999999999996e-01 -6.6233095860082178e+00 -1.1017507937069640e+01 -1.0121664807256904e+01 0 0 1
713 238 2 -8.2999999999999996e-01 -4.3865555581623834e+00 -1.1197459348431520e+01 -8.7284066730321861e+00 -1 1 0
714 238 1 4.1499999999999998e-01 -5.1547809840299035e+00 -1.1070712011446906e+01 -9.2907719310866241e+00 -1 1 0
1025 342 2 -8.2999999999999996e-01 -3.2269912472126734e+00 -1.3226046896271232e+01 -1.2131802917049630e+01 0 1 0
2647 883 1 4.1499999999999998e-01 -5.0705811831474081e+00 -9.3725471087112524e+00 -1.3089471143747005e+01 0 1 1
1026 342 1 4.1499999999999998e-01 -3.9394795806392251e+00 -1.3027465010502556e+01 -1.2744977899460505e+01 0 1 0
2306 769 2 -8.2999999999999996e-01 -2.1134289123473815e+00 -9.0796893431316619e+00 -1.2214942903508307e+01 0 0 -1
2648 883 2 -8.2999999999999996e-01 -5.7854278746986800e+00 -9.3392490416838410e+00 -1.2448177195981200e+01 0 1 1
1523 508 2 -8.2999999999999996e-01 -2.4632553918240636e+00 -1.1120356938505235e+01 -1.0578178874638649e+01 0 1 1
1522 508 1 4.1499999999999998e-01 -2.6145323024282399e+00 -1.1863352047255480e+01 -1.1167984145617845e+01 0 1 1
1524 508 1 4.1499999999999998e-01 -2.3849787888554870e+00 -1.0366956616851361e+01 -1.1168999357552282e+01 0 1 1
1213 405 1 4.1499999999999998e-01 -1.1326943233643405e+00 -1.1543703690594427e+01 -8.8781045976165167e+00 0 0 0
2649 883 1 4.1499999999999998e-01 -6.5798353367747637e+00 -9.4212638109838291e+00 -1.2981426299425895e+01 0 1 1
2307 769 1 4.1499999999999998e-01 -1.3236681543228717e+00 -9.2831828826163534e+00 -1.2721633692891565e+01 0 0 -1
1024 342 1 4.1499999999999998e-01 -2.5398421417767056e+00 -1.3601614138110110e+01 -1.2687855610380451e+01 0 1 0
2630 877 2 -8.2999999999999996e-01 -5.2274498916744481e+00 -1.2833152756079921e+01 -1.4339118716152102e+01 0 1 0
1214 405 2 -8.2999999999999996e-01 -6.1032780352483140e-01 -1.2150115272610794e+01 -8.3475080134537691e+00 0 0 0
650 217 2 -8.2999999999999996e-01 -3.8902423144301292e+00 -9.1361840346853622e+00 -1.4489760817806529e+01 0 1 1
746 249 2 -8.2999999999999996e-01 -8.1013552277161338e-01 -7.7204687800774883e+00 -9.6921682614491012e+00 -1 1 1
340 114 1 4.1499999999999998e-01 -5.2769694457779899e+00 -8.3842037054266019e+00 -1.0912917491177517e+01 0 0 0
341 114 2 -8.2999999999999996e-01 -4.7496147798636947e+00 -7.8867096663147711e+00 -1.0282322838930462e+01 0 0 0
66 22 1 4.1499999999999998e-01 -3.6086720469515945e+00 -7.4082315051458600e+00 -8.6727961234909170e+00 -1 0 0
2458 820 1 4.1499999999999998e-01 -1.2158398209907724e-01 -1.4491584398728071e+01 -1.2743957984032638e+01 0 1 1
1377 459 1 4.1499999999999998e-01 -1.5485262832275490e+00 -1.4699650095246884e+01 -1.4475619473579286e+01 0 2 0
1455 485 1 4.1499999999999998e-01 -7.0291647967962367e-01 -3.1812943181007061e+00 -1.4964478627781762e+01 0 1 1
908 303 2 -8.2999999999999996e-01 -1.4549124207510197e+01 -1.4528599762806071e+01 -8.4892865042047649e+00 0 0 0
1173 391 1 4.1499999999999998e-01 -1.1535837924887536e+01 -1.4654673184473967e+01 -1.2485229810009180e+01 0 1 1
538 180 1 4.1499999999999998e-01 -9.6054406622213016e+00 -1.3245658766642581e+01 -1.4768164270076506e+01 1 0 0
2184 728 1 4.1499999999999998e-01 -1.4740938371743290e+01 -7.5427963811577781e-01 -1.2969994035491670e+01 1 1 1
2183 728 2 -8.2999999999999996e-01 -1.4110485798114176e+01 -3.3573870692674401e-01 -1.2378241144375110e+01 1 1 1
85 29 1 4.1499999999999998e-01 -7.3847045157140361e+00 -6.3507057107387404e+00 -9.2031926839334073e+00 1 0 0
971 324 2 -8.2999999999999996e-01 -1.0817234906568304e+01 -7.3570715755074181e+00 -8.0835899307227610e+00 0 1 0
1940 647 2 -8.2999999999999996e-01 -2.6100805304166119e-01 -1.0103452096227828e+01 -1.3972555752221602e+01 -1 0 1
2706 902 1 4.1499999999999998e-01 -1.4514120211114470e-01 -4.3691894293202355e-01 -9.2093739004586279e+00 1 0 1
518 173 2 -8.2999999999999996e-01 -1.2118158443399089e+01 -3.6677407752708585e-01 -1.4657085488306612e+01 0 1 1
1379 460 2 -8.2999999999999996e-01 -1.4537537685077133e+01 -2.0149237855079121e+00 -1.0138791247040722e+01 2 0 0
92 31 2 -8.2999999999999996e-01 -1.4801404640573644e+01 -6.1042433153021536e+00 -8.6869600392414252e+00 1 0 0
2421 807 1 4.1499999999999998e-01 -1.1033145833963031e+01 -3.7976271887493712e-01 -1.3126007144537448e+01 0 -1 1
434 145 2 -8.2999999999999996e-01 -8.2801463198280256e+00 -1.6740938914120882e+00 -1.4395959140551531e+01 0 0 0
2537 846 2 -8.2999999999999996e-01 -8.9173218120478097e+00 -6.6387803324198247e+00 -1.2589671530815172e+01 0 -1 0
972 324 1 4.1499999999999998e-01 -1.1610617261371264e+01 -7.1478759108517460e+00 -8.5821457599315369e+00 0 1 0
2120 707 2 -8.2999999999999996e-01 -1.0157222261085110e+01 -5.2699031697541052e+00 -1.4672347468763219e+01 1 0 0
2135 712 2 -8.2999999999999996e-01 -1.3948011495394569e+01 -4.3838555816345322e+00 -1.4455070571147633e+01 0 0 0
1122 374 1 4.1499999999999998e-01 -1.2807887142485038e+01 -7.3443882575034074e+00 -1.0798965305471979e+01 1 0 1
2419 807 1 4.1499999999999998e-01 -9.6925350111642814e+00 -1.0732971433744143e+00 -1.3009098055541896e+01 0 -1 1
1378 460 1 4.1499999999999998e-01 -1.4266456770470839e+01 -1.3657883896300720e+00 -1.0793513360742244e+01 2 0 0
2468 823 2 -8.2999999999999996e-01 -1.2885757949894943e+01 -2.7070142527354863e+00 -8.2914227654188899e+00 1 0 2
91 31 1 4.1499999999999998e-01 -1.4026645502886186e+01 -6.3129418113363025e+00 -9.2144953785410877e+00 1 0 0
1121 374 2 -8.2999999999999996e-01 -1.2590358950241864e+01 -6.7346267912339863e+00 -1.0088317322376477e+01 1 0 1
260 87 2 -8.2999999999999996e-01 -9.4409659921103408e+00 -3.4280597362144856e+00 -8.7126114168536510e+00 0 0 0
1120 374 1 4.1499999999999998e-01 -1.2141464478012479e+01 -6.0115430812906165e+00 -1.0531945249462577e+01 1 0 1
259 87 1 4.1499999999999998e-01 -9.9583530155537208e+00 -2.9545835231155304e+00 -9.3696345725356380e+00 0 0 0
375 125 1 4.1499999999999998e-01 -1.0844628021767400e+01 -2.1796881957417624e+00 -1.1449861290519246e+01 1 0 0
1290 430 1 4.1499999999999998e-01 -1.1136535948714171e+01 -5.4077848789785881e+00 -1.3182798993509595e+01 0 0 0
374 125 2 -8.2999999999999996e-01 -1.1072072078657351e+01 -2.9149465340936431e+00 -1.0875150764408472e+01 1 0 0
1288 430 1 4.1499999999999998e-01 -1.2521432102851078e+01 -4.8377670133789215e+00 -1.2961355117175023e+01 0 0 0
1289 430 2 -8.2999999999999996e-01 -1.1728725893034181e+01 -5.1033145352110463e+00 -1.2489573088988186e+01 0 0 0
373 125 1 4.1499999999999998e-01 -1.1374186218535213e+01 -3.5976322894678172e+00 -1.1479824327442017e+01 1 0 0
261 87 1 4.1499999999999998e-01 -8.9949271890428300e+00 -4.1123703246855596e+00 -9.2172026095374662e+00 0 0 0
2469 823 1 4.1499999999999998e-01 -1.2131055161315738e+01 -2.7890207303772949e+00 -8.8800501487979560e+00 1 0 2
2467 823 1 4.1499999999999998e-01 -1.3603280146061490e+01 -2.4363948663771327e+00 -8.8698663244053364e+00 1 0 2
2536 846 1 4.1499999999999998e-01 -9.4904026112546997e+00 -6.1469872644706376e+00 -1.3183438277964934e+01 0 -1 0
2420 807 2 -8.2999999999999996e-01 -1.0412739088352939e+01 -7.2458188472503082e-01 -1.2478210486096385e+01 0 -1 1
1215 405 1 4.1499999999999998e-01 -3.7278387584481834e-03 -1.2547376154526861e+01 -8.9779615868367060e+00 0 0 0
1065 355 1 4.1499999999999998e-01 -8.5458235225585213e+00 -5.6549812607803567e+00 -1.1188529907139904e+01 1 -1 1
1064 355 2 -8.2999999999999996e-01 -8.1172179546478116e+00 -5.1404052343687132e+00 -1.0499022409825526e+01 1 -1 1
1063 355 1 4.1499999999999998e-01 -7.5052869638919688e+00 -4.5759004978807596e+00 -1.0976956022370015e+01 1 -1 1
103 35 1 4.1499999999999998e-01 -7.0813891565371714e+00 -2.4252105784479840e+00 -1.3007597622326900e+01 0 0 0
393 131 1 4.1499999999999998e-01 -1.3038235063111138e+01 -1.2313747579641644e+01 -1.4753624551946775e+01 -1 0 0
1812 604 1 4.1499999999999998e-01 -2.3665687457752353e+00 -3.9184349885116667e+00 -9.1132515341175573e+00 -1 0 0
1810 604 1 4.1499999999999998e-01 -8.8199535517127381e-01 -3.7912702265517919e+00 -8.8453595802701166e+00 -1 0 0
169 57 1 4.1499999999999998e-01 -1.2163933808459330e+01 -1.0065221637230151e+01 -1.4862283883738881e+01 0 0 0
171 57 1 4.1499999999999998e-01 -1.1483135081936442e+01 -8.7313258107796727e+00 -1.4640630713424130e+01 0 0 0
65 22 2 -8.2999999999999996e-01 -2.8354079695918566e+00 -7.4641530331675110e+00 -8.1058068213063645e+00 -1 0 0
530 177 2 -8.2999999999999996e-01 -3.8753901252402972e-01 -6.1878884737300996e+00 -1.2107891444520597e+01 1 0 0
2134 712 1 4.1499999999999998e-01 -1.3419209769791088e+01 -3.7649251649523179e+00 -1.4964175819846439e+01 0 0 0
87 29 1 4.1499999999999998e-01 -5.9733787724948613e+00 -6.8816899842144030e+00 -9.0686175525413457e+00 1 0 0
435 145 1 4.1499999999999998e-01 -8.6956922748456034e+00 -2.3386632581342628e+00 -1.4951006108859444e+01 0 0 0
2061 687 1 4.1499999999999998e-01 -4.9562569554082039e+00 -6.1834105865552544e+00 -1.3008754095471572e+01 -1 0 1
342 114 1 4.1499999999999998e-01 -4.1512742355927728e+00 -7.3751305280048465e+00 -1.0832439408633237e+01 0 0 0
2059 687 1 4.1499999999999998e-01 -3.4883992849501366e+00 -5.8129368908670980e+00 -1.3014935204722482e+01 -1 0 1
550 184 1 4.1499999999999998e-01 -5.8019819003880846e+00 -6.5379427514161204e-01 -1.1164469577482988e+01 0 1 -1
1468 490 1 4.1499999999999998e-01 -3.1438721559159495e+00 -2.3231087534221069e+00 -1.2875469279264436e+01 0 0 0
64 22 1 4.1499999999999998e-01 -2.0961085813301903e+00 -7.4516676453565127e+00 -8.7192739020271972e+00 -1 0 0
105 35 1 4.1499999999999998e-01 -7.0004898060425269e+00 -3.9358093543243928e+00 -1.3066264078037321e+01 0 0 0
552 184 1 4.1499999999999998e-01 -6.6402438952308875e+00 -1.9099090433254955e+00 -1.1057756712312434e+01 0 1 -1
1811 604 2 -8.2999999999999996e-01 -1.7281997022037749e+00 -3.8563526198509566e+00 -8.3971230016821714e+00 -1 0 0
745 249 1 4.1499999999999998e-01 -4.3775890628791059e-01 -7.0679243831703769e+00 -1.0290847966890043e+01 -1 1 1
677 226 2 -8.2999999999999996e-01 -4.8206636546913488e+00 -2.7083680940704289e+00 -8.5638239840797343e+00 0 0 -1
2530 844 1 4.1499999999999998e-01 -1.6947754032967048e+00 -9.5634571440213922e-01 -1.0856361466441921e+01 0 -1 0
206 69 2 -8.2999999999999996e-01 -4.1241469761475136e+00 -2.0214281874909674e+00 -1.4337679514916122e+01 0 0 0
678 226 1 4.1499999999999998e-01 -4.1633548435190679e+00 -3.1670091327114140e+00 -9.0926990844510414e+00 0 0 -1
2531 844 2 -8.2999999999999996e-01 -1.4030886062850054e+00 -1.6233683534897442e-01 -1.0402773469056536e+01 0 -1 0
989 330 2 -8.2999999999999996e-01 -2.2638552869798412e+00 -5.8398297438737110e+00 -1.4466118649209509e+01 0 0 0
104 35 2 -8.2999999999999996e-01 -6.9805182933701433e+00 -3.1998939790358434e+00 -1.2448903119661432e+01 0 0 0
1469 490 2 -8.2999999999999996e-01 -2.4242824083610071e+00 -2.2340904398301609e+00 -1.2244978880905247e+01 0 0 0
1012 338 1 4.1499999999999998e-01 -6.7930053571453914e+00 -2.1415771253605173e-01 -9.1275012137399152e+00 0 1 1
1176 392 1 4.1499999999999998e-01 -4.5375013850858750e+00 -5.9243476799324424e-01 -1.3196503026389568e+01 1 -1 1
2060 687 2 -8.2999999999999996e-01 -4.2078933904149869e+00 -6.0456258053610687e+00 -1.2422473831966931e+01 -1 0 1
2688 896 1 4.1499999999999998e-01 -3.1835063687446721e+00 -3.4888004865977242e+00 -1.0873250129935283e+01 0 1 1
1470 490 1 4.1499999999999998e-01 -1.6410105786937239e+00 -2.1590155106446893e+00 -1.2795621923498842e+01 0 0 0
2686 896 1 4.1499999999999998e-01 -3.7871666596057727e+00 -4.8593713534978216e+00 -1.1094665744527095e+01 0 1 1
2687 896 2 -8.2999999999999996e-01 -3.5456003877326818e+00 -4.2410663698468838e+00 -1.0399453357569643e+01 0 1 1
788 263 2 -8.2999999999999996e-01 -6.1609403010736754e+00 -5.2649422982810412e+00 -1.4425175877492016e+01 0 0 0
551 184 2 -8.2999999999999996e-01 -6.2573690279400154e+00 -1.2083719827948991e+00 -1.0525396979750957e+01 0 1 -1
676 226 1 4.1499999999999998e-01 -5.4181360816320314e+00 -2.3286907913140311e+00 -9.2137011889424709e+00 0 0 -1
529 177 1 4.1499999999999998e-01 -1.0673463890676886e+00 -6.2304495212077535e+00 -1.2786002548345504e+01 1 0 0
391 131 1 4.1499999999999998e-01 -1.3825148601301683e+01 -1.3591011157122788e+01 -1.4550499110729813e+01 -1 0 0
1941 647 1 4.1499999999999998e-01 -7.9070553788692266e-01 -1.0694867014709848e+01 -1.4512825772392077e+01 -1 0 1
2547 849 1 4.1499999999999998e-01 -4.0308009016354500e-02 -8.5625300898429586e+00 -8.3483442344528314e+00 -1 0 1
2131 711 1 4.1499999999999998e-01 -3.4238150097541871e+00 -1.4921389879409444e+01 -1.0869659911456218e+01 0 0 1
1454 485 2 -8.2999999999999996e-01 -2.8038300433383939e-01 -2.5457567493210336e+00 -1.4381141833515620e+01 0 1 1
2631 877 1 4.1499999999999998e-01 -5.0128270316664567e+00 -1.2102879613765282e+01 -1.4925115503490199e+01 0 1 0
207 69 1 4.1499999999999998e-01 -4.5563380916527612e+00 -2.6595818659447503e+00 -1.4910900308869991e+01 0 0 0
205 69 1 4.1499999999999998e-01 -3.6495973436063682e+00 -1.4477391735586933e+00 -1.4944865443185865e+01 0 0 0
789 263 1 4.1499999999999998e-01 -6.6269054763214932e+00 -5.8874110484551014e+00 -1.4989015800969153e+01 0 0 0
540 180 1 4.1499999999999998e-01 -9.0463289049608839e+00 -1.1838854677434099e+01 -1.4781998996402931e+01 1 0 0
649 217 1 4.1499999999999998e-01 -4.3727618122087470e+00 -9.8111347371094144e+00 -1.4972687507454459e+01 0 1 1
851 284 2 -8.2999999999999996e-01 -1.0117633967817733e+01 -1.0838052301872491e+01 -2.1312831036502264e+00 1 0 0
852 284 1 4.1499999999999998e-01 -1.0308294688677213e+01 -1.1637008991151589e+01 -2.6283507230865948e+00 1 0 0
850 284 1 4.1499999999999998e-01 -1.0130662261936203e+01 -1.0142791934085944e+01 -2.7946554008774598e+00 1 0 0
2147 716 2 -8.2999999999999996e-01 -9.6654200928016358e+00 -9.0020033715498808e+00 -3.9950757682551248e+00 1 1 0
2148 716 1 4.1499999999999998e-01 -1.0408105869438547e+01 -8.9060098453164933e+00 -4.5968511523067184e+00 1 1 0
2428 810 1 4.1499999999999998e-01 -1.2360373159228230e+01 -1.2507128125204098e+01 -5.1514558517528322e+00 0 0 1
2430 810 1 4.1499999999999998e-01 -1.1209838489891512e+01 -1.1523792731865425e+01 -5.1165759817251448e+00 0 0 1
2429 810 2 -8.2999999999999996e-01 -1.1757773587776757e+01 -1.2068114991543299e+01 -4.5455533190420034e+00 0 0 1
2587 863 1 4.1499999999999998e-01 -8.8279471389608482e+00 -1.0419255531478214e+01 -5.3486725039923300e-01 0 0 1
926 309 2 -8.2999999999999996e-01 -1.3646917053632521e+01 -1.2836937641821866e+01 -6.3458502191324984e+00 1 0 0
2312 771 2 -8.2999999999999996e-01 -1.1428557785172325e+01 -9.2483512492050224e+00 -6.2697297716356051e+00 1 1 1
1410 470 1 4.1499999999999998e-01 -1.1322544255123010e+01 -1.0939974006972450e+01 -8.8048129771065509e-01 -1 0 1
1408 470 1 4.1499999999999998e-01 -1.2774192006541071e+01 -1.0524412731489601e+01 -9.8967267163177119e-01 -1 0 1
2210 737 2 -8.2999999999999996e-01 -9.0958049776206913e+00 -1.1852536614687867e+01 -5.9771139352735903e+00 -1 0 1
1162 388 1 4.1499999999999998e-01 -1.2492930839030345e+01 -9.0755911812661267e+00 -4.9197510498957930e+00 0 0 -1
1930 644 1 4.1499999999999998e-01 -1.1703465948343290e+01 -1.3227947686734286e+01 -3.1992805216525517e+00 0 1 0
2146 716 1 4.1499999999999998e-01 -8.8961327770490914e+00 -8.9773998021425019e+00 -4.5697225220504025e+00 1 1 0
1163 388 2 -8.2999999999999996e-01 -1.3136762875295716e+01 -8.8162863036234302e+00 -4.2550135098627830e+00 0 0 -1
2364 788 1 4.1499999999999998e-01 -7.8917888236404652e+00 -1.2196166954069410e+01 -4.8374704361201175e+00 0 1 0
1931 644 2 -8.2999999999999996e-01 -1.1869509670669952e+01 -1.3926469021251046e+01 -2.5606568780644405e+00 0 1 0
1164 388 1 4.1499999999999998e-01 -1.3835312188662874e+01 -8.3940043726958713e+00 -4.7605439673443612e+00 0 0 -1
1184 395 2 -8.2999999999999996e-01 -1.4351078972111655e+01 -1.0432321529071320e+01 -2.4763429491912348e+00 1 0 1
1541 514 2 -8.2999999999999996e-01 -1.4557594451779909e+01 -6.5039825018747912e+00 -5.5885490722776510e-01 1 0 0
1183 395 1 4.1499999999999998e-01 -1.3795613691026320e+01 -9.9690628043729657e+00 -3.1088969238994553e+00 1 0 1
2374 792 1 4.1499999999999998e-01 -1.0774930141880979e+01 -1.3868536998449693e+01 -1.2421031241749076e+00 -1 0 0
2376 792 1 4.1499999999999998e-01 -9.2708135319970051e+00 -1.3771571948956577e+01 -1.1002365581002722e+00 -1 0 0
1829 610 2 -8.2999999999999996e-01 -7.9848733795926732e+00 -1.3716343245687957e+01 -2.3533584199594926e+00 -1 0 0
1533 511 1 4.1499999999999998e-01 -3.6073330119349398e+00 -5.8347780355864926e-03 -1.2245159359963398e+00 0 -2 1
1828 610 1 4.1499999999999998e-01 -7.7067562751969749e+00 -1.2982858608059120e+01 -2.9074784206544932e+00 -1 0 0
1887 629 1 4.1499999999999998e-01 -1.4866742758270082e+01 -1.2461377018335005e+01 -5.1114043063434389e+00 0 0 1
2209 737 1 4.1499999999999998e-01 -9.0990988845852332e+00 -1.2639703620175409e+01 -6.5273057827188676e+00 -1 0 1
800 267 2 -8.2999999999999996e-01 -1.3734522937920037e+01 -1.4108789726953251e+01 -1.6218879702361211e-01 -1 1 0
2413 805 1 4.1499999999999998e-01 -3.3789267914922321e+00 -5.0118152924707866e+00 -5.1593892258567449e+00 0 0 0
925 309 1 4.1499999999999998e-01 -1.3120776531258315e+01 -1.2270058057554179e+01 -6.9154062051137446e+00 1 0 0
2589 863 1 4.1499999999999998e-01 -7.3334434146656697e+00 -1.0653314472516826e+01 -5.9461795818649432e-01 0 0 1
698 233 2 -8.2999999999999996e-01 -7.7685067155897176e+00 -8.3252779511931365e+00 -6.1457644484983627e+00 1 1 -1
927 309 1 4.1499999999999998e-01 -1.4186765605314124e+01 -1.3344198801458992e+01 -6.9576445163909906e+00 1 0 0
2363 788 2 -8.2999999999999996e-01 -7.0844317758160535e+00 -1.2300317629430674e+01 -4.3283319802987315e+00 0 1 0
2211 737 1 4.1499999999999998e-01 -8.9239019502672878e+00 -1.1137518441891073e+01 -6.5954294507300117e+00 -1 0 1
420 140 1 4.1499999999999998e-01 -6.4606532759437139e+00 -5.3113823174830239e+00 -7.1875077439998503e+00 -1 0 0
2313 771 1 4.1499999999999998e-01 -1.1155446162274748e+01 -8.5883573444091699e+00 -6.9125420842752412e+00 1 1 1
2311 771 1 4.1499999999999998e-01 -1.1820610358494056e+01 -9.9439057757149314e+00 -6.8032710258101741e+00 1 1 1
594 198 1 4.1499999999999998e-01 -1.1715208578450278e+00 -6.1658780670922528e+00 -4.7681047610575469e+00 0 1 1
636 212 1 4.1499999999999998e-01 -9.0510831613885507e+00 -7.8318841975162199e+00 -2.7482298197660140e+00 -1 0 0
1409 470 2 -8.2999999999999996e-01 -1.2108156661450950e+01 -1.0788626698627150e+01 -3.4940015248305184e-01 -1 0 1
801 267 1 4.1499999999999998e-01 -1.2961578194097248e+01 -1.4082082736997416e+01 -7.3176200755619947e-01 -1 1 0
699 233 1 4.1499999999999998e-01 -7.3400993784138402e+00 -7.6109129018198516e+00 -6.6229297792421136e+00 1 1 -1
2375 792 2 -8.2999999999999996e-01 -1.0081160352530672e+01 -1.3765009244092004e+01 -5.8520702236266764e-01 -1 0 0
615 205 1 4.1499999999999998e-01 -1.7172414181052442e-01 -1.4442630707619935e+01 -5.2776470093761310e+00 -1 0 -1
36 12 1 4.1499999999999998e-01 -4.9099904287070641e+00 -1.2469524161156208e+01 -6.9857298566571950e+00 -1 0 0
34 12 1 4.1499999999999998e-01 -5.4826661089448105e+00 -1.3869835375110615e+01 -7.0411029186641523e+00 -1 0 0
1715 572 2 -8.2999999999999996e-01 -6.1241727158725523e-01 -1.1843033101694921e+01 -5.2157392897144772e-01 1 0 0
154 52 1 4.1499999999999998e-01 -6.4277613641193012e+00 -1.1450359142547665e+01 -2.5106464426578956e+00 0 0 0
156 52 1 4.1499999999999998e-01 -6.1143768820792399e+00 -9.9703680980650216e+00 -2.5681946303998169e+00 0 0 0
2678 893 2 -8.2999999999999996e-01 -3.3206819239153220e+00 -1.3729266435937101e+01 -4.7754186711164852e+00 0 0 0
1966 656 1 4.1499999999999998e-01 -2.4491337183576460e+00 -1.1257459190735684e+01 -3.4234949095607723e+00 0 0 0
1967 656 2 -8.2999999999999996e-01 -2.7104229990135384e+00 -1.1846935512433236e+01 -2.7104589503898184e+00 0 0 0
1968 656 1 4.1499999999999998e-01 -3.1114297254961927e+00 -1.2593331570093994e+01 -3.1613802131000637e+00 0 0 0
35 12 2 -8.2999999999999996e-01 -5.2249617739146670e+00 -1.3181105385565868e+01 -6.4227538918463889e+00 -1 0 0
896 299 2 -8.2999999999999996e-01 -1.7985070108746979e+00 -9.7110505086073555e+00 -4.2495075377561680e+00 -1 1 0
155 52 2 -8.2999999999999996e-01 -6.2694227544853982e+00 -1.0687947472124698e+01 -1.9483777224290979e+00 0 0 0
895 299 1 4.1499999999999998e-01 -2.5280631233020641e+00 -9.6686071017882451e+00 -4.8733049914135984e+00 -1 1 0
2677 893 1 4.1499999999999998e-01 -4.0813729754604022e+00 -1.3496023172916173e+01 -5.3131558707332953e+00 0 0 0
2556 852 1 4.1499999999999998e-01 -3.7452584021240241e+00 -1.1542398547584451e+01 -7.9061246449146128e-01 0 1 1
2554 852 1 4.1499999999999998e-01 -5.2016372662655819e+00 -1.1191803131010841e+01 -5.7166367863072953e-01 0 1 1
2362 788 1 4.1499999999999998e-01 -6.4311030022936686e+00 -1.2567433197969876e+01 -4.9804858965655301e+00 0 1 0
2666 889 2 -8.2999999999999996e-01 -3.5060925572684276e+00 -1.0041821096683220e+01 -6.5658311776153582e+00 0 1 1
1716 572 1 4.1499999999999998e-01 -1.4252910971629849e+00 -1.1714731573204348e+01 -1.0160488273914734e+00 1 0 0
1368 456 1 4.1499999999999998e-01 -6.3125910196012152e+00 -8.3162144346588072e+00 -4.7389537329649931e+00 0 1 0
897 299 1 4.1499999999999998e-01 -1.0281777230879638e+00 -9.8617065668391248e+00 -4.8029382129620073e+00 -1 1 0
1367 456 2 -8.2999999999999996e-01 -5.8345214392728275e+00 -8.8173693554527457e+00 -4.0726616666765736e+00 0 1 0
1366 456 1 4.1499999999999998e-01 -5.3409864685109358e+00 -9.4662452065911893e+00 -4.5798659397986778e+00 0 1 0
2679 893 1 4.1499999999999998e-01 -2.6551635525492379e+00 -1.3993186768092960e+01 -5.4163555108750927e+00 0 0 0
2486 829 2 -8.2999999999999996e-01 -1.4609603057953056e+00 -1.4271109604360925e+01 -6.5737872913312545e+00 0 1 0
388 130 1 4.1499999999999998e-01 -1.0110301581204499e+00 -8.7648077044500035e+00 -2.5845171973776031e+00 -1 1 0
2555 852 2 -8.2999999999999996e-01 -4.3777686166593188e+00 -1.1329873511384287e+01 -9.8729430823877765e-02 0 1 1
2485 829 1 4.1499999999999998e-01 -1.2232046314400487e+00 -1.3610616272712523e+01 -7.2301114210958470e+00 0 1 0
1185 395 1 4.1499999999999998e-01 -1.4859838577184227e+01 -1.1041820309663340e+01 -3.0166373312579111e+00 1 0 1
637 213 1 4.1499999999999998e-01 -4.9812097159522351e+00 -7.5667322396833123e+00 -3.2502751548172317e+00 1 -1 0
697 233 1 4.1499999999999998e-01 -7.9777508929335319e+00 -8.9684724598452448e+00 -6.8286667989756564e+00 1 1 -1
2667 889 1 4.1499999999999998e-01 -3.0853549101864748e+00 -9.3679166504854798e+00 -7.1053372803349140e+00 0 1 1
78 26 1 4.1499999999999998e-01 -5.9018860640709434e+00 -6.6035922108313976e+00 -1.2196445940441794e+00 0 0 -2
1740 580 1 4.1499999999999998e-01 -1.4830472473821304e+01 -2.8967619463273819e+00 -3.1364989135212116e+00 1 0 0
1443 481 1 4.1499999999999998e-01 -6.9409533709535332e+00 -1.4278503181571718e+01 -1.1115982589256235e+00 1 1 0
1442 481 2 -8.2999999999999996e-01 -6.2860965707817638e+00 -1.4694042126521493e+01 -5.4500572970682304e-01 1 1 0
2665 889 1 4.1499999999999998e-01 -3.8362452174405721e+00 -1.0678676158670035e+01 -7.2051790628220935e+00 0 1 1
363 121 1 4.1499999999999998e-01 -1.3103797592954059e+01 -3.8683706146204959e+00 -6.9182791859973429e+00 0 0 -1
1149 383 1 4.1499999999999998e-01 -6.6733794785104541e+00 -5.6828424541238656e+00 -4.4897871214077627e+00 0 0 0
593 198 2 -8.2999999999999996e-01 -4.5983428872390636e-01 -6.2715828532152438e+00 -4.1311964429837973e+00 0 1 1
856 286 1 4.1499999999999998e-01 -1.2907393398423407e+01 -7.7056480669181182e+00 -2.8377820996648180e+00 1 0 0
1550 517 2 -8.2999999999999996e-01 -1.0826363979647901e+01 -6.9632652192663347e+00 -2.1486186707334742e-01 1 2 -1
2185 729 1 4.1499999999999998e-01 -7.9199578678573062e+00 -8.6204182511927441e-01 -7.3056638617066145e+00 1 0 0
2080 694 1 4.1499999999999998e-01 -8.9107179936209207e+00 -5.6426350546415915e-01 -3.0490473816629464e+00 0 1 0
419 140 2 -8.2999999999999996e-01 -6.0400410653423009e+00 -4.6731267825156557e+00 -6.6057674860304019e+00 -1 0 0
2127 709 1 4.1499999999999998e-01 -9.2622979647293757e+00 -4.8671034200795367e+00 -7.3858094184309042e+00 1 0 1
1206 402 1 4.1499999999999998e-01 -1.2182094428334500e+01 -1.7519126716537485e+00 -6.8133986957342554e+00 -1 0 -1