ITEM: TIMESTEP
0
ITEM: NUMBER OF ATOMS
384
ITEM: BOX BOUNDS
-12.0786 13.624
0 24.5406
0 15.1826
ITEM: ATOMS
7 2 -0.73103 8.7755 5.26339
8 2 -0.19413 8.98399 3.21664
13 4 -1.49808 10.4824 6.73385
14 4 -0.69448 9.36219 4.20529
21 3 -1.0628 9.24479 6.72301
32 2 4.85261 2.71515 5.16529
51 3 5.1844 2.24586 3.70568
62 2 6.08097 8.7755 5.26339
63 2 6.61787 8.98399 3.21664
69 4 5.31392 10.4824 6.73385
70 4 6.11752 9.36219 4.20529
76 3 5.7492 9.24479 6.72301
91 2 -1.95939 2.71515 5.16529
106 3 -1.6276 2.24586 3.70568
111 1 1.32797 2.69285 5.49299
112 1 1.79894 2.10114 4.23735
113 1 1.86797 2.91569 3.03061
114 1 1.4088 4.30251 3.04
116 1 0.86468 4.87989 4.28107
117 1 0.85425 4.07676 5.51085
120 2 1.88826 4.54219 0.98046
121 2 1.02647 6.22461 2.00945
122 2 -0.05338 5.73898 6.58776
123 2 0.28092 3.86561 7.59092
126 4 2.35858 2.31818 1.77786
127 4 1.46348 5.0475 1.92669
128 4 0.33453 6.22462 4.28105
131 4 0.39163 4.60657 6.65589
134 3 2.75401 1.07283 1.76565
137 3 2.38915 3.05208 0.69873
138 3 0.34402 6.95666 3.17908
139 3 -0.1477 6.73881 5.39166
140 1 2.79361 8.7978 4.93569
143 1 2.32264 9.3895 6.19133
144 1 2.25361 8.57496 7.39807
145 1 2.71279 7.18814 7.38868
146 1 3.25691 6.61076 6.14761
147 1 3.26733 7.41389 4.91783
149 2 1.43914 11.0641 7.21204
152 2 4.17495 5.75167 3.84092
153 2 3.84068 7.62504 2.83776
154 4 2.74309 9.56567 3.69483
155 4 1.93948 10.6859 6.22339
158 4 3.78706 5.26603 6.14763
159 4 3.72996 6.88408 3.77279
160 3 3.16369 9.02281 2.57616
165 3 3.77757 4.53399 7.24961
166 3 4.26928 4.75184 5.03701
167 1 8.13997 2.69285 5.49299
168 1 8.61094 2.10114 4.23735
169 1 8.67997 2.91569 3.03061
170 1 8.2208 4.30251 3.04
171 1 7.67668 4.87989 4.28107
172 1 7.66625 4.07676 5.51085
175 2 8.70026 4.54219 0.98046
176 2 7.83847 6.22461 2.00945
179 2 6.75862 5.73898 6.58776
180 2 7.09292 3.86561 7.59092
185 4 9.17058 2.31818 1.77786
186 4 8.27548 5.0475 1.92669
187 4 7.14653 6.22462 4.28105
188 4 7.20363 4.60657 6.65589
211 3 9.56601 1.07282 1.76565
225 3 9.20115 3.05208 0.69872
226 3 7.15602 6.95666 3.17908
231 3 6.6643 6.73881 5.39166
232 1 -4.01839 8.7978 4.93569
237 1 -4.48936 9.3895 6.19133
238 1 -4.55839 8.57496 7.39807
259 1 -4.09921 7.18814 7.38868
273 1 -3.55509 6.61076 6.14761
274 1 -3.54467 7.41389 4.91783
280 2 -5.37286 11.0641 7.21204
307 2 -2.63705 5.75167 3.84092
321 2 -2.97132 7.62504 2.83776
322 4 -4.06891 9.56567 3.69483
327 4 -4.87252 10.6859 6.22339
334 4 -3.02494 5.26603 6.14763
355 4 -3.08204 6.88408 3.77279
369 3 -3.64831 9.02281 2.57616
381 3 -3.03443 4.53399 7.24961
382 3 -2.54272 4.75184 5.03701
197 2 5.39606 3.2356 1.8569
198 2 6.25786 1.55317 0.827911
203 4 4.92575 5.4596 1.0595
204 4 5.82085 2.73028 0.910671
209 3 4.53031 6.70496 1.07171
210 3 4.89517 4.7257 2.13863
252 2 -1.41594 3.23559 1.8569
253 2 -0.554144 1.55317 0.827911
258 4 -1.88625 5.4596 1.0595
260 4 -0.991154 2.73028 0.910671
265 3 -2.28169 6.70496 1.07171
266 3 -1.91683 4.72569 2.13863
293 3 1.24407 7.31244 0.261201
348 3 8.05607 7.31244 0.261201
20 3 -1.91867 11.0253 7.85252
75 3 4.89333 11.0253 7.85252
150 2 2.23333 6.94846 9.44822
151 2 3.09512 5.26603 8.41923
156 4 1.76301 9.17246 8.65082
157 4 2.65811 6.44315 8.50199
162 3 1.36757 10.4178 8.66304
164 3 1.73243 8.43856 9.72995
285 2 -4.57867 6.94846 9.44822
286 2 -3.71688 5.26603 8.41923
328 4 -5.04899 9.17246 8.65082
333 4 -4.15389 6.44315 8.50199
375 3 -5.44443 10.4178 8.66304
376 3 -5.07957 8.43856 9.72995
19 1 -1.83476 6.40572 13.0843
33 1 -1.36379 5.81401 11.8287
34 1 -1.29476 6.62855 10.6219
39 1 -1.75393 8.01538 10.6313
40 1 -2.29804 8.59276 11.8724
45 1 -2.30848 7.78962 13.1022
81 2 -1.27447 8.25505 8.57178
82 2 -2.13625 9.93748 9.60077
87 2 -3.2161 9.45185 14.1791
88 2 -2.88181 7.57848 15.1822
115 4 -0.80415 6.03105 9.36918
129 4 -1.69925 8.76036 9.51801
130 4 -2.8282 9.93748 11.8724
135 4 -2.7711 8.31943 14.2472
142 3 -0.40872 4.78569 9.35697
163 3 -0.77358 6.76495 8.29004
177 3 -2.81871 10.6695 10.7704
178 3 -3.31042 10.4517 12.983
183 1 -0.36911 12.5107 12.527
184 1 -0.840076 13.1024 13.7827
189 1 -0.909116 12.2878 14.9894
190 1 -0.44994 10.901 14.98
193 1 0.09418 10.3236 13.7389
194 1 0.10461 11.1267 12.5091
196 2 -1.7236 14.777 14.8034
199 2 1.01223 9.46454 11.4322
200 2 0.67795 11.3379 10.4291
201 4 -0.41963 13.2785 11.2861
202 4 -1.22324 14.3988 13.8147
205 4 0.62433 8.97889 13.739
206 4 0.56724 10.5969 11.3641
207 3 0.00096 12.7357 10.1675
212 3 0.61484 8.24685 14.8409
213 3 1.10655 8.4647 12.6283
214 1 4.97724 6.40572 13.0843
215 1 5.44821 5.81401 11.8287
216 1 5.51724 6.62855 10.6219
217 1 5.05807 8.01538 10.6313
218 1 4.51396 8.59276 11.8724
219 1 4.50352 7.78962 13.1022
222 2 5.53753 8.25505 8.57178
223 2 4.67575 9.93748 9.60077
224 2 3.5959 9.45185 14.1791
227 2 3.93019 7.57848 15.1822
230 4 6.00785 6.03105 9.36918
233 4 5.11275 8.76036 9.51801
234 4 3.9838 9.93748 11.8724
235 4 4.0409 8.31943 14.2472
240 3 6.40328 4.78569 9.35697
241 3 6.03842 6.76495 8.29004
242 3 3.99329 10.6695 10.7704
243 3 3.50158 10.4517 12.983
244 1 -7.18111 12.5107 12.527
245 1 -7.65208 13.1024 13.7827
246 1 -7.72112 12.2878 14.9894
247 1 -7.26194 10.901 14.98
248 1 -6.71782 10.3236 13.7389
249 1 -6.70739 11.1267 12.5091
251 2 -8.5356 14.777 14.8034
254 2 -5.79977 9.46454 11.4322
255 2 -6.13405 11.3379 10.4291
256 4 -7.23163 13.2785 11.2861
257 4 -8.03524 14.3988 13.8147
261 4 -6.18767 8.97889 13.739
262 4 -6.24476 10.5969 11.3641
263 3 -6.81104 12.7357 10.1675
267 3 -6.19716 8.24685 14.8409
268 3 -5.70545 8.4647 12.6283
277 2 -3.89375 12.4884 12.8547
278 2 -3.35686 12.6969 10.808
287 4 -4.66081 14.1953 14.3252
288 4 -3.8572 13.0751 11.7966
294 3 -4.22553 12.9577 14.3143
305 2 1.68988 6.42801 12.7566
319 3 2.02166 5.95873 11.297
336 2 2.91825 12.4884 12.8547
337 2 3.45514 12.6969 10.808
342 4 2.15119 14.1953 14.3252
343 4 2.95479 13.0751 11.7966
349 3 2.58647 12.9577 14.3143
361 2 -5.12212 6.42801 12.7566
378 3 -4.79034 5.95873 11.297
1 1 -1.54861 11.2503 5.49299
2 1 -1.07764 10.6586 4.23736
3 1 -1.00861 11.4731 3.03061
4 1 -1.46778 12.86 3.04
5 1 -2.01189 13.4374 4.28107
6 1 -2.02233 12.6342 5.51085
9 2 -0.98832 13.0996 0.98046
10 2 -1.8501 14.7821 2.00945
11 2 -2.92995 14.2964 6.58777
12 2 -2.59566 12.4231 7.59092
15 4 -0.518 10.8756 1.77786
16 4 -1.4131 13.605 1.92669
17 4 -2.54205 14.7821 4.28105
18 4 -2.48495 13.164 6.65589
22 3 -0.12257 9.63028 1.76565
23 3 -0.48743 11.6095 0.69872
24 3 -2.53256 15.5141 3.17907
25 3 -3.02427 15.2963 5.39167
26 1 -0.08296 17.3553 4.93569
27 1 -0.553926 17.947 6.19132
28 1 -0.622966 17.1324 7.39807
29 1 -0.16379 15.7456 7.38868
30 1 0.38033 15.1682 6.14761
31 1 0.39076 15.9713 4.91783
35 2 -1.43745 19.6216 7.21204
38 2 1.29838 14.3091 3.84092
41 2 0.9641 16.1825 2.83776
42 4 -0.13348 18.1231 3.69483
43 4 -0.937086 19.2434 6.22339
48 4 0.91048 13.8235 6.14763
49 4 0.85339 15.4415 3.77279
50 3 0.28711 17.5803 2.57616
54 3 0.90099 13.0914 7.2496
55 3 1.3927 13.3093 5.03702
56 1 5.26339 11.2503 5.49299
57 1 5.73436 10.6586 4.23736
58 1 5.80339 11.4731 3.03061
59 1 5.34422 12.86 3.04
60 1 4.80011 13.4374 4.28107
61 1 4.78967 12.6342 5.51085
64 2 5.82368 13.0996 0.98046
65 2 4.9619 14.7821 2.00945
66 2 3.88205 14.2964 6.58777
68 2 4.21634 12.4231 7.59092
71 4 6.294 10.8756 1.77786
72 4 5.3989 13.605 1.92669
73 4 4.26995 14.7821 4.28105
74 4 4.32705 13.164 6.65589
77 3 6.68943 9.63028 1.76565
78 3 6.32457 11.6095 0.69872
79 3 4.27944 15.5141 3.17907
80 3 3.78773 15.2963 5.39167
83 1 -6.89496 17.3553 4.93569
84 1 -7.36593 17.947 6.19132
85 1 -7.43497 17.1324 7.39807
86 1 -6.97579 15.7456 7.38868
89 1 -6.43167 15.1682 6.14761
90 1 -6.42124 15.9713 4.91783
92 2 -8.24945 19.6216 7.21204
97 2 -5.51362 14.3091 3.84092
98 2 -5.8479 16.1825 2.83776
99 4 -6.94548 18.1231 3.69483
100 4 -7.74909 19.2434 6.22339
103 4 -5.90152 13.8235 6.14763
104 4 -5.95861 15.4415 3.77279
105 3 -6.52489 17.5803 2.57616
109 3 -5.91101 13.0914 7.2496
110 3 -5.4193 13.3093 5.03701
118 2 -3.6076 17.333 5.26338
119 2 -3.07071 17.5415 3.21664
124 4 -4.37466 19.0399 6.73385
125 4 -3.57105 17.9197 4.20529
133 3 -3.93938 17.8022 6.723
148 2 1.97603 11.2726 5.16529
161 3 2.30781 10.8033 3.70567
173 2 3.2044 17.333 5.26338
174 2 3.74129 17.5415 3.21664
181 4 2.43734 19.0399 6.73385
182 4 3.24095 17.9197 4.20529
192 3 2.87262 17.8022 6.723
279 2 -4.83597 11.2726 5.16529
370 3 -4.50419 10.8033 3.70567
136 3 -1.63251 15.8699 0.261201
236 3 5.17949 15.8699 0.261201
308 2 2.51949 11.7931 1.8569
309 2 3.38128 10.1106 0.827911
314 4 2.04917 14.0171 1.0595
315 4 2.94427 11.2877 0.910671
320 3 1.65373 15.2624 1.07172
323 3 2.01859 13.2832 2.13863
363 2 -4.29251 11.7931 1.8569
364 2 -3.43072 10.1106 0.827911
371 4 -4.76283 14.0171 1.0595
372 4 -3.86773 11.2877 0.910671
379 3 -5.15827 15.2624 1.07172
380 3 -4.79341 13.2832 2.13863
36 2 -0.643256 15.5059 9.44822
37 2 0.21854 13.8235 8.41923
44 4 -1.11357 17.7299 8.65082
47 4 -0.21847 15.0006 8.50199
52 3 -1.50901 18.9753 8.66303
53 3 -1.14415 16.996 9.72995
95 2 -7.45526 15.5059 9.44822
96 2 -6.59346 13.8235 8.41923
101 4 -7.92557 17.7299 8.65082
102 4 -7.03047 15.0006 8.50199
107 3 -8.32101 18.9753 8.66303
108 3 -7.95615 16.996 9.72995
132 3 -4.79525 19.5828 7.85252
191 3 2.01675 19.5828 7.85252
46 2 -6.77034 21.0458 12.8547
67 2 -6.23344 21.2543 10.808
93 4 -7.53739 22.7528 14.3252
94 4 -6.73379 21.6325 11.7966
141 3 -7.10211 21.5151 14.3143
195 2 -1.1867 14.9855 12.7566
208 3 -0.854906 14.5162 11.297
220 2 0.0416637 21.0458 12.8547
221 2 0.578564 21.2543 10.808
228 4 -0.725386 22.7528 14.3252
229 4 0.0782137 21.6325 11.7966
239 3 -0.290106 21.5151 14.3143
250 2 -7.9987 14.9855 12.7566
264 3 -7.66691 14.5162 11.297
269 1 -4.71134 14.9632 13.0843
270 1 -4.24037 14.3715 11.8287
271 1 -4.17134 15.186 10.6219
272 1 -4.63051 16.5728 10.6313
275 1 -5.17463 17.1502 11.8724
276 1 -5.18506 16.3471 13.1022
281 2 -4.15105 16.8125 8.57178
282 2 -5.01284 18.4949 9.60077
283 2 -6.09268 18.0093 14.1791
284 2 -5.75839 16.1359 15.1822
289 4 -3.68073 14.5885 9.36918
290 4 -4.57583 17.3178 9.51801
291 4 -5.70478 18.4949 11.8724
292 4 -5.64768 16.8769 14.2472
295 3 -3.2853 13.3432 9.35697
296 3 -3.65016 15.3224 8.29004
297 3 -5.69529 19.227 10.7704
298 3 -6.18701 19.0091 12.983
299 1 -3.2457 21.0681 12.527
300 1 -3.71667 21.6598 13.7827
301 1 -3.7857 20.8453 14.9894
302 1 -3.32652 19.4585 14.98
303 1 -2.7824 18.8811 13.7389
304 1 -2.77198 19.6842 12.5091
306 2 -4.60017 23.3344 14.8034
310 2 -1.86436 18.022 11.4322
311 2 -2.19863 19.8954 10.4291
312 4 -3.29622 21.836 11.2861
313 4 -4.09983 22.9562 13.8147
316 4 -2.25225 17.5364 13.739
317 4 -2.30935 19.1544 11.3641
318 3 -2.87562 21.2931 10.1675
324 3 -2.26174 16.8043 14.8409
325 3 -1.77003 17.0222 12.6283
326 1 2.10066 14.9632 13.0843
329 1 2.57163 14.3715 11.8287
330 1 2.64066 15.186 10.6219
331 1 2.18149 16.5728 10.6313
332 1 1.63737 17.1502 11.8724
335 1 1.62694 16.3471 13.1022
338 2 2.66095 16.8125 8.57178
339 2 1.79916 18.4949 9.60077
340 2 0.719314 18.0093 14.1791
341 2 1.05361 16.1359 15.1822
344 4 3.13127 14.5885 9.36918
345 4 2.23617 17.3178 9.51801
346 4 1.10722 18.4949 11.8724
347 4 1.16432 16.8769 14.2472
350 3 3.5267 13.3432 9.35697
351 3 3.16184 15.3224 8.29004
352 3 1.11671 19.227 10.7704
353 3 0.624994 19.0091 12.983
354 1 -10.0577 21.0681 12.527
356 1 -10.5287 21.6598 13.7827
357 1 -10.5977 20.8453 14.9894
358 1 -10.1385 19.4585 14.98
359 1 -9.5944 18.8811 13.7389
360 1 -9.58398 19.6842 12.5091
362 2 -11.4122 23.3344 14.8034
365 2 -8.67636 18.022 11.4322
366 2 -9.01063 19.8954 10.4291
367 4 -10.1082 21.836 11.2861
368 4 -10.9118 22.9562 13.8147
373 4 -9.06425 17.5364 13.739
374 4 -9.12135 19.1544 11.3641
377 3 -9.68762 21.2931 10.1675
383 3 -9.07374 16.8043 14.8409
384 3 -8.58203 17.0222 12.6283
ITEM: TIMESTEP
25
ITEM: NUMBER OF ATOMS
384
ITEM: BOX BOUNDS
-12.0786 13.624
0 24.5406
0 15.1826
ITEM: ATOMS
7 2 -0.736195 8.77832 5.29684
8 2 -0.190919 8.99287 3.17605
13 4 -1.49785 10.4746 6.74655
14 4 -0.692656 9.35602 4.20509
21 3 -1.06488 9.25084 6.72231
32 2 4.85777 2.71233 5.13185
51 3 5.18648 2.23981 3.70638
62 2 6.0758 8.77832 5.29684
63 2 6.62108 8.99287 3.17605
69 4 5.31415 10.4746 6.74655
70 4 6.11934 9.35602 4.20509
76 3 5.74712 9.25084 6.72231
91 2 -1.95423 2.71233 5.13185
106 3 -1.62552 2.23981 3.70638
227 2 10.2696 0.120702 0.0137087
112 1 1.80159 2.09155 4.23712
113 1 1.87248 2.91095 3.02055
114 1 1.4094 4.30795 3.03197
116 1 0.860846 4.89034 4.28111
117 1 0.851031 4.08058 5.51937
120 2 1.90516 4.50173 0.962498
121 2 1.02131 6.23943 2.01549
122 2 -0.0581547 5.76197 6.57081
348 3 8.05782 7.31058 0.255275
126 4 2.36349 2.31238 1.7655
127 4 1.46404 5.05077 1.92095
128 4 0.328952 6.23892 4.28118
131 4 0.389167 4.60919 6.66168
134 3 2.75185 1.07894 1.76683
137 3 2.38854 3.04961 0.704654
138 3 0.343596 6.95351 3.18484
139 3 -0.145357 6.73609 5.38672
140 1 2.79372 8.80429 4.926
143 1 2.31999 9.39909 6.19156
144 1 2.2491 8.5797 7.40813
145 1 2.71219 7.18271 7.39671
146 1 3.26074 6.60031 6.14757
147 1 3.27055 7.41007 4.90931
149 2 1.43593 11.0552 7.25263
152 2 4.17973 5.72869 3.85787
153 2 3.82675 7.65709 2.82365
154 4 2.74286 9.57355 3.68212
155 4 1.93766 10.6921 6.22359
158 4 3.79264 5.25173 6.1475
159 4 3.73242 6.88146 3.767
160 3 3.16194 9.02467 2.58209
165 3 3.77799 4.53714 7.24385
166 3 4.26694 4.75456 5.04195
88 2 3.45758 0.120702 0.0137087
168 1 8.61359 2.09155 4.23712
169 1 8.68448 2.91095 3.02055
170 1 8.2214 4.30795 3.03197
171 1 7.67285 4.89034 4.28111
172 1 7.66303 4.08058 5.51937
175 2 8.71716 4.50173 0.962497
176 2 7.83331 6.23943 2.01549
179 2 6.75385 5.76197 6.57081
293 3 1.24582 7.31058 0.255275
185 4 9.1755 2.31238 1.7655
186 4 8.27604 5.05077 1.92095
187 4 7.14095 6.23892 4.28118
188 4 7.20117 4.60919 6.66168
211 3 9.56385 1.07893 1.76683
225 3 9.20054 3.04961 0.704646
226 3 7.1556 6.95351 3.18484
231 3 6.66664 6.73609 5.38672
232 1 -4.01828 8.80429 4.926
237 1 -4.49201 9.39909 6.19156
238 1 -4.5629 8.5797 7.40813
259 1 -4.09981 7.18271 7.39671
273 1 -3.55126 6.60031 6.14757
274 1 -3.54145 7.41007 4.90931
280 2 -5.37607 11.0552 7.25263
307 2 -2.63227 5.72869 3.85787
321 2 -2.98525 7.65709 2.82365
322 4 -4.06914 9.57355 3.68212
327 4 -4.87434 10.6921 6.22359
334 4 -3.01936 5.25173 6.1475
355 4 -3.07958 6.88146 3.767
369 3 -3.65006 9.02467 2.58209
381 3 -3.03401 4.53714 7.24385
382 3 -2.54506 4.75456 5.04195
197 2 5.37916 3.27605 1.87486
198 2 6.26302 1.53835 0.821868
203 4 4.92083 5.4654 1.07186
204 4 5.82029 2.72701 0.91641
209 3 4.53247 6.69885 1.07053
210 3 4.89577 4.72817 2.13271
252 2 -1.43284 3.27604 1.87486
253 2 -0.548982 1.53835 0.821868
258 4 -1.89117 5.4654 1.07186
260 4 -0.991711 2.72701 0.91641
265 3 -2.27953 6.69885 1.07053
266 3 -1.91623 4.72816 2.13271
1 1 -1.54872 11.2438 5.50269
56 1 5.26328 11.2438 5.50269
20 3 -1.91692 11.0234 7.84659
75 3 4.89508 11.0234 7.84659
150 2 2.21643 6.98892 9.46618
151 2 3.10028 5.25121 8.41319
156 4 1.75809 9.17826 8.66318
157 4 2.65755 6.43988 8.50773
162 3 1.36973 10.4117 8.66185
164 3 1.73303 8.44104 9.72402
285 2 -4.59557 6.98892 9.46618
286 2 -3.71172 5.25121 8.41319
328 4 -5.05391 9.17826 8.66318
333 4 -4.15445 6.43988 8.50773
375 3 -5.44227 10.4117 8.66185
376 3 -5.07897 8.44104 9.72402
180 2 7.10685 3.83356 7.60503
33 1 -1.36114 5.80442 11.8285
34 1 -1.29025 6.62381 10.6119
39 1 -1.75333 8.02082 10.6233
40 1 -2.30187 8.60321 11.8724
45 1 -2.3117 7.79343 13.1107
81 2 -1.25757 8.21459 8.55382
82 2 -2.14141 9.9523 9.60681
87 2 -3.22087 9.47483 14.1621
378 3 -4.78826 5.95268 11.2977
115 4 -0.799231 6.02525 9.35682
129 4 -1.69869 8.76363 9.51227
130 4 -2.83378 9.95178 11.8725
135 4 -2.77356 8.32205 14.253
142 3 -0.410876 4.7918 9.35815
163 3 -0.774183 6.76247 8.29597
177 3 -2.81913 10.6664 10.7762
178 3 -3.30808 10.4489 12.978
183 1 -0.369003 12.5172 12.5173
184 1 -0.842727 13.112 13.7829
189 1 -0.913624 12.2926 14.9995
190 1 -0.450541 10.8956 14.988
193 1 0.0980141 10.3132 13.7389
194 1 0.107829 11.1229 12.5006
196 2 -1.72681 14.7681 14.8439
199 2 1.01701 9.44155 11.4492
200 2 0.664023 11.3699 10.415
201 4 -0.419862 13.2864 11.2734
202 4 -1.22506 14.4049 13.8149
205 4 0.629908 8.96459 13.7388
206 4 0.569703 10.5943 11.3583
207 3 -0.000792083 12.7375 10.1734
212 3 0.615264 8.25 14.8352
213 3 1.10421 8.46742 12.6333
123 2 0.294847 3.83356 7.60503
215 1 5.45086 5.80442 11.8285
216 1 5.52175 6.62381 10.6119
217 1 5.05867 8.02082 10.6233
218 1 4.51013 8.60321 11.8724
219 1 4.5003 7.79343 13.1107
222 2 5.55443 8.21459 8.55382
223 2 4.67059 9.9523 9.60681
224 2 3.59113 9.47483 14.1621
361 2 -5.11695 6.42519 12.7232
230 4 6.01277 6.02525 9.35682
233 4 5.11331 8.76363 9.51227
234 4 3.97822 9.95178 11.8725
235 4 4.03844 8.32205 14.253
240 3 6.40112 4.7918 9.35815
241 3 6.03782 6.76247 8.29597
242 3 3.99287 10.6664 10.7762
243 3 3.50392 10.4489 12.978
244 1 -7.181 12.5172 12.5173
245 1 -7.65473 13.112 13.7829
246 1 -7.72562 12.2926 14.9995
247 1 -7.26254 10.8956 14.988
248 1 -6.71399 10.3132 13.7389
249 1 -6.70417 11.1229 12.5006
251 2 -8.53881 14.7681 14.8439
254 2 -5.79499 9.44155 11.4492
255 2 -6.14798 11.3699 10.415
256 4 -7.23186 13.2864 11.2734
257 4 -8.03706 14.4049 13.8149
261 4 -6.18209 8.96459 13.7388
262 4 -6.2423 10.5943 11.3583
263 3 -6.81279 12.7375 10.1734
267 3 -6.19674 8.25 14.8352
268 3 -5.70779 8.46742 12.6333
277 2 -3.89891 12.4912 12.8881
278 2 -3.35365 12.7057 10.7674
287 4 -4.66057 14.1874 14.3379
288 4 -3.85538 13.0689 11.7964
294 3 -4.2276 12.9637 14.3136
305 2 1.69505 6.42519 12.7232
319 3 2.02374 5.95268 11.2977
336 2 2.91308 12.4912 12.8881
337 2 3.45835 12.7057 10.7674
342 4 2.15143 14.1874 14.3379
343 4 2.95661 13.0689 11.7964
349 3 2.5844 12.9637 14.3136
269 1 -4.71144 14.9567 13.094
326 1 2.10056 14.9567 13.094
341 2 7.39301 8.67816 0.0137082
2 1 -1.07499 10.649 4.23714
3 1 -1.0041 11.4684 3.02055
4 1 -1.46718 12.8654 3.03197
5 1 -2.01572 13.4478 4.28111
6 1 -2.02555 12.638 5.51937
9 2 -0.971422 13.0592 0.962498
10 2 -1.85526 14.7969 2.01549
11 2 -2.93472 14.3194 6.57082
380 3 -4.79281 13.2856 2.13271
15 4 -0.513081 10.8698 1.7655
16 4 -1.41254 13.6082 1.92095
17 4 -2.54763 14.7964 4.28118
18 4 -2.48741 13.1666 6.66168
22 3 -0.124726 9.63639 1.76683
23 3 -0.488033 11.6071 0.704645
24 3 -2.53298 15.511 3.18483
25 3 -3.02193 15.2935 5.38673
26 1 -0.0828531 17.3617 4.92599
27 1 -0.556576 17.9566 6.19154
28 1 -0.627474 17.1372 7.40813
29 1 -0.16439 15.7402 7.39671
30 1 0.384164 15.1578 6.14757
31 1 0.393979 15.9675 4.90931
35 2 -1.44066 19.6127 7.25263
38 2 1.30316 14.2861 3.85787
41 2 0.950173 16.2145 2.82365
42 4 -0.133712 18.131 3.68212
43 4 -0.938911 19.2495 6.22359
48 4 0.916058 13.8092 6.1475
49 4 0.855853 15.4389 3.767
50 3 0.285358 17.5821 2.58209
54 3 0.901414 13.0946 7.24384
55 3 1.39036 13.312 5.04196
284 2 0.581007 8.67816 0.0137082
57 1 5.73701 10.649 4.23714
58 1 5.8079 11.4684 3.02055
59 1 5.34482 12.8654 3.03197
60 1 4.79628 13.4478 4.28111
61 1 4.78645 12.638 5.51937
64 2 5.84058 13.0592 0.962498
65 2 4.95674 14.7969 2.01549
66 2 3.87728 14.3194 6.57082
379 3 -5.15611 15.2563 1.07054
71 4 6.29892 10.8698 1.7655
72 4 5.39946 13.6082 1.92095
73 4 4.26437 14.7964 4.28118
74 4 4.32459 13.1666 6.66168
77 3 6.68727 9.63639 1.76683
78 3 6.32397 11.6071 0.704645
79 3 4.27902 15.511 3.18483
80 3 3.79007 15.2935 5.38673
83 1 -6.89485 17.3617 4.92599
84 1 -7.36858 17.9566 6.19154
85 1 -7.43947 17.1372 7.40813
86 1 -6.97639 15.7402 7.39671
89 1 -6.42784 15.1578 6.14757
90 1 -6.41802 15.9675 4.90931
92 2 -8.25266 19.6127 7.25263
97 2 -5.50884 14.2861 3.85787
98 2 -5.86183 16.2145 2.82365
99 4 -6.94571 18.131 3.68213
100 4 -7.75091 19.2495 6.22359
103 4 -5.89594 13.8092 6.1475
104 4 -5.95615 15.4389 3.767
105 3 -6.52664 17.5821 2.58209
109 3 -5.91059 13.0946 7.24384
110 3 -5.42164 13.312 5.04195
118 2 -3.61276 17.3358 5.29682
119 2 -3.0675 17.5503 3.17605
124 4 -4.37442 19.032 6.74656
125 4 -3.56923 17.9135 4.20509
133 3 -3.94145 17.8083 6.7223
148 2 1.9812 11.2698 5.13184
161 3 2.30989 10.7973 3.70637
173 2 3.19924 17.3358 5.29682
174 2 3.7445 17.5503 3.17605
181 4 2.43758 19.032 6.74656
182 4 3.24277 17.9135 4.20509
192 3 2.87055 17.8083 6.7223
279 2 -4.8308 11.2698 5.13184
370 3 -4.50211 10.7973 3.70637
136 3 -1.63076 15.868 0.255274
236 3 5.18124 15.868 0.255274
308 2 2.50259 11.8335 1.87486
309 2 3.38644 10.0958 0.821874
314 4 2.04425 14.0229 1.07186
315 4 2.94371 11.2845 0.91641
320 3 1.65589 15.2563 1.07054
323 3 2.01919 13.2856 2.13271
363 2 -4.30941 11.8335 1.87486
364 2 -3.42556 10.0958 0.821874
371 4 -4.76775 14.0229 1.07186
372 4 -3.86829 11.2845 0.91641
111 1 -4.42529 19.8013 5.50268
167 1 2.38671 19.8013 5.50268
36 2 -0.660154 15.5464 9.46618
37 2 0.223702 13.8087 8.41319
44 4 -1.11849 17.7357 8.66318
47 4 -0.219027 14.9973 8.50773
52 3 -1.50685 18.9692 8.66185
53 3 -1.14354 16.9985 9.72403
95 2 -7.47215 15.5464 9.46618
96 2 -6.5883 13.8087 8.41319
101 4 -7.93049 17.7357 8.66318
102 4 -7.03103 14.9973 8.50773
107 3 -8.31885 18.9692 8.66185
108 3 -7.95554 16.9985 9.72403
132 3 -4.79349 19.5809 7.84659
191 3 2.01851 19.5809 7.84659
46 2 -6.7755 21.0486 12.8882
67 2 -6.23023 21.2632 10.7674
93 4 -7.53715 22.7449 14.3379
94 4 -6.73196 21.6263 11.7964
141 3 -7.10418 21.5212 14.3136
195 2 -1.18153 14.9827 12.7232
208 3 -0.85283 14.5101 11.2977
220 2 0.0364986 21.0486 12.8882
221 2 0.581775 21.2632 10.7674
228 4 -0.725154 22.7449 14.3379
229 4 0.0800379 21.6263 11.7964
239 3 -0.292183 21.5212 14.3136
250 2 -7.99353 14.9827 12.7232
264 3 -7.66483 14.5101 11.2977
68 2 4.23027 12.391 7.60503
270 1 -4.23772 14.3619 11.8284
271 1 -4.16683 15.1813 10.6119
272 1 -4.62991 16.5783 10.6233
275 1 -5.17846 17.1607 11.8724
276 1 -5.18828 16.3509 13.1107
281 2 -4.13415 16.7721 8.55382
282 2 -5.018 18.5098 9.60681
283 2 -6.09745 18.0323 14.1621
384 3 -8.58437 17.0249 12.6333
289 4 -3.67581 14.5827 9.35682
290 4 -4.57527 17.3211 9.51227
291 4 -5.71035 18.5092 11.8725
292 4 -5.65014 16.8795 14.253
295 3 -3.28746 13.3493 9.35815
296 3 -3.65076 15.3199 8.29597
297 3 -5.69571 19.2238 10.7762
298 3 -6.18466 19.0064 12.978
299 1 -3.24559 21.0746 12.5173
300 1 -3.71932 21.6694 13.7829
301 1 -3.7902 20.85 14.9995
302 1 -3.32712 19.453 14.988
303 1 -2.77856 18.8706 13.7389
304 1 -2.76876 19.6804 12.5006
306 2 -4.60338 23.3255 14.844
310 2 -1.85958 17.999 11.4492
311 2 -2.21255 19.9274 10.415
312 4 -3.29645 21.8439 11.2734
313 4 -4.10165 22.9624 13.8149
316 4 -2.24667 17.5221 13.7388
317 4 -2.30688 19.1518 11.3583
318 3 -2.87737 21.295 10.1734
324 3 -2.26131 16.8075 14.8352
325 3 -1.77237 17.0249 12.6333
12 2 -2.58173 12.391 7.60503
329 1 2.57428 14.3619 11.8284
330 1 2.64517 15.1813 10.6119
331 1 2.18209 16.5783 10.6233
332 1 1.63354 17.1607 11.8724
335 1 1.62372 16.3509 13.1107
338 2 2.67785 16.7721 8.55382
339 2 1.794 18.5098 9.60681
340 2 0.714539 18.0323 14.1621
383 3 -9.07331 16.8075 14.8352
344 4 3.13619 14.5827 9.35682
345 4 2.23673 17.3211 9.51227
346 4 1.10165 18.5092 11.8725
347 4 1.16186 16.8795 14.253
350 3 3.52454 13.3493 9.35815
351 3 3.16124 15.3199 8.29597
352 3 1.11629 19.2238 10.7762
353 3 0.627336 19.0064 12.978
354 1 -10.0576 21.0746 12.5173
356 1 -10.5313 21.6694 13.7829
357 1 -10.6022 20.85 14.9995
358 1 -10.1391 19.453 14.988
359 1 -9.59056 18.8706 13.7389
360 1 -9.58076 19.6804 12.5006
362 2 -11.4154 23.3255 14.844
365 2 -8.67158 17.999 11.4492
366 2 -9.02455 19.9274 10.415
367 4 -10.1084 21.8439 11.2734
368 4 -10.9137 22.9624 13.8149
373 4 -9.05867 17.5221 13.7388
374 4 -9.11888 19.1518 11.3583
377 3 -9.68937 21.295 10.1734
19 1 -7.58802 23.5141 13.094
214 1 -0.776023 23.5141 13.094
