LAMMPS (24 Dec 2020)
Processor partition = 0
OMP_NUM_THREADS environment is not set. Defaulting to 1 thread. (src/comm.cpp:94)
  using 1 OpenMP thread(s) per MPI task
units lj
atom_style atomic
atom_modify map yes
boundary f f f
region mybox block -5.0 5.0 -5.0 5.0 -5.0 5.0
create_box 1 mybox
Created orthogonal box = (-5.0000000 -5.0000000 -5.0000000) to (5.0000000 5.0000000 5.0000000)
  1 by 1 by 1 MPI processor grid
create_atoms 1 single 0.0 0.0 0.0 units box
Created 1 atoms
  create_atoms CPU = 0.000 seconds
pair_style zero 2.0 nocoeff
pair_coeff * *
mass 1 1.0
timestep 0.2

#thermo_style custom step ke pe etotal

fix 1 all spring/self 1.0 xyz
fix_modify 1 energy yes
#fix 2 all nve
velocity all set 0.1 0.1 0.1

fix 4 all pimd3 method nmpimd ensemble nvt temp 1.0 thermostat SVR 975481
#fix 4 all pimd2 method nmpimd thermostat baoab 975481 fmass 1.0 temp 1.0
#fix 4 all pimd3 method nmpimd ensemble nve

thermo_style custom step f_4[1] f_4[2] f_4[3] f_4[4] f_4[5] f_4[6] f_4[7] f_4[8] f_4[9]
thermo 100

run 1000000
Neighbor list info ...
  update every 1 steps, delay 10 steps, check yes
  max neighbors/atom: 2000, page size: 100000
  master list distance cutoff = 2.3
  ghost atom cutoff = 2.3
  binsize = 1.15, bins = 9 9 9
  1 neighbor lists, perpetual/occasional/extra = 1 0 0
  (1) pair zero, perpetual
      attributes: half, newton on
      pair build: half/bin/atomonly/newton
      stencil: half/bin/3d/newton
      bin: standard
Per MPI rank memory allocation (min/avg/max) = 3.047 | 3.047 | 3.047 Mbytes
Step f_4[1] f_4[2] f_4[3] f_4[4] f_4[5] f_4[6] f_4[7] f_4[8] f_4[9] 
       0            0            0            0            0            6           -0          1.5        0.004        0.003 
     100    9.1372491    2.4748221    2.1599329    13.772004    3.5251779    2.1599329    1.5019539 0.00091016334 -0.0013159581 
     200    6.1226077    3.9086995    0.6667541    10.698061    2.0913005    0.6667541    1.5021338 0.00094969757 0.0016707595 
     300    5.4740823    4.9287493    3.1360645    13.538896    1.0712507    3.1360645    1.5029586 -0.0013765426 -0.0032662118 
     400    6.9434055    4.9687887   0.42130598      12.3335    1.0312113   0.42130598    1.5025307 0.00040660354 0.0021624494 
     500    2.0379819    9.8083844   0.19942499    12.045791   -3.8083844   0.19942499    1.5076701 -0.0026718729 0.0026164902 
     600     7.372118     12.68704   0.22682036    20.285978   -6.6870398   0.22682036    1.5087121 -0.0046092401 0.0025637835 
     700    6.3737031    2.6205744   0.46513253      9.45941    3.3794256   0.46513253    1.5017184  0.001942862 0.0020731717 
     800    4.8287702    1.5470087   0.86031263    7.2360915    4.4529913   0.86031263     1.501192 0.0023951191 0.0012817587 
     900    4.8267742    5.6229166   0.56120536    11.010896   0.37708341   0.56120536    1.5030697 -0.00012274797 0.0018837287 
    1000     11.63338    3.8424762   0.26849905    15.744355    2.1575238   0.26849905    1.5030036 0.0012593499 0.0024690092 
    1100    3.4079762    1.2558683 0.0083631892    4.6722077    4.7441317 0.0083631892    1.5006016  0.003157179 0.0029844768 
    1200    4.9274604      1.48269   0.41124048    6.8213909      4.51731   0.41124048    1.5011525 0.0027373797 0.0021798241 
    1300    11.246856    10.700354 0.0085019173    21.955712    -4.700354 0.0085019173    1.5081257 -0.0031392373 0.0029992476 
    1400    1.5182456    7.3314167   0.01091212    8.8605744   -1.3314167   0.01091212    1.5042649 -0.00089488587 0.0029867056 
    1500    1.7714299    4.9595324    3.2638656    9.9948279    1.0404676    3.2638656     1.502983 -0.0014822653 -0.0035217652 
    1600    12.014289    1.6643941  0.076565637    13.755249    4.3356059  0.076565637    1.5009595 0.0028393602 0.0028487878 
    1700    8.5083065    3.9573121    2.8406694    15.306288    2.0426879    2.8406694    1.5021288 -0.00053198769 -0.0026770813 
    1800    7.8194266    3.6823258   0.90346838    12.405221    2.3176742   0.90346838    1.5019602 0.00094280386 0.0011969836 
    1900    2.4270987    5.4916768    3.8715875    11.790363   0.50832318    3.8715875    1.5039087 -0.0022421762 -0.0047353577 
    2000    4.4156251    2.0728374    3.3758089    9.8642713    3.9271626    3.3758089    1.5010354 0.00036756919 -0.0037495469 
    2100    7.4651215    5.4144613    0.0153522    12.894935    0.5855387    0.0153522     1.503787 0.00038012434 0.0029768697 
    2200    4.0065794    2.0453556    2.2174265    8.2693616    3.9546444    2.2174265    1.5013823 0.0011581452 -0.0014320884 
    2300    3.1621573    3.3168844    1.9484844     8.427526    2.6831156    1.9484844    1.5026173 0.00048975417 -0.00089173418 
    2400    2.2026701    2.0015722   0.40712053    4.6113629    3.9984278   0.40712053    1.5012533 0.0023942048 0.0021882656 
    2500    3.2840926    7.5152338    1.2062282    12.005555   -1.5152338    1.2062282    1.5054156 -0.001814308 0.0005983747 
    2600    2.4906809     2.508182   0.35331575    5.3521787     3.491818   0.35331575    1.5017545 0.0020923348 0.0022968774 
    2700    6.1370686    3.1722728   0.19838893    9.5077303    2.8277272   0.19838893     1.502198 0.0017528922 0.0026076182 
    2800     5.177054    5.6936945   0.23141027    11.102159   0.30630552   0.23141027    1.5031966 4.993017e-05 0.0025435726 
    2900    3.8654672     1.102939   0.10663594    5.0750422     4.897061   0.10663594    1.5007188 0.0031936167 0.0027881656 
    3000    7.1483577    5.7200107    2.3415476    15.209916   0.27998933    2.3415476    1.5040775 -0.0013743722 -0.0016749401 
    3100    4.5799773    2.3825027    1.9961126    8.9585926    3.6174973    1.9961126    1.5012246 0.0010809231 -0.00098977603 
    3200     6.359726    5.8134638    0.1648681    12.338058   0.18653622    0.1648681    1.5039522 1.4445411e-05 0.0026781682 
    3300    3.4333055    3.2257064  0.008682615    6.6676945    2.7742936  0.008682615    1.5024722 0.0018437406 0.0029875792 
    3400    5.5375022    2.0843038   0.14559688    7.7674029    3.9156962   0.14559688    1.5014641 0.0025133995 0.0027117345 
    3500    2.4423069    2.2993413   0.96432768    5.7059759    3.7006587   0.96432768    1.5016518 0.0018242207 0.0010746482 
    3600    14.476884    6.6700294    3.3927022    24.539615  -0.67002935    3.3927022    1.5050684 -0.0027084877 -0.0037752676 
    3700     5.448238    2.6401192   0.19844768    8.2868049    3.3598808   0.19844768    1.5020108 0.0021076221 0.0026071262 
    3800    10.610799    2.4521646    2.5503688    15.613333    3.5478354    2.5503688     1.501775 0.00066497777 -0.0020971876 
    3900    9.9549749    2.3432911   0.12053444      12.4188    3.6567089   0.12053444    1.5015457 0.0023574496 0.0027620226 
    4000     2.142068    4.0543172      1.00195    7.1983352    1.9456828      1.00195    1.5026124 0.00062915515 0.0010013247 
    4100    3.7614457    2.7848349   0.99063981    7.5369204    3.2151651   0.99063981     1.501798 0.0014830169 0.0010223165 
    4200    10.789196    5.3842402    4.3132978    20.486734   0.61575982    4.3132978    1.5036551 -0.0024650253 -0.0056192855 
    4300    1.3269956    1.7435805    2.1971765    5.2677525    4.2564195    2.1971765    1.5013706 0.0013728287 -0.0013916116 
    4400    1.1485143    6.1251428    1.8002612    9.0739183  -0.12514283    1.8002612    1.5046664 -0.0012836027 -0.00059118958 
    4500     3.511922    3.6207333   0.46725935    7.5999147    2.3792667   0.46725935    1.5025041 0.0012746716 0.0020704895 
    4600    6.4964043    5.2031137    10.992337    22.691855   0.79688629    10.992337    1.5031457 -0.0067969673 -0.018978383 
    4700    5.8478507    4.7685311    3.1607189    13.777101    1.2314689    3.1607189    1.5035611 -0.0012861667 -0.0033143156 
    4800    2.2322144    5.8122664 0.0038657906    8.0483466   0.18773365 0.0038657906    1.5026121 0.00012257857 0.0029974926 
    4900    2.5032782    3.4536981   0.11062214    6.0675984    2.5463019   0.11062214     1.501773 0.0016237865 0.0027823016 
    5000    2.8442512    6.9377581   0.57231833    10.354328  -0.93775815   0.57231833    1.5045893 -0.0010067177 0.0018645419 
    5100    2.4943532    5.8304462   0.73900309    9.0638025   0.16955377   0.73900309    1.5044202 -0.00037963288 0.0015308341 
    5200    4.6408563    3.4784739    1.1560325    9.2753627    2.5215261    1.1560325    1.5027471 0.00091032908 0.00069342917 
    5300    4.7488865       5.6151    1.5511712    11.915158   0.38489998    1.5511712    1.5039923 -0.00077751412 -9.4357687e-05 
    5400     7.894117    2.3226214    3.1340535    13.350792    3.6773786    3.1340535    1.5016189 0.00036221674 -0.0032648692 
    5500    9.5241686    5.1613588   0.32067525    15.006203   0.83864117   0.32067525     1.503496 0.00034531061 0.0023656414 
    5600    4.8893745    3.3088184    1.2576587    9.4558515    2.6911816    1.2576587    1.5018746 0.00095568198 0.00048843188 
    5700    3.1597193    4.1508409 0.0072985867    7.3178588    1.8491591 0.0072985867    1.5026743  0.001227907 0.0029907513 
    5800    7.0781685    8.7981296    3.4677877    19.344086   -2.7981296    3.4677877    1.5040827 -0.0041772782 -0.0039274099 
    5900     4.098076    2.3660985    0.1330495    6.5972239    3.6339015    0.1330495    1.5018539 0.0023339013 0.0027376088 
    6000    5.9671299    3.8677712   0.61516117    10.450062    2.1322288   0.61516117    1.5024153 0.0010113784 0.0017745082 
    6100    9.1745527   0.25939417    2.0348624    11.468809    5.7406058    2.0348624    1.5001201 0.0024704956 -0.0010694846 
    6200    10.027499      1.98854    0.2874713    12.303511      4.01146    0.2874713     1.501572 0.0024826591 0.0024282013 
    6300    3.1945823    4.6068963    2.8761029    10.677581    1.3931037    2.8761029    1.5025519 -0.00098866614 -0.0027471021 
    6400    3.6695639    2.1704751 0.0071348931    5.8471739    3.8295249 0.0071348931    1.5012062   0.00254826 0.0029881426 
    6500    1.7931013    3.8256639  0.011723514    5.6304887    2.1743361  0.011723514    1.5025206 0.0014417418 0.0029815942 
    6600     8.482496    4.5142531    0.4990163    13.495765    1.4857469    0.4990163    1.5034217 0.00065782042 0.0020088108 
    6700    2.4091077    4.5744058   0.15698647       7.1405    1.4255942   0.15698647     1.502453 0.00084573851 0.0026909331 
    6800    11.981826    1.6339587  0.004425496     13.62021    4.3660413  0.004425496    1.5008196 0.0029077439 0.0029927882 
    6900    3.8308771    7.9387865   0.45653853    12.226202   -1.9387865   0.45653853    1.5048144 -0.0015968834 0.0020965517 
    7000    3.1482612    4.7747243   0.14507276    8.0680583    1.2252757   0.14507276    1.5031915 0.00072013532 0.0027162376 
    7100    4.5479328    1.7333371  0.072272802    6.3535427    4.2666629  0.072272802    1.5011332 0.0027962601 0.0028577208 
    7200     13.15119    4.0761922    5.4872411    22.714624    1.9238078    5.4872411    1.5025576 -0.0023756222 -0.0079693669 
    7300    3.6835243    2.0234626    2.4260091     8.132996    3.9765374    2.4260091    1.5012689 0.0010336855 -0.0018494803 
    7400    12.925505    1.5887216    1.0768932     15.59112    4.4112784    1.0768932      1.50116 0.0022229235 0.00084853365 
    7500   0.19797493    6.3169892    1.6265212    8.1414853  -0.31698916    1.6265212    1.5044523 -0.0012956736 -0.00024413784 
    7600    7.4886969    3.9849553 0.0079905084    11.481643    2.0150447 0.0079905084    1.5023019 0.0013380361 0.0029886228 
    7700    4.1609399    4.2006264  0.024379552    8.3859459    1.7993736  0.024379552    1.5026523 0.0011833293 0.0029565455 
    7800    12.397998    3.6451929    4.3250844    20.368276    2.3548071    4.3250844    1.5019265 -0.0013135182 -0.0056463158 
    7900    3.6678048     6.855737    3.8956198    14.419161  -0.85573696    3.8956198    1.5043319 -0.0031675711 -0.0047825757 
    8000    12.203575    1.0035161    1.6284592     14.83555    4.9964839    1.6284592    1.5007918 0.0022453498 -0.00025533479 
    8100    6.6684705    4.2483082  0.012698003    10.929477    1.7516918  0.012698003    1.5023463 0.0011593292 0.0029792965 
    8200    2.7903981    9.0623404    3.0708277    14.923566   -3.0623404    3.0708277    1.5042316 -0.0040887787 -0.0031331922 
    8300    7.9341426    1.3676247   0.01812545    9.3198927    4.6323753   0.01812545    1.5008562 0.0030761666 0.0029654616 
    8400     8.272491    8.8415264    2.5549749    19.668992   -2.8415264    2.5549749     1.506952 -0.0035976676 -0.0020960459 
    8500    9.8241079    6.0730463    1.3535581    17.250712 -0.073046323    1.3535581    1.5047612 -0.0009510696 0.00030240633 
    8600    4.0707066    5.2272346   0.17454501    9.4724861   0.77276543   0.17454501    1.5040668 0.00039881361 0.0026590436 
    8700    5.6043588    1.5184218   0.74007036     7.862851    4.4815782   0.74007036    1.5010982 0.0024943386 0.0015220557 
    8800    1.7214611   0.94151497 0.0045955439    2.6675717     5.058485 0.0045955439    1.5007302 0.0033692597 0.0029922693 
    8900     2.141011     3.592247   0.06521786    5.7984758     2.407753   0.06521786    1.5021756 0.0015616901 0.0028739156 
    9000    2.9107107    5.5418012    2.0858439    10.538356   0.45819879    2.0858439    1.5038493 -0.0010850967 -0.0011639892 
    9100    3.7651166    2.2918319    1.3403473    7.3972959    3.7081681    1.3403473    1.5017867 0.0015785472 0.00032287881 
    9200    2.7745968     2.288597   0.82413623      5.88733     3.711403   0.82413623    1.5014998 0.0019248445 0.0013547272 
    9300    2.5298902    3.1763556    1.7638187    7.4700644    2.8236444    1.7638187    1.5021389 0.00070655049 -0.00052335965 
    9400    11.337468    6.2729278    0.1688926    17.779289  -0.27292782    0.1688926    1.5046845 -0.00029454695 0.0026715839 
    9500    4.1763967    3.7506387   0.36603993    8.2930753    2.2493613   0.36603993     1.502715 0.0012555476 0.0022733501 
    9600    4.0873821    4.7173538   0.13515096    8.9398869    1.2826462   0.13515096    1.5036937 0.0007649968 0.0027370856 
    9700    9.0283465    4.8748152    1.0066782     14.90984    1.1251848    1.0066782    1.5032739 7.9004406e-05 0.0009931913 
    9800    4.9695761     3.666308   0.48586527    9.1217493     2.333692   0.48586527    1.5028533 0.0012318845  0.002033976 
    9900    10.692804    1.7288838    1.8995083    14.321196    4.2711162    1.8995083    1.5010134 0.0015810719 -0.00079698987 
   10000    8.2873962     3.276479   0.14877536     11.71265     2.723521   0.14877536    1.5021033 0.0017164971 0.0027066559 
   10100    4.5286035    3.3103055  0.058735498    7.8976445    2.6896945  0.058735498    1.5026071 0.0017539727 0.0028877431 
   10200    3.1751916    1.5167388   0.38660399    5.0785343    4.4832612   0.38660399    1.5010497 0.0027311048 0.0022288914 
   10300    3.5852008    2.7602823 0.0022200308    6.3477031    3.2397177 0.0022200308    1.5020841 0.0021583318 0.0029997281 
   10400    4.4454636    3.8032063   0.67520495    8.9238748    2.1967937   0.67520495    1.5023237 0.0010143925 0.0016542374 
   10500    4.2896631    4.9129318  0.090868001    9.2934629    1.0870682  0.090868001      1.50362 0.00066413348  0.002825504 
   10600    4.2768559    7.9511869    4.7235266    16.951569   -1.9511869    4.7235266    1.5053104 -0.004449809 -0.0064364323 
   10700    3.5080828    5.3143304    1.5917004    10.414114   0.68566964    1.5917004     1.503229 -0.00060402049 -0.00017694268 
   10800    1.6861118    3.4931416   0.44826293    5.6275164    2.5068584   0.44826293    1.5025763  0.001372397 0.0021086267 
   10900    7.7425872    4.5029495   0.13789993    12.383437    1.4970505   0.13789993    1.5032459 0.00090610041  0.002730692 
   11000    2.6536432    2.4105795   0.66436553    5.7285882    3.5894205   0.66436553    1.5017045 0.0019500366 0.0016746779 
   11100    6.0344928     7.184972    3.9061369    17.125602    -1.184972    3.9061369    1.5040009 -0.0033940726 -0.0048042719 
   11200    3.4423731    3.7537404   0.35458122    7.5506947    2.2462596   0.35458122    1.5021143 0.0012611189 0.0022950662 
   11300    4.2658395    7.3751595   0.32701851    11.968018   -1.3751595   0.32701851     1.505687 -0.0011347854 0.0023573369 
   11400     3.327075    1.4161731   0.50618213    5.2494303    4.5838269   0.50618213    1.5009391 0.0027184298 0.0019895139 
   11500     3.298615    4.4951484    3.0364191    10.830183    1.5048516    3.0364191    1.5031524 -0.001021045 -0.0030665334 
   11600     14.36587    4.2569554    1.3116261    19.934451    1.7430446    1.3116261     1.502656 0.00028761234 0.00038205979 
   11700    5.4163709    8.7286263    4.0627761    18.207773   -2.7286263    4.0627761    1.5054127 -0.0045276016 -0.0051147267 
   11800    6.4118577    1.0394747   0.23787549    7.6892079    4.9605253   0.23787549    1.5005625 0.0031484332 0.0025253741 
   11900    12.630128    3.4929318   0.71402645    16.837086    2.5070682   0.71402645     1.502615 0.0011953612 0.0015771771 
   12000    1.9361627    3.9225468    3.2741265     9.132836    2.0774532    3.2741265    1.5029193 -0.0007977822 -0.0035424145 
   12100    7.2143301    7.7415816    8.1103951    23.066307   -1.7415816    8.1103951    1.5042712 -0.0065679844 -0.013212248 
   12200    3.0014113    7.1524122     1.154768    11.308591   -1.1524122     1.154768    1.5037119 -0.0015381202 0.0006978878 
   12300    3.5196488    4.3941635   0.60652808    8.5203403    1.6058365   0.60652808    1.5031165 0.00066620563 0.0017931768 
   12400    1.9908877    13.022483   0.52318891     15.53656   -7.0224834   0.52318891    1.5101243 -0.0050304482 0.0019738709 
   12500    7.2413547    1.8381115     4.864279    13.943745    4.1618885     4.864279    1.5014156 -0.0004682603 -0.0067257268 
   12600    4.7455335    5.4524985   0.73775295    10.935785    0.5475015   0.73775295    1.5032771 -0.0001268343 0.0015310483 
   12700    6.6492928    6.7093003   0.01306717     13.37166  -0.70930028   0.01306717    1.5038706 -0.0004815783 0.0029816068 
   12800    5.4896636    7.7312288    1.0401781     14.26107   -1.7312288    1.0401781    1.5039633 -0.0018476046 0.00092757046 
   12900    5.4142703    3.2449755    0.3674726    9.0267184    2.7550245    0.3674726    1.5022457 0.0015917013 0.0022695463 
   13000    9.1289858    2.7722926    2.1033962    14.004675    3.2277074    2.1033962    1.5020707 0.00074954082 -0.0012026511 
   13100    6.4287456    1.1874263     9.012409    16.628581    4.8125737     9.012409    1.5009086 -0.0027998903 -0.015023001 
   13200    2.4123059     8.688956    6.7942408    17.895503    -2.688956    6.7942408      1.50482 -0.0063221312 -0.010578842 
   13300    1.4792378    5.0896348    1.1566192    7.7254918   0.91036525    1.1566192     1.503421 -0.00016416933 0.00069360351 
   13400    3.3083122    2.8532492  0.097990999    6.2595524    3.1467508  0.097990999    1.5017464 0.0020325066 0.0028075108 
   13500    1.2259841    9.9104833  0.011351345    11.147819   -3.9104833  0.011351345    1.5076782 -0.0026145565 0.0029926536 
   13600    6.1255318    7.2958017    4.1614944    17.582828   -1.2958017    4.1614944    1.5048436 -0.0036381974 -0.0053133016 
   13700    10.422447    2.8824676   0.10820683    13.413122    3.1175324   0.10820683     1.501544  0.002006217 0.0027866743 
   13800    6.5331591    1.6727458   0.17284863    8.3787535    4.3272542   0.17284863    1.5010529 0.0027696037 0.0026564086 
   13900    4.5477866    1.2260822    12.567848    18.341717    4.7739178    12.567848    1.5009332 -0.0051959533 -0.022133829 
   14000    3.3222349    3.9843782    1.8260221    9.1326352    2.0156218    1.8260221    1.5025295 0.00012639982 -0.00064698515 
   14100    1.5044983    5.2023908  0.038600491    6.7454895   0.79760921  0.038600491    1.5029778 0.00050600582 0.0029287546 
   14200    7.3296554    5.2656005    0.6996283    13.294884   0.73439946    0.6996283    1.5030516 2.3180775e-05 0.0016068466 
   14300    2.7419267    3.4421508   0.17891882    6.3629964    2.5578492   0.17891882     1.502723 0.0015859536 0.0026476083 
   14400    8.3076702    7.5332525   0.16943143    16.010354   -1.5332525   0.16943143    1.5052303 -0.0011351226 0.0026715978 
   14500    4.5407423     8.918425   0.62268733    14.081855    -2.918425   0.62268733    1.5058885 -0.0023607416 0.0017664022 
   14600    2.8738902    3.3914484  0.069100174    6.3344388    2.6085516  0.069100174    1.5020235 0.0016929676 0.0028658466 
   14700    5.4364973    3.4452626   0.14514241    9.0269023    2.5547374   0.14514241    1.5023901 0.0016063967 0.0027144953 
   14800    3.0273021    4.8164322   0.40558686    8.2493212    1.1835678   0.40558686    1.5036266 0.00051865393 0.0021960794 
   14900    6.1885728    2.7981368 0.0018939891    8.9886036    3.2018632 0.0018939891    1.5015416 0.0021333128 0.0029992951 
   15000    6.5051351    2.6025841   0.69820179    9.8059211    3.3974159   0.69820179    1.5018033  0.001799476  0.001607203 
   15100    5.8623947    3.2646613   0.73777039    9.8648264    2.7353387   0.73777039    1.5023107 0.0013317122 0.0015290807 
   15200    2.2755882    4.8746174   0.16771209    7.3179178    1.1253826   0.16771209     1.503296 0.00063844698 0.0026711677 
   15300     3.441938    11.888195   0.69648154    16.026615    -5.888195   0.69648154      1.50729 -0.0043897844 0.0016216168 
   15400    6.3645582    6.7551729   0.17764865     13.29738  -0.75517288   0.17764865    1.5046557 -0.00062188102  0.002654014 
   15500    2.7691678    3.4892008   0.42611719    6.6844858    2.5107992   0.42611719    1.5017377  0.001389788 0.0021512411 
   15600    2.1734378    4.0979215   0.60654748    6.8779068    1.9020785   0.60654748    1.5030994 0.00086368734 0.0017931038 
   15700    14.179041    2.6407295  0.035922611    16.855693    3.3592705  0.035922611    1.5019964 0.0022155653 0.0029321475 
   15800    8.6481265    4.1156388    3.7894942     16.55326    1.8843612    3.7894942    1.5031007 -0.0012700887 -0.004572787 
   15900    4.4008313    1.0613716    0.2990212    5.7612241    4.9386284    0.2990212       1.5007 0.0030930715 0.0024033576 
   16000    7.3002243   0.80146683   0.59486053    8.6965516    5.1985332   0.59486053    1.5004565 0.0030691151 0.0018111919 
   16100    4.0537749     4.922221     2.452839    11.428835     1.077779     2.452839    1.5030632 -0.00091670667 -0.0018995517 
   16200     4.947989    8.4491997   0.34600217    13.743191   -2.4491997   0.34600217    1.5056835 -0.0018634679 0.0023193627 
   16300     5.537536   0.54694585  0.076086271    6.1605681    5.4530542  0.076086271    1.5002434 0.0035846453 0.0028483143 
   16400    4.9189825    7.5401865    1.2166735    13.675842   -1.5401865    1.2166735     1.505674 -0.0018379067 0.00057800106 
   16500    8.3055964     5.611359   0.69917149    14.616127   0.38864104   0.69917149    1.5032136 -0.00020702031 0.0016080842 
   16600    7.0003896    5.1881012    4.1199824    16.308473   0.81189885    4.1199824    1.5034147 -0.002205389 -0.0052331354 
   16700    10.088273    4.9206372    2.7408476    17.749757    1.0793628    2.7408476    1.5033036 -0.0011076565 -0.0024750878 
   16800    9.3753084   0.72661594    1.4121513    11.514076    5.2733841    1.4121513    1.5003619 0.0025741552 0.0001764212 
   16900    3.8721832    3.5098949    1.2257796    8.6078577    2.4901051    1.2257796    1.5023226 0.00084288368 0.00055308609 
   17000    6.4717766    2.6640316   0.63375985    9.7695681    3.3359684   0.63375985    1.5019668 0.0018014724 0.0017364138 
   17100    10.019679    2.8967838   0.48086603    13.397329    3.1032162   0.48086603    1.5020652 0.0017482335 0.0020423984 
   17200    14.678668    5.3866871   0.37275007    20.438105   0.61331294   0.37275007    1.5032223 0.00016037525 0.0022609444 
   17300    8.6936486    11.739524   0.47908967    20.912262   -5.7395241   0.47908967    1.5081755 -0.0041457425 0.0020581717 
   17400     6.963929    6.0820577    1.1188635     14.16485 -0.082057746    1.1188635    1.5045744 -0.00080061419 0.00077142165 
   17500    2.9927966    7.5146228    7.4418929    17.949312   -1.5146228    7.4418929    1.5040106 -0.0059710104 -0.011875765 
   17600    7.8419972    6.1464515  0.014695464    14.003144  -0.14645146  0.014695464    1.5043424 -0.00010743128 0.0029792939 
   17700    4.7104154    5.8242711    1.7402626    12.274949   0.17572895    1.7402626    1.5042976 -0.0010430224 -0.00047192986 
   17800    4.9197478    1.8324686    0.8985058    7.6507223    4.1675314    0.8985058     1.500862 0.0021793504 0.0012047124 
   17900    6.1579451    4.9622076    1.1502167    12.270369    1.0377924    1.1502167    1.5039212 -7.4949529e-05 0.00070740896 
   18000    15.272675    5.5080995    1.2721342    22.052909   0.49190051    1.2721342    1.5035633 -0.00052015579 0.00046285821 
   18100     3.682516    1.7954611    5.1751132     10.65309    4.2045389    5.1751132    1.5014188 -0.00064704955 -0.0073473888 
   18200    7.9887354    3.7721117    3.1214072    14.882254    2.2278883    3.1214072    1.5029589 -0.00059567923 -0.0032368966 
   18300    15.414311    3.0998079   0.21142412    18.725543    2.9001921   0.21142412    1.5019633  0.001792512 0.0025810783 
   18400    8.5243831    5.6301094    1.3437986    15.498291   0.36989056    1.3437986    1.5031174 -0.00064927204 0.00031863748 
   18500    3.8609958    5.6205175    7.2230281    16.704541   0.37948247    7.2230281    1.5032727 -0.0045623638 -0.011439511 
   18600    2.6685828    4.2295421  0.054905754    6.9530306    1.7704579  0.054905754    1.5021502 0.0011437015  0.002894489 
   18700    7.0250551    5.2630701   0.80340811    13.091533   0.73692993   0.80340811    1.5029834 -4.4318785e-05 0.0013991506 
   18800    6.8395015    1.8638929    1.1436724    9.8470667    4.1361071    1.1436724    1.5010886 0.0019949565 0.0007148325 
   18900    3.0151046    3.8518806    4.2072098    11.074195    2.1481194    4.2072098    1.5029464 -0.0013727269 -0.0054085267 
   19000    1.3099806    3.4875995    9.4327149    14.230295    2.5124005    9.4327149    1.5018981 -0.004613543 -0.015861634 
   19100    7.0528539    7.7260865    1.2655313    16.044472   -1.7260865    1.2655313    1.5057048 -0.0019944119 0.00048034696 
   19200   0.65465608    7.0950009    20.484438    28.234095   -1.0950009    20.484438    1.5050629 -0.014386293 -0.037958751 
   19300    9.2543318    0.6566556    4.2037815    14.114769    5.3433444    4.2037815    1.5002978 0.00075970859 -0.0054069673 
   19400    12.281569    1.6339818    1.7322552    15.647806    4.3660182    1.7322552    1.5011417  0.001755842 -0.00046222699 
   19500     7.113103    8.1714904 0.0051890369    15.289782   -2.1714904 0.0051890369    1.5051293 -0.0014511197 0.0029998805 
   19600    9.0747594    5.2876914  0.041622952    14.404074   0.71230858  0.041622952    1.5029613 0.00044712375 0.0029226767 
   19700    4.4579003    4.2400746    4.7816527    13.479628    1.7599254    4.7816527    1.5019868 -0.0020144849 -0.0065593317 
   19800    7.4605877    2.5135572    2.3204135    12.294558    3.4864428    2.3204135    1.5013025 0.0007773529 -0.001638222 
   19900     4.908963    7.3160425   0.19270023    12.417706   -1.3160425   0.19270023    1.5052667 -0.0010058285  0.002625133 
   20000    7.8001995    2.6764934   0.22324921    10.699942    3.3235066   0.22324921    1.5015564 0.0020668382 0.0025566143 
   20100    3.1263821    3.3437089     4.395341    10.865432    2.6562911     4.395341    1.5022136 -0.0011593666 -0.0057862549 
   20200    2.6845398    5.7343361    1.4573642    9.8762401   0.26566392    1.4573642    1.5036128 -0.00079446686 9.2497114e-05 
   20300     4.571343    3.2429078   0.10830215    7.9225529    2.7570922   0.10830215    1.5023068   0.00176586 0.0027880093 
   20400    6.6815238    6.0416926   0.45184463    13.175061 -0.041692551   0.45184463    1.5042734 -0.00032902478 0.0021048576 
   20500    2.0501373    3.2830051    1.6442362    6.9773786    2.7169949    1.6442362    1.5024266 0.00071517249 -0.00028361918 
   20600    2.7410089    8.0356426   0.41527783    11.191929   -2.0356426   0.41527783    1.5056065 -0.001633947 0.0021806573 
   20700    3.3255713    3.1931155    0.2246003     6.743287    2.8068845    0.2246003     1.502329 0.0017215228 0.0025554573 
   20800    6.2645389    5.4824137    1.1056372     12.85259   0.51758631    1.1056372    1.5037549 -0.00039203394 0.0007962354 
   20900    13.507702    6.1757226    0.0790169    19.762441  -0.17572263    0.0790169    1.5043473 -0.00016982635 0.0028506608 
   21000    9.9312638    3.1044514  0.017580556    13.053296    2.8955486  0.017580556    1.5021862 0.0019186453 0.0029692113 
   21100      8.79376    1.3710683    2.3317024    12.496531    4.6289317    2.3317024    1.5010837 0.0015314862 -0.0016612374 
   21200    4.1087638    2.9084962    0.2584821    7.2757421    3.0915038    0.2584821     1.501754 0.0018886812 0.0024865438 
   21300     6.751128    1.7349767    1.9075376    10.393642    4.2650233    1.9075376    1.5008735 0.0015716571 -0.00081332814 
   21400    12.722615    2.8524252    1.8714761    17.446516    3.1475748    1.8714761    1.5020984 0.00085073242 -0.00073875554 
   21500    2.5721628     1.541245   0.10810847    4.2215163     4.458755   0.10810847    1.5012076  0.002900431 0.0027861982 
   21600    8.3152082    1.9712067   0.81583855    11.102253    4.0287933   0.81583855    1.5014696 0.0021419698 0.0013712621 
   21700    1.2452309    3.4156146  0.049447196    4.7102927    2.5843854  0.049447196    1.5023451 0.0016899588 0.0029057959 
   21800     4.350438      8.97287  0.020918064    13.344226     -2.97287  0.020918064     1.505883 -0.0019958587 0.0029699299 
   21900    5.0510804    3.3513162   0.21049781    8.6128943    2.6486838   0.21049781    1.5024343 0.0016254574 0.0025838729 
   22000    8.2367458    1.9869677 0.0037991173    10.227513    4.0130323 0.0037991173     1.501566 0.0026728221 0.0029955337 
   22100     5.108638    8.4591437    1.2587212    14.826503   -2.4591437    1.2587212    1.5062045 -0.0024785766 0.00049496651 
   22200    8.1653333    2.2366456    2.2297899    12.631769    3.7633544    2.2297899    1.5012218 0.0010223764 -0.0014571361 
   22300    2.1118358    2.3743207    1.2673727    5.7535292    3.6256793    1.2673727    1.5014774 0.0015722044 0.00046820941 
   22400     2.664249    3.6302787  0.019399285     6.313927    2.3697213  0.019399285     1.502393 0.0015668813 0.0029659875 
   22500    1.7268384    1.4786437  0.075015203    3.2804973    4.5213563  0.075015203    1.5007968 0.0029642274 0.0028515632 
   22600     3.343198    3.3753026  0.029409007    6.7479096    2.6246974  0.029409007    1.5026717 0.0017301923 0.0029465254 
   22700    6.5687736    7.3726183   0.87014322    14.811535   -1.3726183   0.87014322     1.503878 -0.0014951744 0.0012674696 
   22800    4.2640875    3.4606052    4.2213894    11.946082    2.5393948    4.2213894    1.5022586 -0.0011213297 -0.0054382615 
   22900    10.496667    2.2313154     3.260818      15.9888    3.7686846     3.260818     1.501482 0.00033857773 -0.0035186719 
   23000    9.5416004    7.9076536    1.3032734    18.752527   -1.9076536    1.3032734    1.5051366 -0.002140618 0.00040372643 
   23100    5.8562036    3.1309897  0.014575799    9.0017691    2.8690103  0.014575799    1.5018423 0.0019029564 0.0029745329 
   23200     11.57099     2.270935    2.0398826    15.881807     3.729065    2.0398826    1.5017887 0.0011261216 -0.0010761877 
   23300    6.0899442    2.5851473   0.24780479    8.9228962    3.4148527   0.24780479    1.5014535 0.0021113653 0.0025072973 
   23400    4.2478226    3.9355938    3.3399138     11.52333    2.0644062    3.3399138    1.5029684 -0.00085033838 -0.0036738909 
   23500    7.3971259   0.89693927   0.61350725    8.9075724    5.1030607   0.61350725    1.5005597 0.0029930357  0.001774105 
   23600    10.030961    4.9305633    1.0155198    15.977044    1.0694367    1.0155198    1.5026272 3.5944584e-05 0.00097421473 
   23700    1.9765718    2.1424306 0.0033370804    4.1223394    3.8575694 0.0033370804     1.501228 0.0025694882 0.0029957819 
   23800    6.9549407    2.7890558     0.902657    10.646653    3.2109442     0.902657    1.5020416 0.0015388582 0.0011987692 
   23900    1.4547813    2.0319004 0.0099980062    3.4966797    3.9680996 0.0099980062    1.5012839 0.0026387344 0.0029825718 
   24000     8.189522    4.1583418    5.0332786    17.381142    1.8416582    5.0332786    1.5024509 -0.002127747 -0.0070616554 
   24100    2.8279415    3.0659567    1.7020002    7.5958985    2.9340433    1.7020002    1.5022939 0.00082136203 -0.00039941271 
   24200    8.4441102    4.1462579    1.6142677    14.204636    1.8537421    1.6142677    1.5018301 0.00015964962 -0.00022487513 
   24300    4.0330453    1.1769718 0.0038357857    5.2138529    4.8230282 0.0038357857    1.5009224 0.0032127949 0.0029941733 
   24400    7.3228874    2.2765445    1.6121525    11.211584    3.7234555    1.6121525    1.5013233 0.0014075354 -0.00022165848 
   24500    2.4127516    3.8693791   0.95220758    7.2343383    2.1306209   0.95220758     1.502508 0.00078560888 0.0011006007 
   24600    9.6279247    5.3439843  0.010689528    14.982598   0.65601574  0.010689528    1.5042283 0.00043021747 0.0029870775 
   24700    6.7526128    6.2582454  0.038593344    13.049452  -0.25824538  0.038593344    1.5049248 -0.00019789248  0.002932663 
   24800     4.740242    3.0330322 0.0042417922     7.777516    2.9669678 0.0042417922    1.5020075 0.0019751507 0.0029955313 
   24900    14.143663    2.8708828   0.17758911    17.192135    3.1291172   0.17758911    1.5018611 0.0019676854  0.002648544 
   25000    15.966159     1.045329   0.32013667    17.331625     4.954671   0.32013667    1.5004927 0.0030896896  0.002360712 
   25100    8.0402848    2.6320106    4.5460287    15.218324    3.3679894    4.5460287    1.5011347 -0.00078535954 -0.0060897881 
   25200    12.032121    2.7610489   0.22143892    15.014609    3.2389511   0.22143892    1.5020109 0.0020116748  0.002561144 
   25300    6.1717461    2.5196235   0.25704733    8.9484169    3.4803765   0.25704733     1.501391 0.0021488861 0.0024886874 
   25400    9.5921168    1.6756429    1.2936277    12.561387    4.3243571    1.2936277    1.5007035 0.0020204863 0.00041415165 
   25500    2.9376076    3.2781623    1.3952386    7.6110085    2.7218377    1.3952386    1.5018363 0.00088439938 0.00021319541 
   25600     3.777912    3.1934554  0.002096892    6.9734643    2.8065446  0.002096892     1.501781 0.0018696318 0.0029993683 
   25700    6.6005622    4.2691426   0.31564884    11.185354    1.7308574   0.31564884    1.5033787 0.00094347234 0.0023754596 
   25800    6.6678279    6.8411864    1.8476902    15.356704   -0.8411864    1.8476902    1.5037102 -0.0017925844 -0.00068795994 
   25900   0.50685064    2.1912841    1.1089133     3.807048    3.8087159    1.1089133    1.5016247 0.0017998684 0.00078542287 
   26000     2.911047    10.619253  0.019235898    13.549536   -4.6192534  0.019235898     1.508241 -0.0030923262 0.0029780102 
   26100     6.005479    3.9385481   0.79585578    10.739883    2.0614519   0.79585578    1.5017408 0.00084373072   0.00141177 
   26200     9.298466    1.4186036   0.17409983    10.891169    4.5813964   0.17409983    1.5011206 0.0029381977 0.0026540416 
   26300    7.2481139    7.0208098   0.70587801    14.974802   -1.0208098   0.70587801    1.5044273 -0.0011511252 0.0015970985 
   26400    6.1090553    2.5675592    0.2444741    8.9210886    3.4324408    0.2444741    1.5014365 0.0021253111 0.0025139248 
   26500    7.8474753    8.6336286     1.222765    17.703869   -2.6336286     1.222765    1.5063593 -0.002570929 0.00056718854 
   26600    7.2498545    4.9603194  0.020554129    12.230728    1.0396806  0.020554129    1.5027702 0.00067941766 0.0029644321 
   26700    7.3361999    2.1581625  0.015398888    9.5097613    3.8418375  0.015398888    1.5016971 0.0025509591 0.0029725964 
   26800    5.9530314    6.2120938   0.10410956    12.269235  -0.21209381   0.10410956    1.5034668 -0.00021080225 0.0027987146 
   26900    4.1592382    4.6082638   0.04979057    8.8172926    1.3917362   0.04979057    1.5030705 0.00089463041 0.0029065599 
   27000    7.4882136    1.5196012   0.80045799    9.8082728    4.4803988   0.80045799    1.5009866 0.0024532939 0.0014010571 
   27100    1.8158409     3.128566    1.1551953    6.0996022     2.871434    1.1551953    1.5023475 0.0011441591 0.00069430444 
   27200     0.524764    7.4271893  0.036083575    7.9880369   -1.4271893  0.036083575    1.5037888 -0.00097551527 0.0029354104 
   27300    10.061811    6.7777454 0.0084049388    16.847962  -0.77774544 0.0084049388    1.5046119 -0.00052410025  0.002992414 
   27400    6.5061421      7.84455  0.011531325    14.362223     -1.84455  0.011531325    1.5050661 -0.0012373876 0.0029870696 
   27500    6.1499344    1.2803142    1.0828301    8.5130787    4.7196858    1.0828301    1.5008355 0.0024245705 0.00083601073 
   27600    6.9998556    1.4797152  0.062784615    8.5423554    4.5202848  0.062784615    1.5010648 0.0029716668 0.0028765604 
   27700    3.2228787     10.05828    2.0925343    15.373693   -4.0582803    2.0925343    1.5073288 -0.0041005431 -0.0011704109 
   27800    4.3086948    7.3863087   0.90648519    12.601489   -1.3863087   0.90648519    1.5052022 -0.0015285292 0.0011974341 
   27900    15.252978    1.8337783    2.8446333    19.931389    4.1662217    2.8446333    1.5011134 0.00088105896 -0.0026870397 
   28000    10.318551    1.5980148   0.19280947    12.109376    4.4019852   0.19280947    1.5008594 0.0028061171 0.0026160999 
   28100    5.3965465    5.8660679   0.40538354    11.667998   0.13393211   0.40538354    1.5036223 -0.00018096762 0.0021964775 
   28200    6.6963017    1.2191105   0.61163372    8.5270459    4.7808895   0.61163372    1.5005708 0.0027795039 0.0017778742 
   28300    2.9447541    3.6879996    1.5686309    8.2013846    2.3120004    1.5686309    1.5028083 0.00049557967 -0.00013164529 
   28400    2.8062862    5.2186982   0.76404634    8.7890307   0.78130177   0.76404634    1.5036013 1.1503619e-05 0.0014791099 
   28500    6.4841915    6.1289346  0.058111601    12.671238  -0.12893461  0.058111601    1.5040593 -0.00012469747 0.0028918954 
   28600    3.1459075    1.0118664  0.000874467    4.1586484    4.9881336  0.000874467    1.5007062 0.0033248394 0.0029996636 
   28700    5.5423927    4.7769053    1.1907176    11.510016    1.2230947    1.1907176    1.5034638 2.1584762e-05 0.00062549243 
   28800    7.3702895    3.1356313 0.0029939814    10.508915    2.8643687 0.0029939814     1.502312 0.0019075831 0.0029986361 
   28900    6.3741259    8.4648016    1.0615883    15.900516   -2.4648016    1.0615883    1.5047746 -0.0023509266 0.00088637273 
   29000    4.5297477    3.0476612   0.50796278    8.0853717    2.9523388   0.50796278    1.5013911  0.001629584 0.0019868567 
   29100    3.6402509       2.8856     0.105888    6.6317389       3.1144     0.105888    1.5020838 0.0020056747 0.0027923915 
   29200     9.572857    5.5895918   0.66720965    15.829658   0.41040823   0.66720965    1.5044052 -0.00017120095 0.0016743911 
   29300    8.7996801    5.0357675   0.46494119    14.300389   0.96423252   0.46494119    1.5038922 0.00033286089 0.0020779019 
   29400     18.88354    1.2353032  0.076348194    20.195191    4.7646968  0.076348194    1.5008748 0.0031255657 0.0028490532 
   29500    1.6462595    5.6441575    1.3022805    8.5926975   0.35584247    1.3022805    1.5036464 -0.00063095871 0.00040273171 
   29600    3.5104873    8.9070086   0.26486446     12.68236   -2.9070086   0.26486446    1.5048767 -0.0021145821 0.0024800246 
   29700   0.37678908    6.5605432   0.44057891    7.3779112  -0.56054323   0.44057891    1.5036648 -0.00066741476 0.0021261718 
   29800    6.2217631    5.4687142    11.783703     23.47418    0.5312858    11.783703    1.5025659 -0.0075016113 -0.020562274 
   29900    2.5838603    3.5509776   0.43982507    6.5746629    2.4490224   0.43982507    1.5023756 0.0013394649 0.0021251011 
   30000    6.0452856    5.4557475   0.26212146    11.763155   0.54425254   0.26212146    1.5037865 0.00018808738 0.0024833302 
   30100    7.1695879     6.674363    1.1118502    14.955801  -0.67436303    1.1118502     1.504261 -0.0011908088 0.00078482176 
   30200    7.3655498    1.7629828   0.61076738       9.7393    4.2370172   0.61076738    1.5008955 0.0024174999 0.0017802562 
   30300    4.8063083    7.7086574    1.4144785    13.929444   -1.7086574    1.4144785    1.5046978 -0.0020820906 0.00018043858 
   30400    6.0597586    2.9756002    3.3062631    12.341622    3.0243998    3.3062631    1.5015361 -0.00018790887 -0.003609454 
   30500    3.6170791    2.9083169    0.2557796    6.7811756    3.0916831    0.2557796    1.5012756 0.0018906024 0.0024909919 
   30600    5.1134387    13.189623  0.073728019     18.37679   -7.1896229  0.073728019    1.5093722 -0.004842234 0.0028712883 
   30700    3.7872543    10.195567    2.2650433    16.247864   -4.1955666    2.2650433    1.5069464 -0.0043070733 -0.0015161938 
   30800    9.4959688    5.5535373   0.30421972    15.353726   0.44646273   0.30421972    1.5036595 9.4828675e-05 0.0023988796 
   30900    7.1161417    3.3933691   0.72976328    11.239274    2.6066309   0.72976328    1.5021253 0.0012512451  0.001544724 
   31000    8.3631064    4.9407778   0.57058033    13.874464    1.0592222   0.57058033     1.503295 0.00032576127 0.0018654294 
   31100    5.6058488    2.4268273    7.5832652    15.615941    3.5731727    7.5832652     1.501159 -0.002673395 -0.012164213 
   31200      2.36951    3.3846982    1.1125815    6.8667897    2.6153018    1.1125815    1.5024765 0.0010018135 0.00077979015 
   31300    10.903335    6.4439998   0.80510124    18.152436  -0.44399976   0.80510124    1.5044306 -0.000832734 0.0013986587 
   31400     13.68728    4.4905314    1.1745882    19.352399    1.5094686    1.1745882    1.5035238 0.0002232536 0.00065787128 
   31500    4.3722607    4.1013278  0.034295506     8.507884    1.8986722  0.034295506    1.5025073 0.0012429178 0.0029364235 
   31600    4.8588888    6.8514026  0.005023032    11.715314  -0.85140262  0.005023032    1.5044327 -0.00057095043 0.0029988193 
   31700    4.0881582    3.5171821    1.3410159    8.9463561    2.4828179    1.3410159    1.5021776 0.00076120136 0.00032232351 
   31800    3.7110773    2.3212482   0.10209375    6.1344193    3.6787518   0.10209375     1.501192 0.0023844387 0.0027981966 
   31900    12.930573    12.754704    2.0202872    27.705564   -6.7547044    2.0202872    1.5100462 -0.0058499944 -0.0010204822 
   32000    19.561018    1.1279203   0.13722514    20.826164    4.8720797   0.13722514    1.5008868 0.0031565697 0.0027273233 
   32100    2.7102598    2.6087152   0.49359555    5.8125706    3.3912848   0.49359555    1.5019538 0.0019317928 0.0020167165 
   32200    7.0082336    5.9554701   0.09471526    13.058419  0.044529873   0.09471526    1.5046183 -3.3456924e-05  0.002819806 
   32300    13.272791    1.6591196  0.020401224    14.952312    4.3408804  0.020401224     1.500778 0.0028803194 0.0029607535 
   32400    5.3912665    4.2032205  0.014772617    9.6092596    1.7967795  0.014772617     1.502294 0.0011880046 0.0029750429 
   32500    2.8933749    3.0030842    4.7763284    10.672788    2.9969158    4.7763284    1.5019227 -0.0011862751 -0.0065488115 
   32600    6.7444499    3.0274198    1.4743899     11.24626    2.9725802    1.4743899    1.5022007 0.00099879353 5.5621606e-05 
   32700    7.9430514    6.2702061   0.19274198    14.405999  -0.27020606   0.19274198    1.5044695 -0.00030863202  0.002623455 
   32800     4.498058    4.6988303   0.21589489    9.4127832    1.3011697   0.21589489    1.5037186 0.00072351654 0.0025756475 
   32900    3.5128444    4.4096426  0.011822979      7.93431    1.5903574  0.011822979    1.5028531 0.0010523563 0.0029820603 
   33000    11.077648    2.3294242  0.023392942    13.430465    3.6705758  0.023392942    1.5017961 0.0024314552 0.0029568062 
   33100    5.3202067    5.7741131   0.26074109    11.355061   0.22588693   0.26074109    1.5039967 -2.3236104e-05 0.0024865112 
   33200    5.3418811    7.1395589    2.9243796     15.40582   -1.1395589    2.9243796    1.5044804 -0.0027092924 -0.0028397984 
   33300    6.0351687    5.1008515  0.064731349    11.200752   0.89914846  0.064731349    1.5028686 0.00055627807 0.0028762745 
   33400    3.5064474    3.2579371   0.01512175    6.7795063    2.7420629   0.01512175    1.5024243 0.0018179607 0.0029746051 
   33500    2.9989423    4.4409714      4.42332    11.863234    1.5590286      4.42332    1.5031151 -0.0019095276 -0.0058404098 
   33600    7.5510168    4.2513419 0.0053924032    11.807751    1.7486581 0.0053924032    1.5033103 0.0011621771 0.0029958358 
   33700    1.8718631    2.0055561    1.3046454    5.1820645    3.9944439    1.3046454    1.5013004  0.001793199 0.00039331017 
   33800    12.728384       2.9381  0.061280856    15.727765       3.0619  0.061280856    1.5023256 0.0020004127 0.0028820894 
   33900    2.7297637    3.5901337  0.076971994    6.3968694    2.4098663  0.076971994    1.5028151 0.0015552629 0.0028516862 
   34000    4.2869265    3.5815521     2.453584    10.322063    2.4184479     2.453584    1.5024809 -2.3424083e-05 -0.0019022063 
   34100    4.4114244    5.0561026   0.61244851    10.079975    0.9438974   0.61244851    1.5039142 0.00022096593 0.0017829314 
   34200    6.9009971     4.143685   0.73959483    11.784277     1.856315   0.73959483    1.5030378 0.00074448011 0.0015268859 
   34300     5.176071    5.9312093    1.1517781    12.259058  0.068790684    1.1517781    1.5041569 -0.00072199161 0.00070475758 
   34400    2.1969746    3.3898455    0.1066692    5.6934894    2.6101545    0.1066692    1.5020954 0.0016689902 0.0027908523 
   34500    11.105151   0.40360193    1.7290093    13.237763    5.5963981    1.7290093    1.5003004 0.0025782592 -0.00045741763 
   34600    2.5787854    3.4034553  0.054547284    6.0367879    2.5965447  0.054547284    1.5023295  0.001694665 0.0028955644 
   34700    9.9133676    8.3584502    1.8279443    20.099762   -2.3584502    1.8279443    1.5065025 -0.0027909297 -0.00064288361 
   34800    8.9161126    4.7997281    3.3798903    17.095731    1.2002719    3.3798903    1.5037863 -0.0014530789 -0.003752208 
   34900    15.255283    4.0725468    6.9604525    26.288282    1.9274532    6.9604525    1.5022227 -0.0033553329  -0.01091646 
   35000    2.8452589    2.8128703   0.15625631    5.8143855    3.1871297   0.15625631    1.5021626 0.0020205823 0.0026918125 
   35100    3.8404997    12.421712   0.21037294    16.472585    -6.421712   0.21037294    1.5095825  -0.00442139 0.0025984191 
   35200     9.559331   0.55397293  0.013345973     10.12665    5.4460271  0.013345973    1.5004066 0.0036217874 0.0029741213 
   35300    8.1634602    7.9445177    4.6569033    20.764881   -1.9445177    4.6569033    1.5057793 -0.0044009473 -0.0063022479 
   35400    7.8083997    4.5142152    0.1805422    12.503157    1.4857848    0.1805422    1.5033973 0.00087016176 0.0026457102 
   35500    7.5707075    10.871495    4.2208016    22.663004   -4.8714948    4.2208016    1.5077849 -0.006061531 -0.0054260335 
   35600    4.5585588    10.027211  0.019915855    14.605686   -4.0272112  0.019915855    1.5054805 -0.0026980847 0.0029711292 
   35700    4.3532902    9.3557301    1.9724871    15.681507   -3.3557301    1.9724871    1.5061452 -0.0035521448 -0.00093268387 
   35800    8.6236766    7.0257532    5.2845091    20.933939   -1.0257532    5.2845091    1.5042665 -0.0042068415 -0.0075604852 
   35900    4.0111493     6.346206    6.9094845     17.26684    -0.346206    6.9094845    1.5050181 -0.004837127 -0.010808933 
   36000    8.5515512    3.4681882    0.3742219    12.393961    2.5318118    0.3742219    1.5023863 0.0014383933 0.0022563288 
   36100    6.0430593    4.6203753  0.033716882    10.697151    1.3796247  0.033716882    1.5030829 0.0008972719  0.002938732 
   36200    4.9246177    3.1936973 0.0061261122    8.1244411    2.8063027 0.0061261122     1.502266 0.0018667844 0.0029922797 
   36300     9.451015    8.0182859   0.41103505    17.880336   -2.0182859   0.41103505    1.5054256 -0.0016195473 0.0021887812 
   36400    5.2366644   0.75704505  0.066937461    6.0606469     5.242955  0.066937461    1.5004813 0.0034506783 0.0028670877 
   36500    2.9039918    4.2184271   0.72258704    7.8450059    1.7815729   0.72258704    1.5030431 0.0007059906 0.0015609121 
   36600    6.1127808    2.8985827    1.6444558    10.655819    3.1014173    1.6444558      1.50228 0.0009713077 -0.00028435152 
   36700    6.7709907    3.4716794    2.2738235    12.516494    2.5283206    2.2738235    1.5018497 0.00016966474 -0.0015439474 
   36800    5.3422977    3.6650566   0.10527244    9.1126267    2.3349434   0.10527244    1.5023222 0.0014864473 0.0027940995 
   36900    2.9176368    6.0626325    3.4494525    12.429722 -0.062632535    3.4494525    1.5038432  -0.00234139 -0.0038912185 
   37000    7.5546463    6.9881072  0.055550713    14.598304  -0.98810721  0.055550713    1.5041959 -0.00069577195 0.0028972905 
   37100    4.7554896    7.8845071    1.4440088    14.084005   -1.8845071    1.4440088    1.5051854 -0.0022190106 0.00012235318 
   37200     5.036607    11.027012   0.51398371    16.577603   -5.0270121   0.51398371    1.5062498 -0.0036939972 0.0019845323 
   37300    4.8119794    3.8088063     1.175355    9.7961407    2.1911937     1.175355    1.5021289 0.0006772258 0.00065354784 
   37400    12.080347    1.3330619    5.1831044    18.596513    4.6669381    5.1831044    1.5009407 -0.00034411085 -0.0073643273 
   37500    3.5732752    9.2536353    1.0277459    13.854657   -3.2536353    1.0277459    1.5054849 -0.0028542542 0.00095547791 
   37600    2.9330614    7.5196502     3.229792    13.682504   -1.5196502     3.229792    1.5043652 -0.0031662948 -0.0034508536 
   37700    9.1522116    1.1199027  0.009506611    10.281621    4.8800973  0.009506611     1.500886 0.0032470604 0.0029827587 
   37800    9.7908708    2.3252529 0.0017124024    12.117836    3.6747471 0.0017124024      1.50168 0.0024486898 0.0029999352 
   37900    3.2107669     8.090704  0.066545768    11.368017    -2.090704  0.066545768    1.5051215 -0.0014381665 0.0028771515 
   38000    5.2172932    6.6286631   0.26235287    12.108309  -0.62866311   0.26235287    1.5041089 -0.00059401066 0.0024835121 
   38100    4.3153624     2.537143   0.12557674    6.9780822     3.462857   0.12557674    1.5013188 0.0022248535 0.0027514842 
   38200    1.4309783    8.0561916    1.5536301      11.0408   -2.0561916    1.5536301    1.5043265 -0.0024065478 -9.8607144e-05 
   38300    3.9320129    4.1286941 0.0098355018    8.0705425    1.8713059 0.0098355018    1.5029144 0.0012409802 0.0029861579 
   38400    9.7686392    1.1243081   0.73527868    11.628226    4.8756919   0.73527868     1.500711 0.0027602755 0.0015308647 
   38500    5.8305919    5.2859796   0.69571464    11.812286   0.71402039   0.69571464    1.5041179 1.2203839e-05 0.0016168065 
   38600    4.9789078    3.1822851  0.064810403    8.2260033    2.8177149  0.064810403     1.502012 0.0018352697 0.0028744033 
   38700    6.4762283    11.516845    3.3680578    21.361131   -5.5168454    3.3680578     1.508774 -0.0059232688 -0.0037185676 
   38800     5.767999    4.0680194  0.071558612     9.907577    1.9319806  0.071558612    1.5027268 0.0012402813 0.0028623364 
   38900    2.1741618    5.7070846   0.70490197    8.5861484   0.29291536   0.70490197     1.503842 -0.00027465774 0.0015978801 
   39000    9.2255374     5.443342   0.23306828    14.901948   0.55665804   0.23306828    1.5041237 0.00021572651 0.0025421107 
   39100    9.2461032    2.6660461  0.035992844    11.948142    3.3339539  0.035992844    1.5019316 0.0021986407 0.0029318776 
   39200     16.64882    3.1062842    4.2420004    23.997105    2.8937158    4.2420004     1.502419 -0.00089885641 -0.0054791628 
   39300    2.4685619    7.0911016   0.64822142    10.207885   -1.0911016   0.64822142    1.5050481 -0.0011595487 0.0017136533 
   39400    1.1051741    6.1698811  0.035550085    7.3106053  -0.16988113  0.035550085    1.5031532 -0.00013695414 0.0029352062 
   39500    4.2661302    6.9323848  0.024778267    11.223293  -0.93238481  0.024778267    1.5036133 -0.00063810872 0.0029576701 
   39600    6.3667413    1.0455478    2.2155256    9.6278147    4.9544522    2.2155256    1.5006957 0.0018259511 -0.0014296598 
   39700   0.99558777    4.1902199    1.7117076    6.8975153    1.8097801    1.7117076    1.5028689 6.5381642e-05 -0.0004176774 
   39800    8.1960426    2.4714624    3.6922184    14.359723    3.5285376    3.6922184    1.5018759 -0.00010912052 -0.0043806849 
   39900    7.6676591    3.2547327    4.4112305    15.333622    2.7452673    4.4112305    1.5025446 -0.0011106421 -0.0058173718 
   40000    19.076261    1.6695724    1.6733798    22.419214    4.3304276    1.6733798    1.5006989 0.0017713651 -0.00034536186 
   40100    12.060118    4.4812621   0.46463502    17.006015    1.5187379   0.46463502    1.5034493 0.00070273528 0.0020776286 
   40200    5.0110842    3.5889881    2.7602754    11.360348    2.4110119    2.7602754    1.5016419 -0.00023284233 -0.002517267 
   40300    2.8201729   0.39360839     1.631122    4.8449033    5.6063916     1.631122    1.5002657 0.0026501797 -0.00026171261 
   40400    3.7283777    2.6261424  0.023821881     6.378342    3.3738576  0.023821881    1.5018214 0.0022333571 0.0029559989 
   40500    2.9784937    2.1368875  0.069918474    5.1852997    3.8631125  0.069918474    1.5012743  0.002528796 0.0028627116 
   40600    2.9311096    6.2627361    1.2988114    10.492657  -0.26273607    1.2988114    1.5046767 -0.0010410316 0.00041173059 
   40700    12.230551    3.6288492   0.65364308    16.513044    2.3711508   0.65364308    1.5023599 0.0011450052 0.0016974337 
   40800    10.559997    2.3824833   0.38180322    13.324283    3.6175167   0.38180322    1.5017167 0.0021571423  0.002239827 
   40900    8.2384951    5.7607562   0.83131022    14.830562   0.23924382   0.83131022    1.5042398 -0.00039471093 0.0013458592 
   41000    2.0468052     3.936561   0.25383599    6.2372022     2.063439   0.25383599    1.5021687  0.001206402 0.0024966655 
   41100    8.0187901    4.5371589   0.51171012    13.067659    1.4628411   0.51171012     1.502714 0.00063408733 0.0019820077 
   41200    4.3334389    4.1084315   0.29751938    8.7393899    1.8915685   0.29751938    1.5031602 0.0010626994 0.0024112816 
   41300    7.1508394    3.9013136  0.065992315    11.118145    2.0986864  0.065992315    1.5030838 0.0013551294  0.002874183 
   41400    19.753131    5.3710417   0.16401344    25.288186   0.62895834   0.16401344    1.5041941 0.00030996326 0.0026803613 
   41500    6.0302956    8.2730127    0.4486518     14.75196   -2.2730127    0.4486518    1.5058523 -0.001814443  0.002114401 
   41600    5.4078577    10.003609   0.18300837    15.594475    -4.003609   0.18300837    1.5073056 -0.0027910782 0.0026485945 
   41700    4.9909455    10.167923    2.7494538    17.908322   -4.1679227    2.7494538    1.5069198 -0.0046115843 -0.0024850679 
   41800    3.9522979    1.6430469   0.95060054    6.5459454    4.3569531   0.95060054    1.5012791 0.0022709017 0.0011013571 
   41900    15.713083    8.7515644    0.3359671    24.800614   -2.7515644    0.3359671      1.50627 -0.0020583543 0.0023406058 
   42000    8.5875017    1.7695734 0.0040189725    10.361094    4.2304266 0.0040189725    1.5012272 0.0028176051 0.0029944165 
   42100    1.4301585    3.9807645    1.1558535    6.5667766    2.0192355    1.1558535    1.5024725 0.00057558794 0.00069323788 
   42200    6.3101304    8.4685959   0.23243301    15.011159   -2.4685959   0.23243301    1.5062902 -0.0018006859 0.0025477145 
   42300    6.2658682    5.7739018    1.1132049    13.152975   0.22609821    1.1132049    1.5031528 -0.00059140446 0.0007798959 
   42400    5.7353027    3.8281502   0.04356722    9.6070201    2.1718498   0.04356722    1.5022213 0.0014188551 0.0029173081 
   42500    1.5050458    4.1968348     6.805443    12.507324    1.8031652     6.805443     1.502916 -0.0033348518 -0.010605054 
   42600    5.3826561     8.665589 0.0042830505    14.052528    -2.665589 0.0042830505    1.5042753 -0.0017799147 0.0029999844 
   42700    8.1793627    2.5294272   0.51487589    11.223666    3.4705728   0.51487589    1.5017314 0.0019704646 0.0019737109 
   42800    3.9067452    2.7050974    2.9994638    9.6113063    3.2949026    2.9994638    1.5019346 0.00019695922 -0.0029950584 
   42900    3.0591415    2.9253095  0.056706377    6.0411574    3.0746905  0.056706377    1.5022397 0.0020119894 0.0028910667 
   43000    12.687002    3.5866131 0.0086095461    16.282225    2.4133869 0.0086095461    1.5026599 0.0016031849 0.0029881007 
   43100    10.368409     6.539086    1.3811091    18.288604  -0.53908596    1.3811091    1.5038631 -0.0012801301 0.00024550782 
   43200    6.2678045    4.7300567   0.59848454    11.596346    1.2699433   0.59848454    1.5037258 0.00044763918 0.0018104826 
   43300    2.6836882    5.7027672  0.098115742    8.4845711   0.29723281  0.098115742    1.5042248 0.00013274471  0.002812218 
   43400    3.8420831     3.252456   0.77199649    7.8665356     2.747544   0.77199649    1.5016577 0.0013170317 0.0014593223 
   43500    1.3254118    2.3610123    1.1952815    4.8817055    3.6389877    1.1952815    1.5011047 0.0016291375 0.00061164645 
   43600    5.6264507    2.7349593  0.024431125    8.3858411    3.2650407  0.024431125     1.501303 0.0021604064 0.0029537438 
   43700    10.979769    2.7568986   0.98192883    14.718596    3.2431014   0.98192883    1.5021355 0.0015074484 0.0010404133 
   43800    6.7028311    4.7016226    5.5715729    16.976027    1.2983774    5.5715729    1.5030075 -0.002848797 -0.0081371308 
   43900    8.9434735    1.8000212    1.3238879    12.067383    4.1999788    1.3238879    1.5014215 0.0019173939 0.00035506712 
   44000    5.4024159    2.8537874   0.42386953    8.6800728    3.1462126   0.42386953    1.5020241 0.0018148954 0.0021563092 
   44100    2.6324014    4.2110803   0.79683962    7.6403214    1.7889197   0.79683962    1.5024568 0.00066138669 0.0014112345 
   44200    1.8463906    7.4570137   0.02294063     9.326345   -1.4570137   0.02294063    1.5052373 -0.00098663624 0.0029645934 
   44300    12.255499     11.11308  0.029956005    23.398535   -5.1130803  0.029956005     1.508052 -0.0034286909  0.002956192 
   44400    3.0578971    4.2089645    1.2468154     8.513677    1.7910355    1.2468154    1.5029411 0.00036281341 0.00051225133 
   44500    4.0099396    2.3616024    3.9125751    10.284117    3.6383976    3.9125751    1.5009545 -0.00018278501 -0.0048232412 
   44600    7.6565596    2.0347582  0.037973722    9.7292915    3.9652418  0.037973722    1.5012657 0.0026181787  0.002926584 
   44700    8.8991445    6.9995782    1.3396534    17.238376   -0.9995782    1.3396534    1.5038034 -0.0015594877 0.00032829987 
   44800    7.0851912    3.4517219   0.28459588    10.821509    2.5482781   0.28459588    1.5026107 0.0015091215 0.0024360296 
   44900    9.4711834    4.3128317  0.024659514    13.808675    1.6871683  0.024659514    1.5031397 0.0011083392 0.0029569604 
   45000    1.0180297    1.1115189   0.24818072    2.3777293    4.8884811   0.24818072    1.5006291 0.0030935336 0.0025048968 
   45100    10.998071   0.43523895   0.51783159    11.951142     5.564761   0.51783159    1.5003414 0.0033646196 0.0019650195 
   45200      3.78324     6.990511   0.66053452    11.434286  -0.99051099   0.66053452    1.5046791 -0.001100697 0.0016882892 
   45300    1.8173514    3.3542936 0.0045691563    5.1762142    2.6457064 0.0045691563    1.5023691 0.0017607582 0.0029955999 
   45400    1.5081943    7.1296288  0.029932422    8.6677556   -1.1296288  0.029932422    1.5044125 -0.00077304083 0.0029489602 
   45500    3.9686755    3.7332026    3.8611576    11.563036    2.2667974    3.8611576    1.5021437 -0.0010629068 -0.0047180279 
   45600    14.318854    3.4784189    1.1900181    18.987291    2.5215811    1.1900181     1.502191 0.0008877087 0.00062434585 
   45700    3.6207557    2.5612453   0.52580603    6.7078071    3.4387547   0.52580603    1.5015358 0.0019419658 0.0019514595 
   45800   0.84166657    2.7602251    8.4242154    12.026107    3.2397749    8.4242154    1.5021039 -0.0034562936 -0.013844223 
   45900    4.3980684    3.9018399   0.71605483    9.0159631    2.0981601   0.71605483    1.5026768 0.0009214035 0.0015732439 
   46000    6.2778041    1.3206263    1.2819947     8.880425    4.6793737    1.2819947    1.5009219 0.0022649194 0.00043785441 
   46100    2.6120985    7.0282027    6.3311225    15.971424   -1.0282027    6.3311225    1.5035073 -0.0049062168 -0.0096552305 
   46200    4.6764643   0.85452888   0.89693091    6.4279241    5.1454711   0.89693091    1.5006575 0.0028323601 0.0012074531 
   46300    13.258433    3.2143941   0.18124676    16.654074    2.7856059   0.18124676    1.5025367 0.0017362394 0.0026425799 
   46400    2.4834874    7.8824744   0.48086777     10.84683   -1.8824744   0.48086777    1.5048623 -0.0015755615  0.002047989 
   46500    7.4699766    10.347722    0.7278828    18.545581   -4.3477218    0.7278828    1.5057014 -0.0033837364 0.0015556373 
   46600    5.3357359    7.9771164    1.2707307    14.583583   -1.9771164    1.2707307    1.5054113 -0.0021652314 0.00046936115 
   46700    6.6737927    4.8173423  0.028313111    11.519448    1.1826577  0.028313111    1.5033784 0.00076956304 0.0029501306 
   46800    6.8934484    4.0049527   0.65631558    11.554717    1.9950473   0.65631558    1.5019596 0.00089248784 0.0016912881 
   46900    1.6004473     2.587052  0.025631012    4.2131303     3.412948  0.025631012    1.5016468 0.0022582113 0.0029520316 
   47000    7.1895067    7.2345875   0.67904536     15.10314   -1.2345875   0.67904536     1.504425 -0.0012757552 0.0016507594 
   47100    1.5644721    4.9253783    1.0411279    7.5309783    1.0746217    1.0411279    1.5035867 2.2329163e-05 0.00092491748 
   47200    1.2383121    7.3849174    0.7283347    9.3515642   -1.3849174    0.7283347    1.5045566 -0.0014088347 0.0015524438 
   47300    7.4090211    7.2968658 0.0055624425    14.711449   -1.2968658 0.0055624425    1.5036317 -0.00086828551 0.0029961385 
   47400    3.8304697    6.1363329    2.4900941    12.456897  -0.13633295    2.4900941    1.5040288 -0.0017509514 -0.0019721306 
   47500    3.1015094    10.074623   0.74398335    13.920115   -4.0746227   0.74398335    1.5072325 -0.003212404 0.0015264982 
   47600     3.633058   0.91110633   0.48407521    5.0282396    5.0888937   0.48407521    1.5003874  0.003069879 0.0020326244 
   47700    7.5711794    6.6749183    0.0152327     14.26133  -0.67491828    0.0152327    1.5050994 -0.00046010065 0.0029797333 
   47800     18.49267    3.6335297   0.15025921    22.276459    2.3664703   0.15025921    1.5028442  0.001477474   0.00270517 
   47900    2.6824365    3.8249711    4.3530399    10.860448    2.1750289    4.3530399    1.5025251 -0.0014520073 -0.0057010297 
   48000    9.2880525    2.5377528    1.0144833    12.840289    3.4622472    1.0144833    1.5012425 0.0016318426 0.00097351853 
   48100    5.1042741   0.96667253    3.7027389    9.7736855    5.0333275    3.7027389    1.5007084 0.00088705906 -0.0044040609 
   48200    6.3498854    1.2072676    1.8442995    9.4014525    4.7927324    1.8442995    1.5009505 0.0019656219 -0.00068669791 
   48300    3.5718484   0.80765714  0.011464449    4.3909699    5.1923429  0.011464449    1.5006203 0.0034539189 0.0029783117 
   48400    6.0512117    3.5087755   0.84497146    10.404959    2.4912245   0.84497146    1.5026442 0.0010975021 0.0013153454 
   48500    4.4051752    2.5862529    4.1049519     11.09638    3.4137471    4.1049519    1.5018569 -0.00046080316 -0.0052061899 
   48600    6.3067111    3.0892046    3.1043001    12.500216    2.9107954    3.1043001    1.5017381 -0.00012900309 -0.0032051239 
   48700    3.8760108    5.4230344     1.675283    10.974328   0.57696557     1.675283    1.5036562 -0.00073221159 -0.00034325361 
   48800    5.3816819     5.404949   0.70813679    11.494768   0.59505098   0.70813679    1.5031251 -7.5390542e-05 0.0015899766 
   48900    4.5432792    3.7015222    2.1301859    10.374987    2.2984778    2.1301859     1.502364 0.0001121946 -0.0012556438 
   49000    7.9559606    9.6875747   0.30585963    17.949395   -3.6875747   0.30585963    1.5058158 -0.0026622895 0.0023999123 
   49100     7.285276    4.3345911 0.0037340447    11.623601    1.6654089 0.0037340447    1.5033208 0.0011077832 0.0029991735 
   49200    5.4084472    6.2546289   0.49580933    12.158885  -0.25462886   0.49580933    1.5044688 -0.00050029213  0.002017319 
   49300    6.4209921    3.5575837   0.76628455     10.74486    2.4424163   0.76628455    1.5026993 0.0011174211 0.0014728295 
   49400    8.5614033    11.729759    1.3868409    21.678004   -5.7297594    1.3868409    1.5071936 -0.0047444003 0.0002407053 
   49500    13.458134    6.8411396    3.1183485    23.417622  -0.84113958    3.1183485    1.5046636 -0.0026396587 -0.0032273698 
   49600    9.5307116    8.4935878    3.0476557    21.071955   -2.4935878    3.0476557    1.5052205 -0.0036941623 -0.0030848704 
   49700    7.5146107    1.2287586    6.5389448    15.282314    4.7712414    6.5389448    1.5006134 -0.0011784689 -0.010076663 
   49800    7.0616529    2.9736962    1.1259319    11.161281    3.0263038    1.1259319     1.501649 0.0012669146 0.00075143413 
   49900    4.6318113    2.3713744   0.27146907    7.2746548    3.6286256   0.27146907    1.5014284 0.0022381043 0.0024599187 
   50000    4.2609163    3.3287318    1.9103812    9.5000292    2.6712682    1.9103812    1.5019509 0.00050725805 -0.00081686055 
   50100    7.5424743    1.8197478    1.2080709    10.570293    4.1802522    1.2080709    1.5014257 0.0019814542 0.00058670966 
   50200    8.9811545     7.502087    3.2334572    19.716699    -1.502087    3.2334572    1.5031318 -0.0031570295 -0.0034606508 
   50300    6.1038813     3.596157    3.5069051    13.206943     2.403843    3.5069051    1.5024574 -0.00073537472 -0.0040088954 
   50400    8.3231925    1.1984422  0.042244873    9.5638796    4.8015578  0.042244873    1.5005933 0.0031728753 0.0029166968 
   50500    3.6083008    11.857446    1.7161667    17.181914   -5.8574462    1.7161667    1.5087968 -0.0050490753 -0.0004147398 
   50600    4.2102672    9.4116662  0.075821763    13.697755   -3.4116662  0.075821763    1.5049636 -0.002324992 0.0028582836 
   50700    5.0483569    3.4407379    1.6946019    10.183697    2.5592621    1.6946019    1.5020917 0.00057644009 -0.00038502043 
   50800    10.677836   0.89310841  0.029487998    11.600432    5.1068916  0.029487998    1.5004348 0.0033849357 0.0029418937 
   50900    1.8706131    7.4970439    1.3846452    10.752302   -1.4970439    1.3846452    1.5050885 -0.0019211261 0.00024088654 
   51000   0.72097699    4.1774815   0.96668429    5.8651428    1.8225185   0.96668429    1.5031753 0.00057055612  0.001072982 
   51100    3.5475631    3.0545798   0.60484531    7.2069882    2.9454202   0.60484531    1.5015886 0.0015603833 0.0017934865 
   51200    14.702456    2.6685881   0.30578731    17.676831    3.3314119   0.30578731    1.5012593 0.0020170831 0.0023909439 
   51300        6.798    3.6589969   0.13941208    10.596409    2.3410031   0.13941208    1.5026859 0.0014677273 0.0027265477 
   51400    8.0366964    6.0748555   0.26746122    14.379013 -0.074855518   0.26746122    1.5038324 -0.00022821116 0.0024727423 
   51500    2.7763211    1.6950805   0.03528107    4.5066826    4.3049195   0.03528107    1.5008615 0.0028464256 0.0029311608 
   51600    14.611714    3.2766463    3.5556012    21.443962    2.7233537    3.5556012    1.5019602 -0.00055483166 -0.0041072819 
   51700    5.2671001    4.9140634   0.10718704    10.288351    1.0859366   0.10718704    1.5038382 0.00065249971 0.0027933023 
   51800    4.9947853     3.741236  0.034542831     8.770564     2.258764  0.034542831    1.5017168 0.0014828141  0.002934348 
   51900    1.8251199    1.0951952   0.22876025    3.1490753    4.9048048   0.22876025    1.5007942  0.003117363 0.0025440679 
   52000    7.5793611    8.7142416    1.6304262    17.924029   -2.7142416    1.6304262    1.5040276 -0.0028964452 -0.00025279729 
   52100    8.5450207     1.430345   0.24767789    10.223044     4.569655   0.24767789    1.5006581 0.0028813181 0.0025059604 
   52200    13.034265     3.764901    2.2486941     19.04786     2.235099    2.2486941     1.502926 -9.0633947e-06 -0.001491536 
   52300    6.9128924    3.0897734    2.4052578    12.407924    2.9102266    2.4052578    1.5022878 0.00033664586  -0.00180594 
   52400    14.613494    1.2374944    13.835827    29.686815    4.7625056    13.835827    1.5009527 -0.0060488808 -0.024669748 
   52500    3.1435036     1.934239   0.44110255    5.5188451     4.065761   0.44110255    1.5012906  0.002416439 0.0021203761 
   52600    7.5200977    5.1556491 0.0057520566    12.681499   0.84435092 0.0057520566    1.5039117 0.00055906591 0.0029963192 
   52700    2.8550657    4.0750242    1.0074292    7.9375191    1.9249758    1.0074292    1.5028278 0.00061169777 0.0009907973 
   52800    5.4673514    3.6996433    3.6518738    12.818868    2.3003567    3.6518738    1.5026306 -0.00090101138 -0.0042984863 
   52900    3.1542872    5.3370972    3.6904957     12.18188   0.66290285    3.6904957     1.503996 -0.0020183952 -0.0043729994 
   53000    3.8210512    1.0521003    1.1101435     5.983295    4.9478997    1.1101435    1.5007382 0.0025585041 0.00078118943 
   53100    2.4702314    10.063026  0.019820145    12.553077   -4.0630258  0.019820145    1.5074601 -0.0027218973 0.0029752798 
   53200    11.541013    4.9743736    3.6911624    20.206549    1.0256264    3.6911624    1.5039087 -0.001777024 -0.0043745075 
   53300     7.210652    7.6733809    4.4928816    19.376915   -1.6733809    4.4928816    1.5059042 -0.0041108417 -0.005973955 
   53400    5.8662134    1.0059413    1.1324779    8.0046326    4.9940587    1.1324779    1.5007778 0.0025743872 0.00073659988 
   53500    3.7240196   0.87502711   0.17258539    4.7716321    5.1249729   0.17258539    1.5006101 0.0033015917 0.0026560494 
   53600    4.3645745    4.5690499   0.68801064     9.621635    1.4309501   0.68801064    1.5034125 0.00049529299 0.0016308036 
   53700    9.2062789    5.2225797    5.2883944    19.717253   0.77742031    5.2883944    1.5031609 -0.0030073161 -0.007570467 
   53800    2.2025262    2.8830974    1.3026786    6.3883022    3.1169026    1.3026786    1.5020691 0.0012094826 0.00039878099 
   53900    2.5078562    3.0956154      9.62413    15.227602    2.9043846      9.62413    1.5018472 -0.0044798302 -0.016244566 
   54000    5.7312984    3.9845975    1.9495299    11.665426    2.0154025    1.9495299    1.5031318 4.3915064e-05 -0.00089279604 
   54100    3.2404125     5.344131   0.63940017    9.2239437   0.65586901   0.63940017    1.5037916 1.0979229e-05 0.0017287828 
   54200    4.4877514    1.5184836    0.5584561    6.5646912    4.4815164    0.5584561    1.5007118 0.0026153735 0.0018845113 
   54300    3.0303956    5.0054904    4.5144989    12.550385   0.99450961    4.5144989    1.5028814 -0.0023466595 -0.006023235 
   54400     4.356535    4.1181698 0.0029035571    8.4776084    1.8818302 0.0029035571    1.5024316 0.0012526177 0.0029990561 
   54500    3.3239094    5.8348333   0.49303953    9.6517822   0.16516671   0.49303953    1.5043445 -0.00021858188   0.00202261 
   54600    3.9455742    9.9292449     4.139873    18.014692   -3.9292449     4.139873    1.5058199 -0.0053794119 -0.0052681062 
   54700    3.0938617    3.8042673    2.9987982    9.8969272    2.1957327    2.9987982    1.5027046 -0.00053537705 -0.0029921874 
   54800    3.6361548    5.4744695    8.3592526    17.469877   0.52553054    8.3592526    1.5036176 -0.0052224814  -0.01371127 
   54900    13.875485    1.4818319   0.53517651    15.892493    4.5181681   0.53517651    1.5010874 0.0026553277 0.0019318218 
   55000    7.2789244    3.1057229      3.54774    13.932387    2.8942771      3.54774    1.5015268 -0.00043564195 -0.0040924264 
   55100    10.482801    2.7334901   0.58531786    13.801609    3.2665099   0.58531786    1.5020187 0.0017874614 0.0018334016 
   55200    11.101054    3.8984163   0.83758669    15.837057    2.1015837   0.83758669    1.5026686 0.0008426647 0.0013301639 
   55300    15.460082    3.6619681   0.12117501    19.243225    2.3380319   0.12117501    1.5025665 0.0014779046 0.0027627829 
   55400    2.3765438    5.4940593   0.20177579    8.0723789    0.5059407   0.20177579    1.5038467 0.00020277661 0.0026041418 
   55500    4.8462104     1.660806  0.045382247    6.5523986     4.339194  0.045382247    1.5012156 0.0028625412 0.0029116667 
   55600    4.7432996    2.0104812   0.42292181    7.1767026    3.9895188   0.42292181    1.5015508 0.0023777313  0.002157258 
   55700    4.1873479    2.2820878   0.32615106    6.7955867    3.7179122   0.32615106     1.501806 0.0022611741 0.0023513099 
   55800    6.0371506    13.156387    1.0653986    20.258936   -7.1563871    1.0653986    1.5089548 -0.0054811905 0.00088711259 
   55900    4.5466767    7.5230628    1.5628396    13.632579   -1.5230628    1.5628396    1.5050971 -0.0020572683 -0.00011548514 
   56000    2.3178996    2.1842696    0.7206224    5.2227916    3.8157304    0.7206224    1.5013998 0.0020634053 0.0015615548 
   56100    8.6770028    4.6338588    6.6182533    19.929115    1.3661412    6.6182533    1.5036138 -0.0035014081 -0.010229279 
   56200    4.5971432    7.5119454   0.45696153     12.56605   -1.5119454   0.45696153    1.5053572 -0.0013126046 0.0020967913 
   56300    6.3000235    3.2127999    0.7276102    10.240434    2.7872001    0.7276102     1.502267 0.0013730599 0.0015493136 
   56400     4.443531    6.9424892    2.2512283    13.637249  -0.94248924    2.2512283     1.504964 -0.002129145 -0.0014925287 
   56500    1.3975553     5.381505  0.077527677     6.856588   0.61849498  0.077527677    1.5031868 0.00036064487 0.0028513182 
   56600    15.097752    3.8694934   0.15526576    19.122511    2.1305066   0.15526576    1.5022536 0.0013168272 0.0026939757 
   56700    7.3470142    1.1310791   0.20723824    8.6853315    4.8689209   0.20723824    1.5006079 0.0031077885 0.0025867394 
   56800    9.9413463    1.8624082   0.56409141    12.367846    4.1375918   0.56409141    1.5011953 0.0023823336 0.0018742078 
   56900     2.834113    4.5110702    2.6044963    9.9496796    1.4889298    2.6044963    1.5034623 -0.00074371106 -0.0022020682 
   57000    8.5812037    3.6299199  0.087514728    12.298638    2.3700801  0.087514728    1.5024978 0.0015217103 0.0028299661 
   57100    4.0741251    1.2184023   0.13007512    5.4226025    4.7815977   0.13007512     1.500903 0.0031010151 0.0027416558 
   57200    4.8936659     5.913019    1.0608426    11.867528  0.086980953    1.0608426    1.5028944 -0.00064924109 0.00088410353 
   57300    3.0971554     7.030154   0.41669262    10.544002    -1.030154   0.41669262     1.503841 -0.00096456438 0.0021742968 
   57400    1.2355228    5.7169412     1.115181     8.067645   0.28305876     1.115181    1.5044824 -0.00055474815 0.00077860275 
   57500    2.9350887    1.3626607    2.1748948    6.4726442    4.6373393    2.1748948     1.500819 0.0016416297 -0.0013481517 
   57600    2.3206119    5.8204467    5.6656261    13.806685   0.17955333    5.6656261    1.5029379 -0.0036573818 -0.0083253764 
   57700    7.0883488    2.5334373   0.28525699    9.9070431    3.4665627   0.28525699    1.5010892 0.0021208705 0.0024316645 
   57800    5.0173442    4.3216464  0.012008616    9.3509992    1.6783536  0.012008616    1.5025867 0.0011108967 0.0029811561 
   57900    9.0233535    4.6897095   0.54648314    14.259546    1.3102905   0.54648314    1.5030631 0.00050920489 0.0019131598 
   58000    5.7794779    1.9796205    1.0917803    8.8508786    4.0203795    1.0917803    1.5015635 0.0019523995 0.00081956642 
   58100    2.2291483    0.5494215    5.1941759    7.9727457    5.4505785    5.1941759    1.5002834 0.00017093505 -0.007387785 
   58200    6.3642764    4.6175452   0.38679174    11.368613    1.3824548   0.38679174    1.5030607 0.00066377538 0.0022325379 
   58300    1.1254754    8.2264151    3.6969179    13.048808   -2.2264151    3.6969179     1.505429 -0.0039488887 -0.0043829778 
   58400    2.3421267    6.2489457   0.18544714    8.7765196  -0.24894568   0.18544714    1.5039807 -0.00028959521 0.0026370671 
   58500    9.0523678    8.6197803   0.19560003    17.867748   -2.6197803   0.19560003    1.5054625 -0.0018769202 0.0026197249 
   58600    3.6645741    4.3559461  0.067652808     8.088173    1.6440539  0.067652808    1.5026676 0.0010509341 0.0028700295 
   58700    12.174896     5.337499   0.49281876    18.005214   0.66250095   0.49281876    1.5030883 0.00011312146  0.002020539 
   58800    6.0946608   0.84791581    2.9537692    9.8963458    5.1520842    2.9537692    1.5006044 0.0014655433 -0.0029063296 
   58900    9.3055147    2.9558736   0.22669927    12.488088    3.0441264   0.22669927     1.501258 0.0018782847 0.0025491175 
   59000    3.1390041    3.2582296  0.074356277      6.47159    2.7417704  0.074356277     1.501739 0.0017782761 0.0028547654 
   59100    8.5502147    11.759158  0.080901401    20.390274   -5.7591577  0.080901401    1.5069792 -0.0038933727 0.0028521556 
   59200    10.335259    3.9290881    1.2445254    15.508872    2.0709119    1.2445254    1.5017659 0.00055092437 0.0005144811 
   59300    2.3885412    3.6896583     1.740469    7.8186685    2.3103417     1.740469    1.5019361 0.00037991513 -0.00047706571 
   59400    3.3907456    5.2767915   0.17846243    8.8459995    0.7232085   0.17846243    1.5036434 0.00036316405 0.0026503619 
   59500    4.7145831    5.0301033    2.1283219    11.873008   0.96989672    2.1283219    1.5031141 -0.00077228347 -0.0012504157 
   59600    6.5728927    4.3207608   0.24972081    11.143374    1.6792392   0.24972081    1.5034094 0.00095301224 0.0025073771 
   59700    6.2475325    5.0635417    1.4834194    12.794494   0.93645832    1.4834194    1.5034955 -0.00036464072 4.0152212e-05 
   59800    8.5639997    3.5132177  0.032558108    12.109776    2.4867823  0.032558108    1.5018721 0.0016361494 0.0029386281 
   59900    3.0677719    6.7731936 0.0052449404    9.8462104  -0.77319361 0.0052449404    1.5052061 -0.00051895903 0.0029999223 
   60000    6.3391736    1.2810468    1.0900166    8.7102369    4.7189532    1.0900166    1.5009741 0.0024192911 0.00082191516 
   60100    9.6196168    10.541501   0.44378072    20.604898   -4.5415009   0.44378072    1.5074012 -0.0033235211 0.0021272409 
   60200     13.82914    3.7563065    4.9897158    22.575162    2.2436935    4.9897158    1.5025678 -0.0018306815 -0.0069742961 
   60300    2.6427405    2.9331917    2.3238478      7.89978    3.0668083    2.3238478    1.5014252 0.00049530701 -0.0016448451 
   60400    3.9118677    4.1380356   0.37328039    8.4231837    1.8619644   0.37328039    1.5026932 0.00099245599 0.0022588257 
   60500    10.123854    6.3212806    2.2455772    18.690712  -0.32128057    2.2455772    1.5037879 -0.0017112385 -0.0014835786 
   60600    2.4854373    2.1421406    4.2275928    8.8551707    3.8578594    4.2275928    1.5016494 -0.00024648897 -0.0054518869 
   60700    3.0335185    2.6913374   0.37548203    6.1003379    3.3086626   0.37548203     1.501713 0.0019554537 0.0022524619 
   60800    7.4622634    4.0320118   0.89418523     12.38846    1.9679882   0.89418523    1.5018128 0.00071586863 0.0012152551 
   60900    5.0222925    1.9920241   0.27178813    7.2861047    4.0079759   0.27178813    1.5015642 0.0024907919 0.0024595521 
   61000    5.0431737    2.5493213    0.6684586    8.2609535    3.4506787    0.6684586    1.5011373 0.0018548134 0.0016653575 
   61100     4.810844    5.3485945 0.0043514998     10.16379   0.65140553 0.0043514998    1.5040768 0.00043136935 0.0029994507 
[...]
  985400    2.8007561    6.1487237   0.89601836    9.8454982  -0.14872373   0.89601836    1.5045608 -0.00069649473 0.0012170849 
  985500    3.4750222     3.862018    1.5631706    8.9002108     2.137982    1.5631706    1.5029085 0.00038320758 -0.00012052417 
  985600    11.067897    3.4908659    2.5263127    17.085075    2.5091341    2.5263127    1.5026207 -1.1452373e-05 -0.002047384 
  985700    3.4114463    3.6757195   0.37754039    7.4647062    2.3242805   0.37754039    1.5026598 0.0012978268 0.0022502389 
  985800    4.0677859    5.7532533  0.050932441    9.8719716   0.24674671  0.050932441    1.5035892 0.00013054285 0.0029053136 
  985900    5.5185645    4.5113605    2.3439963    12.373921    1.4886395    2.3439963       1.5022 -0.00057023786 -0.0016835926 
  986000    5.1260067    8.3944221    1.0109045    14.531333   -2.3944221    1.0109045    1.5040587 -0.0022702177 0.00098630854 
  986100    6.7363166    2.6195512    1.7704691    11.126337    3.3804488    1.7704691    1.5020734 0.0010733198 -0.00053679153 
  986200    4.6398369    3.9022521   0.10258187    8.6446708    2.0977479   0.10258187    1.5028467 0.0013301107 0.0028005296 
  986300    4.2460263    8.1322198   0.52633831    12.904584   -2.1322198   0.52633831     1.505496 -0.0017723721 0.0019583154 
  986400    9.9526395    5.2208987    1.1795644    16.353103   0.77910132    1.1795644     1.504116 -0.0002669754 0.00064910317 
  986500     3.343406    7.4061713   0.68999572    11.439573   -1.4061713   0.68999572    1.5033757 -0.0013974447 0.0016267599 
  986600    5.6652598    6.2954604  0.060180839    12.020901  -0.29546039  0.060180839    1.5040729 -0.00023709415 0.0028877841 
  986700    5.3449513    2.1337334    7.4158455     14.89453    3.8662666    7.4158455    1.5013635 -0.0023663859 -0.011828964 
  986800    7.3859244    6.0266899   0.82069981    14.233314 -0.026689901   0.82069981    1.5028389 -0.00056492648 0.0013642781 
  986900    5.9915774    1.9781148    1.6520906    9.6217828    4.0218852    1.6520906    1.5015497 0.0015798631 -0.00030108177 
  987000    9.7364215    5.5677916   0.01469136    15.318904    0.4322084   0.01469136    1.5036446 0.0002783447 0.0029779065 
  987100    4.6001437    1.6097041  0.035352706    6.2452005    4.3902959  0.035352706    1.5009296 0.0029032955 0.0029311539 
  987200    5.4930385    5.1931204  0.016962717    10.703122   0.80687964  0.016962717    1.5037056 0.00052661128 0.0029734858 
  987300    2.5265459    5.9810783    4.0758416    12.583466  0.018921652    4.0758416     1.503757 -0.0027046133 -0.0051441692 
  987400   0.92387076    10.942703   0.34412672    12.210701   -4.9427033   0.34412672    1.5080791 -0.0035245533 0.0023279047 
  987500    6.7868005   0.94499723    2.9500866    10.681884    5.0550028    2.9500866    1.5007459 0.0014032774 -0.0028986814 
  987600    5.3586756     6.579015 0.0083603913    11.946051  -0.57901502 0.0083603913    1.5045865 -0.00039158361 0.0029924522 
  987700    2.0943008    3.4507679   0.29743298    5.8425017    2.5492321   0.29743298    1.5027209 0.0015011994 0.0024105758 
  987800    8.0648425    5.3665726   0.01090818    13.442323   0.63342736   0.01090818    1.5039119 0.00041501278 0.0029860075 
  987900    3.4194986    9.3125503     1.685397    14.417446   -3.3125503     1.685397    1.5065679 -0.0033319649 -0.00035765817 
  988000    2.6629544    6.7586591   0.02978392    9.4513974  -0.75865907   0.02978392    1.5047058 -0.00052562866 0.0029498438 
  988100    1.3707677    10.855899   0.68680935    12.913476   -4.8558987   0.68680935    1.5070893 -0.0036951387 0.0016405599 
  988200    9.6245864   0.65968391    3.5635597     13.84783    5.3403161    3.5635597    1.5003283 0.0011845043 -0.0041264626 
  988300    7.2307109    7.3810743    1.5241795    16.135965   -1.3810743    1.5241795    1.5055317 -0.0019368359 -3.7295655e-05 
  988400     4.557025    4.9328769   0.85772816     10.34763    1.0671231   0.85772816    1.5030506 0.00013959666  0.001290645 
  988500    4.8152835    2.9565955    0.2035351    7.9754141    3.0434045    0.2035351    1.5023354 0.0018932463 0.0025976007 
  988600    8.5799922    5.0746116   0.12321865    13.777822   0.92538842   0.12321865    1.5035388 0.00053477985 0.0027606403 
  988700    12.622124    1.8209063 0.0056601899     14.44869    4.1790937 0.0056601899    1.5011722  0.002782289  0.002991024 
  988800    6.0898534     5.857582  0.031177956    11.978613   0.14241803  0.031177956    1.5039383 7.4160052e-05 0.0029455207 
  988900    10.457099      1.25121    1.0614226    12.769732      4.74879    1.0614226    1.5007539 0.0024582449 0.00087866249 
  989000    5.0125492    2.8359847    1.7937569    9.6422908    3.1640153    1.7937569    1.5019573 0.00091350563 -0.00058359907 
  989100     10.45945    9.5863779   0.42294474    20.468772   -3.5863779   0.42294474      1.50718 -0.0026728817 0.0021684706 
  989200     2.400661    3.3852035  0.040889875    5.8267543    2.6147965  0.040889875    1.5026659 0.0017159378 0.0029235521 
  989300    7.8875719    6.6803844 0.0049793561    14.572936  -0.68038435 0.0049793561    1.5046226 -0.00045690914 0.0029992866 
  989400    4.8629922    1.0322947    1.5688477    7.4641346    4.9677053    1.5688477    1.5008166  0.002265905 -0.00013606225 
  989500    4.1426259    1.6425306    2.8314891    8.6166456    4.3574694    2.8314891    1.5011469 0.0010173202 -0.0026606844 
  989600    1.0104954    1.5970324   0.23420873    2.8417365    4.4029676   0.23420873    1.5010488 0.0027791726 0.0025336801 
  989700    2.7952751    1.9824459   0.30623256    5.0839536    4.0175541   0.30623256    1.5013668 0.0024742143 0.0023902685 
  989800    8.4493494    1.7959231   0.87644655    11.121719    4.2040769   0.87644655    1.5011761 0.0022184202  0.001249459 
  989900    7.1975057    3.5340686    1.7962668    12.527841    2.4659314    1.7962668     1.501909 0.00044644306 -0.0005887156 
  990000    8.7469302    3.1738317  0.059896509    11.980658    2.8261683  0.059896509    1.5024412 0.0018441812 0.0028850894 
  990100    4.5348169    5.2668489  0.038079589    9.8397453   0.73315113  0.038079589    1.5037044 0.00046338103 0.0029312497 
  990200    1.9035582    2.7807392    4.3932475    9.0775449    3.2192608    4.3932475    1.5020701 -0.00078265779 -0.0057823548 
  990300    6.2500352    6.0432122   0.77772944    13.070977 -0.043212231   0.77772944    1.5029806 -0.00054729445 0.0014505024 
  990400    5.1344203    5.3198151   0.01814817    10.472384   0.68018487   0.01814817    1.5026924 0.0004413578 0.0029690885 
  990500    2.9594194    7.6315737    4.5229069      15.1139   -1.6315737    4.5229069    1.5041059 -0.0041029871 -0.0060376021 
  990600    13.015203    3.0540059    2.0586129    18.127822    2.9459941    2.0586129    1.5019671 0.00059158746 -0.0011132915 
  990700    2.4674201    6.8482505   0.46488102    9.7805516  -0.84825055   0.46488102    1.5043239 -0.00087542104 0.0020788858 
  990800    16.425335     6.511102   0.04656405    22.983001  -0.51110204   0.04656405    1.5051026 -0.0003717774 0.0029170771 
  990900    9.1027745     4.798768    6.2942747    20.195817     1.201232    6.2942747    1.5031572 -0.0033953618 -0.009582235 
  991000    12.444324    2.5494099    6.3745925    21.368327    3.4505901    6.3745925    1.5012553 -0.001949335 -0.0097466745 
  991100    15.824208    4.3745146   0.68347907    20.882202    1.6254854   0.68347907    1.5023569 0.00062800422 0.0016377557 
  991200    5.1774304    4.5862192  0.014265098    9.7779147    1.4137808  0.014265098    1.5031969 0.00093301045 0.0029778635 
  991300    6.6255107    1.4621802  0.064109112       8.1518    4.5378198  0.064109112    1.5008847 0.0029824738 0.0028735513 
  991400     13.23813    3.9855721    1.7869192    19.010621    2.0144279    1.7869192    1.5026632 0.00015167249 -0.00056851195 
  991500    10.358762    5.3894385   0.19410188    15.942303   0.61056155   0.19410188    1.5039665 0.00027763978 0.0026197293 
  991600    5.0539196    3.2547847    5.0681633    13.376868    2.7452153    5.0681633    1.5024472 -0.001548632 -0.0071314322 
  991700    11.140532    6.3450456    7.5933364    25.078914  -0.34504556    7.5933364    1.5044124 -0.0052922546 -0.012177848 
  991800    7.3019477     3.827787   0.31212289    11.441858     2.172213   0.31212289    1.5020213 0.0012400601 0.0023797969 
  991900    2.3290199    2.4846814    0.8760842    5.6897855    3.5153186    0.8760842    1.5015228 0.0017594896 0.0012508773 
  992000    4.0620589    4.5830339    1.6664239    10.311517    1.4169661    1.6664239    1.5034876 -0.00016630522 -0.00032587256 
  992100    6.2213868    12.837383    3.6932724    22.752043   -6.8373835    3.6932724    1.5080225 -0.0070204373 -0.0043704998 
  992200    6.4612319    3.7279309  0.053293267    10.242456    2.2720691  0.053293267    1.5027037 0.0014791839 0.0028988209 
  992300    5.4698057    2.2503102   0.93498661    8.6551024    3.7496898   0.93498661    1.5017452 0.0018764688 0.0011335171 
  992400     1.750676    1.5364766 0.0010066999    3.2881593    4.4635234 0.0010066999    1.5009971 0.0029750111 0.0029999809 
  992500    3.8579391     5.194344   0.78261593    9.8348991   0.80565603   0.78261593     1.503844 1.5360064e-05 0.0014424562 
  992600    5.4392093     5.652701   0.04285631    11.134767   0.34729902   0.04285631     1.504154 0.00020296181 0.0029225954 
  992700    10.349191    4.5366202  0.019477919    14.905289    1.4633798  0.019477919    1.5033203 0.00096260128 0.0029676848 
  992800    2.2273086    2.5348143    4.6885581     9.450681    3.4651857    4.6885581    1.5015347 -0.00081558161 -0.0063740468 
  992900    8.4552361    3.9480055    1.7466077    14.149849    2.0519945    1.7466077    1.5027636 0.00020359114 -0.00048768833 
  993000    5.2430431    1.5725933   0.17987712    6.9955136    4.4274067   0.17987712    1.5009547 0.0028316864 0.0026421552 
  993100    7.9102556    4.2175756  0.092021415    12.219853    1.7824244  0.092021415    1.5025858 0.0011269353 0.0028211288 
  993200    9.1715719    1.2680675   0.22041096     10.66005    4.7319325   0.22041096    1.5009115  0.003007681 0.0025610011 
  993300    4.8010513    4.9598604    1.7393942    11.500306    1.0401396    1.7393942    1.5031709 -0.00046616974 -0.00047244651 
  993400     6.896132    2.9047266    1.5356042    11.336463    3.0952734    1.5356042    1.5013114 0.0010397795 -6.8585537e-05 
  993500   0.79167392    7.4530389    2.1129042    10.357617   -1.4530389    2.1129042    1.5044754 -0.0023772954 -0.0012168577 
  993600    3.7991982    4.9894539 0.0049379214    8.7935901    1.0105461 0.0049379214    1.5025939 0.00067040545 0.0029953119 
  993700    10.039237    7.6306257 0.0056440466    17.675507   -1.6306257 0.0056440466    1.5041757 -0.0010908465 0.0029970633 
  993800    6.3892063    5.8110084  0.046806141    12.247021   0.18899162  0.046806141    1.5041336 9.4790322e-05 0.0029146549 
  993900    0.9329305    5.4459648   0.26748601    6.6463814   0.55403515   0.26748601    1.5037778 0.00019103276 0.0024725836 
  994000    4.9670629    4.3763574   0.01083676    9.3542571    1.6236426   0.01083676    1.5034142 0.0010752039 0.0029851548 
  994100    2.0873198    3.4377728    2.0488689    7.5739615    2.5622272    2.0488689    1.5018873 0.00034223882 -0.0010939633 
  994200     2.822349    3.3117338 0.0043690211    6.1384518    2.6882662 0.0043690211    1.5025608 0.0017892648 0.0029963835 
  994300    4.7108201    2.8265166   0.40971534    7.9470521    3.1734834   0.40971534    1.5020928  0.001842512 0.0021847549 
  994400    11.093269    1.1981062  0.026434364    12.317809    4.8018938  0.026434364    1.5008018 0.0031836396 0.0029487349 
  994500    11.347575    2.3607777      2.75343    16.461782    3.6392223      2.75343    1.5018647 0.00059052821 -0.0025031304 
  994600    2.7806285    1.7007357    4.2012069    8.6825712    4.2992643    4.2012069    1.5013085 6.5371584e-05 -0.0053997968 
  994700    10.014805    10.644279    1.2801517    21.939236   -4.6442789    1.2801517    1.5082911 -0.0039496204 0.00045627895 
  994800    7.4163121    2.3709985    2.4620704    12.249381    3.6290015    2.4620704    1.5013614 0.00077795407 -0.001921418 
  994900    3.8652515    3.5877703   0.21054274    7.6635645    2.4122297   0.21054274     1.502757 0.0014677913 0.0025844285 
  995000    1.9605876    9.8663712   0.28058817    12.107547   -3.8663712   0.28058817    1.5063704 -0.0027646395 0.0024515645 
  995100    7.9848834     5.298534    1.2306462    14.514064   0.70146601    1.2306462    1.5041942 -0.00035278681 0.00054709588 
  995200    5.7585368    4.0731927    3.0585542    12.890284    1.9268073    3.0585542    1.5027379 -0.00075449792 -0.0031116324 
  995300    2.0186567    4.7204262    3.2144692    9.9535521    1.2795738    3.2144692    1.5033492 -0.0012899303 -0.0034222399 
  995400    9.6247056    10.947103   0.45370601    21.025515    -4.947103   0.45370601    1.5079401 -0.0036005394 0.0021084681 
  995500    11.463299    5.9298118    1.4382351    18.831345  0.070188247    1.4382351    1.5034197 -0.00091203123 0.00013036929 
  995600    11.794712    10.376101    0.0203297    22.191143   -4.3761011    0.0203297    1.5082115 -0.0029309539 0.0029757636 
  995700    6.5962224    3.3180539   0.65082469    10.565101    2.6819461   0.65082469    1.5014271  0.001354081 0.0017012049 
  995800    7.6916374    4.3865813   0.16389488    12.242114    1.6134187   0.16389488    1.5032465 0.00096634921 0.0026787032 
  995900    10.777513    3.9160163    1.0074794    15.701008    2.0839837    1.0074794    1.5021484 0.00071766951 0.0009893381 
  996000    11.512381    3.7761106   0.54481174    15.833303    2.2238894   0.54481174    1.5025517 0.0011193851   0.00191548 
  996100    2.1880513     5.962468 0.0071044235    8.1576238  0.037531961 0.0071044235    1.5035161 2.0285025e-05 0.0029928233 
  996200     5.938817    6.1055784   0.32612227    12.370518  -0.10557836   0.32612227    1.5047297 -0.00028780042 0.0023572149 
  996300    12.768188    3.1738156    1.0834603    17.025464    2.8261844    1.0834603    1.5015688  0.001161816 0.00083621698 
  996400     6.454261     3.346797   0.21237718    10.013435     2.653203   0.21237718    1.5024815 0.0016272172 0.0025802087 
  996500    11.287894    2.2043725   0.12862011    13.620886    3.7956275   0.12862011    1.5017235 0.0024446716 0.0027462068 
  996600    8.4928095    6.0624628    0.9516942    15.506967  -0.06246281    0.9516942    1.5046852 -0.00067610467  0.001105982 
  996700    4.2566878    2.4561181    1.4136779    8.1264838    3.5438819    1.4136779    1.5015211  0.001420136 0.00017568653 
  996800    14.878453    1.8547556 0.0075862967    16.740795    4.1452444 0.0075862967    1.5014667 0.0027584387 0.0029877608 
  996900    2.9223233     4.729819   0.94146089    8.5936032     1.270181   0.94146089    1.5033027 0.00021914677 0.0011236836 
  997000    8.1686464     6.047392    1.4843829    15.700421 -0.047391964    1.4843829    1.5046342 -0.0010211833 4.0502443e-05 
  997100    4.7870606    2.9958449   0.59853183    8.3814373    3.0041551   0.59853183    1.5019332 0.0016037489 0.0018068028 
  997200    9.9258069    3.7157491  0.038300204    13.679856    2.2842509  0.038300204    1.5025346 0.0014973004 0.0029284689 
  997300    6.1706261    2.1956394    2.1396237    10.505889    3.8043606    2.1396237    1.5013786 0.0011098246 -0.0012764902 
  997400    2.5788952    7.1481081    2.7943948    12.521398   -1.1481081    2.7943948      1.50516 -0.0026283353 -0.0025784695 
  997500    3.8571734    4.3448132  0.046865814    8.2488525    1.6551868  0.046865814    1.5024215  0.001072214 0.0029111114 
  997600    6.3061594    6.6176835    1.7083813    14.632224  -0.61768352    1.7083813    1.5037665 -0.0015507099 -0.00040922947 
  997700    7.7660411    4.8605643   0.33342575    12.960031    1.1394357   0.33342575    1.5029823 0.00053733994 0.0023391131 
  997800    1.6770255    4.5192226  0.095737231    6.2919853    1.4807774  0.095737231    1.5025608 0.00092336013 0.0028136472 
  997900    2.8273016    6.1597868   0.75641371    9.7435022  -0.15978682   0.75641371    1.5038725 -0.00061080036 0.0014949177 
  998000    6.0736472     11.46905  0.084228793    17.626926   -5.4690498  0.084228793    1.5072021 -0.0037021857 0.0028459466 
  998100    12.115459    5.5131568     1.227314     18.85593   0.48684324     1.227314    1.5043085 -0.00049364715 0.00055398903 
  998200    4.5811283    2.7121149   0.82631452    8.1195576    3.2878851   0.82631452    1.5017712 0.0016410471 0.0013509134 
  998300    8.7014898   0.83946705    2.7503629     12.29132    5.1605329    2.7503629    1.5006254   0.00160678 -0.002499475 
  998400    1.9911999    2.4435735    1.3491563    5.7839297    3.5564265    1.3491563    1.5016634 0.0014715135 0.00030501435 
  998500    11.401427    1.2110952  0.013613333    12.626136    4.7889048  0.013613333    1.5006876 0.0031835276 0.0029741486 
  998600    3.1136897    7.5425545    1.0612381    11.717482   -1.5425545    1.0612381    1.5056397 -0.0017358618 0.00088880313 
  998700    6.5480292    4.8201337    1.2133582    12.581521    1.1798663    1.2133582    1.5031182 -2.2327917e-05 0.00057952004 
  998800    4.4474239    8.6846113   0.10632903    13.238364   -2.6846113   0.10632903    1.5053005 -0.0018606269 0.0027979429 
  998900    8.3020662    5.8586337    2.2726608    16.433361    0.1413663    2.2726608    1.5038062 -0.001420863 -0.0015377091 
  999000    8.2547786    7.1191407   0.40912621    15.783046   -1.1191407   0.40912621    1.5054456 -0.0010188446 0.0021926389 
  999100     7.559099    5.3530998    4.7682653    17.680464    0.6469002    4.7682653    1.5030547 -0.0027475767 -0.0065304212 
  999200    9.4917725    8.9425702    1.9271254    20.361468   -2.9425702    1.9271254     1.505699 -0.0032464638 -0.00084285296 
  999300    6.6805872    1.2724489   0.17720792     8.130244    4.7275511   0.17720792    1.5009059 0.0030335621 0.0026473959 
  999400    6.4865164    2.7913069   0.12393217    9.4017555    3.2086931   0.12393217    1.5022085 0.0020565073 0.0027565526 
  999500    8.3085565    4.8470182    3.2550946    16.410669    1.1529818    3.2550946    1.5036346 -0.0014014085  -0.00350292 
  999600    6.8720255   0.59742361    1.3610626    8.8305117    5.4025764    1.3610626    1.5004555 0.0026943426 0.00027878579 
  999700    7.6318891    2.2816919   0.15973655    10.073318    3.7183081   0.15973655    1.5012114  0.002372381 0.0026829498 
  999800    3.4602858    4.4153791    1.5015737    9.3772386    1.5846209    1.5015737    1.5022191 5.5364811e-05 1.2908618e-06 
  999900    1.5452873    7.7063188    1.5004389    10.752045   -1.7063188    1.5004389    1.5044332 -0.0021378385 7.9886601e-06 
 1000000    2.9153459    3.2738526    2.9492682    9.1384666    2.7261474    2.9492682     1.502231 -0.00014874715 -0.0028940744 
Loop time of 24.5646 on 1 procs for 1000000 steps with 1 atoms

Performance: 703450620.697 tau/day, 40708.948 timesteps/s
99.7% CPU use with 1 MPI tasks x 1 OpenMP threads

MPI task timing breakdown:
Section |  min time  |  avg time  |  max time  |%varavg| %total
---------------------------------------------------------------
Pair    | 0.049578   | 0.049578   | 0.049578   |   0.0 |  0.20
Neigh   | 0.16286    | 0.16286    | 0.16286    |   0.0 |  0.66
Comm    | 0.080734   | 0.080734   | 0.080734   |   0.0 |  0.33
Output  | 0.045428   | 0.045428   | 0.045428   |   0.0 |  0.18
Modify  | 24.087     | 24.087     | 24.087     |   0.0 | 98.05
Other   |            | 0.1394     |            |       |  0.57

Nlocal:        1.00000 ave           1 max           1 min
Histogram: 1 0 0 0 0 0 0 0 0 0
Nghost:         0.00000 ave           0 max           0 min
Histogram: 1 0 0 0 0 0 0 0 0 0
Neighs:         0.00000 ave           0 max           0 min
Histogram: 1 0 0 0 0 0 0 0 0 0

Total # of neighbors = 0
Ave neighs/atom = 0.0000000
Neighbor list builds = 97313
Dangerous builds = 83242
Total wall time: 0:00:24
