created by fftool

1800 atoms
1200 bonds
600 angles
4 atom types
1 bond types
1 angle types
0.000000 29.204526 xlo xhi
0.000000 29.204526 ylo yhi
0.000000 29.204526 zlo zhi

Masses

   1    1.008  # Hwh
   2   15.999  # Owh
   3    1.008  # Hw
   4   15.999  # Ow

Bond Coeffs

   1   517.630258     1.000000  # Ow-Hw

Angle Coeffs

   1    37.950526   109.470000  # Hw-Ow-Hw

Atoms

      1       1    1   0.423800  1.469233e+00  2.148142e+00  1.702038e+00  # Hwh SPCE
      2       1    2  -0.847600  1.979799e+00  1.409877e+00  2.142818e+00  # Owh SPCE
      3       1    1   0.423800  2.730865e+00  1.797090e+00  2.677576e+00  # Hwh SPCE
      4       2    3   0.423800  1.499900e+00  3.238303e+00  2.442531e+01  # Hw SPCE
      5       2    4  -0.847600  2.395752e+00  3.669948e+00  2.431980e+01  # Ow SPCE
      6       2    3   0.423800  2.296129e+00  4.663242e+00  2.437847e+01  # Hw SPCE
      7       3    3   0.423800  1.403661e+01  4.588770e+00  2.450878e+01  # Hw SPCE
      8       3    4  -0.847600  1.379951e+01  5.545591e+00  2.467695e+01  # Ow SPCE
      9       3    3   0.423800  1.402354e+01  6.091366e+00  2.386952e+01  # Hw SPCE
     10       4    3   0.423800  2.336049e+01  1.499786e+00  3.153124e+00  # Hw SPCE
     11       4    4  -0.847600  2.409385e+01  2.065977e+00  3.529439e+00  # Ow SPCE
     12       4    3   0.423800  2.490226e+01  1.500034e+00  3.691241e+00  # Hw SPCE
     13       5    3   0.423800  1.644196e+01  1.748367e+00  2.705436e+01  # Hw SPCE
     14       5    4  -0.847600  1.736546e+01  1.496062e+00  2.734329e+01  # Ow SPCE
     15       5    3   0.423800  1.783282e+01  2.301936e+00  2.770680e+01  # Hw SPCE
     16       6    3   0.423800  2.088933e+01  1.895579e+01  2.275309e+01  # Hw SPCE
     17       6    4  -0.847600  2.057929e+01  1.824793e+01  2.211841e+01  # Ow SPCE
     18       6    3   0.423800  1.984085e+01  1.772204e+01  2.254049e+01  # Hw SPCE
     19       7    3   0.423800  1.766189e+01  8.017800e+00  2.498964e+01  # Hw SPCE
     20       7    4  -0.847600  1.725196e+01  8.916174e+00  2.483189e+01  # Ow SPCE
     21       7    3   0.423800  1.625542e+01  8.836819e+00  2.485666e+01  # Hw SPCE
     22       8    3   0.423800  2.770687e+01  2.171554e+01  1.528009e+01  # Hw SPCE
     23       8    4  -0.847600  2.716811e+01  2.251048e+01  1.555905e+01  # Ow SPCE
     24       8    3   0.423800  2.770528e+01  2.307342e+01  1.618718e+01  # Hw SPCE
     25       9    3   0.423800  1.495385e+00  2.572800e+01  2.467279e+01  # Hw SPCE
     26       9    4  -0.847600  1.580382e+00  2.672428e+01  2.468743e+01  # Ow SPCE
     27       9    3   0.423800  1.767742e+00  2.702913e+01  2.562122e+01  # Hw SPCE
     28      10    3   0.423800  8.923646e+00  2.303176e+01  7.542360e+00  # Hw SPCE
     29      10    4  -0.847600  8.109007e+00  2.312152e+01  6.969379e+00  # Ow SPCE
     30      10    3   0.423800  7.298201e+00  2.288018e+01  7.502626e+00  # Hw SPCE
     31      11    3   0.423800  1.123659e+01  2.107791e+01  4.662100e+00  # Hw SPCE
     32      11    4  -0.847600  1.223538e+01  2.105512e+01  4.618509e+00  # Ow SPCE
     33      11    3   0.423800  1.259832e+01  2.069338e+01  5.477241e+00  # Hw SPCE
     34      12    3   0.423800  1.225298e+01  2.161218e+01  1.146502e+01  # Hw SPCE
     35      12    4  -0.847600  1.278626e+01  2.077538e+01  1.134100e+01  # Ow SPCE
     36      12    3   0.423800  1.216660e+01  1.999649e+01  1.124435e+01  # Hw SPCE
     37      13    3   0.423800  2.178085e+01  2.141393e+01  1.947311e+01  # Hw SPCE
     38      13    4  -0.847600  2.200950e+01  2.051108e+01  1.910897e+01  # Ow SPCE
     39      13    3   0.423800  2.190716e+01  1.982534e+01  1.982958e+01  # Hw SPCE
     40      14    3   0.423800  2.603847e+01  7.816317e+00  1.661274e+01  # Hw SPCE
     41      14    4  -0.847600  2.671903e+01  7.539282e+00  1.729103e+01  # Ow SPCE
     42      14    3   0.423800  2.712614e+01  6.667675e+00  1.701797e+01  # Hw SPCE
     43      15    3   0.423800  2.662104e+01  1.315276e+01  2.415551e+01  # Hw SPCE
     44      15    4  -0.847600  2.749092e+01  1.325361e+01  2.463837e+01  # Ow SPCE
     45      15    3   0.423800  2.770488e+01  1.422511e+01  2.474029e+01  # Hw SPCE
     46      16    3   0.423800  2.343696e+01  2.012869e+01  2.434140e+01  # Hw SPCE
     47      16    4  -0.847600  2.284311e+01  1.938463e+01  2.464753e+01  # Ow SPCE
     48      16    3   0.423800  2.328036e+01  1.889915e+01  2.540458e+01  # Hw SPCE
     49      17    3   0.423800  7.794521e+00  2.000989e+01  2.199182e+01  # Hw SPCE
     50      17    4  -0.847600  7.929378e+00  2.033080e+01  2.292928e+01  # Ow SPCE
     51      17    3   0.423800  8.857758e+00  2.010876e+01  2.322729e+01  # Hw SPCE
     52      18    3   0.423800  6.830410e+00  2.518010e+01  2.209866e+01  # Hw SPCE
     53      18    4  -0.847600  6.177519e+00  2.451264e+01  2.174056e+01  # Ow SPCE
     54      18    3   0.423800  6.309669e+00  2.363590e+01  2.220301e+01  # Hw SPCE
     55      19    3   0.423800  1.596377e+01  2.092461e+01  2.446023e+01  # Hw SPCE
     56      19    4  -0.847600  1.590738e+01  1.999342e+01  2.482037e+01  # Ow SPCE
     57      19    3   0.423800  1.681118e+01  1.956697e+01  2.478476e+01  # Hw SPCE
     58      20    3   0.423800  1.911326e+01  2.770546e+01  4.844631e+00  # Hw SPCE
     59      20    4  -0.847600  1.985915e+01  2.703939e+01  4.843586e+00  # Ow SPCE
     60      20    3   0.423800  2.073574e+01  2.752062e+01  4.840568e+00  # Hw SPCE
     61      21    3   0.423800  7.957677e+00  2.769262e+01  2.125162e+01  # Hw SPCE
     62      21    4  -0.847600  7.905132e+00  2.770650e+01  2.225015e+01  # Ow SPCE
     63      21    3   0.423800  8.829127e+00  2.770890e+01  2.263254e+01  # Hw SPCE
     64      22    3   0.423800  2.070265e+01  9.528473e+00  1.663276e+01  # Hw SPCE
     65      22    4  -0.847600  1.973165e+01  9.696078e+00  1.680328e+01  # Ow SPCE
     66      22    3   0.423800  1.934110e+01  8.919385e+00  1.729746e+01  # Hw SPCE
     67      23    3   0.423800  7.809959e+00  8.565464e+00  2.274346e+01  # Hw SPCE
     68      23    4  -0.847600  8.612896e+00  9.122442e+00  2.295575e+01  # Ow SPCE
     69      23    3   0.423800  9.372009e+00  8.852272e+00  2.236351e+01  # Hw SPCE
     70      24    3   0.423800  2.498899e+01  2.308095e+01  1.903531e+01  # Hw SPCE
     71      24    4  -0.847600  2.436019e+01  2.235497e+01  1.931382e+01  # Ow SPCE
     72      24    3   0.423800  2.484014e+01  2.170706e+01  1.990531e+01  # Hw SPCE
     73      25    3   0.423800  1.506895e+00  5.662694e+00  6.920599e+00  # Hw SPCE
     74      25    4  -0.847600  1.784503e+00  6.309796e+00  7.630665e+00  # Ow SPCE
     75      25    3   0.423800  2.707518e+00  6.641971e+00  7.436495e+00  # Hw SPCE
     76      26    3   0.423800  2.153403e+01  1.348159e+01  2.085837e+01  # Hw SPCE
     77      26    4  -0.847600  2.086248e+01  1.274077e+01  2.087218e+01  # Ow SPCE
     78      26    3   0.423800  2.067461e+01  1.247880e+01  2.181880e+01  # Hw SPCE
     79      27    3   0.423800  6.800685e+00  2.203104e+01  2.620499e+01  # Hw SPCE
     80      27    4  -0.847600  6.856841e+00  2.274258e+01  2.550459e+01  # Ow SPCE
     81      27    3   0.423800  6.369339e+00  2.244243e+01  2.468469e+01  # Hw SPCE
     82      28    3   0.423800  2.330650e+01  7.514481e+00  5.018724e+00  # Hw SPCE
     83      28    4  -0.847600  2.253073e+01  6.885276e+00  4.970822e+00  # Ow SPCE
     84      28    3   0.423800  2.286694e+01  5.944773e+00  4.921621e+00  # Hw SPCE
     85      29    3   0.423800  1.465322e+01  1.590735e+01  2.422856e+01  # Hw SPCE
     86      29    4  -0.847600  1.477140e+01  1.663018e+01  2.354771e+01  # Ow SPCE
     87      29    3   0.423800  1.453616e+01  1.751291e+01  2.395449e+01  # Hw SPCE
     88      30    3   0.423800  1.040291e+01  5.254847e+00  1.370622e+01  # Hw SPCE
     89      30    4  -0.847600  1.105724e+01  4.607844e+00  1.409768e+01  # Ow SPCE
     90      30    3   0.423800  1.077812e+01  3.674305e+00  1.387274e+01  # Hw SPCE
     91      31    3   0.423800  2.276938e+01  1.512055e+01  9.190561e+00  # Hw SPCE
     92      31    4  -0.847600  2.301556e+01  1.453653e+01  9.964062e+00  # Ow SPCE
     93      31    3   0.423800  2.340966e+01  1.368242e+01  9.624659e+00  # Hw SPCE
     94      32    3   0.423800  5.188719e+00  2.026958e+01  2.114125e+01  # Hw SPCE
     95      32    4  -0.847600  5.223057e+00  2.126505e+01  2.105256e+01  # Ow SPCE
     96      32    3   0.423800  4.292242e+00  2.162905e+01  2.101958e+01  # Hw SPCE
     97      33    3   0.423800  1.776246e+01  1.332125e+01  2.630655e+01  # Hw SPCE
     98      33    4  -0.847600  1.826497e+01  1.415453e+01  2.653702e+01  # Ow SPCE
     99      33    3   0.423800  1.924234e+01  1.400708e+01  2.638536e+01  # Hw SPCE
    100      34    3   0.423800  2.606566e+00  1.054762e+01  6.428992e+00  # Hw SPCE
    101      34    4  -0.847600  1.625220e+00  1.071787e+01  6.339693e+00  # Ow SPCE
    102      34    3   0.423800  1.425906e+00  1.104165e+01  5.414793e+00  # Hw SPCE
    103      35    3   0.423800  2.588493e+01  4.071742e+00  4.105367e+00  # Hw SPCE
    104      35    4  -0.847600  2.671121e+01  4.617835e+00  4.243387e+00  # Ow SPCE
    105      35    3   0.423800  2.741817e+01  4.051459e+00  4.666975e+00  # Hw SPCE
    106      36    3   0.423800  7.373843e+00  6.669901e+00  1.394201e+01  # Hw SPCE
    107      36    4  -0.847600  7.563042e+00  6.090000e+00  1.473442e+01  # Ow SPCE
    108      36    3   0.423800  7.053521e+00  6.429426e+00  1.552510e+01  # Hw SPCE
    109      37    3   0.423800  4.172482e+00  1.303888e+01  1.710824e+01  # Hw SPCE
    110      37    4  -0.847600  4.702018e+00  1.220690e+01  1.727375e+01  # Ow SPCE
    111      37    3   0.423800  4.203212e+00  1.141758e+01  1.691575e+01  # Hw SPCE
    112      38    3   0.423800  1.949787e+01  5.529973e+00  1.254239e+01  # Hw SPCE
    113      38    4  -0.847600  2.035077e+01  5.090120e+00  1.282362e+01  # Ow SPCE
    114      38    3   0.423800  2.089205e+01  4.864082e+00  1.201373e+01  # Hw SPCE
    115      39    3   0.423800  2.451616e+01  8.924670e+00  1.865568e+01  # Hw SPCE
    116      39    4  -0.847600  2.381451e+01  8.652982e+00  1.799699e+01  # Ow SPCE
    117      39    3   0.423800  2.311781e+01  9.367935e+00  1.793821e+01  # Hw SPCE
    118      40    3   0.423800  1.500065e+00  2.219167e+01  2.760505e+00  # Hw SPCE
    119      40    4  -0.847600  2.224501e+00  2.150236e+01  2.767217e+00  # Ow SPCE
    120      40    3   0.423800  1.817068e+00  2.059122e+01  2.829029e+00  # Hw SPCE
    121      41    3   0.423800  2.640554e+01  1.928714e+01  4.290644e+00  # Hw SPCE
    122      41    4  -0.847600  2.740415e+01  1.931798e+01  4.247967e+00  # Ow SPCE
    123      41    3   0.423800  2.770519e+01  2.026827e+01  4.168519e+00  # Hw SPCE
    124      42    3   0.423800  1.388747e+01  7.977813e+00  2.595555e+01  # Hw SPCE
    125      42    4  -0.847600  1.290644e+01  7.828209e+00  2.607882e+01  # Ow SPCE
    126      42    3   0.423800  1.244102e+01  8.710473e+00  2.614947e+01  # Hw SPCE
    127      43    3   0.423800  2.444541e+01  1.183745e+01  2.520365e+01  # Hw SPCE
    128      43    4  -0.847600  2.466934e+01  1.086365e+01  2.516413e+01  # Ow SPCE
    129      43    3   0.423800  2.566048e+01  1.075222e+01  2.509189e+01  # Hw SPCE
    130      44    3   0.423800  2.483417e+01  1.651695e+01  2.163120e+01  # Hw SPCE
    131      44    4  -0.847600  2.410271e+01  1.585943e+01  2.145058e+01  # Ow SPCE
    132      44    3   0.423800  2.445847e+01  1.492995e+01  2.154809e+01  # Hw SPCE
    133      45    3   0.423800  1.730263e+01  2.595540e+01  3.740298e+00  # Hw SPCE
    134      45    4  -0.847600  1.773679e+01  2.510003e+01  4.022883e+00  # Ow SPCE
    135      45    3   0.423800  1.770998e+01  2.444677e+01  3.266223e+00  # Hw SPCE
    136      46    3   0.423800  1.064666e+01  1.544703e+00  2.342635e+01  # Hw SPCE
    137      46    4  -0.847600  9.658303e+00  1.485990e+00  2.356670e+01  # Ow SPCE
    138      46    3   0.423800  9.290506e+00  2.400694e+00  2.373415e+01  # Hw SPCE
    139      47    3   0.423800  6.958351e+00  1.058272e+01  2.770522e+01  # Hw SPCE
    140      47    4  -0.847600  7.092574e+00  1.157367e+01  2.770263e+01  # Ow SPCE
    141      47    3   0.423800  6.203030e+00  1.203050e+01  2.769941e+01  # Hw SPCE
    142      48    3   0.423800  3.958262e+00  4.358392e+00  8.337038e+00  # Hw SPCE
    143      48    4  -0.847600  3.059091e+00  3.923448e+00  8.385147e+00  # Ow SPCE
    144      48    3   0.423800  3.110013e+00  3.117001e+00  8.974257e+00  # Hw SPCE
    145      49    3   0.423800  2.527221e+01  1.981465e+01  9.871580e+00  # Hw SPCE
    146      49    4  -0.847600  2.589272e+01  1.903608e+01  9.965427e+00  # Ow SPCE
    147      49    3   0.423800  2.675477e+01  1.934357e+01  1.036832e+01  # Hw SPCE
    148      50    3   0.423800  2.513678e+01  1.655111e+01  8.455263e+00  # Hw SPCE
    149      50    4  -0.847600  2.439311e+01  1.719386e+01  8.271354e+00  # Ow SPCE
    150      50    3   0.423800  2.390732e+01  1.691348e+01  7.443466e+00  # Hw SPCE
    151      51    3   0.423800  9.547080e+00  5.818685e+00  7.837619e+00  # Hw SPCE
    152      51    4  -0.847600  9.188230e+00  4.885428e+00  7.821533e+00  # Ow SPCE
    153      51    3   0.423800  9.947239e+00  4.237539e+00  7.757147e+00  # Hw SPCE
    154      52    3   0.423800  1.913212e+01  1.999545e+01  1.375657e+01  # Hw SPCE
    155      52    4  -0.847600  1.977845e+01  1.954444e+01  1.437208e+01  # Ow SPCE
    156      52    3   0.423800  2.009170e+01  1.868964e+01  1.395831e+01  # Hw SPCE
    157      53    3   0.423800  2.488521e+00  4.298268e+00  1.662022e+01  # Hw SPCE
    158      53    4  -0.847600  3.439105e+00  4.019650e+00  1.675720e+01  # Ow SPCE
    159      53    3   0.423800  3.840963e+00  4.558416e+00  1.749763e+01  # Hw SPCE
    160      54    3   0.423800  8.720856e+00  1.200478e+01  2.905857e+00  # Hw SPCE
    161      54    4  -0.847600  8.109727e+00  1.255626e+01  2.338060e+00  # Ow SPCE
    162      54    3   0.423800  7.159796e+00  1.233215e+01  2.555793e+00  # Hw SPCE
    163      55    3   0.423800  1.270857e+01  1.035303e+01  5.382569e+00  # Hw SPCE
    164      55    4  -0.847600  1.322488e+01  9.496640e+00  5.388255e+00  # Ow SPCE
    165      55    3   0.423800  1.305339e+01  9.009733e+00  6.244710e+00  # Hw SPCE
    166      56    3   0.423800  1.684898e+01  2.523462e+01  1.822162e+01  # Hw SPCE
    167      56    4  -0.847600  1.664347e+01  2.603725e+01  1.878158e+01  # Ow SPCE
    168      56    3   0.423800  1.648466e+01  2.575236e+01  1.972689e+01  # Hw SPCE
    169      57    3   0.423800  1.020796e+01  2.594114e+01  7.868994e+00  # Hw SPCE
    170      57    4  -0.847600  1.048594e+01  2.681088e+01  8.276773e+00  # Ow SPCE
    171      57    3   0.423800  1.003609e+01  2.692243e+01  9.162888e+00  # Hw SPCE
    172      58    3   0.423800  2.300209e+01  1.144525e+01  1.973611e+01  # Hw SPCE
    173      58    4  -0.847600  2.326720e+01  1.069841e+01  2.034599e+01  # Ow SPCE
    174      58    3   0.423800  2.274079e+01  1.075787e+01  2.119414e+01  # Hw SPCE
    175      59    3   0.423800  1.609161e+01  1.214359e+01  1.492237e+00  # Hw SPCE
    176      59    4  -0.847600  1.690824e+01  1.157531e+01  1.593113e+00  # Ow SPCE
    177      59    3   0.423800  1.664177e+01  1.065885e+01  1.891605e+00  # Hw SPCE
    178      60    3   0.423800  2.419902e+01  2.411706e+01  6.611761e+00  # Hw SPCE
    179      60    4  -0.847600  2.467864e+01  2.498895e+01  6.710596e+00  # Ow SPCE
    180      60    3   0.423800  2.544873e+01  2.487644e+01  7.338537e+00  # Hw SPCE
    181      61    3   0.423800  1.196568e+01  5.594696e+00  6.473038e+00  # Hw SPCE
    182      61    4  -0.847600  1.199305e+01  6.536579e+00  6.807864e+00  # Ow SPCE
    183      61    3   0.423800  1.267510e+01  6.612062e+00  7.535263e+00  # Hw SPCE
    184      62    3   0.423800  1.669021e+01  8.472310e+00  7.036663e+00  # Hw SPCE
    185      62    4  -0.847600  1.572284e+01  8.690729e+00  6.908251e+00  # Ow SPCE
    186      62    3   0.423800  1.554585e+01  9.621300e+00  7.228737e+00  # Hw SPCE
    187      63    3   0.423800  1.821528e+01  1.487703e+01  1.756524e+01  # Hw SPCE
    188      63    4  -0.847600  1.872911e+01  1.551055e+01  1.814370e+01  # Ow SPCE
    189      63    3   0.423800  1.854708e+01  1.644985e+01  1.785290e+01  # Hw SPCE
    190      64    3   0.423800  7.984302e+00  1.799893e+01  1.529353e+00  # Hw SPCE
    191      64    4  -0.847600  8.826448e+00  1.746123e+01  1.488465e+00  # Ow SPCE
    192      64    3   0.423800  9.462122e+00  1.778360e+01  2.189889e+00  # Hw SPCE
    193      65    3   0.423800  2.562243e+01  6.741416e+00  1.403530e+01  # Hw SPCE
    194      65    4  -0.847600  2.622983e+01  6.086036e+00  1.448423e+01  # Ow SPCE
    195      65    3   0.423800  2.717413e+01  6.262256e+00  1.420632e+01  # Hw SPCE
    196      66    3   0.423800  2.512713e+01  2.094793e+00  1.358574e+01  # Hw SPCE
    197      66    4  -0.847600  2.434949e+01  1.495442e+00  1.339585e+01  # Ow SPCE
    198      66    3   0.423800  2.355565e+01  1.803117e+00  1.392040e+01  # Hw SPCE
    199      67    3   0.423800  9.301908e+00  1.331503e+01  2.358584e+01  # Hw SPCE
    200      67    4  -0.847600  8.584183e+00  1.395669e+01  2.331540e+01  # Ow SPCE
    201      67    3   0.423800  8.271122e+00  1.373659e+01  2.239153e+01  # Hw SPCE
    202      68    3   0.423800  9.955846e+00  1.273829e+01  6.296276e+00  # Hw SPCE
    203      68    4  -0.847600  1.056341e+01  1.199023e+01  6.029323e+00  # Ow SPCE
    204      68    3   0.423800  1.029850e+01  1.165171e+01  5.126425e+00  # Hw SPCE
    205      69    3   0.423800  1.595831e+01  4.015404e+00  2.177868e+01  # Hw SPCE
    206      69    4  -0.847600  1.665439e+01  3.881186e+00  2.248398e+01  # Ow SPCE
    207      69    3   0.423800  1.647833e+01  4.501446e+00  2.324836e+01  # Hw SPCE
    208      70    3   0.423800  1.191249e+01  1.053961e+01  1.614692e+01  # Hw SPCE
    209      70    4  -0.847600  1.285965e+01  1.031522e+01  1.591770e+01  # Ow SPCE
    210      70    3   0.423800  1.326240e+01  1.106545e+01  1.539335e+01  # Hw SPCE
    211      71    3   0.423800  2.756106e+01  7.219592e+00  3.733621e+00  # Hw SPCE
    212      71    4  -0.847600  2.673030e+01  7.191784e+00  3.177694e+00  # Ow SPCE
    213      71    3   0.423800  2.592863e+01  7.212180e+00  3.775112e+00  # Hw SPCE
    214      72    3   0.423800  1.619051e+01  4.555961e+00  1.375257e+01  # Hw SPCE
    215      72    4  -0.847600  1.693660e+01  4.702954e+00  1.310315e+01  # Ow SPCE
    216      72    3   0.423800  1.692272e+01  3.981627e+00  1.241069e+01  # Hw SPCE
    217      73    3   0.423800  2.233085e+01  2.254376e+01  2.509491e+01  # Hw SPCE
    218      73    4  -0.847600  2.137546e+01  2.283349e+01  2.503760e+01  # Ow SPCE
    219      73    3   0.423800  2.132827e+01  2.383218e+01  2.505737e+01  # Hw SPCE
    220      74    3   0.423800  4.614385e+00  2.266996e+01  1.754496e+01  # Hw SPCE
    221      74    4  -0.847600  5.529231e+00  2.271822e+01  1.794587e+01  # Ow SPCE
    222      74    3   0.423800  6.044304e+00  2.345795e+01  1.751287e+01  # Hw SPCE
    223      75    3   0.423800  2.221903e+01  7.556525e+00  1.516871e+01  # Hw SPCE
    224      75    4  -0.847600  2.250349e+01  7.635346e+00  1.421326e+01  # Ow SPCE
    225      75    3   0.423800  2.176672e+01  7.313720e+00  1.361852e+01  # Hw SPCE
    226      76    3   0.423800  2.629759e+01  1.920638e+01  2.353714e+01  # Hw SPCE
    227      76    4  -0.847600  2.715395e+01  1.902228e+01  2.401958e+01  # Ow SPCE
    228      76    3   0.423800  2.770506e+01  1.837985e+01  2.348707e+01  # Hw SPCE
    229      77    3   0.423800  4.143809e+00  1.561555e+01  8.018737e+00  # Hw SPCE
    230      77    4  -0.847600  4.614959e+00  1.553180e+01  8.896805e+00  # Ow SPCE
    231      77    3   0.423800  4.199222e+00  1.615528e+01  9.558946e+00  # Hw SPCE
    232      78    3   0.423800  9.954198e+00  1.261788e+01  1.237010e+01  # Hw SPCE
    233      78    4  -0.847600  9.562880e+00  1.353598e+01  1.243307e+01  # Ow SPCE
    234      78    3   0.423800  8.569485e+00  1.346921e+01  1.252638e+01  # Hw SPCE
    235      79    3   0.423800  2.332846e+01  2.323923e+01  3.781581e+00  # Hw SPCE
    236      79    4  -0.847600  2.276687e+01  2.256928e+01  3.296002e+00  # Ow SPCE
    237      79    3   0.423800  2.333089e+01  2.178393e+01  3.040806e+00  # Hw SPCE
    238      80    3   0.423800  1.563376e+01  9.681389e+00  1.524542e+01  # Hw SPCE
    239      80    4  -0.847600  1.641808e+01  9.172361e+00  1.559999e+01  # Ow SPCE
    240      80    3   0.423800  1.655877e+01  9.404722e+00  1.656239e+01  # Hw SPCE
    241      81    3   0.423800  3.016047e+00  1.608090e+01  2.770691e+01  # Hw SPCE
    242      81    4  -0.847600  3.873141e+00  1.658768e+01  2.761432e+01  # Ow SPCE
    243      81    3   0.423800  4.041570e+00  1.678405e+01  2.664837e+01  # Hw SPCE
    244      82    3   0.423800  2.553862e+01  1.927894e+01  1.283389e+01  # Hw SPCE
    245      82    4  -0.847600  2.595825e+01  2.010455e+01  1.321108e+01  # Ow SPCE
    246      82    3   0.423800  2.694466e+01  1.996635e+01  1.329986e+01  # Hw SPCE
    247      83    3   0.423800  1.446078e+01  5.122478e+00  1.975466e+01  # Hw SPCE
    248      83    4  -0.847600  1.399157e+01  5.719286e+00  1.910377e+01  # Ow SPCE
    249      83    3   0.423800  1.387428e+01  6.626403e+00  1.950797e+01  # Hw SPCE
    250      84    3   0.423800  4.975267e+00  1.195188e+01  1.361200e+01  # Hw SPCE
    251      84    4  -0.847600  5.863360e+00  1.223599e+01  1.397335e+01  # Ow SPCE
    252      84    3   0.423800  6.001585e+00  1.182880e+01  1.487617e+01  # Hw SPCE
    253      85    3   0.423800  1.729394e+01  2.690297e+01  2.489413e+01  # Hw SPCE
    254      85    4  -0.847600  1.798622e+01  2.618717e+01  2.498570e+01  # Ow SPCE
    255      85    3   0.423800  1.753851e+01  2.531197e+01  2.516899e+01  # Hw SPCE
    256      86    3   0.423800  1.443295e+01  1.369845e+01  9.542794e+00  # Hw SPCE
    257      86    4  -0.847600  1.453225e+01  1.337010e+01  1.048212e+01  # Ow SPCE
    258      86    3   0.423800  1.407152e+01  1.248767e+01  1.057721e+01  # Hw SPCE
    259      87    3   0.423800  1.481041e+01  9.892914e+00  2.769929e+01  # Hw SPCE
    260      87    4  -0.847600  1.474545e+01  1.089078e+01  2.770556e+01  # Ow SPCE
    261      87    3   0.423800  1.566461e+01  1.128460e+01  2.771213e+01  # Hw SPCE
    262      88    3   0.423800  2.711944e+01  2.239741e+00  7.551846e+00  # Hw SPCE
    263      88    4  -0.847600  2.613715e+01  2.417616e+00  7.610794e+00  # Ow SPCE
    264      88    3   0.423800  2.588056e+01  2.557524e+00  8.567132e+00  # Hw SPCE
    265      89    3   0.423800  1.579109e+01  5.900382e+00  6.668995e+00  # Hw SPCE
    266      89    4  -0.847600  1.499190e+01  6.158630e+00  6.126217e+00  # Ow SPCE
    267      89    3   0.423800  1.487648e+01  5.510338e+00  5.373624e+00  # Hw SPCE
    268      90    3   0.423800  2.133610e+01  1.746297e+01  9.335501e+00  # Hw SPCE
    269      90    4  -0.847600  2.057506e+01  1.754198e+01  8.691632e+00  # Ow SPCE
    270      90    3   0.423800  2.092169e+01  1.747499e+01  7.756026e+00  # Hw SPCE
    271      91    3   0.423800  5.764508e+00  6.459756e+00  1.799860e+01  # Hw SPCE
    272      91    4  -0.847600  6.332363e+00  5.967190e+00  1.865808e+01  # Ow SPCE
    273      91    3   0.423800  6.766765e+00  6.620913e+00  1.927772e+01  # Hw SPCE
    274      92    3   0.423800  1.519730e+01  1.983322e+01  1.921450e+01  # Hw SPCE
    275      92    4  -0.847600  1.593017e+01  1.916543e+01  1.908429e+01  # Ow SPCE
    276      92    3   0.423800  1.663520e+01  1.955553e+01  1.849204e+01  # Hw SPCE
    277      93    3   0.423800  2.313253e+00  7.250692e+00  1.329362e+01  # Hw SPCE
    278      93    4  -0.847600  1.488319e+00  7.811762e+00  1.322518e+01  # Ow SPCE
    279      93    3   0.423800  1.540991e+00  8.563456e+00  1.388259e+01  # Hw SPCE
    280      94    3   0.423800  2.611731e+01  1.202552e+01  1.053768e+01  # Hw SPCE
    281      94    4  -0.847600  2.710862e+01  1.215596e+01  1.052099e+01  # Ow SPCE
    282      94    3   0.423800  2.756049e+01  1.126726e+01  1.044331e+01  # Hw SPCE
    283      95    3   0.423800  6.603696e+00  2.054040e+01  1.298798e+01  # Hw SPCE
    284      95    4  -0.847600  5.882293e+00  2.028304e+01  1.234506e+01  # Ow SPCE
    285      95    3   0.423800  6.172577e+00  2.050160e+01  1.141341e+01  # Hw SPCE
    286      96    3   0.423800  2.098737e+01  6.874062e+00  1.013861e+01  # Hw SPCE
    287      96    4  -0.847600  2.156028e+01  7.451122e+00  1.072066e+01  # Ow SPCE
    288      96    3   0.423800  2.195352e+01  8.190100e+00  1.017360e+01  # Hw SPCE
    289      97    3   0.423800  5.786826e+00  1.087307e+01  1.086502e+01  # Hw SPCE
    290      97    4  -0.847600  6.324427e+00  1.163284e+01  1.123071e+01  # Ow SPCE
    291      97    3   0.423800  7.142246e+00  1.127568e+01  1.168194e+01  # Hw SPCE
    292      98    3   0.423800  1.143842e+01  2.119323e+01  8.871945e+00  # Hw SPCE
    293      98    4  -0.847600  1.139221e+01  2.127877e+01  7.876682e+00  # Ow SPCE
    294      98    3   0.423800  1.071119e+01  2.064007e+01  7.518516e+00  # Hw SPCE
    295      99    3   0.423800  5.459585e+00  2.383383e+01  5.598160e+00  # Hw SPCE
    296      99    4  -0.847600  5.520099e+00  2.482379e+01  5.470403e+00  # Ow SPCE
    297      99    3   0.423800  5.586370e+00  2.503046e+01  4.494238e+00  # Hw SPCE
    298     100    3   0.423800  2.264458e+00  7.960990e+00  2.770952e+01  # Hw SPCE
    299     100    4  -0.847600  2.090525e+00  8.160734e+00  2.674523e+01  # Ow SPCE
    300     100    3   0.423800  1.495909e+00  7.454707e+00  2.636058e+01  # Hw SPCE
    301     101    3   0.423800  7.095393e+00  1.940453e+01  2.544132e+01  # Hw SPCE
    302     101    4  -0.847600  6.237306e+00  1.963392e+01  2.498190e+01  # Ow SPCE
    303     101    3   0.423800  5.644089e+00  1.882911e+01  2.496253e+01  # Hw SPCE
    304     102    3   0.423800  1.499078e+00  3.404424e+00  2.770580e+01  # Hw SPCE
    305     102    4  -0.847600  2.042815e+00  3.910224e+00  2.703609e+01  # Ow SPCE
    306     102    3   0.423800  1.977853e+00  4.889953e+00  2.722559e+01  # Hw SPCE
    307     103    3   0.423800  5.115452e+00  2.292057e+01  1.247440e+01  # Hw SPCE
    308     103    4  -0.847600  5.773141e+00  2.354653e+01  1.205533e+01  # Ow SPCE
    309     103    3   0.423800  6.680714e+00  2.312664e+01  1.205713e+01  # Hw SPCE
    310     104    3   0.423800  1.944181e+01  2.324594e+01  1.499570e+00  # Hw SPCE
    311     104    4  -0.847600  2.043993e+01  2.318469e+01  1.499022e+00  # Ow SPCE
    312     104    3   0.423800  2.071487e+01  2.222323e+01  1.498289e+00  # Hw SPCE
    313     105    3   0.423800  1.030626e+01  8.957281e+00  6.373247e+00  # Hw SPCE
    314     105    4  -0.847600  9.786014e+00  8.104555e+00  6.326252e+00  # Ow SPCE
    315     105    3   0.423800  8.880748e+00  8.243851e+00  6.727613e+00  # Hw SPCE
    316     106    3   0.423800  1.864859e+01  1.763094e+00  1.290621e+01  # Hw SPCE
    317     106    4  -0.847600  1.923656e+01  2.571543e+00  1.287976e+01  # Ow SPCE
    318     106    3   0.423800  2.017824e+01  2.292795e+00  1.269123e+01  # Hw SPCE
    319     107    3   0.423800  2.129031e+00  5.623946e+00  1.104896e+01  # Hw SPCE
    320     107    4  -0.847600  1.506474e+00  5.035776e+00  1.053275e+01  # Ow SPCE
    321     107    3   0.423800  1.486177e+00  4.126233e+00  1.094786e+01  # Hw SPCE
    322     108    3   0.423800  2.212734e+01  1.355457e+01  3.475366e+00  # Hw SPCE
    323     108    4  -0.847600  2.189942e+01  1.348653e+01  4.446665e+00  # Ow SPCE
    324     108    3   0.423800  2.141982e+01  1.431518e+01  4.735327e+00  # Hw SPCE
    325     109    3   0.423800  2.714041e+01  9.226233e+00  1.942138e+01  # Hw SPCE
    326     109    4  -0.847600  2.695029e+01  1.019981e+01  1.954785e+01  # Ow SPCE
    327     109    3   0.423800  2.770446e+01  1.073827e+01  1.917198e+01  # Hw SPCE
    328     110    3   0.423800  1.145913e+01  1.921390e+01  1.496917e+01  # Hw SPCE
    329     110    4  -0.847600  1.131470e+01  2.018773e+01  1.479367e+01  # Ow SPCE
    330     110    3   0.423800  1.033642e+01  2.036578e+01  1.468754e+01  # Hw SPCE
    331     111    3   0.423800  4.274133e+00  2.306189e+00  2.713568e+01  # Hw SPCE
    332     111    4  -0.847600  4.237246e+00  1.500039e+00  2.654512e+01  # Ow SPCE
    333     111    3   0.423800  3.652688e+00  1.690998e+00  2.575656e+01  # Hw SPCE
    334     112    3   0.423800  2.374365e+01  4.285483e+00  2.548838e+01  # Hw SPCE
    335     112    4  -0.847600  2.363447e+01  3.410101e+00  2.501744e+01  # Ow SPCE
    336     112    3   0.423800  2.453520e+01  3.022399e+00  2.482154e+01  # Hw SPCE
    337     113    3   0.423800  2.147633e+01  2.400029e+01  6.981339e+00  # Hw SPCE
    338     113    4  -0.847600  2.070482e+01  2.460854e+01  6.794782e+00  # Ow SPCE
    339     113    3   0.423800  2.100757e+01  2.555958e+01  6.856910e+00  # Hw SPCE
    340     114    3   0.423800  2.475952e+01  2.542350e+01  2.655084e+01  # Hw SPCE
    341     114    4  -0.847600  2.490466e+01  2.505812e+01  2.563137e+01  # Ow SPCE
    342     114    3   0.423800  2.404295e+01  2.469469e+01  2.527727e+01  # Hw SPCE
    343     115    3   0.423800  2.160335e+01  2.393199e+01  1.009846e+01  # Hw SPCE
    344     115    4  -0.847600  2.078275e+01  2.449002e+01  1.022179e+01  # Ow SPCE
    345     115    3   0.423800  2.003750e+01  2.411294e+01  9.671860e+00  # Hw SPCE
    346     116    3   0.423800  1.865506e+01  2.117845e+01  1.756982e+01  # Hw SPCE
    347     116    4  -0.847600  1.807847e+01  2.183151e+01  1.707884e+01  # Ow SPCE
    348     116    3   0.423800  1.837699e+01  2.276271e+01  1.728801e+01  # Hw SPCE