Created by AJB

3456 atoms                      
2 atom types            

0 100.224 xlo xhi       
0 100.224 ylo yhi       
0 100.224 zlo zhi       

Masses                          

1 6.941 # Li nuclei
2 1.000 # electrons       

Atoms                           

1  1  3.00  0  0.00000  8.35200  8.35200  8.35200
2  1  3.00  0  0.00000  16.70400  16.70400  8.35200
3  1  3.00  0  0.00000  8.35200  16.70400  16.70400
4  1  3.00  0  0.00000  16.70400  8.35200  16.70400
5  1  3.00  0  0.00000  8.35200  8.35200  25.05600
6  1  3.00  0  0.00000  16.70400  16.70400  25.05600
7  1  3.00  0  0.00000  8.35200  16.70400  33.40800
8  1  3.00  0  0.00000  16.70400  8.35200  33.40800
9  1  3.00  0  0.00000  8.35200  8.35200  41.76000
10  1  3.00  0  0.00000  16.70400  16.70400  41.76000
11  1  3.00  0  0.00000  8.35200  16.70400  50.11200
12  1  3.00  0  0.00000  16.70400  8.35200  50.11200
13  1  3.00  0  0.00000  8.35200  8.35200  58.46400
14  1  3.00  0  0.00000  16.70400  16.70400  58.46400
15  1  3.00  0  0.00000  8.35200  16.70400  66.81600
16  1  3.00  0  0.00000  16.70400  8.35200  66.81600
17  1  3.00  0  0.00000  8.35200  8.35200  75.16800
18  1  3.00  0  0.00000  16.70400  16.70400  75.16800
19  1  3.00  0  0.00000  8.35200  16.70400  83.52000
20  1  3.00  0  0.00000  16.70400  8.35200  83.52000
21  1  3.00  0  0.00000  8.35200  8.35200  91.87200
22  1  3.00  0  0.00000  16.70400  16.70400  91.87200
23  1  3.00  0  0.00000  8.35200  16.70400  100.22400
24  1  3.00  0  0.00000  16.70400  8.35200  100.22400
25  1  3.00  0  0.00000  8.35200  25.05600  8.35200
26  1  3.00  0  0.00000  16.70400  33.40800  8.35200
27  1  3.00  0  0.00000  8.35200  33.40800  16.70400
28  1  3.00  0  0.00000  16.70400  25.05600  16.70400
29  1  3.00  0  0.00000  8.35200  25.05600  25.05600
30  1  3.00  0  0.00000  16.70400  33.40800  25.05600
31  1  3.00  0  0.00000  8.35200  33.40800  33.40800
32  1  3.00  0  0.00000  16.70400  25.05600  33.40800
33  1  3.00  0  0.00000  8.35200  25.05600  41.76000
34  1  3.00  0  0.00000  16.70400  33.40800  41.76000
35  1  3.00  0  0.00000  8.35200  33.40800  50.11200
36  1  3.00  0  0.00000  16.70400  25.05600  50.11200
37  1  3.00  0  0.00000  8.35200  25.05600  58.46400
38  1  3.00  0  0.00000  16.70400  33.40800  58.46400
39  1  3.00  0  0.00000  8.35200  33.40800  66.81600
40  1  3.00  0  0.00000  16.70400  25.05600  66.81600
41  1  3.00  0  0.00000  8.35200  25.05600  75.16800
42  1  3.00  0  0.00000  16.70400  33.40800  75.16800
43  1  3.00  0  0.00000  8.35200  33.40800  83.52000
44  1  3.00  0  0.00000  16.70400  25.05600  83.52000
45  1  3.00  0  0.00000  8.35200  25.05600  91.87200
46  1  3.00  0  0.00000  16.70400  33.40800  91.87200
47  1  3.00  0  0.00000  8.35200  33.40800  100.22400
48  1  3.00  0  0.00000  16.70400  25.05600  100.22400
49  1  3.00  0  0.00000  8.35200  41.76000  8.35200
50  1  3.00  0  0.00000  16.70400  50.11200  8.35200
51  1  3.00  0  0.00000  8.35200  50.11200  16.70400
52  1  3.00  0  0.00000  16.70400  41.76000  16.70400
53  1  3.00  0  0.00000  8.35200  41.76000  25.05600
54  1  3.00  0  0.00000  16.70400  50.11200  25.05600
55  1  3.00  0  0.00000  8.35200  50.11200  33.40800
56  1  3.00  0  0.00000  16.70400  41.76000  33.40800
57  1  3.00  0  0.00000  8.35200  41.76000  41.76000
58  1  3.00  0  0.00000  16.70400  50.11200  41.76000
59  1  3.00  0  0.00000  8.35200  50.11200  50.11200
60  1  3.00  0  0.00000  16.70400  41.76000  50.11200
61  1  3.00  0  0.00000  8.35200  41.76000  58.46400
62  1  3.00  0  0.00000  16.70400  50.11200  58.46400
63  1  3.00  0  0.00000  8.35200  50.11200  66.81600
64  1  3.00  0  0.00000  16.70400  41.76000  66.81600
65  1  3.00  0  0.00000  8.35200  41.76000  75.16800
66  1  3.00  0  0.00000  16.70400  50.11200  75.16800
67  1  3.00  0  0.00000  8.35200  50.11200  83.52000
68  1  3.00  0  0.00000  16.70400  41.76000  83.52000
69  1  3.00  0  0.00000  8.35200  41.76000  91.87200
70  1  3.00  0  0.00000  16.70400  50.11200  91.87200
71  1  3.00  0  0.00000  8.35200  50.11200  100.22400
72  1  3.00  0  0.00000  16.70400  41.76000  100.22400
73  1  3.00  0  0.00000  8.35200  58.46400  8.35200
74  1  3.00  0  0.00000  16.70400  66.81600  8.35200
75  1  3.00  0  0.00000  8.35200  66.81600  16.70400
76  1  3.00  0  0.00000  16.70400  58.46400  16.70400
77  1  3.00  0  0.00000  8.35200  58.46400  25.05600
78  1  3.00  0  0.00000  16.70400  66.81600  25.05600
79  1  3.00  0  0.00000  8.35200  66.81600  33.40800
80  1  3.00  0  0.00000  16.70400  58.46400  33.40800
81  1  3.00  0  0.00000  8.35200  58.46400  41.76000
82  1  3.00  0  0.00000  16.70400  66.81600  41.76000
83  1  3.00  0  0.00000  8.35200  66.81600  50.11200
84  1  3.00  0  0.00000  16.70400  58.46400  50.11200
85  1  3.00  0  0.00000  8.35200  58.46400  58.46400
86  1  3.00  0  0.00000  16.70400  66.81600  58.46400
87  1  3.00  0  0.00000  8.35200  66.81600  66.81600
88  1  3.00  0  0.00000  16.70400  58.46400  66.81600
89  1  3.00  0  0.00000  8.35200  58.46400  75.16800
90  1  3.00  0  0.00000  16.70400  66.81600  75.16800
91  1  3.00  0  0.00000  8.35200  66.81600  83.52000
92  1  3.00  0  0.00000  16.70400  58.46400  83.52000
93  1  3.00  0  0.00000  8.35200  58.46400  91.87200
94  1  3.00  0  0.00000  16.70400  66.81600  91.87200
95  1  3.00  0  0.00000  8.35200  66.81600  100.22400
96  1  3.00  0  0.00000  16.70400  58.46400  100.22400
97  1  3.00  0  0.00000  8.35200  75.16800  8.35200
98  1  3.00  0  0.00000  16.70400  83.52000  8.35200
99  1  3.00  0  0.00000  8.35200  83.52000  16.70400
100  1  3.00  0  0.00000  16.70400  75.16800  16.70400
101  1  3.00  0  0.00000  8.35200  75.16800  25.05600
102  1  3.00  0  0.00000  16.70400  83.52000  25.05600
103  1  3.00  0  0.00000  8.35200  83.52000  33.40800
104  1  3.00  0  0.00000  16.70400  75.16800  33.40800
105  1  3.00  0  0.00000  8.35200  75.16800  41.76000
106  1  3.00  0  0.00000  16.70400  83.52000  41.76000
107  1  3.00  0  0.00000  8.35200  83.52000  50.11200
108  1  3.00  0  0.00000  16.70400  75.16800  50.11200
109  1  3.00  0  0.00000  8.35200  75.16800  58.46400
110  1  3.00  0  0.00000  16.70400  83.52000  58.46400
111  1  3.00  0  0.00000  8.35200  83.52000  66.81600
112  1  3.00  0  0.00000  16.70400  75.16800  66.81600
113  1  3.00  0  0.00000  8.35200  75.16800  75.16800
114  1  3.00  0  0.00000  16.70400  83.52000  75.16800
115  1  3.00  0  0.00000  8.35200  83.52000  83.52000
116  1  3.00  0  0.00000  16.70400  75.16800  83.52000
117  1  3.00  0  0.00000  8.35200  75.16800  91.87200
118  1  3.00  0  0.00000  16.70400  83.52000  91.87200
119  1  3.00  0  0.00000  8.35200  83.52000  100.22400
120  1  3.00  0  0.00000  16.70400  75.16800  100.22400
121  1  3.00  0  0.00000  8.35200  91.87200  8.35200
122  1  3.00  0  0.00000  16.70400  100.22400  8.35200
123  1  3.00  0  0.00000  8.35200  100.22400  16.70400
124  1  3.00  0  0.00000  16.70400  91.87200  16.70400
125  1  3.00  0  0.00000  8.35200  91.87200  25.05600
126  1  3.00  0  0.00000  16.70400  100.22400  25.05600
127  1  3.00  0  0.00000  8.35200  100.22400  33.40800
128  1  3.00  0  0.00000  16.70400  91.87200  33.40800
129  1  3.00  0  0.00000  8.35200  91.87200  41.76000
130  1  3.00  0  0.00000  16.70400  100.22400  41.76000
131  1  3.00  0  0.00000  8.35200  100.22400  50.11200
132  1  3.00  0  0.00000  16.70400  91.87200  50.11200
133  1  3.00  0  0.00000  8.35200  91.87200  58.46400
134  1  3.00  0  0.00000  16.70400  100.22400  58.46400
135  1  3.00  0  0.00000  8.35200  100.22400  66.81600
136  1  3.00  0  0.00000  16.70400  91.87200  66.81600
137  1  3.00  0  0.00000  8.35200  91.87200  75.16800
138  1  3.00  0  0.00000  16.70400  100.22400  75.16800
139  1  3.00  0  0.00000  8.35200  100.22400  83.52000
140  1  3.00  0  0.00000  16.70400  91.87200  83.52000
141  1  3.00  0  0.00000  8.35200  91.87200  91.87200
142  1  3.00  0  0.00000  16.70400  100.22400  91.87200
143  1  3.00  0  0.00000  8.35200  100.22400  100.22400
144  1  3.00  0  0.00000  16.70400  91.87200  100.22400
145  1  3.00  0  0.00000  25.05600  8.35200  8.35200
146  1  3.00  0  0.00000  33.40800  16.70400  8.35200
147  1  3.00  0  0.00000  25.05600  16.70400  16.70400
148  1  3.00  0  0.00000  33.40800  8.35200  16.70400
149  1  3.00  0  0.00000  25.05600  8.35200  25.05600
150  1  3.00  0  0.00000  33.40800  16.70400  25.05600
151  1  3.00  0  0.00000  25.05600  16.70400  33.40800
152  1  3.00  0  0.00000  33.40800  8.35200  33.40800
153  1  3.00  0  0.00000  25.05600  8.35200  41.76000
154  1  3.00  0  0.00000  33.40800  16.70400  41.76000
155  1  3.00  0  0.00000  25.05600  16.70400  50.11200
156  1  3.00  0  0.00000  33.40800  8.35200  50.11200
157  1  3.00  0  0.00000  25.05600  8.35200  58.46400
158  1  3.00  0  0.00000  33.40800  16.70400  58.46400
159  1  3.00  0  0.00000  25.05600  16.70400  66.81600
160  1  3.00  0  0.00000  33.40800  8.35200  66.81600
161  1  3.00  0  0.00000  25.05600  8.35200  75.16800
162  1  3.00  0  0.00000  33.40800  16.70400  75.16800
163  1  3.00  0  0.00000  25.05600  16.70400  83.52000
164  1  3.00  0  0.00000  33.40800  8.35200  83.52000
165  1  3.00  0  0.00000  25.05600  8.35200  91.87200
166  1  3.00  0  0.00000  33.40800  16.70400  91.87200
167  1  3.00  0  0.00000  25.05600  16.70400  100.22400
168  1  3.00  0  0.00000  33.40800  8.35200  100.22400
169  1  3.00  0  0.00000  25.05600  25.05600  8.35200
170  1  3.00  0  0.00000  33.40800  33.40800  8.35200
171  1  3.00  0  0.00000  25.05600  33.40800  16.70400
172  1  3.00  0  0.00000  33.40800  25.05600  16.70400
173  1  3.00  0  0.00000  25.05600  25.05600  25.05600
174  1  3.00  0  0.00000  33.40800  33.40800  25.05600
175  1  3.00  0  0.00000  25.05600  33.40800  33.40800
176  1  3.00  0  0.00000  33.40800  25.05600  33.40800
177  1  3.00  0  0.00000  25.05600  25.05600  41.76000
178  1  3.00  0  0.00000  33.40800  33.40800  41.76000
179  1  3.00  0  0.00000  25.05600  33.40800  50.11200
180  1  3.00  0  0.00000  33.40800  25.05600  50.11200
181  1  3.00  0  0.00000  25.05600  25.05600  58.46400
182  1  3.00  0  0.00000  33.40800  33.40800  58.46400
183  1  3.00  0  0.00000  25.05600  33.40800  66.81600
184  1  3.00  0  0.00000  33.40800  25.05600  66.81600
185  1  3.00  0  0.00000  25.05600  25.05600  75.16800
186  1  3.00  0  0.00000  33.40800  33.40800  75.16800
187  1  3.00  0  0.00000  25.05600  33.40800  83.52000
188  1  3.00  0  0.00000  33.40800  25.05600  83.52000
189  1  3.00  0  0.00000  25.05600  25.05600  91.87200
190  1  3.00  0  0.00000  33.40800  33.40800  91.87200
191  1  3.00  0  0.00000  25.05600  33.40800  100.22400
192  1  3.00  0  0.00000  33.40800  25.05600  100.22400
193  1  3.00  0  0.00000  25.05600  41.76000  8.35200
194  1  3.00  0  0.00000  33.40800  50.11200  8.35200
195  1  3.00  0  0.00000  25.05600  50.11200  16.70400
196  1  3.00  0  0.00000  33.40800  41.76000  16.70400
197  1  3.00  0  0.00000  25.05600  41.76000  25.05600
198  1  3.00  0  0.00000  33.40800  50.11200  25.05600
199  1  3.00  0  0.00000  25.05600  50.11200  33.40800
200  1  3.00  0  0.00000  33.40800  41.76000  33.40800
201  1  3.00  0  0.00000  25.05600  41.76000  41.76000
202  1  3.00  0  0.00000  33.40800  50.11200  41.76000
203  1  3.00  0  0.00000  25.05600  50.11200  50.11200
204  1  3.00  0  0.00000  33.40800  41.76000  50.11200
205  1  3.00  0  0.00000  25.05600  41.76000  58.46400
206  1  3.00  0  0.00000  33.40800  50.11200  58.46400
207  1  3.00  0  0.00000  25.05600  50.11200  66.81600
208  1  3.00  0  0.00000  33.40800  41.76000  66.81600
209  1  3.00  0  0.00000  25.05600  41.76000  75.16800
210  1  3.00  0  0.00000  33.40800  50.11200  75.16800
211  1  3.00  0  0.00000  25.05600  50.11200  83.52000
212  1  3.00  0  0.00000  33.40800  41.76000  83.52000
213  1  3.00  0  0.00000  25.05600  41.76000  91.87200
214  1  3.00  0  0.00000  33.40800  50.11200  91.87200
215  1  3.00  0  0.00000  25.05600  50.11200  100.22400
216  1  3.00  0  0.00000  33.40800  41.76000  100.22400
217  1  3.00  0  0.00000  25.05600  58.46400  8.35200
218  1  3.00  0  0.00000  33.40800  66.81600  8.35200
219  1  3.00  0  0.00000  25.05600  66.81600  16.70400
220  1  3.00  0  0.00000  33.40800  58.46400  16.70400
221  1  3.00  0  0.00000  25.05600  58.46400  25.05600
222  1  3.00  0  0.00000  33.40800  66.81600  25.05600
223  1  3.00  0  0.00000  25.05600  66.81600  33.40800
224  1  3.00  0  0.00000  33.40800  58.46400  33.40800
225  1  3.00  0  0.00000  25.05600  58.46400  41.76000
226  1  3.00  0  0.00000  33.40800  66.81600  41.76000
227  1  3.00  0  0.00000  25.05600  66.81600  50.11200
228  1  3.00  0  0.00000  33.40800  58.46400  50.11200
229  1  3.00  0  0.00000  25.05600  58.46400  58.46400
230  1  3.00  0  0.00000  33.40800  66.81600  58.46400
231  1  3.00  0  0.00000  25.05600  66.81600  66.81600
232  1  3.00  0  0.00000  33.40800  58.46400  66.81600
233  1  3.00  0  0.00000  25.05600  58.46400  75.16800
234  1  3.00  0  0.00000  33.40800  66.81600  75.16800
235  1  3.00  0  0.00000  25.05600  66.81600  83.52000
236  1  3.00  0  0.00000  33.40800  58.46400  83.52000
237  1  3.00  0  0.00000  25.05600  58.46400  91.87200
238  1  3.00  0  0.00000  33.40800  66.81600  91.87200
239  1  3.00  0  0.00000  25.05600  66.81600  100.22400
240  1  3.00  0  0.00000  33.40800  58.46400  100.22400
241  1  3.00  0  0.00000  25.05600  75.16800  8.35200
242  1  3.00  0  0.00000  33.40800  83.52000  8.35200
243  1  3.00  0  0.00000  25.05600  83.52000  16.70400
244  1  3.00  0  0.00000  33.40800  75.16800  16.70400
245  1  3.00  0  0.00000  25.05600  75.16800  25.05600
246  1  3.00  0  0.00000  33.40800  83.52000  25.05600
247  1  3.00  0  0.00000  25.05600  83.52000  33.40800
248  1  3.00  0  0.00000  33.40800  75.16800  33.40800
249  1  3.00  0  0.00000  25.05600  75.16800  41.76000
250  1  3.00  0  0.00000  33.40800  83.52000  41.76000
251  1  3.00  0  0.00000  25.05600  83.52000  50.11200
252  1  3.00  0  0.00000  33.40800  75.16800  50.11200
253  1  3.00  0  0.00000  25.05600  75.16800  58.46400
254  1  3.00  0  0.00000  33.40800  83.52000  58.46400
255  1  3.00  0  0.00000  25.05600  83.52000  66.81600
256  1  3.00  0  0.00000  33.40800  75.16800  66.81600
257  1  3.00  0  0.00000  25.05600  75.16800  75.16800
258  1  3.00  0  0.00000  33.40800  83.52000  75.16800
259  1  3.00  0  0.00000  25.05600  83.52000  83.52000
260  1  3.00  0  0.00000  33.40800  75.16800  83.52000
261  1  3.00  0  0.00000  25.05600  75.16800  91.87200
262  1  3.00  0  0.00000  33.40800  83.52000  91.87200
263  1  3.00  0  0.00000  25.05600  83.52000  100.22400
264  1  3.00  0  0.00000  33.40800  75.16800  100.22400
265  1  3.00  0  0.00000  25.05600  91.87200  8.35200
266  1  3.00  0  0.00000  33.40800  100.22400  8.35200
267  1  3.00  0  0.00000  25.05600  100.22400  16.70400
268  1  3.00  0  0.00000  33.40800  91.87200  16.70400
269  1  3.00  0  0.00000  25.05600  91.87200  25.05600
270  1  3.00  0  0.00000  33.40800  100.22400  25.05600
271  1  3.00  0  0.00000  25.05600  100.22400  33.40800
272  1  3.00  0  0.00000  33.40800  91.87200  33.40800
273  1  3.00  0  0.00000  25.05600  91.87200  41.76000
274  1  3.00  0  0.00000  33.40800  100.22400  41.76000
275  1  3.00  0  0.00000  25.05600  100.22400  50.11200
276  1  3.00  0  0.00000  33.40800  91.87200  50.11200
277  1  3.00  0  0.00000  25.05600  91.87200  58.46400
278  1  3.00  0  0.00000  33.40800  100.22400  58.46400
279  1  3.00  0  0.00000  25.05600  100.22400  66.81600
280  1  3.00  0  0.00000  33.40800  91.87200  66.81600
281  1  3.00  0  0.00000  25.05600  91.87200  75.16800
282  1  3.00  0  0.00000  33.40800  100.22400  75.16800
283  1  3.00  0  0.00000  25.05600  100.22400  83.52000
284  1  3.00  0  0.00000  33.40800  91.87200  83.52000
285  1  3.00  0  0.00000  25.05600  91.87200  91.87200
286  1  3.00  0  0.00000  33.40800  100.22400  91.87200
287  1  3.00  0  0.00000  25.05600  100.22400  100.22400
288  1  3.00  0  0.00000  33.40800  91.87200  100.22400
289  1  3.00  0  0.00000  41.76000  8.35200  8.35200
290  1  3.00  0  0.00000  50.11200  16.70400  8.35200
291  1  3.00  0  0.00000  41.76000  16.70400  16.70400
292  1  3.00  0  0.00000  50.11200  8.35200  16.70400
293  1  3.00  0  0.00000  41.76000  8.35200  25.05600
294  1  3.00  0  0.00000  50.11200  16.70400  25.05600
295  1  3.00  0  0.00000  41.76000  16.70400  33.40800
296  1  3.00  0  0.00000  50.11200  8.35200  33.40800
297  1  3.00  0  0.00000  41.76000  8.35200  41.76000
298  1  3.00  0  0.00000  50.11200  16.70400  41.76000
299  1  3.00  0  0.00000  41.76000  16.70400  50.11200
300  1  3.00  0  0.00000  50.11200  8.35200  50.11200
301  1  3.00  0  0.00000  41.76000  8.35200  58.46400
302  1  3.00  0  0.00000  50.11200  16.70400  58.46400
303  1  3.00  0  0.00000  41.76000  16.70400  66.81600
304  1  3.00  0  0.00000  50.11200  8.35200  66.81600
305  1  3.00  0  0.00000  41.76000  8.35200  75.16800
306  1  3.00  0  0.00000  50.11200  16.70400  75.16800
307  1  3.00  0  0.00000  41.76000  16.70400  83.52000
308  1  3.00  0  0.00000  50.11200  8.35200  83.52000
309  1  3.00  0  0.00000  41.76000  8.35200  91.87200
310  1  3.00  0  0.00000  50.11200  16.70400  91.87200
311  1  3.00  0  0.00000  41.76000  16.70400  100.22400
312  1  3.00  0  0.00000  50.11200  8.35200  100.22400
313  1  3.00  0  0.00000  41.76000  25.05600  8.35200
314  1  3.00  0  0.00000  50.11200  33.40800  8.35200
315  1  3.00  0  0.00000  41.76000  33.40800  16.70400
316  1  3.00  0  0.00000  50.11200  25.05600  16.70400
317  1  3.00  0  0.00000  41.76000  25.05600  25.05600
318  1  3.00  0  0.00000  50.11200  33.40800  25.05600
319  1  3.00  0  0.00000  41.76000  33.40800  33.40800
320  1  3.00  0  0.00000  50.11200  25.05600  33.40800
321  1  3.00  0  0.00000  41.76000  25.05600  41.76000
322  1  3.00  0  0.00000  50.11200  33.40800  41.76000
323  1  3.00  0  0.00000  41.76000  33.40800  50.11200
324  1  3.00  0  0.00000  50.11200  25.05600  50.11200
325  1  3.00  0  0.00000  41.76000  25.05600  58.46400
326  1  3.00  0  0.00000  50.11200  33.40800  58.46400
327  1  3.00  0  0.00000  41.76000  33.40800  66.81600
328  1  3.00  0  0.00000  50.11200  25.05600  66.81600
329  1  3.00  0  0.00000  41.76000  25.05600  75.16800
330  1  3.00  0  0.00000  50.11200  33.40800  75.16800
331  1  3.00  0  0.00000  41.76000  33.40800  83.52000
332  1  3.00  0  0.00000  50.11200  25.05600  83.52000
333  1  3.00  0  0.00000  41.76000  25.05600  91.87200
334  1  3.00  0  0.00000  50.11200  33.40800  91.87200
335  1  3.00  0  0.00000  41.76000  33.40800  100.22400
336  1  3.00  0  0.00000  50.11200  25.05600  100.22400
337  1  3.00  0  0.00000  41.76000  41.76000  8.35200
338  1  3.00  0  0.00000  50.11200  50.11200  8.35200
339  1  3.00  0  0.00000  41.76000  50.11200  16.70400
340  1  3.00  0  0.00000  50.11200  41.76000  16.70400
341  1  3.00  0  0.00000  41.76000  41.76000  25.05600
342  1  3.00  0  0.00000  50.11200  50.11200  25.05600
343  1  3.00  0  0.00000  41.76000  50.11200  33.40800
344  1  3.00  0  0.00000  50.11200  41.76000  33.40800
345  1  3.00  0  0.00000  41.76000  41.76000  41.76000
346  1  3.00  0  0.00000  50.11200  50.11200  41.76000
347  1  3.00  0  0.00000  41.76000  50.11200  50.11200
348  1  3.00  0  0.00000  50.11200  41.76000  50.11200
349  1  3.00  0  0.00000  41.76000  41.76000  58.46400
350  1  3.00  0  0.00000  50.11200  50.11200  58.46400
351  1  3.00  0  0.00000  41.76000  50.11200  66.81600
352  1  3.00  0  0.00000  50.11200  41.76000  66.81600
353  1  3.00  0  0.00000  41.76000  41.76000  75.16800
354  1  3.00  0  0.00000  50.11200  50.11200  75.16800
355  1  3.00  0  0.00000  41.76000  50.11200  83.52000
356  1  3.00  0  0.00000  50.11200  41.76000  83.52000
357  1  3.00  0  0.00000  41.76000  41.76000  91.87200
358  1  3.00  0  0.00000  50.11200  50.11200  91.87200
359  1  3.00  0  0.00000  41.76000  50.11200  100.22400
360  1  3.00  0  0.00000  50.11200  41.76000  100.22400
361  1  3.00  0  0.00000  41.76000  58.46400  8.35200
362  1  3.00  0  0.00000  50.11200  66.81600  8.35200
363  1  3.00  0  0.00000  41.76000  66.81600  16.70400
364  1  3.00  0  0.00000  50.11200  58.46400  16.70400
365  1  3.00  0  0.00000  41.76000  58.46400  25.05600
366  1  3.00  0  0.00000  50.11200  66.81600  25.05600
367  1  3.00  0  0.00000  41.76000  66.81600  33.40800
368  1  3.00  0  0.00000  50.11200  58.46400  33.40800
369  1  3.00  0  0.00000  41.76000  58.46400  41.76000
370  1  3.00  0  0.00000  50.11200  66.81600  41.76000
371  1  3.00  0  0.00000  41.76000  66.81600  50.11200
372  1  3.00  0  0.00000  50.11200  58.46400  50.11200
373  1  3.00  0  0.00000  41.76000  58.46400  58.46400
374  1  3.00  0  0.00000  50.11200  66.81600  58.46400
375  1  3.00  0  0.00000  41.76000  66.81600  66.81600
376  1  3.00  0  0.00000  50.11200  58.46400  66.81600
377  1  3.00  0  0.00000  41.76000  58.46400  75.16800
378  1  3.00  0  0.00000  50.11200  66.81600  75.16800
379  1  3.00  0  0.00000  41.76000  66.81600  83.52000
380  1  3.00  0  0.00000  50.11200  58.46400  83.52000
381  1  3.00  0  0.00000  41.76000  58.46400  91.87200
382  1  3.00  0  0.00000  50.11200  66.81600  91.87200
383  1  3.00  0  0.00000  41.76000  66.81600  100.22400
384  1  3.00  0  0.00000  50.11200  58.46400  100.22400
385  1  3.00  0  0.00000  41.76000  75.16800  8.35200
386  1  3.00  0  0.00000  50.11200  83.52000  8.35200
387  1  3.00  0  0.00000  41.76000  83.52000  16.70400
388  1  3.00  0  0.00000  50.11200  75.16800  16.70400
389  1  3.00  0  0.00000  41.76000  75.16800  25.05600
390  1  3.00  0  0.00000  50.11200  83.52000  25.05600
391  1  3.00  0  0.00000  41.76000  83.52000  33.40800
392  1  3.00  0  0.00000  50.11200  75.16800  33.40800
393  1  3.00  0  0.00000  41.76000  75.16800  41.76000
394  1  3.00  0  0.00000  50.11200  83.52000  41.76000
395  1  3.00  0  0.00000  41.76000  83.52000  50.11200
396  1  3.00  0  0.00000  50.11200  75.16800  50.11200
397  1  3.00  0  0.00000  41.76000  75.16800  58.46400
398  1  3.00  0  0.00000  50.11200  83.52000  58.46400
399  1  3.00  0  0.00000  41.76000  83.52000  66.81600
400  1  3.00  0  0.00000  50.11200  75.16800  66.81600
401  1  3.00  0  0.00000  41.76000  75.16800  75.16800
402  1  3.00  0  0.00000  50.11200  83.52000  75.16800
403  1  3.00  0  0.00000  41.76000  83.52000  83.52000
404  1  3.00  0  0.00000  50.11200  75.16800  83.52000
405  1  3.00  0  0.00000  41.76000  75.16800  91.87200
406  1  3.00  0  0.00000  50.11200  83.52000  91.87200
407  1  3.00  0  0.00000  41.76000  83.52000  100.22400
408  1  3.00  0  0.00000  50.11200  75.16800  100.22400
409  1  3.00  0  0.00000  41.76000  91.87200  8.35200
410  1  3.00  0  0.00000  50.11200  100.22400  8.35200
411  1  3.00  0  0.00000  41.76000  100.22400  16.70400
412  1  3.00  0  0.00000  50.11200  91.87200  16.70400
413  1  3.00  0  0.00000  41.76000  91.87200  25.05600
414  1  3.00  0  0.00000  50.11200  100.22400  25.05600
415  1  3.00  0  0.00000  41.76000  100.22400  33.40800
416  1  3.00  0  0.00000  50.11200  91.87200  33.40800
417  1  3.00  0  0.00000  41.76000  91.87200  41.76000
418  1  3.00  0  0.00000  50.11200  100.22400  41.76000
419  1  3.00  0  0.00000  41.76000  100.22400  50.11200
420  1  3.00  0  0.00000  50.11200  91.87200  50.11200
421  1  3.00  0  0.00000  41.76000  91.87200  58.46400
422  1  3.00  0  0.00000  50.11200  100.22400  58.46400
423  1  3.00  0  0.00000  41.76000  100.22400  66.81600
424  1  3.00  0  0.00000  50.11200  91.87200  66.81600
425  1  3.00  0  0.00000  41.76000  91.87200  75.16800
426  1  3.00  0  0.00000  50.11200  100.22400  75.16800
427  1  3.00  0  0.00000  41.76000  100.22400  83.52000
428  1  3.00  0  0.00000  50.11200  91.87200  83.52000
429  1  3.00  0  0.00000  41.76000  91.87200  91.87200
430  1  3.00  0  0.00000  50.11200  100.22400  91.87200
431  1  3.00  0  0.00000  41.76000  100.22400  100.22400
432  1  3.00  0  0.00000  50.11200  91.87200  100.22400
433  1  3.00  0  0.00000  58.46400  8.35200  8.35200
434  1  3.00  0  0.00000  66.81600  16.70400  8.35200
435  1  3.00  0  0.00000  58.46400  16.70400  16.70400
436  1  3.00  0  0.00000  66.81600  8.35200  16.70400
437  1  3.00  0  0.00000  58.46400  8.35200  25.05600
438  1  3.00  0  0.00000  66.81600  16.70400  25.05600
439  1  3.00  0  0.00000  58.46400  16.70400  33.40800
440  1  3.00  0  0.00000  66.81600  8.35200  33.40800
441  1  3.00  0  0.00000  58.46400  8.35200  41.76000
442  1  3.00  0  0.00000  66.81600  16.70400  41.76000
443  1  3.00  0  0.00000  58.46400  16.70400  50.11200
444  1  3.00  0  0.00000  66.81600  8.35200  50.11200
445  1  3.00  0  0.00000  58.46400  8.35200  58.46400
446  1  3.00  0  0.00000  66.81600  16.70400  58.46400
447  1  3.00  0  0.00000  58.46400  16.70400  66.81600
448  1  3.00  0  0.00000  66.81600  8.35200  66.81600
449  1  3.00  0  0.00000  58.46400  8.35200  75.16800
450  1  3.00  0  0.00000  66.81600  16.70400  75.16800
451  1  3.00  0  0.00000  58.46400  16.70400  83.52000
452  1  3.00  0  0.00000  66.81600  8.35200  83.52000
453  1  3.00  0  0.00000  58.46400  8.35200  91.87200
454  1  3.00  0  0.00000  66.81600  16.70400  91.87200
455  1  3.00  0  0.00000  58.46400  16.70400  100.22400
456  1  3.00  0  0.00000  66.81600  8.35200  100.22400
457  1  3.00  0  0.00000  58.46400  25.05600  8.35200
458  1  3.00  0  0.00000  66.81600  33.40800  8.35200
459  1  3.00  0  0.00000  58.46400  33.40800  16.70400
460  1  3.00  0  0.00000  66.81600  25.05600  16.70400
461  1  3.00  0  0.00000  58.46400  25.05600  25.05600
462  1  3.00  0  0.00000  66.81600  33.40800  25.05600
463  1  3.00  0  0.00000  58.46400  33.40800  33.40800
464  1  3.00  0  0.00000  66.81600  25.05600  33.40800
465  1  3.00  0  0.00000  58.46400  25.05600  41.76000
466  1  3.00  0  0.00000  66.81600  33.40800  41.76000
467  1  3.00  0  0.00000  58.46400  33.40800  50.11200
468  1  3.00  0  0.00000  66.81600  25.05600  50.11200
469  1  3.00  0  0.00000  58.46400  25.05600  58.46400
470  1  3.00  0  0.00000  66.81600  33.40800  58.46400
471  1  3.00  0  0.00000  58.46400  33.40800  66.81600
472  1  3.00  0  0.00000  66.81600  25.05600  66.81600
473  1  3.00  0  0.00000  58.46400  25.05600  75.16800
474  1  3.00  0  0.00000  66.81600  33.40800  75.16800
475  1  3.00  0  0.00000  58.46400  33.40800  83.52000
476  1  3.00  0  0.00000  66.81600  25.05600  83.52000
477  1  3.00  0  0.00000  58.46400  25.05600  91.87200
478  1  3.00  0  0.00000  66.81600  33.40800  91.87200
479  1  3.00  0  0.00000  58.46400  33.40800  100.22400
480  1  3.00  0  0.00000  66.81600  25.05600  100.22400
481  1  3.00  0  0.00000  58.46400  41.76000  8.35200
482  1  3.00  0  0.00000  66.81600  50.11200  8.35200
483  1  3.00  0  0.00000  58.46400  50.11200  16.70400
484  1  3.00  0  0.00000  66.81600  41.76000  16.70400
485  1  3.00  0  0.00000  58.46400  41.76000  25.05600
486  1  3.00  0  0.00000  66.81600  50.11200  25.05600
487  1  3.00  0  0.00000  58.46400  50.11200  33.40800
488  1  3.00  0  0.00000  66.81600  41.76000  33.40800
489  1  3.00  0  0.00000  58.46400  41.76000  41.76000
490  1  3.00  0  0.00000  66.81600  50.11200  41.76000
491  1  3.00  0  0.00000  58.46400  50.11200  50.11200
492  1  3.00  0  0.00000  66.81600  41.76000  50.11200
493  1  3.00  0  0.00000  58.46400  41.76000  58.46400
494  1  3.00  0  0.00000  66.81600  50.11200  58.46400
495  1  3.00  0  0.00000  58.46400  50.11200  66.81600
496  1  3.00  0  0.00000  66.81600  41.76000  66.81600
497  1  3.00  0  0.00000  58.46400  41.76000  75.16800
498  1  3.00  0  0.00000  66.81600  50.11200  75.16800
499  1  3.00  0  0.00000  58.46400  50.11200  83.52000
500  1  3.00  0  0.00000  66.81600  41.76000  83.52000
501  1  3.00  0  0.00000  58.46400  41.76000  91.87200
502  1  3.00  0  0.00000  66.81600  50.11200  91.87200
503  1  3.00  0  0.00000  58.46400  50.11200  100.22400
504  1  3.00  0  0.00000  66.81600  41.76000  100.22400
505  1  3.00  0  0.00000  58.46400  58.46400  8.35200
506  1  3.00  0  0.00000  66.81600  66.81600  8.35200
507  1  3.00  0  0.00000  58.46400  66.81600  16.70400
508  1  3.00  0  0.00000  66.81600  58.46400  16.70400
509  1  3.00  0  0.00000  58.46400  58.46400  25.05600
510  1  3.00  0  0.00000  66.81600  66.81600  25.05600
511  1  3.00  0  0.00000  58.46400  66.81600  33.40800
512  1  3.00  0  0.00000  66.81600  58.46400  33.40800
513  1  3.00  0  0.00000  58.46400  58.46400  41.76000
514  1  3.00  0  0.00000  66.81600  66.81600  41.76000
515  1  3.00  0  0.00000  58.46400  66.81600  50.11200
516  1  3.00  0  0.00000  66.81600  58.46400  50.11200
517  1  3.00  0  0.00000  58.46400  58.46400  58.46400
518  1  3.00  0  0.00000  66.81600  66.81600  58.46400
519  1  3.00  0  0.00000  58.46400  66.81600  66.81600
520  1  3.00  0  0.00000  66.81600  58.46400  66.81600
521  1  3.00  0  0.00000  58.46400  58.46400  75.16800
522  1  3.00  0  0.00000  66.81600  66.81600  75.16800
523  1  3.00  0  0.00000  58.46400  66.81600  83.52000
524  1  3.00  0  0.00000  66.81600  58.46400  83.52000
525  1  3.00  0  0.00000  58.46400  58.46400  91.87200
526  1  3.00  0  0.00000  66.81600  66.81600  91.87200
527  1  3.00  0  0.00000  58.46400  66.81600  100.22400
528  1  3.00  0  0.00000  66.81600  58.46400  100.22400
529  1  3.00  0  0.00000  58.46400  75.16800  8.35200
530  1  3.00  0  0.00000  66.81600  83.52000  8.35200
531  1  3.00  0  0.00000  58.46400  83.52000  16.70400
532  1  3.00  0  0.00000  66.81600  75.16800  16.70400
533  1  3.00  0  0.00000  58.46400  75.16800  25.05600
534  1  3.00  0  0.00000  66.81600  83.52000  25.05600
535  1  3.00  0  0.00000  58.46400  83.52000  33.40800
536  1  3.00  0  0.00000  66.81600  75.16800  33.40800
537  1  3.00  0  0.00000  58.46400  75.16800  41.76000
538  1  3.00  0  0.00000  66.81600  83.52000  41.76000
539  1  3.00  0  0.00000  58.46400  83.52000  50.11200
540  1  3.00  0  0.00000  66.81600  75.16800  50.11200
541  1  3.00  0  0.00000  58.46400  75.16800  58.46400
542  1  3.00  0  0.00000  66.81600  83.52000  58.46400
543  1  3.00  0  0.00000  58.46400  83.52000  66.81600
544  1  3.00  0  0.00000  66.81600  75.16800  66.81600