LAMMPS data file via write_data, version 5 May 2020, timestep = 0

32 atoms
2 atom types

0.0000000000000000e+00 7.0000000000000000e+00 xlo xhi
0.0000000000000000e+00 7.0000000000000000e+00 ylo yhi
0.0000000000000000e+00 7.0000000000000000e+00 zlo zhi

Masses

1 58.71
2 58.71

Atoms # atomic

1 1 4.9140643281461976e-02 6.7916315313389713e-03 4.6951147214021140e-02 0 0 0
2 2 1.7158436242099122e+00 1.7837920959963427e+00 4.3757410530819288e-02 0 0 0
3 2 1.7556923829744069e+00 6.9718806508564768e+00 1.7480989448018833e+00 0 -1 0
4 2 6.9614127968491113e+00 1.7148766430164113e+00 1.7317391768245674e+00 -1 0 0
5 1 3.4771320860493611e+00 6.9589702316135957e+00 1.2682729709280062e-02 0 -1 0
6 1 5.2887509946193321e+00 1.7379665671093234e+00 6.9540934063978925e+00 0 0 -1
7 1 5.2044245636576898e+00 1.3641394797545581e-02 1.7209223623484944e+00 0 0 0
8 2 3.5425063139258448e+00 1.7536181516729379e+00 1.7602751670685948e+00 0 0 0
9 1 6.9928949324148215e+00 3.4851290959097114e+00 6.9647149545209084e+00 -1 0 -1
10 1 1.7721897667144377e+00 5.2934091695553667e+00 6.9779127170461752e+00 0 0 -1
11 1 1.7768038744930197e+00 3.4927186041803653e+00 1.7715804593970907e+00 0 0 0
12 1 3.4922176499349145e-02 5.2870204245611188e+00 1.7522755987254324e+00 0 0 0
13 1 3.4875077662698497e+00 3.5430276973606216e+00 6.9665095399676398e+00 0 0 -1
14 2 5.2942015257171366e+00 5.2450427279086052e+00 6.9831279599262066e+00 0 0 -1
15 2 5.2646170783623205e+00 3.4692360355142671e+00 1.7000488882884610e+00 0 0 0
16 1 3.4876350558538154e+00 5.2323837350739089e+00 1.7734353871892372e+00 0 0 0
17 1 6.9941482802127251e+00 6.9501455352642321e+00 3.4960111859468794e+00 -1 -1 0
18 2 1.7930063095842517e+00 1.7570451825191478e+00 3.5083825993157842e+00 0 0 0
19 2 1.7186299884312926e+00 6.9642155647344026e+00 5.2209964911085534e+00 0 -1 0
20 2 2.2455821918535891e-02 1.7649989848327818e+00 5.2379380845641430e+00 0 0 0
21 1 3.4577039107716194e+00 2.9628338608717709e-02 3.4634869967184434e+00 0 0 0
22 2 5.2133513435317909e+00 1.7960307388082291e+00 3.5386271499044391e+00 0 0 0
23 1 5.2953365546163811e+00 6.9714734375111167e+00 5.2040642493423377e+00 0 -1 0
24 2 3.4886107203730430e+00 1.7303773097369715e+00 5.2514447492786891e+00 0 0 0
25 2 2.3412746877136060e-02 3.4980367640257053e+00 3.5038929800288252e+00 0 0 0
26 1 1.7459167245523617e+00 5.2223895515419496e+00 3.4511927655437926e+00 0 0 0
27 1 1.7753000367783476e+00 3.5177181336878416e+00 5.2386728915565985e+00 0 0 0
28 2 6.9704374014495114e+00 5.2914061619394488e+00 5.2633637163151814e+00 -1 0 0
29 2 3.4659614265505043e+00 3.5136960343288703e+00 3.4892489653263468e+00 0 0 0
30 2 5.2572834103634971e+00 5.2622779792930361e+00 3.4559979780605055e+00 0 0 0
31 2 5.2896458858110220e+00 3.5284028258539748e+00 5.2162941277568668e+00 0 0 0
32 1 3.5350015228078706e+00 5.2205938318840204e+00 5.2205324747229609e+00 0 0 0

Velocities

1 8.3142142875272096e-01 5.3018877054577906e-01 2.3672876575693383e-01
2 1.9230002104827290e-01 1.2524792537825311e-01 4.4604808196838402e-01
3 7.9168477296999518e-01 6.3268796867476074e-01 4.6576192945860018e-01
4 -4.3473294319396177e-01 -3.3853350184134096e-01 -5.5542559307799122e-01
5 1.0556233129043906e-01 4.5966475014577479e-01 2.0696137230275274e-01
6 1.4848094794143299e-01 -1.6860956406325553e-01 1.9757082777940729e-01
7 7.3021476335390134e-02 -7.1983424883753178e-01 4.6269188064987915e-01
8 5.5076417271703060e-01 4.3333271179601146e-01 -3.6738784484495857e-01
9 -2.5718570124869944e-01 6.3277740898069912e-01 5.4780116639027077e-01
10 -1.4974325867034999e-01 9.3064919665076296e-02 -4.0381464877152434e-01
11 4.7818229323689510e-02 6.2320473313120761e-01 2.5362846619826834e-01
12 -1.1231656505090443e-02 1.5819512160232438e-01 -7.2179120440993033e-02
13 -3.7446192652100023e-02 1.3752144116299114e-01 -7.6583393033556446e-01
14 -3.2160733814053960e-01 -5.8066126595625478e-01 2.7417589688981298e-01
15 -1.8272372717017926e-02 -2.1685149931129227e-01 -5.2976345003907166e-01
16 7.9045293888684709e-01 -1.7417167713922208e-01 5.1327936838179022e-01
17 -5.1453651726995175e-01 4.7881970179647018e-04 -3.0193318363687632e-01
18 -1.5709914791072033e-01 1.0564114961285988e-01 6.2965230727924215e-01
19 -1.8371579383916323e-01 4.3262829749976811e-01 5.8417694297080081e-01
20 1.0882019091021228e-01 -2.1166403436380410e-01 -3.6263161099868824e-02
21 -4.0111116088894477e-01 5.3271966337727594e-01 1.3792503546429732e-01
22 -4.5910055611599498e-01 -5.8401620956067346e-01 -6.8618584853818843e-01
23 -4.3161041639472653e-01 -4.4203303118078013e-01 -5.4281759123661022e-01
24 2.5183551805769588e-01 2.2482074012152781e-01 -1.8838882874510199e-01
25 -4.6721830371801637e-01 -5.8533759910128336e-01 -1.5583609796196654e-01
26 -5.0930624705991323e-01 -2.0777682865238548e-01 -7.8460078152095367e-02
27 -4.3388755497611564e-01 -3.4193357425427884e-01 5.6810074666354726e-01
28 -5.8853999789660418e-02 -1.0394492105861351e-01 -1.8952269932421037e-01
29 3.7239466286208767e-01 -1.4599510727485882e-01 -5.9856190302214463e-01
30 -8.2566562682300657e-02 -7.0947366457228134e-01 -2.1259852525041717e-01
31 5.2021621936729534e-01 6.1299338885942370e-02 7.7247547046206289e-02
32 1.4445281331015636e-01 3.4736296688580842e-01 8.3222169277389901e-02
