LAMMPS data file via write_data, version 5 May 2020, timestep = 0

32 atoms
2 atom types

0.0000000000000000e+00 7.0000000000000000e+00 xlo xhi
0.0000000000000000e+00 7.0000000000000000e+00 ylo yhi
0.0000000000000000e+00 7.0000000000000000e+00 zlo zhi

Masses

1 58.71
2 63.55

Atoms # atomic

1 1 6.9251806026209053e+00 6.8103882495595087e+00 6.8953103466636083e+00 -1 -1 -1
2 2 1.7691645120126960e+00 1.9479533973838918e+00 6.9027498310677471e+00 0 0 -1
3 2 1.6291954268837325e+00 6.9375396348943656e+00 1.7786436695971730e+00 0 -1 0
4 2 6.9769767664498543e+00 1.6985137226984435e+00 1.9201373927388978e+00 -1 0 0
5 1 3.3446304744084507e+00 6.8043833828318787e+00 6.8715152553848524e+00 0 -1 -1
6 1 5.1519172516427556e+00 1.5732483597813400e+00 6.9351828449802388e+00 0 0 -1
7 1 5.3194400198848166e+00 6.8784142041245540e+00 1.7575287213816908e+00 0 -1 0
8 2 3.6919462979035202e+00 1.7914288644638978e+00 1.6449250447307364e+00 0 0 0
9 1 6.9030865617343622e+00 3.6758430694350244e+00 9.4467994451740367e-02 -1 0 0
10 1 1.6665300250363211e+00 5.4701307854476067e+00 1.3811101791826541e-01 0 0 0
11 1 1.8557548873386136e+00 3.6223915000783240e+00 1.5839418163913961e+00 0 0 0
12 1 6.8956498385619600e+00 5.3368367108687931e+00 1.8145995718029326e+00 -1 0 0
13 1 3.6523843528248299e+00 3.4238179269124838e+00 7.8976181139687185e-03 0 0 0
14 2 5.1004218632822962e+00 5.1902561855457057e+00 6.9857104666697376e+00 0 0 -1
15 2 5.3440121668595886e+00 3.4624884090910144e+00 1.8926915926824750e+00 0 0 0
16 1 3.3986357306822370e+00 5.4207255763563911e+00 1.6347618218673217e+00 0 0 0
17 1 6.8912317324156094e+00 6.8317267091394065e+00 3.6308005059979855e+00 -1 -1 0
18 2 1.9072040785603244e+00 1.8789483633725663e+00 3.5351432027226051e+00 0 0 0
19 2 1.8960842031501626e+00 3.7202344782278907e-02 5.1098087557637166e+00 0 0 0
20 2 6.9313221529504849e+00 1.6814246388065743e+00 5.4039044220950014e+00 -1 0 0
21 1 3.2812039239477384e+00 6.9943497896400979e+00 3.3369144811234039e+00 0 -1 0
22 2 5.2148282493068034e+00 1.8183860994495387e+00 3.6651734483964620e+00 0 0 0
23 1 5.2002930083313466e+00 6.7745910249299328e+00 5.4013559973805005e+00 0 -1 0
24 2 3.3941404012703056e+00 1.5677241500316765e+00 5.1397895823883779e+00 0 0 0
25 2 6.9935384426468694e+00 3.4006055659384491e+00 3.5777467275167565e+00 -1 0 0
26 1 1.8122783596684591e+00 5.3623909477900673e+00 3.2546595076586398e+00 0 0 0
27 1 1.7707132053890793e+00 3.6268429742552537e+00 5.2998683080542222e+00 0 0 0
28 2 1.2640995465983185e-01 5.1221079677911980e+00 5.0686146666615333e+00 0 0 0
29 2 3.4428214167676963e+00 3.3995516146763931e+00 3.4639878661436900e+00 0 0 0
30 2 5.2217783430692641e+00 5.3286119651182613e+00 3.5312977426132646e+00 0 0 0
31 2 5.3115760999319956e+00 3.7095115570628603e+00 5.1107395554942734e+00 0 0 0
32 1 3.6820379392393110e+00 5.2616447951000396e+00 5.1640712463595300e+00 0 0 0

Velocities

1 8.3142142875272096e-01 5.3018877054577906e-01 2.3672876575693383e-01
2 1.9230002104827290e-01 1.2524792537825311e-01 4.4604808196838402e-01
3 7.9168477296999518e-01 6.3268796867476074e-01 4.6576192945860018e-01
4 -4.3473294319396177e-01 -3.3853350184134096e-01 -5.5542559307799122e-01
5 1.0556233129043906e-01 4.5966475014577479e-01 2.0696137230275274e-01
6 1.4848094794143299e-01 -1.6860956406325553e-01 1.9757082777940729e-01
7 7.3021476335390134e-02 -7.1983424883753178e-01 4.6269188064987915e-01
8 5.5076417271703060e-01 4.3333271179601146e-01 -3.6738784484495857e-01
9 -2.5718570124869944e-01 6.3277740898069912e-01 5.4780116639027077e-01
10 -1.4974325867034999e-01 9.3064919665076296e-02 -4.0381464877152434e-01
11 4.7818229323689510e-02 6.2320473313120761e-01 2.5362846619826834e-01
12 -1.1231656505090443e-02 1.5819512160232438e-01 -7.2179120440993033e-02
13 -3.7446192652100023e-02 1.3752144116299114e-01 -7.6583393033556446e-01
14 -3.2160733814053960e-01 -5.8066126595625478e-01 2.7417589688981298e-01
15 -1.8272372717017926e-02 -2.1685149931129227e-01 -5.2976345003907166e-01
16 7.9045293888684709e-01 -1.7417167713922208e-01 5.1327936838179022e-01
17 -5.1453651726995175e-01 4.7881970179647018e-04 -3.0193318363687632e-01
18 -1.5709914791072033e-01 1.0564114961285988e-01 6.2965230727924215e-01
19 -1.8371579383916323e-01 4.3262829749976811e-01 5.8417694297080081e-01
20 1.0882019091021228e-01 -2.1166403436380410e-01 -3.6263161099868824e-02
21 -4.0111116088894477e-01 5.3271966337727594e-01 1.3792503546429732e-01
22 -4.5910055611599498e-01 -5.8401620956067346e-01 -6.8618584853818843e-01
23 -4.3161041639472653e-01 -4.4203303118078013e-01 -5.4281759123661022e-01
24 2.5183551805769588e-01 2.2482074012152781e-01 -1.8838882874510199e-01
25 -4.6721830371801637e-01 -5.8533759910128336e-01 -1.5583609796196654e-01
26 -5.0930624705991323e-01 -2.0777682865238548e-01 -7.8460078152095367e-02
27 -4.3388755497611564e-01 -3.4193357425427884e-01 5.6810074666354726e-01
28 -5.8853999789660418e-02 -1.0394492105861351e-01 -1.8952269932421037e-01
29 3.7239466286208767e-01 -1.4599510727485882e-01 -5.9856190302214463e-01
30 -8.2566562682300657e-02 -7.0947366457228134e-01 -2.1259852525041717e-01
31 5.2021621936729534e-01 6.1299338885942370e-02 7.7247547046206289e-02
32 1.4445281331015636e-01 3.4736296688580842e-01 8.3222169277389901e-02
