LAMMPS data file in real units via oxdna lj2real.py, date 2024-05-19

10 atoms
4 atom types
8 bonds
1 bond types
10 ellipsoids

-170 170 xlo xhi
-170 170 ylo yhi
-170 170 zlo zhi

Masses

1 315.8376
2 315.8376
3 315.8376
4 315.8376

Atoms # hybrid

1 1 -2.8740969069282687 -3.723118600434732 5.494693518792015 1 1 1.0016462505133576 0 0 0
2 2 -2.7379071878387986 -6.079929519421481 10.066032484018534 1 1 1.0016462505133576 0 0 0
3 3 -1.110437385073819 -7.791537941948432 13.848676172779387 1 1 1.0016462505133576 0 0 0
4 4 1.4306089998272526 -8.354886654263622 17.79828313773629 1 1 1.0016462505133576 0 0 0
5 1 3.9498326729322186 -6.646891787969407 20.657842369456382 1 1 1.0016462505133576 0 0 0
6 4 -3.801540967989063 0.7719150486872158 21.01300417274477 2 1 1.0016462505133576 0 0 0
7 1 -0.287657468030243 1.787063409177335 17.702181979507532 2 1 1.0016462505133576 0 0 0
8 2 2.8086617684512323 1.5040732709582532 14.656350509768911 2 1 1.0016462505133576 0 0 0
9 3 5.165059071666839 0.3988634556159852 10.50699529001116 2 1 1.0016462505133576 0 0 0
10 4 6.817789789050184 -3.1038996716078557 8.419212766646357 2 1 1.0016462505133576 0 0 0

Velocities

1 0.0015993537866009029 -0.000680681865016988 -0.00014678467473993874 1.3034875452014287 -0.6725260292370423 1.5263182328899618
2 0.0008422431968202534 -0.0002471920411024751 0.0007894382186365997 -0.32615096872390803 -0.0034351199136194157 -0.9136220137417161
3 -0.0011446153381118452 0.00041850425643063176 -0.00045926941555484915 1.7184317758530245 2.6050996986101502 -0.47065934236730145
4 -0.0011077496385743138 0.0002472924939324634 -0.00034633314311123244 -0.5778245520276679 1.752085001878762 -0.24048635097513535
5 0.0004072478403200556 -0.0012804934445473403 0.0008610591638760516 0.23142339993018143 0.3972766524238825 1.363641236078021
6 0.00017968178785700138 -0.00024308968845109275 0.00014280408309295725 0.1704955558294103 -1.3525913126172677 1.5501424653239764
7 -4.108556803115003e-05 0.00023724044475488887 -0.00013843701960263193 0.7809156374181498 -2.1218743676572576 0.2975087875146955
8 -0.00035835254321313353 0.0008579277312926632 0.0019500603503724006 -0.711656157643413 -2.0351916264105014 -0.7613827970610736
9 -0.0008730894357027041 -0.00039026927657647716 0.0002796967510539106 -1.193834703375802 1.023301140813147 -1.8342354268493246
10 0.0009421885758929626 -0.0005326396944231774 0.0006296458639527654 -0.24420734152643714 1.5633648178267814 0.6376075187926279

Bonds

1 1 1 2
2 1 2 3
3 1 3 4
4 1 4 5
5 1 6 7
6 1 7 8
7 1 8 9
8 1 9 10

Ellipsoids

1 9.999999997766462 9.999999997766462 9.999999997766462 0.9890278201757743 0.01779228232037064 -0.14337734159225404 0.030827642240801516
2 9.999999997766462 9.999999997766462 9.999999997766462 0.939687458852748 0.04174166924055095 -0.023337773785056866 0.338674565089608
3 9.999999997766462 9.999999997766462 9.999999997766462 0.8210113150655425 0.03012140921736572 0.017666019956944813 0.5698429897612057
4 9.999999997766462 9.999999997766462 9.999999997766462 0.6623662858285051 -0.028186343967346823 0.022942552517501488 0.7482981175276918
5 9.999999997766462 9.999999997766462 9.999999997766462 0.3601488726765216 0.0513614985821682 0.0724224158335286 0.9286602067807472
6 9.999999997766462 9.999999997766462 9.999999997766462 0.11941234710084649 0.9244660117493703 -0.35317942248051865 -0.07979711784524246
7 9.999999997766462 9.999999997766462 9.999999997766462 -0.17949125421205164 0.7412884899431119 -0.6379094464220707 0.1065166771202199
8 9.999999997766462 9.999999997766462 9.999999997766462 -0.10483691088405202 0.5508895999584645 -0.8250090480220789 0.06992811634525403
9 9.999999997766462 9.999999997766462 9.999999997766462 0.07777239911646 -0.3724087549185288 0.9103052384821374 -0.1631181963720798
10 9.999999997766462 9.999999997766462 9.999999997766462 0.16279109707978262 0.027148630125149613 0.9849325709665359 -0.0516705065113425
