LAMMPS (17 Apr 2024 - Development - patch_17Apr2024-174-g749e259294-modified)
# LAMMPS input file in real units via oxdna lj2real.py, date 2024-05-19
variable number	equal 1
variable ofreq	equal 1000
variable efreq	equal 1000
variable T      equal 300.0

units real

dimension 3

newton on

boundary  p p p

atom_style hybrid bond ellipsoid oxdna
WARNING: Atom style hybrid defines both, per-type and per-atom masses; both must be set, but only per-atom masses will be used (../atom_vec_hybrid.cpp:132)
atom_modify sort 0 8.518

# Pair interactions require lists of neighbours to be calculated
neighbor 17.036 bin
neigh_modify every 1 delay 0 check yes

read_data data.duplex1
Reading data file ...
  orthogonal box = (-170 -170 -170) to (170 170 170)
  1 by 1 by 1 MPI processor grid
  reading atoms ...
  10 atoms
  reading velocities ...
  10 velocities
  scanning bonds ...
  1 = max bonds/atom
  10 ellipsoids
  orthogonal box = (-170 -170 -170) to (170 170 170)
  1 by 1 by 1 MPI processor grid
  reading bonds ...
  8 bonds
Finding 1-2 1-3 1-4 neighbors ...
  special bond factors lj:    0        0        0       
  special bond factors coul:  0        0        0       
     2 = max # of 1-2 neighbors
     2 = max # of 1-3 neighbors
     2 = max # of 1-4 neighbors
     4 = max # of special neighbors
  special bonds CPU = 0.000 seconds
  read_data CPU = 0.009 seconds

set atom * mass 315.8376
Setting atom values ...
  10 settings made for mass

group all type 1 4
10 atoms in group all

# oxDNA bond interactions - FENE backbone
bond_style oxdna/fene
bond_coeff * 11.92337812042065 2.1295 6.409795
special_bonds lj 0 1 1
Finding 1-2 1-3 1-4 neighbors ...
  special bond factors lj:    0        1        1       
  special bond factors coul:  0        0        0       
     2 = max # of 1-2 neighbors
     2 = max # of 1-3 neighbors
     2 = max # of 1-4 neighbors
     4 = max # of special neighbors
  special bonds CPU = 0.000 seconds

# oxDNA pair interactions
pair_style hybrid/overlay oxdna/excv oxdna/stk oxdna/hbond oxdna/xstk oxdna/coaxstk
pair_coeff * * oxdna/excv 11.92337812042065 5.9626 5.74965 11.92337812042065 4.38677 4.259 11.92337812042065 2.81094 2.72576
pair_coeff * * oxdna/stk seqav ${T} 8.01727944817084 0.005279604 0.70439070204273 3.4072 7.6662 2.72576 6.3885 1.3 0.0 0.8 0.9 0.0 0.95 0.9 0.0 0.95 2.0 0.65 2.0 0.65
pair_coeff * * oxdna/stk seqav 300 8.01727944817084 0.005279604 0.70439070204273 3.4072 7.6662 2.72576 6.3885 1.3 0.0 0.8 0.9 0.0 0.95 0.9 0.0 0.95 2.0 0.65 2.0 0.65
pair_coeff * * oxdna/hbond seqav 0.0 0.93918760272364 3.4072 6.3885 2.89612 5.9626 1.5 0.0 0.7 1.5 0 0.7 1.5 0 0.7 0.46 3.141592654 0.7 4.0 1.570796327 0.45 4.0 1.570796327 0.45
pair_coeff 1 4 oxdna/hbond seqav 6.42073911784652 0.93918760272364 3.4072 6.3885 2.89612 5.9626 1.5 0 0.7 1.5 0.0 0.7 1.5 0 0.7 0.46 3.141592654 0.7 4.0 1.570796327 0.45 4.0 1.570796327 0.45
pair_coeff 2 3 oxdna/hbond seqav 6.42073911784652 0.93918760272364 3.4072 6.3885 2.89612 5.9626 1.5 0 0.7 1.5 0.0 0.7 1.5 0 0.7 0.46 3.141592654 0.7 4.0 1.570796327 0.45 4.0 1.570796327 0.45
pair_coeff * * oxdna/xstk 3.9029021145006 4.89785 5.74965 4.21641 5.57929 2.25 0.791592654 0.58 1.7 1.0 0.68 1.7 1.0 0.68 1.5 0 0.65 1.7 0.875 0.68 1.7 0.875 0.68
pair_coeff * * oxdna/coaxstk 3.77965257404268 3.4072 5.1108 1.87396 4.94044 2.0 2.541592654 0.65 1.3 0 0.8 0.9 0 0.95 0.9 0 0.95 2 -0.65 2 -0.65

# NVE ensemble
fix 1 all nve/asphere
#fix 2 all langevin ${T} ${T} 4265.0 457145 angmom 10

timestep 0.01706

#comm_style tiled
fix 3 all balance 1000 1.03 shift xyz 10 1.03
comm_modify cutoff 32.4

compute quat all property/atom quatw quati quatj quatk

compute erot all erotate/asphere
compute ekin all ke
compute epot all pe
variable erot equal c_erot
variable ekin equal c_ekin
variable epot equal c_epot
variable etot equal c_erot+c_ekin+c_epot
fix 5 all print ${efreq} "$(step)  ekin = ${ekin} |  erot = ${erot} | epot = ${epot} | etot = ${etot}" screen yes
fix 5 all print 1000 "$(step)  ekin = ${ekin} |  erot = ${erot} | epot = ${epot} | etot = ${etot}" screen yes

dump out all custom ${ofreq} out.${number}.lammpstrj id mol type x y z ix iy iz vx vy vz c_quat[1] c_quat[2] c_quat[3] c_quat[4] angmomx angmomy angmomz
dump out all custom 1000 out.${number}.lammpstrj id mol type x y z ix iy iz vx vy vz c_quat[1] c_quat[2] c_quat[3] c_quat[4] angmomx angmomy angmomz
dump out all custom 1000 out.1.lammpstrj id mol type x y z ix iy iz vx vy vz c_quat[1] c_quat[2] c_quat[3] c_quat[4] angmomx angmomy angmomz
dump_modify out sort id
dump_modify out format line "%d %d %d  %22.15le %22.15le %22.15le  %d %d %d  %22.15le %22.15le %22.15le  %22.15le %22.15le %22.15le %22.15le  %22.15le %22.15le %22.15le"

run 1000000
Generated 0 of 6 mixed pair_coeff terms from geometric mixing rule
Neighbor list info ...
  update: every = 1 steps, delay = 0 steps, check = yes
  max neighbors/atom: 2000, page size: 100000
  master list distance cutoff = 25.179212
  ghost atom cutoff = 32.4
  binsize = 12.589606, bins = 28 28 28
  4 neighbor lists, perpetual/occasional/extra = 4 0 0
  (1) pair oxdna/excv, perpetual
      attributes: half, newton on
      pair build: half/bin/newton
      stencil: half/bin/3d
      bin: standard
  (2) pair oxdna/hbond, perpetual, copy from (1)
      attributes: half, newton on
      pair build: copy
      stencil: none
      bin: none
  (3) pair oxdna/xstk, perpetual, copy from (1)
      attributes: half, newton on
      pair build: copy
      stencil: none
      bin: none
  (4) pair oxdna/coaxstk, perpetual, copy from (1)
      attributes: half, newton on
      pair build: copy
      stencil: none
      bin: none
0  ekin = 6.60687273927977 |  erot = 16.7817849122513 | epot = -77.8453746587949 | etot = -54.4567170072638
Per MPI rank memory allocation (min/avg/max) = 7.196 | 7.196 | 7.196 Mbytes
   Step          Temp          E_pair         E_mol          TotEng         Press          Volume    
         0   246.27432     -80.414409      2.5690347     -71.238502     -0.031164646    39304000     
1000  ekin = 6.43820783118127 |  erot = 17.3362198819252 | epot = -78.2311447221034 | etot = -54.4567170089969
2000  ekin = 6.25962757371398 |  erot = 17.7614951323061 | epot = -78.4778397161865 | etot = -54.4567170101664
3000  ekin = 6.07700556573588 |  erot = 18.0349356633584 | epot = -78.568658239597 | etot = -54.4567170105028
4000  ekin = 5.89744395525129 |  erot = 18.144460931621 | epot = -78.4986218967948 | etot = -54.4567170099226
5000  ekin = 5.72921700410326 |  erot = 18.0898077153686 | epot = -78.2757417280193 | etot = -54.4567170085474
6000  ekin = 5.58103231328821 |  erot = 17.8818838137361 | epot = -77.9196331337201 | etot = -54.4567170066957
7000  ekin = 5.46083908443389 |  erot = 17.5394286863637 | epot = -77.4569847754236 | etot = -54.456717004626
8000  ekin = 5.37466806168184 |  erot = 17.086045740889 | epot = -76.9174308051193 | etot = -54.4567170025485
9000  ekin = 5.32596283558547 |  erot = 16.5482758509796 | epot = -76.3309556871347 | etot = -54.4567170005696
10000  ekin = 5.31555310057087 |  erot = 15.9544038907651 | epot = -75.7266739899446 | etot = -54.4567169986086
11000  ekin = 5.34212439127906 |  erot = 15.33325110042 | epot = -75.1320924886816 | etot = -54.4567169969825
12000  ekin = 5.40287885250685 |  erot = 14.7110726721716 | epot = -74.570668520288 | etot = -54.4567169956095
13000  ekin = 5.49412472240381 |  erot = 14.1110805159141 | epot = -74.0619222328998 | etot = -54.4567169945818
14000  ekin = 5.6116733967227 |  erot = 13.5517285104402 | epot = -73.6201189011436 | etot = -54.4567169939806
15000  ekin = 5.75106060199928 |  erot = 13.0453082210511 | epot = -73.2530858167914 | etot = -54.4567169937411
16000  ekin = 5.9076835700648 |  erot = 12.5986044578508 | epot = -72.9630050218526 | etot = -54.4567169939369
17000  ekin = 6.07694775533401 |  erot = 12.2121295946254 | epot = -72.745794344578 | etot = -54.4567169946187
18000  ekin = 6.2544900101667 |  erot = 11.8809581167544 | epot = -72.5921651219471 | etot = -54.456716995026
19000  ekin = 6.43645340088853 |  erot = 11.5970728654625 | epot = -72.4902432622587 | etot = -54.4567169959077
20000  ekin = 6.61976225801504 |  erot = 11.3493123188075 | epot = -72.4257915734619 | etot = -54.4567169966394
21000  ekin = 6.80232746725453 |  erot = 11.12797043509 | epot = -72.3870148994525 | etot = -54.456716997108
22000  ekin = 6.98311688717135 |  erot = 10.9264751205881 | epot = -72.3663090050195 | etot = -54.4567169972601
23000  ekin = 7.16205079775862 |  erot = 10.7423327849975 | epot = -72.3611005798626 | etot = -54.4567169971065
24000  ekin = 7.33972059294137 |  erot = 10.5772758543376 | epot = -72.3737134439925 | etot = -54.4567169967136
25000  ekin = 7.51695157931204 |  erot = 10.4365899375964 | epot = -72.410258513139 | etot = -54.4567169962305
26000  ekin = 7.69429229269129 |  erot = 10.3277639309844 | epot = -72.4787732193795 | etot = -54.4567169957038
27000  ekin = 7.87150951743587 |  erot = 10.2597304033277 | epot = -72.5879569160672 | etot = -54.4567169953037
28000  ekin = 8.04705135555601 |  erot = 10.2410352171346 | epot = -72.7448035678545 | etot = -54.456716995164
29000  ekin = 8.21759746027588 |  erot = 10.2782041594724 | epot = -72.9525186151519 | etot = -54.4567169954035
30000  ekin = 8.37774171245007 |  erot = 10.3742403796591 | epot = -73.2086990882218 | etot = -54.4567169961126
31000  ekin = 8.51990909585299 |  erot = 10.5273666264231 | epot = -73.503992719602 | etot = -54.4567169973259
32000  ekin = 8.63465262126945 |  erot = 10.7302431095271 | epot = -73.8216127297857 | etot = -54.4567169989892
33000  ekin = 8.71148334085703 |  erot = 10.9699651918536 | epot = -74.1381655336434 | etot = -54.4567170009328
34000  ekin = 8.74030392010885 |  erot = 11.2291223208267 | epot = -74.4261432438069 | etot = -54.4567170028714
35000  ekin = 8.71331622899753 |  erot = 11.4879560434145 | epot = -74.6579892768899 | etot = -54.4567170044778
36000  ekin = 8.6270054941397 |  erot = 11.7272789104034 | epot = -74.8110014099219 | etot = -54.4567170053788
37000  ekin = 8.48360146994024 |  erot = 11.9311520187442 | epot = -74.8714704944482 | etot = -54.4567170057638
38000  ekin = 8.29145725510879 |  erot = 12.0877651508229 | epot = -74.8359394109127 | etot = -54.456717004981
39000  ekin = 8.06412808157086 |  erot = 12.1939490782825 | epot = -74.7147941632556 | etot = -54.4567170034022
40000  ekin = 7.8183491672969 |  erot = 12.2536811005695 | epot = -74.5287472695195 | etot = -54.4567170016531
41000  ekin = 7.57153983107151 |  erot = 12.2737166637664 | epot = -74.3019734948458 | etot = -54.4567170000079
42000  ekin = 7.33952905244385 |  erot = 12.2616299907504 | epot = -74.0578760417282 | etot = -54.4567169985339
43000  ekin = 7.13479707854096 |  erot = 12.2251663434275 | epot = -73.8166804194407 | etot = -54.4567169974722
44000  ekin = 6.96549624172411 |  erot = 12.1705863869632 | epot = -73.5927996255427 | etot = -54.4567169968554
45000  ekin = 6.83524241842684 |  erot = 12.1023865846985 | epot = -73.3943459997491 | etot = -54.4567169966237
46000  ekin = 6.74353977237873 |  erot = 12.0237417555818 | epot = -73.2239985246163 | etot = -54.4567169966557
47000  ekin = 6.68665226743047 |  erot = 11.9373741846297 | epot = -73.0807434488668 | etot = -54.4567169968066
48000  ekin = 6.65871295716605 |  erot = 11.8463562055031 | epot = -72.9617861597101 | etot = -54.4567169970409
49000  ekin = 6.65288229900589 |  erot = 11.7538080029642 | epot = -72.8634072990292 | etot = -54.4567169970592
50000  ekin = 6.66236312881733 |  erot = 11.6656641757333 | epot = -72.7847443014512 | etot = -54.4567169969006
51000  ekin = 6.68111060961778 |  erot = 11.5899788256564 | epot = -72.7278064318541 | etot = -54.4567169965799
52000  ekin = 6.7041802474988 |  erot = 11.5360562910265 | epot = -72.696953534693 | etot = -54.4567169961677
53000  ekin = 6.72772366359015 |  erot = 11.5134142818732 | epot = -72.6978549412364 | etot = -54.456716995773
54000  ekin = 6.74871337970471 |  erot = 11.5307585185416 | epot = -72.7361888937386 | etot = -54.4567169954923
55000  ekin = 6.76451852991647 |  erot = 11.5943746539851 | epot = -72.815610179404 | etot = -54.4567169955025
56000  ekin = 6.77243985440047 |  erot = 11.7063710780976 | epot = -72.9355279283601 | etot = -54.456716995862
57000  ekin = 6.76933053582512 |  erot = 11.8642156230109 | epot = -73.0902631554544 | etot = -54.4567169966185
58000  ekin = 6.75138726809175 |  erot = 12.0602974501204 | epot = -73.2684017159796 | etot = -54.4567169977675
59000  ekin = 6.71417128126918 |  erot = 12.2820751409027 | epot = -73.4529634214104 | etot = -54.4567169992384
60000  ekin = 6.65290992288017 |  erot = 12.5129009338982 | epot = -73.6225278576777 | etot = -54.4567170008993
61000  ekin = 6.56310682197025 |  erot = 12.7335144723087 | epot = -73.7533382968305 | etot = -54.4567170025516
62000  ekin = 6.44146338255561 |  erot = 12.9241509619395 | epot = -73.8223313484456 | etot = -54.4567170039505
63000  ekin = 6.28705781387306 |  erot = 13.0670338389574 | epot = -73.8108086578462 | etot = -54.4567170050157
64000  ekin = 6.10266169757214 |  erot = 13.1477809820694 | epot = -73.7071596847869 | etot = -54.4567170051453
65000  ekin = 5.89591130160378 |  erot = 13.1592635961187 | epot = -73.5118919021165 | etot = -54.456717004394
66000  ekin = 5.67987143865612 |  erot = 13.1032095066899 | epot = -73.2397979480396 | etot = -54.4567170026935
67000  ekin = 5.47246439370461 |  erot = 12.9892907727309 | epot = -72.9184721669219 | etot = -54.4567170004864
68000  ekin = 5.29471721365622 |  erot = 12.8325811063881 | epot = -72.5840153180084 | etot = -54.456716997964
69000  ekin = 5.16838716298711 |  erot = 12.6515610640471 | epot = -72.2766652226397 | etot = -54.4567169956055
70000  ekin = 5.1123024949134 |  erot = 12.464558608656 | epot = -72.0335780974641 | etot = -54.4567169938946
71000  ekin = 5.13863171719959 |  erot = 12.2861676510959 | epot = -71.8815163616864 | etot = -54.456716993391
72000  ekin = 5.24921766817571 |  erot = 12.1241146960812 | epot = -71.8300493582313 | etot = -54.4567169939744
73000  ekin = 5.43495114762194 |  erot = 11.9780651684539 | epot = -71.8697333116311 | etot = -54.4567169955553
74000  ekin = 5.67787386257412 |  erot = 11.8411579566087 | epot = -71.9757488169253 | etot = -54.4567169977424
75000  ekin = 5.95416182625046 |  erot = 11.7025717830519 | epot = -72.113450609344 | etot = -54.4567170000417
76000  ekin = 6.2382481878043 |  erot = 11.5508489468467 | epot = -72.2458141366446 | etot = -54.4567170019935
77000  ekin = 6.50675110372134 |  erot = 11.376960643443 | epot = -72.3404287504467 | etot = -54.4567170032824
78000  ekin = 6.7413670315104 |  erot = 11.1763239765949 | epot = -72.3744080118938 | etot = -54.4567170037885
79000  ekin = 6.93031685727 |  erot = 10.9493830401345 | epot = -72.3364169009795 | etot = -54.456717003575
80000  ekin = 7.06838579021362 |  erot = 10.7008558180281 | epot = -72.2259586110715 | etot = -54.4567170028298
81000  ekin = 7.15593174989378 |  erot = 10.4381486680532 | epot = -72.0507974197271 | etot = -54.4567170017802
82000  ekin = 7.19737561193852 |  erot = 10.1696078110448 | epot = -71.8237004236075 | etot = -54.4567170006242
83000  ekin = 7.19963709941819 |  erot = 9.90317661788338 | epot = -71.5595307167926 | etot = -54.4567169994911
84000  ekin = 7.17081556671144 |  erot = 9.64574605090055 | epot = -71.273278616051 | etot = -54.456716998439
85000  ekin = 7.11922963823867 |  erot = 9.40317461807844 | epot = -70.9791212537907 | etot = -54.4567169974735
86000  ekin = 7.05279272914885 |  erot = 9.18074070207743 | epot = -70.6902504278029 | etot = -54.4567169965767
87000  ekin = 6.97863676438221 |  erot = 8.98372361344457 | epot = -70.4190773735549 | etot = -54.4567169957281
88000  ekin = 6.9028911125576 |  erot = 8.81786450432949 | epot = -70.1774726118083 | etot = -54.4567169949212
89000  ekin = 6.83054970527891 |  erot = 8.68957087135389 | epot = -69.9768375707985 | etot = -54.4567169941657
90000  ekin = 6.76539137201421 |  erot = 8.60583796049187 | epot = -69.8279463259915 | etot = -54.4567169934854
91000  ekin = 6.70994198518223 |  erot = 8.57393232143089 | epot = -69.7405912995239 | etot = -54.4567169929108
92000  ekin = 6.66547828037124 |  erot = 8.60091153028055 | epot = -69.7231068031287 | etot = -54.4567169924769
93000  ekin = 6.63207907276869 |  erot = 8.69305218260925 | epot = -69.7818482475942 | etot = -54.4567169922162
94000  ekin = 6.60872467795709 |  erot = 8.85524213295501 | epot = -69.920683803072 | etot = -54.4567169921598
95000  ekin = 6.59344191188652 |  erot = 9.09002892498404 | epot = -70.1401878292941 | etot = -54.4567169924236
96000  ekin = 6.58348503117511 |  erot = 9.39676155295883 | epot = -70.4369635770044 | etot = -54.4567169928704
97000  ekin = 6.57555779040114 |  erot = 9.77238659111696 | epot = -70.8046613751019 | etot = -54.4567169935838
98000  ekin = 6.56606406506479 |  erot = 10.2104006447577 | epot = -71.2331817043831 | etot = -54.4567169945606
99000  ekin = 6.55138371755748 |  erot = 10.7005955684093 | epot = -71.7086962817498 | etot = -54.456716995783
100000  ekin = 6.52818215156319 |  erot = 11.229104804122 | epot = -72.2140039528875 | etot = -54.4567169972023
101000  ekin = 6.49376016387468 |  erot = 11.7788216139172 | epot = -72.7292987765279 | etot = -54.456716998736
102000  ekin = 6.44644131665652 |  erot = 12.3302826834051 | epot = -73.2334410003245 | etot = -54.4567170002629
103000  ekin = 6.38597185526512 |  erot = 12.8630533051893 | epot = -73.7057421620888 | etot = -54.4567170016345
104000  ekin = 6.31387792328204 |  erot = 13.3575416630676 | epot = -74.1281365890417 | etot = -54.456717002692
105000  ekin = 6.23369870065412 |  erot = 13.7969859266863 | epot = -74.4874016306526 | etot = -54.4567170033122
106000  ekin = 6.15159087577179 |  erot = 14.168347479028 | epot = -74.7766553580931 | etot = -54.4567170032933
107000  ekin = 6.07597686979475 |  erot = 14.4651876627012 | epot = -74.9978815355769 | etot = -54.456717003081
108000  ekin = 6.01223234716995 |  erot = 14.6879971316708 | epot = -75.1569464811428 | etot = -54.456717002302
109000  ekin = 5.96716606188232 |  erot = 14.843544289216 | epot = -75.2674273521871 | etot = -54.4567170010888
110000  ekin = 5.94905536831921 |  erot = 14.9434041692657 | epot = -75.3491765372227 | etot = -54.4567169996377
111000  ekin = 5.96691720967362 |  erot = 15.0017805706305 | epot = -75.4254147784671 | etot = -54.456716998163
112000  ekin = 6.02963996568461 |  erot = 15.0332074410399 | epot = -75.5195644035762 | etot = -54.4567169968517
113000  ekin = 6.1447355794934 |  erot = 15.0506276935639 | epot = -75.6520802691281 | etot = -54.4567169960708
114000  ekin = 6.31295582028789 |  erot = 15.0641514071762 | epot = -75.8338242231953 | etot = -54.4567169957312
115000  ekin = 6.53172798600582 |  erot = 15.0811124191474 | epot = -76.069557400948 | etot = -54.4567169957948
116000  ekin = 6.79568089093934 |  erot = 15.1059058197088 | epot = -76.3583037069064 | etot = -54.4567169962582
117000  ekin = 7.09592407299118 |  erot = 15.1399966271433 | epot = -76.692637697252 | etot = -54.4567169971175
118000  ekin = 7.42014276685631 |  erot = 15.1819125959108 | epot = -77.0587723611274 | etot = -54.4567169983602
119000  ekin = 7.75294827199695 |  erot = 15.2271422568037 | epot = -77.4368075287489 | etot = -54.4567169999482
120000  ekin = 8.07659193886436 |  erot = 15.2681028416293 | epot = -77.801411782285 | etot = -54.4567170017913
121000  ekin = 8.37212580399467 |  erot = 15.2944516166555 | epot = -78.1232944243814 | etot = -54.4567170037313
122000  ekin = 8.62100116395937 |  erot = 15.2939804912635 | epot = -78.3716986607659 | etot = -54.456717005543
123000  ekin = 8.80694171731996 |  erot = 15.254150000928 | epot = -78.5178087252231 | etot = -54.4567170069752
124000  ekin = 8.91776467099479 |  erot = 15.1640535889468 | epot = -78.5385352677475 | etot = -54.4567170078059
125000  ekin = 8.9467480094793 |  erot = 15.0163836749129 | epot = -78.4198486922921 | etot = -54.4567170078999
126000  ekin = 8.89353650631002 |  erot = 14.8103820375823 | epot = -78.1606355511996 | etot = -54.4567170073073
127000  ekin = 8.7629508625392 |  erot = 14.5505189841093 | epot = -77.7701868527587 | etot = -54.4567170061102
128000  ekin = 8.56410993715709 |  erot = 14.2447035162366 | epot = -77.2655304577559 | etot = -54.4567170043622
129000  ekin = 8.30998017116567 |  erot = 13.9055852316428 | epot = -76.6722824050741 | etot = -54.4567170022657
130000  ekin = 8.0159653369684 |  erot = 13.5489606027688 | epot = -76.0216429397662 | etot = -54.456717000029
131000  ekin = 7.69857959330988 |  erot = 13.1919558696584 | epot = -75.3472524608086 | etot = -54.4567169978403
132000  ekin = 7.37430715049019 |  erot = 12.8512838848574 | epot = -74.6823080311994 | etot = -54.4567169958518
133000  ekin = 7.0586935021734 |  erot = 12.5417841519133 | epot = -74.0571946482606 | etot = -54.4567169941739
134000  ekin = 6.76568000840989 |  erot = 12.275351752871 | epot = -73.4977487541533 | etot = -54.4567169928724
135000  ekin = 6.50716750003369 |  erot = 12.0602618213868 | epot = -73.0241463134093 | etot = -54.4567169919888
136000  ekin = 6.29276806012063 |  erot = 11.9007845740719 | epot = -72.6502696257233 | etot = -54.4567169915308
137000  ekin = 6.12969309854731 |  erot = 11.7970866991162 | epot = -72.383496789158 | etot = -54.4567169914945
138000  ekin = 6.02273320867752 |  erot = 11.7455527096574 | epot = -72.2250029101791 | etot = -54.4567169918441
139000  ekin = 5.97430093912997 |  erot = 11.7390915567029 | epot = -72.1701094884367 | etot = -54.4567169926038
140000  ekin = 5.98450304637459 |  erot = 11.7662502093753 | epot = -72.2074702494607 | etot = -54.4567169937108
141000  ekin = 6.05123669074409 |  erot = 11.8124070325092 | epot = -72.320360718363 | etot = -54.4567169951097
142000  ekin = 6.17033803011812 |  erot = 11.8605042646628 | epot = -72.4875592915039 | etot = -54.456716996723
143000  ekin = 6.33580648591466 |  erot = 11.8920252829288 | epot = -72.6845487670587 | etot = -54.4567169982153
144000  ekin = 6.54012675510817 |  erot = 11.8891823611258 | epot = -72.8860261161641 | etot = -54.4567169999301
145000  ekin = 6.77470074055122 |  erot = 11.835329124418 | epot = -73.0667468664361 | etot = -54.4567170014669
146000  ekin = 7.03037496397094 |  erot = 11.7160243954403 | epot = -73.2031163621668 | etot = -54.4567170027555
147000  ekin = 7.29665364400722 |  erot = 11.5220998483009 | epot = -73.2754704958303 | etot = -54.4567170035221
148000  ekin = 7.56413207766539 |  erot = 11.2503161699918 | epot = -73.271165251398 | etot = -54.4567170037408
149000  ekin = 7.82550108771502 |  erot = 10.9039474189432 | epot = -73.186165510058 | etot = -54.4567170033997
150000  ekin = 8.07523421780289 |  erot = 10.4929157971078 | epot = -73.0248670174494 | etot = -54.4567170025387
151000  ekin = 8.30981632230252 |  erot = 10.0329247877175 | epot = -72.7994581112926 | etot = -54.4567170012726
152000  ekin = 8.52773011311519 |  erot = 9.54384337569265 | epot = -72.5282904885591 | etot = -54.4567169997513
153000  ekin = 8.72920635330005 |  erot = 9.04773752673777 | epot = -72.2336608781799 | etot = -54.4567169981421
154000  ekin = 8.91578242577526 |  erot = 8.56683521279765 | epot = -71.9393346351766 | etot = -54.4567169966037
155000  ekin = 9.08973687645378 |  erot = 8.12169369348659 | epot = -71.6681475652115 | etot = -54.4567169952711
156000  ekin = 9.25347765694827 |  erot = 7.72974563990293 | epot = -71.4399402910981 | etot = -54.4567169942469
157000  ekin = 9.40896984476625 |  erot = 7.40429996452383 | epot = -71.2699868028787 | etot = -54.4567169935887
158000  ekin = 9.55725976319915 |  erot = 7.15399036856882 | epot = -71.1679671251158 | etot = -54.4567169933478
159000  ekin = 9.69799996758358 |  erot = 6.98263031177209 | epot = -71.1373472728688 | etot = -54.4567169935132
160000  ekin = 9.82927262106836 |  erot = 6.88943240362223 | epot = -71.175422018748 | etot = -54.4567169940574
161000  ekin = 9.94752627639203 |  erot = 6.86953876421339 | epot = -71.2737820355257 | etot = -54.4567169949203
162000  ekin = 10.0476688890864 |  erot = 6.91484346813018 | epot = -71.4192293532338 | etot = -54.4567169960172
163000  ekin = 10.1233289285869 |  erot = 7.01508857895246 | epot = -71.5951345047758 | etot = -54.4567169972365
164000  ekin = 10.167286691898 |  erot = 7.15919485891927 | epot = -71.7831985492619 | etot = -54.4567169984446
165000  ekin = 10.172071480185 |  erot = 7.33674388087147 | epot = -71.9655323605532 | etot = -54.4567169994967
166000  ekin = 10.1307061587134 |  erot = 7.53947176071279 | epot = -72.1268949196778 | etot = -54.4567170002516
167000  ekin = 10.0375550044427 |  erot = 7.76257261597526 | epot = -72.2568446210092 | etot = -54.4567170005913
168000  ekin = 9.88919379240196 |  erot = 8.00559837771024 | epot = -72.3515091705549 | etot = -54.4567170004427
169000  ekin = 9.6851801471051 |  erot = 8.27274634403696 | epot = -72.4146434909394 | etot = -54.4567169997973
170000  ekin = 9.42857099718864 |  erot = 8.57239606368005 | epot = -72.4576840595931 | etot = -54.4567169987245
171000  ekin = 9.12604219834733 |  erot = 8.91588733602143 | epot = -72.4986465317349 | etot = -54.4567169973661
172000  ekin = 8.78753113653861 |  erot = 9.31569783313623 | epot = -72.5599459655889 | etot = -54.456716995914
173000  ekin = 8.43073965990155 |  erot = 9.78417932410986 | epot = -72.671635978036 | etot = -54.4567169940246
174000  ekin = 8.08793433498934 |  erot = 10.3304999174786 | epot = -72.875151246456 | etot = -54.4567169939881
175000  ekin = 7.76668155628905 |  erot = 10.9530367882572 | epot = -73.1764353387604 | etot = -54.4567169942141
176000  ekin = 7.47150671335906 |  erot = 11.6457657834608 | epot = -73.5739894915295 | etot = -54.4567169947096
177000  ekin = 7.20629810214911 |  erot = 12.399154012461 | epot = -74.0621691100447 | etot = -54.4567169954346
178000  ekin = 6.9741272880157 |  erot = 13.20044277241 | epot = -74.6312870568994 | etot = -54.4567169964737
179000  ekin = 6.77726137275677 |  erot = 14.0344360010767 | epot = -75.2684143712719 | etot = -54.4567169974384
180000  ekin = 6.61731488748464 |  erot = 14.8864655843919 | epot = -75.9604974702674 | etot = -54.4567169983909
181000  ekin = 6.49550388720072 |  erot = 15.7408909287416 | epot = -76.6931118153551 | etot = -54.4567169994128
182000  ekin = 6.41296392663574 |  erot = 16.5825261501 | epot = -77.4522070769509 | etot = -54.4567170002152
183000  ekin = 6.3709676834719 |  erot = 17.3990430380084 | epot = -78.2267277223659 | etot = -54.4567170008855
184000  ekin = 6.37100453719247 |  erot = 18.179602922008 | epot = -79.0073244606508 | etot = -54.4567170014503
185000  ekin = 6.41457925655592 |  erot = 18.9145289221421 | epot = -79.7858251806889 | etot = -54.4567170019908
186000  ekin = 6.5025855392 |  erot = 19.5946185261353 | epot = -80.5539210679827 | etot = -54.4567170026474
187000  ekin = 6.63421344627452 |  erot = 20.2101022369757 | epot = -81.301032686852 | etot = -54.4567170036018
188000  ekin = 6.80554165522936 |  erot = 20.7494117391994 | epot = -82.0116703994567 | etot = -54.456717005028
189000  ekin = 7.00820348124499 |  erot = 21.1981783931206 | epot = -82.6630988813659 | etot = -54.4567170070004
190000  ekin = 7.22868521932685 |  erot = 21.5391098111504 | epot = -83.2245120398911 | etot = -54.4567170094138
191000  ekin = 7.4477192848795 |  erot = 21.7494170056954 | epot = -83.6538533032724 | etot = -54.4567170126975
192000  ekin = 7.64125751956296 |  erot = 21.8048207783503 | epot = -83.9027953123215 | etot = -54.4567170144082
193000  ekin = 7.78828740685131 |  erot = 21.6991673926867 | epot = -83.9441718146326 | etot = -54.4567170150946
194000  ekin = 7.87257389701823 |  erot = 21.4375246080176 | epot = -83.7668155195165 | etot = -54.4567170144808
195000  ekin = 7.88499447657079 |  erot = 21.0374826850393 | epot = -83.3791941740676 | etot = -54.4567170124575
196000  ekin = 7.82454827833775 |  erot = 20.5296762951829 | epot = -82.8109415830013 | etot = -54.4567170094806
197000  ekin = 7.69767598869928 |  erot = 19.9506603805433 | epot = -82.1050533754265 | etot = -54.4567170061839
198000  ekin = 7.51633971742497 |  erot = 19.3369849795458 | epot = -81.3100416995884 | etot = -54.4567170026176
199000  ekin = 7.29564326176015 |  erot = 18.7231663844438 | epot = -80.4755266460848 | etot = -54.4567169998808
200000  ekin = 7.05165448325543 |  erot = 18.1349004645792 | epot = -79.6432719456297 | etot = -54.4567169977951
201000  ekin = 6.79980702715855 |  erot = 17.5878866996147 | epot = -78.8444107231935 | etot = -54.4567169964203
202000  ekin = 6.55389674542695 |  erot = 17.0887428909489 | epot = -78.0993566320958 | etot = -54.45671699572
203000  ekin = 6.32553934601966 |  erot = 16.6359102128837 | epot = -77.4181665545184 | etot = -54.4567169956151
204000  ekin = 6.12389931338692 |  erot = 16.2210487374615 | epot = -76.8016650468575 | etot = -54.4567169960091
205000  ekin = 5.95555747604073 |  erot = 15.8306192384197 | epot = -76.2428937112594 | etot = -54.4567169967989
206000  ekin = 5.82447629752483 |  erot = 15.4475601715693 | epot = -75.7287534669597 | etot = -54.4567169978656
207000  ekin = 5.73209725915263 |  erot = 15.0531052521605 | epot = -75.2419195103738 | etot = -54.4567169990607
208000  ekin = 5.67763110960507 |  erot = 14.6288167787902 | epot = -74.7631648886021 | etot = -54.4567170002068
209000  ekin = 5.65856116655301 |  erot = 14.1588249337465 | epot = -74.2741031014098 | etot = -54.4567170011102
210000  ekin = 5.6712828663927 |  erot = 13.6320871718379 | epot = -73.7600870398326 | etot = -54.456717001602
211000  ekin = 5.71170580201836 |  erot = 13.0442947184104 | epot = -73.2127175220104 | etot = -54.4567170015816
212000  ekin = 5.77563179366601 |  erot = 12.3989793850675 | epot = -72.6313281797795 | etot = -54.456717001046
213000  ekin = 5.85883529486916 |  erot = 11.7074993993304 | epot = -72.0230516942857 | etot = -54.4567170000862
214000  ekin = 5.95694378807647 |  erot = 10.9878661192832 | epot = -71.4015269062099 | etot = -54.4567169988502
215000  ekin = 6.06530909503383 |  erot = 10.2626621519582 | epot = -70.7846882445011 | etot = -54.4567169975091
216000  ekin = 6.17900319439905 |  erot = 9.55646209151467 | epot = -70.1921822821411 | etot = -54.4567169962274
217000  ekin = 6.29293379836596 |  erot = 8.89318379220723 | epot = -69.6428345857192 | etot = -54.456716995146
218000  ekin = 6.40198693072017 |  erot = 8.29373644846285 | epot = -69.1524403735552 | etot = -54.4567169943722
219000  ekin = 6.50112265239684 |  erot = 7.77424405643487 | epot = -68.732083702802 | etot = -54.4567169939703
220000  ekin = 6.58542599005467 |  erot = 7.34501698346264 | epot = -68.3871599674677 | etot = -54.4567169939504
221000  ekin = 6.6501699004463 |  erot = 7.01032033730907 | epot = -68.1172072320272 | etot = -54.4567169942718
222000  ekin = 6.69094775781919 |  erot = 6.76886488024845 | epot = -67.9165296329197 | etot = -54.4567169948521
223000  ekin = 6.7038957063633 |  erot = 6.61485079073525 | epot = -67.7754634926816 | etot = -54.456716995583
224000  ekin = 6.68598136532833 |  erot = 6.53933986021408 | epot = -67.6820382218934 | etot = -54.456716996351
225000  ekin = 6.63530548008247 |  erot = 6.53171636120422 | epot = -67.6237388382973 | etot = -54.4567169970106
226000  ekin = 6.55135057790799 |  erot = 6.58128483353117 | epot = -67.5893524090246 | etot = -54.4567169975854
227000  ekin = 6.43512370214418 |  erot = 6.67791109033852 | epot = -67.5697517904585 | etot = -54.4567169979758
228000  ekin = 6.28918970974481 |  erot = 6.81247705117115 | epot = -67.5583837590923 | etot = -54.4567169981763
229000  ekin = 6.1175658806069 |  erot = 6.9774347779435 | epot = -67.5517176567548 | etot = -54.4567169982044
230000  ekin = 5.92551276691973 |  erot = 7.16674212049638 | epot = -67.5489718855087 | etot = -54.4567169980926
231000  ekin = 5.71926565756217 |  erot = 7.37564891103254 | epot = -67.551631566466 | etot = -54.4567169978713
232000  ekin = 5.50574389394972 |  erot = 7.60035647333841 | epot = -67.5628173648789 | etot = -54.4567169975908
233000  ekin = 5.29225977426159 |  erot = 7.83770399533277 | epot = -67.5866807668658 | etot = -54.4567169972714
234000  ekin = 5.0862439206851 |  erot = 8.08503631201549 | epot = -67.6279972296364 | etot = -54.4567169969359
235000  ekin = 4.89494104385069 |  erot = 8.33999580227168 | epot = -67.6916538427544 | etot = -54.456716996632
236000  ekin = 4.72509234581344 |  erot = 8.60029924339022 | epot = -67.7821085855883 | etot = -54.4567169963846
237000  ekin = 4.58266021004047 |  erot = 8.86357795327799 | epot = -67.9029551595439 | etot = -54.4567169962255
238000  ekin = 4.47254260204365 |  erot = 9.12720418841258 | epot = -68.0564637866342 | etot = -54.456716996178
239000  ekin = 4.39833350162634 |  erot = 9.38820734227972 | epot = -68.2432578401588 | etot = -54.4567169962527
240000  ekin = 4.36216127770993 |  erot = 9.6433463222102 | epot = -68.462224596357 | etot = -54.4567169964369
241000  ekin = 4.36462932001241 |  erot = 9.88937569308729 | epot = -68.710722009799 | etot = -54.4567169966993
242000  ekin = 4.40486892553622 |  erot = 10.1234451005895 | epot = -68.9850310231314 | etot = -54.4567169970057
243000  ekin = 4.48069651384233 |  erot = 10.3436703820966 | epot = -69.2810838932164 | etot = -54.4567169972774
244000  ekin = 4.58885218173362 |  erot = 10.5497495785183 | epot = -69.5953187577336 | etot = -54.4567169974817
245000  ekin = 4.7252822690641 |  erot = 10.7433460022148 | epot = -69.9253452688599 | etot = -54.456716997581
246000  ekin = 4.88542118269804 |  erot = 10.9282390794557 | epot = -70.2703772597261 | etot = -54.4567169975724
247000  ekin = 5.06442778965484 |  erot = 11.1101246208771 | epot = -70.6312694080142 | etot = -54.4567169974822
248000  ekin = 5.25733886261363 |  erot = 11.2960355852754 | epot = -71.0100914452567 | etot = -54.4567169973676
249000  ekin = 5.45911617615758 |  erot = 11.4934186026626 | epot = -71.4092517761299 | etot = -54.4567169973098
250000  ekin = 5.66458445083205 |  erot = 11.7089626303561 | epot = -71.830264078593 | etot = -54.4567169974049
251000  ekin = 5.86828470151914 |  erot = 11.947332082785 | epot = -72.2723337820484 | etot = -54.4567169977442
252000  ekin = 6.0643012791257 |  erot = 12.2100106162496 | epot = -72.7310288937673 | etot = -54.456716998392
253000  ekin = 6.24616780492437 |  erot = 12.4945137484007 | epot = -73.1973985526759 | etot = -54.4567169993509
254000  ekin = 6.40690922038606 |  erot = 12.7941888151781 | epot = -73.6578150361332 | etot = -54.456717000569
255000  ekin = 6.53938368546832 |  erot = 13.0989475895796 | epot = -74.0950482769172 | etot = -54.4567170018693
256000  ekin = 6.63705992686419 |  erot = 13.3969420757732 | epot = -74.4907190057033 | etot = -54.4567170030659
257000  ekin = 6.6948413285815 |  erot = 13.6765522910167 | epot = -74.828110623551 | etot = -54.4567170039528
258000  ekin = 6.70989585739565 |  erot = 13.9284862768506 | epot = -75.0950991385978 | etot = -54.4567170043516
259000  ekin = 6.68225912100141 |  erot = 14.1474604164198 | epot = -75.2864365416593 | etot = -54.456717004238
260000  ekin = 6.6149269670595 |  erot = 14.3327847112012 | epot = -75.4044286819583 | etot = -54.4567170036976
261000  ekin = 6.51342916846603 |  erot = 14.4875948089515 | epot = -75.4577409802865 | etot = -54.456717002869
262000  ekin = 6.38502298989667 |  erot = 14.6177175279221 | epot = -75.4594575197481 | etot = -54.4567170019294
263000  ekin = 6.23773151259011 |  erot = 14.7300999730227 | epot = -75.4245484866719 | etot = -54.4567170010591
264000  ekin = 6.07942833310978 |  erot = 14.8312906384144 | epot = -75.3674359719007 | etot = -54.4567170003765
265000  ekin = 5.91711592012144 |  erot = 14.9263499746133 | epot = -75.3001828946998 | etot = -54.456716999965
266000  ekin = 5.75647898919375 |  erot = 15.0181250690755 | epot = -75.2313210581342 | etot = -54.456716999865
267000  ekin = 5.60177946975526 |  erot = 15.1067951880379 | epot = -75.1652916578609 | etot = -54.4567170000677
268000  ekin = 5.45615379098988 |  erot = 15.189745234935 | epot = -75.1026160264251 | etot = -54.4567170005002
269000  ekin = 5.32235014694951 |  erot = 15.2617179030208 | epot = -75.0407850514111 | etot = -54.4567170014407
270000  ekin = 5.20387607982583 |  erot = 15.3135128498176 | epot = -74.9741059315067 | etot = -54.4567170018633
271000  ekin = 5.10637822315521 |  erot = 15.3372496535188 | epot = -74.9003448785744 | etot = -54.4567170019004
272000  ekin = 5.03885187481446 |  erot = 15.327624841925 | epot = -74.8231937182271 | etot = -54.4567170014876
273000  ekin = 5.01411589731618 |  erot = 15.2821745715634 | epot = -74.7530074694248 | etot = -54.4567170005452
274000  ekin = 5.04786741773145 |  erot = 15.2025250198948 | epot = -74.7071094368927 | etot = -54.4567169992664
275000  ekin = 5.15594350432475 |  erot = 15.0944700838312 | epot = -74.7071305860956 | etot = -54.4567169979397
276000  ekin = 5.35014893903236 |  erot = 14.9659361282781 | epot = -74.7728020645803 | etot = -54.4567169972699
277000  ekin = 5.63387543033527 |  erot = 14.8238652605351 | epot = -74.9144576883626 | etot = -54.4567169974923
278000  ekin = 5.99920506254099 |  erot = 14.6727240463492 | epot = -75.1286461075833 | etot = -54.4567169986931
279000  ekin = 6.42692112008751 |  erot = 14.513699602506 | epot = -75.3973377231584 | etot = -54.4567170005649
280000  ekin = 6.88964247825144 |  erot = 14.3457897766104 | epot = -75.6921492574821 | etot = -54.4567170026203
281000  ekin = 7.35680808434941 |  erot = 14.1678692303649 | epot = -75.9813943196751 | etot = -54.4567170049608
282000  ekin = 7.79894530205517 |  erot = 13.9783131612805 | epot = -76.2339754694448 | etot = -54.4567170061092
283000  ekin = 8.19329732426299 |  erot = 13.7802856701101 | epot = -76.4303000007414 | etot = -54.4567170063683
284000  ekin = 8.52584895841313 |  erot = 13.5821656429363 | epot = -76.5647316071434 | etot = -54.4567170057939
285000  ekin = 8.79110175655308 |  erot = 13.3960594628864 | epot = -76.6438782240431 | etot = -54.4567170046036
286000  ekin = 8.99062132696362 |  erot = 13.2361225163112 | epot = -76.6834608463776 | etot = -54.4567170031028
287000  ekin = 9.13075096351798 |  erot = 13.116415254778 | epot = -76.7038832199022 | etot = -54.4567170016063
288000  ekin = 9.2201402060807 |  erot = 13.0487281533165 | epot = -76.7255853597818 | etot = -54.4567170003847
289000  ekin = 9.26758159069276 |  erot = 13.0407526423211 | epot = -76.7650512326338 | etot = -54.4567169996199
290000  ekin = 9.28045458789671 |  erot = 13.0948897576293 | epot = -76.8320613449156 | etot = -54.4567169993897
291000  ekin = 9.26388652304975 |  erot = 13.2078630291817 | epot = -76.9284665519076 | etot = -54.4567169996761
292000  ekin = 9.22058026560232 |  erot = 13.3711344770738 | epot = -77.0484317430577 | etot = -54.4567170003816
293000  ekin = 9.15114447320877 |  erot = 13.5719438956012 | epot = -77.1798053701816 | etot = -54.4567170013717
294000  ekin = 9.05470928641046 |  erot = 13.7944688657362 | epot = -77.3058951547296 | etot = -54.4567170025829
295000  ekin = 8.92962793964649 |  erot = 14.0209919623835 | epot = -77.4073369057994 | etot = -54.4567170037694
296000  ekin = 8.77413837931907 |  erot = 14.233755611159 | epot = -77.4646109953774 | etot = -54.4567170048993
297000  ekin = 8.58694141176308 |  erot = 14.4156117991042 | epot = -77.4592702167607 | etot = -54.4567170058934
298000  ekin = 8.36771464082724 |  erot = 14.5507736801853 | epot = -77.3752053276863 | etot = -54.4567170066738
299000  ekin = 8.11757828386985 |  erot = 14.6256180333509 | epot = -77.1999133243813 | etot = -54.4567170071606
300000  ekin = 7.83948860310585 |  erot = 14.6295386097215 | epot = -76.9257442201075 | etot = -54.4567170072802
301000  ekin = 7.53848779196521 |  erot = 14.5557753435651 | epot = -76.5509801425169 | etot = -54.4567170069866
302000  ekin = 7.22172227244577 |  erot = 14.4020558262293 | epot = -76.0804951049512 | etot = -54.4567170062762
303000  ekin = 6.898170015461 |  erot = 14.170873945613 | epot = -75.5257609662701 | etot = -54.4567170051961
304000  ekin = 6.57808261931137 |  erot = 13.8692983759016 | epot = -74.9040979990486 | etot = -54.4567170038356
305000  ekin = 6.2722234776823 |  erot = 13.5083194093946 | epot = -74.2372598893895 | etot = -54.4567170023126
306000  ekin = 5.99103930572871 |  erot = 13.1018578904956 | epot = -73.549614196971 | etot = -54.4567170007467
307000  ekin = 5.74391705619897 |  erot = 12.6656285179261 | epot = -72.8662625733666 | etot = -54.4567169992415
308000  ekin = 5.53864734382477 |  erot = 12.2160468439345 | epot = -72.2114111856259 | etot = -54.4567169978666
309000  ekin = 5.38115498325946 |  erot = 11.7690964633918 | epot = -71.6069684433846 | etot = -54.4567169967334
310000  ekin = 5.27549820636478 |  erot = 11.3394194656315 | epot = -71.0716346677326 | etot = -54.4567169957363
311000  ekin = 5.22401044242898 |  erot = 10.9405074525655 | epot = -70.6212348899484 | etot = -54.4567169949538
312000  ekin = 5.22752009859842 |  erot = 10.58378677297 | epot = -70.2680238659752 | etot = -54.4567169944068
313000  ekin = 5.2855691102471 |  erot = 10.278028711995 | epot = -70.0203148163729 | etot = -54.4567169941308
314000  ekin = 5.39655367391449 |  erot = 10.0287341725483 | epot = -69.8820048406328 | etot = -54.45671699417
315000  ekin = 5.55776516265216 |  erot = 9.83752336502832 | epot = -69.8520055222453 | etot = -54.4567169945648
316000  ekin = 5.76535304575541 |  erot = 9.7016458093175 | epot = -69.9237158504148 | etot = -54.4567169953418
317000  ekin = 6.01426692501147 |  erot = 9.61377206322875 | epot = -70.0847559847325 | etot = -54.4567169964923
318000  ekin = 6.29825476428649 |  erot = 9.56224828023903 | epot = -70.3172200424818 | etot = -54.4567169979563
319000  ekin = 6.60999451535049 |  erot = 9.5319755768407 | epot = -70.5986870918048 | etot = -54.4567169996136
320000  ekin = 6.94141382334492 |  erot = 9.50599899524184 | epot = -70.9041298198703 | etot = -54.4567170012835
321000  ekin = 7.28420684012922 |  erot = 9.46773994831762 | epot = -71.2086637911961 | etot = -54.4567170027492
322000  ekin = 7.63049375596247 |  erot = 9.40359379846618 | epot = -71.4908045582248 | etot = -54.4567170037962
323000  ekin = 7.97350371439743 |  erot = 9.30540350739528 | epot = -71.7356242260599 | etot = -54.4567170042672
324000  ekin = 8.30812216471307 |  erot = 9.17221603058585 | epot = -71.9370551994029 | etot = -54.456717004104
325000  ekin = 8.63115493817483 |  erot = 9.01082149334885 | epot = -72.0986934348921 | etot = -54.4567170033684
326000  ekin = 8.94122829508797 |  erot = 8.83486894707444 | epot = -72.2328142443922 | etot = -54.4567170022298
327000  ekin = 9.23834163996081 |  erot = 8.66273411451702 | epot = -72.3577927554029 | etot = -54.4567170009251
328000  ekin = 9.52317541128336 |  erot = 8.51461710980073 | epot = -72.4945095207944 | etot = -54.4567169997103
329000  ekin = 9.79629908030493 |  erot = 8.40945765597971 | epot = -72.6624737351001 | etot = -54.4567169988154
330000  ekin = 10.0574197993294 |  erot = 8.36217436292908 | epot = -72.8763111606755 | etot = -54.4567169984171
331000  ekin = 10.3047815002041 |  erot = 8.38155728442034 | epot = -73.1430557832487 | etot = -54.4567169986243
332000  ekin = 10.5347934531664 |  erot = 8.46897862472524 | epot = -73.4604890773601 | etot = -54.4567169994685
333000  ekin = 10.7419525181473 |  erot = 8.61799790190843 | epot = -73.8166674209546 | etot = -54.4567170008989
334000  ekin = 10.9191228829944 |  erot = 8.81492290907158 | epot = -74.1907627948314 | etot = -54.4567170027654
335000  ekin = 11.0582310034198 |  erot = 9.04039212108807 | epot = -74.5553401293301 | etot = -54.4567170048223
336000  ekin = 11.1513905495672 |  erot = 9.27198870540517 | epot = -74.880096261711 | etot = -54.4567170067386
337000  ekin = 11.1923691999822 |  erot = 9.48771814311757 | epot = -75.1368043512457 | etot = -54.4567170081459
338000  ekin = 11.1781584914567 |  erot = 9.66988639694834 | epot = -75.3047618971217 | etot = -54.4567170087167
339000  ekin = 11.1102731632004 |  erot = 9.80861367328644 | epot = -75.3756038447372 | etot = -54.4567170082504
340000  ekin = 10.9953796290097 |  erot = 9.90409604937516 | epot = -75.3561926851333 | etot = -54.4567170067484
341000  ekin = 10.8449930881419 |  erot = 9.96693425469746 | epot = -75.268644347256 | etot = -54.4567170044166
342000  ekin = 10.6742553473784 |  erot = 10.0163686561569 | epot = -75.1473410051493 | etot = -54.456717001614
343000  ekin = 10.5000860602698 |  erot = 10.0768729195906 | epot = -75.0336759786219 | etot = -54.4567169987615
344000  ekin = 10.3391511438798 |  erot = 10.1739718598944 | epot = -74.9698400000255 | etot = -54.4567169962514
345000  ekin = 10.2060562002363 |  erot = 10.3301918101587 | epot = -74.9929650047806 | etot = -54.4567169943855
346000  ekin = 10.1120018691461 |  erot = 10.5617784620028 | epot = -75.1304973245115 | etot = -54.4567169933625
347000  ekin = 10.0639419677441 |  erot = 10.8764329835346 | epot = -75.3970919445696 | etot = -54.456716993291
348000  ekin = 10.0641555603058 |  erot = 11.272025732448 | epot = -75.7928982869613 | etot = -54.4567169942075
349000  ekin = 10.1101145524105 |  erot = 11.7361477401435 | epot = -76.3029792886416 | etot = -54.4567169960877
350000  ekin = 10.194582521887 |  erot = 12.2464414545059 | epot = -76.8977409752301 | etot = -54.4567169988372
351000  ekin = 10.3059767731321 |  erot = 12.7718298178684 | epot = -77.5345235932654 | etot = -54.4567170022649
352000  ekin = 10.4291136841201 |  erot = 13.274913313952 | epot = -78.1607440041161 | etot = -54.456717006044
353000  ekin = 10.5464827220696 |  erot = 13.7157870243144 | epot = -78.7189867560916 | etot = -54.4567170097076
354000  ekin = 10.6401081739569 |  erot = 14.057229186967 | epot = -79.1540543736257 | etot = -54.4567170127017
355000  ekin = 10.6938478547038 |  erot = 14.2706326977498 | epot = -79.421197566951 | etot = -54.4567170144975
356000  ekin = 10.6957117760349 |  erot = 14.3414067966632 | epot = -79.4938355874434 | etot = -54.4567170147452
357000  ekin = 10.6396104112845 |  erot = 14.2722652226246 | epot = -79.3685926473052 | etot = -54.4567170133961
358000  ekin = 10.5262520486628 |  erot = 14.0832401802021 | epot = -79.0662092386956 | etot = -54.4567170098307
359000  ekin = 10.3670012344496 |  erot = 13.8092169878378 | epot = -78.6329352288622 | etot = -54.4567170065747
360000  ekin = 10.1730345911639 |  erot = 13.4915235481033 | epot = -78.1212751423934 | etot = -54.4567170031263
361000  ekin = 9.95554687781761 |  erot = 13.1714216600725 | epot = -77.5836855379417 | etot = -54.4567170000515
362000  ekin = 9.72626696401673 |  erot = 12.8843171182331 | epot = -77.0673010799944 | etot = -54.4567169977445
363000  ekin = 9.49594699775478 |  erot = 12.6552376501784 | epot = -76.6079016443334 | etot = -54.4567169964002
364000  ekin = 9.27348051448134 |  erot = 12.4966397003761 | epot = -76.226837210883 | etot = -54.4567169960255
365000  ekin = 9.06556428138691 |  erot = 12.408435956081 | epot = -75.9307172339611 | etot = -54.4567169964932
366000  ekin = 8.87671568778686 |  erot = 12.3798183116159 | epot = -75.7132509969826 | etot = -54.4567169975798
367000  ekin = 8.70950256436292 |  erot = 12.3923063931803 | epot = -75.5585259565717 | etot = -54.4567169990284
368000  ekin = 8.56482533240977 |  erot = 12.4233361953079 | epot = -75.4448785283144 | etot = -54.4567170005967
369000  ekin = 8.44216266248821 |  erot = 12.4496962572909 | epot = -75.3485759218773 | etot = -54.4567170020982
370000  ekin = 8.33975827582798 |  erot = 12.4502709028872 | epot = -75.2467461821219 | etot = -54.4567170034067
371000  ekin = 8.25479796579994 |  erot = 12.4078609325617 | epot = -75.1193759028063 | etot = -54.4567170044447
372000  ekin = 8.1836687896195 |  erot = 12.3101981041707 | epot = -74.9505838989413 | etot = -54.4567170051512
373000  ekin = 8.12237120101005 |  erot = 12.150469466894 | epot = -74.7295576733678 | etot = -54.4567170054638
374000  ekin = 8.06677539354389 |  erot = 11.9273562293618 | epot = -74.4508486283267 | etot = -54.456717005421
375000  ekin = 8.01350111914578 |  erot = 11.6453205219606 | epot = -74.1155386458777 | etot = -54.4567170047713
376000  ekin = 7.96091572449109 |  erot = 11.3149868234321 | epot = -73.7326195516342 | etot = -54.4567170037111
377000  ekin = 7.90852881943222 |  erot = 10.9517029979104 | epot = -73.3169488197141 | etot = -54.4567170023715
378000  ekin = 7.85672904351673 |  erot = 10.5738384909382 | epot = -72.8872845353939 | etot = -54.456717000939
379000  ekin = 7.80630927768835 |  erot = 10.2005458441792 | epot = -72.4635721214806 | etot = -54.456716999613
380000  ekin = 7.75800079079379 |  erot = 9.84945299077856 | epot = -72.0641707801124 | etot = -54.4567169985401
381000  ekin = 7.71644600863279 |  erot = 9.53800624562745 | epot = -71.7111692500986 | etot = -54.4567169958383
382000  ekin = 7.68441527893159 |  erot = 9.2783208983659 | epot = -71.4194531731883 | etot = -54.4567169958909
383000  ekin = 7.65787566183791 |  erot = 9.07303517127919 | epot = -71.1876278290995 | etot = -54.4567169959824
384000  ekin = 7.63460910810437 |  erot = 8.92241188986493 | epot = -71.0137379939128 | etot = -54.4567169959435
385000  ekin = 7.61495351644065 |  erot = 8.82611541869655 | epot = -70.8977859308194 | etot = -54.4567169956822
386000  ekin = 7.60189486281627 |  erot = 8.78441843695726 | epot = -70.8430302950001 | etot = -54.4567169952266
387000  ekin = 7.6004189110324 |  erot = 8.79838942462995 | epot = -70.8555253303877 | etot = -54.4567169947253
388000  ekin = 7.61622683362077 |  erot = 8.86894752211266 | epot = -70.9418913501425 | etot = -54.4567169944091
389000  ekin = 7.65411397461101 |  erot = 8.99508106939632 | epot = -71.1059120385254 | etot = -54.4567169945181
390000  ekin = 7.71640194413762 |  erot = 9.17181221608524 | epot = -71.3449311554783 | etot = -54.4567169952555
391000  ekin = 7.80179289421792 |  erot = 9.38846927313518 | epot = -71.6469791640467 | etot = -54.4567169966936
392000  ekin = 7.90489667240656 |  erot = 9.62803617098395 | epot = -71.9896498421597 | etot = -54.4567169987692
393000  ekin = 8.01656398897941 |  erot = 9.86778742621825 | epot = -72.3410684164707 | etot = -54.456717001273
394000  ekin = 8.12500523168231 |  erot = 10.0813107732258 | epot = -72.6630330087845 | etot = -54.4567170038763
395000  ekin = 8.21751488333194 |  erot = 10.2416672650839 | epot = -72.915899154609 | etot = -54.4567170061932
396000  ekin = 8.28249369762926 |  erot = 10.3253499492638 | epot = -73.0645606546967 | etot = -54.4567170078036
397000  ekin = 8.31139266032575 |  erot = 10.315944912881 | epot = -73.0840545817406 | etot = -54.4567170085339
398000  ekin = 8.30021982541605 |  erot = 10.206034771068 | epot = -72.9629716046318 | etot = -54.4567170081478
399000  ekin = 8.25031816200888 |  erot = 9.99940615795296 | epot = -72.7064413267651 | etot = -54.4567170068033
400000  ekin = 8.16827445227822 |  erot = 9.70970155030778 | epot = -72.3346930072165 | etot = -54.4567170046305
401000  ekin = 8.06453103741756 |  erot = 9.35834706106926 | epot = -71.8795951005915 | etot = -54.4567170021047
402000  ekin = 7.95192509945215 |  erot = 8.9720246874988 | epot = -71.3806667861483 | etot = -54.4567169991973
403000  ekin = 7.84555125758116 |  erot = 8.5797180293817 | epot = -70.8819862834035 | etot = -54.4567169964406
404000  ekin = 7.76002341839185 |  erot = 8.20898478879149 | epot = -70.4257252013545 | etot = -54.4567169941711
405000  ekin = 7.7073293183604 |  erot = 7.88377510171153 | epot = -70.04782141242 | etot = -54.4567169923481
406000  ekin = 7.69678612080548 |  erot = 7.62266799266178 | epot = -69.7761711045927 | etot = -54.4567169911254
407000  ekin = 7.73513354697874 |  erot = 7.43808993656983 | epot = -69.6299404740827 | etot = -54.4567169905341
408000  ekin = 7.8257165724106 |  erot = 7.33617130723373 | epot = -69.6186048702056 | etot = -54.4567169905613
409000  ekin = 7.9684496970445 |  erot = 7.31680539063865 | epot = -69.7419720788775 | etot = -54.4567169911943
410000  ekin = 8.15983887505972 |  erot = 7.37383443939713 | epot = -69.9903903068714 | etot = -54.4567169924145
411000  ekin = 8.39302325865334 |  erot = 7.4953976334531 | epot = -70.345137886285 | etot = -54.4567169941786
412000  ekin = 8.65789214072952 |  erot = 7.66460030904632 | epot = -70.7792094461696 | etot = -54.4567169963938
413000  ekin = 8.94143674964152 |  erot = 7.86072523711258 | epot = -71.2588789856408 | etot = -54.4567169988867
414000  ekin = 9.2285627397849 |  erot = 8.06118997496099 | epot = -71.7464697161277 | etot = -54.4567170013818
415000  ekin = 9.50353222597935 |  erot = 8.24426927837358 | epot = -72.2045185078814 | etot = -54.4567170035285
416000  ekin = 9.75196200032584 |  erot = 8.3922487405301 | epot = -72.6009277458387 | etot = -54.4567170049828
417000  ekin = 9.96294493861504 |  erot = 8.4942852221574 | epot = -72.9139471663141 | etot = -54.4567170055416
418000  ekin = 10.1306180934849 |  erot = 8.54795226111009 | epot = -73.1352873597258 | etot = -54.4567170051309
419000  ekin = 10.2546096453467 |  erot = 8.55936156101576 | epot = -73.2706882103111 | etot = -54.4567170039486
420000  ekin = 10.3392413847909 |  erot = 8.5415094684924 | epot = -73.3374678555834 | etot = -54.4567170023001
421000  ekin = 10.3918587231878 |  erot = 8.51150598433204 | epot = -73.3600817080286 | etot = -54.4567170005087
422000  ekin = 10.420878514384 |  erot = 8.48778665542919 | epot = -73.3653821686562 | etot = -54.456716998843
423000  ekin = 10.434035033694 |  erot = 8.48770021699399 | epot = -73.3784522482256 | etot = -54.4567169975376
424000  ekin = 10.4370437707889 |  erot = 8.52571262941259 | epot = -73.4194733968352 | etot = -54.4567169966337
425000  ekin = 10.4323779106206 |  erot = 8.61252848638848 | epot = -73.5016237919832 | etot = -54.4567173949741
426000  ekin = 10.102769114069 |  erot = 8.3108489099065 | epot = -72.8703349960252 | etot = -54.4567169720496
427000  ekin = 10.5737761012436 |  erot = 8.79661991597064 | epot = -73.8271134052581 | etot = -54.4567173880439
428000  ekin = 10.6073086148571 |  erot = 9.02815734229429 | epot = -74.0921832808582 | etot = -54.4567173237068
429000  ekin = 10.5962992474403 |  erot = 9.29502326253689 | epot = -74.3480398354735 | etot = -54.4567173254963
430000  ekin = 10.5389640746102 |  erot = 9.58950094092139 | epot = -74.5851823430198 | etot = -54.4567173274882
431000  ekin = 10.424560070762 |  erot = 9.89254945457633 | epot = -74.7738268547395 | etot = -54.4567173294012
432000  ekin = 10.2456183701252 |  erot = 10.1831375483455 | epot = -74.8854732493789 | etot = -54.4567173309082
433000  ekin = 10.0001839880952 |  erot = 10.4408608802982 | epot = -74.8977622000937 | etot = -54.4567173317003
434000  ekin = 9.69355282026506 |  erot = 10.6487620299475 | epot = -74.7990321817772 | etot = -54.4567173315646
435000  ekin = 9.33897175582479 |  erot = 10.7957385369256 | epot = -74.5914276232058 | etot = -54.4567173304554
436000  ekin = 8.95691803308959 |  erot = 10.8779295163446 | epot = -74.2915648779558 | etot = -54.4567173285216
437000  ekin = 8.57292089770475 |  erot = 10.8987288383945 | epot = -73.9283670621729 | etot = -54.4567173260737
438000  ekin = 8.21432291140729 |  erot = 10.8675107992394 | epot = -73.5385510341416 | etot = -54.4567173234949
439000  ekin = 7.90671191649818 |  erot = 10.7975744645327 | epot = -73.1610037021698 | etot = -54.4567173211389
440000  ekin = 7.67083057757437 |  erot = 10.704001256365 | epot = -72.8315491531841 | etot = -54.4567173192447
441000  ekin = 7.52056261879319 |  erot = 10.6019893788256 | epot = -72.5792693155341 | etot = -54.4567173179153
442000  ekin = 7.46221677066932 |  erot = 10.5058719364384 | epot = -72.4248060242437 | etot = -54.456717317136
443000  ekin = 7.49495713473312 |  erot = 10.4286506059643 | epot = -72.3803250575354 | etot = -54.456717316838
444000  ekin = 7.61199665329081 |  erot = 10.3816668192493 | epot = -72.4503807894868 | etot = -54.4567173169467
445000  ekin = 7.80212113163771 |  erot = 10.3740565458196 | epot = -72.6328949948784 | etot = -54.4567173174211
446000  ekin = 8.05121208711611 |  erot = 10.4118503345054 | epot = -72.9197797398638 | etot = -54.4567173182423
447000  ekin = 8.34364339005653 |  erot = 10.4968771153949 | epot = -73.2972378248907 | etot = -54.4567173194392
448000  ekin = 8.66325116931131 |  erot = 10.625662516794 | epot = -73.7456310070801 | etot = -54.4567173209747
449000  ekin = 8.99432108685695 |  erot = 10.7889809207854 | epot = -74.2400193304181 | etot = -54.4567173227757
450000  ekin = 9.32245948923829 |  erot = 10.9722541224504 | epot = -74.751430936397 | etot = -54.4567173247083
451000  ekin = 9.63536145904856 |  erot = 11.156898532641 | epot = -75.2489773182818 | etot = -54.4567173265923
452000  ekin = 9.92347885289157 |  erot = 11.3224562063112 | epot = -75.7026523874263 | etot = -54.4567173282236
453000  ekin = 10.1805354635941 |  erot = 11.4491361056663 | epot = -76.0863888986956 | etot = -54.4567173294351
454000  ekin = 10.4037376220791 |  erot = 11.5201500068692 | epot = -76.3806049590792 | etot = -54.4567173301309
455000  ekin = 10.5935799379761 |  erot = 11.5233605384503 | epot = -76.5736578067353 | etot = -54.4567173303089
456000  ekin = 10.7532157912851 |  erot = 11.4519857883943 | epot = -76.6619189097318 | etot = -54.4567173300525
457000  ekin = 10.8874528211754 |  erot = 11.3044013916463 | epot = -76.6485715423183 | etot = -54.4567173294966
458000  ekin = 11.001535672013 |  erot = 11.0833330749799 | epot = -76.5415860757935 | etot = -54.4567173288006
459000  ekin = 11.0999386292817 |  erot = 10.7947718565368 | epot = -76.3514278139082 | etot = -54.4567173280897
460000  ekin = 11.1853921968857 |  erot = 10.4469386378857 | epot = -76.0890481622364 | etot = -54.456717327465
461000  ekin = 11.2582527529505 |  erot = 10.0494375630704 | epot = -75.7644076429835 | etot = -54.4567173269627
462000  ekin = 11.3163535530699 |  erot = 9.61273056585407 | epot = -75.3858014455075 | etot = -54.4567173265835
463000  ekin = 11.3552901634218 |  erot = 9.1478274108088 | epot = -74.959834900532 | etot = -54.4567173263014
464000  ekin = 11.3690501275205 |  erot = 8.66606699696608 | epot = -74.4918344505474 | etot = -54.4567173260608
465000  ekin = 11.3509395537084 |  erot = 8.17907283457056 | epot = -73.9867297140534 | etot = -54.4567173257744
466000  ekin = 11.2946941726397 |  erot = 7.69877194993406 | epot = -73.4501834479707 | etot = -54.4567173253969
467000  ekin = 11.1954789031865 |  erot = 7.23723472359684 | epot = -72.889430951676 | etot = -54.4567173248926
468000  ekin = 11.0507711892589 |  erot = 6.80628316339318 | epot = -72.3137716769111 | etot = -54.456717324259
469000  ekin = 10.8610622879329 |  erot = 6.41684853511032 | epot = -71.7346281465611 | etot = -54.4567173235179
470000  ekin = 10.6303293037452 |  erot = 6.07816222727495 | epot = -71.1652088537213 | etot = -54.4567173227011
471000  ekin = 10.3662986164649 |  erot = 5.79695153505929 | epot = -70.6199674733634 | etot = -54.4567173218392
472000  ekin = 10.0804738216169 |  erot = 5.57685091063635 | epot = -70.1140420532125 | etot = -54.4567173209592
473000  ekin = 9.78780661767614 |  erot = 5.41818349563098 | epot = -69.6627074333982 | etot = -54.4567173200911
474000  ekin = 9.50580460754672 |  erot = 5.31815275508718 | epot = -69.2806746819342 | etot = -54.4567173193003
475000  ekin = 9.25291327929457 |  erot = 5.27138134030385 | epot = -68.9810119382783 | etot = -54.4567173186798
476000  ekin = 9.04625597797249 |  erot = 5.27069575628468 | epot = -68.773669052586 | etot = -54.4567173183288
477000  ekin = 8.89916818083064 |  erot = 5.30806481991686 | epot = -68.6639503190668 | etot = -54.4567173183193
478000  ekin = 8.81917608291934 |  erot = 5.37558721489192 | epot = -68.6514806164727 | etot = -54.4567173186615
479000  ekin = 8.80688801078544 |  erot = 5.46634570345682 | epot = -68.729951033573 | etot = -54.4567173193307
480000  ekin = 8.85595772732357 |  erot = 5.57491529290513 | epot = -68.8875903404655 | etot = -54.4567173202368
481000  ekin = 8.9542741130118 |  erot = 5.69752640400347 | epot = -69.108517838353 | etot = -54.4567173213377
482000  ekin = 9.0851963959233 |  erot = 5.83169305185317 | epot = -69.3736067703566 | etot = -54.4567173225801
483000  ekin = 9.22914118620107 |  erot = 5.97559221268723 | epot = -69.6614507227971 | etot = -54.4567173239088
484000  ekin = 9.3652821454577 |  erot = 6.12746790494848 | epot = -69.9494673756554 | etot = -54.4567173252492
485000  ekin = 9.47329519940104 |  erot = 6.28524325030241 | epot = -70.2152557762067 | etot = -54.4567173265033
486000  ekin = 9.53507247962912 |  erot = 6.44644236438812 | epot = -70.4382321715783 | etot = -54.4567173275611
487000  ekin = 9.53625700454616 |  erot = 6.60839833383176 | epot = -70.6013726667003 | etot = -54.4567173283224
488000  ekin = 9.46740386001155 |  erot = 6.7686126489044 | epot = -70.692733837639 | etot = -54.456717328723
489000  ekin = 9.32459963448959 |  erot = 6.92506407616445 | epot = -70.7063810394037 | etot = -54.4567173287496
490000  ekin = 9.10947948779674 |  erot = 7.07631880463358 | epot = -70.642515620872 | etot = -54.4567173284416
491000  ekin = 8.82889148608559 |  erot = 7.22129660537944 | epot = -70.5069054189546 | etot = -54.4567173274895
492000  ekin = 8.4962875622067 |  erot = 7.35787986415986 | epot = -70.3108847533115 | etot = -54.456717326945
493000  ekin = 8.12488660028817 |  erot = 7.48347573766635 | epot = -70.0650796642411 | etot = -54.4567173262866
494000  ekin = 7.72897177736132 |  erot = 7.59497930547726 | epot = -69.7806684084012 | etot = -54.4567173255626
495000  ekin = 7.32471897790911 |  erot = 7.68843463889095 | epot = -69.469870936463 | etot = -54.4567173196629
496000  ekin = 6.87941085033666 |  erot = 7.73484184190264 | epot = -69.0709701954428 | etot = -54.4567175032035
497000  ekin = 6.10739678417312 |  erot = 7.42313588089451 | epot = -67.9872498480863 | etot = -54.4567171830187
498000  ekin = 6.8219211726194 |  erot = 7.452484020774 | epot = -68.7311226730858 | etot = -54.4567174796924
499000  ekin = 6.94584861699242 |  erot = 7.49830975479282 | epot = -68.9008757168133 | etot = -54.456717345028
500000  ekin = 6.96878886920507 |  erot = 7.49013442211219 | epot = -68.9156406384771 | etot = -54.4567173471599
501000  ekin = 7.01883264694271 |  erot = 7.44447241972525 | epot = -68.9200224127091 | etot = -54.4567173460412
502000  ekin = 7.10336336312501 |  erot = 7.36823892373933 | epot = -68.9283196315699 | etot = -54.4567173447056
503000  ekin = 7.2289928990578 |  erot = 7.27372377747254 | epot = -68.9594340197928 | etot = -54.4567173432625
504000  ekin = 7.4005994068373 |  erot = 7.17755657732697 | epot = -69.0348733260256 | etot = -54.4567173418614
505000  ekin = 7.62076916489943 |  erot = 7.09828995867377 | epot = -69.1757764642378 | etot = -54.4567173406646
506000  ekin = 7.88922231362651 |  erot = 7.05443045706273 | epot = -69.4003701105027 | etot = -54.4567173398134
507000  ekin = 8.20252308360148 |  erot = 7.06244306986031 | epot = -69.7216834928712 | etot = -54.4567173394094
508000  ekin = 8.55418648389005 |  erot = 7.13501434822763 | epot = -70.1459181716127 | etot = -54.456717339495
509000  ekin = 8.93520489703948 |  erot = 7.27978431320932 | epot = -70.6717065503033 | etot = -54.4567173400545
510000  ekin = 9.33488714865777 |  erot = 7.49865655844548 | epot = -71.2902610481323 | etot = -54.4567173410291
511000  ekin = 9.74177952549099 |  erot = 7.7876981022302 | epot = -71.9861949700651 | etot = -54.4567173423439
512000  ekin = 10.1443709695663 |  erot = 8.13755539116802 | epot = -72.7386437046674 | etot = -54.456717343933
513000  ekin = 10.5313274213558 |  erot = 8.5342579999187 | epot = -73.5223027670323 | etot = -54.4567173457578
514000  ekin = 10.8911959115654 |  erot = 8.96029115458747 | epot = -74.3082044139355 | etot = -54.4567173477827
515000  ekin = 11.2118380805567 |  erot = 9.39590833077182 | epot = -75.0644637612635 | etot = -54.456717349935
516000  ekin = 11.4801433363293 |  erot = 9.82076307115846 | epot = -75.7576237595405 | etot = -54.4567173520528
517000  ekin = 11.6825679425294 |  erot = 10.2159470150834 | epot = -76.3552323114897 | etot = -54.4567173538768
518000  ekin = 11.8066633107561 |  erot = 10.5663069186954 | epot = -76.8296875845688 | etot = -54.4567173551172
519000  ekin = 11.8431596193449 |  erot = 10.8625837428753 | epot = -77.1624607177696 | etot = -54.4567173555494
520000  ekin = 11.7878285859662 |  erot = 11.1027186624689 | epot = -77.3472646035601 | etot = -54.456717355125
521000  ekin = 11.6422563220656 |  erot = 11.2918969270452 | epot = -77.3908706030577 | etot = -54.4567173539469
522000  ekin = 11.4135745678826 |  erot = 11.4412270159144 | epot = -77.3115189360506 | etot = -54.4567173522537
523000  ekin = 11.1132889182013 |  erot = 11.565401362665 | epot = -77.1354076312099 | etot = -54.4567173503435
524000  ekin = 10.7556171647493 |  erot = 11.6798233409133 | epot = -76.89215785419 | etot = -54.4567173485274
525000  ekin = 10.3557495856454 |  erot = 11.7976048718282 | epot = -76.6100718045622 | etot = -54.4567173470886
526000  ekin = 9.92830200952678 |  erot = 11.9267761658672 | epot = -76.3117955216386 | etot = -54.4567173462447
527000  ekin = 9.4861760916393 |  erot = 12.0681058739526 | epot = -76.0109993116997 | etot = -54.4567173461077
528000  ekin = 9.04001720130084 |  erot = 12.2139837697124 | epot = -75.7107183176547 | etot = -54.4567173466414
529000  ekin = 8.59838558982515 |  erot = 12.3488494507761 | epot = -75.4039523882436 | etot = -54.4567173476424
530000  ekin = 8.16860222530235 |  erot = 12.4514559330934 | epot = -75.0767755071576 | etot = -54.4567173487618
531000  ekin = 7.75801650618655 |  erot = 12.4988074604703 | epot = -74.7135413162482 | etot = -54.4567173495913
532000  ekin = 7.37526556650152 |  erot = 12.4710301212426 | epot = -74.3030130375125 | etot = -54.4567173497683
533000  ekin = 7.03105781111155 |  erot = 12.355970528863 | epot = -73.8437456890665 | etot = -54.4567173490919
534000  ekin = 6.73815971498395 |  erot = 12.1522682791501 | epot = -73.3471453417086 | etot = -54.4567173475745
535000  ekin = 6.51053456919657 |  erot = 11.8701146968309 | epot = -72.8373666114534 | etot = -54.456717345426
536000  ekin = 6.36183924354587 |  erot = 11.5296683851323 | epot = -72.348224971669 | etot = -54.4567173429908
537000  ekin = 6.30361425977092 |  erot = 11.1591555752721 | epot = -71.9194871756111 | etot = -54.4567173405681
538000  ekin = 6.34347309062687 |  erot = 10.7899247971594 | epot = -71.5901152265502 | etot = -54.456717338764
539000  ekin = 6.48353756609274 |  erot = 10.448864772999 | epot = -71.3891196768483 | etot = -54.4567173377565
540000  ekin = 6.71929044884142 |  erot = 10.1573936013011 | epot = -71.3334013878978 | etot = -54.4567173377553
541000  ekin = 7.03900384377628 |  erot = 9.92878251409714 | epot = -71.4245036967232 | etot = -54.4567173388497
542000  ekin = 7.42390727691472 |  erot = 9.76658171325418 | epot = -71.6472063311494 | etot = -54.4567173409805
543000  ekin = 7.84922333880294 |  erot = 9.66443151246169 | epot = -71.9703721951897 | etot = -54.4567173439251
544000  ekin = 8.28608576855171 |  erot = 9.60741387125949 | epot = -72.3502169871298 | etot = -54.4567173473186
545000  ekin = 8.70416168565093 |  erot = 9.5748381917973 | epot = -72.7357172281471 | etot = -54.4567173506988
546000  ekin = 9.07464757513591 |  erot = 9.54408103804464 | epot = -73.0754459667738 | etot = -54.4567173535932
547000  ekin = 9.3731666291265 |  erot = 9.49472293137369 | epot = -73.3246069161143 | etot = -54.4567173556141
548000  ekin = 9.58208685808983 |  erot = 9.41206012908931 | epot = -73.450864343719 | etot = -54.4567173565398
549000  ekin = 9.69189882138825 |  erot = 9.2892089381751 | epot = -73.4378251159085 | etot = -54.4567173563452
550000  ekin = 9.70150390326669 |  erot = 9.12788542700221 | epot = -73.2861066853078 | etot = -54.4567173550388
551000  ekin = 9.61749941014082 |  erot = 8.93692851360498 | epot = -73.0111452769413 | etot = -54.4567173531955
552000  ekin = 9.45272119087804 |  erot = 8.7288749611758 | epot = -72.6383135030083 | etot = -54.4567173509545
553000  ekin = 9.22440824207828 |  erot = 8.51841746658326 | epot = -72.199543057248 | etot = -54.4567173485864
554000  ekin = 8.95232614946946 |  erot = 8.32031677004921 | epot = -71.7293602658114 | etot = -54.4567173462927
555000  ekin = 8.65710798386219 |  erot = 8.14801655131682 | epot = -71.2618418793792 | etot = -54.4567173442002
556000  ekin = 8.35889174137027 |  erot = 8.01297313100488 | epot = -70.8285822147525 | etot = -54.4567173423774
557000  ekin = 8.07627835317248 |  erot = 7.92452278401225 | epot = -70.4575184780337 | etot = -54.456717340849
558000  ekin = 7.82557556425423 |  erot = 7.89005526871244 | epot = -70.1723481725976 | etot = -54.4567173396309
559000  ekin = 7.62022949923433 |  erot = 7.9151997742857 | epot = -69.9921466122684 | etot = -54.4567173387483
560000  ekin = 7.47037167198336 |  erot = 8.00382469731386 | epot = -69.9309137075372 | etot = -54.45671733824
561000  ekin = 7.3824437430579 |  erot = 8.1577660602575 | epot = -69.9969271414742 | etot = -54.4567173381588
562000  ekin = 7.35891939627435 |  erot = 8.37634747918822 | epot = -70.1919842140091 | etot = -54.4567173385465
563000  ekin = 7.39821090242522 |  erot = 8.65591018978209 | epot = -70.5108384316117 | etot = -54.4567173394044
564000  ekin = 7.49490249873523 |  erot = 8.98967393472835 | epot = -70.9412937741221 | etot = -54.4567173406586
565000  ekin = 7.64044839043029 |  erot = 9.3684279189398 | epot = -71.4655936514438 | etot = -54.4567173420737
566000  ekin = 7.82436206842929 |  erot = 9.78146009418592 | epot = -72.0625395062585 | etot = -54.4567173436433
567000  ekin = 8.03570817671654 |  erot = 10.2171991122977 | epot = -72.7096246341256 | etot = -54.4567173451114
568000  ekin = 8.26450258147394 |  erot = 10.6646881726335 | epot = -73.3859081005311 | etot = -54.4567173464237
569000  ekin = 8.50263013239494 |  erot = 11.1136558316471 | epot = -74.0730033116448 | etot = -54.4567173476028
570000  ekin = 8.74345958959075 |  erot = 11.5533265255301 | epot = -74.7535034642607 | etot = -54.4567173491399
571000  ekin = 8.98083952020821 |  erot = 11.9715855040633 | epot = -75.4091423755824 | etot = -54.4567173513109
572000  ekin = 9.20828931136966 |  erot = 12.3553438318268 | epot = -76.0203504955519 | etot = -54.4567173523555
573000  ekin = 9.42090854110721 |  erot = 12.6948199769556 | epot = -76.5724458709036 | etot = -54.4567173528408
574000  ekin = 9.61857732717745 |  erot = 12.9876096044057 | epot = -77.0629042836973 | etot = -54.4567173521141
575000  ekin = 9.80559233525979 |  erot = 13.2418166844513 | epot = -77.5041263702044 | etot = -54.4567173504934
576000  ekin = 9.99035771755662 |  erot = 13.4731869806674 | epot = -77.9202620466551 | etot = -54.4567173484311
577000  ekin = 10.1835632722247 |  erot = 13.700252686708 | epot = -78.3405333056113 | etot = -54.4567173466786
578000  ekin = 10.395375100666 |  erot = 13.9378911113993 | epot = -78.7899835575509 | etot = -54.4567173454857
579000  ekin = 10.6324997791282 |  erot = 14.1944325431012 | epot = -79.2836496675446 | etot = -54.4567173453152
580000  ekin = 10.895796940664 |  erot = 14.4694129346651 | epot = -79.8219272216207 | etot = -54.4567173462917
581000  ekin = 11.1787341118753 |  erot = 14.7532777796984 | epot = -80.3887292399888 | etot = -54.4567173484151
582000  ekin = 11.466833292332 |  erot = 15.0284724124371 | epot = -80.9520230561641 | etot = -54.4567173513951
583000  ekin = 11.7383428294357 |  erot = 15.2728618931496 | epot = -81.4679220774621 | etot = -54.4567173548768
584000  ekin = 11.9664778295303 |  erot = 15.4633320551032 | epot = -81.8865272429157 | etot = -54.4567173582823
585000  ekin = 12.1233962794696 |  erot = 15.5801019753539 | epot = -82.1602156157369 | etot = -54.4567173609133
586000  ekin = 12.1854288034105 |  erot = 15.6113292070309 | epot = -82.2534753725822 | etot = -54.4567173621408
587000  ekin = 12.1382875982287 |  erot = 15.5565429926688 | epot = -82.1515479525323 | etot = -54.4567173616348
588000  ekin = 11.9805672635908 |  erot = 15.4274086012425 | epot = -81.8646932243601 | etot = -54.4567173595268
589000  ekin = 11.7241953475014 |  erot = 15.2450549080848 | epot = -81.4259676119825 | etot = -54.4567173563962
590000  ekin = 11.3915332486304 |  erot = 15.0345988268882 | epot = -80.8828494285741 | etot = -54.4567173530556
591000  ekin = 11.0101533181064 |  erot = 14.8188164822634 | epot = -80.2856871505942 | etot = -54.4567173502244
592000  ekin = 10.6073077807329 |  erot = 14.6133535707874 | epot = -79.6773786997805 | etot = -54.4567173482602
593000  ekin = 10.2061141300746 |  erot = 14.4250491600689 | epot = -79.0878806372491 | etot = -54.4567173471056
594000  ekin = 9.8243391782238 |  erot = 14.2531987869314 | epot = -78.534255311642 | etot = -54.4567173464868
595000  ekin = 9.47512062808258 |  erot = 14.0920125306519 | epot = -78.0238505049153 | etot = -54.4567173461808
596000  ekin = 9.16819158314277 |  erot = 13.9323441617422 | epot = -77.5572530910253 | etot = -54.4567173461403
597000  ekin = 8.91059203427263 |  erot = 13.7621053819225 | epot = -77.1294147626067 | etot = -54.4567173464115
598000  ekin = 8.7067730827948 |  erot = 13.5663641000571 | epot = -76.7298545298322 | etot = -54.4567173469804
599000  ekin = 8.55852376879638 |  erot = 13.3285545478083 | epot = -76.3437956642939 | etot = -54.4567173476893
600000  ekin = 8.46506569146732 |  erot = 13.0361676653363 | epot = -75.957950704708 | etot = -54.4567173479044
601000  ekin = 8.42303295999629 |  erot = 12.6870523997733 | epot = -75.5668027085597 | etot = -54.4567173487902
602000  ekin = 8.42685459628099 |  erot = 12.2732861398469 | epot = -75.1568580851668 | etot = -54.4567173490389
603000  ekin = 8.46950143052246 |  erot = 11.797057152529 | epot = -74.7232759317285 | etot = -54.4567173486771
604000  ekin = 8.54270518563639 |  erot = 11.2713924783248 | epot = -74.2708150118271 | etot = -54.4567173478659
605000  ekin = 8.6372873366298 |  erot = 10.7173462217388 | epot = -73.81135090518 | etot = -54.4567173468114
606000  ekin = 8.74373801577756 |  erot = 10.1602725630418 | epot = -73.3607279245054 | etot = -54.456717345686
607000  ekin = 8.85303389946066 |  erot = 9.62621357889553 | epot = -72.9359648229882 | etot = -54.456717344632
608000  ekin = 8.95757126306202 |  erot = 9.13896619785316 | epot = -72.5532548046045 | etot = -54.4567173436894
609000  ekin = 9.05196680864353 |  erot = 8.71829532643352 | epot = -72.2269794780304 | etot = -54.4567173429533
610000  ekin = 9.13352888579933 |  erot = 8.37856547529385 | epot = -71.9688117034023 | etot = -54.4567173423091
611000  ekin = 9.20215106470486 |  erot = 8.12901246860289 | epot = -71.7878808752354 | etot = -54.4567173419276
612000  ekin = 9.25956583878083 |  erot = 7.97314000871177 | epot = -71.6894231893825 | etot = -54.4567173418899
613000  ekin = 9.30811487221598 |  erot = 7.90851279250858 | epot = -71.6733450070229 | etot = -54.4567173422983
614000  ekin = 9.34927530412252 |  erot = 7.92684519060762 | epot = -71.7328378379656 | etot = -54.4567173432355
615000  ekin = 9.38237013823359 |  erot = 8.01433182907842 | epot = -71.8534193119359 | etot = -54.4567173446239
616000  ekin = 9.40383195120778 |  erot = 8.15304439800148 | epot = -72.0135936957659 | etot = -54.4567173465567
617000  ekin = 9.40773875972861 |  erot = 8.32048130516021 | epot = -72.1849374136101 | etot = -54.4567173487212
618000  ekin = 9.38718282197416 |  erot = 8.49205380139463 | epot = -72.3359539741626 | etot = -54.4567173507938
619000  ekin = 9.33634137208887 |  erot = 8.64410576159845 | epot = -72.4371644860946 | etot = -54.4567173524073
620000  ekin = 9.25274239709628 |  erot = 8.75706693535131 | epot = -72.4665266856836 | etot = -54.456717353236
621000  ekin = 9.13908734782551 |  erot = 8.81838549167825 | epot = -72.4141901925815 | etot = -54.4567173530778
622000  ekin = 9.00413159187232 |  erot = 8.82453847241603 | epot = -72.2853874161967 | etot = -54.4567173519084
623000  ekin = 8.86237387264741 |  erot = 8.7815904437476 | epot = -72.100681665748 | etot = -54.456717349353
624000  ekin = 8.73233250271996 |  erot = 8.70601363408245 | epot = -71.8950634838493 | etot = -54.4567173470468
625000  ekin = 8.63352260272379 |  erot = 8.61836006913258 | epot = -71.7086000163641 | etot = -54.4567173445077
626000  ekin = 8.58515687060557 |  erot = 8.54022417073196 | epot = -71.5820983834407 | etot = -54.4567173421031
627000  ekin = 8.60386594899659 |  erot = 8.49340879469285 | epot = -71.5539920838688 | etot = -54.4567173401793
628000  ekin = 8.7012527296389 |  erot = 8.49697729760367 | epot = -71.6549473663074 | etot = -54.4567173390648
629000  ekin = 8.88211046285069 |  erot = 8.5641034304371 | epot = -71.9029312321927 | etot = -54.4567173389049
630000  ekin = 9.14246131283763 |  erot = 8.70144773180668 | epot = -72.300626384512 | etot = -54.4567173398677
631000  ekin = 9.46837458093943 |  erot = 8.90764779898328 | epot = -72.8327397225162 | etot = -54.4567173425934
632000  ekin = 9.83312177173637 |  erot = 9.17246776667656 | epot = -73.4623068842293 | etot = -54.4567173458164
633000  ekin = 10.2047873751213 |  erot = 9.47797241849136 | epot = -74.1394771430748 | etot = -54.4567173494621
634000  ekin = 10.5489934613266 |  erot = 9.80262636497442 | epot = -74.8083371791868 | etot = -54.4567173528857
635000  ekin = 10.8335202630288 |  erot = 10.125865527331 | epot = -75.4161031457917 | etot = -54.4567173554318
636000  ekin = 11.0335668276709 |  erot = 10.4324958345062 | epot = -75.9227800187378 | etot = -54.4567173565607
637000  ekin = 11.1356918483499 |  erot = 10.715848515948 | epot = -76.3082577206512 | etot = -54.4567173563533
638000  ekin = 11.1388069575963 |  erot = 10.9775008619026 | epot = -76.573025174505 | etot = -54.456717355006
639000  ekin = 11.0524003327436 |  erot = 11.2253769821821 | epot = -76.7344946679223 | etot = -54.4567173529966
640000  ekin = 10.8928630382816 |  erot = 11.4709640829692 | epot = -76.8205444720415 | etot = -54.4567173507906
641000  ekin = 10.6795161167761 |  erot = 11.7265694567109 | epot = -76.8628029221936 | etot = -54.4567173487066
642000  ekin = 10.431652152028 |  erot = 12.0033863745235 | epot = -76.8917558734979 | etot = -54.4567173469463
643000  ekin = 10.1667694779383 |  erot = 12.3102216339995 | epot = -76.9337084574531 | etot = -54.4567173455153
644000  ekin = 9.90007447739006 |  erot = 12.6530565857471 | epot = -77.009848407728 | etot = -54.4567173445908
645000  ekin = 9.64408802626263 |  erot = 13.0333521361078 | epot = -77.1341575065431 | etot = -54.4567173441727
646000  ekin = 9.40846495824295 |  erot = 13.4468842705586 | epot = -77.3120665731202 | etot = -54.4567173443187
647000  ekin = 9.20006047028955 |  erot = 13.8841334486512 | epot = -77.5409112640701 | etot = -54.4567173451294
648000  ekin = 9.02208271234192 |  erot = 14.3287870732403 | epot = -77.8075871322004 | etot = -54.4567173466181
649000  ekin = 8.87371560220482 |  erot = 14.7582675570506 | epot = -78.0887005080238 | etot = -54.4567173487684
650000  ekin = 8.74973394437183 |  erot = 15.1446190956538 | epot = -78.3510703915072 | etot = -54.4567173514816
651000  ekin = 8.64055354280855 |  erot = 15.4561976746668 | epot = -78.5534685720271 | etot = -54.4567173545518
652000  ekin = 8.53295942949864 |  erot = 15.6603023870304 | epot = -78.649979174163 | etot = -54.456717357634
653000  ekin = 8.41177726197952 |  erot = 15.726842939348 | epot = -78.5953375615667 | etot = -54.4567173602391
654000  ekin = 8.26255435902931 |  erot = 15.63291856528 | epot = -78.3521902861158 | etot = -54.4567173618065
655000  ekin = 8.07486030841898 |  erot = 15.3675533060676 | epot = -77.8991309763139 | etot = -54.4567173618274
656000  ekin = 7.85584872993325 |  erot = 14.9356063836777 | epot = -77.248172899955 | etot = -54.456717786344
657000  ekin = 6.26705400187039 |  erot = 14.5624207623999 | epot = -75.2861920811979 | etot = -54.4567173169276
658000  ekin = 6.04203621444953 |  erot = 14.8338374902579 | epot = -75.3325912844764 | etot = -54.4567175797689
[...]
838000  ekin = 10.2299052199625 |  erot = 10.4407488044951 | epot = -75.1273713074253 | etot = -54.4567172829676
839000  ekin = 9.91700879954974 |  erot = 10.5309577036188 | epot = -74.9046837856552 | etot = -54.4567172824866
840000  ekin = 9.58612989126957 |  erot = 10.6748490697451 | epot = -74.7176962436113 | etot = -54.4567172825966
841000  ekin = 9.23902247606654 |  erot = 10.8680222456528 | epot = -74.5637620048793 | etot = -54.45671728316
842000  ekin = 8.87682183150687 |  erot = 11.0993209653809 | epot = -74.4328600810575 | etot = -54.4567172841697
843000  ekin = 8.50166697126372 |  erot = 11.3515587654951 | epot = -74.3099430215634 | etot = -54.4567172848045
844000  ekin = 8.11786122482937 |  erot = 11.6086450389977 | epot = -74.1832235489656 | etot = -54.4567172851385
845000  ekin = 7.73224665959471 |  erot = 11.856919901106 | epot = -74.0458838457755 | etot = -54.4567172850748
846000  ekin = 7.35386726308554 |  erot = 12.0865858112961 | epot = -73.8971703589925 | etot = -54.4567172846108
847000  ekin = 6.99310483301922 |  erot = 12.2927531540975 | epot = -73.7425752709287 | etot = -54.4567172838119
848000  ekin = 6.66064227407544 |  erot = 12.4755849217792 | epot = -73.5929444786391 | etot = -54.4567172827845
849000  ekin = 6.36657021968653 |  erot = 12.6396628745633 | epot = -73.4629503758916 | etot = -54.4567172816418
850000  ekin = 6.11978999363782 |  erot = 12.7927789147892 | epot = -73.3692861889337 | etot = -54.4567172805067
851000  ekin = 5.92769059320259 |  erot = 12.9443936749531 | epot = -73.328801547648 | etot = -54.4567172794923
852000  ekin = 5.79598233520181 |  erot = 13.1040127665031 | epot = -73.3567123804033 | etot = -54.4567172786984
853000  ekin = 5.72857612927171 |  erot = 13.2797145891451 | epot = -73.4650079966327 | etot = -54.4567172782158
854000  ekin = 5.72746426148597 |  erot = 13.4770198626373 | epot = -73.6612014022069 | etot = -54.4567172780836
855000  ekin = 5.79262212016434 |  erot = 13.6982251276031 | epot = -73.9475645260803 | etot = -54.4567172783128
856000  ekin = 5.92198051771585 |  erot = 13.9422405100411 | epot = -74.3209383066336 | etot = -54.4567172788767
857000  ekin = 6.11150866267658 |  erot = 14.2048890108522 | epot = -74.7731149532471 | etot = -54.4567172797184
858000  ekin = 6.35541287948108 |  erot = 14.4795498831894 | epot = -75.2916800434334 | etot = -54.4567172807629
859000  ekin = 6.64641352744846 |  erot = 14.7579710750208 | epot = -75.8611018844076 | etot = -54.4567172819383
860000  ekin = 6.97602906179018 |  erot = 15.031049493862 | epot = -76.4637958388483 | etot = -54.4567172831961
861000  ekin = 7.33478689144592 |  erot = 15.2894014997161 | epot = -77.0809056756773 | etot = -54.4567172845152
862000  ekin = 7.71230494061546 |  erot = 15.5236284018704 | epot = -77.6926506283928 | etot = -54.4567172859069
863000  ekin = 8.0972429154566 |  erot = 15.7243060787924 | epot = -78.2782662816448 | etot = -54.4567172873958
864000  ekin = 8.47719156700412 |  erot = 15.8818501460864 | epot = -78.8157590020863 | etot = -54.4567172889958
865000  ekin = 8.83862795339356 |  erot = 15.9864762744088 | epot = -79.2818215184876 | etot = -54.4567172906853
866000  ekin = 9.16709499257563 |  erot = 16.0284566448477 | epot = -79.6522689298105 | etot = -54.4567172923871
867000  ekin = 9.44775496531962 |  erot = 15.9987710030364 | epot = -79.9032432623224 | etot = -54.4567172939664
868000  ekin = 9.6664170744344 |  erot = 15.8900978287038 | epot = -80.0132321983787 | etot = -54.4567172952405
869000  ekin = 9.81104759054265 |  erot = 15.697936812546 | epot = -79.9657016990976 | etot = -54.4567172960089
870000  ekin = 9.87363911507839 |  erot = 15.4215512162341 | epot = -79.7519076274087 | etot = -54.4567172960962
871000  ekin = 9.85215986226453 |  erot = 15.0644163888748 | epot = -79.3732935465326 | etot = -54.4567172953932
872000  ekin = 9.7521666623902 |  erot = 14.6339832230399 | epot = -78.8428671793229 | etot = -54.4567172938928
873000  ekin = 9.58760337521736 |  erot = 14.1407822457465 | epot = -78.1851029126663 | etot = -54.4567172917025
874000  ekin = 9.38036224430972 |  erot = 13.597111552683 | epot = -77.4341910860359 | etot = -54.4567172890432
875000  ekin = 9.15836908048365 |  erot = 13.0156613282078 | epot = -76.6307476949113 | etot = -54.4567172862198
876000  ekin = 8.95224910374833 |  erot = 12.4083870186539 | epot = -75.8173534059835 | etot = -54.4567172835813
877000  ekin = 8.79100811653287 |  erot = 11.7858100333708 | epot = -75.0335354313618 | etot = -54.4567172814581
878000  ekin = 8.69754976341394 |  erot = 11.1567995255962 | epot = -74.3110665690975 | etot = -54.4567172800874
879000  ekin = 8.68509191534171 |  erot = 10.5288226081013 | epot = -73.6706318029878 | etot = -54.4567172795448
880000  ekin = 8.75545564714934 |  erot = 9.90861257462188 | epot = -73.1207855014893 | etot = -54.4567172797181
881000  ekin = 8.89970025386099 |  erot = 9.30313444734775 | epot = -72.6595519815518 | etot = -54.4567172803431
882000  ekin = 9.10082855523646 |  erot = 8.72061110508849 | epot = -72.2781569414177 | etot = -54.4567172810928
883000  ekin = 9.33764332479556 |  erot = 8.1712754623967 | epot = -71.9656360688781 | etot = -54.4567172816858
884000  ekin = 9.58861580334731 |  erot = 7.66753088020623 | epot = -71.7128639655093 | etot = -54.4567172819558
885000  ekin = 9.83488676080902 |  erot = 7.22337392461422 | epot = -71.5149779672928 | etot = -54.4567172818695
886000  ekin = 10.0620352551291 |  erot = 6.85319082652144 | epot = -71.3719433631456 | etot = -54.4567172814951
887000  ekin = 10.2607068157632 |  erot = 6.57023940271384 | epot = -71.2876634994279 | etot = -54.4567172809509
888000  ekin = 10.4264068596052 |  erot = 6.38516766531579 | epot = -71.2682918052929 | etot = -54.4567172803719
889000  ekin = 10.5587552560593 |  erot = 6.30481332827294 | epot = -71.3202858642243 | etot = -54.456717279892
890000  ekin = 10.6604009571512 |  erot = 6.3313819173971 | epot = -71.4485001541792 | etot = -54.4567172796309
891000  ekin = 10.7357341009366 |  erot = 6.46201557974538 | epot = -71.6544669603718 | etot = -54.4567172796898
892000  ekin = 10.7895437608077 |  erot = 6.68876199670318 | epot = -71.9350230376444 | etot = -54.4567172801336
893000  ekin = 10.8258166395542 |  erot = 6.99898655746096 | epot = -72.2815204779803 | etot = -54.4567172809652
894000  ekin = 10.8468969134803 |  erot = 7.37628199601942 | epot = -72.6798961916184 | etot = -54.4567172821187
895000  ekin = 10.8531861940975 |  erot = 7.80188530606377 | epot = -73.1117887836164 | etot = -54.4567172834552
896000  ekin = 10.8434432146178 |  erot = 8.25651048988155 | epot = -73.5566709892849 | etot = -54.4567172847856
897000  ekin = 10.8155751276989 |  erot = 8.72237163402597 | epot = -73.9946640476367 | etot = -54.4567172859118
898000  ekin = 10.7676627830279 |  erot = 9.18505046673359 | epot = -74.4094305364376 | etot = -54.4567172866761
899000  ekin = 10.6988999918464 |  erot = 9.63481320600628 | epot = -74.7904304848565 | etot = -54.4567172870038
900000  ekin = 10.6101778355024 |  erot = 10.0670454033516 | epot = -75.1339405257768 | etot = -54.4567172869229
901000  ekin = 10.5041792336263 |  erot = 10.4816537280424 | epot = -75.4425502482243 | etot = -54.4567172865556
902000  ekin = 10.3850069961677 |  erot = 10.8815370479461 | epot = -75.723261330198 | etot = -54.4567172860842
903000  ekin = 10.2574985062542 |  erot = 11.2704782387657 | epot = -75.9846940307208 | etot = -54.4567172857008
904000  ekin = 10.1264528578434 |  erot = 11.6509689579676 | epot = -76.2341391013697 | etot = -54.4567172855587
905000  ekin = 9.99600212718199 |  erot = 12.0224964837307 | epot = -76.4752158966417 | etot = -54.456717285729
906000  ekin = 9.86930089578128 |  erot = 12.3806889296984 | epot = -76.706707111672 | etot = -54.4567172861924
907000  ekin = 9.74860096930186 |  erot = 12.717473329665 | epot = -76.9227915858112 | etot = -54.4567172868443
908000  ekin = 9.63564731437693 |  erot = 13.0221203323681 | epot = -77.1144849342879 | etot = -54.4567172875429
909000  ekin = 9.53221635088924 |  erot = 13.2828159173612 | epot = -77.2717495564014 | etot = -54.456717288151
910000  ekin = 9.44056511136237 |  erot = 13.4883008485944 | epot = -77.3855832485332 | etot = -54.4567172885764
911000  ekin = 9.36359901015972 |  erot = 13.6292002110449 | epot = -77.4495165099879 | etot = -54.4567172887832
912000  ekin = 9.30468390683423 |  erot = 13.6988898091476 | epot = -77.4602910047642 | etot = -54.4567172887824
913000  ekin = 9.2671667518601 |  erot = 13.6939842819807 | epot = -77.41786832244 | etot = -54.4567172885992
914000  ekin = 9.25375894933545 |  erot = 13.6146373108747 | epot = -77.3251135484712 | etot = -54.4567172882611
915000  ekin = 9.2659424721694 |  erot = 13.4647622141686 | epot = -77.1874219741281 | etot = -54.4567172877901
916000  ekin = 9.3034996705056 |  erot = 13.252095142795 | epot = -77.0123121005206 | etot = -54.45671728722
917000  ekin = 9.36419714228145 |  erot = 12.9878926207137 | epot = -76.8088070496062 | etot = -54.456717286611
918000  ekin = 9.4436196362461 |  erot = 12.6860933860155 | epot = -76.5864303083068 | etot = -54.4567172860452
919000  ekin = 9.53516188539609 |  erot = 12.3619660455384 | epot = -76.3538452165503 | etot = -54.4567172856158
920000  ekin = 9.6302153355846 |  erot = 12.0304853675905 | epot = -76.1174179885652 | etot = -54.4567172853901
921000  ekin = 9.71859337757226 |  erot = 11.7047977082043 | epot = -75.8801083711812 | etot = -54.4567172854046
922000  ekin = 9.7892066721518 |  erot = 11.3950992586233 | epot = -75.6410232164054 | etot = -54.4567172856303
923000  ekin = 9.83094506629074 |  erot = 11.1081050699644 | epot = -75.3957674222563 | etot = -54.4567172860011
924000  ekin = 9.8336730468052 |  erot = 10.8471196662819 | epot = -75.1375099995099 | etot = -54.4567172864229
925000  ekin = 9.78921982201672 |  erot = 10.6125977274286 | epot = -74.8585348362305 | etot = -54.4567172867852
926000  ekin = 9.69224265484151 |  erot = 10.4030278881647 | epot = -74.5519878299939 | etot = -54.4567172869877
927000  ekin = 9.54086684318481 |  erot = 10.2159706089149 | epot = -74.2135547390471 | etot = -54.4567172869474
928000  ekin = 9.33704160544839 |  erot = 10.049113171626 | epot = -73.8428720636795 | etot = -54.4567172866051
929000  ekin = 9.08657260994688 |  erot = 9.90122855058418 | epot = -73.4445184464668 | etot = -54.4567172859358
930000  ekin = 8.79883716652832 |  erot = 9.77291303142043 | epot = -73.0284674828996 | etot = -54.4567172849509
931000  ekin = 8.48619808326945 |  erot = 9.6669433018564 | epot = -72.6098586688443 | etot = -54.4567172837184
932000  ekin = 8.16314309644076 |  erot = 9.58807622106468 | epot = -72.2079365998691 | etot = -54.4567172823636
933000  ekin = 7.84519354305061 |  erot = 9.54217917979384 | epot = -71.8440900039073 | etot = -54.4567172810628
934000  ekin = 7.54765679217323 |  erot = 9.53474238375616 | epot = -71.5391164559538 | etot = -54.4567172800244
935000  ekin = 7.284333071741 |  erot = 9.56903045439682 | epot = -71.3100808055868 | etot = -54.456717279449
936000  ekin = 7.06631285076321 |  erot = 9.64428867327643 | epot = -71.1673188035272 | etot = -54.4567172794875
937000  ekin = 6.9010072120583 |  erot = 9.75446862336522 | epot = -71.1121931156352 | etot = -54.4567172802116
938000  ekin = 6.791541293687 |  erot = 9.88787401273449 | epot = -71.1361325880017 | etot = -54.4567172815803
939000  ekin = 6.73661249445985 |  erot = 10.0281331616284 | epot = -71.2214629394807 | etot = -54.4567172833925
940000  ekin = 6.73087290002795 |  erot = 10.1560913569087 | epot = -71.3436815424214 | etot = -54.4567172854848
941000  ekin = 6.76583136819434 |  erot = 10.252418493811 | epot = -71.4749671494792 | etot = -54.4567172874739
942000  ekin = 6.83124487467581 |  erot = 10.3013419690557 | epot = -71.5893041327359 | etot = -54.4567172890045
943000  ekin = 6.91692812768483 |  erot = 10.2938485498701 | epot = -71.6674939673204 | etot = -54.4567172897655
944000  ekin = 7.01479645632583 |  erot = 10.2298584620325 | epot = -71.701372207932 | etot = -54.4567172895736
945000  ekin = 7.12068760757986 |  erot = 10.1186471972992 | epot = -71.696052093349 | etot = -54.4567172884699
946000  ekin = 7.23514614954191 |  erot = 9.97707725562207 | epot = -71.6689406919542 | etot = -54.4567172867903
947000  ekin = 7.36229609113421 |  erot = 9.82579824686105 | epot = -71.644811623109 | etot = -54.4567172851137
948000  ekin = 7.50666547843035 |  erot = 9.68437595382033 | epot = -71.6477587163093 | etot = -54.4567172840586
949000  ekin = 7.66924616191772 |  erot = 9.56691299458701 | epot = -71.692876440489 | etot = -54.4567172839843
950000  ekin = 7.84507329855829 |  erot = 9.47964218457065 | epot = -71.7814327679451 | etot = -54.4567172848161
951000  ekin = 8.02398780691496 |  erot = 9.42110967875665 | epot = -71.9018147717852 | etot = -54.4567172861135
952000  ekin = 8.19417684165141 |  erot = 9.38438008346554 | epot = -72.0352742124693 | etot = -54.4567172873524
953000  ekin = 8.34626778801213 |  erot = 9.35991642812015 | epot = -72.1629015043317 | etot = -54.4567172881995
954000  ekin = 8.47568923855396 |  erot = 9.33789032824472 | epot = -72.270296855398 | etot = -54.4567172885994
955000  ekin = 8.58250201858603 |  erot = 9.30949114580661 | epot = -72.3487104530702 | etot = -54.4567172886776
956000  ekin = 8.66948436711163 |  erot = 9.26761872827085 | epot = -72.3938203840399 | etot = -54.4567172886574
957000  ekin = 8.73983265750596 |  erot = 9.20719774881724 | epot = -72.403747694787 | etot = -54.4567172884638
958000  ekin = 8.79545874721684 |  erot = 9.12647624462242 | epot = -72.3786522799993 | etot = -54.45671728816
959000  ekin = 8.83619167917057 |  erot = 9.02839052830606 | epot = -72.321299495177 | etot = -54.4567172877003
960000  ekin = 8.8597516775373 |  erot = 8.921066131001 | epot = -72.2375350955797 | etot = -54.4567172870414
961000  ekin = 8.86221391088967 |  erot = 8.81796977947868 | epot = -72.1369009765418 | etot = -54.4567172861734
962000  ekin = 8.83870974709834 |  erot = 8.73730143653572 | epot = -72.0327284687628 | etot = -54.4567172851288
963000  ekin = 8.78419063762297 |  erot = 8.70062153324984 | epot = -71.941529454855 | etot = -54.4567172839822
964000  ekin = 8.69414320505532 |  erot = 8.73080443183868 | epot = -71.8816649197466 | etot = -54.4567172828526
965000  ekin = 8.56518846879808 |  erot = 8.84947946882749 | epot = -71.8713852195034 | etot = -54.4567172818779
966000  ekin = 8.39553184386797 |  erot = 9.07419585611561 | epot = -71.9264449812041 | etot = -54.4567172812205
967000  ekin = 8.18525791183118 |  erot = 9.41563515997517 | epot = -72.0576103528196 | etot = -54.4567172810133
968000  ekin = 7.93667478277496 |  erot = 9.87520375458517 | epot = -72.2685958186602 | etot = -54.4567172813001
969000  ekin = 7.65450207895293 |  erot = 10.4432619151597 | epot = -72.554481276342 | etot = -54.4567172822294
970000  ekin = 7.3444529420773 |  erot = 11.099955291077 | epot = -72.9011255166994 | etot = -54.4567172835451
971000  ekin = 7.01467245168829 |  erot = 11.8168528075889 | epot = -73.2882425443265 | etot = -54.4567172850493
972000  ekin = 6.67605450391219 |  erot = 12.5598107323187 | epot = -73.6925825227156 | etot = -54.4567172864848
973000  ekin = 6.34244769979576 |  erot = 13.2923396271009 | epot = -74.0915046146129 | etot = -54.4567172877162
974000  ekin = 6.03025176751086 |  erot = 13.9789096322924 | epot = -74.4658786882448 | etot = -54.4567172884415
975000  ekin = 5.75716039273076 |  erot = 14.5899381418184 | epot = -74.8038158231949 | etot = -54.4567172886457
976000  ekin = 5.54124167943899 |  erot = 15.1033057453066 | epot = -75.1012647131604 | etot = -54.4567172884147
977000  ekin = 5.39911082454268 |  erot = 15.50491198647 | epot = -75.3607400989432 | etot = -54.4567172879305
978000  ekin = 5.34386272251207 |  erot = 15.7880067440631 | epot = -75.5885867539899 | etot = -54.4567172874147
979000  ekin = 5.3831993070512 |  erot = 15.9517029514082 | epot = -75.7916195455258 | etot = -54.4567172870663
980000  ekin = 5.51814445211147 |  erot = 15.9991910955376 | epot = -75.9740528346666 | etot = -54.4567172870175
981000  ekin = 5.74260488051433 |  erot = 15.9361251477774 | epot = -76.1354473155988 | etot = -54.4567172873071
982000  ekin = 6.04385436985727 |  erot = 15.7695224495589 | epot = -76.2700941072881 | etot = -54.4567172878719
983000  ekin = 6.40384970652226 |  erot = 15.5073539290396 | epot = -76.3679209241306 | etot = -54.4567172885687
984000  ekin = 6.80116238511362 |  erot = 15.1588118512124 | epot = -76.4166915255271 | etot = -54.4567172892011
985000  ekin = 7.213233657274 |  erot = 14.7350438439508 | epot = -76.4049947907932 | etot = -54.4567172895684
986000  ekin = 7.61862562383731 |  erot = 14.2499737923036 | epot = -76.3253167056553 | etot = -54.4567172895143
987000  ekin = 7.99894925435838 |  erot = 13.7207610181171 | epot = -76.1764275614454 | etot = -54.45671728897
988000  ekin = 8.34021171329978 |  erot = 13.1675370959009 | epot = -75.9644660971741 | etot = -54.4567172879735
989000  ekin = 8.63344275565441 |  erot = 12.6122920454569 | epot = -75.7024520877672 | etot = -54.456717286656
990000  ekin = 8.87460950484452 |  erot = 12.0770718401663 | epot = -75.4083986302158 | etot = -54.456717285205
991000  ekin = 9.06396875500343 |  erot = 11.581864705789 | epot = -75.102550744612 | etot = -54.4567172838197
992000  ekin = 9.20509314118759 |  erot = 11.1426150699705 | epot = -74.8044254938273 | etot = -54.4567172826692
993000  ekin = 9.30382170788255 |  erot = 10.7697167151334 | epot = -74.5302557048824 | etot = -54.4567172818665
994000  ekin = 9.36733435636145 |  erot = 10.467172113734 | epot = -74.2912237515574 | etot = -54.456717281462
995000  ekin = 9.40346085609221 |  erot = 10.232442639238 | epot = -74.0926207767815 | etot = -54.4567172814512
996000  ekin = 9.42024172460242 |  erot = 10.0569050470709 | epot = -73.9338640534591 | etot = -54.4567172817857
997000  ekin = 9.42568515137797 |  erot = 9.92679732902699 | epot = -73.8091997627901 | etot = -54.4567172823851
998000  ekin = 9.42763194302568 |  erot = 9.8245642652313 | epot = -73.7089134914019 | etot = -54.4567172831449
999000  ekin = 9.43365149698941 |  erot = 9.73053828894017 | epot = -73.6209070698904 | etot = -54.4567172839608
1000000  ekin = 9.45092723111945 |  erot = 9.62486149925983 | epot = -73.532506015067 | etot = -54.4567172846877
   1000000   352.2878      -75.545604      2.0130979     -64.081579     -0.0098473389   39304000     
Loop time of 16.8981 on 1 procs for 1000000 steps with 10 atoms

Performance: 87.228 ns/day, 0.275 hours/ns, 59178.314 timesteps/s, 591.783 katom-step/s
99.6% CPU use with 1 MPI tasks x no OpenMP threads

MPI task timing breakdown:
Section |  min time  |  avg time  |  max time  |%varavg| %total
---------------------------------------------------------------
Pair    | 13.505     | 13.505     | 13.505     |   0.0 | 79.92
Bond    | 0.61276    | 0.61276    | 0.61276    |   0.0 |  3.63
Neigh   | 0.038787   | 0.038787   | 0.038787   |   0.0 |  0.23
Comm    | 0.46975    | 0.46975    | 0.46975    |   0.0 |  2.78
Output  | 0.12918    | 0.12918    | 0.12918    |   0.0 |  0.76
Modify  | 1.6798     | 1.6798     | 1.6798     |   0.0 |  9.94
Other   |            | 0.4627     |            |       |  2.74

Nlocal:             10 ave          10 max          10 min
Histogram: 1 0 0 0 0 0 0 0 0 0
Nghost:              0 ave           0 max           0 min
Histogram: 1 0 0 0 0 0 0 0 0 0
Neighs:             37 ave          37 max          37 min
Histogram: 1 0 0 0 0 0 0 0 0 0

Total # of neighbors = 37
Ave neighs/atom = 3.7
Ave special neighs/atom = 3.6
Neighbor list builds = 1000
Dangerous builds = 0

write_data last_config.${number}.* nocoeff
write_data last_config.1.* nocoeff
System init for write_data ...
Generated 0 of 6 mixed pair_coeff terms from geometric mixing rule
#write_restart last_config.${number}.*
Total wall time: 0:00:16
