LAMMPS data file from restart file: timestep = 1000000, procs = 10

9474 atoms
6316 bonds
3158 angles

2 atom types
1 bond types
1 angle types

-2.5000000000000000e+01 2.5000000000000000e+01 xlo xhi
-2.5000000000000000e+01 2.5000000000000000e+01 ylo yhi
-2.1895949999999999e+01 2.1895949999999999e+01 zlo zhi

Masses

1 1.008
2 15.9994

Pair Coeffs

1 0 0
2 0.006596 3.1507

Bond Coeffs

1 19.5139 0.9572

Angle Coeffs

1 2.38503 104.52

Atoms

7930 2644 1 4.1499999999999998e-01 -2.0041136315684749e+01 -2.0427335900468989e+01 -1.4879801260756901e+01 1 0 0
2108 703 2 -8.2999999999999996e-01 -1.9602889449740321e+01 -1.8438257817423700e+01 -1.8313879557278959e+01 0 0 0
7932 2644 1 4.1499999999999998e-01 -2.1280286352138496e+01 -2.0365269610018473e+01 -1.5747297693193666e+01 1 0 0
7931 2644 2 -8.2999999999999996e-01 -2.0365427047753627e+01 -2.0646745697822489e+01 -1.5753258017492870e+01 1 0 0
47 16 2 -8.2999999999999996e-01 -2.2489496470382530e+01 -1.8870453437076691e+01 -1.8165973931570889e+01 0 -1 0
46 16 1 4.1499999999999998e-01 -2.1705187173349564e+01 -1.8326210098008524e+01 -1.8096045676747231e+01 0 -1 0
4941 1647 1 4.1499999999999998e-01 -1.9374808894885820e+01 -1.5690327179604704e+01 -1.8476789815198341e+01 0 0 0
48 16 1 4.1499999999999998e-01 -2.2162057282818463e+01 -1.9730631323732140e+01 -1.8428860674532867e+01 0 -1 0
6007 2003 1 4.1499999999999998e-01 -2.3173682892523914e+01 -2.2697952612171459e+01 -1.5998902432910571e+01 1 0 0
911 304 2 -8.2999999999999996e-01 -2.4991407105730314e+01 -1.5217353640189929e+01 -8.5413115540113971e+00 1 0 0
6008 2003 2 -8.2999999999999996e-01 -2.2908579792404282e+01 -2.2714815291133679e+01 -1.5079300433616440e+01 1 0 0
6403 2135 1 4.1499999999999998e-01 -2.3600473487525708e+01 -2.2127974371106212e+01 -1.8465333550587314e+01 0 1 0
2107 703 1 4.1499999999999998e-01 -1.9813733382854338e+01 -1.9313981616791406e+01 -1.8637738327466074e+01 0 0 0
6404 2135 2 -8.2999999999999996e-01 -2.3951465830440725e+01 -2.2924092779953803e+01 -1.8066295087304184e+01 0 1 0
9176 3059 2 -8.2999999999999996e-01 -1.7515121126701828e+01 -1.8897078386320509e+01 -1.6556257816801462e+01 1 1 0
4059 1353 1 4.1499999999999998e-01 -1.7629090701453183e+01 -1.6007496940578978e+01 -1.4981372238223882e+01 0 1 0
6009 2003 1 4.1499999999999998e-01 -2.3080146924936084e+01 -2.1827550659620645e+01 -1.4763772257834281e+01 1 0 0
5567 1856 2 -8.2999999999999996e-01 -2.1472185491536123e+01 -2.4945196691949018e+01 -1.4324962344227407e+01 0 0 0
9177 3059 1 4.1499999999999998e-01 -1.7879919164311676e+01 -1.8427682092831478e+01 -1.5806043613136668e+01 1 1 0
5566 1856 1 4.1499999999999998e-01 -2.1817783773843622e+01 -2.4114094689484848e+01 -1.4650635722782685e+01 0 0 0
2848 950 1 4.1499999999999998e-01 -2.3994177110088593e+01 -1.7179880328599793e+01 -1.4814914308060926e+01 0 0 0
2851 951 1 4.1499999999999998e-01 -2.1142475021720095e+01 -2.2166240572291596e+01 -1.8695763681392606e+01 0 1 0
2853 951 1 4.1499999999999998e-01 -2.0858324834825144e+01 -2.1198580978319626e+01 -1.7566698280405131e+01 0 1 0
2852 951 2 -8.2999999999999996e-01 -2.1331636485051252e+01 -2.1277445690871289e+01 -1.8394942385029601e+01 0 1 0
421 141 1 4.1499999999999998e-01 -2.3804195423157097e+01 -1.5626612236265654e+01 -1.6480172802270555e+01 1 0 0
2109 703 1 4.1499999999999998e-01 -1.8970973362728092e+01 -1.8588132187938832e+01 -1.7610707047745773e+01 0 0 0
5930 1977 2 -8.2999999999999996e-01 -1.9766539434036570e+01 -2.3639985463357984e+01 -1.8236368082068459e+01 0 0 0
5931 1977 1 4.1499999999999998e-01 -1.9856519081778384e+01 -2.4570330394147536e+01 -1.8029985348899562e+01 0 0 0
9363 3121 1 4.1499999999999998e-01 -1.7063627913900117e+01 -2.1446196538066658e+01 -1.4759213108147929e+01 1 1 0
2849 950 2 -8.2999999999999996e-01 -2.4212878157782814e+01 -1.7812085033418409e+01 -1.4130283812949910e+01 0 0 0
4057 1353 1 4.1499999999999998e-01 -1.7665432052857163e+01 -1.6147674202616791e+01 -1.6488331012675101e+01 0 1 0
5929 1977 1 4.1499999999999998e-01 -1.8841802081455956e+01 -2.3447979924075110e+01 -1.8080719279830618e+01 0 0 0
2767 923 1 4.1499999999999998e-01 -1.7817615386744293e+01 -2.1647874855350548e+01 -1.6638829586021039e+01 1 0 0
2768 923 2 -8.2999999999999996e-01 -1.7042628018111898e+01 -2.2205302767380495e+01 -1.6568825723432735e+01 1 0 0
5763 1921 1 4.1499999999999998e-01 -1.6236161336322738e+01 -2.3762138963503439e+01 -3.5744070688587826e+00 0 0 0
2850 950 1 4.1499999999999998e-01 -2.3652751537544383e+01 -1.7570418133043059e+01 -1.3392661198455306e+01 0 0 0
8978 2993 2 -8.2999999999999996e-01 -1.8170669736481074e+01 -1.9140181896141087e+01 -1.3150276263198396e+01 0 1 0
2752 918 1 4.1499999999999998e-01 -2.4341433797850144e+01 -1.8402468141128761e+01 -1.8427919969293985e+01 1 0 0
7702 2568 1 4.1499999999999998e-01 -2.3163355628003714e+01 -2.4783446094204798e+01 -1.8273080260134471e+01 1 0 0
2559 853 1 4.1499999999999998e-01 -1.9826134851804620e+00 -2.2559771001151137e+01 1.8239440669857867e+01 1 0 0
2769 923 1 4.1499999999999998e-01 -1.6314001952460423e+01 -2.1635260171153778e+01 -1.6814564076766782e+01 1 0 0
4058 1353 2 -8.2999999999999996e-01 -1.7066812382995320e+01 -1.6156915475604787e+01 -1.5741470283181261e+01 0 1 0
4155 1385 1 4.1499999999999998e-01 -5.0709731719257822e-01 -2.1890977545131488e+01 -7.6610408969654280e+00 -1 0 0
8700 2900 1 4.1499999999999998e-01 -2.4261088086964399e+01 -2.4079512686944192e+01 1.7909707702592033e+01 1 0 0
1656 552 1 4.1499999999999998e-01 -7.8769814260300866e+00 -2.4261559620431267e+01 -6.7592349977756374e+00 0 1 0
5143 1715 1 4.1499999999999998e-01 -2.4588533969893994e+01 -2.4780565316403305e+01 -1.4976248609982372e+01 1 1 0
5175 1725 1 4.1499999999999998e-01 -1.4573648848815983e+01 -2.4964005601781910e+01 -1.5451864172954425e+01 1 0 0
1372 458 1 4.1499999999999998e-01 -2.4763983629336018e+01 -1.7649911490252986e+01 5.5910013499797317e+00 0 1 0
1751 584 2 -8.2999999999999996e-01 -1.5009668352212495e+01 -1.9984896700445148e+01 -1.5764453090578948e+01 0 1 0
1752 584 1 4.1499999999999998e-01 -1.4623779684999869e+01 -2.0127458326078347e+01 -1.4900162652137086e+01 0 1 0
7741 2581 1 4.1499999999999998e-01 -2.4680616607548519e+01 -1.9542075697302984e+01 7.3113137657282190e-01 1 0 0
9175 3059 1 4.1499999999999998e-01 -1.6635206366693225e+01 -1.9149602972623931e+01 -1.6276591578521121e+01 1 1 0
1485 495 1 4.1499999999999998e-01 -1.6885971436513881e+01 -2.4090999562550522e+01 -1.5762142775252777e+01 0 1 0
1750 584 1 4.1499999999999998e-01 -1.4350006060381364e+01 -2.0308199204793699e+01 -1.6378092227631793e+01 0 1 0
9367 3123 1 4.1499999999999998e-01 -1.4372956802488906e+01 -1.6077134931404697e+01 -1.7483744273680937e+01 1 0 0
40 14 1 4.1499999999999998e-01 -1.3966212832141579e+01 -2.1136326293020453e+01 -1.8774919717463337e+01 0 0 0
42 14 1 4.1499999999999998e-01 -1.5193076048634211e+01 -2.0350933247362374e+01 -1.8362779554835420e+01 0 0 0
41 14 2 -8.2999999999999996e-01 -1.4794245706999950e+01 -2.1218952540705615e+01 -1.8301880283274354e+01 0 0 0
9101 3034 2 -8.2999999999999996e-01 -1.2515353139601386e+01 -1.8194602542034698e+01 -1.7965994136024030e+01 0 0 0
9100 3034 1 4.1499999999999998e-01 -1.3305937199045520e+01 -1.8402260692218857e+01 -1.8464077242211200e+01 0 0 0
8585 2862 2 -8.2999999999999996e-01 -1.5432165671414916e+01 -1.8568591316557654e+01 -1.8423490263161067e+01 0 1 0
8584 2862 1 4.1499999999999998e-01 -1.5269583732285433e+01 -1.7695576093544357e+01 -1.8780762399760437e+01 0 1 0
3630 1210 1 4.1499999999999998e-01 -1.2005174432918276e+01 -2.1807490749444149e+01 -1.7492242567153546e+01 0 0 0
9102 3034 1 4.1499999999999998e-01 -1.2053058239605576e+01 -1.9029362079719011e+01 -1.7890550207670351e+01 0 0 0
8586 2862 1 4.1499999999999998e-01 -1.6231258681433804e+01 -1.8470985703141444e+01 -1.7905653075124928e+01 0 1 0
4966 1656 1 4.1499999999999998e-01 -1.1861078340338613e+01 -1.6724013526065260e+01 -1.7965769833876450e+01 0 0 0
136 46 1 4.1499999999999998e-01 -1.4180887717734448e+01 -2.0953741249822365e+01 -1.2557222362548643e+01 -1 1 0
3629 1210 2 -8.2999999999999996e-01 -1.1715611654163679e+01 -2.1031144529987571e+01 -1.7971483415489857e+01 0 0 0
3628 1210 1 4.1499999999999998e-01 -1.0761572647056935e+01 -2.1105355995327173e+01 -1.7994593523513110e+01 0 0 0
1377 459 1 4.1499999999999998e-01 -1.2754077598278551e+01 -1.7400038523661070e+01 -1.4897215512586714e+01 0 0 0
3434 1145 2 -8.2999999999999996e-01 -1.4378620336932535e+01 -1.6398766048661788e+01 -1.5536189369903546e+01 1 1 0
3435 1145 1 4.1499999999999998e-01 -1.4027791324649021e+01 -1.5533892359588833e+01 -1.5323717389100240e+01 1 1 0
3433 1145 1 4.1499999999999998e-01 -1.5314466205515966e+01 -1.6251204222595263e+01 -1.5672753973317109e+01 1 1 0
8131 2711 1 4.1499999999999998e-01 -8.6978219300612114e+00 -1.7475551863274969e+01 -1.4542799322378235e+01 1 1 0
2429 810 2 -8.2999999999999996e-01 -1.4664480679475655e-01 -2.1886429892178789e+01 1.1188369970630550e+01 0 0 0
1484 495 2 -8.2999999999999996e-01 -1.6577300550404541e+01 -2.4994544453113281e+01 -1.5694609396428401e+01 0 1 0
183 61 1 4.1499999999999998e-01 -8.3832992933274326e+00 -1.6820482256092763e+01 -1.7122427584017142e+01 0 0 0
1376 459 2 -8.2999999999999996e-01 -1.2255645230554123e+01 -1.7535511752949802e+01 -1.4091334615640351e+01 0 0 0
1375 459 1 4.1499999999999998e-01 -1.1561071034445405e+01 -1.8146008416130698e+01 -1.4338503283008519e+01 0 0 0
7867 2623 1 4.1499999999999998e-01 -1.5660659473530247e+01 -2.2375804932113105e+01 -1.3293100862254231e+01 0 1 0
4968 1656 1 4.1499999999999998e-01 -1.0466811563519594e+01 -1.6234089706778224e+01 -1.7637303855032517e+01 0 0 0
4967 1656 2 -8.2999999999999996e-01 -1.1301463843020372e+01 -1.5948642317026325e+01 -1.8008931624422818e+01 0 0 0
3156 1052 1 4.1499999999999998e-01 -1.4692603788215207e+01 -2.3338915333138850e+01 -1.8772924625903737e+01 0 1 0
182 61 2 -8.2999999999999996e-01 -8.6390690285443572e+00 -1.6401907115682828e+01 -1.7944381689431250e+01 0 0 0
9236 3079 2 -8.2999999999999996e-01 -8.6594321950795674e+00 -2.1298733439680145e+01 -1.6888674186639115e+01 0 1 0
9205 3069 1 4.1499999999999998e-01 -1.2746708174072486e+01 -2.3849603688242123e+01 -1.5794766936850516e+01 1 0 0
9206 3069 2 -8.2999999999999996e-01 -1.2088762486988538e+01 -2.3262963108317354e+01 -1.6167851609754674e+01 1 0 0
1520 507 2 -8.2999999999999996e-01 -1.4063907194113452e+00 -2.4693648963672306e+01 -1.0303451769318590e+01 -1 0 0
6748 2250 1 4.1499999999999998e-01 -2.2821201166367956e+01 -2.4694509085117613e+01 1.2383040721115687e+01 0 0 0
7552 2518 1 4.1499999999999998e-01 -8.8292138707471075e+00 -2.4053854221888638e+01 -1.6204098782678994e+01 1 1 0
7553 2518 2 -8.2999999999999996e-01 -9.4174510195940222e+00 -2.3911655084029643e+01 -1.5462486802385634e+01 1 1 0
7554 2518 1 4.1499999999999998e-01 -1.0184270406348316e+01 -2.3483434647763474e+01 -1.5843074688655983e+01 1 1 0
9237 3079 1 4.1499999999999998e-01 -8.1609960692464192e+00 -2.0662902905508961e+01 -1.7402009161518727e+01 0 1 0
181 61 1 4.1499999999999998e-01 -7.8223382730811579e+00 -1.6321473912556524e+01 -1.8437041029164519e+01 0 0 0
7742 2581 2 -8.2999999999999996e-01 -2.4568300042997876e+01 -1.8643750602155645e+01 4.2027952094505633e-01 1 0 0
7868 2623 2 -8.2999999999999996e-01 -1.4934129712490508e+01 -2.2843428662527341e+01 -1.2881136757412516e+01 0 1 0
7869 2623 1 4.1499999999999998e-01 -1.5162037736304196e+01 -2.3768665561415535e+01 -1.2971836573124051e+01 0 1 0
9207 3069 1 4.1499999999999998e-01 -1.1957217173694138e+01 -2.2592548994616720e+01 -1.5497424443194163e+01 1 0 0
6545 2182 2 -8.2999999999999996e-01 -2.6532279426083744e-01 -2.3161987809031114e+01 1.8324912200731116e+01 0 0 0
2907 969 1 4.1499999999999998e-01 -7.8114739937098376e-01 -2.3000073532895374e+01 -1.8458021559233313e+01 0 2 0
80 27 2 -8.2999999999999996e-01 -1.1953091152274538e+01 -2.4937277631377949e+01 -1.8460978342794384e+01 0 0 0
3337 1113 1 4.1499999999999998e-01 -2.5374214352000307e-01 -1.7354890190607225e+01 -1.2465407395978144e+01 0 0 0
3154 1052 1 4.1499999999999998e-01 -1.3827766061992314e+01 -2.4496747748872902e+01 -1.8321953556096510e+01 0 1 0
3155 1052 2 -8.2999999999999996e-01 -1.4716980205918132e+01 -2.4147647135693074e+01 -1.8261465437467916e+01 0 1 0
9334 3112 1 4.1499999999999998e-01 -5.2911763782976289e+00 -2.4497177570196296e+01 1.7068815929228812e+01 1 1 0
8386 2796 1 4.1499999999999998e-01 -2.4970935525815612e+01 -2.1970483631948280e+01 1.7417544583833093e+00 1 0 0
8132 2711 2 -8.2999999999999996e-01 -8.2163905304862510e+00 -1.7086637598947569e+01 -1.5273005696876897e+01 1 1 0
8133 2711 1 4.1499999999999998e-01 -7.6378942852317344e+00 -1.6443282962460021e+01 -1.4863531951472750e+01 1 1 0
8082 2694 1 4.1499999999999998e-01 -7.3527247806606288e+00 -2.4130684920926925e+01 -1.7927428258842173e+01 1 0 0
8301 2767 1 4.1499999999999998e-01 -6.7650344027468172e+00 -1.8081089391810195e+01 -1.7753186745170307e+01 1 0 0
3887 1296 2 -8.2999999999999996e-01 -5.9624763394464653e+00 -1.6104513154611595e+01 -1.8349105100746321e+01 0 0 0
3888 1296 1 4.1499999999999998e-01 -5.7667838961047888e+00 -1.5213782375340809e+01 -1.8058356092053387e+01 0 0 0
2859 953 1 4.1499999999999998e-01 -4.1355203451396756e+00 -1.7834461052825205e+01 -1.5155352042568834e+01 0 0 0
2858 953 2 -8.2999999999999996e-01 -4.4035148648852234e+00 -1.8682606830224707e+01 -1.5508989598835260e+01 0 0 0
7334 2445 2 -8.2999999999999996e-01 -3.6505380608061517e+00 -1.7540862398137801e+01 -1.8429181058075081e+01 1 1 0
7335 2445 1 4.1499999999999998e-01 -3.2755929785019267e+00 -1.8369190919767387e+01 -1.8728379795925111e+01 1 1 0
7333 2445 1 4.1499999999999998e-01 -2.9057635204193324e+00 -1.7053737409436913e+01 -1.8076687129575742e+01 1 1 0
3886 1296 1 4.1499999999999998e-01 -5.1045527526019541e+00 -1.6504383210057547e+01 -1.8491593315560426e+01 0 0 0
5004 1668 1 4.1499999999999998e-01 -5.7809013780342138e+00 -2.0633639499139022e+01 -1.7870973142862983e+01 1 0 0
5002 1668 1 4.1499999999999998e-01 -4.4644418206063285e+00 -2.0899173854423278e+01 -1.7172173572862832e+01 1 0 0
8300 2767 2 -8.2999999999999996e-01 -6.6872524038561334e+00 -1.8923551992830493e+01 -1.7305483081908971e+01 1 0 0
5003 1668 2 -8.2999999999999996e-01 -5.1460507902336508e+00 -2.1326915464042148e+01 -1.7690515334336766e+01 1 0 0
2857 953 1 4.1499999999999998e-01 -3.7955006028120399e+00 -1.8844832896618911e+01 -1.6230261532033168e+01 0 0 0
6116 2039 2 -8.2999999999999996e-01 -2.4851739241106023e+00 -2.0289376051097182e+01 -1.6914957045698706e+01 0 0 0
6115 2039 1 4.1499999999999998e-01 -2.1705705938935487e+00 -2.1135339353627554e+01 -1.6596205296239482e+01 0 0 0
6117 2039 1 4.1499999999999998e-01 -1.7090930470234904e+00 -1.9729081322039782e+01 -1.6914594856849046e+01 0 0 0
9439 3147 1 4.1499999999999998e-01 -2.4556449170053256e+01 -1.9501275242285754e+01 -7.1556897103660608e+00 1 1 0
7128 2376 1 4.1499999999999998e-01 -3.3528156167517653e+00 -2.3120464885908014e+01 -1.8834144796726140e+01 0 0 0
7127 2376 2 -8.2999999999999996e-01 -2.6379410128804817e+00 -2.3022473398033060e+01 -1.8205190260664757e+01 0 0 0
7126 2376 1 4.1499999999999998e-01 -3.0509714165760520e+00 -2.3148283045466499e+01 -1.7350901281144601e+01 0 0 0
8299 2767 1 4.1499999999999998e-01 -6.4236871671328535e+00 -1.8697817341742773e+01 -1.6413401763450221e+01 1 0 0
7041 2347 1 4.1499999999999998e-01 -2.7857547066293929e-02 -1.9024499435063692e+01 1.2991417824825470e+01 0 1 0
5440 1814 1 4.1499999999999998e-01 -5.2657257314791774e+00 -2.3275669951144256e+01 -1.7518116224703274e+01 0 0 0
5441 1814 2 -8.2999999999999996e-01 -5.2052668271118030e+00 -2.4160224086855763e+01 -1.7157366225001454e+01 0 0 0
9412 3138 1 4.1499999999999998e-01 -3.3804386426733672e+00 -2.4291906644479972e+01 1.5470287975977893e+01 1 1 0
9235 3079 1 4.1499999999999998e-01 -8.4127588110362890e+00 -2.1120668669354838e+01 -1.5981107652519496e+01 0 1 0
4370 1457 2 -8.2999999999999996e-01 -2.8156905044716329e+00 -2.3130312450297247e+01 -1.5374348328354182e+01 1 1 0
4239 1413 1 4.1499999999999998e-01 -1.2712859574148398e+01 -2.4624465306323554e+01 -6.1769868036584352e+00 0 0 0
4371 1457 1 4.1499999999999998e-01 -3.6797570038440672e+00 -2.2943974254184113e+01 -1.5007062317237295e+01 1 1 0
4369 1457 1 4.1499999999999998e-01 -2.5584669713217489e+00 -2.3960572809441882e+01 -1.4973429848276449e+01 1 1 0
2018 673 2 -8.2999999999999996e-01 -3.6897839529904277e+00 -1.6196964846198966e+01 -1.4208531827928470e+01 0 0 0
5442 1814 1 4.1499999999999998e-01 -4.9938987564015473e+00 -2.4028539664115204e+01 -1.6233128920581230e+01 0 0 0
2017 673 1 4.1499999999999998e-01 -3.5421151902417893e+00 -1.5921671451085427e+01 -1.3303744932809680e+01 0 0 0
572 191 2 -8.2999999999999996e-01 -1.2708968676318995e+00 -1.7232942194969645e+01 -1.5633533427057808e+01 -1 1 0
573 191 1 4.1499999999999998e-01 -6.5854738340346852e-01 -1.7708227777134873e+01 -1.6195105834003552e+01 -1 1 0
3733 1245 1 4.1499999999999998e-01 -1.7911459829844278e-02 -2.4135093473621129e+01 -1.4313031586733937e+01 0 1 0
6040 2014 1 4.1499999999999998e-01 -8.3898786729860433e+00 -2.3810607607845618e+01 -1.3830693527454615e+01 1 0 0
2019 673 1 4.1499999999999998e-01 -2.8394469272943921e+00 -1.6088087648012614e+01 -1.4634330541012909e+01 0 0 0
6041 2014 2 -8.2999999999999996e-01 -7.6739875774341790e+00 -2.3692068638750044e+01 -1.3206449737379396e+01 1 0 0
2428 810 1 4.1499999999999998e-01 -4.8462278070057319e-01 -2.1838439211452371e+01 1.2082629234020876e+01 0 0 0
588 196 1 4.1499999999999998e-01 -1.3431589315863901e+00 -2.4454018014931528e+01 -7.4617149912975842e+00 0 0 0
9174 3058 1 4.1499999999999998e-01 -2.4563956583509086e+00 -1.7482782647221462e+01 1.5338250355974118e+01 1 1 0
5559 1853 1 4.1499999999999998e-01 -2.4972472714491872e+01 -2.3316712982398521e+01 -3.3803220515741077e+00 0 0 0
571 191 1 4.1499999999999998e-01 -9.3864459962003655e-01 -1.7369810637988937e+01 -1.4746342745184988e+01 -1 1 0
9362 3121 2 -8.2999999999999996e-01 -1.6913655488589548e+01 -2.1460029711194846e+01 -1.3813936027291271e+01 1 1 0
9361 3121 1 4.1499999999999998e-01 -1.7459984417631546e+01 -2.0751429079351247e+01 -1.3473874707010106e+01 1 1 0
1303 435 1 4.1499999999999998e-01 -2.2047601011499722e+01 -2.4200597054608938e+01 -7.0924863424261009e+00 0 0 0
9122 3041 2 -8.2999999999999996e-01 -5.5034596160767562e+00 -2.4319618333072786e+01 -1.1287530505552848e+01 0 0 0
7888 2630 1 4.1499999999999998e-01 -2.6621040430872367e+00 -2.4122549356312909e+01 6.5373093480448068e+00 0 0 0
8867 2956 2 -8.2999999999999996e-01 -1.8958338736985532e+01 -2.4448848741198237e+01 -1.1030221345655551e+00 1 0 0
1051 351 1 4.1499999999999998e-01 -2.4642506252735277e+01 -2.4308939633855264e+01 7.4156478925795488e+00 0 1 0
6454 2152 1 4.1499999999999998e-01 -2.3351274405046059e+01 -1.6657817016220172e+01 -1.1064432644497670e+01 1 1 0
1273 425 1 4.1499999999999998e-01 -2.3542693416803857e+01 -1.9979667452197642e+01 -1.6334624661507441e+01 0 0 0
1275 425 1 4.1499999999999998e-01 -2.3642850814320223e+01 -1.9529357367365538e+01 -1.4892721606052543e+01 0 0 0
1274 425 2 -8.2999999999999996e-01 -2.3042727934377108e+01 -1.9933060559652784e+01 -1.5519704942782916e+01 0 0 0
8979 2993 1 4.1499999999999998e-01 -1.8766968065500588e+01 -1.8646819267729516e+01 -1.2587023689301933e+01 0 1 0
8977 2993 1 4.1499999999999998e-01 -1.7376261139509708e+01 -1.8607250247377607e+01 -1.3183901934225306e+01 0 1 0
7540 2514 1 4.1499999999999998e-01 -2.0585308528448500e+01 -1.9524635225526982e+01 -8.2482396603499755e+00 1 0 0
2327 776 2 -8.2999999999999996e-01 -2.2519005970666250e+01 -1.8692449669922677e+01 -3.1627291146195162e+00 0 1 0
7077 2359 1 4.1499999999999998e-01 -2.2034226680306240e+01 -1.6654906058545020e+01 -9.5773510108582673e+00 1 1 0
7542 2514 1 4.1499999999999998e-01 -2.0108596627996121e+01 -1.9331091214834345e+01 -6.8244483916183869e+00 1 0 0
1107 369 1 4.1499999999999998e-01 -1.8261982581227517e+01 -1.8289866543827827e+01 -9.8403410137752090e+00 0 1 0
1106 369 2 -8.2999999999999996e-01 -1.8883998680450571e+01 -1.7720397288303687e+01 -1.0293146288601344e+01 0 1 0
1105 369 1 4.1499999999999998e-01 -1.8339387411687810e+01 -1.7168244230026048e+01 -1.0854178767445712e+01 0 1 0
4243 1415 1 4.1499999999999998e-01 -1.6986949724219922e+01 -2.1655597525916761e+01 -1.1319786356335253e+01 1 0 0
8080 2694 1 4.1499999999999998e-01 -8.4120236213755621e+00 -2.4835485106562498e+01 -1.8747817046165338e+01 1 0 0
4244 1415 2 -8.2999999999999996e-01 -1.7276504412750807e+01 -2.2055160182981837e+01 -1.0499579302225937e+01 1 0 0
4245 1415 1 4.1499999999999998e-01 -1.6554440779419597e+01 -2.2629353643286588e+01 -1.0244318950606656e+01 1 0 0
957 319 1 4.1499999999999998e-01 -1.7647390314424754e+01 -2.0365346633625549e+01 -9.7150352881277158e+00 1 0 0
956 319 2 -8.2999999999999996e-01 -1.7434196516873453e+01 -1.9589465654426441e+01 -9.1965866748409049e+00 1 0 0
7541 2514 2 -8.2999999999999996e-01 -2.0600654535279567e+01 -1.9933127457611935e+01 -7.3827164455445287e+00 1 0 0
4335 1445 1 4.1499999999999998e-01 -1.9260127043999859e+01 -2.2587160954061947e+01 -1.0601852215107888e+01 1 1 0
9191 3064 2 -8.2999999999999996e-01 -1.7232681490991816e+01 -1.6647554921148192e+01 -1.1868277843295786e+01 1 1 0
4337 1446 2 -8.2999999999999996e-01 -2.1555458839143206e+01 -2.2632584504873957e+01 -8.0393642742008335e+00 1 0 0
4338 1446 1 4.1499999999999998e-01 -2.1274714432141408e+01 -2.2470098377055550e+01 -8.9399266970034557e+00 1 0 0
4336 1446 1 4.1499999999999998e-01 -2.1519861576590930e+01 -2.1773742784912606e+01 -7.6182282207439354e+00 1 0 0
4536 1512 1 4.1499999999999998e-01 -2.2650359227623476e+01 -2.1428484922290199e+01 -4.5274290049498749e+00 0 1 0
9192 3064 1 4.1499999999999998e-01 -1.6623091037173989e+01 -1.6890136821574160e+01 -1.2565260882048547e+01 1 1 0
4334 1445 2 -8.2999999999999996e-01 -2.0169923088112469e+01 -2.2728727678323899e+01 -1.0863504402138862e+01 1 1 0
4333 1445 1 4.1499999999999998e-01 -2.0215898486227939e+01 -2.3660589114677169e+01 -1.1077402465286466e+01 1 1 0
7075 2359 1 4.1499999999999998e-01 -2.1020682973059916e+01 -1.7231420766346773e+01 -1.0542884565300410e+01 1 1 0
9190 3064 1 4.1499999999999998e-01 -1.7448437532925382e+01 -1.5732083168972572e+01 -1.2046021057097821e+01 1 1 0
2833 945 1 4.1499999999999998e-01 -2.2719443099247304e+01 -2.0825466936873589e+01 -1.1319170234605025e+01 1 0 0
1207 403 1 4.1499999999999998e-01 -1.7857023977047685e+01 -2.4501187822095812e+01 -5.3532324930899859e+00 -1 0 0
1231 411 1 4.1499999999999998e-01 -1.9676491473804752e+01 -2.1412523399649150e+01 -6.5064135744787785e+00 0 0 0
1232 411 2 -8.2999999999999996e-01 -1.9089625869970728e+01 -2.2060332208133232e+01 -6.1163310703947253e+00 0 0 0
1233 411 1 4.1499999999999998e-01 -1.9303298836929727e+01 -2.2046727276670389e+01 -5.1833837946111645e+00 0 0 0
2835 945 1 4.1499999999999998e-01 -2.1435401941445566e+01 -2.1624681384240045e+01 -1.1385424853763391e+01 1 0 0
4035 1345 1 4.1499999999999998e-01 -1.0901999921570349e+01 -2.3813441420309459e+01 -2.3695357850880274e+00 0 1 0
2834 945 2 -8.2999999999999996e-01 -2.1943504870300693e+01 -2.0967721202447315e+01 -1.1861309907252252e+01 1 0 0
955 319 1 4.1499999999999998e-01 -1.6509646150449658e+01 -1.9424075299719849e+01 -9.3812065926639896e+00 1 0 0
5464 1822 1 4.1499999999999998e-01 -1.9666508404200574e+01 -1.7199498651936505e+01 -8.6888240138281265e+00 1 0 0
5465 1822 2 -8.2999999999999996e-01 -1.9942433475439863e+01 -1.6659252511896494e+01 -7.9483975759944414e+00 1 0 0
1209 403 1 4.1499999999999998e-01 -1.8334300141148145e+01 -2.3486129329685909e+01 -6.3699717990927516e+00 -1 0 0
701 234 2 -8.2999999999999996e-01 -1.6427261298467609e+01 -1.6671434637027158e+01 -8.8918282731123739e+00 0 0 0
1208 403 2 -8.2999999999999996e-01 -1.7895634352596694e+01 -2.4333573198527802e+01 -6.2948515327254064e+00 -1 0 0
700 234 1 4.1499999999999998e-01 -1.5602554618761086e+01 -1.7090233781495591e+01 -9.1381979305347247e+00 0 0 0
2326 776 1 4.1499999999999998e-01 -2.3155347215085683e+01 -1.9248760392399781e+01 -2.7134852576792272e+00 0 1 0
5466 1822 1 4.1499999999999998e-01 -1.9129837555669774e+01 -1.6283988662644333e+01 -7.6091384291474800e+00 1 0 0
702 234 1 4.1499999999999998e-01 -1.6809871651762396e+01 -1.6387902685207269e+01 -9.7221600095243499e+00 0 0 0
3523 1175 1 4.1499999999999998e-01 -1.6786014978382489e+01 -1.8989447934534049e+01 -6.8161083722763181e+00 0 1 0
3524 1175 2 -8.2999999999999996e-01 -1.6966320912880832e+01 -1.8769565826235251e+01 -5.9021206975783578e+00 0 1 0
2328 776 1 4.1499999999999998e-01 -2.2944613333709178e+01 -1.7836819089112190e+01 -3.2173781903288767e+00 0 1 0
3371 1124 2 -8.2999999999999996e-01 -2.3131679229173976e+01 -1.7239703636713031e+01 -7.9378889151362113e+00 0 0 0
9333 3111 1 4.1499999999999998e-01 -1.7163957679151554e+01 -1.6446838965592161e+01 -7.4558774872105067e+00 1 0 0
5962 1988 1 4.1499999999999998e-01 -8.0859298897597167e+00 -1.5304275246582010e+01 -8.6289379957391343e+00 -1 0 0
3987 1329 1 4.1499999999999998e-01 -2.4094999867456227e+01 -1.6139105311535534e+01 -3.8845560438320725e+00 0 0 0
7076 2359 2 -8.2999999999999996e-01 -2.1707808813938030e+01 -1.6568690811456975e+01 -1.0473035197324746e+01 1 1 0
4154 1385 2 -8.2999999999999996e-01 -6.9397144419230297e-02 -2.1052201356204101e+01 -7.5157655767787315e+00 -1 0 0
3041 1014 2 -8.2999999999999996e-01 -6.1856873500141845e+00 -1.5146989667175569e+01 -1.5058577751251335e+01 0 0 0
1655 552 2 -8.2999999999999996e-01 -8.6285553551331127e+00 -2.4830492330674478e+01 -6.5928497732121594e+00 0 1 0
3372 1124 1 4.1499999999999998e-01 -2.2806332469949567e+01 -1.7163227728626723e+01 -7.0409314147141284e+00 0 0 0
3640 1214 1 4.1499999999999998e-01 -9.3126336976663122e+00 -1.5485752334688009e+01 1.6084257618346552e+01 0 1 0
9331 3111 1 4.1499999999999998e-01 -1.7469930670559808e+01 -1.6723187757037561e+01 -5.9992008002838650e+00 1 0 0
9332 3111 2 -8.2999999999999996e-01 -1.7609646435062778e+01 -1.6078665865152612e+01 -6.6929607558887154e+00 1 0 0
3986 1329 2 -8.2999999999999996e-01 -2.4526087710561654e+01 -1.6433165658199517e+01 -4.6870045688881987e+00 0 0 0
4215 1405 1 4.1499999999999998e-01 -1.2026029847857792e+01 -2.4145408076111824e+01 -1.1564962015616375e+01 0 0 0
3370 1124 1 4.1499999999999998e-01 -2.3739262780530325e+01 -1.7978844254285992e+01 -7.9105898663720726e+00 0 0 0
137 46 2 -8.2999999999999996e-01 -1.3917565515011908e+01 -2.0102228934949146e+01 -1.2906249645416063e+01 -1 1 0
138 46 1 4.1499999999999998e-01 -1.3357264158698568e+01 -1.9727219611905277e+01 -1.2226792333432417e+01 -1 1 0
278 93 2 -8.2999999999999996e-01 -9.6661758293765256e+00 -1.8566482139880190e+01 -1.3692151213564445e+01 0 0 0
279 93 1 4.1499999999999998e-01 -9.3858725649271477e+00 -1.9464695985209321e+01 -1.3516441722247903e+01 0 0 0
7129 2377 1 4.1499999999999998e-01 -1.4635331994479989e+01 -2.0207257638319433e+01 -8.9102070070809845e+00 1 0 0
6643 2215 1 4.1499999999999998e-01 -5.2990307840254118e+00 -1.6165989688432184e+01 1.6805090354989002e+01 0 0 0
899 300 2 -8.2999999999999996e-01 -1.5450337835799507e+01 -2.3965851532330042e+01 -9.9393140433940843e+00 0 1 0
351 117 1 4.1499999999999998e-01 -4.1848308097390596e+00 -1.5494167684626158e+01 -8.7112223228876715e+00 0 0 0
4213 1405 1 4.1499999999999998e-01 -1.2632802410969244e+01 -2.3582296181157211e+01 -1.2832489977228137e+01 0 0 0
4826 1609 2 -8.2999999999999996e-01 -1.1479616631496626e+01 -2.0637705720371805e+01 -1.0631476329372761e+01 1 0 0
4827 1609 1 4.1499999999999998e-01 -1.1027619493783277e+01 -2.1239999384659185e+01 -1.1222384759344752e+01 1 0 0
4825 1609 1 4.1499999999999998e-01 -1.1909080001386345e+01 -2.1205954222507447e+01 -9.9920338321429512e+00 1 0 0
277 93 1 4.1499999999999998e-01 -9.4941791774806283e+00 -1.8097348910438171e+01 -1.2875718104896920e+01 0 0 0
1571 524 2 -8.2999999999999996e-01 -1.3928263891541629e+01 -1.6106264227652495e+01 -1.1660792843582337e+01 0 1 0
1570 524 1 4.1499999999999998e-01 -1.3490589884915986e+01 -1.6393150625240480e+01 -1.2462272414587629e+01 0 1 0
1572 524 1 4.1499999999999998e-01 -1.3979073909046056e+01 -1.6894315891970994e+01 -1.1119844825211738e+01 0 1 0
719 240 2 -8.2999999999999996e-01 -1.1413131653197258e+01 -2.0861274234712177e+01 -5.1358340255349058e+00 -1 0 0
438 146 1 4.1499999999999998e-01 -1.5358731960200142e+01 -1.7745347115737722e+01 -1.4524496554583912e+01 -1 0 0
436 146 1 4.1499999999999998e-01 -1.5084183601628514e+01 -1.8791106820649446e+01 -1.3464824465306803e+01 -1 0 0
437 146 2 -8.2999999999999996e-01 -1.5614628776368724e+01 -1.8014326302226337e+01 -1.3642227398131556e+01 -1 0 0
2201 734 2 -8.2999999999999996e-01 -1.4109118771151659e+01 -1.5587921875933555e+01 -6.1876639485036931e+00 1 0 0
2200 734 1 4.1499999999999998e-01 -1.4602430271934812e+01 -1.5044780327651774e+01 -6.8023775892058609e+00 1 0 0
1580 527 2 -8.2999999999999996e-01 -2.5064939173737191e+00 -1.5030427826329928e+01 -2.0980321939099480e+00 0 1 0
900 300 1 4.1499999999999998e-01 -1.4737728616874683e+01 -2.4493562281158312e+01 -9.5788403067498038e+00 0 1 0
720 240 1 4.1499999999999998e-01 -1.0956039197938381e+01 -2.1621181602208086e+01 -4.7755020527307899e+00 -1 0 0
7156 2386 1 4.1499999999999998e-01 -1.5221216798575140e+01 -2.2226061921072041e+01 -5.7936653410103052e+00 0 0 0
7158 2386 1 4.1499999999999998e-01 -1.5948162622020135e+01 -2.2375441339688184e+01 -7.1131844315949042e+00 0 0 0
7157 2386 2 -8.2999999999999996e-01 -1.5074629376259333e+01 -2.2260962652043787e+01 -6.7389303310363324e+00 0 0 0
7131 2377 1 4.1499999999999998e-01 -1.3881685846257735e+01 -1.9091341735225619e+01 -9.6020482208256244e+00 1 0 0
4643 1548 2 -8.2999999999999996e-01 -1.2923065374282613e+01 -2.1265248098240072e+01 -8.2608290107617375e+00 1 1 0
7130 2377 2 -8.2999999999999996e-01 -1.4760230090662533e+01 -1.9453394856051325e+01 -9.4866818305617890e+00 1 0 0
1337 446 2 -8.2999999999999996e-01 -1.1438928917904358e+01 -1.6336696802829284e+01 -6.1069581598905218e+00 0 1 0
1336 446 1 4.1499999999999998e-01 -1.2346792507891196e+01 -1.6134828724621933e+01 -6.3333755541125480e+00 0 1 0
1338 446 1 4.1499999999999998e-01 -1.0929549378395508e+01 -1.5631299251265842e+01 -6.5059301304071644e+00 0 1 0