LAMMPS (27 Jun 2024)
OMP_NUM_THREADS environment is not set. Defaulting to 1 thread. (src/comm.cpp:98)
  using 1 OpenMP thread(s) per MPI task

# Created 2011-01-07

# General parameters

variable        sname index Si2H6.ang

units           real
newton          on
boundary        f f f

atom_style      electron

read_data       data.${sname}
read_data       data.Si2H6.ang
Reading data file ...
  orthogonal box = (-529.17725 -529.17725 -529.17725) to (529.17725 529.17725 529.17725)
  1 by 1 by 1 MPI processor grid
  reading atoms ...
  22 atoms
  read_data CPU = 0.000 seconds

pair_style      eff/cut 529.177249 ecp 1 Si
pair_coeff      * *

compute         energies all pair eff/cut
variable        eke equal c_energies[1]
variable        epauli equal c_energies[2]
variable        estatics equal c_energies[3]
variable        errestrain equal c_energies[4]

comm_modify     vel yes

compute         peratom all stress/atom NULL
compute         p all reduce sum c_peratom[1] c_peratom[2] c_peratom[3]
variable        press equal -(c_p[1]+c_p[2]+c_p[3])/(3*vol)

compute         effTemp all temp/eff
compute         effPress all pressure effTemp

thermo          10
thermo_style    custom step etotal pe ke v_eke v_epauli v_estatics v_errestrain temp press v_press
thermo_modify   temp effTemp press effPress

# Minimization

min_style       cg
#dump            1 all xyz 10 ${sname}.min.xyz
compute         1 all property/atom spin eradius erforce
#dump            2 all custom 10 ${sname}.min.lammpstrj id type q c_1[1] c_1[2] x y z fx fy fz c_1[3]
min_modify      line quadratic
minimize        0 1.0e-6 2000 10000

CITE-CITE-CITE-CITE-CITE-CITE-CITE-CITE-CITE-CITE-CITE-CITE-CITE

Your simulation uses code contributions which should be cited:

- EFF package: doi:10.1002/jcc.21637

@Article{Jaramillo-Botero11,
 author = {A. Jaramillo-Botero and J. Su and A. Qi and Goddard, III, W. A.},
 title = {Large-Scale, Long-Term Nonadiabatic Electron Molecular Dynamics for Describing Material Properties and Phenomena in Extreme Environments},
 journal = {J.~Comp.\ Chem.},
 year =    2011,
 volume =  32,
 number =  3,
 pages =   {497--512}
}

- Type Label Framework: https://doi.org/10.1021/acs.jpcb.3c08419

@Article{Gissinger24,
 author = {Jacob R. Gissinger, Ilia Nikiforov, Yaser Afshar, Brendon Waters, Moon-ki Choi, Daniel S. Karls, Alexander Stukowski, Wonpil Im, Hendrik Heinz, Axel Kohlmeyer, and Ellad B. Tadmor},
 title = {Type Label Framework for Bonded Force Fields in LAMMPS},
 journal = {J. Phys. Chem. B},
 year =    2024,
 volume =  128,
 number =  13,
 pages =   {3282–-3297}
}

CITE-CITE-CITE-CITE-CITE-CITE-CITE-CITE-CITE-CITE-CITE-CITE-CITE

Generated 0 of 3 mixed pair_coeff terms from geometric mixing rule
Neighbor list info ...
  update: every = 1 steps, delay = 0 steps, check = yes
  max neighbors/atom: 2000, page size: 100000
  master list distance cutoff = 531.17725
  ghost atom cutoff = 531.17725
  binsize = 265.58862, bins = 4 4 4
  1 neighbor lists, perpetual/occasional/extra = 1 0 0
  (1) pair eff/cut, perpetual
      attributes: half, newton on
      pair build: half/bin/atomonly/newton
      stencil: half/bin/3d
      bin: standard
Per MPI rank memory allocation (min/avg/max) = 6.098 | 6.098 | 6.098 Mbytes
   Step         TotEng         PotEng         KinEng         v_eke         v_epauli      v_estatics    v_errestrain       Temp          Press         v_press    
         0  -5050.1521     -5050.1521      0              3444.1415      1317.4784     -9811.772       0              0              0.048396025    0.048396025  
        10  -6181.4654     -6181.4654      0              3753.15        830.37457     -10764.99       0              0              0.0242879      0.0242879    
        20  -6254.9729     -6254.9729      0              3871.4029      665.15453     -10791.53       0              0              0.0053673679   0.0053673679 
        30  -6259.1457     -6259.1457      0              3724.221       630.24895     -10613.616      0              0              6.0271678e-06  6.0271678e-06
        40  -6259.1461     -6259.1461      0              3723.6439      630.2123      -10613.002      0              0             -3.122198e-07  -3.122198e-07 
        50  -6259.1461     -6259.1461      0              3723.6503      630.21469     -10613.011      0              0              2.7210449e-09  2.7210449e-09
        60  -6259.1461     -6259.1461      0              3723.6503      630.21467     -10613.011      0              0             -4.1437829e-12 -4.1438132e-12
Loop time of 0.00335554 on 1 procs for 60 steps with 22 atoms

97.5% CPU use with 1 MPI tasks x 1 OpenMP threads

Minimization stats:
  Stopping criterion = force tolerance
  Energy initial, next-to-last, final = 
     -5050.15207998896  -6259.14612629924  -6259.14612629927
  Force two-norm initial, final = 3250.3463 5.7347886e-07
  Force max component initial, final = 1943.1659 1.8088875e-07
  Final line search alpha, max atom move = 1 1.8088875e-07
  Iterations, force evaluations = 60 98

MPI task timing breakdown:
Section |  min time  |  avg time  |  max time  |%varavg| %total
---------------------------------------------------------------
Pair    | 0.0030275  | 0.0030275  | 0.0030275  |   0.0 | 90.22
Neigh   | 0          | 0          | 0          |   0.0 |  0.00
Comm    | 1.335e-05  | 1.335e-05  | 1.335e-05  |   0.0 |  0.40
Output  | 5.9934e-05 | 5.9934e-05 | 5.9934e-05 |   0.0 |  1.79
Modify  | 0          | 0          | 0          |   0.0 |  0.00
Other   |            | 0.0002548  |            |       |  7.59

Nlocal:             22 ave          22 max          22 min
Histogram: 1 0 0 0 0 0 0 0 0 0
Nghost:              0 ave           0 max           0 min
Histogram: 1 0 0 0 0 0 0 0 0 0
Neighs:            231 ave         231 max         231 min
Histogram: 1 0 0 0 0 0 0 0 0 0

Total # of neighbors = 231
Ave neighs/atom = 10.5
Neighbor list builds = 0
Dangerous builds = 0

#undump          1
#undump          2

# Equilibrate at 300K
velocity        all create 300.0 4928459 rot yes mom yes dist gaussian

timestep        0.001

#dump            1 all custom 1000 ${sname}.nvt.lammpstrj id type q c_1[1] c_1[2] x y z fx fy fz c_1[3]
#fix            0 all langevin/eff 300.0 300.0 0.1
fix             1 all nvt/eff temp 300.0 300.0 0.1

run             200000
Generated 0 of 3 mixed pair_coeff terms from geometric mixing rule
Per MPI rank memory allocation (min/avg/max) = 5.348 | 5.348 | 5.348 Mbytes
   Step         TotEng         PotEng         KinEng         v_eke         v_epauli      v_estatics    v_errestrain       Temp          Press         v_press    
        60  -6240.367      -6259.1461      18.779103      3723.6503      630.21467     -10613.011      0              900            0.00072412613  0.00072412613
        70  -6240.7299     -6258.653       17.923108      3723.5208      625.73203     -10607.906      0              858.9759       0.00028996181  0.00028992461
        80  -6241.6799     -6257.332       15.652041      3722.6624      622.43019     -10602.425      0              750.13365     -9.988313e-05  -0.0001003931 
        90  -6242.8888     -6255.5793      12.690418      3720.6401      620.6936      -10596.913      0              608.19604     -0.00036377688 -0.00036568571
       100  -6244.0325     -6253.8573      9.8248014      3717.5147      620.55349     -10591.925      0              470.85961     -0.00045876614 -0.00046268137
       110  -6244.9404     -6252.5381      7.5976559      3713.8348      621.76484     -10588.138      0              364.1223      -0.0003881341  -0.00039356452
       120  -6245.6062     -6251.8308      6.2245584      3710.4587      623.92825     -10586.218      0              298.31576     -0.00019122291 -0.00019671567
       130  -6246.0999     -6251.7848      5.6849089      3708.3118      626.60075     -10586.697      0              272.45273      7.494705e-05   7.086597e-05 
       140  -6246.4893     -6252.3272      5.8379103      3708.162       629.37458     -10589.864      0              279.78542      0.00035230177  0.00035008811
       150  -6246.815      -6253.3013      6.4862705      3710.4421      631.92845     -10595.672      0              310.85848      0.00059290828  0.0005915255 
       160  -6247.1032     -6254.5025      7.3993388      3715.1393      634.05778     -10603.7        0              354.61783      0.00076540359  0.00076273176
       170  -6247.3822     -6255.713       8.3307518      3721.7637      635.68333     -10613.16       0              399.25637      0.00085770272  0.00085166839
       180  -6247.6872     -6256.737       9.0498072      3729.4081      636.8354      -10622.98       0              433.71754      0.00087629694  0.00086613407
       190  -6248.0491     -6257.4346      9.3855165      3736.8944      637.61516     -10631.944      0              449.80661      0.00084233103  0.00082922308
       200  -6248.478      -6257.746       9.267972       3742.9876      638.14211     -10638.876      0              444.17322      0.00078505975  0.00077165932
       210  -6248.9527     -6257.6976      8.7448332      3746.6401      638.50216     -10642.84       0              419.10147      0.000733734    0.00072270913
       220  -6249.4285     -6257.3848      7.9562423      3747.2184      638.7128      -10643.316      0              381.30778      0.00070936278  0.00070187313
       230  -6249.8583     -6256.9318      7.0734683      3744.6582      638.71681     -10640.307      0              339.00029      0.00071832641  0.00071354296
       240  -6250.2142     -6256.4476      6.233418       3739.4969      638.40525     -10634.35       0              298.74037      0.00075016513  0.00074620802
       250  -6250.4942     -6256.0015      5.5073013      3732.7619      637.66008     -10626.423      0              263.94078      0.00078108959  0.00077658872
       260  -6250.7134     -6255.6297      4.9162661      3725.7364      636.40074     -10617.767      0              235.61505      0.00078249223  0.00077747439
       270  -6250.888      -6255.3589      4.4709432      3719.6722      634.62066     -10609.652      0              214.27269      0.00073119647  0.00072666878
       280  -6251.0254     -6255.223       4.197644       3715.5343      632.40563     -10603.163      0              201.17466      0.00061730869  0.00061408478
       290  -6251.1256     -6255.2572      4.1315259      3713.84        629.93219     -10599.029      0              198.0059       0.00044711581  0.00044501328
       300  -6251.1885     -6255.476       4.2874726      3714.6096      627.44994     -10597.536      0              205.47974      0.00024126791  0.00023933585
       310  -6251.2195     -6255.8555      4.6359554      3717.4109      625.25299     -10598.519      0              222.18099      3.0379687e-05  2.7821144e-05
       320  -6251.2289     -6256.3318      5.1028874      3721.4719      623.64514     -10601.449      0              244.559       -0.00014994925 -0.00015308246
       330  -6251.2265     -6256.8171      5.5906559      3725.8427      622.90055     -10605.56       0              267.9356      -0.00026416325 -0.00026712524
       340  -6251.217      -6257.2198      6.0028895      3729.5937      623.2212      -10610.035      0              287.69215     -0.00028241347 -0.00028455119
       350  -6251.2003     -6257.4598      6.2595819      3732.0249      624.6939      -10614.179      0              299.99429     -0.00018708709 -0.00018847888
       360  -6251.1756     -6257.4801      6.3045769      3732.8365      627.25374     -10617.57       0              302.1507       2.1038759e-05  1.9656004e-05
       370  -6251.1438     -6257.2599      6.1160622      3732.2074      630.66502     -10620.132      0              293.11602      0.00031945097  0.00031730043
       380  -6251.1063     -6256.8289      5.7225932      3730.7425      634.53125     -10622.103      0              274.25877      0.00066551247  0.0006622944 
       390  -6251.0613     -6256.273       5.2117299      3729.2989      638.34172     -10623.914      0              249.77534      0.0010034781   0.00099936821
       400  -6251.0035     -6255.719       4.7154288      3728.7356      641.55202     -10626.007      0              225.98981      0.0012754161   0.0012707475 
       410  -6250.9268     -6255.2996      4.3727129      3729.6592      643.68366     -10628.642      0              209.56494      0.0014334667   0.001428569  
       420  -6250.825      -6255.1144      4.2893654      3732.2287      644.41944     -10631.763      0              205.57046      0.0014507241   0.0014460413 
       430  -6250.6886     -6255.2041      4.5154747      3736.0684      643.66923     -10634.942      0              216.40688      0.0013281912   0.001324325  
       440  -6250.5007     -6255.5448      5.0441103      3740.3158      641.58887     -10637.449      0              241.74207      0.001095604    0.0010929445 
       450  -6250.2381     -6256.0558      5.8176934      3743.8092      638.54703     -10638.412      0              278.81651      0.00080500952  0.0008031458 
       460  -6249.8832     -6256.6131      6.7299234      3745.3813      635.04867     -10637.043      0              322.53569      0.00051812052  0.00051566722
       470  -6249.4399     -6257.0682      7.6282808      3744.1876      631.63261     -10632.888      0              365.59002      0.00029092186  0.00028620163
       480  -6248.942      -6257.2779      8.3359026      3739.9756      628.76595     -10626.019      0              399.50323      0.00016033735  0.00015260001
       490  -6248.4435     -6257.1466      8.7030723      3733.2093      626.75862     -10617.115      0              417.10006      0.00013699629  0.00012721437
       500  -6247.9933     -6256.6632      8.6698909      3725.0067      625.71852     -10607.388      0              415.50982      0.0002055731   0.00019603226
       510  -6247.6123     -6255.913       8.3007253      3716.9087      625.55866     -10598.38       0              397.81733      0.00033140156  0.00032426108
       520  -6247.2893     -6255.0531      7.7638554      3710.547       626.05303     -10591.653      0              372.08751      0.00047071255  0.00046658518
       530  -6246.9952     -6254.2624      7.2671863      3707.2928      626.92293     -10588.478      0              348.28434      0.00058207333  0.00057965989
       540  -6246.7028     -6253.69        6.987287       3707.9609      627.92793     -10589.579      0              334.87         0.0006371974   0.00063419233
       550  -6246.398      -6253.4226      7.0246706      3712.6187      628.93676     -10594.978      0              336.66163      0.00062928572  0.00062389277
       560  -6246.0807     -6253.4761      7.3954139      3720.5379      629.96003     -10603.974      0              354.42973      0.00057670475  0.00056875704
       570  -6245.7593     -6253.808       8.048785       3730.3077      631.13523     -10615.251      0              385.74294      0.00051992738  0.00051089834
       580  -6245.4453     -6254.3369      8.891584       3740.1128      632.66439     -10627.114      0              426.13459      0.00051080389  0.00050272479
       590  -6245.1556     -6254.9587      9.8030535      3748.1395      634.71647     -10637.815      0              469.81733      0.00059551636  0.00058959227
       600  -6244.9191     -6255.5578      10.63864       3753.0206      637.32022     -10645.899      0              509.86331      0.00079566913  0.00079164562
       610  -6244.7823     -6256.0208      11.238531      3754.186       640.28478     -10650.492      0              538.61346      0.0010946215   0.0010913389 
       620  -6244.8021     -6256.2612      11.459104      3751.9884      643.18779     -10651.437      0              549.18455      0.0014361755   0.0014326814 
       630  -6245.0254     -6256.2476      11.222176      3747.5458      645.45534     -10649.249      0              537.82962      0.0017385765   0.0017347117 
       640  -6245.4664     -6256.0162      10.549781      3742.3512      646.52369     -10644.891      0              505.60472      0.0019198602   0.0019159225 
       650  -6246.0977     -6255.6537      9.5560329      3737.7954      646.02935     -10639.478      0              457.97871      0.0019249579   0.0019210789 
       660  -6246.8573     -6255.26        8.4027196      3734.7722      643.94836     -10633.981      0              402.70547      0.0017439985   0.0017400335 
       670  -6247.6655     -6254.917       7.2514472      3733.4922      640.619       -10629.028      0              347.53004      0.0014149848   0.0014109263 
       680  -6248.4449     -6254.6802      6.235316       3733.5457      636.63591     -10624.862      0              298.83133      0.0010104205   0.0010066804 
       690  -6249.1388     -6254.5872      5.4484175      3734.1623      632.66956     -10621.419      0              261.11874      0.00061413384  0.00061128015
       700  -6249.7209     -6254.6639      4.9429926      3734.5424      629.2955      -10618.502      0              236.89594      0.0002981631   0.00029638091
       710  -6250.1918     -6254.9207      4.7289474      3734.1389      626.89216     -10615.952      0              226.63769      0.00010743254  0.00010623961
       720  -6250.5669     -6255.3405      4.773546       3732.8148      625.61494     -10613.77       0              228.77511      5.4380773e-05  5.2849303e-05
       730  -6250.8673     -6255.8702      5.0029134      3730.8584      625.42402     -10612.153      0              239.76768      0.00012193376  0.00011927184
       740  -6251.1138     -6256.426       5.3121403      3728.8732      626.1412      -10611.44       0              254.58757      0.00027243132  0.0002685263 
       750  -6251.3239     -6256.9124      5.5884954      3727.578       627.51749     -10612.008      0              267.83206      0.00045996608  0.00045549078
       760  -6251.5077     -6257.2497      5.741962       3727.5821      629.29685     -10614.129      0              275.18704      0.00064296348  0.00063891912
       770  -6251.6663     -6257.395       5.7287671      3729.2038      631.26332     -10617.862      0              274.55466      0.00079354303  0.00079052186
       780  -6251.7938     -6257.3492      5.5553857      3732.3836      633.2633      -10622.996      0              266.24525      0.00090117144  0.00089887962
       790  -6251.8843     -6257.1469      5.2625516      3736.7084      635.2015      -10629.057      0              252.211        0.00097028585  0.0009677326 
       800  -6251.938      -6256.8402      4.9022089      3741.5209      637.01712     -10635.378      0              234.94136      0.0010139001   0.0010101645 
       810  -6251.9619     -6256.4856      4.5237175      3746.0685      638.65304     -10641.207      0              216.80193      0.0010464076   0.0010413981 
       820  -6251.9651     -6256.1402      4.1751279      3749.6493      640.03204     -10645.822      0              200.09556      0.0010782583   0.0010728278 
       830  -6251.9514     -6255.8614      3.9099639      3751.7299      641.05059     -10648.642      0              187.38741      0.001113527    0.0011088083 
       840  -6251.9158     -6255.7001      3.7842457      3752.0264      641.59297     -10649.319      0              181.36229      0.0011498819   0.0011463742 
       850  -6251.8478     -6255.686       3.8382304      3750.5462      641.56018     -10647.792      0              183.94953      0.0011799794   0.0011771474 
       860  -6251.7382     -6255.8119      4.0736376      3747.5832      640.90176     -10644.297      0              195.23157      0.0011936552   0.0011903872 
       870  -6251.5853     -6256.0301      4.4448192      3743.6619      639.63796     -10639.33       0              213.02068      0.0011806689   0.0011762153 
       880  -6251.3945     -6256.2683      4.8738212      3739.434       637.86396     -10633.566      0              233.58086      0.0011336261   0.0011282423 
       890  -6251.1744     -6256.4559      5.281487       3735.5519      635.73586     -10627.744      0              253.11849      0.0010502934   0.0010450819 
       900  -6250.9309     -6256.5462      5.6153448      3732.5511      633.44516     -10622.542      0              269.11883      0.00093451786  0.00093062919
       910  -6250.6655     -6256.525       5.8595282      3730.7703      631.19266     -10618.488      0              280.82147      0.00079564337  0.00079346447
       920  -6250.3779     -6256.4042      6.0262776      3730.3173      629.17029     -10615.892      0              288.81304      0.000647154    0.00064603532
       930  -6250.07       -6256.209       6.1390422      3731.077       627.55428     -10614.84       0              294.21735      0.00050548865  0.00050413861
       940  -6249.7489     -6255.9671      6.2181836      3732.7494      626.50565     -10615.222      0              298.01025      0.00038939638  0.00038667168
       950  -6249.4264     -6255.7024      6.2759907      3734.9092      626.16974     -10616.781      0              300.78069      0.00031937207  0.00031499857
       960  -6249.1148     -6255.4372      6.3223264      3737.0848      626.66595     -10619.188      0              303.00135      0.00031619804  0.00031097907
       970  -6248.8213     -6255.1973      6.3760186      3738.8558      628.06382     -10622.117      0              305.57459      0.00039765144  0.0003929688 
       980  -6248.543      -6255.0147      6.471658       3739.9623      630.34821     -10625.325      0              310.15816      0.00057306988  0.00056991761
       990  -6248.27       -6254.922       6.6519158      3740.4008      633.38391     -10628.707      0              318.79713      0.00083670963  0.00083489192
      1000  -6247.9928     -6254.9378      6.9450309      3740.4664      636.89461     -10632.299      0              332.84485      0.0011624105   0.001160537  
      1010  -6247.7124     -6255.053       7.3405499      3740.6994      640.47229     -10636.225      0              351.80034      0.0015031278   0.0014995145 
      1020  -6247.4453     -6255.227       7.7817312      3741.7172      643.62844     -10640.573      0              372.94422      0.0017981834   0.0017920459 
      1030  -6247.2173     -6255.4         8.1827526      3743.9679      645.88634     -10645.254      0              392.16342      0.0019880776   0.0019801121 
      1040  -6247.0517     -6255.5124      8.4606515      3747.4904      646.89491     -10649.898      0              405.48189      0.0020325608   0.0020244618 
      1050  -6246.9588     -6255.5215      8.562743       3751.7867      646.52754     -10653.836      0              410.37469      0.001924928    0.0019182234 
      1060  -6246.933      -6255.4104      8.4774161      3755.8822      644.92549     -10656.218      0              406.28534      0.001696206    0.0016912742 
      1070  -6246.9591     -6255.189       8.2298435      3758.5776      642.46207     -10656.229      0              394.42028      0.0014068507   0.00140278   
      1080  -6247.0217     -6254.8928      7.8711012      3758.8152      639.6353      -10653.343      0              377.22733      0.0011286227   0.001123938  
      1090  -6247.1112     -6254.5784      7.4672291      3756.0359      636.92631     -10647.541      0              357.87152      0.0009230458   0.00091676401
      1100  -6247.2252     -6254.3153      7.0900257      3750.4031      634.67379     -10639.392      0              339.79381      0.00082388369  0.00081619459
      1110  -6247.3647     -6254.1731      6.8084052      3742.8194      633.00714     -10630          0              326.29698      0.00082928892  0.00082141699
      1120  -6247.5286     -6254.2064      6.6777698      3734.7342      631.8565      -10620.797      0              320.0362       0.00090560486  0.00089892772
      1130  -6247.7133     -6254.4381      6.72476        3727.8023      631.0302      -10613.271      0              322.28823      0.0010007703   0.00099577918
      1140  -6247.9176     -6254.8461      6.9285073      3723.4883      630.32763     -10608.662      0              332.05294      0.0010624672   0.0010583371 
      1150  -6248.1506     -6255.3584      7.2078369      3722.7132      629.64551     -10607.717      0              345.43999      0.0010553729   0.0010505511 
      1160  -6248.4365     -6255.8665      7.4300442      3725.6239      629.03932     -10610.53       0              356.08941      0.00097280334  0.00096625773
      1170  -6248.8073     -6256.2579      7.4505174      3731.5449      628.71749     -10616.52       0              357.0706       0.00083968997  0.00083183868
      1180  -6249.2862     -6256.4579      7.1717243      3739.1354      628.96865     -10624.562      0              343.70927      0.00070563257  0.00069811411
      1190  -6249.8692     -6256.4589      6.5897238      3746.7359      630.04576     -10633.241      0              315.81654      0.00062901047  0.00062340797
      1200  -6250.5195     -6256.3174      5.7979153      3752.8217      632.04795     -10641.187      0              277.86863      0.00065625425  0.00065287566
      1210  -6251.1772     -6256.1221      4.9448785      3756.4226      634.84529     -10647.39       0              236.98632      0.00080358976  0.00080139123
      1220  -6251.7816     -6255.955       4.173352       3757.3491      638.08034     -10651.384      0              200.01045      0.0010493246   0.0010469356 
      1230  -6252.2932     -6255.8692      3.5760469      3756.1332      641.24836     -10653.251      0              171.38423      0.0013405673   0.0013373349 
      1240  -6252.7011     -6255.8879      3.1868583      3753.7381      643.8202      -10653.446      0              152.73213      0.0016105847   0.0016067728 
      1250  -6253.0148     -6256.0127      2.9979324      3751.1948      645.35959     -10652.567      0              143.67774      0.001798199    0.001794478  
      1260  -6253.2495     -6256.2283      2.9788774      3749.3086      645.60823     -10651.145      0              142.76452      0.001862597    0.0018594534 
      1270  -6253.4177     -6256.5031      3.0853542      3748.4854      644.53316     -10649.522      0              147.86748      0.0017913922   0.0017888662 
      1280  -6253.5289     -6256.7909      3.2620705      3748.6831      642.33163     -10647.806      0              156.33672      0.0016018506   0.0015996212 
      1290  -6253.5909     -6257.0407      3.4497761      3749.4779      639.38798     -10645.907      0              165.33263      0.0013355452   0.0013331688 
      1300  -6253.6118     -6257.2098      3.5980204      3750.2258      636.18837     -10643.624      0              172.43733      0.0010475719   0.0010446767 
      1310  -6253.5989     -6257.276       3.6771284      3750.2791      633.2158      -10640.771      0              176.22863      0.00079299444  0.0007893701 
      1320  -6253.559      -6257.2412      3.6822685      3749.1975      630.85599     -10637.295      0              176.47497      0.00061425798  0.00060989341
      1330  -6253.4978     -6257.1262      3.6284241      3746.8935      629.33926     -10633.359      0              173.89444      0.00053302683  0.00052813527
      1340  -6253.4196     -6256.9604      3.5408253      3743.6742      628.72844     -10629.363      0              169.69622      0.00054826423  0.00054325711
      1350  -6253.3262     -6256.7726      3.4463298      3740.1711      628.94653     -10625.89       0              165.16746      0.00064020958  0.0006355602 
      1360  -6253.2168     -6256.585       3.3682702      3737.1867      629.82775     -10623.6        0              161.42641      0.00077820681  0.00077422952
      1370  -6253.0877     -6256.4118      3.3241837      3735.5012      631.17302     -10623.086      0              159.31353      0.00092966024  0.00092633494
      1380  -6252.9349     -6256.26        3.3251309      3735.6875      632.79477     -10624.742      0              159.35893      0.0010677006   0.0010646819 
      1390  -6252.7559     -6256.1325      3.3765353      3737.975       634.54279     -10628.65       0              161.82252      0.0011760285   0.0011728587 
      1400  -6252.5505     -6256.0318      3.4813051      3742.184       636.30976     -10634.526      0              166.84367      0.0012504106   0.0012467892 
      1410  -6252.3196     -6255.9642      3.6445871      3747.7426      638.02113     -10641.728      0              174.66906      0.0012971233   0.0012930161 
      1420  -6252.0631     -6255.9395      3.8764215      3753.7825      639.61809     -10649.34       0              185.77987      0.0013291562   0.0013246492 
      1430  -6251.7794     -6255.9666      4.1872143      3759.2993      641.04229     -10656.308      0              200.67481      0.0013612577   0.0013563014 
      1440  -6251.4675     -6256.0424      4.5749086      3763.3468      642.22813     -10661.617      0              219.25529      0.001405032    0.0013993767 
      1450  -6251.1322     -6256.1432      5.0110761      3765.2256      643.1038      -10664.473      0              240.15889      0.0014652894   0.0014587677 
      1460  -6250.7858     -6256.2245      5.4386954      3764.6226      643.59794     -10664.445      0              260.6528       0.0015385361   0.0015314765 
      1470  -6250.4458     -6256.2351      5.7893157      3761.6703      643.6479      -10661.553      0              277.45649      0.0016137714   0.0016070763 
      1480  -6250.1255     -6256.138       6.0125578      3756.918       643.20687     -10656.263      0              288.15551      0.0016749263   0.0016695456 
      1490  -6249.8284     -6255.9269      6.0984857      3751.2263      642.24975     -10649.403      0              292.27366      0.001703912    0.0017000185 
      1500  -6249.5494     -6255.6259      6.076532       3745.6068      640.78012     -10642.013      0              291.22151      0.0016836746   0.0016802779 
      1510  -6249.2824     -6255.2759      5.9934469      3741.0325      638.84073     -10635.149      0              287.23961      0.0016014733   0.0015969891 
      1520  -6249.0291     -6254.9199      5.89086        3738.2437      636.52738     -10629.691      0              282.32306      0.0014529028   0.0014463892 
      1530  -6248.7971     -6254.5995      5.8024011      3737.5831      634.00224     -10626.185      0              278.08362      0.0012463819   0.0012384579 
      1540  -6248.5916     -6254.3615      5.7698362      3738.9054      631.49927     -10624.766      0              276.52293      0.0010063718   0.00099893728
      1550  -6248.4056     -6254.2613      5.8556834      3741.6062      629.31435     -10625.182      0              280.6372       0.00077272629  0.00076753949
      1560  -6248.2195     -6254.3473      6.1277183      3744.7866      627.77526     -10626.909      0              293.67465      0.00059436772  0.00059156902
      1570  -6248.0144     -6254.6283      6.6138572      3747.5175      627.1915      -10629.337      0              316.97315      0.00051786388  0.00051572389
      1580  -6247.7888     -6255.0458      7.2569817      3749.1243      627.78873     -10631.959      0              347.79528      0.00057414169  0.00057036702
      1590  -6247.5666     -6255.4774      7.9108411      3749.3894      629.63942     -10634.506      0              379.1319       0.00076792291  0.00076148458
      1600  -6247.3859     -6255.7806      8.394659       3748.6051      632.60827     -10636.994      0              402.31916      0.0010737247   0.0010656013 
      1610  -6247.2751     -6255.8537      8.578515       3747.4655      636.33653     -10639.656      0              411.13057      0.0014398853   0.0014319944 
      1620  -6247.2355     -6255.6773      8.441861       3746.8416      640.28495     -10642.804      0              404.58134      0.0017993964   0.0017926603 
      1630  -6247.2456     -6255.3109      8.0652603      3747.5112      643.83788     -10646.66       0              386.53253      0.0020846907   0.0020780772 
      1640  -6247.283      -6254.8524      7.5693085      3749.9084      646.4446      -10651.205      0              362.76374      0.0022432091   0.0022347516 
      1650  -6247.3409     -6254.3959      7.0549893      3753.9454      647.75314     -10656.094      0              338.11467      0.0022506559   0.0022395861 
      1660  -6247.4263     -6254.0155      6.5891893      3758.9552      647.68931     -10660.66       0              315.79092      0.0021185434   0.0021065217 
      1670  -6247.5426     -6253.773       6.2303813      3763.7954      646.45337     -10664.022      0              298.59483      0.0018925665   0.0018826771 
      1680  -6247.6769     -6253.7264      6.0495706      3767.1275      644.43878     -10665.293      0              289.92937      0.0016400885   0.0016342697 
      1690  -6247.804      -6253.912       6.1079606      3767.8155      642.10584     -10663.833      0              292.72774      0.0014291716   0.0014263133 
      1700  -6247.9088     -6254.3093      6.4004949      3765.3198      639.85536     -10659.484      0              306.74763      0.0013063335   0.0013028684 
      1710  -6248.0043     -6254.8225      6.8182743      3759.9266      637.93982     -10652.689      0              326.76996      0.0012821312   0.0012748082 
      1720  -6248.1299     -6255.3078      7.1778181      3752.7083      636.43168     -10644.448      0              344.00132      0.0013307302   0.0013192668 
      1730  -6248.3268     -6255.6377      7.3108204      3745.2207      635.25051     -10636.109      0              350.37554      0.0014031076   0.0013904441 
      1740  -6248.6088     -6255.7612      7.1524151      3739.0568      634.23631     -10629.054      0              342.78386      0.0014473347   0.0014372961 
      1750  -6248.9543     -6255.7169      6.7626204      3735.4254      633.24454     -10624.387      0              324.10271      0.0014271694   0.0014215681 
      1760  -6249.3252     -6255.5952      6.270078       3734.8848      632.23024     -10622.71       0              300.49732      0.0013327402   0.0013302948 
      1770  -6249.6932     -6255.4813      5.7880199      3737.2762      631.29003     -10624.048      0              277.39439      0.0011818191   0.0011795457 
      1780  -6250.0534     -6255.4185      5.3651021      3741.8351      630.64476     -10627.898      0              257.12579      0.0010135594   0.001009222  
      1790  -6250.4151     -6255.4099      4.9948444      3747.4205      630.56777     -10633.398      0              239.38097      0.00087741636  0.00087099313
      1800  -6250.784      -6255.4422      4.6581931      3752.8056      631.28492     -10639.533      0              223.24675      0.00081965042  0.00081287234
      1810  -6251.152      -6255.5076      4.3555673      3756.9716      632.88268     -10645.362      0              208.74323      0.00087000244  0.00086469012
      1820  -6251.5005     -6255.6063      4.1057916      3759.3385      635.25614     -10650.201      0              196.77257      0.0010318924   0.0010285962 
      1830  -6251.812      -6255.7355      3.9234696      3759.8729      638.11258     -10653.721      0              188.03468      0.001279495    0.0012773765 
      1840  -6252.0795     -6255.881       3.8015014      3759.0374      641.02753     -10655.946      0              182.18928      0.0015633259   0.0015610695 
      1850  -6252.3058     -6256.0198      3.7140127      3757.5987      643.53606     -10657.155      0              177.99633      0.0018230607   0.0018199164 
      1860  -6252.4985     -6256.133       3.6345086      3756.3565      645.23511     -10657.725      0              174.18605      0.0020036735   0.0019998741 
      1870  -6252.6628     -6256.2163      3.5535023      3755.8852      645.87069     -10657.972      0              170.30377      0.0020698234   0.0020662195 
      1880  -6252.7985     -6256.2818      3.4832518      3756.3677      645.38806     -10658.038      0              166.93697      0.0020141123   0.0020114016 
      1890  -6252.9011     -6256.3483      3.4472796      3757.5696      643.93266     -10657.851      0              165.21298      0.0018570094   0.0018551294 
      1900  -6252.9653     -6256.4267      3.4614667      3758.9468      641.80394     -10657.177      0              165.89291      0.0016390661   0.0016371687 
      1910  -6252.9903     -6256.5089      3.5185827      3759.8412      639.37741     -10655.728      0              168.63023      0.0014085254   0.0014055583 
      1920  -6252.9809     -6256.5683      3.5874293      3759.6938      637.01836     -10653.28       0              171.92974      0.0012086416   0.0012041283 
      1930  -6252.9446     -6256.5741      3.6295633      3758.2098      635.011       -10649.795      0              173.94904      0.0010685226   0.0010629471 
      1940  -6252.8855     -6256.5094      3.6238717      3755.4404      633.52008     -10645.47       0              173.67627      0.00099941491  0.00099389492
      1950  -6252.8005     -6256.3827      3.5821577      3751.7734      632.59066     -10640.747      0              171.6771       0.00099615653  0.00099164633
      1960  -6252.6788     -6256.224       3.5452409      3747.8499      632.17887     -10636.253      0              169.90783      0.0010420948   0.0010387267 
      1970  -6252.5061     -6256.07        3.5639169      3744.4325      632.19782     -10632.7        0              170.80289      0.0011154574   0.001112484  
      1980  -6252.2682     -6255.947       3.6787807      3742.2509      632.56075     -10630.759      0              176.30781      0.0011955313   0.0011918445 
      1990  -6251.9527     -6255.8625      3.9097902      3741.8539      633.20848     -10630.925      0              187.37908      0.0012674737   0.0012622938 
      2000  -6251.5492     -6255.8048      4.2555549      3743.4926      634.11675     -10633.414      0              203.95007      0.001324965    0.0013182645 
      2010  -6251.0535     -6255.7478      4.6943387      3747.0526      635.28586     -10638.086      0              224.97905      0.0013703299   0.001362799  
      2020  -6250.4769     -6255.6576      5.1807163      3752.0459      636.71888     -10644.422      0              248.28899      0.0014122997   0.001404921  
      2030  -6249.855      -6255.4979      5.6429239      3757.67        638.39541     -10651.563      0              270.44057      0.0014621839   0.0014556476 
      2040  -6249.2447     -6255.2401      5.9953905      3762.9469      640.24904     -10658.436      0              287.33275      0.0015296568   0.001523946  
      2050  -6248.7039     -6254.8771      6.1731939      3766.932       642.1564      -10663.965      0              295.85409      0.0016193975   0.0016138429 
      2060  -6248.2665     -6254.4385      6.1719364      3768.9398      643.94343     -10667.322      0              295.79382      0.0017293608   0.0017231244 
      2070  -6247.934      -6253.9976      6.0636461      3768.7028      645.40753     -10668.108      0              290.60394      0.0018507233   0.0018432855 
      2080  -6247.6851     -6253.6583      5.9731387      3766.4124      646.34951     -10666.42       0              286.26632      0.0019689928   0.0019603217 
      2090  -6247.4942     -6253.5205      6.0262613      3762.6466      646.60713     -10662.774      0              288.81226      0.0020657969   0.0020563059 
      2100  -6247.3419     -6253.64        6.2981589      3758.2219      646.08321     -10657.945      0              301.84311      0.0021213677   0.0021118318 
      2110  -6247.2178     -6254.0032      6.7854008      3754.0071      644.76398     -10652.774      0              325.19448      0.0021179423   0.0021092865 
      2120  -6247.1197     -6254.527       7.4073372      3750.7371      642.72702     -10647.991      0              355.00116      0.0020437869   0.0020366638 
      2130  -6247.0515     -6255.0791      8.027586       3748.8682      640.1405      -10644.088      0              384.72696      0.001896904    0.0018913092 
      2140  -6247.0235     -6255.5108      8.4873428      3748.5023      637.25419     -10641.267      0              406.76109      0.0016874684   0.0016827586 
      2150  -6247.0475     -6255.6958      8.6483398      3749.3899      634.37973     -10639.465      0              414.47697      0.0014384767   0.001433819  
      2160  -6247.1289     -6255.5685      8.4395721      3751.0076      631.85806     -10638.434      0              404.47165      0.0011842913   0.0011791688 
      2170  -6247.2593     -6255.1501      7.8907437      3752.6942      630.01556     -10637.86       0              378.16871      0.00096661682  0.00096098081
      2180  -6247.4169     -6254.5493      7.1323579      3753.8245      629.11506     -10637.489      0              341.82261      0.00082758779  0.00082158805
      2190  -6247.5759     -6253.9314      6.3554542      3753.9857      629.31072     -10637.228      0              304.58903      0.00080054242  0.00079415859
      2200  -6247.7186     -6253.464       5.7453845      3753.1114      630.6145      -10637.19       0              275.35106      0.00090045613  0.00089345629
      2210  -6247.8418     -6253.2613      5.4194745      3751.5304      632.88014     -10637.672      0              259.73163      0.0011171083   0.0011094523 
      2220  -6247.9538     -6253.3518      5.3980377      3749.9006      635.80975     -10639.062      0              258.70425      0.0014140702   0.0014063496 
      2230  -6248.0649     -6253.6848      5.6199206      3749.0314      638.98795     -10641.704      0              269.33813      0.0017351293   0.0017284053 
      2240  -6248.1785     -6254.1646      5.9860904      3749.6399      641.94667     -10645.751      0              286.88704      0.0020171335   0.002012004  
      2250  -6248.2904     -6254.6883      6.3979011      3752.1136      644.25567     -10651.058      0              306.62332      0.0022056656   0.0022012874 
      2260  -6248.3969     -6255.165       6.7680892      3756.3545      645.62028     -10657.14       0              324.36481      0.0022689075   0.0022630638 
      2270  -6248.5058     -6255.5199      7.0141266      3761.7461      645.95513     -10663.221      0              336.1563       0.0022058713   0.0021964005 
      2280  -6248.6364     -6255.699       7.0626202      3767.2527      645.40248     -10668.354      0              338.48039      0.0020468578   0.0020334301 
      2290  -6248.8073     -6255.6848      6.8775073      3771.6351      644.27955     -10671.6        0              329.60874      0.0018455401   0.0018302445 
      2300  -6249.0203     -6255.511       6.4907049      3773.7485      642.96838     -10672.228      0              311.071        0.0016637205   0.0016498487 
      2310  -6249.2555     -6255.2565      6.0009972      3772.8622      641.78737     -10669.906      0              287.60146      0.0015522577   0.0015422055 
      2320  -6249.4824     -6255.0138      5.5313943      3768.9114      640.89302     -10664.818      0              265.09545      0.0015342011   0.0015280967 
      2330  -6249.6772     -6254.8488      5.1716405      3762.5852      640.2472      -10657.681      0              247.85403      0.0015967283   0.0015926808 
      2340  -6249.8324     -6254.7771      4.9447404      3755.1968      639.65824     -10649.632      0              236.97971      0.0016957533   0.0016912964 
      2350  -6249.9557     -6254.7713      4.8156681      3748.3559      638.87681     -10642.004      0              230.79383      0.0017720561   0.0017656258 
      2360  -6250.0605     -6254.7898      4.7293042      3743.5376      637.71121     -10636.039      0              226.65479      0.001773068    0.0017646295 
      2370  -6250.1571     -6254.8066      4.6494943      3741.6854      636.12256     -10632.615      0              222.82986      0.0016723572   0.0016630678 
      2380  -6250.2479     -6254.826       4.578083       3742.9739      634.26905     -10632.069      0              219.40743      0.0014800751   0.0014714286 
      2390  -6250.3283     -6254.8771      4.548789       3746.7983      632.48524     -10634.161      0              218.00349      0.0012411678   0.0012341652 
      2400  -6250.3902     -6254.9928      4.6025865      3751.9852      631.20262     -10638.181      0              220.58177      0.0010222998   0.0010170374 
      2410  -6250.4269     -6255.1841      4.7571486      3757.1531      630.83396     -10643.171      0              227.98925      0.00089180368  0.00088764068
      2420  -6250.4366     -6255.4225      4.985973       3761.1072      631.65286     -10648.183      0              238.9558       0.00089884527  0.00089500755
      2430  -6250.4227     -6255.6437      5.221012       3763.1534      633.70029     -10652.497      0              250.22019      0.0010580804   0.0010542598 
      2440  -6250.3899     -6255.7713      5.3814874      3763.2451      636.74513     -10655.762      0              257.91107      0.0013443837   0.0013408441 
      2450  -6250.3383     -6255.7526      5.4143233      3761.932       640.31499     -10658          0              259.48475      0.0016991272   0.0016961961 
      2460  -6250.2613     -6255.5825      5.3212132      3760.1412      643.79592     -10659.52       0              255.02239      0.0020459057   0.0020432965 
      2470  -6250.1492     -6255.3045      5.1552132      3758.8632      646.57796     -10660.746      0              247.06674      0.0023108379   0.0023074944 
      2480  -6249.9968     -6254.9888      4.9920381      3758.8364      648.20409     -10662.029      0              239.24648      0.0024415889   0.0024363633 
      2490  -6249.806      -6254.7053      4.899324       3760.3127      648.47537     -10663.493      0              234.8031       0.0024201048   0.0024128268 
      2500  -6249.5815     -6254.5066      4.9250298      3762.966       647.47897     -10664.952      0              236.03506      0.0022659647   0.0022579743 
      2510  -6249.3197     -6254.4256      5.1058988      3765.9699      645.53377     -10665.929      0              244.70332      0.0020295226   0.0020230103 
      2520  -6249.0007     -6254.4768      5.4761063      3768.2329      643.07841     -10665.788      0              262.44574      0.0017764496   0.001772856  
      2530  -6248.5934     -6254.647       6.053648       3768.7369      640.54486     -10663.929      0              290.12478      0.0015678192   0.0015664282 
      2540  -6248.075      -6254.8782      6.8032281      3766.8809      638.26018     -10660.019      0              326.04887      0.0014419208   0.001439866  
      2550  -6247.456      -6255.0611      7.6050258      3762.7114      636.40184     -10654.174      0              364.47551      0.0014043728   0.0013983222 
      2560  -6246.791      -6255.0613      8.2702804      3756.9429      635.00965     -10647.014      0              396.35824      0.0014307761   0.0014192076 
      2570  -6246.1591     -6254.7756      8.6164979      3750.7511      634.03885     -10639.565      0              412.95092      0.0014810666   0.0014654294 
      2580  -6245.6256     -6254.1884      8.562837       3745.417       633.42835     -10633.034      0              410.37919      0.0015189423   0.0015027993 
      2590  -6245.2126     -6253.3928      8.1801839      3741.9713      633.15573     -10628.52       0              392.04031      0.0015270594   0.0015138871 
      2600  -6244.8989     -6252.5603      7.6613681      3740.9676      633.25787     -10626.786      0              367.17575      0.0015114911   0.0015027693 
      2610  -6244.6438     -6251.8786      7.2348025      3742.4375      633.8113      -10628.127      0              346.73233      0.0014951834   0.0014899947 
      2620  -6244.4131     -6251.4898      7.0767327      3745.9905      634.88322     -10632.364      0              339.15674      0.0015053515   0.0015014749 
      2630  -6244.1917     -6251.4571      7.2653056      3750.9797      636.47561     -10638.912      0              348.19421      0.0015612636   0.0015567233 
      2640  -6243.983      -6251.7664      7.7833016      3756.6599      638.48705     -10646.913      0              373.01948      0.0016670363   0.0016609632 
      2650  -6243.8028     -6252.3479      8.5450622      3762.3037      640.7114      -10655.363      0              409.52733      0.0018109348   0.0018033926 
      2660  -6243.6772     -6253.0955      9.4183847      3767.2725      642.87935     -10663.247      0              451.38184      0.0019701094   0.0019614859 
      2670  -6243.6436     -6253.8788      10.235156      3771.0558      644.73091     -10669.665      0              490.5261       0.0021184983   0.002109254  
      2680  -6243.7466     -6254.5568      10.810176      3773.2937      646.089       -10673.94       0              518.08429      0.0022352304   0.0022260941 
      2690  -6244.0209     -6255.006       10.985135      3773.7961      646.89861     -10675.701      0              526.46929      0.0023104806   0.002302494  
      2700  -6244.4693     -6255.1535      10.684154      3772.5712      647.20927     -10674.934      0              512.04459      0.0023458965   0.0023399129 
      2710  -6245.0524     -6254.997       9.9445784      3769.8584      647.10985     -10671.965      0              476.59999      0.0023489129   0.0023449571 
      2720  -6245.699      -6254.5998      8.900862       3766.1341      646.65401     -10667.388      0              426.57925      0.0023242359   0.002321426  
      2730  -6246.3322     -6254.0671      7.7349439      3762.0536      645.82179     -10661.943      0              370.70191      0.0022683347   0.0022654543 
      2740  -6246.8941     -6253.5186      6.6245407      3758.3187      644.54049     -10656.378      0              317.48516      0.0021709841   0.0021671229 
      2750  -6247.3573     -6253.0666      5.7092777      3755.5077      642.75225     -10651.326      0              273.62062      0.0020229867   0.0020177761 
      2760  -6247.7225     -6252.7982      5.075687       3753.9313      640.49089     -10647.22       0              243.2554       0.0018254099   0.0018189478 
      2770  -6248.0081     -6252.7632      4.7550825      3753.566       637.92989     -10644.259      0              227.89023      0.0015954553   0.0015882422 
      2780  -6248.237      -6252.9678      4.7307819      3754.0833      635.37894     -10642.43       0              226.72561      0.0013663152   0.0013592426 
      2790  -6248.4276     -6253.38        4.9523932      3754.9656      633.2281      -10641.574      0              237.34647      0.0011807959   0.0011749354 
      2800  -6248.5891     -6253.9404      5.3512931      3755.6817      631.85573     -10641.478      0              256.46399      0.0010802127   0.0010762787 
      2810  -6248.7228     -6254.5718      5.8489836      3755.8752      631.5278      -10641.975      0              280.31611      0.0010914407   0.0010892223 
      2820  -6248.829      -6255.1852      6.3562559      3755.5078      632.31965     -10643.013      0              304.62745      0.0012162591   0.0012145409 
      2830  -6248.9127     -6255.6857      6.7729864      3754.8961      634.08602     -10644.668      0              324.59951      0.0014275176   0.0014246843 
      2840  -6248.9849     -6255.9865      7.0015983      3754.6088      636.49201     -10647.087      0              335.55588      0.0016749874   0.0016699073 
      2850  -6249.057      -6256.0312      6.9742121      3755.2492      639.09906     -10650.379      0              334.24337      0.00189995     0.0018925198 
      2860  -6249.134      -6255.8118      6.6778117      3757.1976      641.48115     -10654.491      0              320.03821      0.0020535134   0.0020446023 
      2870  -6249.2127     -6255.3746      6.161885       3760.4177      643.33352     -10659.126      0              295.3121       0.0021118008   0.0021027851 
      2880  -6249.2842     -6254.8109      5.5267113      3764.4023      644.53661     -10663.75       0              264.87102      0.0020824735   0.0020746539 
      2890  -6249.3376     -6254.2376      4.8999774      3768.2867      645.15393     -10667.678      0              234.83441      0.0020004073   0.0019944886 
      2900  -6249.3635     -6253.7715      4.4079994      3771.097       645.36723     -10670.236      0              211.25606      0.0019140757   0.0019098765 
      2910  -6249.3561     -6253.5015      4.1454227      3772.0534      645.37546     -10670.93       0              198.67191      0.001867243    0.001863846  
      2920  -6249.3146     -6253.4657      4.1511058      3770.8269      645.29588     -10669.589      0              198.94428      0.0018823038   0.0018786687 
      2930  -6249.243      -6253.6444      4.4014032      3767.6582      645.10488     -10666.407      0              210.93994      0.0019513613   0.0019470312 
      2940  -6249.1466     -6253.9723      4.8256989      3763.2967      644.64263     -10661.912      0              231.27457      0.0020385985   0.00203394   
      2950  -6249.029      -6254.3639      5.3348618      3758.779       643.68363     -10656.827      0              255.67651      0.0020933229   0.0020890669 
      2960  -6248.8909     -6254.7356      5.8447452      3755.1211      642.05051     -10651.907      0              280.11299      0.0020689727   0.0020654569 
      2970  -6248.7336     -6255.0178      6.2841698      3753.0248      639.72773     -10647.77       0              301.17268      0.0019412361   0.0019380674 
      2980  -6248.5645     -6255.1584      6.5938816      3752.6882      636.9277      -10644.774      0              316.01581      0.0017190543   0.0017155278 
      2990  -6248.3968     -6255.1285      6.7316256      3753.7734      634.07649     -10642.978      0              322.61727      0.0014449238   0.0014407833 
      3000  -6248.2438     -6254.9323      6.6885482      3755.5418      631.71779     -10642.192      0              320.55276      0.0011842595   0.0011800161 
      3010  -6248.1094     -6254.6135      6.5040751      3757.1154      630.36606     -10642.095      0              311.71177      0.0010067575   0.0010031934 
      3020  -6247.9856     -6254.2461      6.2605261      3757.7875      630.35968     -10642.393      0              300.03954      0.00096526728  0.00096254732
      3030  -6247.8576     -6253.9105      6.0529162      3757.283       631.76291     -10642.956      0              290.08971      0.0010789251   0.0010761473 
      3040  -6247.7135     -6253.6639      5.9503578      3755.8728      634.34534     -10643.882      0              285.17453      0.0013263533   0.0013220054 
      3050  -6247.5516     -6253.5248      5.9732208      3754.295       637.64106     -10645.461      0              286.27026      0.0016515094   0.0016445282 
      3060  -6247.3791     -6253.4776      6.098536       3753.4985      641.06703     -10648.043      0              292.27607      0.0019804028   0.0019710468 
      3070  -6247.2055     -6253.4923      6.2867967      3754.2943      644.06606     -10651.853      0              301.29857      0.0022431016   0.0022329847 
      3080  -6247.034      -6253.5455      6.5115044      3757.0406      646.23441     -10656.821      0              312.06783      0.00239362     0.0023848197 
      3090  -6246.8574     -6253.6307      6.7732909      3761.4753      647.39782     -10662.504      0              324.61411      0.0024210216   0.0024147644 
      3100  -6246.6609     -6253.7502      7.08927        3766.7574      647.61574     -10668.123      0              339.7576       0.0023482272   0.0023439857 
      3110  -6246.4324     -6253.8948      7.4623367      3771.7002      647.11683     -10672.712      0              357.63705      0.0022196495   0.0022153574 
      3120  -6246.1742     -6254.0255      7.8512723      3775.109       646.19308     -10675.328      0              376.27702      0.0020831684   0.0020765777 
      3130  -6245.9057     -6254.0749      8.1691572      3776.1018      645.09243     -10675.269      0              391.51185      0.0019739734   0.0019642522 
      3140  -6245.6535     -6253.9749      8.3213511      3774.3193      643.94804     -10672.242      0              398.80584      0.0019061597   0.0018944682 
      3150  -6245.4348     -6253.6963      8.2614837      3769.9804      642.76629     -10666.443      0              395.93665      0.0018736236   0.0018621583 
      3160  -6245.2467     -6253.2714      8.0246945      3763.8029      641.47141     -10658.546      0              384.58839      0.0018575817   0.0018479055 
      3170  -6245.0713     -6252.7861      7.7148875      3756.8335      639.98251     -10649.602      0              369.7407       0.0018363873   0.0018284584 
      3180  -6244.8894     -6252.3502      7.4607896      3750.2324      638.28684     -10640.869      0              357.5629       0.001794179    0.0017867448 
      3190  -6244.6908     -6252.0649      7.3741579      3745.0548      636.47893     -10633.599      0              353.41102      0.0017263705   0.0017181464 
      3200  -6244.4743     -6252.0021      7.5277863      3742.0678      634.75257     -10628.822      0              360.77376      0.0016408804   0.0016314513 
      3210  -6244.2443     -6252.1901      7.9457803      3741.6358      633.35388     -10627.18       0              380.80637      0.0015548489   0.0015447545 
      3220  -6244.0098     -6252.6024      8.5926191      3743.6896      632.51698     -10628.809      0              411.80652      0.001488068    0.0014782963 
      3230  -6243.7891     -6253.1515      9.362394       3747.7712      632.40621     -10633.329      0              448.69845      0.0014559348   0.0014473079 
      3240  -6243.6146     -6253.6993      10.084763      3753.1317      633.08215     -10639.913      0              483.31842      0.0014651167   0.0014578422 
      3250  -6243.5286     -6254.0896      10.560931      3758.8645      634.49688     -10647.451      0              506.13907      0.0015136116   0.0015071031 
      3260  -6243.5708     -6254.1939      10.623176      3764.0565      636.51335     -10654.764      0              509.12218      0.0015943391   0.0015874817 
      3270  -6243.7601     -6253.9549      10.194847      3767.9417      638.9363      -10660.833      0              488.59429      0.0016996238   0.0016915606 
      3280  -6244.0839     -6253.4116      9.3276413      3770.0259      641.54187     -10664.979      0              447.03291      0.0018239988   0.0018149576 
      3290  -6244.499      -6252.6998      8.2008477      3770.1583      644.09787     -10666.956      0              393.03064      0.0019640028   0.0019552933 
      3300  -6244.9465     -6252.021       7.0744976      3768.5422      646.37428     -10666.938      0              339.04962      0.00211495     0.0021078788 
      3310  -6245.3767     -6251.5805      6.2038684      3765.6936      648.14898     -10665.423      0              297.32419      0.0022660131   0.0022606488 
      3320  -6245.7673     -6251.5156      5.7483344      3762.3522      649.21592     -10663.084      0              275.49244      0.0023964957   0.0023915215 
      3330  -6246.127      -6251.8465      5.7194151      3759.3396      649.40256     -10660.589      0              274.10646      0.0024767172   0.002470575  
      3340  -6246.4832     -6252.477       5.9938196      3757.3701      648.60041     -10658.447      0              287.25747      0.0024752169   0.0024674894 
      3350  -6246.8625     -6253.243       6.3805011      3756.851       646.80551     -10656.899      0              305.78941      0.0023704641   0.0023622459 
      3360  -6247.2755     -6253.978       6.7025296      3757.7451      644.15557     -10655.879      0              321.22283      0.0021620887   0.0021550574 
      3370  -6247.7115     -6254.5637      6.8522412      3759.5611      640.94409     -10655.069      0              328.39785      0.0018760899   0.0018711285 
      3380  -6248.1461     -6254.9473      6.8011625      3761.4947      637.59505     -10654.037      0              325.94987      0.0015610865   0.0015576159 
      3390  -6248.5547     -6255.131       6.5763084      3762.68        634.59437     -10652.405      0              315.1736       0.0012767182   0.0012731974 
      3400  -6248.9222     -6255.1512      6.2289115      3762.4635      632.39189     -10650.007      0              298.52439      0.001078258    0.0010733335 
      3410  -6249.2453     -6255.059       5.813726       3760.612       631.30053     -10646.971      0              278.62637      0.0010022294   0.00099561165
      3420  -6249.5265     -6254.907       5.380425       3757.3961      631.42315     -10643.726      0              257.86016      0.0010569306   0.00104945   
      3430  -6249.7687     -6254.7388      4.9700914      3753.5339      632.63011     -10640.903      0              238.19467      0.0012202791   0.0012132289 
      3440  -6249.9709     -6254.5832      4.6122278      3750.0156      634.59567     -10639.194      0              221.04383      0.001445638    0.0014399193 
      3450  -6250.1294     -6254.452       4.3225521      3747.8531      636.88352     -10639.189      0              207.16095      0.0016742927   0.0016698768 
      3460  -6250.241      -6254.3443      4.1032842      3747.8128      639.05809     -10641.215      0              196.6524       0.0018513393   0.0018473209 
      3470  -6250.3068     -6254.2539      3.9470967      3750.1959      640.7906      -10645.24       0              189.16702      0.0019406124   0.001935801  
      3480  -6250.3339     -6254.1792      3.845292       3754.7239      641.93017     -10650.833      0              184.28797      0.0019343893   0.0019280769 
      3490  -6250.3322     -6254.1309      3.7987109      3760.5661      642.51964     -10657.217      0              182.05554      0.0018549234   0.0018473334 
      3500  -6250.3094     -6254.1352      3.8258218      3766.5154      642.75188     -10663.402      0              183.35485      0.0017470155   0.0017391157 
      3510  -6250.2652     -6254.2251      3.9599068      3771.2754      642.8806      -10668.381      0              189.78095      0.0016633641   0.0016561678 
      3520  -6250.1914     -6254.4224      4.2310158      3773.7897      643.1146      -10671.327      0              202.77402      0.0016467899   0.0016406677 
      3530  -6250.0767     -6254.7154      4.6387471      3773.5231      643.53056     -10671.769      0              222.31479      0.0017148795   0.0017094197 
      3540  -6249.9143     -6255.0466      5.1322922      3770.609       644.03415     -10669.69       0              245.96824      0.0018524182   0.001846926  
      3550  -6249.707      -6255.3216      5.6145457      3765.8107      644.3843      -10665.517      0              269.08053      0.0020148189   0.0020089895 
      3560  -6249.4656     -6255.439       5.9734598      3760.301       644.27425     -10660.014      0              286.28171      0.0021420091   0.0021361703 
      3570  -6249.202      -6255.3274      6.1253646      3755.3267      643.44404     -10654.098      0              293.56184      0.0021782787   0.0021730284 
      3580  -6248.9244     -6254.9721      6.0476418      3751.8647      641.78654     -10648.623      0              289.83693      0.0020912429   0.0020868694 
      3590  -6248.6353     -6254.4229      5.7875805      3750.3784      639.41018     -10644.211      0              277.37333      0.0018835075   0.001879711  
      3600  -6248.3339     -6253.783       5.4491195      3750.7393      636.63659     -10641.159      0              261.15238      0.0015934854   0.0015895654 
      3610  -6248.0175     -6253.1835      5.165961       3752.3254      633.93458     -10639.443      0              247.58183      0.0012856      0.0012808889 
      3620  -6247.6809     -6252.749       5.0680852      3754.2529      631.81282     -10638.815      0              242.89108      0.0010332534   0.0010275011 
      3630  -6247.315      -6252.5623      5.2473407      3755.6657      630.70237     -10638.93       0              251.48201      0.00089957308  0.00089311157
      3640  -6246.9076     -6252.637       5.7293409      3756.002       630.85773     -10639.497      0              274.58216      0.0009209456   0.00091455965
      3650  -6246.4504     -6252.9101      6.4596777      3755.1658      632.29667     -10640.373      0              309.584        0.0010972215   0.0010917106 
      3660  -6245.9484     -6253.2592      7.3107712      3753.5605      634.79125     -10641.611      0              350.37317      0.0013909951   0.0013865778 
      3670  -6245.4273     -6253.5397      8.1123691      3751.9689      637.91587     -10643.424      0              388.79024      0.0017368001   0.001732729  
      3680  -6244.9305     -6253.632       8.7015579      3751.3015      641.14731     -10646.081      0              417.02748      0.0020588103   0.0020535824 
      3690  -6244.5048     -6253.4811      8.9763005      3752.2805      643.99384     -10649.755      0              430.19469      0.0022924405   0.002284622  
      3700  -6244.1846     -6253.1137      8.929069       3755.1618      646.1127      -10654.388      0              427.93109      0.0024026026   0.0023917882 
      3710  -6243.9814     -6252.6261      8.6446884      3759.5954      647.37288     -10659.594      0              414.30197      0.0023917421   0.0023789791 
      3720  -6243.8848     -6252.1502      8.2653736      3764.6835      647.84061     -10664.674      0              396.12308      0.0022947491   0.0022820904 
      3730  -6243.8698     -6251.8109      7.9410913      3769.2222      647.69948     -10668.733      0              380.58165      0.0021632836   0.0021526964 
      3740  -6243.9062     -6251.691       7.7847331      3772.048       647.14494     -10670.884      0              373.08809      0.0020459631   0.0020382082 
      3750  -6243.9683     -6251.8107      7.8424003      3772.3777      646.30039     -10670.489      0              375.85183      0.0019717581   0.0019659004 
      3760  -6244.0429     -6252.1243      8.0814824      3770.0317      645.18774     -10667.344      0              387.30998      0.0019422261   0.001936158  
      3770  -6244.1337     -6252.534       8.4002713      3765.4696      643.75931     -10661.763      0              402.58813      0.0019349675   0.001926746  
      3780  -6244.2575     -6252.9216      8.664072       3759.63        641.97079     -10654.522      0              415.23095      0.0019166044   0.0019057609 
      3790  -6244.4302     -6253.1911      8.7609544      3753.6394      639.85769     -10646.688      0              419.87409      0.001859608    0.0018474488 
      3800  -6244.6531     -6253.3039      8.6507687      3748.5072      637.57685     -10639.388      0              414.59337      0.0017553056   0.0017439301 
      3810  -6244.9093     -6253.2862      8.3768505      3744.917       635.39184     -10633.595      0              401.46568      0.0016172021   0.0016080064 
      3820  -6245.1731     -6253.2054      8.032313       3743.1659      633.60842     -10629.98       0              384.95351      0.0014738719   0.0014667259 
      3830  -6245.4249     -6253.1297      7.7048446      3743.2222      632.48888     -10628.841      0              369.25938      0.0013560897   0.0013497503 
      3840  -6245.6592     -6253.0965      7.4373425      3744.8329      632.18129     -10630.111      0              356.43918      0.0012852138   0.0012784485 
      3850  -6245.8809     -6253.1059      7.2250112      3747.6158      632.68979     -10633.412      0              346.26308      0.0012679942   0.0012603708 
      3860  -6246.096      -6253.1349      7.038914       3751.1162      633.89237     -10638.143      0              337.34426      0.001298667    0.001290471  
      3870  -6246.3052     -6253.1555      6.8503294      3754.8418      635.59305     -10643.59       0              328.30622      0.0013654468   0.0013571095 
      3880  -6246.5055     -6253.1469      6.641361       3758.3003      637.58311     -10649.03       0              318.29129      0.001457288    0.0014490463 
      3890  -6246.6941     -6253.1015      6.4074127      3761.0513      639.68564     -10653.839      0              307.07917      0.0015678326   0.0015598429 
      3900  -6246.8693     -6253.0314      6.1620947      3762.7718      641.768       -10657.571      0              295.32215      0.0016952998   0.0016878033 
      3910  -6247.0286     -6252.9713      5.9426591      3763.3225      643.72307     -10660.017      0              284.80557      0.0018386649   0.0018318029 
      3920  -6247.1682     -6252.9715      5.8032581      3762.797       645.43442     -10661.203      0              278.12469      0.0019917887   0.0019852288 
      3930  -6247.286      -6253.076       5.7900037      3761.5255      646.74836     -10661.35       0              277.48946      0.0021383593   0.0021312877 
      3940  -6247.3868     -6253.2975      5.9107487      3760.0097      647.47371     -10660.781      0              283.27624      0.0022510476   0.0022427761 
      3950  -6247.4832     -6253.6064      6.1231791      3758.7833      647.41834     -10659.808      0              293.4571       0.0022971133   0.0022878114 
      3960  -6247.5888     -6253.9417      6.3528435      3758.2316      646.45475     -10658.628      0              304.4639       0.0022495767   0.0022403228 
      3970  -6247.7095     -6254.2368      6.5272351      3758.4376      644.59055     -10657.265      0              312.82173      0.0020995052   0.0020914354 
      3980  -6247.8405     -6254.4397      6.5991701      3759.1272      642.01275     -10655.58       0              316.26926      0.0018635291   0.0018568129 
      3990  -6247.972      -6254.5189      6.5468903      3759.7507      639.08128     -10653.351      0              313.76372      0.001582689    0.0015763304 
      4000  -6248.0983     -6254.4616      6.363313       3759.6733      636.2646      -10650.4        0              304.96566      0.0013127431   0.0013054391 
      4010  -6248.2207     -6254.2749      6.0542064      3758.4061      634.03235     -10646.713      0              290.15154      0.0011093856   0.001100669  
      4020  -6248.3426     -6253.9914      5.6488558      3755.7977      632.73698     -10642.526      0              270.72487      0.0010130403   0.0010037047 
      4030  -6248.4628     -6253.6713      5.2084947      3752.1289      632.52235     -10638.323      0              249.62029      0.0010375154   0.0010290081 
      4040  -6248.5728     -6253.3904      4.817661       3748.0861      633.28938     -10634.766      0              230.88934      0.0011657537   0.001159081  
      4050  -6248.6603     -6253.2189      4.5586437      3744.614       634.7314      -10632.564      0              218.47578      0.0013543069   0.0013492858 
      4060  -6248.7156     -6253.1976      4.4820551      3742.68        636.42939     -10632.307      0              214.80523      0.0015458231   0.0015411741 
      4070  -6248.7367     -6253.3245      4.5878558      3743.0022      637.97872     -10634.305      0              219.87579      0.0016862372   0.0016804302 
      4080  -6248.7301     -6253.5556      4.8254935      3745.8132      639.10783     -10638.477      0              231.26472      0.0017415245   0.0017338376 
      4090  -6248.7065     -6253.8218      5.115297       3750.7315      639.75053     -10644.304      0              245.15374      0.0017086537   0.0016997176 
      4100  -6248.6723     -6254.0565      5.3842557      3756.7971      640.04702     -10650.901      0              258.04375      0.0016168071   0.0016081341 
      4110  -6248.6223     -6254.2198      5.5975003      3762.6863      640.27303     -10657.179      0              268.26362      0.0015176554   0.0015103531 
      4120  -6248.5406     -6254.3043      5.7637009      3767.0619      640.72168     -10662.088      0              276.22889      0.0014670647   0.0014607186 
      4130  -6248.4108     -6254.3205      5.9097711      3768.9534      641.58002     -10664.854      0              283.22939      0.0015042311   0.0014970181 
      4140  -6248.228      -6254.2754      6.0474367      3768.0359      642.84253     -10665.154      0              289.8271       0.0016361372   0.0016262698 
      4150  -6248.002      -6254.1653      6.1633264      3764.7029      644.29032     -10663.158      0              295.38118      0.0018336836   0.0018210374 
      4160  -6247.747      -6253.9889      6.2418379      3759.9135      645.54325     -10659.446      0              299.1439       0.0020409996   0.0020274698 
      4170  -6247.4677     -6253.7643      6.2965972      3754.883       646.16961     -10654.817      0              301.76827      0.0021938058   0.0021819837 
      4180  -6247.1522     -6253.5284      6.3761101      3750.7363      645.82092     -10650.086      0              305.57897      0.0022395046   0.0022307313 
      4190  -6246.781      -6253.3144      6.5334556      3748.233       644.35022     -10645.898      0              313.11985      0.0021523165   0.0021457109 
      4200  -6246.3428     -6253.1272      6.7843527      3747.6199      641.87614     -10642.623      0              325.14425      0.0019399504   0.0019331575 
      4210  -6245.848      -6252.9374      7.0893236      3748.6188      638.77061     -10640.327      0              339.76016      0.0016414229   0.0016324431 
      4220  -6245.3273     -6252.7036      7.3762775      3750.5332      635.57194     -10638.809      0              353.5126       0.001317449    0.0013061364 
      4230  -6244.8171     -6252.4067      7.5895669      3752.4457      632.84979     -10637.702      0              363.73463      0.0010358342   0.0010239512 
      4240  -6244.3407     -6252.0733      7.7325265      3753.4745      631.06549     -10636.613      0              370.58606      0.00085522481  0.00084498568
      4250  -6243.8989     -6251.771       7.8720411      3753.0334      630.4721      -10635.276      0              377.27238      0.00081113856  0.00080330729
      4260  -6243.4788     -6251.575       8.0961257      3751.0282      631.08086     -10633.684      0              388.01177      0.00090783318  0.00090091106
      4270  -6243.0748     -6251.5244      8.4495736      3747.9184      632.69372     -10632.136      0              404.95098      0.0011182904   0.0011096111 
      4280  -6242.7043     -6251.599       8.8946696      3744.6003      634.97931     -10631.179      0              426.28248      0.0013926607   0.0013806234 
      4290  -6242.4042     -6251.7342      9.3299958      3742.1324      637.56255     -10631.429      0              447.14575      0.0016729796   0.0016585059 
      4300  -6242.2092     -6251.8639      9.6547372      3741.3977      640.10293     -10633.365      0              462.70918      0.0019093445   0.0018951437 
      4310  -6242.1314     -6251.9578      9.826335       3742.8332      642.34656     -10637.137      0              470.93311      0.002071564    0.0020597206 
      4320  -6242.1596     -6252.0242      9.8646256      3746.3238      644.14515     -10642.493      0              472.76821      0.0021521361   0.0021421707 
      4330  -6242.2786     -6252.0832      9.8046037      3751.2711      645.4432      -10648.798      0              469.89162      0.0021608941   0.0021501594 
      4340  -6242.4894     -6252.1372      9.6478369      3756.7716      646.24348     -10655.152      0              462.37848      0.0021159452   0.0021021192 
      4350  -6242.8071     -6252.17        9.3629667      3761.8186      646.56818     -10660.557      0              448.7259       0.0020364479   0.0020198563 
      4360  -6243.2387     -6252.1743      8.9356274      3765.4772      646.43306     -10664.085      0              428.2454       0.0019396551   0.0019231879 
      4370  -6243.7629     -6252.1771      8.4141259      3767.0326      645.84469     -10665.054      0              403.25213      0.0018403998   0.0018270391 
      4380  -6244.3335     -6252.2306      7.8970699      3766.1233      644.81796     -10663.172      0              378.4719       0.0017499248   0.0017402476 
      4390  -6244.9047     -6252.3744      7.4696395      3762.8384      643.40051     -10658.613      0              357.98704      0.0016736006   0.0016655703 
      4400  -6245.4525     -6252.6034      7.1509201      3757.7256      641.68719     -10652.016      0              342.71221      0.0016099271   0.001600877  
      4410  -6245.973      -6252.8729      6.8999189      3751.6775      639.81412     -10644.365      0              330.68283      0.0015525172   0.0015411994 
      4420  -6246.467      -6253.1305      6.663497       3745.7273      637.93503     -10636.793      0              319.35216      0.0014937114   0.0014807154 
      4430  -6246.9281     -6253.3425      6.4144688      3740.8305      636.19256     -10630.366      0              307.41734      0.0014272502   0.0014140146 
      4440  -6247.3438     -6253.4979      6.15411        3737.6956      634.69841     -10625.892      0              294.93948      0.0013492659   0.0013369814 
      4450  -6247.7031     -6253.5986      5.8954752      3736.6851      633.5292      -10623.813      0              282.54425      0.0012589685   0.0012481509 
      4460  -6248.0007     -6253.6536      5.6528947      3737.7799      632.73658     -10624.17       0              270.91843      0.0011602199   0.00115079   
      4470  -6248.2367     -6253.6787      5.4420036      3740.6026      632.3641      -10626.645      0              260.81135      0.0010633599   0.0010548307 
      4480  -6248.416      -6253.6945      5.2785629      3744.4967      632.46108     -10630.652      0              252.97835      0.00098547817  0.00097719907
      4490  -6248.5479     -6253.7187      5.1707917      3748.6579      633.08421     -10635.461      0              247.81335      0.00094794146  0.00093950413
      4500  -6248.6448     -6253.7592      5.1144144      3752.2945      634.2809      -10640.335      0              245.11144      0.00097145553  0.00096305457
      4510  -6248.7169     -6253.8163      5.0994267      3754.7871      636.05523     -10644.659      0              244.39314      0.0010698323   0.0010621407 
      4520  -6248.7677     -6253.8895      5.121747       3755.8201      638.32659     -10648.036      0              245.46285      0.0012437025   0.0012371983 
      4530  -6248.7941     -6253.9778      5.1836864      3755.4566      640.89783     -10650.332      0              248.43134      0.0014756419   0.0014699912 
      4540  -6248.7934     -6254.0731      5.2796969      3754.1263      643.45208     -10651.651      0              253.0327       0.0017290145   0.0017232072 
      4550  -6248.7695     -6254.1531      5.383642       3752.5049      645.59099     -10652.249      0              258.01433      0.0019530504   0.0019462541 
      4560  -6248.7329     -6254.188       5.4550901      3751.3012      646.91393     -10652.403      0              261.43852      0.002094734    0.0020870564 
      4570  -6248.6931     -6254.1555      5.4624367      3751.0125      647.11969     -10652.288      0              261.79061      0.0021143969   0.0021068082 
[...]
    198910  -6245.752      -6251.2285      5.4764991      3686.1812      628.45209     -10565.862      0              262.46457     -0.0005913743  -0.00060333005
    198920  -6245.7087     -6251.9573      6.248623       3694.8679      627.67204     -10574.497      0              299.46907     -0.00079103183 -0.00081350883
    198930  -6245.6264     -6252.838       7.2115356      3703.1841      626.73607     -10582.758      0              345.61725     -0.00098895716 -0.0010263157 
    198940  -6245.6346     -6253.5408      7.906194       3709.4942      626.10164     -10589.137      0              378.90918     -0.0011326835  -0.0011766076 
    198950  -6245.798      -6253.8673      8.0693705      3712.4312      626.13417     -10592.433      0              386.72951     -0.0011735562  -0.0012101592 
    198960  -6246.0568     -6253.8602      7.8033685      3711.1709      626.97507     -10592.006      0              373.9812      -0.0010773633  -0.0010996942 
    198970  -6246.2866     -6253.7018      7.4152543      3705.7983      628.48441     -10587.985      0              355.38059     -0.00084447881 -0.00085831102
    198980  -6246.4149     -6253.5144      7.0995088      3697.533       630.27418     -10581.322      0              340.2483      -0.00052562937 -0.00054308517
    198990  -6246.4714     -6253.2745      6.8031388      3688.5202      631.81016     -10573.605      0              326.04458     -0.00021491064 -0.0002431757 
    199000  -6246.5345     -6252.9077      6.3732011      3681.164       632.55167     -10566.623      0              305.43956     -1.7470392e-05 -5.3623096e-05
    199010  -6246.6484     -6252.4279      5.7795443      3677.3183      632.10259     -10561.849      0              276.98819     -8.8997963e-06 -4.4112726e-05
    199020  -6246.7905     -6251.976       5.1854257      3677.7236      630.34011     -10560.04       0              248.5147      -0.00020786972 -0.00023546885
    199030  -6246.9014     -6251.7371      4.8356861      3681.885       627.48008     -10561.102      0              231.75321     -0.00057238351 -0.00059265508
    199040  -6246.9357     -6251.8188      4.8830815      3688.3449      624.05092     -10564.215      0              234.02467     -0.0010159923  -0.0010348082 
    199050  -6246.8966     -6252.1815      5.2848358      3695.1717      620.77698     -10568.13       0              253.27899     -0.0014334405  -0.0014567116 
    199060  -6246.8322     -6252.669       5.8367576      3700.4777      618.399       -10571.546      0              279.73017     -0.0017262818  -0.0017550078 
    199070  -6246.7971     -6253.1144      6.3172582      3702.8496      617.47859     -10573.443      0              302.75846     -0.001823851   -0.0018538007 
    199080  -6246.8105     -6253.4348      6.6242922      3701.6605      618.24432     -10573.34       0              317.47325     -0.0016987601  -0.0017246809 
    199090  -6246.8493     -6253.6407      6.7914443      3697.246       620.52895     -10571.416      0              325.48412     -0.001375695   -0.001395828  
    199100  -6246.8786     -6253.7686      6.8899611      3690.8809      623.81666     -10568.466      0              330.2056      -0.00092944894 -0.00094635253
    199110  -6246.8852     -6253.8165      6.9313383      3684.4888      627.38276     -10565.688      0              332.18862     -0.00046845493 -0.00048622322
    199120  -6246.8821     -6253.7412      6.8590659      3680.1092      630.48203     -10564.332      0              328.72492     -0.00010589958 -0.00012694689
    199130  -6246.89       -6253.5031      6.6131033      3679.2801      632.53304     -10565.316      0              316.93702      7.2577942e-05  4.8635894e-05
    199140  -6246.9177     -6253.1123      6.194595       3682.5532      633.25037     -10568.916      0              296.87975      3.3195604e-05  8.4974504e-06
    199150  -6246.9568     -6252.6409      5.684011       3689.3057      632.69288     -10574.639      0              272.4097      -0.00019771134 -0.00022109195
    199160  -6246.9889     -6252.2024      5.2135331      3697.9029      631.21971     -10581.325      0              249.86176     -0.00054327451 -0.00056464347
    199170  -6246.9965     -6251.9119      4.9154067      3706.1518      629.37007     -10587.434      0              235.57387     -0.00089962907 -0.0009198242 
    199180  -6246.9732     -6251.8444      4.8711985      3711.9058      627.70103     -10591.451      0              233.45517     -0.0011660216  -0.0011864056 
    199190  -6246.9244     -6252.0151      5.0907039      3713.6401      626.62666     -10592.282      0              243.9751      -0.0012727847  -0.0012939918 
    199200  -6246.8583     -6252.3915      5.5332562      3710.8385      626.30343     -10589.534      0              265.18469     -0.0011994597  -0.0012212402 
    199210  -6246.7764     -6252.916       6.1395846      3704.1129      626.59902     -10583.628      0              294.24335     -0.00097874262 -0.0010010329 
    199220  -6246.6786     -6253.5087      6.8300811      3695.0498      627.15802     -10575.716      0              327.33581     -0.00068597482 -0.00070964947
    199230  -6246.5763     -6254.0563      7.4800207      3685.8135      627.54168     -10567.412      0              358.48456     -0.00041690377 -0.00044307608
    199240  -6246.4973     -6254.42        7.9227347      3678.5763      627.38985     -10560.386      0              379.7019      -0.00025931399 -0.00028793932
    199250  -6246.4725     -6254.472       7.999546       3674.9313      626.54733     -10555.951      0              383.38313     -0.00026687449 -0.00029606601
    199260  -6246.5158     -6254.1467      7.6309023      3675.4774      625.11287     -10554.737      0              365.71565     -0.00044351771 -0.0004701863 
    199270  -6246.6104     -6253.4841      6.8737194      3679.7065      623.39981     -10556.59       0              329.4272      -0.00074313054 -0.00076478303
    199280  -6246.7114     -6252.6431      5.9317529      3686.2184      621.83178     -10560.693      0              284.28288     -0.0010843805  -0.0011012893 
    199290  -6246.7673     -6251.8601      5.0927561      3693.1818      620.81927     -10565.861      0              244.07345     -0.0013756881  -0.0013918537 
    199300  -6246.7514     -6251.3547      4.6033223      3698.8848      620.66086     -10570.9        0              220.61703     -0.0015417633  -0.0015630773 
    199310  -6246.6811     -6251.2314      4.5503088      3702.1828      621.48914     -10574.903      0              218.07633     -0.0015425035  -0.0015724075 
    199320  -6246.6077     -6251.4473      4.839635       3702.6981      623.25626     -10577.402      0              231.94247     -0.0013784685  -0.0014142598 
    199330  -6246.5748     -6251.8764      5.3015931      3700.7499      625.74533     -10578.372      0              254.08209     -0.0010835352  -0.0011172178 
    199340  -6246.575      -6252.4121      5.8370887      3697.1371      628.60175     -10578.151      0              279.74604     -0.00071150507 -0.00073566587
    199350  -6246.5453     -6253.0124      6.4671207      3692.9346      631.38709     -10577.334      0              309.94071     -0.00032496282 -0.00033910274
    199360  -6246.4131     -6253.6518      7.238735       3689.3523      633.65281     -10576.657      0              346.9208       1.0475918e-05 -1.1351543e-06
    199370  -6246.158      -6254.2432      8.0852198      3687.5705      635.0207      -10576.834      0              387.4891       0.00023076005  0.0002116373 
    199380  -6245.84       -6254.617       8.7769869      3688.4628      635.25431     -10578.334      0              420.64246      0.00028321434  0.00025179869
    199390  -6245.569      -6254.5874      9.0184651      3692.2451      634.30955     -10581.142      0              432.21545      0.00014297731  0.00010399698
    199400  -6245.4291     -6254.0711      8.6419405      3698.217       632.35301     -10584.641      0              414.17028     -0.00017044562 -0.00020571574
    199410  -6245.4098     -6253.1785      7.768679       3704.7871      629.73563     -10587.701      0              372.31869     -0.00058837442 -0.00061103769
    199420  -6245.4067     -6252.1947      6.7879556      3709.888       626.92337     -10589.006      0              325.31692     -0.001008884   -0.0010207373 
    199430  -6245.3055     -6251.4253      6.1198142      3711.6766      624.40556     -10587.507      0              293.29584     -0.001329907   -0.0013434437 
    199440  -6245.0791     -6251.0101      5.93097        3709.2078      622.60401     -10582.822      0              284.24536     -0.0014828217  -0.0015114255 
    199450  -6244.8113     -6250.8663      6.0550189      3702.738       621.79199     -10575.396      0              290.19048     -0.0014488871  -0.0014949761 
    199460  -6244.6218     -6250.8238      6.2019612      3693.5449      622.02896     -10566.398      0              297.23278     -0.0012536318  -0.0013056289 
    199470  -6244.5561     -6250.8211      6.2649923      3683.4659      623.13202     -10557.419      0              300.25359     -0.00094951986 -0.00099110853
    199480  -6244.5397     -6250.9685      6.4288238      3674.4736      624.71165     -10550.154      0              308.10531     -0.00060185078 -0.00062552949
    199490  -6244.4395     -6251.4226      6.9831272      3668.4269      626.27482     -10546.124      0              334.67064     -0.00028331697 -0.00029655442
    199500  -6244.1745     -6252.2016      8.0271043      3666.8776      627.36401     -10546.443      0              384.70388     -6.9619488e-05 -8.9152851e-05
    199510  -6243.7929     -6253.106       9.3130441      3670.7573      627.69024     -10551.554      0              446.33333     -2.5991896e-05 -6.5318714e-05
    199520  -6243.4629     -6253.7948      10.331908      3679.9515      627.22705     -10560.973      0              495.16299     -0.00018338038 -0.00024232386
    199530  -6243.3712     -6253.9665      10.595265      3692.9706      626.23766     -10573.175      0              507.78455     -0.00051407739 -0.00057767196
    199540  -6243.584      -6253.5462      9.9622055      3707.002       625.21254     -10585.761      0              477.44479     -0.00092299872 -0.00097173427
    199550  -6243.9832     -6252.7586      8.7753687      3718.5347      624.7229      -10596.016      0              420.56491     -0.0012686939  -0.001293811  
    199560  -6244.3575     -6251.9956      7.6380186      3724.4695      625.23641     -10601.701      0              366.05671     -0.0014140862  -0.0014252853 
    199570  -6244.5771     -6251.5408      6.9637015      3723.2823      626.95345     -10601.777      0              333.73965     -0.0012858051  -0.0013031342 
    199580  -6244.6893     -6251.3863      6.6970484      3715.626       629.70195     -10596.714      0              320.96014     -0.00090936405 -0.00094554253
    199590  -6244.8467     -6251.3272      6.4805141      3704.0159      632.9186      -10588.262      0              310.5826      -0.00039880325 -0.00044854652
    199600  -6245.1476     -6251.2328      6.0852169      3691.8112      635.75396     -10578.798      0              291.63774      9.1578458e-05  4.5297872e-05
    199610  -6245.5508     -6251.2006      5.6497546      3682.0949      637.31198     -10570.607      0              270.76794      0.00042296954  0.00039297575
    199620  -6245.9331     -6251.4515      5.51838        3676.9351      636.95186     -10565.338      0              264.47173      0.00050845189  0.00049313958
    199630  -6246.2075     -6252.1021      5.8945788      3677.1093      634.5231      -10563.735      0              282.50129      0.00032478404  0.00031116025
    199640  -6246.3943     -6253.029       6.6347164      3682.1292      630.43567     -10565.594      0              317.97284     -9.0896123e-05 -0.00011551431
    199650  -6246.6015     -6253.9242      7.3226771      3690.419       625.54585     -10569.889      0              350.94377     -0.00065073574 -0.00068844133
    199660  -6246.9357     -6254.4894      7.5536739      3699.6295      620.90649     -10575.025      0              362.01444     -0.0012312433  -0.0012724891 
    199670  -6247.4075     -6254.6236      7.2161247      3707.1392      617.47334     -10579.236      0              345.83719     -0.0016974577  -0.0017297729 
    199680  -6247.9167     -6254.4638      6.547119       3710.7352      615.87137     -10581.07       0              313.77468     -0.00193664    -0.0019556229 
    199690  -6248.3346     -6254.2467      5.9120929      3709.3155      616.28829     -10579.851      0              283.34067     -0.0018928014  -0.0019057309 
    199700  -6248.6057     -6254.111       5.5052265      3703.3203      618.49321     -10575.924      0              263.84134     -0.0015870022  -0.0016060352 
    199710  -6248.7775     -6254.0137      5.2362403      3694.6373      621.93011     -10570.581      0              250.95002     -0.0011117536  -0.0011432082 
    199720  -6248.9411     -6253.8271      4.8860547      3685.9586      625.84366     -10565.629      0              234.16716     -0.00059972263 -0.00063919045
    199730  -6249.1465     -6253.5075      4.3609863      3679.8702      629.42856     -10562.806      0              209.00293     -0.00018014572 -0.00021715822
    199740  -6249.3688     -6253.1719      3.8030923      3678.083       632.0003      -10563.255      0              182.26552      5.7980685e-05  3.0874908e-05
    199750  -6249.5421     -6253.0205      3.4784164      3681.071       633.15649     -10567.248      0              166.70523      8.3175552e-05  6.5024438e-05
    199760  -6249.6191     -6253.1861      3.5669811      3688.1185      632.87357     -10574.178      0              170.94975     -8.1093097e-05 -9.7688931e-05
    199770  -6249.6062     -6253.6361      4.0299157      3697.6184      631.49643     -10582.751      0              193.13617     -0.00037088015 -0.00039313431
    199780  -6249.5541     -6254.1957      4.6416973      3707.4657      629.61666     -10591.278      0              222.45618     -0.00070019354 -0.00072957407
    199790  -6249.5171     -6254.6657      5.1485751      3715.4773      627.87702     -10598.02       0              246.74861     -0.0009800719  -0.0010120472 
    199800  -6249.5121     -6254.9355      5.4233839      3719.8335      626.769       -10601.538      0              259.91899     -0.001138304   -0.0011669472 
    199810  -6249.5123     -6255.0107      5.4984009      3719.505       626.49631     -10601.012      0              263.51422     -0.0011380489  -0.001161001  
    199820  -6249.477      -6254.9535      5.4765256      3714.547       626.94831     -10596.449      0              262.46583     -0.00098909533 -0.0010087469 
    199830  -6249.3871     -6254.8119      5.4248222      3706.1202      627.77886     -10588.711      0              259.98792     -0.00074507725 -0.00076580922
    199840  -6249.2552     -6254.5927      5.3374532      3696.1953      628.54608     -10579.334      0              255.80071     -0.00048615129 -0.00051056881
    199850  -6249.1101     -6254.2838      5.173699       3687.0252      628.85584     -10570.165      0              247.95269     -0.00029375551 -0.00032084651
    199860  -6248.97       -6253.8959      4.9258538      3680.5575      628.46518     -10562.919      0              236.07455     -0.00022671839 -0.00025301602
    199870  -6248.825      -6253.4869      4.6618548      3677.9716      627.32896     -10558.787      0              223.42224     -0.00030637438 -0.00032902611
    199880  -6248.6385     -6253.1464      4.5079653      3679.4749      625.59652     -10558.218      0              216.04699     -0.00051421488 -0.00053350958
    199890  -6248.3656     -6252.9488      4.583191       3684.3746      623.57497     -10560.898      0              219.65223     -0.00080041104 -0.00081981094
    199900  -6247.9739     -6252.9102      4.9363054      3691.339       621.6726      -10565.922      0              236.57545     -0.001097829   -0.00112161   
    199910  -6247.4515     -6252.9832      5.5317163      3698.7243      620.32921     -10572.037      0              265.11088     -0.0013361404  -0.001366637  
    199920  -6246.8064     -6253.0903      6.2838142      3704.893       619.93699     -10577.92       0              301.15563     -0.001453819   -0.0014903477 
    199930  -6246.0659     -6253.1603      7.0944071      3708.5138      620.75724     -10582.431      0              340.0038      -0.001409045   -0.0014487903 
    199940  -6245.2807     -6253.1402      7.859451       3708.8512      622.84355     -10584.835      0              376.66899     -0.0011902637  -0.0012297699 
    199950  -6244.5197     -6252.9958      8.4761135      3705.9812      625.98968     -10584.967      0              406.22292     -0.00082330917 -0.00085981919
    199960  -6243.8402     -6252.7316      8.8914542      3700.8253      629.72938     -10583.286      0              426.12838     -0.00037017715 -0.00040339205
    199970  -6243.2633     -6252.4009      9.1375475      3694.9623      633.4118      -10580.775      0              437.92255      8.1400629e-05  4.8044744e-05
    199980  -6242.7913     -6252.0679      9.2766797      3690.2573      636.34672     -10578.672      0              444.59054      0.00043506731  0.00039625189
    199990  -6242.4395     -6251.7603      9.3207732      3688.3424      637.97364     -10578.076      0              446.70375      0.00060854895  0.00056152697
    200000  -6242.2346     -6251.4698      9.2352077      3690.0557      637.99801     -10579.524      0              442.60297      0.00055836575  0.00050561325
    200010  -6242.1842     -6251.1903      9.0060714      3695.0746      636.45737     -10582.722      0              431.62147      0.00029616242  0.00024373559
    200020  -6242.2607     -6250.9404      8.6796407      3701.9552      633.70636     -10586.602      0              415.97708     -0.00011272172 -0.00015912056
    200030  -6242.4122     -6250.7608      8.3485296      3708.574       630.32801     -10589.663      0              400.10838     -0.00056784496 -0.00060592137
    200040  -6242.5839     -6250.7045      8.1206564      3712.7842      626.99451     -10590.483      0              389.18742     -0.0009609137  -0.00099278252
    200050  -6242.7365     -6250.8208      8.0842937      3713.0595      624.31086     -10588.191      0              387.44471     -0.0012034596  -0.0012347267 
    200060  -6242.8663     -6251.1145      8.2482176      3708.9647      622.681       -10582.76       0              395.30087     -0.0012498886  -0.0012864779 
Loop time of 2.92876 on 1 procs for 200000 steps with 22 atoms

Performance: 5.900 ns/day, 4.068 hours/ns, 68288.229 timesteps/s, 1.502 Matom-step/s
99.1% CPU use with 1 MPI tasks x 1 OpenMP threads

MPI task timing breakdown:
Section |  min time  |  avg time  |  max time  |%varavg| %total
---------------------------------------------------------------
Pair    | 2.6387     | 2.6387     | 2.6387     |   0.0 | 90.10
Neigh   | 0          | 0          | 0          |   0.0 |  0.00
Comm    | 0.012135   | 0.012135   | 0.012135   |   0.0 |  0.41
Output  | 0.12708    | 0.12708    | 0.12708    |   0.0 |  4.34
Modify  | 0.1222     | 0.1222     | 0.1222     |   0.0 |  4.17
Other   |            | 0.0286     |            |       |  0.98

Nlocal:             22 ave          22 max          22 min
Histogram: 1 0 0 0 0 0 0 0 0 0
Nghost:              0 ave           0 max           0 min
Histogram: 1 0 0 0 0 0 0 0 0 0
Neighs:            231 ave         231 max         231 min
Histogram: 1 0 0 0 0 0 0 0 0 0

Total # of neighbors = 231
Ave neighs/atom = 10.5
Neighbor list builds = 0
Dangerous builds = 0


Total wall time: 0:00:02
