35 Oleic Acid ligands attached two 1.6 nm Fe3O4 nanoparticles                                                                            

4116 atoms
4550 bonds
10086 angles
21406 dihedrals
0 impropers

11 atom types
14 bond types
28 angle types
26 dihedral types

  0.0000  97.6763 xlo xhi
  0.0000  58.5717 ylo yhi
  0.0000  60.6247 zlo zhi

Masses

  1  55.845   # Ft
  2  55.845   # Fm
  3  15.999   # O
  4  15.999   # Ms
  5  12.010   # c
  6  16.000   # o
  7  16.000   # oh
  8  12.010   # c3
  9   1.008   # hc
 10  12.010   # c2
 11   1.008   # ha

Pair Coeffs

  1      0.0130       2.5943   # Ft
  2      0.0130       2.5943   # Fm
  3      0.0600       3.1181   # O
  4      0.0600       3.1181   # Ms
  5      0.0988       3.3152   # c
  6      0.1463       3.0481   # o
  7      0.0930       3.2429   # oh
  8      0.1078       3.3977   # c3
  9      0.0208       2.6002   # hc
 10      0.0988       3.3152   # c2
 11      0.0161       2.6255   # ha

Bond Coeffs

  1  375.900    1.097
  2  232.500    1.538
  3  392.200    1.088
  4  255.600    1.510
  5  481.800    1.334
  6  652.600    1.218
  7  383.100    1.351
  8  243.200    1.524
  9  50.000    2.058
 10  50.000    2.058
 11  50.000    2.058
 12  50.000    2.058
 13  50.000    1.888
 14  50.000    1.888

Angle Coeffs

  1  39.000  107.580
  2  46.800  109.800
  3  64.900  111.510
  4  46.400  115.680
  5  47.500  110.360
  6  65.500  111.560
  7  50.400  120.430
  8  66.100  123.630
  9  85.800  112.730
 10  115.700  122.100
 11  84.600  123.200
 12  80.000  120.000
 13  47.400  108.770
 14  65.300  111.040
 15  80.000  120.000
 16  80.000  120.000
 17  50.000  87.700
 18  50.000  109.470
 19  80.000  120.000
 20  80.000  120.000
 21  50.000  87.700
 22  50.000  90.000
 23  50.000  90.000
 24  88.263  112.400
 25  88.263  112.400
 26  50.000  125.260
 27  50.000  109.470
 28  50.000  125.260

Dihedral Coeffs

  1   0.120  -1  3
  2   0.080  -1  3
  3   0.110  -1  1
  4   0.290   1  2
  5   0.130  -1  3
  6   0.000  -1  2
  7   0.156  -1  3
  8   6.650   1  2
  9   1.470  -1  1
 10   0.360   1  3
 11   0.400   1  1
 12   5.290   1  2
 13   0.000   1  2
 14   0.830  -1  1
 15   0.040   1  3
 16   0.740  -1  1
 17   0.270   1  2
 18   0.550   1  3
 19   0.000  -1  1
 20   0.100  -1  3
 21   0.000   1  4
 22   0.000   1  3
 23   2.300   1  2
 24   0.000  -1  4
 25   0.001   1  1
 26   1.100   1  2

Atoms # qmag

      1    1   1   0.858929   24.7671   32.7441   33.6888    0.0000 # Ft
      2    1   1   0.558929   28.0459   29.2635   31.3896    0.0000 # Ft
      3    1   1   0.858929   29.7020   31.5632   36.1381    0.0000 # Ft
      4    1   2   0.956557   26.7143   31.0403   35.9356    0.0000 # Fm
      5    1   2   0.256557   28.5942   31.9973   31.7400    0.0000 # Fm
      6    1   2   0.956557   29.5850   34.1658   33.9677    0.0000 # Fm
      7    1   2   0.256557   25.3213   29.8912   34.5899    0.0000 # Fm
      8    1   2   0.956557   30.8321   28.9419   36.2908    0.0000 # Fm
      9    1   2   0.956557   26.9904   34.4610   33.0373    0.0000 # Fm
     10    1   2   0.956557   23.1830   30.3297   33.1034    0.0000 # Fm
     11    1   2   0.256557   28.4423   29.2836   34.2680    0.0000 # Fm
     12    1   2   0.256557   27.5608   32.2381   34.4737    0.0000 # Fm
     13    1   3  -0.400000   28.6993   28.9991   36.0851    0.0000 # O
     14    1   3  -0.400000   24.6768   29.1757   33.1882    0.0000 # O
     15    1   3  -0.400000   28.3183   33.3068   33.0344    0.0000 # O
     16    1   4  -0.400000   28.4443   30.8333   35.3274    0.0353 # Ms
     17    1   3   0.000000   26.8357   32.4604   32.4789    0.0000 # O
     18    1   3   0.000000   29.5331   32.0499   33.4375    0.0000 # O
     19    1   3  -0.400000   25.9673   31.5244   33.9564    0.0000 # O
     20    1   3   0.000000   27.3096   30.1682   33.2955    0.0000 # O
     21    1   3  -0.400000   27.0806   29.1178   35.4076    0.0000 # O
     22    1   3   0.000000   30.2173   29.5946   34.4610    0.0000 # O
     23    1   3   0.000000   28.7459   34.3206   32.0380    0.0000 # O
     24    1   3   0.000000   25.0036   30.3188   32.3951    0.0000 # O
     25    1   3  -0.400000   30.2251   32.5699   34.6521    0.0000 # O
     26    1   3  -0.400000   30.7378   30.4733   35.6421    0.0000 # O
     27    1   3  -0.400000   24.0060   31.7608   32.6543    0.0000 # O
     28    1   3   0.000000   28.8075   30.5535   30.4071    0.0000 # O
     29    1   3  -0.400000   25.6891   33.4660   32.4509    0.0000 # O
     30    1   1   0.558929   26.6528   26.7436   34.2862    0.0000 # Ft
     31    1   1   0.858929   24.1557   24.9830   32.3232    0.0000 # Ft
     32    1   1   0.858929   28.9671   24.3527   34.5131    0.0000 # Ft
     33    1   2   0.256557   29.5751   27.8645   33.6167    0.0000 # Fm
     34    1   2   0.256557   28.6092   25.5583   29.2344    0.0000 # Fm
     35    1   2   0.256557   25.3873   28.2004   31.7745    0.0000 # Fm
     36    1   2   0.256557   29.3153   25.7106   31.9054    0.0000 # Fm
     37    1   2   0.256557   26.1948   26.2093   30.5103    0.0000 # Fm
     38    1   2   0.956557   27.0622   23.9576   31.9545    0.0000 # Fm
     39    1   2   0.956557   23.6242   27.8585   33.8294    0.0000 # Fm
     40    1   2   0.956557   29.1471   27.0978   36.1278    0.0000 # Fm
     41    1   3   0.000000   27.2769   26.1682   32.4013    0.0000 # O
     42    1   3  -0.400000   27.7072   25.0498   33.2297    0.0000 # O
     43    1   3   0.000000   26.8412   24.6292   29.8611    0.0000 # O
     44    1   3   0.000000   28.9153   24.2594   30.8470    0.0000 # O
     45    1   3  -0.400000   26.0640   25.3028   32.4763    0.0000 # O
     46    1   3   0.000000   28.2750   26.9803   30.4675    0.0000 # O
     47    1   3   0.000000   28.0291   27.5748   34.7698    0.0000 # O
     48    1   3  -0.400000   30.6463   27.2806   34.9710    0.0000 # O
     49    1   3   0.000000   29.4708   27.9153   31.7190    0.0000 # O
     50    1   3   0.000000   29.9296   25.7231   33.6830    0.0000 # O
     51    1   3  -0.400000   28.0983   23.7281   28.8499    0.0000 # O
     52    1   3   0.000000   26.7776   28.3863   30.5128    0.0000 # O
     53    1   3  -0.400000   23.3880   28.6256   31.9353    0.0000 # O
     54    1   3   0.000000   25.5777   27.9915   33.8653    0.0000 # O
     55    1   3   0.000000   24.4378   26.5075   31.3315    0.0000 # O
     56    1   1   0.558929   30.8290   30.9060   33.6423    0.0000 # Ft
     57    1   1   0.558929   31.7266   33.4189   31.9967    0.0000 # Ft
     58    1   1   0.858929   35.5229   29.8965   29.4820    0.0000 # Ft
     59    1   1   0.858929   33.1449   28.7046   34.5665    0.0000 # Ft
     60    1   2   0.956557   33.9638   31.4467   33.9365    0.0000 # Fm
     61    1   2   0.256557   32.7604   29.9037   31.6885    0.0000 # Fm
     62    1   2   0.956557   33.9279   34.8495   30.6186    0.0000 # Fm
     63    1   2   0.256557   30.8884   31.2262   30.3642    0.0000 # Fm
     64    1   2   0.956557   35.3570   29.7594   32.2582    0.0000 # Fm
     65    1   2   0.956557   32.0177   33.1161   34.6884    0.0000 # Fm
     66    1   2   0.956557   35.1590   32.3701   31.4372    0.0000 # Fm
     67    1   2   0.956557   32.1937   31.1079   35.9557    0.0000 # Fm
     68    1   3   0.000000   31.0058   30.2402   32.0710    0.0000 # O
     69    1   3  -0.400000   34.1066   31.1771   32.0952    0.0000 # O
     70    1   3  -0.400000   32.1153   31.4981   34.3434    0.0000 # O
     71    1   3  -0.400000   34.3134   33.1815   29.8720    0.0000 # O
     72    1   3   0.000000   33.1316   32.1003   32.0021    0.0000 # O
     73    1   3  -0.400000   30.9620   33.2610   33.3316    0.0000 # O
     74    1   3  -0.400000   34.6261   30.6400   30.7605    0.0000 # O
     75    1   3  -0.400000   31.8334   29.6203   35.0720    0.0000 # O
     76    1   3  -0.400000   33.6999   29.7203   33.2689    0.0000 # O
     77    1   3   0.000000   32.6021   30.8811   29.7142    0.0000 # O
     78    1   3   0.000000   30.4011   32.8077   31.1722    0.0000 # O
     79    1   3  -0.400000   36.2914   31.0305   28.2546    0.0000 # O
     80    1   3  -0.400000   32.0487   34.8719   31.0778    0.0000 # O
     81    1   1   0.858929   30.0955   23.1704   30.6877    0.0000 # Ft
     82    1   1   0.858929   33.9822   27.2222   30.9006    0.0000 # Ft
     83    1   1   0.558929   31.6084   25.8766   29.2613    0.0000 # Ft
     84    1   2   0.956557   33.3409   24.6171   31.0944    0.0000 # Fm
     85    1   2   0.256557   31.7843   29.2895   28.9598    0.0000 # Fm
     86    1   2   0.956557   34.1908   27.1735   27.6903    0.0000 # Fm
     87    1   2   0.956557   29.9114   23.1171   28.1702    0.0000 # Fm
     88    1   2   0.256557   31.9543   25.5667   32.9397    0.0000 # Fm
     89    1   2   0.956557   34.8280   25.1702   29.0204    0.0000 # Fm
     90    1   2   0.256557   31.6254   28.1804   31.6979    0.0000 # Fm
     91    1   3  -0.400000   29.2517   23.5022   29.3566    0.0000 # O
     92    1   3  -0.400000   34.8702   26.8382   29.5218    0.0000 # O
     93    1   3   0.000000   31.7737   27.6966   33.5337    0.0000 # O
     94    1   3  -0.400000   31.3255   24.7274   31.1989    0.0000 # O
     95    1   3  -0.400000   33.3505   25.7095   28.4733    0.0000 # O
     96    1   3  -0.400000   33.0508   24.8308   29.4814    0.0000 # O
     97    1   3   0.000000   30.9521   26.4537   30.9793    0.0000 # O
     98    1   3  -0.400000   32.6109   26.2172   31.1991    0.0000 # O
     99    1   3  -0.400000   30.9533   24.1608   28.4732    0.0000 # O
    100    1   3  -0.400000   34.1415   28.3994   32.3544    0.0000 # O
    101    1   3   0.000000   30.2659   25.1705   28.3450    0.0000 # O
    102    1   3   0.000000   34.0718   29.0643   28.6152    0.0000 # O
    103    1   3   0.000000   30.3444   29.1121   30.3268    0.0000 # O
    104    1   3   0.000000   33.0613   28.4815   30.4501    0.0000 # O
    105    1   3   0.000000   32.1584   27.2274   28.3883    0.0000 # O
    106    1   1   0.558929   25.5908   31.7198   31.4640    0.0000 # Ft
    107    1   1   0.858929   25.3189   31.6280   25.0295    0.0000 # Ft
    108    1   1   0.858929   22.7719   30.5519   30.3764    0.0000 # Ft
    109    1   1   0.558929   26.8588   34.3549   29.8371    0.0000 # Ft
    110    1   2   0.956557   23.5442   33.3998   29.2849    0.0000 # Fm
    111    1   2   0.956557   26.3713   35.9461   27.6654    0.0000 # Fm
    112    1   2   0.956557   23.1737   31.5861   27.4545    0.0000 # Fm
    113    1   2   0.256557   27.9088   31.8123   28.9987    0.0000 # Fm
    114    1   2   0.956557   24.6792   34.6727   31.7398    0.0000 # Fm
    115    1   2   0.256557   25.3084   31.1369   28.5706    0.0000 # Fm
    116    1   2   0.956557   24.5954   33.9546   26.8623    0.0000 # Fm
    117    1   2   0.956557   22.8433   32.5617   31.7231    0.0000 # Fm
    118    1   3   0.000000   26.3862   31.0109   30.0738    0.0000 # O
    119    1   3   0.000000   25.5038   33.4665   28.7002    0.0000 # O
    120    1   3  -0.400000   26.4134   34.4327   26.5954    0.0000 # O
    121    1   3  -0.400000   24.3647   32.8414   30.9433    0.0000 # O
    122    1   3  -0.400000   24.5379   32.8320   28.2339    0.0000 # O
    123    1   3  -0.400000   24.9782   32.0919   26.7023    0.0000 # O
    124    1   3  -0.400000   23.4385   31.0789   31.5532    0.0000 # O
    125    1   3  -0.400000   26.3098   34.3154   31.3401    0.0000 # O
    126    1   3  -0.400000   23.5711   31.6095   29.2867    0.0000 # O
    127    1   3   0.000000   27.0291   31.8305   27.3413    0.0000 # O
    128    1   3  -0.400000   27.4499   35.6541   29.1569    0.0000 # O
    129    1   3   0.000000   28.2773   33.2399   30.1254    0.0000 # O
    130    1   3  -0.400000   26.7430   32.6214   24.6472    0.0000 # O
    131    1   1   0.858929   25.7761   24.1426   28.7738    0.0000 # Ft
    132    1   1   0.858929   24.4062   28.8868   26.4297    0.0000 # Ft
    133    1   1   0.558929   26.3000   26.6565   27.1913    0.0000 # Ft
    134    1   2   0.256557   27.6912   30.0406   27.0939    0.0000 # Fm
    135    1   2   0.956557   23.7619   25.8925   27.1998    0.0000 # Fm
    136    1   2   0.956557   26.6239   28.4726   24.2189    0.0000 # Fm
    137    1   2   0.956557   27.5941   23.7078   26.8489    0.0000 # Fm
    138    1   2   0.256557   23.5213   27.1097   29.4787    0.0000 # Fm
    139    1   2   0.956557   24.8161   26.6934   25.0228    0.0000 # Fm
    140    1   2   0.256557   25.5359   29.1961   29.1072    0.0000 # Fm
    141    1   3  -0.400000   27.0035   24.7679   27.8621    0.0000 # O
    142    1   3  -0.400000   25.6230   28.0376   25.6516    0.0000 # O
    143    1   3  -0.400000   25.1778   25.8763   26.3555    0.0000 # O
    144    1   3  -0.400000   26.7712   26.9050   25.0918    0.0000 # O
    145    1   3  -0.400000   24.8896   25.8637   28.6310    0.0000 # O
    146    1   3   0.000000   24.0473   29.0760   30.2924    0.0000 # O
    147    1   3   0.000000   25.7990   27.2832   28.8668    0.0000 # O
    148    1   3  -0.400000   28.5684   24.6086   25.7439    0.0000 # O
    149    1   3  -0.400000   24.4442   27.6039   27.8316    0.0000 # O
    150    1   3   0.000000   25.5987   29.5654   27.3148    0.0000 # O
    151    1   3   0.000000   27.7161   29.5596   29.0540    0.0000 # O
    152    1   3   0.000000   26.5017   30.2860   25.3597    0.0000 # O
    153    1   3   0.000000   26.9998   28.1474   26.2505    0.0000 # O
    154    1   3   0.000000   27.5489   25.5994   27.5940    0.0000 # O
    155    1   3  -0.400000   24.4552   30.6803   26.6869    0.0000 # O
    156    1   1   0.858929   29.4104   35.8000   31.1039    0.0000 # Ft
    157    1   1   0.558929   33.3331   32.4722   28.7429    0.0000 # Ft
    158    1   1   0.558929   27.6644   33.3429   26.4307    0.0000 # Ft
    159    1   1   0.558929   30.4207   30.7942   26.7511    0.0000 # Ft
    160    1   2   0.256557   30.9431   34.1765   26.7160    0.0000 # Fm
    161    1   2   0.956557   30.2483   32.3972   24.2353    0.0000 # Fm
    162    1   2   0.956557   35.5100   31.6987   26.7071    0.0000 # Fm
    163    1   2   0.956557   31.5876   35.4241   29.1464    0.0000 # Fm
    164    1   2   0.956557   27.4569   32.5496   22.9420    0.0000 # Fm
    165    1   2   0.956557   32.8806   31.8751   25.3753    0.0000 # Fm
    166    1   2   0.956557   29.0744   35.7153   28.0264    0.0000 # Fm
    167    1   2   0.256557   30.3185   32.8343   29.2370    0.0000 # Fm
    168    1   3   0.000000   29.8272   35.1105   29.6908    0.0000 # O
    169    1   3   0.000000   33.7659   31.7673   27.1228    0.0000 # O
    170    1   3   0.000000   28.3494   32.6725   24.8366    0.0000 # O
    171    1   3  -0.400000   31.8906   32.3272   27.3538    0.0000 # O
    172    1   3   0.000000   29.1082   33.8822   27.4707    0.0000 # O
    173    1   3   0.000000   31.9526   33.6525   28.4808    0.0000 # O
    174    1   3  -0.400000   29.4938   32.6252   26.2551    0.0000 # O
    175    1   3  -0.400000   27.6287   34.5836   28.0002    0.0000 # O
    176    1   3  -0.400000   31.5405   33.0574   25.3614    0.0000 # O
    177    1   3   0.000000   29.7431   31.2170   28.4901    0.0000 # O
    178    1   3  -0.400000   32.3340   33.8047   29.9731    0.0000 # O
    179    1   3   0.000000   31.0261   32.0247   25.9108    0.0000 # O
    180    1   3  -0.400000   30.0616   34.5264   28.6204    0.0000 # O
    181    1   1   0.558929   29.0825   28.3719   29.4472    0.0000 # Ft
    182    1   1   0.858929   32.2776   24.6091   27.2923    0.0000 # Ft
    183    1   1   0.858929   27.9787   25.6858   24.3174    0.0000 # Ft
    184    1   1   0.858929   31.0652   29.7233   24.3420    0.0000 # Ft
    185    1   2   0.956557   30.9014   26.2473   24.7575    0.0000 # Fm
    186    1   2   0.256557   31.9999   27.5800   26.3549    0.0000 # Fm
    187    1   2   0.256557   28.8367   27.9586   26.1403    0.0000 # Fm
    188    1   2   0.256557   27.9010   30.7777   24.5015    0.0000 # Fm
    189    1   2   0.256557   33.8639   29.6359   26.5625    0.0000 # Fm
    190    1   2   0.256557   29.1656   26.1922   26.8450    0.0000 # Fm
    191    1   3   0.000000   29.9024   27.7616   27.6458    0.0000 # O
    192    1   3   0.000000   29.1017   29.9843   26.0316    0.0000 # O
    193    1   3  -0.400000   29.1345   26.5828   24.9240    0.0000 # O
    194    1   3  -0.400000   31.1807   25.8933   26.7485    0.0000 # O
    195    1   3   0.000000   31.6856   29.5797   27.0574    0.0000 # O
    196    1   4  -0.400000   28.7598   29.0050   24.4822   -0.0353 # Ms
    197    1   3  -0.400000   29.6710   24.2690   26.5931    0.0000 # O
    198    1   3  -0.400000   32.9014   28.4093   27.7698    0.0000 # O
    199    1   3   0.000000   30.4980   28.3082   25.1357    0.0000 # O
    200    1   3  -0.400000   32.1013   30.4029   25.8782    0.0000 # O
    201    1   3  -0.400000   34.3308   30.6878   28.0140    0.0000 # O
    202    1   3  -0.400000   28.1349   30.5598   22.8491    0.0000 # O
    203    1   3  -0.400000   29.7887   30.8137   24.8636    0.0000 # O
    204    2   5   0.848000   26.3689   31.6178   37.9038    0.0000 # c
    205    2   6  -0.836200   25.7675   30.7154   37.3221    0.0000 # o
    206    2   7  -0.836200   27.3259   32.0957   37.0477    0.0000 # oh
    207    2   8  -0.040600   26.4873   31.9087   39.4000    0.0000 # c3
    208    2   9  -0.037200   26.2883   32.9769   39.5599    0.0000 # hc
    209    2   9  -0.037200   27.5180   31.7184   39.7288    0.0000 # hc
    210    2   8   0.036900   25.4963   31.0542   40.2246    0.0000 # c3
    211    2   9  -0.009500   25.7913   29.9980   40.1732    0.0000 # hc
    212    2   9  -0.009500   24.4985   31.1309   39.7731    0.0000 # hc
    213    2   8  -0.005800   25.4089   31.5027   41.7024    0.0000 # c3
    214    2   9  -0.012400   25.1457   32.5678   41.7397    0.0000 # hc
    215    2   9  -0.012400   26.3900   31.3951   42.1827    0.0000 # hc
    216    2   8   0.007300   24.3521   30.6856   42.4848    0.0000 # c3
    217    2   9  -0.006200   24.6815   29.6413   42.5635    0.0000 # hc
    218    2   9  -0.006200   23.4097   30.6816   41.9215    0.0000 # hc
    219    2   8  -0.004600   24.0888   31.2569   43.8986    0.0000 # c3
    220    2   9  -0.010700   23.7903   32.3098   43.8122    0.0000 # hc
    221    2   9  -0.010700   25.0149   31.2313   44.4874    0.0000 # hc
    222    2   8   0.004900   22.9802   30.4698   44.6382    0.0000 # c3
    223    2   9   0.006900   23.3209   29.4427   44.8229    0.0000 # hc
    224    2   9   0.006900   22.0920   30.4018   43.9964    0.0000 # hc
    225    2   8   0.045000   22.5798   31.1288   45.9770    0.0000 # c3
    226    2   9   0.032700   22.2533   32.1597   45.7894    0.0000 # hc
    227    2   9   0.032700   23.4573   31.1977   46.6314    0.0000 # hc
    228    2  10  -0.252600   21.4505   30.3610   46.6439    0.0000 # c2
    229    2  11   0.126000   20.4645   30.5627   46.2264    0.0000 # ha
    230    2  10  -0.252600   21.5681   29.5000   47.6647    0.0000 # c2
    231    2  11   0.126000   20.6768   29.0150   48.0616    0.0000 # ha
    232    2   8   0.045000   22.8568   29.1126   48.3680    0.0000 # c3
    233    2   9   0.032700   23.7002   29.1198   47.6661    0.0000 # hc
    234    2   9   0.032700   22.7741   28.0824   48.7376    0.0000 # hc
    235    2   8   0.004900   23.1515   30.0604   49.5529    0.0000 # c3
    236    2   9   0.006900   22.3007   30.0446   50.2465    0.0000 # hc
    237    2   9   0.006900   23.2436   31.0899   49.1833    0.0000 # hc
    238    2   8  -0.004600   24.4404   29.6686   50.3125    0.0000 # c3
    239    2   9  -0.010700   25.2959   29.7043   49.6255    0.0000 # hc
    240    2   9  -0.010700   24.3540   28.6325   50.6652    0.0000 # hc
    241    2   8   0.039200   24.7064   30.6013   51.5184    0.0000 # c3
    242    2   9  -0.014900   23.8384   30.5836   52.1903    0.0000 # hc
    243    2   9  -0.014900   24.8192   31.6345   51.1648    0.0000 # hc
    244    2   8   0.007300   25.9704   30.1840   52.3044    0.0000 # c3
    245    2   9  -0.006200   26.8434   30.2256   51.6401    0.0000 # hc
    246    2   9  -0.006200   25.8617   29.1427   52.6316    0.0000 # hc
    247    2   8   0.039200   26.2171   31.0825   53.5391    0.0000 # c3
    248    2   9  -0.014900   25.3396   31.0447   54.1977    0.0000 # hc
    249    2   9  -0.014900   26.3319   32.1252   53.2152    0.0000 # hc
    250    2   8   0.054200   27.4729   30.6478   54.3322    0.0000 # c3
    251    2   9  -0.013800   28.3560   30.7040   53.6828    0.0000 # hc
    252    2   9  -0.013800   27.3683   29.6003   54.6432    0.0000 # hc
    253    2   8  -0.062500   27.7063   31.5246   55.5802    0.0000 # c3
    254    2   9   0.008800   28.6024   31.1932   56.1196    0.0000 # hc
    255    2   9   0.008800   27.8466   32.5757   55.2980    0.0000 # hc
    256    2   9   0.008800   26.8522   31.4619   56.2663    0.0000 # hc
    257    3   5   0.848000   30.0676   35.8752   34.8626    0.0000 # c
    258    3   6  -0.836200   30.4394   35.5507   33.7244    0.0000 # o
    259    3   7  -0.836200   29.2280   34.8873   35.3065    0.0000 # oh
    260    3   8  -0.040600   30.2303   37.1814   35.6390    0.0000 # c3
    261    3   9  -0.037200   30.7549   37.9098   35.0063    0.0000 # hc
    262    3   9  -0.037200   30.8683   36.9843   36.5106    0.0000 # hc
    263    3   8   0.036900   28.8765   37.7667   36.1071    0.0000 # c3
    264    3   9  -0.009500   28.3184   37.0043   36.6651    0.0000 # hc
    265    3   9  -0.009500   28.2738   38.0343   35.2299    0.0000 # hc
    266    3   8  -0.005800   29.0601   39.0070   37.0118    0.0000 # c3
    267    3   9  -0.012400   29.6097   39.7837   36.4643    0.0000 # hc
    268    3   9  -0.012400   29.6727   38.7307   37.8799    0.0000 # hc
    269    3   8   0.007300   27.7074   39.5789   37.5009    0.0000 # c3
    270    3   9  -0.006200   27.1175   38.7770   37.9636    0.0000 # hc
    271    3   9  -0.006200   27.1346   39.9476   36.6402    0.0000 # hc
    272    3   8  -0.004600   27.8979   40.7210   38.5255    0.0000 # c3
    273    3   9  -0.010700   28.5107   41.5154   38.0799    0.0000 # hc
    274    3   9  -0.010700   28.4512   40.3371   39.3925    0.0000 # hc
    275    3   8   0.004900   26.5512   41.3172   39.0001    0.0000 # c3
    276    3   9   0.006900   25.9020   40.5119   39.3663    0.0000 # hc
    277    3   9   0.006900   26.0363   41.7823   38.1496    0.0000 # hc
    278    3   8   0.045000   26.7529   42.3663   40.1182    0.0000 # c3
    279    3   9   0.032700   27.4175   43.1606   39.7545    0.0000 # hc
    280    3   9   0.032700   27.2687   41.9034   40.9691    0.0000 # hc
    281    3  10  -0.252600   25.4400   42.9794   40.5709    0.0000 # c2
    282    3  11   0.126000   25.1842   43.9145   40.0736    0.0000 # ha
    283    3  10  -0.252600   24.6278   42.4924   41.5194    0.0000 # c2
    284    3  11   0.126000   23.7187   43.0352   41.7766    0.0000 # ha
    285    3   8   0.045000   24.8247   41.2011   42.2951    0.0000 # c3
    286    3   9   0.032700   25.4479   40.4957   41.7324    0.0000 # hc
    287    3   9   0.032700   23.8527   40.7101   42.4318    0.0000 # hc
    288    3   8   0.004900   25.4619   41.4604   43.6781    0.0000 # c3
    289    3   9   0.006900   24.8360   42.1675   44.2379    0.0000 # hc
    290    3   9   0.006900   26.4431   41.9341   43.5450    0.0000 # hc
    291    3   8  -0.004600   25.6221   40.1554   44.4942    0.0000 # c3
    292    3   9  -0.010700   26.2670   39.4578   43.9439    0.0000 # hc
    293    3   9  -0.010700   24.6426   39.6711   44.6008    0.0000 # hc
    294    3   8   0.039200   26.2206   40.4126   45.8976    0.0000 # c3
    295    3   9  -0.014900   25.5831   41.1223   46.4409    0.0000 # hc
    296    3   9  -0.014900   27.2081   40.8809   45.7937    0.0000 # hc
    297    3   8   0.007300   26.3521   39.1080   46.7194    0.0000 # c3
    298    3   9  -0.006200   27.0003   38.4027   46.1831    0.0000 # hc
    299    3   9  -0.006200   25.3662   38.6334   46.8095    0.0000 # hc
    300    3   8   0.039200   26.9282   39.3640   48.1325    0.0000 # c3
    301    3   9  -0.014900   26.2828   40.0740   48.6661    0.0000 # hc
    302    3   9  -0.014900   27.9173   39.8322   48.0441    0.0000 # hc
    303    3   8   0.054200   27.0478   38.0595   48.9566    0.0000 # c3
    304    3   9  -0.013800   27.6977   37.3492   48.4294    0.0000 # hc
    305    3   9  -0.013800   26.0607   37.5875   49.0442    0.0000 # hc
    306    3   8  -0.062500   27.6147   38.3125   50.3696    0.0000 # c3
    307    3   9   0.008800   27.6872   37.3709   50.9281    0.0000 # hc
    308    3   9   0.008800   28.6173   38.7550   50.3143    0.0000 # hc
    309    3   9   0.008800   26.9662   38.9949   50.9336    0.0000 # hc
    310    4   5   0.848000   31.7390   28.4662   38.1001    0.0000 # c
    311    4   6  -0.836200   30.8099   29.2469   37.9167    0.0000 # o
    312    4   7  -0.836200   32.0051   27.9632   36.8519    0.0000 # oh
    313    4   8  -0.040600   31.8649   27.4550   39.2441    0.0000 # c3
    314    4   9  -0.037200   31.9906   26.4429   38.8326    0.0000 # hc
    315    4   9  -0.037200   30.9397   27.4538   39.8360    0.0000 # hc
    316    4   8   0.036900   33.0681   27.8000   40.1449    0.0000 # c3
    317    4   9  -0.009500   32.9057   28.7884   40.5880    0.0000 # hc
    318    4   9  -0.009500   33.9794   27.8619   39.5358    0.0000 # hc
    319    4   8  -0.005800   33.2745   26.7806   41.2868    0.0000 # c3
    320    4   9  -0.012400   33.5215   25.7967   40.8674    0.0000 # hc
    321    4   9  -0.012400   32.3371   26.6686   41.8472    0.0000 # hc
    322    4   8   0.007300   34.3972   27.2397   42.2471    0.0000 # c3
    323    4   9  -0.006200   34.1820   28.2604   42.5900    0.0000 # hc
    324    4   9  -0.006200   35.3506   27.2800   41.7043    0.0000 # hc
    325    4   8  -0.004600   34.5403   26.3149   43.4771    0.0000 # c3
    326    4   9  -0.010700   34.8282   25.3069   43.1513    0.0000 # hc
    327    4   9  -0.010700   33.5683   26.2271   43.9800    0.0000 # hc
    328    4   8   0.004900   35.5862   26.8601   44.4772    0.0000 # c3
    329    4   9   0.006900   35.3261   27.8926   44.7435    0.0000 # hc
    330    4   9   0.006900   36.5732   26.8949   43.9981    0.0000 # hc
    331    4   8   0.045000   35.6690   26.0087   45.7636    0.0000 # c3
    332    4   9   0.032700   36.0312   25.0031   45.5148    0.0000 # hc
    333    4   9   0.032700   34.6653   25.8776   46.1873    0.0000 # hc
    334    4  10  -0.252600   36.5916   26.6477   46.7853    0.0000 # c2
    335    4  11   0.126000   37.6243   26.3030   46.7436    0.0000 # ha
    336    4  10  -0.252600   36.2353   27.5631   47.6974    0.0000 # c2
    337    4  11   0.126000   36.9830   27.9504   48.3884    0.0000 # ha
    338    4   8   0.045000   34.8439   28.1464   47.8826    0.0000 # c3
    339    4   9   0.032700   34.2955   28.1628   46.9330    0.0000 # hc
    340    4   9   0.032700   34.9246   29.1910   48.2074    0.0000 # hc
    341    4   8   0.004900   34.0418   27.3417   48.9273    0.0000 # c3
    342    4   9   0.006900   34.6009   27.3259   49.8709    0.0000 # hc
    343    4   9   0.006900   33.9535   26.3000   48.5932    0.0000 # hc
    344    4   8  -0.004600   32.6295   27.9234   49.1749    0.0000 # c3
    345    4   9  -0.010700   32.0595   27.9204   48.2368    0.0000 # hc
    346    4   9  -0.010700   32.7129   28.9684   49.4977    0.0000 # hc
    347    4   8   0.039200   31.8682   27.1080   50.2445    0.0000 # c3
    348    4   9  -0.014900   32.4762   27.0505   51.1556    0.0000 # hc
    349    4   9  -0.014900   31.7306   26.0826   49.8802    0.0000 # hc
    350    4   8   0.007300   30.4898   27.7065   50.6016    0.0000 # c3
    351    4   9  -0.006200   29.8694   27.7697   49.6982    0.0000 # hc
    352    4   9  -0.006200   30.6214   28.7294   50.9781    0.0000 # hc
    353    4   8   0.039200   29.7677   26.8494   51.6693    0.0000 # c3
    354    4   9  -0.014900   30.4075   26.7597   52.5571    0.0000 # hc
    355    4   9  -0.014900   29.6169   25.8340   51.2797    0.0000 # hc
    356    4   8   0.054200   28.4039   27.4478   52.0827    0.0000 # c3
    357    4   9  -0.013800   27.7538   27.5315   51.2022    0.0000 # hc
    358    4   9  -0.013800   28.5541   28.4626   52.4708    0.0000 # hc
    359    4   8  -0.062500   27.6998   26.5923   53.1574    0.0000 # c3
    360    4   9   0.008800   26.7343   27.0338   53.4328    0.0000 # hc
    361    4   9   0.008800   27.5161   25.5756   52.7876    0.0000 # hc
    362    4   9   0.008800   28.3136   26.5242   54.0645    0.0000 # hc
    363    5   5   0.848000   26.3796   35.3888   35.0657    0.0000 # c
    364    5   6  -0.836200   26.6640   36.0015   34.0541    0.0000 # o
    365    5   7  -0.836200   26.4329   34.0750   34.7304    0.0000 # oh
    366    5   8  -0.040600   25.4283   35.7807   36.1979    0.0000 # c3
    367    5   9  -0.037200   25.9534   35.6357   37.1516    0.0000 # hc
    368    5   9  -0.037200   24.5680   35.0966   36.2029    0.0000 # hc
    369    5   8   0.036900   24.9427   37.2427   36.0787    0.0000 # c3
    370    5   9  -0.009500   24.3411   37.3565   35.1701    0.0000 # hc
    371    5   9  -0.009500   25.8094   37.9053   35.9702    0.0000 # hc
    372    5   8  -0.005800   24.1128   37.6837   37.3058    0.0000 # c3
    373    5   9  -0.012400   24.7130   37.5536   38.2158    0.0000 # hc
    374    5   9  -0.012400   23.2322   37.0357   37.4044    0.0000 # hc
    375    5   8   0.007300   23.6605   39.1585   37.1967    0.0000 # c3
    376    5   9  -0.006200   23.0335   39.2831   36.3041    0.0000 # hc
    377    5   9  -0.006200   24.5412   39.7992   37.0614    0.0000 # hc
    378    5   8  -0.004600   22.8767   39.6227   38.4474    0.0000 # c3
    379    5   9  -0.010700   23.4903   39.4618   39.3435    0.0000 # hc