19 oleic acid ligands coated two 1.6 nm Fe3O4 nanoparticles

2420 atoms
2822 bonds
6574 angles
15085 dihedrals
0 impropers

10 atom types
12 bond types
22 angle types
26 dihedral types

  0.0000  95.6621 xlo xhi
  0.0000  58.5717 ylo yhi
  0.0000  59.9276 zlo zhi

Masses

  1  55.845   # Fe
  2  55.845   # Fe
  3  15.999   # O
  4  12.010   # c
  5  16.000   # o
  6  16.000   # oh
  7  12.010   # c3
  8   1.008   # hc
  9  12.010   # c2
 10   1.008   # ha

Pair Coeffs

  1      0.0130       2.5943   # Fe
  2      0.0130       2.5943   # Fe
  3      0.0600       3.1181   # O
  4      0.0988       3.3152   # c
  5      0.1463       3.0481   # o
  6      0.0930       3.2429   # oh
  7      0.1078       3.3977   # c3
  8      0.0208       2.6002   # hc
  9      0.0988       3.3152   # c2
 10      0.0161       2.6255   # ha

Bond Coeffs

  1      50.000    2.058
  2      50.000    1.888
  3     652.600    1.218
  4      50.000    2.058
  5     383.100    1.351
  6      50.000    2.058
  7     243.200    1.524
  8     375.900    1.097
  9     232.500    1.538
 10     255.600    1.510
 11     392.200    1.088
 12     481.800    1.334

Angle Coeffs

  1      50.000  125.260
  2      50.000  90.000
  3      50.000  87.700
  4      50.000  109.470
  5      88.263  112.400
  6      88.263  112.400
  7      80.000  120.000
  8     115.700  122.100
  9      80.000  120.000
 10      80.000  120.000
 11      84.600  123.200
 12      85.800  112.730
 13      47.400  108.770
 14      39.000  107.580
 15      65.300  111.040
 16      46.800  109.800
 17      64.900  111.510
 18      65.500  111.560
 19      47.500  110.360
 20      46.400  115.680
 21      66.100  123.630
 22      50.400  120.430

Dihedral Coeffs

  1       0.000   1  4
  2       0.000  -1  4
  3       0.000   1  3
  4       0.000  -1  1
  5       2.300   1  2
  6       0.830  -1  1
  7       0.040   1  3
  8       0.000   1  2
  9       0.740  -1  1
 10       0.270   1  2
 11       0.550   1  3
 12       0.156  -1  3
 13       0.120  -1  3
 14       0.100  -1  3
 15       0.080  -1  3
 16       0.110  -1  1
 17       0.290   1  2
 18       0.130  -1  3
 19       0.000  -1  2
 20       1.470  -1  1
 21       0.360   1  3
 22       6.650   1  2
 23       0.400   1  1
 24       5.290   1  2
 25       1.100   1  2
 26       0.001   1  1

Atoms # full

      1    1   1   0.573214   25.3453   32.4157   33.8287 # Fe
      2    1   1   0.273214   28.3677   28.7070   32.0881 # Fe
      3    1   1   0.573214   30.6078   31.7777   35.4923 # Fe
      4    1   2   0.825410   27.6851   31.5799   35.9689 # Fe
      5    1   2   0.125410   28.5587   32.1574   30.8641 # Fe
      6    1   2   0.825410   29.8178   33.7340   33.5582 # Fe
      7    1   2   0.125410   26.0026   29.3745   34.7762 # Fe
      8    1   2   0.825410   31.9420   29.0425   36.1593 # Fe
      9    1   2   0.825410   27.1898   34.0449   32.2253 # Fe
     10    1   2   0.825410   23.2996   29.8843   33.1297 # Fe
     11    1   2   0.125410   28.6493   29.0890   35.0438 # Fe
     12    1   2   0.125410   28.1084   31.9558   34.0680 # Fe
     13    1   3  -0.400000   29.8410   29.6425   36.5445 # O
     14    1   3  -0.400000   24.5619   30.5268   34.4217 # O
     15    1   3  -0.400000   28.7605   32.8640   32.5928 # O
     16    1   3  -0.400000   29.3541   30.9352   34.8191 # O
     17    1   3   0.000000   27.2077   31.8165   32.0341 # O
     18    1   3   0.000000   29.6217   31.6442   32.7752 # O
     19    1   3  -0.400000   26.4343   31.3226   34.1450 # O
     20    1   3   0.000000   27.8866   29.7490   33.5692 # O
     21    1   3  -0.400000   27.4984   29.7188   36.2757 # O
     22    1   3   0.000000   30.6542   29.5298   34.4052 # O
     23    1   3   0.000000   29.2547   33.9359   31.5191 # O
     24    1   3   0.000000   25.5404   29.5994   32.6260 # O
     25    1   3  -0.400000   31.1542   32.3906   34.1173 # O
     26    1   3  -0.400000   31.6173   30.9524   36.1993 # O
     27    1   3  -0.400000   23.8671   31.6771   33.3612 # O
     28    1   3   0.000000   29.0310   30.0454   31.0224 # O
     29    1   3  -0.400000   26.0115   32.7496   32.4271 # O
     30    1   1   0.273214   27.5338   26.5590   34.1851 # Fe
     31    1   1   0.573214   25.3056   24.1697   32.6498 # Fe
     32    1   1   0.573214   29.7850   24.8226   35.0935 # Fe
     33    1   2   0.125410   30.7623   27.9823   33.6146 # Fe
     34    1   2   0.125410   29.3340   24.8207   29.5639 # Fe
     35    1   2   0.125410   24.8699   27.4690   32.5559 # Fe
     36    1   2   0.125410   30.1391   25.4550   32.2009 # Fe
     37    1   2   0.125410   26.9012   25.6073   30.6260 # Fe
     38    1   2   0.825410   28.0512   23.4577   32.5440 # Fe
     39    1   2   0.825410   24.2102   28.4246   34.2161 # Fe
     40    1   2   0.825410   29.7019   27.6675   36.6761 # Fe
     41    1   3   0.000000   28.0534   25.7336   32.5948 # O
     42    1   3  -0.400000   28.4256   24.7838   33.7969 # O
     43    1   3   0.000000   27.6734   23.8979   30.4201 # O
     44    1   3   0.000000   29.7873   23.8700   31.3990 # O
     45    1   3  -0.400000   26.9229   24.6734   32.9767 # O
     46    1   3   0.000000   28.9449   26.3121   30.5294 # O
     47    1   3   0.000000   29.1411   27.3542   34.7819 # O
     48    1   3  -0.400000   31.0899   27.2287   35.3326 # O
     49    1   3   0.000000   29.6868   27.6364   32.1717 # O
     50    1   3   0.000000   30.6711   25.8440   33.9583 # O
     51    1   3  -0.400000   29.1037   23.0329   29.7095 # O
     52    1   3   0.000000   27.0608   27.6195   31.4960 # O
     53    1   3  -0.400000   24.1950   28.9419   31.9412 # O
     54    1   3   0.000000   26.3439   27.9122   33.6700 # O
     55    1   3   0.000000   25.3865   25.5822   31.6400 # O
     56    1   1   0.273214   31.1294   30.7427   33.0566 # Fe
     57    1   1   0.273214   31.8032   32.8521   31.1687 # Fe
     58    1   1   0.573214   35.9643   29.4404   28.4971 # Fe
     59    1   1   0.573214   33.8904   28.9217   33.8651 # Fe
     60    1   2   0.825410   34.0727   32.1963   32.6879 # Fe
     61    1   2   0.125410   33.7834   29.6563   30.9907 # Fe
     62    1   2   0.825410   33.7061   34.2882   29.8874 # Fe
     63    1   2   0.125410   30.7062   29.8136   29.6948 # Fe
     64    1   2   0.825410   36.1056   30.0071   31.5560 # Fe
     65    1   2   0.825410   32.3801   33.4382   34.1195 # Fe
     66    1   2   0.825410   35.7172   32.1484   30.6031 # Fe
     67    1   2   0.825410   33.1907   30.9781   35.5164 # Fe
     68    1   3   0.000000   31.7708   30.1192   31.4617 # O
     69    1   3  -0.400000   35.7111   31.5374   32.6764 # O
     70    1   3  -0.400000   32.4405   31.5325   33.7559 # O
     71    1   3  -0.400000   34.1896   32.4762   29.3551 # O
     72    1   3   0.000000   33.4354   31.8257   31.0968 # O
     73    1   3  -0.400000   31.5145   33.7743   32.6541 # O
     74    1   3  -0.400000   35.0868   30.4336   29.8252 # O
     75    1   3  -0.400000   32.6733   29.7433   34.4766 # O
     76    1   3  -0.400000   34.2040   30.0248   32.6117 # O
     77    1   3   0.000000   32.6356   30.4296   29.5301 # O
     78    1   3   0.000000   30.5282   31.7669   30.7807 # O
     79    1   3  -0.400000   36.0993   30.0395   26.6986 # O
     80    1   3  -0.400000   31.8195   34.2795   30.0475 # O
     81    1   1   0.573214   31.1419   22.9995   31.4746 # Fe
     82    1   1   0.573214   34.2332   27.0220   30.8261 # Fe
     83    1   1   0.273214   32.3930   25.3774   29.6775 # Fe
     84    1   2   0.825410   34.3475   24.2048   31.4656 # Fe
     85    1   2   0.125410   32.7965   28.8193   28.5680 # Fe
     86    1   2   0.825410   34.8151   26.3408   27.4896 # Fe
     87    1   2   0.825410   30.8337   22.1737   28.9342 # Fe
     88    1   2   0.125410   32.7439   25.6497   33.4162 # Fe
     89    1   2   0.825410   35.3219   24.5300   29.1265 # Fe
     90    1   2   0.125410   31.4244   28.2696   31.7836 # Fe
     91    1   3  -0.400000   31.2352   23.3359   29.9310 # O
     92    1   3  -0.400000   35.1385   26.5464   29.4435 # O
     93    1   3   0.000000   32.7693   27.6808   33.1634 # O
     94    1   3  -0.400000   32.4653   24.2398   32.0634 # O
     95    1   3  -0.400000   33.7046   25.1021   28.0155 # O
     96    1   3  -0.400000   33.7072   24.2298   29.9664 # O
     97    1   3   0.000000   31.7676   26.2274   31.3076 # O
     98    1   3  -0.400000   33.5324   25.8020   31.6141 # O
     99    1   3  -0.400000   31.8770   22.7327   27.4442 # O
    100    1   3  -0.400000   35.1495   28.2125   32.0368 # O
    101    1   3   0.000000   30.9440   24.3775   28.9127 # O
    102    1   3   0.000000   34.6774   28.3807   28.2665 # O
    103    1   3   0.000000   30.9754   27.9917   29.8448 # O
    104    1   3   0.000000   33.0094   27.9086   30.4076 # O
    105    1   3   0.000000   32.9589   26.6090   28.6064 # O
    106    1   1   0.273214   25.9887   30.9100   31.3860 # Fe
    107    1   1   0.573214   25.5999   30.3988   24.8385 # Fe
    108    1   1   0.573214   23.2601   29.4566   30.1032 # Fe
    109    1   1   0.273214   27.2370   32.8731   28.8205 # Fe
    110    1   2   0.825410   24.5013   32.5872   29.0763 # Fe
    111    1   2   0.825410   26.8188   34.7514   26.2663 # Fe
    112    1   2   0.825410   23.2251   30.7179   26.8688 # Fe
    113    1   2   0.125410   28.5585   29.8222   29.3162 # Fe
    114    1   2   0.825410   24.9674   33.7225   31.2382 # Fe
    115    1   2   0.125410   25.3790   30.0384   28.1095 # Fe
    116    1   2   0.825410   24.5234   32.7376   26.5426 # Fe
    117    1   2   0.825410   22.9845   31.9882   31.6770 # Fe
    118    1   3   0.000000   26.5376   30.3065   29.8379 # O
    119    1   3   0.000000   25.9040   32.0588   28.0838 # O
    120    1   3  -0.400000   26.3625   32.9328   26.9444 # O
    121    1   3  -0.400000   24.7209   31.9173   30.8990 # O
    122    1   3  -0.400000   23.0993   32.4018   28.0842 # O
    123    1   3  -0.400000   25.1291   30.9551   26.3791 # O
    124    1   3  -0.400000   23.7319   30.3038   31.4488 # O
    125    1   3  -0.400000   26.6017   33.1397   30.5460 # O
    126    1   3  -0.400000   23.9627   30.5535   28.9334 # O
    127    1   3   0.000000   27.3011   30.6928   27.8799 # O
    128    1   3  -0.400000   27.6822   34.3876   28.1388 # O
    129    1   3   0.000000   28.4929   31.8826   29.0170 # O
    130    1   3  -0.400000   27.0448   31.3344   24.7793 # O
    131    1   1   0.573214   26.3714   23.1050   29.5129 # Fe
    132    1   1   0.573214   24.8343   27.5716   27.2878 # Fe
    133    1   1   0.273214   26.7994   25.7190   27.5707 # Fe
    134    1   2   0.125410   27.6257   29.2063   26.7638 # Fe
    135    1   2   0.825410   24.1282   24.7600   27.4298 # Fe
    136    1   2   0.825410   26.5494   27.1229   24.3576 # Fe
    137    1   2   0.825410   28.6221   22.1570   27.7534 # Fe
    138    1   2   0.125410   24.1103   25.9796   30.0010 # Fe
    139    1   2   0.825410   25.0001   25.3217   25.0428 # Fe
    140    1   2   0.125410   26.3329   28.4308   30.0859 # Fe
    141    1   3  -0.400000   26.9991   22.9438   27.9779 # O
    142    1   3  -0.400000   25.0383   27.2692   25.6469 # O
    143    1   3  -0.400000   25.5829   24.7921   26.7433 # O
    144    1   3  -0.400000   26.9818   25.7630   25.2423 # O
    145    1   3  -0.400000   25.2306   24.6538   29.0951 # O
    146    1   3   0.000000   24.4830   28.0363   30.2970 # O
    147    1   3   0.000000   26.2012   26.5417   29.1716 # O
    148    1   3  -0.400000   27.8408   23.1803   25.9702 # O
    149    1   3  -0.400000   24.6901   26.2621   28.1858 # O
    150    1   3   0.000000   26.0900   28.2510   27.8677 # O
    151    1   3   0.000000   28.0604   28.1411   28.6973 # O
    152    1   3   0.000000   26.4035   29.0828   25.3031 # O
    153    1   3   0.000000   27.2968   27.0113   26.4763 # O
    154    1   3   0.000000   28.2550   24.4992   28.1082 # O
    155    1   3  -0.400000   23.5046   28.8985   27.7903 # O
    156    1   1   0.573214   29.7726   35.2988   30.4097 # Fe
    157    1   1   0.273214   33.1596   31.4238   28.4195 # Fe
    158    1   1   0.273214   27.7477   31.8794   26.8579 # Fe
    159    1   1   0.273214   30.6085   29.7990   26.5442 # Fe
    160    1   2   0.125410   30.7309   32.1685   26.7463 # Fe
    161    1   2   0.825410   30.0587   31.5163   23.9443 # Fe
    162    1   2   0.825410   34.8788   31.2131   25.9248 # Fe
    163    1   2   0.825410   31.9216   34.5641   27.9198 # Fe
    164    1   2   0.825410   28.0665   31.7137   23.3154 # Fe
    165    1   2   0.825410   32.9999   31.3128   25.0294 # Fe
    166    1   2   0.825410   29.2862   34.9362   27.1395 # Fe
    167    1   2   0.125410   30.4419   32.5271   29.0347 # Fe
    168    1   3   0.000000   29.9427   34.4202   28.9130 # O
    169    1   3   0.000000   33.5424   30.5893   26.9165 # O
    170    1   3   0.000000   28.4286   31.0087   25.1402 # O
    171    1   3  -0.400000   32.1730   33.0355   26.3519 # O
    172    1   3   0.000000   29.1144   32.8003   27.4360 # O
    173    1   3   0.000000   31.9086   32.4042   27.9080 # O
    174    1   3  -0.400000   31.1785   32.8151   25.0778 # O
    175    1   3  -0.400000   28.6124   33.6847   25.8961 # O
    176    1   3  -0.400000   31.6417   30.3229   23.7006 # O
    177    1   3   0.000000   30.0463   30.6217   28.1057 # O
    178    1   3  -0.400000   32.4789   33.1360   29.0694 # O
    179    1   3   0.000000   30.9701   30.9116   25.6812 # O
    180    1   3  -0.400000   30.5084   33.8166   26.2498 # O
    181    1   1   0.273214   29.4729   27.1137   29.3059 # Fe
    182    1   1   0.573214   32.8686   24.1733   26.8871 # Fe
    183    1   1   0.573214   28.2563   24.7259   24.7795 # Fe
    184    1   1   0.573214   31.3873   28.4249   24.4302 # Fe
    185    1   2   0.825410   31.1433   25.4591   25.0388 # Fe
    186    1   2   0.125410   31.5743   27.0139   27.5219 # Fe
    187    1   2   0.125410   29.0884   27.2736   26.5599 # Fe
    188    1   2   0.125410   28.1729   28.9701   24.2162 # Fe
    189    1   2   0.125410   34.0175   28.4873   26.3216 # Fe
    190    1   2   0.125410   29.6962   24.4589   27.0304 # Fe
    191    1   3   0.000000   29.9786   26.3374   28.0041 # O
    192    1   3   0.000000   29.3331   28.9089   26.0600 # O
    193    1   3  -0.400000   29.3922   25.5452   25.5520 # O
    194    1   3  -0.400000   31.6767   25.1424   26.7185 # O
    195    1   3   0.000000   31.8865   28.6695   26.9627 # O
    196    1   3  -0.400000   28.7113   26.9632   24.7038 # O
    197    1   3  -0.400000   30.4420   22.8651   27.0298 # O
    198    1   3  -0.400000   32.9553   26.5293   26.3207 # O
    199    1   3   0.000000   30.8655   27.2117   25.4344 # O
    200    1   3  -0.400000   32.4227   29.3389   25.5565 # O
    201    1   3  -0.400000   34.8941   29.5089   24.8357 # O
    202    1   3  -0.400000   28.7387   29.9844   22.6532 # O
    203    1   3  -0.400000   30.0184   29.5164   24.5833 # O
    204    2   4   0.848000   28.8835   34.9839   35.3382 # c
    205    2   5  -0.836200   29.1517   35.3998   34.2230 # o
    206    2   6  -0.836200   29.0239   33.6369   35.3455 # oh
    207    2   7  -0.040600   27.9452   35.5912   36.3835 # c3
    208    2   8  -0.037200   28.3457   35.3809   37.3845 # hc
    209    2   8  -0.037200   26.9673   35.0924   36.3216 # hc
    210    2   7   0.036900   27.7832   37.1150   36.1910 # c3
    211    2   8  -0.009500   27.4109   37.3200   35.1805 # hc
    212    2   8  -0.009500   28.7673   37.5949   36.2701 # hc
    213    2   7  -0.005800   26.8253   37.7351   37.2337 # c3
    214    2   8  -0.012400   27.2247   37.5600   38.2411 # hc
    215    2   8  -0.012400   25.8501   37.2335   37.1823 # hc
    216    2   7   0.007300   26.6339   39.2531   37.0102 # c3
    217    2   8  -0.006200   26.1555   39.4223   36.0382 # hc
    218    2   8  -0.006200   27.6151   39.7439   36.9716 # hc
    219    2   7  -0.004600   25.7860   39.9041   38.1267 # c3
    220    2   8  -0.010700   26.3277   39.8245   39.0783 # hc
    221    2   8  -0.010700   24.8430   39.3548   38.2468 # hc
    222    2   7   0.004900   25.4753   41.3896   37.8268 # c3
    223    2   8   0.006900   24.7563   41.4501   36.9996 # hc
    224    2   8   0.006900   26.3890   41.9006   37.4962 # hc
    225    2   7   0.045000   24.9078   42.1236   39.0610 # c3
    226    2   8   0.032700   25.6879   42.1627   39.8320 # hc
    227    2   8   0.032700   24.0785   41.5400   39.4777 # hc
    228    2   9  -0.252600   24.4783   43.5405   38.7133 # c2
    229    2  10   0.126000   25.2366   44.1274   38.1958 # ha
    230    2   9  -0.252600   23.2832   44.0923   38.9686 # c2
    231    2  10   0.126000   23.0909   45.1206   38.6641 # ha
    232    2   7   0.045000   22.1321   43.4302   39.7052 # c3
    233    2   8   0.032700   21.9630   42.4184   39.3161 # hc
    234    2   8   0.032700   21.2077   43.9889   39.5129 # hc
    235    2   7   0.004900   22.3878   43.3823   41.2306 # c3
    236    2   8   0.006900   22.4839   44.4068   41.6129 # hc
    237    2   8   0.006900   23.3424   42.8788   41.4284 # hc
    238    2   7  -0.004600   21.2613   42.6495   41.9946 # c3
    239    2   8  -0.010700   21.1608   41.6290   41.6027 # hc
    240    2   8  -0.010700   20.3066   43.1616   41.8174 # hc
    241    2   7   0.039200   21.5389   42.5880   43.5152 # c3
    242    2   8  -0.014900   21.6321   43.6079   43.9106 # hc
    243    2   8  -0.014900   22.4998   42.0865   43.6895 # hc
    244    2   7   0.007300   20.4235   41.8388   44.2819 # c3
    245    2   8  -0.006200   20.3254   40.8216   43.8809 # hc
    246    2   8  -0.006200   19.4633   42.3443   44.1158 # hc
    247    2   7   0.039200   20.7123   41.7670   45.8005 # c3
    248    2   8  -0.014900   20.8081   42.7842   46.2021 # hc
    249    2   8  -0.014900   21.6746   41.2647   45.9649 # hc
    250    2   7   0.054200   19.6018   41.0129   46.5702 # c3
    251    2   8  -0.013800   19.5028   39.9954   46.1706 # hc
    252    2   8  -0.013800   18.6386   41.5151   46.4131 # hc
    253    2   7  -0.062500   19.8926   40.9362   48.0840 # c3
    254    2   8   0.008800   19.0897   40.3971   48.6022 # hc
    255    2   8   0.008800   20.8360   40.4087   48.2739 # hc
    256    2   8   0.008800   19.9652   41.9412   48.5188 # hc
    257    3   4   0.848000   26.3555   35.9446   32.6164 # c
    258    3   5  -0.836200   26.4711   35.0198   33.4224 # o
    259    3   6  -0.836200   26.7144   35.4117   31.3883 # oh
    260    3   7  -0.040600   25.0972   36.8132   32.5394 # c3
    261    3   8  -0.037200   24.2448   36.1608   32.2973 # hc
    262    3   8  -0.037200   25.1933   37.5355   31.7177 # hc
    263    3   7   0.036900   24.8476   37.5588   33.8719 # c3
    264    3   8  -0.009500   25.5799   38.3692   33.9723 # hc
    265    3   8  -0.009500   25.0117   36.8674   34.7082 # hc
    266    3   7  -0.005800   23.4153   38.1294   33.9893 # c3
    267    3   8  -0.012400   22.6948   37.3098   33.8677 # hc
    268    3   8  -0.012400   23.2302   38.8447   33.1776 # hc
    269    3   7   0.007300   23.1855   38.8189   35.3586 # c3
    270    3   8  -0.006200   23.7807   39.7392   35.4094 # hc
    271    3   8  -0.006200   23.5434   38.1598   36.1603 # hc
    272    3   7  -0.004600   21.6959   39.1504   35.6107 # c3
    273    3   8  -0.010700   21.1033   38.2330   35.4986 # hc
    274    3   8  -0.010700   21.3402   39.8566   34.8494 # hc
    275    3   7   0.004900   21.4554   39.7420   37.0229 # c3
    276    3   8   0.006900   21.9370   40.7255   37.1012 # hc
    277    3   8   0.006900   21.9250   39.0942   37.7745 # hc
    278    3   7   0.045000   19.9476   39.8719   37.3413 # c3
    279    3   8   0.032700   19.4707   38.8931   37.2037 # hc
    280    3   8   0.032700   19.4790   40.5479   36.6163 # hc
    281    3   9  -0.252600   19.7095   40.3310   38.7706 # c2
    282    3  10   0.126000   19.9830   39.5976   39.5285 # ha
    283    3   9  -0.252600   19.1918   41.5059   39.1563 # c2
    284    3  10   0.126000   19.0513   41.7054   40.2177 # ha
    285    3   7   0.045000   18.7551   42.6413   38.2482 # c3
    286    3   8   0.032700   19.4265   42.7258   37.3843 # hc
    287    3   8   0.032700   18.8360   43.5918   38.7910 # hc
    288    3   7   0.004900   17.2977   42.4519   37.7705 # c3
    289    3   8   0.006900   16.6389   42.3777   38.6456 # hc
    290    3   8   0.006900   17.2114   41.5041   37.2239 # hc
    291    3   7  -0.004600   16.8228   43.6134   36.8664 # c3
    292    3   8  -0.010700   17.4711   43.6769   35.9826 # hc
    293    3   8  -0.010700   16.9238   44.5625   37.4089 # hc
    294    3   7   0.039200   15.3534   43.4325   36.4169 # c3
    295    3   8  -0.014900   14.7089   43.3559   37.3023 # hc
    296    3   8  -0.014900   15.2547   42.4887   35.8648 # hc
    297    3   7   0.007300   14.8668   44.6016   35.5283 # c3
    298    3   8  -0.006200   15.5049   44.6735   34.6379 # hc
    299    3   8  -0.006200   14.9732   45.5461   36.0777 # hc
    300    3   7   0.039200   13.3927   44.4241   35.0926 # c3
    301    3   8  -0.014900   12.7560   44.3479   35.9838 # hc
    302    3   8  -0.014900   13.2868   43.4811   34.5405 # hc
    303    3   7   0.054200   12.9011   45.5953   34.2090 # c3
    304    3   8  -0.013800   13.5326   45.6719   33.3145 # hc
    305    3   8  -0.013800   13.0054   46.5400   34.7581 # hc
    306    3   7  -0.062500   11.4298   45.4203   33.7772 # c3
    307    3   8   0.008800   11.1102   46.2641   33.1530 # hc
    308    3   8   0.008800   11.3005   44.4979   33.1971 # hc
    309    3   8   0.008800   10.7694   45.3736   34.6524 # hc
    310    4   4   0.848000   21.2835   29.4260   33.4143 # c
    311    4   5  -0.836200   22.2368   28.7987   33.8896 # o
    312    4   6  -0.836200   21.8043   30.4484   32.6604 # oh
    313    4   7  -0.040600   19.8671   29.5884   33.9677 # c3
    314    4   8  -0.037200   19.1540   29.3711   33.1613 # hc
    315    4   8  -0.037200   19.7112   30.6354   34.2616 # hc
    316    4   7   0.036900   19.6065   28.6540   35.1721 # c3
    317    4   8  -0.009500   20.3034   28.9004   35.9838 # hc
    318    4   8  -0.009500   19.8135   27.6179   34.8736 # hc
    319    4   7  -0.005800   18.1533   28.7538   35.6919 # c3
    320    4   8  -0.012400   17.4576   28.5501   34.8675 # hc
    321    4   8  -0.012400   17.9564   29.7777   36.0353 # hc
    322    4   7   0.007300   17.8865   27.7579   36.8459 # c3
    323    4   8  -0.006200   18.5693   27.9716   37.6786 # hc
    324    4   8  -0.006200   18.1087   26.7390   36.5026 # hc
    325    4   7  -0.004600   16.4249   27.8193   37.3498 # c3
    326    4   8  -0.010700   15.7417   27.6454   36.5083 # hc
    327    4   8  -0.010700   16.2125   28.8250   37.7353 # hc
    328    4   7   0.004900   16.1522   26.7721   38.4559 # c3
    329    4   8   0.006900   16.8278   26.9492   39.3027 # hc
    330    4   8   0.006900   16.3775   25.7690   38.0711 # hc
    331    4   7   0.045000   14.6886   26.8074   38.9510 # c3
    332    4   8   0.032700   14.0118   26.6519   38.1010 # hc
    333    4   8   0.032700   14.4573   27.8031   39.3497 # hc
    334    4   9  -0.252600   14.4355   25.7359   39.9972 # c2
    335    4  10   0.126000   14.1260   24.7733   39.5911 # ha
    336    4   9  -0.252600   14.5450   25.8863   41.3248 # c2
    337    4  10   0.126000   14.3266   25.0435   41.9803 # ha
    338    4   7   0.045000   14.9602   27.1538   42.0512 # c3
    339    4   8   0.032700   15.6482   27.7462   41.4354 # hc
    340    4   8   0.032700   15.5136   26.8877   42.9610 # hc
    341    4   7   0.004900   13.7327   28.0125   42.4313 # c3
    342    4   8   0.006900   13.0593   27.4205   43.0647 # hc
    343    4   8   0.006900   13.1733   28.2711   41.5230 # hc
    344    4   7  -0.004600   14.1342   29.3082   43.1751 # c3
    345    4   8  -0.010700   14.8020   29.9026   42.5379 # hc
    346    4   8  -0.010700   14.6993   29.0489   44.0799 # hc
    347    4   7   0.039200   12.9019   30.1591   43.5646 # c3
    348    4   8  -0.014900   12.2313   29.5615   44.1958 # hc
    349    4   8  -0.014900   12.3406   30.4233   42.6589 # hc
    350    4   7   0.007300   13.3003   31.4505   44.3178 # c3
    351    4   8  -0.006200   13.9683   32.0501   43.6857 # hc
    352    4   8  -0.006200   13.8643   31.1861   45.2218 # hc
    353    4   7   0.039200   12.0667   32.2977   44.7113 # c3
    354    4   8  -0.014900   11.3978   31.6970   45.3413 # hc
    355    4   8  -0.014900   11.5039   32.5638   43.8070 # hc
    356    4   7   0.054200   12.4639   33.5878   45.4678 # c3
    357    4   8  -0.013800   13.1311   34.1923   44.8398 # hc
    358    4   8  -0.013800   13.0255   33.3255   46.3736 # hc
    359    4   7  -0.062500   11.2345   34.4337   45.8613 # c3
    360    4   8   0.008800   11.5472   35.3399   46.3950 # hc
    361    4   8   0.008800   10.6700   34.7392   44.9712 # hc
    362    4   8   0.008800   10.5636   33.8651   46.5177 # hc
    363    5   4   0.848000   27.5988   21.4447   33.4093 # c
    364    5   5  -0.836200   28.6338   22.0791   33.6010 # o
    365    5   6  -0.836200   26.7641   22.2174   32.6424 # oh
    366    5   7  -0.040600   26.8947   20.5317   34.4145 # c3
    367    5   8  -0.037200   25.9418   20.9918   34.7132 # hc
    368    5   8  -0.037200   27.5080   20.4367   35.3209 # hc
    369    5   7   0.036900   26.6324   19.1378   33.8027 # c3
    370    5   8  -0.009500   27.5895   18.6280   33.6326 # hc
    371    5   8  -0.009500   26.1530   19.2568   32.8223 # hc
    372    5   7  -0.005800   25.7253   18.2694   34.7062 # c3
    373    5   8  -0.012400   24.7639   18.7806   34.8467 # hc
    374    5   8  -0.012400   26.1828   18.1675   35.6989 # hc
    375    5   7   0.007300   25.4769   16.8644   34.1071 # c3
    376    5   8  -0.006200   26.4239   16.3102   34.0728 # hc
    377    5   8  -0.006200   25.1252   16.9650   33.0720 # hc
    378    5   7  -0.004600   24.4333   16.0636   34.9220 # c3
    379    5   8  -0.010700   23.4792   16.6069   34.9181 # hc
    380    5   8  -0.010700   24.7583   15.9933   35.9682 # hc
    381    5   7   0.004900   24.2167   14.6400   34.3557 # c3
    382    5   8   0.006900   25.1467   14.0647   34.4517 # hc
    383    5   8   0.006900   23.9851   14.7004   33.2843 # hc
    384    5   7   0.045000   23.0729   13.8948   35.0797 # c3
    385    5   8   0.032700   22.1342   14.4443   34.9334 # hc
    386    5   8   0.032700   23.2625   13.8934   36.1600 # hc
    387    5   9  -0.252600   22.9140   12.4791   34.5512 # c2
    388    5  10   0.126000   22.3611   12.4074   33.6151 # ha
    389    5   9  -0.252600   23.3779   11.3621   35.1298 # c2
    390    5  10   0.126000   23.1983   10.3975   34.6561 # ha
    391    5   7   0.045000   24.1673   11.2880   36.4254 # c3
    392    5   8   0.032700   24.8204   12.1639   36.5279 # hc
    393    5   8   0.032700   24.8303   10.4136   36.4003 # hc
    394    5   7   0.004900   23.2301   11.1860   37.6510 # c3
    395    5   8   0.006900   22.6119   10.2835   37.5595 # hc
    396    5   8   0.006900   22.5444   12.0430   37.6584 # hc
    397    5   7  -0.004600   24.0114   11.1437   38.9855 # c3
    398    5   8  -0.010700   24.6339   12.0438   39.0722 # hc
    399    5   8  -0.010700   24.6905   10.2811   38.9840 # hc
    400    5   7   0.039200   23.0655   11.0534   40.2070 # c3
    401    5   8  -0.014900   22.4429   10.1533   40.1201 # hc
    402    5   8  -0.014900   22.3858   11.9155   40.2056 # hc
    403    5   7   0.007300   23.8415   11.0141   41.5450 # c3
    404    5   8  -0.006200   24.4661   11.9128   41.6309 # hc
    405    5   8  -0.006200   24.5185   10.1499   41.5488 # hc
    406    5   7   0.039200   22.8921   10.9296   42.7641 # c3
    407    5   8  -0.014900   22.2670   10.0312   42.6780 # hc
    408    5   8  -0.014900   22.2151   11.7939   42.7594 # hc
    409    5   7   0.054200   23.6658   10.8906   44.1037 # c3
    410    5   8  -0.013800   24.2915   11.7879   44.1938 # hc
    411    5   8  -0.013800   24.3413   10.0255   44.1138 # hc
    412    5   7  -0.062500   22.7195   10.8088   45.3202 # c3
    413    5   8   0.008800   23.2958   10.7823   46.2535 # hc
    414    5   8   0.008800   22.0527   11.6796   45.3551 # hc
    415    5   8   0.008800   22.1023    9.9026   45.2741 # hc
    416    6   4   0.848000   29.2669   26.3092   38.3429 # c
    417    6   5  -0.836200   30.3862   26.7179   38.0287 # o
    418    6   6  -0.836200   28.3589   26.7760   37.4205 # oh
    419    6   7  -0.040600   28.7357   26.1273   39.7663 # c3
    420    6   8  -0.037200   27.7945   26.6827   39.8832 # hc
    421    6   8  -0.037200   29.4549   26.5549   40.4782 # hc
    422    6   7   0.036900   28.4980   24.6362   40.0868 # c3
    423    6   8  -0.009500   29.4414   24.0875   39.9678 # hc
    424    6   8  -0.009500   27.7863   24.2140   39.3654 # hc
    425    6   7  -0.005800   27.9597   24.4375   41.5235 # c3
    426    6   8  -0.012400   26.9832   24.9303   41.6175 # hc
    427    6   8  -0.012400   28.6363   24.9280   42.2354 # hc
    428    6   7   0.007300   27.8228   22.9434   41.9004 # c3
    429    6   8  -0.006200   28.8019   22.4553   41.8094 # hc
    430    6   8  -0.006200   27.1471   22.4454   41.1928 # hc
    431    6   7  -0.004600   27.2884   22.7609   43.3411 # c3
    432    6   8  -0.010700   26.2822   23.1940   43.4143 # hc
    433    6   8  -0.010700   27.9284   23.3164   44.0391 # hc
    434    6   7   0.004900   27.2434   21.2745   43.7667 # c3
    435    6   8   0.006900   28.2516   20.8464   43.6952 # hc
    436    6   8   0.006900   26.6053   20.7102   43.0744 # hc
    437    6   7   0.045000   26.7139   21.1020   45.2088 # c3
    438    6   8   0.032700   25.6778   21.4600   45.2616 # hc
    439    6   8   0.032700   27.2918   21.7380   45.8909 # hc
    440    6   9  -0.252600   26.7735   19.6519   45.6566 # c2
    441    6  10   0.126000   25.8792   19.0714   45.4323 # ha