LAMMPS (3 Aug 2022)
OMP_NUM_THREADS environment is not set. Defaulting to 1 thread. (src/comm.cpp:98)
  using 1 OpenMP thread(s) per MPI task
# Magnetic interaction simulation of 2 MNPs using MSPIN package
units				real
dimension			3
boundary 			p p p

atom_style		    full
newton              on

bond_style          harmonic
angle_style         harmonic
dihedral_style      harmonic
pair_style          lj/cut/coul/long 8.0
pair_modify         mix arithmetic
kspace_style        pppm 1e-4

read_data		    data.mspin
Reading data file ...
  orthogonal box = (0 0 0) to (95.6621 58.5717 59.9276)
  1 by 1 by 1 MPI processor grid
  reading atoms ...
  2420 atoms
  scanning bonds ...
  4 = max bonds/atom
  scanning angles ...
  21 = max angles/atom
  scanning dihedrals ...
  75 = max dihedrals/atom
  reading bonds ...
  2822 bonds
  reading angles ...
  6574 angles
  reading dihedrals ...
  15085 dihedrals
Finding 1-2 1-3 1-4 neighbors ...
  special bond factors lj:    0        0        0       
  special bond factors coul:  0        0        0       
     7 = max # of 1-2 neighbors
    19 = max # of 1-3 neighbors
    98 = max # of 1-4 neighbors
    52 = max # of special neighbors
  special bonds CPU = 0.002 seconds
  read_data CPU = 0.028 seconds
special_bonds       amber
Finding 1-2 1-3 1-4 neighbors ...
  special bond factors lj:    0        0        0.5     
  special bond factors coul:  0        0        0.8333333333333334
     7 = max # of 1-2 neighbors
    19 = max # of 1-3 neighbors
    98 = max # of 1-4 neighbors
    52 = max # of special neighbors
  special bonds CPU = 0.001 seconds

reset_timestep		0
timestep 			2.0

velocity            all create 300.0 908070
run         0
WARNING: No fixes with time integration, atoms won't move (src/verlet.cpp:60)
PPPM initialization ...
  using 12-bit tables for long-range coulomb (src/kspace.cpp:342)
  G vector (1/distance) = 0.25251883
  grid = 30 20 20
  stencil order = 5
  estimated absolute RMS force accuracy = 0.033221382
  estimated relative force accuracy = 0.0001000452
  using double precision FFTW3
  3d grid and FFT values/proc = 21875 12000
Generated 45 of 45 mixed pair_coeff terms from arithmetic mixing rule
Neighbor list info ...
  update: every = 1 steps, delay = 10 steps, check = yes
  max neighbors/atom: 2000, page size: 100000
  master list distance cutoff = 10
  ghost atom cutoff = 10
  binsize = 5, bins = 20 12 12
  1 neighbor lists, perpetual/occasional/extra = 1 0 0
  (1) pair lj/cut/coul/long, perpetual
      attributes: half, newton on
      pair build: half/bin/newton
      stencil: half/bin/3d
      bin: standard
Per MPI rank memory allocation (min/avg/max) = 41.5 | 41.5 | 41.5 Mbytes
   Step          Temp          E_pair         E_mol          TotEng         Press     
         0   300           -13091.057      28105.485      17177.602      302.82615    
Loop time of 7.81e-07 on 1 procs for 0 steps with 2420 atoms

256.1% CPU use with 1 MPI tasks x 1 OpenMP threads

MPI task timing breakdown:
Section |  min time  |  avg time  |  max time  |%varavg| %total
---------------------------------------------------------------
Pair    | 0          | 0          | 0          |   0.0 |  0.00
Bond    | 0          | 0          | 0          |   0.0 |  0.00
Kspace  | 0          | 0          | 0          |   0.0 |  0.00
Neigh   | 0          | 0          | 0          |   0.0 |  0.00
Comm    | 0          | 0          | 0          |   0.0 |  0.00
Output  | 0          | 0          | 0          |   0.0 |  0.00
Modify  | 0          | 0          | 0          |   0.0 |  0.00
Other   |            | 7.81e-07   |            |       |100.00

Nlocal:           2420 ave        2420 max        2420 min
Histogram: 1 0 0 0 0 0 0 0 0 0
Nghost:            237 ave         237 max         237 min
Histogram: 1 0 0 0 0 0 0 0 0 0
Neighs:         140923 ave      140923 max      140923 min
Histogram: 1 0 0 0 0 0 0 0 0 0

Total # of neighbors = 140923
Ave neighs/atom = 58.232645
Ave special neighs/atom = 15.033058
Neighbor list builds = 0
Dangerous builds = 0
velocity            all scale 300.0

group 	            core    molecule 1 21
406 atoms in group core
group 	            ligs    subtract all core
2014 atoms in group ligs

fix                 qm      all property/atom d_qm
set                 atom    79      d_qm     0.0353   # NP 1
Setting atom values ...
  1 settings made for d_qm
set                 atom    140     d_qm    -0.0353   # NP 1
Setting atom values ...
  1 settings made for d_qm
set                 atom    1347    d_qm     0.0353   # NP 2
Setting atom values ...
  1 settings made for d_qm
set                 atom    1283    d_qm    -0.0353   # NP 2
Setting atom values ...
  1 settings made for d_qm

delete_bonds        core 		multi remove special
System init for delete_bonds ...
PPPM initialization ...
  using 12-bit tables for long-range coulomb (src/kspace.cpp:342)
  G vector (1/distance) = 0.25251883
  grid = 30 20 20
  stencil order = 5
  estimated absolute RMS force accuracy = 0.033221382
  estimated relative force accuracy = 0.0001000452
  using double precision FFTW3
  3d grid and FFT values/proc = 21875 12000
Generated 45 of 45 mixed pair_coeff terms from arithmetic mixing rule
Deleting bonds ...
  2052 total bonds, 2052 turned on, 0 turned off
  4176 total angles, 4176 turned on, 0 turned off
  7693 total dihedrals, 7693 turned on, 0 turned off
  0 total impropers, 0 turned on, 0 turned off
Finding 1-2 1-3 1-4 neighbors ...
  special bond factors lj:    0        0        0.5     
  special bond factors coul:  0        0        0.8333333333333334
     4 = max # of 1-2 neighbors
     6 = max # of 1-3 neighbors
    12 = max # of 1-4 neighbors
    52 = max # of special neighbors
  special bonds CPU = 0.001 seconds
fix				    fligs		ligs nvt temp 300 300 200
fix			        fcore       core rigid/nvt/mspin molecule temp 300.0 300.0 200                                         bfield 0.0 0.0 1.0 uniform alpha 1.0 beta 50.0 dpcut 160.0
  2 rigid bodies with 406 atoms

MSPIN initialization ...
  implementing magnetic dipolar interactions with cutoff 160.000000 A
  dipolar interaction scaling factor alpha 1.000000
  uniform external B field 0.000000 0.000000 1.000000 T applied
  dipole moment scaling factor beta 50.000000

fix_modify 	        fcore	    energy yes
compute			    engy		core mspin/energy fcore
compute			    dist		core mspin/distance fcore 1 2

thermo 				10
thermo_style 	    custom 		step ecoul evdwl pe ke etotal temp c_engy[1] c_engy[2] c_dist[1]
#dump	            dvmd        all custom 100 mspin.lammpstrj id mol type x y z ix iy iz

run			1000

CITE-CITE-CITE-CITE-CITE-CITE-CITE-CITE-CITE-CITE-CITE-CITE-CITE

Your simulation uses code contributions which should be cited:

- mspin package: doi:10.1021/acs.jctc.1c01253

@Article{Mahmood22,
 author = {A.U. Mahmood and Y.G. Yingling},
 title = {All-Atom Simulation Method for Zeeman Alignment and Dipolar Assembly of Magnetic Nanoparticles},
 journal = {Journal of Chemical Theory and Computation},
 year =    2022,
 volume =  18(5),
 pages =   {3122-3135}
}

CITE-CITE-CITE-CITE-CITE-CITE-CITE-CITE-CITE-CITE-CITE-CITE-CITE

PPPM initialization ...
  using 12-bit tables for long-range coulomb (src/kspace.cpp:342)
  G vector (1/distance) = 0.25251883
  grid = 30 20 20
  stencil order = 5
  estimated absolute RMS force accuracy = 0.033221382
  estimated relative force accuracy = 0.0001000452
  using double precision FFTW3
  3d grid and FFT values/proc = 21875 12000
Generated 45 of 45 mixed pair_coeff terms from arithmetic mixing rule

MSPIN magnetic dipoles ...
Per MPI rank memory allocation (min/avg/max) = 42.88 | 42.88 | 42.88 Mbytes
   Step         E_coul         E_vdwl         PotEng         KinEng         TotEng          Temp        c_engy[1]      c_engy[2]      c_dist[1]   
         0   1090.1016      65077.596      69905.632      1813.5199      71719.152      301.63527      0.10651833     3.3618116      39.020991    
        10   1093.028       64924.071      69809.11       1855.1369      71664.247      308.55725      0.10602391     3.3691916      39.019488    
        20   1120.7626      64919.822      69430.701      2214.3353      71645.036      368.30125      0.10620868     3.3748723      39.018822    
        30   1110.9619      64978.829      69300.079      2377.9203      71677.999      395.50966      0.10674977     3.3812556      39.019266    
        40   1116.4286      65045.648      69201.096      2514.1095      71715.206      418.16145      0.10712607     3.3881968      39.019787    
        50   1081.2211      65085.31       69274.769      2502.1025      71776.871      416.16437      0.10723023     3.3946025      39.019144    
        60   1091.026       65033.328      69512.298      2318.0773      71830.375      385.55622      0.10713915     3.4002568      39.018981    
        70   1116.4527      64978.863      69433.732      2276.7657      71710.498      378.68504      0.10706234     3.4072651      39.018735    
        80   1118.382       64952.173      69203.392      2387.3507      71590.742      397.07818      0.1072379      3.4144254      39.017966    
        90   1110.8682      64949.097      69227.574      2461.4837      71689.058      409.40841      0.10762707     3.4190062      39.017548    
       100   1085.692       64995.026      69333.44       2352.1342      71685.574      391.22077      0.10788656     3.4229626      39.015376    
       110   1079.4551      65032.521      69148.179      2403.0949      71551.274      399.69684      0.10797514     3.4272349      39.01224     
       120   1087.5123      65057.966      69161.902      2387.7773      71549.68       397.14913      0.10833692     3.4295008      39.012015    
       130   1111.0932      65078.774      69314.667      2421.4542      71736.121      402.75047      0.10928656     3.4301342      39.013926    
       140   1114.3714      65087.92       69471.255      2366.0551      71837.31       393.53618      0.11020863     3.4328667      39.016207    
       150   1116.6693      65066.18       69432.23       2330.2699      71762.5        387.58416      0.11032363     3.4389765      39.018649    
       160   1097.9129      65074.701      69231.2        2336.2808      71567.481      388.58394      0.10989284     3.4479528      39.02193     
       170   1095.6631      65106.999      69278.105      2208.1443      71486.249      367.27151      0.10989849     3.455846       39.02448     
       180   1083.3577      65096.068      69388.248      2241.4035      71629.652      372.80338      0.1107416      3.4606883      39.023857    
       190   1110.1559      65088.525      69572.611      2131.1032      71703.714      354.45759      0.11193957     3.4671804      39.022072    
       200   1113.0128      65066.08       69559.778      2122.1406      71681.918      352.96688      0.11267971     3.4760258      39.022983    
       210   1139.1755      65038.691      69435.54       2090.4286      71525.968      347.69236      0.1129315      3.483396       39.028433    
       220   1129.5116      65044.183      69144.301      2106.455       71250.756      350.35796      0.11321712     3.4867481      39.036479    
       230   1113.4649      65046.742      69016.487      2114.1643      71130.652      351.64022      0.11377205     3.4874469      39.043943    
       240   1105.3726      65036.876      68968.725      2072.8676      71041.592      344.7715       0.11426953     3.4885365      39.049888    
       250   1100.7068      65087.577      68999.781      2096.6082      71096.389      348.72018      0.11437463     3.4923051      39.054409    
       260   1093.5545      65117.188      69083.093      2097.212       71180.305      348.8206       0.11406852     3.4955444      39.057583    
       270   1087.6529      65092.002      69006.873      2104.7315      71111.605      350.0713       0.11351287     3.4967813      39.058263    
       280   1092.2792      65082.12       68938.748      2054.8093      70993.557      341.76793      0.11280087     3.4954847      39.05594     
       290   1094.7859      65079.85       68886.885      2001.1815      70888.066      332.84826      0.11195485     3.4930817      39.05268     
       300   1090.308       65091.71       68822.353      1939.1899      70761.543      322.53745      0.11116754     3.4914552      39.050987    
       310   1079.8662      65064.213      68718.351      2046.3892      70764.74       340.36747      0.11076216     3.4917286      39.050803    
       320   1085.153       65084.961      68863.798      1957.9716      70821.77       325.66133      0.11059068     3.4905488      39.051022    
       330   1088.1193      65063.159      68850.941      2010.453       70861.394      334.39034      0.11064167     3.4837987      39.04955     
       340   1097.1609      65075.039      68724.747      1972.6077      70697.354      328.09568      0.11103603     3.4757166      39.045943    
       350   1108.236       65066.928      68535.819      1936.67        70472.489      322.11832      0.1113553      3.4739405      39.040509    
       360   1104.7353      65038.984      68629.443      1925.0669      70554.51       320.18842      0.11108025     3.4791441      39.036618    
       370   1096.7201      65049.719      68693.12       1894.037       70587.157      315.02735      0.11025877     3.4871111      39.036351    
       380   1097.4577      65058.82       68633.831      1944.3034      70578.135      323.38794      0.10952458     3.4972343      39.033174    
       390   1114.1223      65071.225      68633.905      1903.7194      70537.624      316.63778      0.10931411     3.504768       39.02416     
       400   1113.9636      65080.323      68587.577      1873.8099      70461.387      311.66306      0.10924685     3.5045229      39.016001    
       410   1124.7268      65047.086      68467.112      1878.8406      70345.952      312.49979      0.10879442     3.5009003      39.015387    
       420   1121.5904      65024.923      68354.578      1891.0844      70245.662      314.53626      0.10827157     3.5005605      39.020921    
       430   1124.2963      65007.667      68321.25       1891.3735      70212.623      314.58435      0.10788509     3.5036528      39.025675    
       440   1108.7361      65017.101      68305.288      1875.0562      70180.345      311.87034      0.10756873     3.5053847      39.024968    
       450   1110.3222      65055.757      68432.339      1805.105       70237.444      300.23566      0.10726955     3.5010584      39.023384    
       460   1092.7738      65067.76       68562.358      1784.9113      70347.27       296.87692      0.1067912      3.4909839      39.025793    
       470   1101.4018      65014.647      68473.329      1830.5757      70303.904      304.47209      0.10626175     3.4783567      39.031188    
       480   1107.6559      64997.141      68354.898      1807.8932      70162.791      300.6994       0.1062563      3.4685869      39.035973    
       490   1109.9514      65004.224      68320.87       1795.2753      70116.146      298.60073      0.10655983     3.4651416      39.038361    
       500   1107.971       65022.643      68415.085      1804.9351      70220.02       300.20741      0.10645496     3.4648636      39.038315    
       510   1101.7801      65033.044      68579.7        1776.8972      70356.597      295.54397      0.10587831     3.4625291      39.035435    
       520   1086.2211      65059.733      68600.979      1793.0417      70394.02       298.22922      0.10533572     3.4565043      39.031747    
       530   1092.1634      65033.615      68419.068      1796.9706      70216.039      298.88269      0.10524487     3.4487773      39.030495    
       540   1083.7592      65050.368      68311.229      1751.3278      70062.556      291.29112      0.10538038     3.4450873      39.030297    
       550   1086.7096      65050.903      68478.57       1740.8894      70219.46       289.55494      0.105427       3.449169       39.028148    
       560   1087.4163      65049.599      68547.512      1756.0472      70303.559      292.07608      0.10550188     3.4560197      39.026662    
       570   1090.5941      65036.111      68497.972      1728.5561      70226.528      287.50359      0.10570484     3.4593095      39.027813    
       580   1098.5024      65044.239      68408.098      1745.3236      70153.422      290.29247      0.10582404     3.4604576      39.029091    
       590   1091.6235      65038.129      68353.299      1731.4642      70084.763      287.98729      0.10577111     3.4632935      39.03011     
       600   1094.373       65037.715      68408.245      1726.1388      70134.384      287.10154      0.10556995     3.4674958      39.030007    
       610   1107.9448      65012.253      68505.434      1751.6723      70257.106      291.34842      0.10558725     3.4728427      39.029584    
       620   1103.523       65013.46       68693.589      1723.7299      70417.318      286.70087      0.10607644     3.478884       39.032325    
       630   1101.65        65032.976      68634.745      1726.5921      70361.337      287.17692      0.1064616      3.4830218      39.037409    
       640   1096.4765      65027.356      68498.597      1753.541       70252.138      291.65922      0.10640244     3.4851709      39.041092    
       650   1095.1878      65065.127      68416.717      1735.743       70152.46       288.69896      0.10619974     3.48678        39.043486    
       660   1081.0785      65077.958      68415.191      1727.2427      70142.434      287.28515      0.10620333     3.4887864      39.044748    
       670   1083.2573      65048.729      68399.89       1722.0086      70121.899      286.41457      0.10635096     3.4914592      39.044466    
       680   1074.9615      65058.198      68452.116      1733.9326      70186.049      288.39785      0.1063227      3.4935656      39.04447     
       690   1097.0483      65028.4        68413.14       1788.2575      70201.397      297.43348      0.10610023     3.4953026      39.044696    
       700   1106.6603      65017.55       68459.438      1757.356       70216.794      292.29376      0.105839       3.4976615      39.043952    
       710   1098.3323      65021.165      68607.897      1761.6291      70369.526      293.00448      0.10575275     3.5000102      39.043128    
       720   1075.0034      65029.109      68647.559      1765.7518      70413.31       293.69019      0.10586525     3.5009639      39.044873    
       730   1076.97        65033.781      68531.974      1782.7682      70314.742      296.52046      0.10581626     3.5002811      39.049592    
       740   1086.6974      65027.311      68553.446      1739.2507      70292.697      289.28238      0.10536086     3.4995559      39.057162    
       750   1102.7475      65024.616      68506.102      1755.501       70261.603      291.98524      0.10477698     3.5001281      39.066473    
       760   1101.9027      65051.888      68455.484      1755.9754      70211.459      292.06413      0.10427391     3.4994526      39.072926    
       770   1085.1495      65069.658      68390.311      1790.3803      70180.692      297.78656      0.10397533     3.496553       39.073543    
       780   1086.7026      65064.624      68402.994      1831.4983      70234.492      304.62554      0.10382831     3.4923827      39.072571    
       790   1102.6615      65044.038      68445.748      1852.679       70298.427      308.14844      0.10365137     3.488139       39.075559    
       800   1120.8013      65021.709      68508.485      1854.7307      70363.216      308.48969      0.10336896     3.4850053      39.082578    
       810   1127.0486      64996.389      68589.288      1845.7631      70435.051      306.99815      0.10301594     3.4800955      39.088233    
       820   1109.6251      65015.699      68591.652      1835.857       70427.509      305.3505       0.10256827     3.4740301      39.090666    
       830   1106.7817      65013.68       68470.177      1842.381       70312.558      306.43562      0.10190084     3.4708102      39.088991    
       840   1085.8882      65010.804      68464.01       1856.2311      70320.241      308.73925      0.10117047     3.4706861      39.083821    
       850   1075.5897      65037.023      68591.256      1812.081       70403.337      301.39594      0.10039707     3.4704653      39.077367    
       860   1075.4168      65055.023      68529.033      1855.6528      70384.685      308.64306      0.099599197    3.4673842      39.071499    
       870   1081.0339      65035.212      68389.521      1894.4778      70283.998      315.10066      0.099195217    3.4642523      39.066044    
       880   1090.3607      65028.348      68454.457      1873.4601      70327.917      311.60488      0.099505272    3.46579        39.060751    
       890   1101.4262      65041.202      68468.318      1822.6808      70290.999      303.15897      0.099864871    3.4675058      39.055514    
       900   1090.0858      65033.982      68573.742      1830.2863      70404.028      304.42395      0.099640661    3.4614398      39.05148     
       910   1095.2193      65064.477      68477.431      1826.5836      70304.014      303.80811      0.099201253    3.4508302      39.04947     
       920   1098.5318      65048.227      68373.596      1869.2375      70242.833      310.90255      0.099174159    3.4413324      39.048539    
       930   1101.3732      65026.73       68465.552      1847.5864      70313.138      307.30141      0.099631404    3.4349746      39.049458    
       940   1109.5099      64972.33       68497.723      1842.5761      70340.299      306.46806      0.10012728     3.430907       39.05227     
       950   1102.5122      65001.506      68595.65       1830.8143      70426.464      304.51178      0.10060335     3.4261616      39.053992    
       960   1086.9938      65024.586      68631.204      1861.5049      70492.709      309.61643      0.10124591     3.4203013      39.053124    
       970   1084.7333      65029.5        68597.257      1810.6851      70407.942      301.16377      0.101801       3.4157998      39.050798    
       980   1095.5187      65016.283      68571.757      1850.2157      70421.972      307.73873      0.10198468     3.4108816      39.04616     
       990   1094.2596      65001.511      68626.274      1847.4011      70473.675      307.2706       0.10217627     3.4034388      39.037945    
      1000   1110.8132      64997.397      68711.069      1863.6899      70574.759      309.97984      0.10263093     3.3951618      39.029874    
Loop time of 3.92948 on 1 procs for 1000 steps with 2420 atoms

Performance: 43.975 ns/day, 0.546 hours/ns, 254.487 timesteps/s
99.5% CPU use with 1 MPI tasks x 1 OpenMP threads

MPI task timing breakdown:
Section |  min time  |  avg time  |  max time  |%varavg| %total
---------------------------------------------------------------
Pair    | 1.7377     | 1.7377     | 1.7377     |   0.0 | 44.22
Bond    | 0.48455    | 0.48455    | 0.48455    |   0.0 | 12.33
Kspace  | 1.3192     | 1.3192     | 1.3192     |   0.0 | 33.57
Neigh   | 0.30328    | 0.30328    | 0.30328    |   0.0 |  7.72
Comm    | 0.005587   | 0.005587   | 0.005587   |   0.0 |  0.14
Output  | 0.0035929  | 0.0035929  | 0.0035929  |   0.0 |  0.09
Modify  | 0.068823   | 0.068823   | 0.068823   |   0.0 |  1.75
Other   |            | 0.006785   |            |       |  0.17

Nlocal:           2420 ave        2420 max        2420 min
Histogram: 1 0 0 0 0 0 0 0 0 0
Nghost:            277 ave         277 max         277 min
Histogram: 1 0 0 0 0 0 0 0 0 0
Neighs:         152151 ave      152151 max      152151 min
Histogram: 1 0 0 0 0 0 0 0 0 0

Total # of neighbors = 152151
Ave neighs/atom = 62.872314
Ave special neighs/atom = 9.2330579
Neighbor list builds = 80
Dangerous builds = 17
Total wall time: 0:00:03
