LAMMPS (3 Aug 2022)
OMP_NUM_THREADS environment is not set. Defaulting to 1 thread. (src/comm.cpp:98)
  using 1 OpenMP thread(s) per MPI task
## Magnetic Interaction Simulation
## Part of "MSPIN" package for magnetic interaction.
## Author: Akhlak Mahmood, Yingling Group, NC State University.

units				real
dimension			3
boundary 			p p p

atom_style		    qmag
newton off

bond_style          harmonic
angle_style         harmonic
dihedral_style      harmonic
pair_style          lj/cut/coul/long 8.0
pair_modify         mix arithmetic
kspace_style        pppm 1e-4

read_data		    data.mspin
Reading data file ...
  orthogonal box = (0 0 0) to (97.6763 58.5717 60.6247)
  1 by 1 by 1 MPI processor grid
  reading atoms ...
  4116 atoms
  scanning bonds ...
  7 = max bonds/atom
  scanning angles ...
  35 = max angles/atom
  scanning dihedrals ...
  170 = max dihedrals/atom
  reading bonds ...
  4550 bonds
  reading angles ...
  10086 angles
  reading dihedrals ...
  21406 dihedrals
Finding 1-2 1-3 1-4 neighbors ...
  special bond factors lj:    0        0        0       
  special bond factors coul:  0        0        0       
     7 = max # of 1-2 neighbors
    20 = max # of 1-3 neighbors
    98 = max # of 1-4 neighbors
    55 = max # of special neighbors
  special bonds CPU = 0.003 seconds
  read_data CPU = 0.050 seconds
special_bonds       amber
Finding 1-2 1-3 1-4 neighbors ...
  special bond factors lj:    0        0        0.5     
  special bond factors coul:  0        0        0.8333333333333334
     7 = max # of 1-2 neighbors
    20 = max # of 1-3 neighbors
    98 = max # of 1-4 neighbors
    55 = max # of special neighbors
  special bonds CPU = 0.003 seconds

reset_timestep		0
timestep 			2.0

group 	    core    molecule 1 37
406 atoms in group core
group 	    ligs    subtract all core
3710 atoms in group ligs

delete_bonds        core 		multi remove special
System init for delete_bonds ...
PPPM initialization ...
WARNING: System is not charge neutral, net charge = -2.2e-05 (src/kspace.cpp:327)
  using 12-bit tables for long-range coulomb (src/kspace.cpp:342)
  G vector (1/distance) = 0.2655163
  grid = 32 24 24
  stencil order = 5
  estimated absolute RMS force accuracy = 0.027043653
  estimated relative force accuracy = 8.1441157e-05
  using double precision FFTW3
  3d grid and FFT values/proc = 31117 18432
Generated 55 of 55 mixed pair_coeff terms from arithmetic mixing rule
Neighbor list info ...
  update: every = 1 steps, delay = 10 steps, check = yes
  max neighbors/atom: 2000, page size: 100000
  master list distance cutoff = 10
  ghost atom cutoff = 10
  binsize = 5, bins = 20 12 13
  1 neighbor lists, perpetual/occasional/extra = 1 0 0
  (1) pair lj/cut/coul/long, perpetual
      attributes: half, newton off
      pair build: half/bin/newtoff
      stencil: full/bin/3d
      bin: standard
Deleting bonds ...
  3780 total bonds, 3780 turned on, 0 turned off
  7688 total angles, 7688 turned on, 0 turned off
  14014 total dihedrals, 14014 turned on, 0 turned off
  0 total impropers, 0 turned on, 0 turned off
Finding 1-2 1-3 1-4 neighbors ...
  special bond factors lj:    0        0        0.5     
  special bond factors coul:  0        0        0.8333333333333334
     4 = max # of 1-2 neighbors
     6 = max # of 1-3 neighbors
    12 = max # of 1-4 neighbors
    55 = max # of special neighbors
  special bonds CPU = 0.001 seconds

velocity            all create 300.0 908070
run         0
WARNING: No fixes with time integration, atoms won't move (src/verlet.cpp:60)
PPPM initialization ...
  using 12-bit tables for long-range coulomb (src/kspace.cpp:342)
  G vector (1/distance) = 0.2655163
  grid = 32 24 24
  stencil order = 5
  estimated absolute RMS force accuracy = 0.027043653
  estimated relative force accuracy = 8.1441157e-05
  using double precision FFTW3
  3d grid and FFT values/proc = 31117 18432
Generated 55 of 55 mixed pair_coeff terms from arithmetic mixing rule
Per MPI rank memory allocation (min/avg/max) = 77.27 | 77.27 | 77.27 Mbytes
   Step          Temp          E_pair         E_mol          TotEng         Press     
         0   300            539512.87      19776.485      562969.17      433965.22    
Loop time of 1.303e-06 on 1 procs for 0 steps with 4116 atoms

2072.1% CPU use with 1 MPI tasks x 1 OpenMP threads

MPI task timing breakdown:
Section |  min time  |  avg time  |  max time  |%varavg| %total
---------------------------------------------------------------
Pair    | 0          | 0          | 0          |   0.0 |  0.00
Bond    | 0          | 0          | 0          |   0.0 |  0.00
Kspace  | 0          | 0          | 0          |   0.0 |  0.00
Neigh   | 0          | 0          | 0          |   0.0 |  0.00
Comm    | 0          | 0          | 0          |   0.0 |  0.00
Output  | 0          | 0          | 0          |   0.0 |  0.00
Modify  | 0          | 0          | 0          |   0.0 |  0.00
Other   |            | 1.303e-06  |            |       |100.00

Nlocal:           4116 ave        4116 max        4116 min
Histogram: 1 0 0 0 0 0 0 0 0 0
Nghost:            526 ave         526 max         526 min
Histogram: 1 0 0 0 0 0 0 0 0 0
Neighs:         339824 ave      339824 max      339824 min
Histogram: 1 0 0 0 0 0 0 0 0 0

Total # of neighbors = 339824
Ave neighs/atom = 82.56171
Ave special neighs/atom = 10
Neighbor list builds = 0
Dangerous builds = 0
velocity            all scale 300.0

fix				    fligs		ligs nvt temp 300 300 100
fix			        fcore       core rigid/nvt/mspin molecule temp 300.0 300.0 100                                         bfield 0.0 0.0 1.0 uniform alpha 1.0 beta 50.0 dpcut 160.0
  2 rigid bodies with 406 atoms

MSPIN initialization ...
  implementing magnetic dipolar interactions with cutoff 160.000000 A
  dipolar interaction scaling factor alpha 1.000000
  uniform external B field 0.000000 0.000000 1.000000 applied
  dipole moment scaling factor beta 50.000000

fix_modify 	        fcore	    energy yes
compute			    engy		core mspin/energy fcore
compute			    dist		core mspin/distance fcore 1 2

thermo 				10
# dump	    dvmd    all         custom 100 mspin.lammpstrj id mol type x y z ix iy iz
thermo_style 	    custom 		step ecoul evdwl pe ke etotal temp c_engy[1] c_engy[2] c_dist[1]

run			1000

CITE-CITE-CITE-CITE-CITE-CITE-CITE-CITE-CITE-CITE-CITE-CITE-CITE

Your simulation uses code contributions which should be cited:

- mspin package: doi:10.1021/acs.jctc.1c01253

@Article{Mahmood22,
 author = {A.U. Mahmood and Y.G. Yingling},
 title = {All-Atom Simulation Method for Zeeman Alignment and Dipolar Assembly of Magnetic Nanoparticles},
 journal = {Journal of Chemical Theory and Computation},
 year =    2022,
 volume =  18(5),
 pages =   {3122-3135}
}

CITE-CITE-CITE-CITE-CITE-CITE-CITE-CITE-CITE-CITE-CITE-CITE-CITE

PPPM initialization ...
  using 12-bit tables for long-range coulomb (src/kspace.cpp:342)
  G vector (1/distance) = 0.2655163
  grid = 32 24 24
  stencil order = 5
  estimated absolute RMS force accuracy = 0.027043653
  estimated relative force accuracy = 8.1441157e-05
  using double precision FFTW3
  3d grid and FFT values/proc = 31117 18432
Generated 55 of 55 mixed pair_coeff terms from arithmetic mixing rule

MSPIN magnetic dipoles ...
  Dipole 1: qm = 0.035300 Ke/fs A	d = 11.002753 A	mu = 19.419860 Ke/fs A^2
  Effective dipole moment [1]:	beta * mu = 1555.724976 x 10^-21 A m^2
  Dipole 2: qm = 0.035300 Ke/fs A	d = 11.003240 A	mu = 19.420719 Ke/fs A^2
  Effective dipole moment [2]:	beta * mu = 1555.793806 x 10^-21 A m^2
Per MPI rank memory allocation (min/avg/max) = 78.52 | 78.52 | 78.52 Mbytes
   Step         E_coul         E_vdwl         PotEng         KinEng         TotEng          Temp        c_engy[1]      c_engy[2]      c_dist[1]   
         0   6370.6121      544982.73      559627.05      3327.6097      562954.66      300.65825      0.2270644     -8.8385737      39.411562    
        10   6418.0392      544159.02      559671.01      3699.2991      563370.31      334.24136      0.22691184    -8.8392644      39.417242    
        20   6396.7508      544236.09      559220.72      4145.2983      563366.01      374.53856      0.22673479    -8.8391719      39.423165    
        30   6371.3415      544410.13      558612.86      4610.6179      563223.47      416.58141      0.22654844    -8.8391704      39.431092    
        40   6432.5687      544481.51      558408.49      4756.7778      563165.27      429.78734      0.22643768    -8.839348       39.435841    
        50   6322.7012      544559.48      558202.17      4656.4089      562858.58      420.71874      0.22639873    -8.8380307      39.436791    
        60   6388.9544      544411.98      558441.77      4245.2988      562687.07      383.57387      0.22637082    -8.8363057      39.437641    
        70   6442.6483      544331.98      558304.23      4265.1194      562569.35      385.36471      0.22632282    -8.8356185      39.440559    
        80   6404.0876      544350.25      558056.35      4399.4562      562455.81      397.5024       0.22627559    -8.83594        39.444771    
        90   6426.4008      544327.94      558013.32      4295.7137      562309.03      388.12899      0.22621679    -8.8355666      39.450104    
       100   6443.2687      544397.14      558213.66      4216.0062      562429.67      380.92721      0.22611867    -8.8331858      39.456774    
       110   6441.229       544493.98      558031.92      4288.9879      562320.91      387.5213       0.22598152    -8.8300459      39.465639    
       120   6433.3211      544559.45      557922.16      4196.2076      562118.37      379.13835      0.22588861    -8.8280361      39.472372    
       130   6408.1358      544629.13      557746.4       4083.9984      561830.4       368.99995      0.22588251    -8.8276301      39.474106    
       140   6353.4504      544531.62      557786.11      4058.4867      561844.6       366.6949       0.22583563    -8.8284886      39.479862    
       150   6387.11        544476.58      557907.62      3922.7552      561830.38      354.43121      0.22572735    -8.8292941      39.490073    
       160   6398.2225      544475.39      558002.45      3823.3097      561825.76      345.44605      0.22560163    -8.8291415      39.500265    
       170   6368.5124      544571.12      557462.56      3712.7962      561175.36      335.46087      0.22550833    -8.8284604      39.507605    
       180   6394.1137      544599.43      557443.3       3600.9875      561044.29      325.35865      0.22552143    -8.8283967      39.508374    
       190   6405.9891      544534.08      557596.76      3573.5841      561170.35      322.88269      0.22554679    -8.8294553      39.508356    
       200   6387.8596      544483.1       557616.16      3543.7648      561159.93      320.18843      0.22549857    -8.831002       39.513045    
       210   6397.3991      544508.46      557371.74      3552.6526      560924.39      320.99147      0.22549199    -8.8317755      39.51584     
       220   6396.3412      544497.99      557262.23      3534.0678      560796.3       319.31228      0.22549683    -8.831828       39.51752     
       230   6394.7344      544503.18      557185.45      3445.0905      560630.55      311.27295      0.22545136    -8.8316097      39.52106     
       240   6437.1085      544502.8       557151.33      3398.1413      560549.47      307.03097      0.22540369    -8.8319182      39.524096    
       250   6420.442       544513.34      557021.92      3375.972       560397.89      305.02791      0.22537562    -8.8328084      39.52655     
       260   6420.4699      544545.26      556849.37      3326.0747      560175.45      300.51956      0.22536916    -8.8336079      39.527712    
       270   6396.1298      544532.48      556667.02      3389.8397      560056.86      306.2809       0.22540828    -8.8343099      39.525112    
       280   6396.8381      544539.04      556786         3299.7024      560085.71      298.13676      0.22540806    -8.8350128      39.523778    
       290   6389.484       544532.05      556953.74      3289.6659      560243.41      297.22993      0.22533832    -8.8352574      39.525567    
       300   6377.3652      544519.34      556991.07      3280.827       560271.9       296.43131      0.22525855    -8.8349847      39.527225    
       310   6366.1936      544548.1       556940.76      3234.0415      560174.8       292.20413      0.22515239    -8.8343045      39.530285    
       320   6403.8455      544544.55      556745.26      3208.8543      559954.12      289.92839      0.22504222    -8.8339694      39.533859    
       330   6415.6441      544492.73      556690.43      3213.4737      559903.9       290.34577      0.22501692    -8.83425        39.53327     
       340   6419.1811      544486.26      556720.2       3238.6072      559958.81      292.61665      0.22509422    -8.8341754      39.526969    
       350   6412.6823      544512.97      556665.09      3214.6186      559879.71      290.44921      0.22518559    -8.8336445      39.519556    
       360   6391.9817      544535.17      556540.39      3259.9698      559800.36      294.54681      0.22516512    -8.8333421      39.518673    
       370   6402.4856      544556         556601.07      3207.698       559808.77      289.82392      0.22503655    -8.8327417      39.524317    
       380   6405.6018      544500.53      556596.5       3266.3204      559862.82      295.12061      0.22496319    -8.8313074      39.527639    
       390   6391.9662      544538.84      556719.39      3300.0933      560019.48      298.17207      0.22498406    -8.82964        39.526514    
       400   6397.3395      544517.06      556754.67      3303.4053      560058.08      298.47132      0.22505095    -8.8281471      39.522509    
       410   6400.2541      544505.01      556669.41      3283.908       559953.31      296.70969      0.22512415    -8.8271025      39.516555    
       420   6402.3293      544506.54      556669.11      3340.4569      560009.56      301.81903      0.22513504    -8.8264997      39.512155    
       430   6419.9578      544483.86      556864.86      3301.7908      560166.65      298.32544      0.22503724    -8.825636       39.512121    
       440   6409.8804      544477.46      556820.13      3364.1568      560184.29      303.96038      0.22491606    -8.8243233      39.515066    
       450   6404.0531      544503.95      556883.1       3340.7847      560223.88      301.84865      0.22486153    -8.8229796      39.516601    
       460   6404.2933      544512.91      556669.28      3409.2654      560078.55      308.03606      0.22485767    -8.8223966      39.516714    
       470   6388.796       544529.59      556744.33      3407.841       560152.17      307.90736      0.22488401    -8.82338        39.515711    
       480   6391.1997      544543.89      556869.93      3424.947       560294.87      309.45294      0.22485384    -8.8257381      39.516518    
       490   6387.6788      544517.25      556823.23      3376.8455      560200.08      305.10683      0.22478036    -8.8279123      39.518076    
       500   6412.8473      544503.72      556752.34      3357.0613      560109.4       303.31929      0.2247538     -8.8289906      39.518135    
       510   6414.7484      544475.46      556608.04      3421.3704      560029.41      309.12978      0.22473636    -8.8294498      39.518877    
       520   6419.7248      544458.16      556846.48      3339.3726      560185.85      301.72106      0.22473686    -8.8302637      39.518228    
       530   6430.5843      544465.31      556802.27      3412.0682      560214.33      308.2893       0.22471504    -8.8310469      39.517733    
       540   6401.8031      544517.04      556656.18      3406.7116      560062.89      307.80531      0.22466812    -8.8310986      39.518363    
       550   6397.3014      544522.52      556687.9       3336.3709      560024.27      301.44985      0.22470118    -8.8305227      39.515151    
       560   6412.1914      544512.42      556756.52      3343.0945      560099.62      302.05735      0.22484103    -8.8302706      39.505981    
       570   6391.0107      544516.49      556783.28      3394.8826      560178.17      306.73653      0.22498637    -8.8308251      39.497296    
       580   6385.6202      544533.78      556777.46      3351.4155      560128.88      302.80917      0.22504       -8.8310297      39.495594    
       590   6382.079       544495.68      556728.22      3358.097       560086.32      303.41286      0.22491806    -8.8303521      39.503728    
       600   6367.8123      544483.46      556717.82      3370.2639      560088.08      304.51218      0.22468411    -8.8293672      39.515346    
       610   6383.3814      544509.96      556875.68      3333.524       560209.21      301.19263      0.22448117    -8.8285557      39.522154    
       620   6382.7346      544527.13      556795.26      3257.9123      560053.17      294.36091      0.22437376    -8.8277554      39.523122    
       630   6386.2175      544510.96      556556.32      3310.5319      559866.85      299.11523      0.22437121    -8.8268896      39.519463    
       640   6392.1983      544507.65      556531.56      3341.0453      559872.6       301.8722       0.22443976    -8.8268787      39.514163    
       650   6400.323       544497.78      556755.03      3276.5979      560031.63      296.0492       0.22458901    -8.8283518      39.508083    
       660   6382.2006      544513.57      556640.62      3325.4592      559966.08      300.46395      0.22480494    -8.830127       39.499763    
       670   6411.9913      544492.04      556608.54      3307.5396      559916.07      298.84486      0.22498081    -8.8314043      39.492046    
       680   6401.9492      544459.2       556554.38      3263.1861      559817.57      294.83741      0.2250512     -8.8323271      39.488392    
       690   6409.9769      544458.39      556687.6       3228.2566      559915.86      291.68144      0.22507764    -8.8331159      39.487262    
       700   6402.2826      544470.37      556895.34      3247.8884      560143.23      293.45523      0.22515849    -8.8340285      39.483749    
       710   6402.1372      544479.67      556928.29      3298.8887      560227.18      298.06323      0.22534373    -8.8353855      39.47387     
       720   6415.138       544462.76      556870.38      3220.4346      560090.81      290.9747       0.22551321    -8.8368692      39.463049    
       730   6426.9845      544450.69      556801.96      3260.1653      560062.13      294.56447      0.22562875    -8.8378943      39.455672    
       740   6394.1331      544506.67      556898.59      3247.4324      560146.03      293.41402      0.22577477    -8.8381354      39.447882    
       750   6397.443       544513.93      556904.52      3299.5627      560204.09      298.12413      0.22594944    -8.8385989      39.437755    
       760   6396.8731      544494.31      556846.39      3352.8388      560199.23      302.93777      0.2261089     -8.8395554      39.427659    
       770   6371.1712      544493.22      556801.44      3354.776       560156.22      303.1128       0.22624471    -8.8398849      39.419186    
       780   6387.1464      544489.09      556920.31      3325.4275      560245.74      300.46109      0.22634872    -8.839571       39.412857    
       790   6363.2253      544481.13      556824.93      3324.4942      560149.43      300.37676      0.2263878     -8.8395385      39.411155    
       800   6361.8595      544469.79      556675.82      3345.1171      560020.94      302.24009      0.22632564    -8.8397904      39.413511    
       810   6371.0901      544486.4       556721.09      3318.6092      560039.7       299.84504      0.2262297     -8.8397962      39.41559     
       820   6383.9484      544470.86      556614.28      3396.477       560010.76      306.88059      0.22615936    -8.8390877      39.415663    
       830   6378.6201      544494.68      556509.68      3384.438       559894.12      305.79284      0.22612455    -8.8380546      39.414704    
       840   6399.0876      544493.56      556662.36      3306.5446      559968.91      298.75497      0.22613174    -8.8377589      39.414193    
       850   6390.3399      544488.9       556741.01      3376.6969      560117.7       305.09342      0.22614482    -8.8377254      39.41512     
       860   6395.4932      544508.59      556686.81      3363.8288      560050.64      303.93075      0.22618462    -8.8372488      39.415142    
       870   6412.9438      544478.52      556799.53      3392.7439      560192.28      306.5433       0.22623191    -8.8362128      39.415214    
       880   6434.6322      544472.35      557027.42      3342.8974      560370.32      302.03954      0.22626177    -8.8348582      39.415776    
       890   6414.5935      544481.31      557012.78      3326.3752      560339.16      300.54671      0.22634843    -8.8336156      39.412291    
       900   6389.0046      544468.96      556951.89      3352.9785      560304.87      302.95039      0.2264288     -8.8328878      39.408651    
       910   6372.1758      544490.89      556717.41      3339.5247      560056.93      301.73481      0.22644462    -8.8323223      39.407002    
       920   6399.241       544487.32      556599.85      3370.5745      559970.42      304.54024      0.22645038    -8.8316618      39.403829    
       930   6418.2422      544483.9       556699.46      3336.0994      560035.56      301.42532      0.22643119    -8.8311555      39.400449    
       940   6429.9131      544464.54      556796.07      3326.2944      560122.36      300.53941      0.22639275    -8.8314735      39.396842    
       950   6425.3332      544481.6       556778.86      3272.6827      560051.54      295.69546      0.22632069    -8.8322398      39.394949    
       960   6412.6748      544457.13      556779.06      3293.2007      560072.26      297.54931      0.22627566    -8.8331018      39.392336    
       970   6405.8083      544443.07      556889.99      3288.5049      560178.5       297.12503      0.22634942    -8.8339649      39.383491    
       980   6396.8575      544438.4       556799.01      3268.1093      560067.12      295.28223      0.22646946    -8.8341772      39.371453    
       990   6372.1194      544456.89      556653.79      3222.3498      559876.14      291.14775      0.22648831    -8.8338541      39.365141    
      1000   6368.4436      544471.69      556478.02      3293.1378      559771.16      297.54363      0.22643348    -8.8333237      39.365333    
Loop time of 8.2526 on 1 procs for 1000 steps with 4116 atoms

Performance: 20.939 ns/day, 1.146 hours/ns, 121.174 timesteps/s
100.0% CPU use with 1 MPI tasks x 1 OpenMP threads

MPI task timing breakdown:
Section |  min time  |  avg time  |  max time  |%varavg| %total
---------------------------------------------------------------
Pair    | 3.8218     | 3.8218     | 3.8218     |   0.0 | 46.31
Bond    | 0.84891    | 0.84891    | 0.84891    |   0.0 | 10.29
Kspace  | 2.4235     | 2.4235     | 2.4235     |   0.0 | 29.37
Neigh   | 1.0442     | 1.0442     | 1.0442     |   0.0 | 12.65
Comm    | 0.006908   | 0.006908   | 0.006908   |   0.0 |  0.08
Output  | 0.0032984  | 0.0032984  | 0.0032984  |   0.0 |  0.04
Modify  | 0.095466   | 0.095466   | 0.095466   |   0.0 |  1.16
Other   |            | 0.008564   |            |       |  0.10

Nlocal:           4116 ave        4116 max        4116 min
Histogram: 1 0 0 0 0 0 0 0 0 0
Nghost:            474 ave         474 max         474 min
Histogram: 1 0 0 0 0 0 0 0 0 0
Neighs:         348457 ave      348457 max      348457 min
Histogram: 1 0 0 0 0 0 0 0 0 0

Total # of neighbors = 348457
Ave neighs/atom = 84.659135
Ave special neighs/atom = 10
Neighbor list builds = 80
Dangerous builds = 22
Total wall time: 0:00:08
