Crystalline alpha-Cristobalite SiO2, 3d PBC
 
       32400 atoms
           0 bonds
           0 angles
           0 dihedrals
           0 impropers
 
           2 atom types
           0 bond types
           0 angle types
           0 dihedral types
           0 improper types
 
  0.000000000000000E+000   74.5800000000000      xlo xhi
  0.000000000000000E+000   74.5800000000000      ylo yhi
  0.000000000000000E+000   83.0640000000000      zlo zhi
   0.0000000        0.0000000        0.0000000      xy xz yz
 
 Atoms
 
      1      1      2.8879500      1.4844900      1.4846500      0.0044746
      2      1      2.8833800     73.0874000     73.0844000      3.4492400
      3      1      2.8944000      0.9946940      3.9835700      1.7203600
      4      1      2.8913100      3.9813300      1.0003700      5.1860100
      5      2     -1.4371300      1.1991900      0.5037960      1.2529000
      6      2     -1.4282200     73.4050000     74.0842000      4.6941900
      7      2     -1.4461500      1.9610500      3.6832700      2.9815400
      8      2     -1.4463700      3.0138400      1.2871700      6.4448600
      9      2     -1.4383100      0.5277420      1.2042400     81.8265000
     10      2     -1.4380200     74.0583000     73.3890000      2.2222800
     11      2     -1.4453200      1.3018100      3.0171000      0.5042310
     12      2     -1.4457700      3.6904500      1.9834800      3.9680700
     13      1      2.8826300      1.4836300      1.4889300      6.9271800
     14      1      2.8849500     73.0852000     73.0821000     10.3823000
     15      1      2.8876100      0.9961670      3.9678500      8.6576100
     16      1      2.8914900      3.9709500      0.9966790     12.1200000
     17      2     -1.4357000      1.2035500      0.5253990      8.1545900
     18      2     -1.4424400     73.3882000     74.0616000     11.6168000
     19      2     -1.4431200      1.9829300      3.6894000      9.8811000
     20      2     -1.4408000      2.9982600      1.2841900     13.3591000
     21      2     -1.4402300      0.5148600      1.2070900      5.6766500
     22      2     -1.4351500     74.0741000     73.3908000      9.1559800
     23      2     -1.4483400      1.3019600      3.0032500      7.4256000
     24      2     -1.4449900      3.6768900      1.9641200     10.8885000
     25      1      2.8880300      1.4906900      1.4969100     13.8367000
     26      1      2.8816600     73.0831000     73.0864000     17.3085000
     27      1      2.8874100      1.0005100      3.9806000     15.5628000
     28      1      2.8924900      3.9796700      0.9967970     19.0353000
     29      2     -1.4293600      1.2062700      0.5277210     15.0796000
     30      2     -1.4375100     73.4045000     74.0643000     18.5391000
     31      2     -1.4460200      1.9630600      3.6721600     16.8277000
     32      2     -1.4452200      3.0007700      1.2834900     20.2746000
     33      2     -1.4418300      0.5270380      1.1994400     12.6052000
     34      2     -1.4387900     74.0756000     73.3915000     16.0694000
     35      2     -1.4438300      1.2986400      2.9898900     14.3350000
     36      2     -1.4419000      3.6677800      1.9667800     17.7908000
     37      1      2.8865500      1.4855500      1.4934000     20.7710000
     38      1      2.8815700     73.0942000     73.0853000     24.2308000
     39      1      2.8856400      0.9957570      3.9752100     22.5029000
     40      1      2.8885900      3.9794100      0.9844840     25.9525000
     41      2     -1.4314600      1.2087000      0.5217160     22.0119000
     42      2     -1.4361700     73.3997000     74.0858000     25.4729000
     43      2     -1.4485900      1.9810200      3.6704500     23.7400000
     44      2     -1.4496400      3.0057300      1.2922600     27.2005000
     45      2     -1.4402500      0.5303350      1.1989800     19.5374000
     46      2     -1.4393700     74.0691000     73.3846000     22.9808000
     47      2     -1.4430900      1.2904100      2.9918500     21.2711000
     48      2     -1.4399500      3.6750600      1.9737300     24.7380000
     49      1      2.8843200      1.4961700      1.4811100     27.6836000
     50      1      2.8830700     73.0766000     73.0801000     31.1433000
     51      1      2.8895200      0.9876500      3.9693100     29.4213000
     52      1      2.8886500      3.9687500      0.9878900     32.8828000
     53      2     -1.4369200      1.1889900      0.5262660     28.9144000
     54      2     -1.4405700     73.3969000     74.0841000     32.4007000
     55      2     -1.4487400      1.9868500      3.6773800     30.6479000
     56      2     -1.4464000      2.9997700      1.3119200     34.1100000
     57      2     -1.4334600      0.5180550      1.1953300     26.4447000
     58      2     -1.4320900     74.0674000     73.3811000     29.9300000
     59      2     -1.4429100      1.2923500      3.0110600     28.1969000
     60      2     -1.4451400      3.6852100      1.9684800     31.6543000
     61      1      2.8860000      1.4957600      1.4956900     34.6110000
     62      1      2.8825700     73.0827000     73.0913000     38.0758000
     63      1      2.8884700      0.9943490      3.9742200     36.3345000
     64      1      2.8849500      3.9667300      0.9938960     39.7992000
     65      2     -1.4392700      1.2058200      0.5330260     35.8447000
     66      2     -1.4346800     73.4068000     74.0572000     39.3225000
     67      2     -1.4479600      1.9752600      3.6785200     37.5908000
     68      2     -1.4498400      2.9946600      1.2906400     41.0385000
     69      2     -1.4408400      0.5282990      1.1838500     33.3775000
     70      2     -1.4433700     74.0829000     73.4026000     36.8479000
     71      2     -1.4402700      1.2976200      2.9999600     35.1224000
     72      2     -1.4520500      3.6933600      1.9816500     38.5743000
     73      1      2.8834200      1.4908700      1.4854300     41.5297000
     74      1      2.8829500     73.0815000     73.0792000     44.9967000
     75      1      2.8922000      0.9958420      3.9823800     43.2597000
     76      1      2.8884700      3.9801100      0.9859620     46.7139000
     77      2     -1.4402700      1.1868800      0.5302960     42.7780000
     78      2     -1.4438200     73.4068000     74.0616000     46.2449000
     79      2     -1.4429700      1.9722700      3.6955900     44.4989000
     80      2     -1.4458700      2.9898700      1.2852100     47.9677000
     81      2     -1.4256100      0.5029320      1.2030700     40.3084000
     82      2     -1.4336100     74.0729000     73.3948000     43.7750000
     83      2     -1.4416400      1.2872600      2.9910600     42.0405000
     84      2     -1.4453800      3.6732600      1.9905300     45.4981000
     85      1      2.8878500      1.4867100      1.4947000     48.4475000
     86      1      2.8822100     73.0888000     73.0767000     51.9194000
     87      1      2.8941000      0.9936320      3.9739800     50.1802000
     88      1      2.8851700      3.9711800      0.9930960     53.6455000
     89      2     -1.4328800      1.1892400      0.5262120     49.6863000
     90      2     -1.4378400     73.4059000     74.0849000     53.1515000
     91      2     -1.4376000      1.9800300      3.6799200     51.4115000
     92      2     -1.4499100      2.9965400      1.3065200     54.8996000
     93      2     -1.4318000      0.5194210      1.1987200     47.2354000
     94      2     -1.4305600     74.0760000     73.3814000     50.6807000
     95      2     -1.4412400      1.3131500      3.0064300     48.9596000
     96      2     -1.4452600      3.6726600      1.9892700     52.4130000
     97      1      2.8826800      1.4801700      1.4871600     55.3699000
     98      1      2.8809500     73.0834000     73.0818000     58.8335000
     99      1      2.8951100      0.9995580      3.9694100     57.0946000
    100      1      2.8870500      3.9824800      0.9994590     60.5693000
    101      2     -1.4345200      1.2108400      0.5211450     56.6195000
    102      2     -1.4271800     73.3975000     74.0849000     60.0631000
    103      2     -1.4386900      1.9678600      3.6820700     58.3340000
    104      2     -1.4497600      3.0101600      1.3014200     61.8226000
    105      2     -1.4417200      0.5281110      1.2075000     54.1472000
    106      2     -1.4436500     74.0799000     73.3952000     57.5934000
    107      2     -1.4400700      1.3091800      3.0184300     55.8899000
    108      2     -1.4445200      3.6910800      1.9882500     59.3325000
    109      1      2.8836700      1.4902700      1.4959600     62.2940000
    110      1      2.8836500     73.0809000     73.0866000     65.7484000
    111      1      2.8868200      0.9957960      3.9705900     64.0221000
    112      1      2.8901500      3.9792700      1.0004700     67.4804000
    113      2     -1.4342300      1.1867500      0.5237310     63.5224000
    114      2     -1.4383300     73.3918000     74.0613000     67.0112000
    115      2     -1.4367100      1.9867500      3.6891300     65.2755000
    116      2     -1.4467000      3.0128600      1.2830400     68.7232000
    117      2     -1.4294500      0.5097950      1.2018700     61.0655000
    118      2     -1.4377900     74.0652000     73.3896000     64.5243000
    119      2     -1.4472200      1.3115200      3.0113800     62.7932000
    120      2     -1.4384700      3.6776900      1.9911500     66.2447000
    121      1      2.8815500      1.4871600      1.4853200     69.2260000
    122      1      2.8784200     73.0853000     73.0937000     72.6774000
    123      1      2.8858400      0.9830490      3.9837400     70.9519000
    124      1      2.8916600      3.9819000      0.9978730     74.4148000
    125      2     -1.4283300      1.2028300      0.5040080     70.4503000
    126      2     -1.4335600     73.3927000     74.0859000     73.9144000
    127      2     -1.4572300      1.9803200      3.6848900     72.1992000
    128      2     -1.4462200      2.9970600      1.3049200     75.6414000
    129      2     -1.4403500      0.5283680      1.1889300     67.9789000
    130      2     -1.4415300     74.0803000     73.4016000     71.4337000
    131      2     -1.4537500      1.2850300      3.0101300     69.7162000
    132      2     -1.4433700      3.6961200      1.9730900     73.1759000
    133      1      2.8845500      1.4938700      1.4856900     76.1427000
    134      1      2.8834000     73.0911000     73.0943000     79.6067000
    135      1      2.8884700      0.9849320      3.9763300     77.8734000
    136      1      2.8821100      3.9821500      0.9943270     81.3390000
    137      2     -1.4377900      1.1831900      0.5315320     77.3764000
    138      2     -1.4312000     73.3776000     74.0715000     80.8277000
    139      2     -1.4428200      1.9875400      3.6754700     79.1154000
    140      2     -1.4463100      2.9965800      1.3004700     82.5670000
    141      2     -1.4327600      0.5229300      1.1803200     74.9109000
    142      2     -1.4331200     74.0689000     73.3825000     78.3862000
    143      2     -1.4460100      1.2946000      3.0050300     76.6535000
    144      2     -1.4450500      3.6722200      1.9837300     80.1007000
    145      1      2.8934200      1.4892000      6.4554700     -0.0096450
    146      1      2.8848500     73.0794000      3.4808200      3.4601900
    147      1      2.8961000      0.9836770      8.9553100      1.7255300
    148      1      2.8931000      3.9840300      5.9679900      5.1963300
    149      2     -1.4379600      1.1919200      5.4878300      1.2429100
    150      2     -1.4376000     73.3950000      4.4684100      4.6928200
    151      2     -1.4427100      1.9646300      8.6570300      2.9690100
    152      2     -1.4443900      3.0177100      6.2785800      6.4272200
    153      2     -1.4353200      0.5313120      6.1734100     81.8206000
    154      2     -1.4347900     74.0667000      3.7979900      2.2296300
    155      2     -1.4451300      1.2841700      7.9827200      0.4989780
    156      2     -1.4448000      3.6862300      6.9347900      3.9649000
    157      1      2.8853900      1.4917700      6.4670000      6.9260800
    158      1      2.8900700     73.0892000      3.4782700     10.3765000
    159      1      2.8935400      0.9988720      8.9514300      8.6419900
    160      1      2.8907000      3.9750300      5.9569100     12.1136000
    161      2     -1.4466200      1.2055300      5.4973800      8.1749600
    162      2     -1.4394000     73.3978000      4.4660700     11.6226000
    163      2     -1.4416300      1.9683500      8.6591500      9.8962700
    164      2     -1.4472200      3.0096500      6.2687500     13.3406000
    165      2     -1.4306100      0.5246590      6.1626300      5.7045300
    166      2     -1.4371300     74.0563000      3.7922500      9.1608300
    167      2     -1.4432400      1.2846800      7.9854300      7.4293300
    168      2     -1.4468000      3.6701100      6.9338700     10.8765000
    169      1      2.8835700      1.4922000      6.4578600     13.8460000
    170      1      2.8863000     73.0908000      3.4859100     17.3105000
    171      1      2.8914400      0.9949760      8.9520200     15.5798000
    172      1      2.8913500      3.9713000      5.9653300     19.0294000
    173      2     -1.4508300      1.1992100      5.4818900     15.0814000
    174      2     -1.4426100     73.3879000      4.4490200     18.5419000
    175      2     -1.4472200      1.9648500      8.6492400     16.8094000
    176      2     -1.4464700      3.0147600      6.2705500     20.2772000
    177      2     -1.4320400      0.5112010      6.1749600     12.6023000
    178      2     -1.4381400     74.0748000      3.7763000     16.0625000
    179      2     -1.4454300      1.2841500      7.9624100     14.3319000
    180      2     -1.4471800      3.6946200      6.9351600     17.7893000
    181      1      2.8867800      1.4801500      6.4620400     20.7604000
    182      1      2.8829100     73.0892000      3.4776400     24.2245000
    183      1      2.8872700      0.9830530      8.9507200     22.4901000
    184      1      2.8903400      3.9842100      5.9557400     25.9494000
    185      2     -1.4471500      1.1993300      5.4881000     21.9910000
    186      2     -1.4499400     73.3863000      4.4582700     25.4765000
    187      2     -1.4469400      1.9732000      8.6530500     23.7451000
    188      2     -1.4447000      3.0092200      6.2603700     27.2113000
    189      2     -1.4378700      0.5179450      6.1722200     19.5307000
    190      2     -1.4356800     74.0760000      3.7740800     22.9871000
    191      2     -1.4476600      1.2955800      7.9704800     21.2708000
    192      2     -1.4470600      3.6721300      6.9476100     24.7364000
    193      1      2.8914300      1.4862400      6.4529100     27.6830000
    194      1      2.8832900     73.0894000      3.4749300     31.1392000
    195      1      2.8892400      0.9881020      8.9562400     29.4240000
    196      1      2.8900900      3.9665700      5.9670100     32.8804000
    197      2     -1.4395400      1.1899600      5.4894100     28.9118000
    198      2     -1.4521500     73.3990000      4.4703500     32.3796000
    199      2     -1.4455000      1.9879200      8.6657300     30.6508000
    200      2     -1.4427200      3.0011600      6.2598800     34.1162000
    201      2     -1.4291600      0.5227300      6.1560300     26.4564000
    202      2     -1.4279500     74.0816000      3.7805800     29.9120000
    203      2     -1.4427600      1.3006700      7.9682700     28.1966000
    204      2     -1.4418400      3.6961000      6.9517700     31.6616000
    205      1      2.8869100      1.4926700      6.4542300     34.5997000
    206      1      2.8823800     73.0890000      3.4844300     38.0629000
    207      1      2.8880600      0.9880520      8.9545800     36.3427000
    208      1      2.8880600      3.9696000      5.9600500     39.7975000
    209      2     -1.4414000      1.2076700      5.4789900     35.8389000
    210      2     -1.4461000     73.3977000      4.4656100     39.3219000
    211      2     -1.4452000      1.9734600      8.6525900     37.5755000
    212      2     -1.4466900      3.0084900      6.2665300     41.0407000
    213      2     -1.4370800      0.5118930      6.1784200     33.3937000
    214      2     -1.4402000     74.0718000      3.7752900     36.8242000
    215      2     -1.4452500      1.2916300      7.9651900     35.1118000
    216      2     -1.4431100      3.6721400      6.9576300     38.5648000
    217      1      2.8840400      1.4978600      6.4688400     41.5372000
    218      1      2.8861300     73.0852000      3.4773800     44.9884000
    219      1      2.8884700      0.9958070      8.9559200     43.2516000
    220      1      2.8876700      3.9839000      5.9548600     46.7232000
    221      2     -1.4401700      1.1958800      5.4741900     42.7756000
    222      2     -1.4452700     73.3898000      4.4670500     46.2427000
    223      2     -1.4451900      1.9752800      8.6403600     44.5055000
    224      2     -1.4564500      3.0150400      6.2825000     47.9791000
    225      2     -1.4351200      0.5234280      6.1639700     40.3123000
    226      2     -1.4239600     74.0709000      3.7894800     43.7694000
    227      2     -1.4469700      1.2853700      7.9740000     42.0344000
    228      2     -1.4426100      3.6826500      6.9534300     45.4768000
    229      1      2.8876700      1.4863100      6.4628400     48.4596000
    230      1      2.8855500     73.0783000      3.4833700     51.9160000
    231      1      2.8893100      0.9925670      8.9550100     50.1863000
    232      1      2.8870300      3.9765900      5.9546200     53.6469000
    233      2     -1.4425200      1.1826400      5.4838800     49.7045000
    234      2     -1.4451800     73.3794000      4.4669900     53.1501000
    235      2     -1.4454700      1.9695100      8.6586400     51.4290000
    236      2     -1.4500400      3.0190700      6.2682400     54.8906000
    237      2     -1.4271600      0.5112760      6.1836000     47.2329000
    238      2     -1.4261000     74.0731000      3.7823900     50.6732000
    239      2     -1.4435100      1.2968800      7.9780700     48.9396000
    240      2     -1.4430300      3.6823600      6.9468700     52.4008000
    241      1      2.8864400      1.4969900      6.4535900     55.3716000
    242      1      2.8836000     73.0837000      3.4683800     58.8382000
    243      1      2.8884000      0.9977060      8.9497100     57.1007000
    244      1      2.8873600      3.9659100      5.9662200     60.5643000
    245      2     -1.4378100      1.2081400      5.4748500     56.6043000
    246      2     -1.4408500     73.3934000      4.4710500     60.0880000
    247      2     -1.4432900      1.9752900      8.6687400     58.3320000
    248      2     -1.4491100      3.0038600      6.2586700     61.8059000
    249      2     -1.4327900      0.5286740      6.1748200     54.1357000
    250      2     -1.4278400     74.0769000      3.7951700     57.6166000
    251      2     -1.4496300      1.2846800      7.9648000     55.8599000
    252      2     -1.4490400      3.6659200      6.9346300     59.3261000
    253      1      2.8856300      1.4846900      6.4606700     62.2877000
    254      1      2.8852300     73.0765000      3.4796000     65.7573000
    255      1      2.8943100      0.9841710      8.9534600     64.0324000
    256      1      2.8847900      3.9841100      5.9687900     67.4779000
    257      2     -1.4434100      1.2083300      5.5007300     63.5313000
    258      2     -1.4405500     73.4068000      4.4644900     67.0111000
    259      2     -1.4407500      1.9826900      8.6557900     65.2677000
    260      2     -1.4445400      2.9957900      6.2567700     68.7262000
    261      2     -1.4296700      0.5097560      6.1627900     61.0774000
    262      2     -1.4357100     74.0706000      3.7763000     64.5354000
    263      2     -1.4434400      1.2932700      7.9863800     62.8094000
    264      2     -1.4441500      3.6669500      6.9625400     66.2656000
    265      1      2.8882100      1.4976700      6.4602000     69.2213000
    266      1      2.8839200     73.0786000      3.4742600     72.6745000
    267      1      2.8893800      0.9971470      8.9531900     70.9391000
    268      1      2.8877000      3.9663700      5.9570400     74.4136000
    269      2     -1.4409700      1.2024500      5.5001300     70.4567000
    270      2     -1.4491600     73.3904000      4.4627600     73.9310000
    271      2     -1.4452200      1.9704300      8.6534700     72.1751000
    272      2     -1.4546600      3.0146400      6.2665200     75.6509000
    273      2     -1.4247500      0.5210190      6.1727900     67.9757000
    274      2     -1.4434100     74.0563000      3.7805800     71.4367000
    275      2     -1.4439500      1.2881100      7.9601500     69.7339000
    276      2     -1.4409800      3.6850000      6.9614000     73.1756000
    277      1      2.8811500      1.4856900      6.4676800     76.1373000
    278      1      2.8841200     73.0839000      3.4841900     79.6017000
    279      1      2.8912900      0.9913270      8.9489900     77.8786000
    280      1      2.8835000      3.9793500      5.9570600     81.3306000
    281      2     -1.4496200      1.1980100      5.4904600     77.3902000
    282      2     -1.4535000     73.3941000      4.4508700     80.8583000
    283      2     -1.4437300      1.9822700      8.6477200     79.0996000
    284      2     -1.4433400      3.0002600      6.2541900     82.5715000
    285      2     -1.4340800      0.5025740      6.1817900     74.9208000
    286      2     -1.4348200     74.0606000      3.7866800     78.3795000
    287      2     -1.4419100      1.2874100      7.9859700     76.6507000
    288      2     -1.4493900      3.6680300      6.9424100     80.0951000
    289      1      2.8961700      1.4867300     11.4346000     -0.0027618
    290      1      2.8831400     73.0821000      8.4513700      3.4635600
    291      1      2.8924600      0.9993710     13.9262000      1.7251200
    292      1      2.8895300      3.9843500     10.9337000      5.1809900
    293      2     -1.4368700      1.2053400     10.4566000      1.2480700
    294      2     -1.4473500     73.3764000      9.4228200      4.7069100
    295      2     -1.4401700      1.9663700     13.6409000      2.9723100
    296      2     -1.4456300      3.0133800     11.2550000      6.4331200
    297      2     -1.4295100      0.5225570     11.1432000     81.8467000
    298      2     -1.4272400     74.0820000      8.7699600      2.2306800
    299      2     -1.4421200      1.3004500     12.9449000      0.5003570
    300      2     -1.4480900      3.6800100     11.9106000      3.9478100
    301      1      2.8843100      1.4895100     11.4326000      6.9135800
    302      1      2.8905600     73.0948000      8.4494300     10.3787000
    303      1      2.8900100      0.9876800     13.9158000      8.6416900
    304      1      2.8860500      3.9705200     10.9311000     12.1054000
    305      2     -1.4436700      1.2045100     10.4476000      8.1714300
    306      2     -1.4419900     73.3788000      9.4325500     11.6127000
    307      2     -1.4445000      1.9895700     13.6296000      9.9044300
    308      2     -1.4457100      3.0045900     11.2517000     13.3629000
    309      2     -1.4416000      0.5196630     11.1342000      5.7026400
    310      2     -1.4213600     74.0560000      8.7629500      9.1645700
    311      2     -1.4447800      1.2922100     12.9517000      7.4310900
    312      2     -1.4453700      3.6873100     11.9184000     10.8680000
    313      1      2.8910200      1.4898300     11.4349000     13.8387000
    314      1      2.8810100     73.0932000      8.4457700     17.3076000
    315      1      2.8858700      0.9929480     13.9204000     15.5750000
    316      1      2.8855400      3.9747500     10.9410000     19.0315000
    317      2     -1.4380400      1.2031800     10.4546000     15.0748000
    318      2     -1.4464600     73.3891000      9.4437800     18.5453000
    319      2     -1.4488200      1.9692500     13.6250000     16.8163000
    320      2     -1.4410900      2.9933100     11.2292000     20.2748000
    321      2     -1.4331000      0.5329530     11.1323000     12.6109000
    322      2     -1.4291900     74.0846000      8.7712100     16.0646000
    323      2     -1.4442500      1.2944200     12.9351000     14.3384000
    324      2     -1.4474200      3.6744900     11.9080000     17.8178000
    325      1      2.8890900      1.4896200     11.4330000     20.7586000
    326      1      2.8834000     73.0846000      8.4428600     24.2151000
    327      1      2.8895600      0.9842460     13.9271000     22.5025000
    328      1      2.8877700      3.9820400     10.9345000     25.9532000
    329      2     -1.4502400      1.2081100     10.4728000     22.0183000
    330      2     -1.4426000     73.3825000      9.4352600     25.4622000
    331      2     -1.4413800      1.9733200     13.6358000     23.7301000
    332      2     -1.4486900      3.0107000     11.2400000     27.2119000
    333      2     -1.4378500      0.5222130     11.1355000     19.5216000
    334      2     -1.4374000     74.0685000      8.7412200     23.0023000
    335      2     -1.4475900      1.3004400     12.9412000     21.2539000
    336      2     -1.4495000      3.6706000     11.9201000     24.7139000
    337      1      2.8860400      1.4904800     11.4283000     27.6844000
    338      1      2.8823800     73.0929000      8.4551500     31.1499000
    339      1      2.8909200      1.0001000     13.9172000     29.4076000
    340      1      2.8906300      3.9685400     10.9290000     32.8858000
    341      2     -1.4467600      1.2009300     10.4738000     28.9373000
    342      2     -1.4440300     73.3777000      9.4384300     32.3952000
    343      2     -1.4482500      1.9791600     13.6331000     30.6622000
    344      2     -1.4440400      2.9953900     11.2290000     34.1210000
    345      2     -1.4348100      0.5086960     11.1343000     26.4533000
    346      2     -1.4400900     74.0805000      8.7508900     29.9057000
    347      2     -1.4432000      1.2902300     12.9472000     28.1803000
    348      2     -1.4428700      3.6954200     11.9161000     31.6612000
    349      1      2.8883000      1.4879300     11.4361000     34.5987000
    350      1      2.8864200     73.0780000      8.4494700     38.0616000
    351      1      2.8909000      0.9935640     13.9200000     36.3372000
    352      1      2.8891800      3.9678700     10.9421000     39.7974000
    353      2     -1.4454400      1.2072500     10.4705000     35.8448000
    354      2     -1.4508200     73.3931000      9.4217100     39.2984000
    355      2     -1.4470600      1.9743500     13.6352000     37.5782000
    356      2     -1.4480800      3.0053600     11.2521000     41.0456000
    357      2     -1.4322300      0.5234390     11.1280000     33.3934000
    358      2     -1.4361900     74.0553000      8.7494800     36.8276000
    359      2     -1.4431100      1.2965200     12.9479000     35.1174000
    360      2     -1.4480500      3.6744900     11.9074000     38.5834000
    361      1      2.8858600      1.4805900     11.4309000     41.5332000
    362      1      2.8822200     73.0895000      8.4491400     44.9893000
    363      1      2.8903000      0.9888640     13.9172000     43.2630000
    364      1      2.8877000      3.9774000     10.9289000     46.7130000
    365      2     -1.4473500      1.1915700     10.4697000     42.7654000
    366      2     -1.4470400     73.4029000      9.4397900     46.2445000
    367      2     -1.4429800      1.9717400     13.6394000     44.4948000
    368      2     -1.4442900      2.9903500     11.2513000     47.9636000
    369      2     -1.4344700      0.5215920     11.1481000     40.3015000
    370      2     -1.4339100     74.0780000      8.7566100     43.7471000
    371      2     -1.4467700      1.2873000     12.9428000     42.0289000
    372      2     -1.4492500      3.6844100     11.9054000     45.4922000
    373      1      2.8902800      1.4966400     11.4312000     48.4424000
    374      1      2.8879000     73.0772000      8.4426100     51.9216000
    375      1      2.8895100      0.9904530     13.9233000     50.1771000
    376      1      2.8871600      3.9838800     10.9301000     53.6380000
    377      2     -1.4455400      1.2047300     10.4760000     49.6849000
    378      2     -1.4412800     73.3901000      9.4322500     53.1440000
    379      2     -1.4441200      1.9820300     13.6204000     51.4275000
    380      2     -1.4412400      2.9944100     11.2550000     54.8832000
    381      2     -1.4286000      0.5214210     11.1476000     47.2243000
    382      2     -1.4307900     74.0771000      8.7466500     50.6863000
    383      2     -1.4448000      1.2901600     12.9478000     48.9481000
    384      2     -1.4397500      3.6722700     11.9280000     52.4262000
    385      1      2.8908400      1.4944000     11.4274000     55.3653000
    386      1      2.8820900     73.0837000      8.4560000     58.8340000
    387      1      2.8900100      0.9943710     13.9168000     57.1061000
    388      1      2.8896200      3.9841800     10.9395000     60.5709000
    389      2     -1.4441800      1.2064800     10.4751000     56.6258000
    390      2     -1.4488600     73.3893000      9.4492400     60.0819000
    391      2     -1.4389800      1.9740300     13.6329000     58.3312000
    392      2     -1.4440100      2.9912300     11.2346000     61.7983000