LAMMPS datafile for two molecules
6 atoms
4 bonds
2 angles

2 atom types
1 bond types
1 angle types

0.0 10.0 xlo xhi
0.0 10.0 ylo yhi
0.0 10.0 zlo zhi

Masses

1 1.00794
2 15.9994

Atoms

1 1 2 -0.8472 3.18866 1.92022 1.25228 0 0 0
2 1 1 0.4236 3.95739 2.04883 1.87873 0 0 0
3 1 1 0.4236 2.56934 1.22782 1.62238 0 0 0
4 2 2 -0.8472 0.97785 8.01694 8.99862 0 0 0
5 2 1 0.4236 1.85940 8.12605 8.53940 0 0 0
6 2 1 0.4236 0.38758 8.79268 8.77566 0 0 0

Bonds

1 1 1 2
2 1 1 3
3 1 4 5
4 1 4 6

Angles

1 1 2 1 3
2 1 5 4 6

