LAMMPS (17 Apr 2024 - Development - patch_17Apr2024-174-g749e259294-modified)
# LAMMPS input file in real units via oxdna lj2real.py, date 2024-05-19
variable number	equal 2
variable ofreq	equal 1000
variable efreq	equal 1000
variable T      equal 300.0

units real

dimension 3

newton on

boundary  p p p

atom_style hybrid bond ellipsoid oxdna
WARNING: Atom style hybrid defines both, per-type and per-atom masses; both must be set, but only per-atom masses will be used (../atom_vec_hybrid.cpp:132)
atom_modify sort 0 8.518

# Pair interactions require lists of neighbours to be calculated
neighbor 17.036 bin
neigh_modify every 1 delay 0 check yes

read_data data.duplex2
Reading data file ...
  orthogonal box = (-170 -170 -170) to (170 170 170)
  1 by 2 by 2 MPI processor grid
  reading atoms ...
  16 atoms
  reading velocities ...
  16 velocities
  scanning bonds ...
  1 = max bonds/atom
  16 ellipsoids
  orthogonal box = (-170 -170 -170) to (170 170 170)
  1 by 2 by 2 MPI processor grid
  reading bonds ...
  13 bonds
Finding 1-2 1-3 1-4 neighbors ...
  special bond factors lj:    0        0        0       
  special bond factors coul:  0        0        0       
     2 = max # of 1-2 neighbors
     2 = max # of 1-3 neighbors
     4 = max # of 1-4 neighbors
     6 = max # of special neighbors
  special bonds CPU = 0.001 seconds
  read_data CPU = 0.013 seconds

set atom * mass 315.8376
Setting atom values ...
  16 settings made for mass

group all type 1 4
16 atoms in group all

# oxDNA bond interactions - FENE backbone
bond_style oxdna/fene
bond_coeff * 11.92337812042065 2.1295 6.409795
special_bonds lj 0 1 1
Finding 1-2 1-3 1-4 neighbors ...
  special bond factors lj:    0        1        1       
  special bond factors coul:  0        0        0       
     2 = max # of 1-2 neighbors
     2 = max # of 1-3 neighbors
     4 = max # of 1-4 neighbors
     6 = max # of special neighbors
  special bonds CPU = 0.000 seconds

# oxDNA pair interactions
pair_style hybrid/overlay oxdna/excv oxdna/stk oxdna/hbond oxdna/xstk oxdna/coaxstk
pair_coeff * * oxdna/excv 11.92337812042065 5.9626 5.74965 11.92337812042065 4.38677 4.259 11.92337812042065 2.81094 2.72576
pair_coeff * * oxdna/stk seqav ${T} 8.01727944817084 0.005279604 0.70439070204273 3.4072 7.6662 2.72576 6.3885 1.3 0.0 0.8 0.9 0.0 0.95 0.9 0.0 0.95 2.0 0.65 2.0 0.65
pair_coeff * * oxdna/stk seqav 300 8.01727944817084 0.005279604 0.70439070204273 3.4072 7.6662 2.72576 6.3885 1.3 0.0 0.8 0.9 0.0 0.95 0.9 0.0 0.95 2.0 0.65 2.0 0.65
pair_coeff * * oxdna/hbond seqav 0.0 0.93918760272364 3.4072 6.3885 2.89612 5.9626 1.5 0.0 0.7 1.5 0 0.7 1.5 0 0.7 0.46 3.141592654 0.7 4.0 1.570796327 0.45 4.0 1.570796327 0.45
pair_coeff 1 4 oxdna/hbond seqav 6.42073911784652 0.93918760272364 3.4072 6.3885 2.89612 5.9626 1.5 0 0.7 1.5 0.0 0.7 1.5 0 0.7 0.46 3.141592654 0.7 4.0 1.570796327 0.45 4.0 1.570796327 0.45
pair_coeff 2 3 oxdna/hbond seqav 6.42073911784652 0.93918760272364 3.4072 6.3885 2.89612 5.9626 1.5 0 0.7 1.5 0.0 0.7 1.5 0 0.7 0.46 3.141592654 0.7 4.0 1.570796327 0.45 4.0 1.570796327 0.45
pair_coeff * * oxdna/xstk 3.9029021145006 4.89785 5.74965 4.21641 5.57929 2.25 0.791592654 0.58 1.7 1.0 0.68 1.7 1.0 0.68 1.5 0 0.65 1.7 0.875 0.68 1.7 0.875 0.68
pair_coeff * * oxdna/coaxstk 3.77965257404268 3.4072 5.1108 1.87396 4.94044 2.0 2.541592654 0.65 1.3 0 0.8 0.9 0 0.95 0.9 0 0.95 2 -0.65 2 -0.65

# NVE ensemble
fix 1 all nve/asphere
fix 2 all langevin ${T} ${T} 4265.0 457145 angmom 10
fix 2 all langevin 300 ${T} 4265.0 457145 angmom 10
fix 2 all langevin 300 300 4265.0 457145 angmom 10

timestep 0.01706

#comm_style tiled
fix 3 all balance 1000 1.03 shift xyz 10 1.03
comm_modify cutoff 32.4

compute quat all property/atom quatw quati quatj quatk

compute erot all erotate/asphere
compute ekin all ke
compute epot all pe
variable erot equal c_erot
variable ekin equal c_ekin
variable epot equal c_epot
variable etot equal c_erot+c_ekin+c_epot
fix 5 all print ${efreq} "$(step)  ekin = ${ekin} |  erot = ${erot} | epot = ${epot} | etot = ${etot}" screen yes
fix 5 all print 1000 "$(step)  ekin = ${ekin} |  erot = ${erot} | epot = ${epot} | etot = ${etot}" screen yes

dump out all custom ${ofreq} out.${number}.lammpstrj id mol type x y z ix iy iz vx vy vz c_quat[1] c_quat[2] c_quat[3] c_quat[4] angmomx angmomy angmomz
dump out all custom 1000 out.${number}.lammpstrj id mol type x y z ix iy iz vx vy vz c_quat[1] c_quat[2] c_quat[3] c_quat[4] angmomx angmomy angmomz
dump out all custom 1000 out.2.lammpstrj id mol type x y z ix iy iz vx vy vz c_quat[1] c_quat[2] c_quat[3] c_quat[4] angmomx angmomy angmomz
dump_modify out sort id
dump_modify out format line "%d %d %d  %22.15le %22.15le %22.15le  %d %d %d  %22.15le %22.15le %22.15le  %22.15le %22.15le %22.15le %22.15le  %22.15le %22.15le %22.15le"

run 1000000
Generated 0 of 6 mixed pair_coeff terms from geometric mixing rule
Neighbor list info ...
  update: every = 1 steps, delay = 0 steps, check = yes
  max neighbors/atom: 2000, page size: 100000
  master list distance cutoff = 25.179212
  ghost atom cutoff = 32.4
  binsize = 12.589606, bins = 28 28 28
  4 neighbor lists, perpetual/occasional/extra = 4 0 0
  (1) pair oxdna/excv, perpetual
      attributes: half, newton on
      pair build: half/bin/newton
      stencil: half/bin/3d
      bin: standard
  (2) pair oxdna/hbond, perpetual, copy from (1)
      attributes: half, newton on
      pair build: copy
      stencil: none
      bin: none
  (3) pair oxdna/xstk, perpetual, copy from (1)
      attributes: half, newton on
      pair build: copy
      stencil: none
      bin: none
  (4) pair oxdna/coaxstk, perpetual, copy from (1)
      attributes: half, newton on
      pair build: copy
      stencil: none
      bin: none
0  ekin = 16.1203242878408 |  erot = 16.6982509426318 | epot = -131.137679785989 | etot = -98.3191045555159
Per MPI rank memory allocation (min/avg/max) = 7.232 | 7.264 | 7.344 Mbytes
   Step          Temp          E_pair         E_mol          TotEng         Press          Volume    
         0   360.53565     -132.72638      1.5886993     -115.01736      0.034438461    39304000     
1000  ekin = 16.0915734242602 |  erot = 18.1131907799999 | epot = -129.960758701937 | etot = -95.7559944976768
2000  ekin = 16.3445512762835 |  erot = 14.8147206882645 | epot = -128.691660333568 | etot = -97.5323883690197
3000  ekin = 16.1759985834646 |  erot = 13.3386627579329 | epot = -127.637971683901 | etot = -98.1233103425036
4000  ekin = 15.6545057241999 |  erot = 13.1236462676588 | epot = -126.77586522849 | etot = -97.9977132366311
5000  ekin = 15.1758404392585 |  erot = 13.0857411237448 | epot = -126.165703238772 | etot = -97.9041216757689
6000  ekin = 15.1413640531156 |  erot = 13.3861657435171 | epot = -125.809598527628 | etot = -97.282068730995
7000  ekin = 15.1774504947436 |  erot = 12.9637778426295 | epot = -125.76113527326 | etot = -97.619906935887
8000  ekin = 14.5595245432668 |  erot = 11.3238063810154 | epot = -125.967991017334 | etot = -100.084660093052
9000  ekin = 14.8927108369538 |  erot = 11.4216264838282 | epot = -126.397480899428 | etot = -100.083143578646
10000  ekin = 15.5221737145433 |  erot = 13.8269758172558 | epot = -126.818238777881 | etot = -97.4690892460816
11000  ekin = 15.0053200181519 |  erot = 15.5093678794875 | epot = -127.17066902637 | etot = -96.655981128731
12000  ekin = 15.0557850237049 |  erot = 14.2278865862305 | epot = -127.611853301489 | etot = -98.3281816915534
13000  ekin = 15.5007975534887 |  erot = 14.1582062863706 | epot = -128.190402950814 | etot = -98.5313991109551
14000  ekin = 15.9123478432744 |  erot = 13.2884863097123 | epot = -128.77065424977 | etot = -99.569820096783
15000  ekin = 16.1874456366003 |  erot = 13.1984958116548 | epot = -129.368116004472 | etot = -99.9821745562173
16000  ekin = 16.987752968205 |  erot = 14.5429430611517 | epot = -129.945650295152 | etot = -98.4149542657954
17000  ekin = 17.5894073729048 |  erot = 14.2448280375259 | epot = -130.400289816865 | etot = -98.5660544064342
18000  ekin = 17.0413568209226 |  erot = 14.1346624808112 | epot = -130.57596518431 | etot = -99.3999458825761
19000  ekin = 16.5319443382977 |  erot = 13.947657144873 | epot = -130.450874378105 | etot = -99.9712728949343
20000  ekin = 15.4026055300823 |  erot = 15.2171572465952 | epot = -130.066075567863 | etot = -99.4463127911858
21000  ekin = 14.9726687525356 |  erot = 14.9897963360516 | epot = -129.561873475372 | etot = -99.599408386785
22000  ekin = 14.8466725545297 |  erot = 15.0786863271903 | epot = -128.948825210294 | etot = -99.0234663285742
23000  ekin = 14.2532915697464 |  erot = 13.1592595555267 | epot = -128.266976221893 | etot = -100.85442509662
24000  ekin = 14.0658797888538 |  erot = 11.3521316996468 | epot = -127.585110784609 | etot = -102.167099296108
25000  ekin = 13.6024746157443 |  erot = 11.742533824335 | epot = -127.070880960057 | etot = -101.725872519978
26000  ekin = 13.0978066432598 |  erot = 13.5826324483342 | epot = -126.769055195787 | etot = -100.088616104193
27000  ekin = 11.9699125238479 |  erot = 13.1150613622135 | epot = -126.7844815598 | etot = -101.699507673739
28000  ekin = 10.976958959255 |  erot = 13.6899050629201 | epot = -126.937013027768 | etot = -102.270149005593
29000  ekin = 11.0368750062285 |  erot = 12.709718724462 | epot = -127.369395793738 | etot = -103.622802063048
30000  ekin = 10.8238378103432 |  erot = 14.1297110441393 | epot = -127.987976670544 | etot = -103.034427816061
31000  ekin = 11.1817723397155 |  erot = 13.7202852392807 | epot = -128.851290355668 | etot = -103.949232776672
32000  ekin = 11.9975217177556 |  erot = 14.2657511631903 | epot = -129.880371605081 | etot = -103.617098724135
33000  ekin = 12.5203490340081 |  erot = 15.8304065565672 | epot = -131.014428299273 | etot = -102.663672708697
34000  ekin = 12.0696862490131 |  erot = 16.9564094479006 | epot = -132.324011685246 | etot = -103.297915988333
35000  ekin = 11.7726407778174 |  erot = 17.990672971408 | epot = -133.663597856935 | etot = -103.900284107709
36000  ekin = 11.9959593870982 |  erot = 17.3956522997854 | epot = -134.862973450605 | etot = -105.471361763722
37000  ekin = 12.3526748777694 |  erot = 18.2934291366227 | epot = -135.947502079273 | etot = -105.301398064881
38000  ekin = 12.2423038130269 |  erot = 18.1018836744392 | epot = -136.801871054289 | etot = -106.457683566823
39000  ekin = 12.3301933819594 |  erot = 18.4512027729023 | epot = -137.321697704824 | etot = -106.540301549962
40000  ekin = 11.9214026505523 |  erot = 18.155853425263 | epot = -137.484973787963 | etot = -107.407717712147
41000  ekin = 12.2283801694364 |  erot = 16.5594427515912 | epot = -137.235774487483 | etot = -108.447951566455
42000  ekin = 12.2314632281809 |  erot = 17.0024712401299 | epot = -136.723923546115 | etot = -107.489989077804
43000  ekin = 11.5473242505992 |  erot = 18.1570126474715 | epot = -136.048887123393 | etot = -106.344550225323
44000  ekin = 11.0056443389832 |  erot = 17.5202845883571 | epot = -135.346714231662 | etot = -106.820785304322
45000  ekin = 10.3089452018478 |  erot = 15.5453434092819 | epot = -134.738395816973 | etot = -108.884107205843
46000  ekin = 9.48705433272769 |  erot = 15.6671792391693 | epot = -134.176879085244 | etot = -109.022645513347
47000  ekin = 9.18503548542159 |  erot = 15.8180331675045 | epot = -133.624329948875 | etot = -108.621261295949
48000  ekin = 9.10761376026737 |  erot = 15.2682372491717 | epot = -133.032908706349 | etot = -108.65705769691
49000  ekin = 8.65668957250512 |  erot = 13.0944047989688 | epot = -132.550858027152 | etot = -110.799763655678
50000  ekin = 8.1737259790025 |  erot = 14.1949347253049 | epot = -132.2185709826 | etot = -109.849910278292
51000  ekin = 8.21916407653718 |  erot = 15.2388404404011 | epot = -131.883447609852 | etot = -108.425443092913
52000  ekin = 8.1845083787042 |  erot = 15.788134210059 | epot = -131.669258926228 | etot = -107.696616337465
53000  ekin = 8.65161111403999 |  erot = 17.068486763557 | epot = -131.618869332305 | etot = -105.898771454708
54000  ekin = 8.90576877224079 |  erot = 18.0582236265828 | epot = -131.689941436948 | etot = -104.725949038125
55000  ekin = 9.24202585479757 |  erot = 14.9731119730928 | epot = -131.819084800161 | etot = -107.603946972271
56000  ekin = 8.88882310600324 |  erot = 15.1891758585241 | epot = -131.975081416319 | etot = -107.897082451792
57000  ekin = 8.94491042496245 |  erot = 14.4108327591405 | epot = -132.246801477382 | etot = -108.891058293279
58000  ekin = 9.57648602676765 |  erot = 13.3529125589093 | epot = -132.56882440802 | etot = -109.639425822343
59000  ekin = 10.3109680181628 |  erot = 13.8677646293818 | epot = -132.891622299369 | etot = -108.712889651825
60000  ekin = 10.0897668833558 |  erot = 14.3091845020349 | epot = -133.20939158103 | etot = -108.810440195639
61000  ekin = 10.290789659164 |  erot = 12.5797002428319 | epot = -133.446868280818 | etot = -110.576378378822
62000  ekin = 10.7068064774009 |  erot = 13.2073275266195 | epot = -133.677681123353 | etot = -109.763547119333
63000  ekin = 10.5676870641081 |  erot = 13.735975736358 | epot = -133.826597743211 | etot = -109.522934942745
64000  ekin = 11.0603266771933 |  erot = 13.7863043276276 | epot = -133.950208397973 | etot = -109.103577393152
65000  ekin = 10.6704349910448 |  erot = 11.6124881615164 | epot = -133.950498994477 | etot = -111.667575841916
66000  ekin = 10.5670030718972 |  erot = 10.8876772742217 | epot = -133.847500084089 | etot = -112.39281973797
67000  ekin = 10.7868181650423 |  erot = 11.5085527656524 | epot = -133.790955553073 | etot = -111.495584622378
68000  ekin = 11.3210825282139 |  erot = 12.0516390700809 | epot = -133.788999651569 | etot = -110.416278053274
69000  ekin = 11.4223846034049 |  erot = 11.9043057631203 | epot = -133.879195860376 | etot = -110.552505493851
70000  ekin = 11.7601725001356 |  erot = 11.8946373824682 | epot = -133.974361358016 | etot = -110.319551475413
71000  ekin = 11.9369565657213 |  erot = 12.1587051890993 | epot = -134.06649094326 | etot = -109.970829188439
72000  ekin = 12.2201356783385 |  erot = 13.4203096414169 | epot = -134.148152400829 | etot = -108.507707081074
73000  ekin = 11.7316097869837 |  erot = 15.2661105057596 | epot = -134.197324788334 | etot = -107.199604495591
74000  ekin = 11.5690454821182 |  erot = 13.4185622894577 | epot = -134.084325017159 | etot = -109.096717245583
75000  ekin = 11.3541437997286 |  erot = 12.5773883852486 | epot = -133.907173454644 | etot = -109.975641269667
76000  ekin = 11.740167238967 |  erot = 12.0171543614756 | epot = -133.707208332066 | etot = -109.949886731623
77000  ekin = 11.5941480714565 |  erot = 11.3641007358234 | epot = -133.461741313057 | etot = -110.503492505777
78000  ekin = 11.7433960085455 |  erot = 11.5091759189829 | epot = -133.211758849829 | etot = -109.959186922301
79000  ekin = 11.6812633246783 |  erot = 11.1354353644819 | epot = -132.913438827558 | etot = -110.096740138397
80000  ekin = 12.4071653100863 |  erot = 9.00188979502124 | epot = -132.719598371346 | etot = -111.310543266239
81000  ekin = 12.6725361317755 |  erot = 10.0624404211498 | epot = -132.652952964947 | etot = -109.917976412022
82000  ekin = 12.5350998837219 |  erot = 10.0263772168773 | epot = -132.790356964392 | etot = -110.228879863793
83000  ekin = 12.7855032943191 |  erot = 10.8502686831836 | epot = -132.979108225794 | etot = -109.343336248291
84000  ekin = 12.7147866504013 |  erot = 12.0987110978396 | epot = -133.207699067029 | etot = -108.394201318788
85000  ekin = 12.4318211562989 |  erot = 13.8366282022955 | epot = -133.445467029335 | etot = -107.177017670741
86000  ekin = 12.9409373725302 |  erot = 11.7015118858333 | epot = -133.683038178489 | etot = -109.040588920126
87000  ekin = 13.354234292103 |  erot = 13.3370432943118 | epot = -133.969966837143 | etot = -107.278689250728
88000  ekin = 13.5612268384264 |  erot = 12.836777717707 | epot = -134.226306622826 | etot = -107.828302066693
89000  ekin = 13.6432048747635 |  erot = 12.6826068084665 | epot = -134.529852057328 | etot = -108.204040374098
90000  ekin = 13.7316673862683 |  erot = 13.6890146705956 | epot = -134.865860116451 | etot = -107.445178059587
91000  ekin = 13.793156118478 |  erot = 12.3833233041062 | epot = -135.075133149533 | etot = -108.898653726949
92000  ekin = 14.149859068654 |  erot = 13.335295026605 | epot = -135.149724950008 | etot = -107.664570854749
93000  ekin = 13.4980981353872 |  erot = 15.839915962006 | epot = -135.091526446813 | etot = -105.75351234942
94000  ekin = 13.5365193696502 |  erot = 16.1422521803842 | epot = -134.821112082621 | etot = -105.142340532587
95000  ekin = 12.8768504224914 |  erot = 16.5006661696424 | epot = -134.411357406747 | etot = -105.033840814613
96000  ekin = 12.7317120655562 |  erot = 17.9157627764991 | epot = -133.813467873532 | etot = -103.165993031477
97000  ekin = 12.3620275480032 |  erot = 15.8088677905014 | epot = -133.036335674756 | etot = -104.865440336251
98000  ekin = 12.6047637501621 |  erot = 15.6670590119394 | epot = -132.381652529338 | etot = -104.109829767237
99000  ekin = 12.772362081575 |  erot = 15.8664620748852 | epot = -131.817074700568 | etot = -103.178250544108
100000  ekin = 12.9540440847007 |  erot = 12.4848150466462 | epot = -131.419169306588 | etot = -105.980310175241
101000  ekin = 12.8094026921687 |  erot = 14.2352897206951 | epot = -131.233253678842 | etot = -104.188561265978
102000  ekin = 12.9075167891449 |  erot = 15.7903246648522 | epot = -131.287129201557 | etot = -102.58928774756
103000  ekin = 12.8268218514855 |  erot = 15.2926771721625 | epot = -131.552091540385 | etot = -103.432592516737
104000  ekin = 12.860831753567 |  erot = 15.6609633521036 | epot = -132.011631626406 | etot = -103.489836520735
105000  ekin = 12.6856584399003 |  erot = 15.8393109865105 | epot = -132.442611390941 | etot = -103.91764196453
106000  ekin = 12.7490296627693 |  erot = 16.4923225385789 | epot = -132.819026273508 | etot = -103.57767407216
107000  ekin = 13.1257231720193 |  erot = 15.9047147356431 | epot = -132.9779702812 | etot = -103.947532373538
108000  ekin = 12.9781624509355 |  erot = 16.7386244266203 | epot = -133.008694729617 | etot = -103.291907852061
109000  ekin = 13.1080842306847 |  erot = 17.3246912941556 | epot = -132.846381558103 | etot = -102.413606033263
110000  ekin = 12.9475997478039 |  erot = 16.7850636978276 | epot = -132.497755741303 | etot = -102.765092295671
111000  ekin = 12.8408247556273 |  erot = 14.6321690150569 | epot = -131.894060346807 | etot = -104.421066576123
112000  ekin = 12.7390861304882 |  erot = 15.1117102902424 | epot = -130.984815863023 | etot = -103.134019442292
113000  ekin = 12.8023139379481 |  erot = 14.2324468707309 | epot = -129.882034899179 | etot = -102.8472740905
114000  ekin = 12.6751738711337 |  erot = 13.4254865804269 | epot = -128.756084659542 | etot = -102.655424207982
115000  ekin = 12.557402062209 |  erot = 13.8313460573849 | epot = -127.640176987516 | etot = -101.251428867922
116000  ekin = 12.2716056143536 |  erot = 13.9615225919651 | epot = -126.709200713432 | etot = -100.476072507113
117000  ekin = 12.2847487950703 |  erot = 13.6658123026522 | epot = -125.940464748038 | etot = -99.9899036503155
118000  ekin = 12.347565234157 |  erot = 13.4953928075455 | epot = -125.314722779843 | etot = -99.4717647381409
119000  ekin = 12.3072829088613 |  erot = 11.56019171662 | epot = -125.058806664351 | etot = -101.19133203887
120000  ekin = 12.6296065527395 |  erot = 11.0377809484387 | epot = -125.099637270972 | etot = -101.432249769794
121000  ekin = 12.9145904443762 |  erot = 13.9293169064353 | epot = -125.374907702351 | etot = -98.5310003515397
122000  ekin = 13.5256452707358 |  erot = 14.3717971253563 | epot = -125.827679973218 | etot = -97.9302375771264
123000  ekin = 13.198802866049 |  erot = 13.8107684289809 | epot = -126.275164852546 | etot = -99.2655935575157
124000  ekin = 13.4518200076391 |  erot = 15.4211124799704 | epot = -126.829001981501 | etot = -97.9560694938919
125000  ekin = 13.6280016089997 |  erot = 14.8298658476017 | epot = -127.205034447317 | etot = -98.7471669907156
126000  ekin = 14.0397253286273 |  erot = 16.0000098172294 | epot = -127.428770535868 | etot = -97.3890353900114
127000  ekin = 13.8129336121093 |  erot = 15.8531342695909 | epot = -127.500620517311 | etot = -97.8345526356106
128000  ekin = 14.5061529689428 |  erot = 14.8309580426828 | epot = -127.382851147517 | etot = -98.0457401358917
129000  ekin = 14.2869042038546 |  erot = 12.5620727215151 | epot = -127.305998717116 | etot = -100.457021791747
130000  ekin = 14.4107502489808 |  erot = 10.7964820337384 | epot = -127.311709857223 | etot = -102.104477574504
131000  ekin = 14.3444673612414 |  erot = 10.5888492005681 | epot = -127.326961511477 | etot = -102.393644949667
132000  ekin = 14.3594541413417 |  erot = 10.320464075859 | epot = -127.305521202206 | etot = -102.625602985006
133000  ekin = 14.1546729294946 |  erot = 11.0859672393095 | epot = -127.303615695499 | etot = -102.062975526695
134000  ekin = 14.0570010332958 |  erot = 12.3312282654639 | epot = -127.315060459314 | etot = -100.926831160555
135000  ekin = 13.8473879798681 |  erot = 13.0027980951685 | epot = -127.252918803603 | etot = -100.402732728566
136000  ekin = 13.4783448344795 |  erot = 12.3181728167375 | epot = -127.18263098152 | etot = -101.386113330303
137000  ekin = 13.3123106942823 |  erot = 13.5051604453636 | epot = -127.08518294385 | etot = -100.267711804204
138000  ekin = 13.4309678557282 |  erot = 13.1985799236462 | epot = -127.143176389732 | etot = -100.513628610357
139000  ekin = 14.0341574099361 |  erot = 12.592173678287 | epot = -127.630455692374 | etot = -101.004124604151
140000  ekin = 13.8065761622945 |  erot = 13.5119869120374 | epot = -128.179355103039 | etot = -100.860792028707
141000  ekin = 13.9214361852354 |  erot = 13.3848320157243 | epot = -128.251831418661 | etot = -100.945563217702
142000  ekin = 13.934909380203 |  erot = 11.8831702139305 | epot = -128.331562017751 | etot = -102.513482423617
143000  ekin = 14.0700905519444 |  erot = 10.619272505908 | epot = -128.561461044053 | etot = -103.872097986201
144000  ekin = 14.3846568066528 |  erot = 11.0308870704306 | epot = -128.895057471406 | etot = -103.479513594323
145000  ekin = 14.9295000268487 |  erot = 11.80072002172 | epot = -129.156865883934 | etot = -102.426645835365
146000  ekin = 15.0588681489582 |  erot = 11.6178166529404 | epot = -129.47454946755 | etot = -102.797864665651
147000  ekin = 15.2106427102622 |  erot = 11.0376270042099 | epot = -129.927765438226 | etot = -103.679495723754
148000  ekin = 15.0876610117964 |  erot = 11.9374908285857 | epot = -130.557482212129 | etot = -103.532330371747
149000  ekin = 14.7490538017439 |  erot = 11.9315940063832 | epot = -131.322108511717 | etot = -104.641460703589
150000  ekin = 15.2657424668262 |  erot = 12.1726110910327 | epot = -131.985788180337 | etot = -104.547434622478
151000  ekin = 14.5781518851264 |  erot = 13.9496009411186 | epot = -132.673335698855 | etot = -104.14558287261
152000  ekin = 14.5777113379811 |  erot = 13.4755555746181 | epot = -133.162587051672 | etot = -105.109320139073
153000  ekin = 14.6773814043059 |  erot = 12.9849504561485 | epot = -133.330572771012 | etot = -105.668240910557
154000  ekin = 14.8598979227303 |  erot = 13.0480139509153 | epot = -133.356298154222 | etot = -105.448386280576
155000  ekin = 14.5658462808371 |  erot = 12.7291316324933 | epot = -133.159457277165 | etot = -105.864479363835
156000  ekin = 14.6072311785003 |  erot = 13.4815572745023 | epot = -132.755625124995 | etot = -104.666836671993
157000  ekin = 14.7186895782839 |  erot = 11.514964433911 | epot = -132.443538170593 | etot = -106.209884158398
158000  ekin = 14.756915811197 |  erot = 11.2678012861988 | epot = -132.19840267674 | etot = -106.173685579344
159000  ekin = 14.5674148933329 |  erot = 10.8738418737426 | epot = -131.950323387759 | etot = -106.509066620683
160000  ekin = 14.0467728438122 |  erot = 11.063386097205 | epot = -131.797209529149 | etot = -106.687050588132
161000  ekin = 14.5555554295251 |  erot = 12.8052370294303 | epot = -131.76970435803 | etot = -104.408911899074
162000  ekin = 14.6977677167711 |  erot = 12.2364421421908 | epot = -131.778479435647 | etot = -104.844269576685
163000  ekin = 14.1196642871595 |  erot = 12.9329860305353 | epot = -131.948814514085 | etot = -104.89616419639
164000  ekin = 13.7898491622463 |  erot = 13.0457286661398 | epot = -132.281155651746 | etot = -105.44557782336
165000  ekin = 14.146767384781 |  erot = 15.4611523406016 | epot = -132.760779804613 | etot = -103.15286007923
166000  ekin = 14.6508841513351 |  erot = 17.3890180629077 | epot = -133.236728473221 | etot = -101.196826258978
167000  ekin = 15.0721587960347 |  erot = 17.6227659908065 | epot = -133.680095808284 | etot = -100.985171021443
168000  ekin = 14.1994828512195 |  erot = 15.9037522618147 | epot = -134.055194827403 | etot = -103.951959714369
169000  ekin = 14.1602341444753 |  erot = 18.0296755447982 | epot = -134.449473646656 | etot = -102.259563957382
170000  ekin = 14.0694306307775 |  erot = 19.4725625534463 | epot = -134.692004642621 | etot = -101.150011458397
171000  ekin = 13.7361512674535 |  erot = 18.7505480644722 | epot = -134.786694998901 | etot = -102.299995666975
172000  ekin = 13.5627257932729 |  erot = 18.093237266307 | epot = -134.689962511105 | etot = -103.033999451525
173000  ekin = 13.6193404079345 |  erot = 18.3116904639331 | epot = -134.630527397265 | etot = -102.699496525397
174000  ekin = 13.8652291607269 |  erot = 17.9414686212446 | epot = -134.704751380789 | etot = -102.898053598817
175000  ekin = 13.6178278396075 |  erot = 16.01475083407 | epot = -134.841815041644 | etot = -105.209236367966
176000  ekin = 14.2818264517968 |  erot = 15.7467129433123 | epot = -135.135186152403 | etot = -105.106646757294
177000  ekin = 13.9605374749723 |  erot = 16.9682019434855 | epot = -135.553348493467 | etot = -104.624609075009
178000  ekin = 14.1719985856751 |  erot = 17.9568318814641 | epot = -136.147751073445 | etot = -104.018920606306
179000  ekin = 14.5848015120145 |  erot = 17.0815739296152 | epot = -136.819563786046 | etot = -105.153188344416
180000  ekin = 14.5317430049169 |  erot = 16.515035644651 | epot = -137.453724809158 | etot = -106.40694615959
181000  ekin = 14.7963541253609 |  erot = 15.6683381743307 | epot = -138.009004975563 | etot = -107.544312675871
182000  ekin = 14.8779441014054 |  erot = 14.4395053549216 | epot = -138.44189613322 | etot = -109.124446676893
183000  ekin = 15.7558270527731 |  erot = 12.9184044380285 | epot = -138.693559981229 | etot = -110.019328490427
184000  ekin = 15.5143742044925 |  erot = 13.3181825150061 | epot = -138.800057405125 | etot = -109.967500685627
185000  ekin = 15.3652686778713 |  erot = 14.6676409373754 | epot = -138.908865602223 | etot = -108.875955986977
186000  ekin = 15.0348400978665 |  erot = 15.3231102748848 | epot = -138.945875626631 | etot = -108.58792525388
187000  ekin = 14.9176766057609 |  erot = 16.6599898753524 | epot = -138.88156084498 | etot = -107.303894363866
188000  ekin = 14.6921621349464 |  erot = 18.1602885309884 | epot = -138.60499813301 | etot = -105.752547467075
189000  ekin = 13.7408076240997 |  erot = 16.4479475752207 | epot = -138.155816715908 | etot = -107.967061516588
190000  ekin = 13.6152992340025 |  erot = 17.7725230118411 | epot = -137.628867284981 | etot = -106.241045039138
191000  ekin = 13.4728687325774 |  erot = 18.0823791600731 | epot = -137.091957918931 | etot = -105.53671002628
192000  ekin = 12.3530399718251 |  erot = 19.8393244691615 | epot = -136.481023981569 | etot = -104.288659540582
193000  ekin = 11.5299273102656 |  erot = 19.1824282103537 | epot = -135.946553250796 | etot = -105.234197730177
194000  ekin = 11.1649895000932 |  erot = 18.9423306262241 | epot = -135.561409713864 | etot = -105.454089587546
195000  ekin = 10.2365038832962 |  erot = 16.2974974326929 | epot = -135.016356459364 | etot = -108.482355143375
196000  ekin = 9.9052405548998 |  erot = 15.4114866769535 | epot = -134.379903501341 | etot = -109.063176269488
197000  ekin = 10.5101662173868 |  erot = 13.2519428202659 | epot = -133.773926980255 | etot = -110.011817942602
198000  ekin = 10.0701100246755 |  erot = 12.1224401786724 | epot = -133.192517881119 | etot = -110.999967677771
199000  ekin = 10.0888815862907 |  erot = 14.6060699047979 | epot = -132.831052684003 | etot = -108.136101192915
200000  ekin = 10.2713328348432 |  erot = 14.1677382732657 | epot = -132.499452328271 | etot = -108.060381220162
201000  ekin = 9.67279836297051 |  erot = 17.4741053490013 | epot = -131.99405625743 | etot = -104.847152545458
202000  ekin = 9.42113475905542 |  erot = 15.2416466004391 | epot = -131.442522675496 | etot = -106.779741316001
203000  ekin = 9.0781733153247 |  erot = 15.1373499225716 | epot = -130.854993475045 | etot = -106.639470237149
204000  ekin = 8.64036139073472 |  erot = 17.435031602458 | epot = -130.304718885752 | etot = -104.22932589256
205000  ekin = 8.66192717162963 |  erot = 17.8705703808059 | epot = -129.744393097525 | etot = -103.211895545089
206000  ekin = 8.18798685710702 |  erot = 16.9494530844962 | epot = -129.347297685166 | etot = -104.209857743563
207000  ekin = 7.88269489811464 |  erot = 18.0934252936306 | epot = -128.990899660502 | etot = -103.014779468757
208000  ekin = 8.12847467633978 |  erot = 18.4474275963927 | epot = -128.638908979831 | etot = -102.063006707099
209000  ekin = 8.26627077414831 |  erot = 17.1117207999031 | epot = -128.23848022138 | etot = -102.860488647329
210000  ekin = 8.57369266047589 |  erot = 17.032945225006 | epot = -127.514761594822 | etot = -101.908123709341
211000  ekin = 8.18082139293309 |  erot = 15.8142422862498 | epot = -126.729751967164 | etot = -102.734688287982
212000  ekin = 9.07705835356712 |  erot = 15.9995543237684 | epot = -125.964981789987 | etot = -100.888369112651
213000  ekin = 9.76583660780628 |  erot = 15.8151382659827 | epot = -125.199540834626 | etot = -99.6185659608372
214000  ekin = 9.73283924990857 |  erot = 16.6768685665889 | epot = -124.440549725109 | etot = -98.0308419086116
215000  ekin = 10.1664065327728 |  erot = 16.0847590616496 | epot = -123.79380778278 | etot = -97.5426421883573
216000  ekin = 10.3574466909358 |  erot = 14.6556450781529 | epot = -123.28062097795 | etot = -98.2675292088615
217000  ekin = 9.99430963257152 |  erot = 14.6958322737206 | epot = -123.189352423249 | etot = -98.499210516957
218000  ekin = 10.1271230685036 |  erot = 16.0494811167673 | epot = -123.437228010009 | etot = -97.2606238247383
219000  ekin = 10.4093264435591 |  erot = 17.1225695976585 | epot = -123.698309155169 | etot = -96.1664131139511
220000  ekin = 10.5602197780445 |  erot = 16.2275384087012 | epot = -124.065089165668 | etot = -97.277330978922
221000  ekin = 10.9045703829906 |  erot = 18.0174254671399 | epot = -124.727084208592 | etot = -95.8050883584616
222000  ekin = 11.040495548172 |  erot = 17.5416727186541 | epot = -125.550268118699 | etot = -96.9680998518726
223000  ekin = 11.1981785017269 |  erot = 18.164520187603 | epot = -126.473672051786 | etot = -97.1109733624564
224000  ekin = 12.3865134633279 |  erot = 17.2503270676206 | epot = -127.415472901141 | etot = -97.7786323701921
225000  ekin = 13.4632742183497 |  erot = 16.909295138679 | epot = -128.40622689616 | etot = -98.0336575391309
226000  ekin = 14.1793039795669 |  erot = 16.7746173675137 | epot = -129.250401073249 | etot = -98.2964797261683
227000  ekin = 14.8975736064985 |  erot = 17.3200491535059 | epot = -129.944415508111 | etot = -97.7267927481065
228000  ekin = 15.2580858632895 |  erot = 17.2813783440679 | epot = -130.50979767698 | etot = -97.970333469623
229000  ekin = 15.2815972995915 |  erot = 18.1327345586269 | epot = -130.858522010649 | etot = -97.4441901524304
230000  ekin = 14.9973822396235 |  erot = 17.8215863917617 | epot = -130.974519927144 | etot = -98.1555512957592
231000  ekin = 15.4944447453545 |  erot = 16.2505631688955 | epot = -130.85331196464 | etot = -99.1083040503902
232000  ekin = 15.5013714729644 |  erot = 16.2360267966493 | epot = -130.500978065803 | etot = -98.7635797961897
233000  ekin = 15.6475288254976 |  erot = 15.1355009388718 | epot = -130.001130700983 | etot = -99.2181009366136
234000  ekin = 14.9928070596118 |  erot = 14.4561491773725 | epot = -129.212554811537 | etot = -99.7635985745524
235000  ekin = 14.1500040050198 |  erot = 13.5773795570139 | epot = -128.226927217841 | etot = -100.499543655807
236000  ekin = 14.4337875956183 |  erot = 10.7128375101057 | epot = -127.271678633039 | etot = -102.125053527315
237000  ekin = 14.5718229916728 |  erot = 9.51868813665584 | epot = -126.478805285378 | etot = -102.38829415705
238000  ekin = 14.5641840406761 |  erot = 10.4514244387947 | epot = -125.959186005466 | etot = -100.943577525995
239000  ekin = 14.7945250169988 |  erot = 11.969263456021 | epot = -125.65407099266 | etot = -98.89028251964
240000  ekin = 14.0676596483411 |  erot = 13.0566366120945 | epot = -125.489156131504 | etot = -98.364859871068
241000  ekin = 14.7580193710404 |  erot = 15.6473002667172 | epot = -125.66357027176 | etot = -95.2582506340023
242000  ekin = 15.0062171423708 |  erot = 15.5223047402974 | epot = -126.083825388996 | etot = -95.5553035063272
243000  ekin = 14.7207315030811 |  erot = 18.4914286449845 | epot = -126.572433200165 | etot = -93.3602730520994
244000  ekin = 15.0653849672011 |  erot = 19.6152150630557 | epot = -127.121940701804 | etot = -92.4413406715474
245000  ekin = 14.5826576895288 |  erot = 20.3516097643047 | epot = -127.553594792066 | etot = -92.6193273382324
246000  ekin = 13.9733910446231 |  erot = 19.6995579979128 | epot = -127.855154542609 | etot = -94.182205500073
247000  ekin = 13.736300165071 |  erot = 20.1509121154037 | epot = -127.994211800693 | etot = -94.106999520218
248000  ekin = 13.4538859747754 |  erot = 18.603950634457 | epot = -127.933960738259 | etot = -95.8761241290265
249000  ekin = 13.297290371713 |  erot = 16.5376067949551 | epot = -127.726266783486 | etot = -97.8913696168181
250000  ekin = 13.0769443442147 |  erot = 15.5723980218652 | epot = -127.384478077717 | etot = -98.7351357116367
251000  ekin = 12.3569665649421 |  erot = 14.4296804417377 | epot = -127.05572435213 | etot = -100.26907734545
252000  ekin = 12.2031777119723 |  erot = 12.4241877259964 | epot = -126.724280026054 | etot = -102.096914588085
253000  ekin = 12.3738435396613 |  erot = 14.5862876200654 | epot = -126.430208509831 | etot = -99.4700773501048
254000  ekin = 12.701123410553 |  erot = 11.9848764326328 | epot = -126.255809655633 | etot = -101.569809812447
255000  ekin = 12.3382365581446 |  erot = 12.7694066951398 | epot = -126.233303332426 | etot = -101.125660079142
256000  ekin = 12.5719056004921 |  erot = 11.5455936083012 | epot = -126.375065873605 | etot = -102.257566664812
257000  ekin = 12.8416394174466 |  erot = 10.7766996711506 | epot = -126.680049307901 | etot = -103.061710219303
258000  ekin = 12.9127876656524 |  erot = 10.6100975371551 | epot = -127.056048348568 | etot = -103.533163145761
259000  ekin = 13.0763581338929 |  erot = 12.1546697170536 | epot = -127.528741703229 | etot = -102.297713852282
260000  ekin = 12.9774755067595 |  erot = 11.7128970638702 | epot = -127.854225807735 | etot = -103.163853237105
261000  ekin = 12.6289865133086 |  erot = 11.916003948093 | epot = -128.074160501116 | etot = -103.529170039715
262000  ekin = 12.7023707694459 |  erot = 11.5117802208444 | epot = -128.203484535596 | etot = -103.989333545305
263000  ekin = 12.6698225025792 |  erot = 11.6383988496484 | epot = -128.150951306963 | etot = -103.842729954735
264000  ekin = 12.7498512344178 |  erot = 11.747728649697 | epot = -128.001417548791 | etot = -103.503837664677
265000  ekin = 12.7016227310984 |  erot = 12.8720320892253 | epot = -127.952383302815 | etot = -102.378728482492
266000  ekin = 12.8942439084782 |  erot = 12.8567176427997 | epot = -128.012852928163 | etot = -102.261891376885
267000  ekin = 13.0340848907472 |  erot = 11.6602421677083 | epot = -128.191216268543 | etot = -103.496889210087
268000  ekin = 13.74589289983 |  erot = 11.7671487795819 | epot = -128.563005843981 | etot = -103.049964164569
269000  ekin = 13.9144500485916 |  erot = 12.0904513989345 | epot = -128.873355694132 | etot = -102.868454246606
270000  ekin = 13.5038302515385 |  erot = 13.2027756375057 | epot = -129.228046693482 | etot = -102.521440804438
271000  ekin = 13.1726853474607 |  erot = 14.5028204858769 | epot = -129.509496883975 | etot = -101.833991050637
272000  ekin = 13.1912017675959 |  erot = 13.5128916820094 | epot = -129.700425481901 | etot = -102.996332032296
273000  ekin = 12.9622515947264 |  erot = 12.8466394726389 | epot = -129.921650080588 | etot = -104.112759013222
274000  ekin = 12.5726481833756 |  erot = 13.144678909737 | epot = -130.003176276943 | etot = -104.28584918383
275000  ekin = 12.2148607636527 |  erot = 13.2928615382628 | epot = -129.750232770451 | etot = -104.242510468535
276000  ekin = 11.5576072728742 |  erot = 11.9452733541113 | epot = -129.307440448112 | etot = -105.804559821127
277000  ekin = 11.0565703290287 |  erot = 11.469754008817 | epot = -128.75449578412 | etot = -106.228171446274
278000  ekin = 10.7140705151042 |  erot = 12.8871671766821 | epot = -128.25525823396 | etot = -104.654020542174
279000  ekin = 10.2324972238429 |  erot = 12.7118920306067 | epot = -127.872408298753 | etot = -104.928019044303
280000  ekin = 9.79931602143696 |  erot = 13.8984293718546 | epot = -127.807598666717 | etot = -104.109853273425
281000  ekin = 9.96767949511765 |  erot = 14.9654599630386 | epot = -127.757791381375 | etot = -102.824651923219
282000  ekin = 9.89651453389989 |  erot = 13.5038073340885 | epot = -127.982178238681 | etot = -104.581856370693
283000  ekin = 9.35876750231768 |  erot = 15.0311658542219 | epot = -128.425494240096 | etot = -104.035560883557
284000  ekin = 8.57796244132644 |  erot = 17.1817140478391 | epot = -129.113884013508 | etot = -103.354207524343
285000  ekin = 9.05859694880589 |  erot = 17.9339958923453 | epot = -130.133829218508 | etot = -103.141236377357
286000  ekin = 9.17556209977891 |  erot = 18.2995006002098 | epot = -131.242009857551 | etot = -103.766947157562
287000  ekin = 9.39155514425713 |  erot = 17.9196244698037 | epot = -132.27033351819 | etot = -104.959153904129
288000  ekin = 9.76851862303189 |  erot = 17.6913296641995 | epot = -133.197079996702 | etot = -105.737231709471
289000  ekin = 10.1309528932397 |  erot = 14.7061979034103 | epot = -133.872197861025 | etot = -109.035047064375
290000  ekin = 10.9195489558526 |  erot = 15.1690523778334 | epot = -134.442096043655 | etot = -108.353494709969
291000  ekin = 11.3604751581556 |  erot = 13.153742270531 | epot = -134.942066208005 | etot = -110.427848779318
292000  ekin = 12.1184001542666 |  erot = 12.7399143491585 | epot = -135.347997739513 | etot = -110.489683236088
293000  ekin = 12.5651917109573 |  erot = 13.5564554248973 | epot = -135.657332732208 | etot = -109.535685596353
294000  ekin = 13.2393207416801 |  erot = 11.835377731584 | epot = -135.972747963976 | etot = -110.898049490712
295000  ekin = 14.0110196704011 |  erot = 11.3649738472938 | epot = -136.372700304619 | etot = -110.996706786924
296000  ekin = 14.7267764120059 |  erot = 13.5793475441506 | epot = -136.743277666314 | etot = -108.437153710158
297000  ekin = 15.2715627348123 |  erot = 11.5626347691872 | epot = -137.087873604616 | etot = -110.253676100617
298000  ekin = 16.0387776845994 |  erot = 12.8157712333341 | epot = -137.568618159699 | etot = -108.714069241765
299000  ekin = 16.587224686565 |  erot = 13.5924474386199 | epot = -138.038387602089 | etot = -107.858715476904
300000  ekin = 16.9700828590548 |  erot = 13.2635259234366 | epot = -138.350224271807 | etot = -108.116615489315
301000  ekin = 17.5403695703678 |  erot = 12.344461606446 | epot = -138.564780141525 | etot = -108.679948964711
302000  ekin = 17.999368780733 |  erot = 10.9002774435477 | epot = -138.669984344615 | etot = -109.770338120335
303000  ekin = 18.5119335743994 |  erot = 11.3459589833676 | epot = -138.702590892745 | etot = -108.844698334978
304000  ekin = 18.9041713193929 |  erot = 9.35010741615854 | epot = -138.69532616302 | etot = -110.441047427468
305000  ekin = 19.4425597436692 |  erot = 9.42197838138271 | epot = -138.633141612569 | etot = -109.768603487517
306000  ekin = 19.6036016605872 |  erot = 10.6931976987772 | epot = -138.477912570479 | etot = -108.181113211115
307000  ekin = 19.3417236015309 |  erot = 13.2387828544056 | epot = -138.253199109005 | etot = -105.672692653069
308000  ekin = 18.6999426944204 |  erot = 11.973083632259 | epot = -137.851569596535 | etot = -107.178543269856
309000  ekin = 18.7265657872805 |  erot = 13.0303472217923 | epot = -137.317309351105 | etot = -105.560396342032
310000  ekin = 17.8195957255941 |  erot = 14.0238269204621 | epot = -136.848405156991 | etot = -105.004982510935
311000  ekin = 17.1255719645332 |  erot = 15.2230056343622 | epot = -136.455665695132 | etot = -104.107088096236
312000  ekin = 17.5406156481837 |  erot = 16.4951001106738 | epot = -136.079726861853 | etot = -102.044011102996
313000  ekin = 17.1670923816363 |  erot = 15.0877984771809 | epot = -135.822923328133 | etot = -103.568032469316
314000  ekin = 16.6423728735091 |  erot = 15.2891889046024 | epot = -135.810853367455 | etot = -103.879291589344
315000  ekin = 16.7627241814776 |  erot = 14.6381862323553 | epot = -135.936566495695 | etot = -104.535656081862
316000  ekin = 16.7205036269676 |  erot = 15.3512491017753 | epot = -136.088132270724 | etot = -104.016379541981
317000  ekin = 17.366695391312 |  erot = 15.0403764000411 | epot = -136.090944178317 | etot = -103.683872386964
318000  ekin = 17.3898541429783 |  erot = 14.4562587649093 | epot = -136.029567624113 | etot = -104.183454716225
319000  ekin = 17.6468368920276 |  erot = 13.5657924751129 | epot = -135.837201238631 | etot = -104.62457187149
320000  ekin = 17.853845424944 |  erot = 11.4555633526327 | epot = -135.634795052626 | etot = -106.325386275049
321000  ekin = 18.4774011194484 |  erot = 9.47340321644106 | epot = -135.396484896295 | etot = -107.445680560405
322000  ekin = 18.5638208747372 |  erot = 10.5540356873042 | epot = -135.178405880719 | etot = -106.060549318678
323000  ekin = 18.3144849132937 |  erot = 9.18750574356535 | epot = -135.011277898535 | etot = -107.509287241676
324000  ekin = 18.2814120547138 |  erot = 8.43295922987849 | epot = -134.870516827034 | etot = -108.156145542441
325000  ekin = 17.6828287811198 |  erot = 9.25503886901379 | epot = -134.72004058206 | etot = -107.782172931927
326000  ekin = 17.5682068543231 |  erot = 8.80877184189272 | epot = -134.518753123174 | etot = -108.141774426958
327000  ekin = 17.563579091233 |  erot = 9.26405936905546 | epot = -134.407298439375 | etot = -107.579659979087
328000  ekin = 17.6947130932733 |  erot = 10.1923998064966 | epot = -134.311937694853 | etot = -106.424824795083
329000  ekin = 17.1881472843045 |  erot = 9.42382068529237 | epot = -134.061202456107 | etot = -107.44923448651
330000  ekin = 16.7033164328865 |  erot = 10.5958861015874 | epot = -133.644326190092 | etot = -106.345123655618
331000  ekin = 16.5614873472988 |  erot = 11.0963106255071 | epot = -133.114955864068 | etot = -105.457157891263
332000  ekin = 15.344800831015 |  erot = 10.5204968548347 | epot = -132.655714437217 | etot = -106.790416751368
333000  ekin = 14.8824601261092 |  erot = 11.0665055647672 | epot = -132.381703135978 | etot = -106.432737445102
334000  ekin = 14.3520097856488 |  erot = 11.2693925718679 | epot = -132.234967905192 | etot = -106.613565547675
335000  ekin = 13.3400126008158 |  erot = 11.5365782005848 | epot = -132.005833272039 | etot = -107.129242470638
336000  ekin = 13.4251377988672 |  erot = 12.7016844832713 | epot = -131.693539084324 | etot = -105.566716802185
337000  ekin = 13.0974476255357 |  erot = 10.5699064068532 | epot = -131.267127574954 | etot = -107.599773542565
338000  ekin = 13.6450169603266 |  erot = 11.3468402093231 | epot = -130.910112680268 | etot = -105.918255510618
339000  ekin = 13.6181925950493 |  erot = 12.1076210040202 | epot = -130.557539825855 | etot = -104.831726226786
340000  ekin = 13.7060735716503 |  erot = 12.8412065521541 | epot = -130.462716763992 | etot = -103.915436640188
341000  ekin = 13.7778063734593 |  erot = 13.1174330704424 | epot = -130.531074545887 | etot = -103.635835101985
342000  ekin = 13.954513538403 |  erot = 13.7402525553091 | epot = -130.774043628587 | etot = -103.079277534875
343000  ekin = 13.6604942473275 |  erot = 15.5089663905455 | epot = -131.055721366082 | etot = -101.886260728209
344000  ekin = 14.2665127121401 |  erot = 12.2031321771093 | epot = -131.282570170384 | etot = -104.812925281134
345000  ekin = 14.982149542259 |  erot = 14.1635371069014 | epot = -131.519726557152 | etot = -102.374039907991
346000  ekin = 14.998876481554 |  erot = 13.4617445281837 | epot = -131.723744104871 | etot = -103.263123095133
347000  ekin = 15.541259245477 |  erot = 13.601421487498 | epot = -131.923412477975 | etot = -102.780731745
348000  ekin = 16.7329536809704 |  erot = 15.090740991205 | epot = -132.143772859728 | etot = -100.320078187552
349000  ekin = 17.3861913016786 |  erot = 15.1922827054211 | epot = -132.306356374554 | etot = -99.7278823674542
350000  ekin = 16.8574823749626 |  erot = 18.3600447459492 | epot = -132.445783817605 | etot = -97.2282566966928
351000  ekin = 16.6164885604699 |  erot = 17.7507419907115 | epot = -132.477967998207 | etot = -98.1107374470257
352000  ekin = 16.3906985693055 |  erot = 16.3395128451898 | epot = -132.469143894269 | etot = -99.7389324797738
353000  ekin = 16.4418561748943 |  erot = 15.3428425414812 | epot = -132.543386699625 | etot = -100.758687983249
354000  ekin = 16.6947592950631 |  erot = 15.1610311708645 | epot = -132.725354977831 | etot = -100.869564511904
355000  ekin = 16.7054244183613 |  erot = 15.2739548015032 | epot = -132.888828993417 | etot = -100.909449773552
356000  ekin = 15.8418260139205 |  erot = 15.6343326906158 | epot = -133.092904724418 | etot = -101.616746019881
357000  ekin = 15.8177678978165 |  erot = 15.2776312771737 | epot = -133.349964737571 | etot = -102.254565562581
358000  ekin = 16.247272467314 |  erot = 17.5237438978863 | epot = -133.533290253873 | etot = -99.7622738886724
359000  ekin = 15.9369501984957 |  erot = 16.4723204711401 | epot = -133.373483972013 | etot = -100.964213302377
360000  ekin = 15.6524039179353 |  erot = 16.0917756991532 | epot = -133.088827410712 | etot = -101.344647793623
361000  ekin = 16.1255813737833 |  erot = 14.6043819685595 | epot = -132.682676037011 | etot = -101.952712694669
362000  ekin = 16.2084060425783 |  erot = 15.3061306055287 | epot = -132.004572522378 | etot = -100.490035874271
363000  ekin = 16.5841147977374 |  erot = 13.2870116635265 | epot = -131.206997511749 | etot = -101.335871050485
364000  ekin = 16.2264175141248 |  erot = 13.4839607171259 | epot = -130.301334854897 | etot = -100.590956623646
365000  ekin = 16.3338338884753 |  erot = 11.8882794464809 | epot = -129.439123661589 | etot = -101.217010326633
366000  ekin = 17.1178313527511 |  erot = 10.6429828523485 | epot = -128.636953230029 | etot = -100.876139024929
367000  ekin = 17.3978780298834 |  erot = 10.6214323462969 | epot = -127.896731204461 | etot = -99.8774208282811
368000  ekin = 18.3422043204519 |  erot = 9.4920165520943 | epot = -127.35450483558 | etot = -99.5202839630333
369000  ekin = 18.4267461523155 |  erot = 7.58439614439429 | epot = -126.945478039691 | etot = -100.934335742981
370000  ekin = 18.2591228784488 |  erot = 7.91611442179113 | epot = -126.712837988326 | etot = -100.537600688086
371000  ekin = 18.2272055256963 |  erot = 8.48549388283735 | epot = -126.57487508976 | etot = -99.862175681226
372000  ekin = 18.0229029350717 |  erot = 8.16872677639403 | epot = -126.568133032703 | etot = -100.376503321237
373000  ekin = 18.0182875091869 |  erot = 8.52949424427823 | epot = -126.633731606883 | etot = -100.085949853418
374000  ekin = 17.5191535636621 |  erot = 8.7866303781134 | epot = -126.751870079523 | etot = -100.446086137747
375000  ekin = 17.5729190729748 |  erot = 11.0368009575165 | epot = -127.082054262238 | etot = -98.4723342317464
376000  ekin = 18.0972024010139 |  erot = 12.0869149457635 | epot = -127.446482398761 | etot = -97.2623650519836
377000  ekin = 17.6238550669767 |  erot = 13.7823413485362 | epot = -127.957012085504 | etot = -96.5508156699915
378000  ekin = 17.1545260492794 |  erot = 13.8789438569943 | epot = -128.483574679142 | etot = -97.4501047728679
379000  ekin = 17.3943043447361 |  erot = 15.6128954133663 | epot = -128.994286417227 | etot = -95.9870866591242
380000  ekin = 16.9345655337106 |  erot = 18.1586393022775 | epot = -129.430697636469 | etot = -94.3374928004806
381000  ekin = 17.8592077966176 |  erot = 16.952172224398 | epot = -130.21546363601 | etot = -95.404083614994
382000  ekin = 17.6738126866299 |  erot = 17.8907570066601 | epot = -130.472318203666 | etot = -94.907748510376
383000  ekin = 17.3598919179248 |  erot = 16.8602796085688 | epot = -130.370641785571 | etot = -96.1504702590775
384000  ekin = 18.2785876510998 |  erot = 16.1041146883972 | epot = -130.284480210515 | etot = -95.9017778710178
385000  ekin = 18.0115952307709 |  erot = 16.1845211065083 | epot = -130.175062220429 | etot = -95.9789458831495
386000  ekin = 18.2027845423779 |  erot = 13.5505429677105 | epot = -130.071894452599 | etot = -98.3185669425111
387000  ekin = 19.0293092080126 |  erot = 12.3123326888389 | epot = -130.135076599882 | etot = -98.7934347030301
388000  ekin = 18.6600110494417 |  erot = 12.2331355301054 | epot = -130.332797961397 | etot = -99.4396513818503
389000  ekin = 18.818884817512 |  erot = 12.7152045936026 | epot = -130.592939995127 | etot = -99.0588505840127
390000  ekin = 18.6974666589397 |  erot = 10.8179966323085 | epot = -130.78222296628 | etot = -101.266759675032
391000  ekin = 18.3414303481244 |  erot = 12.2662395181876 | epot = -131.036431663152 | etot = -100.42876179684
392000  ekin = 18.5329248278577 |  erot = 12.6118921508214 | epot = -131.466923523897 | etot = -100.322106545218
393000  ekin = 18.5931926394875 |  erot = 12.8938189916972 | epot = -132.085060887916 | etot = -100.598049256732
394000  ekin = 18.2689521082511 |  erot = 15.0363349114738 | epot = -132.658203470269 | etot = -99.3529164505442
395000  ekin = 18.6758840400074 |  erot = 16.5774071524663 | epot = -133.167812128949 | etot = -97.9145209364753
396000  ekin = 18.4208033998166 |  erot = 16.041020157979 | epot = -133.420028914843 | etot = -98.9582053570477
397000  ekin = 18.4283974295758 |  erot = 17.6803004336543 | epot = -133.424412246365 | etot = -97.3157143831351
398000  ekin = 18.4760707507248 |  erot = 16.8354806241528 | epot = -133.369641128673 | etot = -98.0580897537952
399000  ekin = 18.0667158930869 |  erot = 15.5802846351424 | epot = -133.22438235147 | etot = -99.5773818232405
400000  ekin = 17.3629932701991 |  erot = 14.8051530851039 | epot = -133.239266370825 | etot = -101.071120015522
401000  ekin = 17.2940999376157 |  erot = 16.6455729704891 | epot = -133.275703752707 | etot = -99.3360308446024
402000  ekin = 17.3373502544325 |  erot = 17.3495249767143 | epot = -133.263650452982 | etot = -98.5767752218353
403000  ekin = 17.0362458779982 |  erot = 16.4801854838531 | epot = -133.157361678239 | etot = -99.6409303163881
404000  ekin = 17.5013218057167 |  erot = 17.2356941364713 | epot = -132.956729120098 | etot = -98.2197131779096
405000  ekin = 17.0802098794189 |  erot = 16.960939476204 | epot = -132.73062826728 | etot = -98.6894789116567
406000  ekin = 17.1407753969823 |  erot = 16.5675801382684 | epot = -132.546431302203 | etot = -98.8380757669523
407000  ekin = 17.5700320840176 |  erot = 16.7173366740167 | epot = -132.354385760767 | etot = -98.0670170027328
408000  ekin = 17.9123282076661 |  erot = 15.7372438792219 | epot = -132.093303820899 | etot = -98.4437317340109
409000  ekin = 18.044290976688 |  erot = 16.407264301022 | epot = -131.981012061687 | etot = -97.5294567839774
410000  ekin = 17.4352926916021 |  erot = 16.3490998455989 | epot = -131.999734401999 | etot = -98.2153418647982
411000  ekin = 17.0403229577767 |  erot = 17.0106034249502 | epot = -131.927984341917 | etot = -97.8770579591898
412000  ekin = 16.3738553108077 |  erot = 15.0380907323597 | epot = -131.815285103374 | etot = -100.403339060206
413000  ekin = 15.6919116030853 |  erot = 17.2865003579153 | epot = -131.733742658542 | etot = -98.7553306975415
414000  ekin = 15.6596268128862 |  erot = 18.3746086998306 | epot = -131.584803652767 | etot = -97.5505681400504
415000  ekin = 14.8929074608614 |  erot = 17.7221778643748 | epot = -131.540961193749 | etot = -98.9258758685133
416000  ekin = 14.4887531949694 |  erot = 16.0376591524414 | epot = -131.440311706363 | etot = -100.913899358952
417000  ekin = 14.1092266063953 |  erot = 15.9394824142608 | epot = -131.425898951561 | etot = -101.377189930905
418000  ekin = 13.5048216543633 |  erot = 16.2965565979027 | epot = -131.446662451558 | etot = -101.645284199292
419000  ekin = 13.3086351919324 |  erot = 15.4549783534211 | epot = -131.453449134288 | etot = -102.689835588934
420000  ekin = 13.0039130784646 |  erot = 15.3952024087555 | epot = -131.719273036113 | etot = -103.320157548893
421000  ekin = 12.9877601419768 |  erot = 15.1190337961972 | epot = -132.049830775422 | etot = -103.943036837248
422000  ekin = 12.554469558493 |  erot = 16.7536314378964 | epot = -132.424089805828 | etot = -103.115988809439
423000  ekin = 12.3222010360323 |  erot = 14.8918300268163 | epot = -132.786217773111 | etot = -105.572186710262
424000  ekin = 12.5012656891908 |  erot = 14.7126562690067 | epot = -132.854779708475 | etot = -105.640857750277
425000  ekin = 12.4166002750664 |  erot = 16.1748358263138 | epot = -132.827420051655 | etot = -104.235983950275
426000  ekin = 12.1981797043573 |  erot = 15.3722763039744 | epot = -132.839512680494 | etot = -105.269056672162
427000  ekin = 12.2165197755212 |  erot = 15.2845443324948 | epot = -132.75768742892 | etot = -105.256623320904
428000  ekin = 13.1144440915078 |  erot = 15.6749776075794 | epot = -132.542738612485 | etot = -103.753316913397
429000  ekin = 13.036052320167 |  erot = 15.7209148357586 | epot = -132.22260768664 | etot = -103.465640530715
430000  ekin = 13.6804158115964 |  erot = 14.2380884060342 | epot = -131.771024384698 | etot = -103.852520167068
431000  ekin = 13.9916031179658 |  erot = 14.4553961722166 | epot = -131.156620565525 | etot = -102.709621275343
432000  ekin = 13.8407074506787 |  erot = 14.0482504895216 | epot = -130.497219933366 | etot = -102.608261993166
433000  ekin = 13.9379330807462 |  erot = 14.8523876478218 | epot = -129.700123346572 | etot = -100.909802618004
434000  ekin = 14.1249100563244 |  erot = 14.6514940517254 | epot = -128.827486006554 | etot = -100.051081898504
435000  ekin = 14.0577137236944 |  erot = 14.8667331330112 | epot = -128.014172796523 | etot = -99.0897259398178
436000  ekin = 14.5305553563525 |  erot = 14.077832522527 | epot = -127.226475749873 | etot = -98.6180878709938
437000  ekin = 15.1830124290822 |  erot = 14.1336118031537 | epot = -126.373743476486 | etot = -97.0571192442501
438000  ekin = 16.1148966247471 |  erot = 13.7238250343371 | epot = -125.603706556133 | etot = -95.7649848970485
439000  ekin = 15.385679382347 |  erot = 13.0371901783453 | epot = -125.011554691989 | etot = -96.5886851312965
440000  ekin = 14.8956016821331 |  erot = 13.2387714435016 | epot = -124.533132544974 | etot = -96.3987594193397
441000  ekin = 15.1065254767362 |  erot = 11.8972960070098 | epot = -124.250944728352 | etot = -97.2471232446062
442000  ekin = 15.3644507419134 |  erot = 10.7065439746187 | epot = -124.229899271249 | etot = -98.1589045547165
443000  ekin = 15.3891963376255 |  erot = 10.1101763676241 | epot = -124.493875210453 | etot = -98.9945025052031
444000  ekin = 16.0632437745756 |  erot = 10.4333528402067 | epot = -124.833925383649 | etot = -98.3373287688666
445000  ekin = 17.2273822876834 |  erot = 8.91547796476049 | epot = -125.383423644888 | etot = -99.2405633924442
446000  ekin = 17.1389184638908 |  erot = 9.12523748934503 | epot = -126.015232743036 | etot = -99.7510767898003
447000  ekin = 17.377575602989 |  erot = 8.67259461502235 | epot = -126.729888890992 | etot = -100.67971867298
448000  ekin = 17.2411873858276 |  erot = 10.5843952673172 | epot = -127.469866797344 | etot = -99.6442841441993
449000  ekin = 16.5447004709401 |  erot = 12.6570239249849 | epot = -127.967892349291 | etot = -98.7661679533661
450000  ekin = 16.6696115448345 |  erot = 13.660677404722 | epot = -128.35986377413 | etot = -98.0295748245735
451000  ekin = 16.5552547561237 |  erot = 16.503578149668 | epot = -128.634970955751 | etot = -95.5761380499589
452000  ekin = 16.2155010684469 |  erot = 17.0500352874338 | epot = -128.726789743404 | etot = -95.4612533875228
453000  ekin = 16.2255379767424 |  erot = 16.185189206655 | epot = -128.722337839339 | etot = -96.3116106559417
454000  ekin = 16.5243165270907 |  erot = 16.6985926110523 | epot = -128.556875352001 | etot = -95.3339662138579
455000  ekin = 16.9760722657111 |  erot = 17.8495892261178 | epot = -128.399530068863 | etot = -93.5738685770343
456000  ekin = 16.9744890299368 |  erot = 17.0726018893998 | epot = -128.193610158915 | etot = -94.1465192395783
457000  ekin = 16.1512954354001 |  erot = 16.737623335392 | epot = -127.967910997967 | etot = -95.0789922271744
458000  ekin = 15.8580429496479 |  erot = 16.4857785048016 | epot = -127.751523953145 | etot = -95.407702498695
459000  ekin = 15.5887403100112 |  erot = 15.4749874483398 | epot = -127.617668067827 | etot = -96.5539403094756
460000  ekin = 15.0949705154881 |  erot = 13.2973001244165 | epot = -127.598680189169 | etot = -99.2064095492648
461000  ekin = 15.0290066467678 |  erot = 14.29519361259 | epot = -127.707013966238 | etot = -98.3828137068801
462000  ekin = 15.8077450100979 |  erot = 13.6257527682163 | epot = -127.884476940387 | etot = -98.4509791620729
463000  ekin = 16.062196194493 |  erot = 14.3797480578408 | epot = -127.829474639376 | etot = -97.387530387042
464000  ekin = 16.1624606718217 |  erot = 13.3998051887236 | epot = -127.51699406138 | etot = -97.9547282008342
465000  ekin = 15.6381101655691 |  erot = 12.5725935623154 | epot = -127.066598022852 | etot = -98.8558942949679
466000  ekin = 15.2407794586003 |  erot = 13.3100076426715 | epot = -126.622194820008 | etot = -98.0714077187358
467000  ekin = 15.0664135855113 |  erot = 13.6942009748088 | epot = -126.28954890608 | etot = -97.5289343457599
468000  ekin = 14.5001274424649 |  erot = 15.1357469131307 | epot = -126.07424293658 | etot = -96.4383685809844
469000  ekin = 13.8148903552505 |  erot = 14.223999189392 | epot = -125.858567589752 | etot = -97.8196780451091
470000  ekin = 12.6907212988909 |  erot = 13.6918076668432 | epot = -125.767431927259 | etot = -99.3849029615245
471000  ekin = 12.4289290086777 |  erot = 15.0863192981982 | epot = -125.804921167394 | etot = -98.2896728605182
472000  ekin = 12.1365487961463 |  erot = 15.8579152946744 | epot = -125.988649611677 | etot = -97.9941855208562
473000  ekin = 13.0961380363004 |  erot = 16.1001497266475 | epot = -126.771177224312 | etot = -97.5748894613642
474000  ekin = 13.3403983346927 |  erot = 15.895679725814 | epot = -127.294879744049 | etot = -98.0588016835421
475000  ekin = 13.3958404060839 |  erot = 15.5810145881428 | epot = -127.668448007433 | etot = -98.691593013206
476000  ekin = 12.8342624195179 |  erot = 14.012167697525 | epot = -127.891612353104 | etot = -101.045182236061
477000  ekin = 13.4994760162231 |  erot = 14.5514425266847 | epot = -127.705505124345 | etot = -99.6545865814376
478000  ekin = 13.0008910137509 |  erot = 14.4625603245608 | epot = -127.285952890868 | etot = -99.8225015525561
479000  ekin = 12.925623431067 |  erot = 12.8402234582223 | epot = -126.723146755559 | etot = -100.957299866269
480000  ekin = 12.6915178381984 |  erot = 11.8974174666012 | epot = -126.064725410566 | etot = -101.475790105766
481000  ekin = 11.9916396192061 |  erot = 12.2214430216206 | epot = -125.413028349128 | etot = -101.199945708301
482000  ekin = 11.3629431274558 |  erot = 11.391757186839 | epot = -124.8621930605 | etot = -102.107492746205
483000  ekin = 11.5689648109245 |  erot = 10.144520666394 | epot = -124.438832864686 | etot = -102.725347387368
484000  ekin = 11.4499537844141 |  erot = 11.7371690424975 | epot = -124.381939468864 | etot = -101.194816641953
485000  ekin = 12.0189710017623 |  erot = 11.7434065697059 | epot = -124.614298842439 | etot = -100.851921270971
486000  ekin = 11.8991797933449 |  erot = 13.5151264595704 | epot = -125.077358922215 | etot = -99.6630526693001
487000  ekin = 12.4219195894054 |  erot = 15.6605158990156 | epot = -125.929338188086 | etot = -97.8469026996647
488000  ekin = 12.8520167671218 |  erot = 16.2319523237351 | epot = -126.955871195299 | etot = -97.8719021044424
489000  ekin = 13.7133618431336 |  erot = 18.3140519919298 | epot = -128.237887359736 | etot = -96.2104735246727
490000  ekin = 14.2146690739332 |  erot = 18.9961890015251 | epot = -129.588400932625 | etot = -96.3775428571665
491000  ekin = 14.808905169883 |  erot = 21.5224586397688 | epot = -131.015732216573 | etot = -94.6843684069208
492000  ekin = 14.750712438806 |  erot = 22.5923047841892 | epot = -132.246725890571 | etot = -94.9037086675762
493000  ekin = 15.1077946421563 |  erot = 22.6929093665649 | epot = -133.247303637476 | etot = -95.4465996287548
494000  ekin = 15.1920275386136 |  erot = 23.5057837098355 | epot = -133.917128945417 | etot = -95.2193176969681
495000  ekin = 15.0480842601332 |  erot = 21.4431285606056 | epot = -134.196913391918 | etot = -97.7057005711795
496000  ekin = 14.801133841351 |  erot = 22.137297148718 | epot = -134.202005678487 | etot = -97.2635746884177
497000  ekin = 14.5566297317389 |  erot = 22.9603809009053 | epot = -133.933825890348 | etot = -96.4168152577042
498000  ekin = 14.6619206915101 |  erot = 22.9348589273131 | epot = -133.417393773742 | etot = -95.8206141549183
499000  ekin = 14.6543962596984 |  erot = 18.7924434716854 | epot = -132.757790561971 | etot = -99.3109508305874
500000  ekin = 14.7948775335471 |  erot = 16.8704146240129 | epot = -131.958349808731 | etot = -100.293057651171
501000  ekin = 14.8212816049331 |  erot = 17.2091603638901 | epot = -131.118007497895 | etot = -99.0875655290715
502000  ekin = 14.2885953758062 |  erot = 15.85905487186 | epot = -130.39871612516 | etot = -100.251065877494
503000  ekin = 14.0762344761913 |  erot = 14.1483016387479 | epot = -129.744615024457 | etot = -101.520078909518
504000  ekin = 14.176212959032 |  erot = 14.2350898986543 | epot = -129.207198739059 | etot = -100.795895881373
505000  ekin = 13.6888052577052 |  erot = 14.2289443328037 | epot = -128.696137557374 | etot = -100.778387966865
506000  ekin = 13.4857007103928 |  erot = 11.6555737897757 | epot = -128.364531164014 | etot = -103.223256663846
507000  ekin = 13.0537719068172 |  erot = 10.7795083902701 | epot = -128.193789387401 | etot = -104.360509090314
508000  ekin = 13.1162062822673 |  erot = 11.4121783699166 | epot = -128.279833854618 | etot = -103.751449202435
509000  ekin = 13.1836336688781 |  erot = 11.5863056276099 | epot = -128.45911395506 | etot = -103.689174658572
510000  ekin = 13.0280622782 |  erot = 11.8450610227354 | epot = -128.740981895406 | etot = -103.86785859447
511000  ekin = 12.3628109385324 |  erot = 12.7404715566925 | epot = -128.944512647296 | etot = -103.841230152071
512000  ekin = 12.3887761509538 |  erot = 13.4980201010906 | epot = -128.966759710659 | etot = -103.079963458614
513000  ekin = 12.6203594119359 |  erot = 14.9620317911436 | epot = -128.917294459074 | etot = -101.334903255995
514000  ekin = 12.416213783629 |  erot = 12.5299068441166 | epot = -128.735514185956 | etot = -103.789393558211
515000  ekin = 12.0294921527753 |  erot = 13.3421264250705 | epot = -128.446078796814 | etot = -103.074460218968
516000  ekin = 11.8441128618075 |  erot = 12.277781080756 | epot = -128.103440698687 | etot = -103.981546756123
517000  ekin = 12.3586706122186 |  erot = 12.3670188016377 | epot = -128.082833904249 | etot = -103.357144490393
518000  ekin = 12.9365280265603 |  erot = 11.8762998706373 | epot = -128.22698743522 | etot = -103.414159538022
519000  ekin = 13.6117924708073 |  erot = 13.3273571491215 | epot = -128.635724945509 | etot = -101.69657532558
520000  ekin = 14.1284257546955 |  erot = 14.8580807891771 | epot = -129.210763866088 | etot = -100.224257322215
521000  ekin = 14.2594823424047 |  erot = 15.9120363152587 | epot = -129.920545116455 | etot = -99.7490264587917
522000  ekin = 14.6923115374459 |  erot = 15.7230660161783 | epot = -130.676867164244 | etot = -100.26148961062
523000  ekin = 15.8340959189976 |  erot = 15.7547714850755 | epot = -131.59187880646 | etot = -100.003011402387
524000  ekin = 15.9462671339903 |  erot = 16.1578758631154 | epot = -132.52371992845 | etot = -100.419576931344
525000  ekin = 15.813201014982 |  erot = 14.802508044054 | epot = -133.377920150286 | etot = -102.76221109125
526000  ekin = 15.9259293672298 |  erot = 16.1371214076855 | epot = -134.291592712454 | etot = -102.228541937539
527000  ekin = 15.9819142520504 |  erot = 15.5862790563603 | epot = -135.192735086636 | etot = -103.624541778225
528000  ekin = 16.1691928695597 |  erot = 17.1936054197086 | epot = -136.054848670118 | etot = -102.69205038085
529000  ekin = 15.8817769138475 |  erot = 19.3393060367764 | epot = -136.763310777796 | etot = -101.542227827172
530000  ekin = 15.5515554360964 |  erot = 19.8324657382225 | epot = -137.157056151491 | etot = -101.773034977172
531000  ekin = 14.9303544336884 |  erot = 19.0533857282465 | epot = -137.248602719131 | etot = -103.264862557196
532000  ekin = 14.6915272773098 |  erot = 19.0390414117406 | epot = -136.996143110598 | etot = -103.265574421548
533000  ekin = 13.9218469991517 |  erot = 18.7667814804586 | epot = -136.361439999745 | etot = -103.672811520135
534000  ekin = 13.4103769437142 |  erot = 18.8946707342246 | epot = -135.40463976648 | etot = -103.099592088541
535000  ekin = 12.6789216861393 |  erot = 17.8184136269511 | epot = -134.182890960124 | etot = -103.685555647033
536000  ekin = 12.590240564203 |  erot = 17.6185115266883 | epot = -132.857306433374 | etot = -102.648554342482
537000  ekin = 12.7801413064203 |  erot = 18.0490344965301 | epot = -131.608606294163 | etot = -100.779430491213
538000  ekin = 12.0877979797428 |  erot = 14.9801227270707 | epot = -130.49452729631 | etot = -103.426606589496
539000  ekin = 12.3249668177085 |  erot = 13.0781131963431 | epot = -129.732435692574 | etot = -104.329355678523
540000  ekin = 12.7893035389578 |  erot = 9.75097061835908 | epot = -129.346688800889 | etot = -106.806414643573
541000  ekin = 12.7487638514656 |  erot = 9.97259012466338 | epot = -129.383324148842 | etot = -106.661970172713
542000  ekin = 13.652289820802 |  erot = 10.738186646458 | epot = -129.724457369635 | etot = -105.333980902375
543000  ekin = 14.4952710603151 |  erot = 10.2165874947633 | epot = -130.086121346986 | etot = -105.374262791908
544000  ekin = 15.416882573394 |  erot = 11.4128423966562 | epot = -130.51978905639 | etot = -103.69006408634
545000  ekin = 16.1991969290116 |  erot = 11.8259443121054 | epot = -130.995098171202 | etot = -102.969956930085
546000  ekin = 16.7458919606058 |  erot = 12.4861916085953 | epot = -131.293817426567 | etot = -102.061733857366
547000  ekin = 17.1167854935215 |  erot = 9.90508540311228 | epot = -131.450445770389 | etot = -104.428574873755
548000  ekin = 17.5980170044881 |  erot = 8.59899762550693 | epot = -131.534284690752 | etot = -105.337270060757
549000  ekin = 18.05716372922 |  erot = 9.03817412574295 | epot = -131.461799421632 | etot = -104.36646156667
550000  ekin = 18.0110025502984 |  erot = 8.75474126584266 | epot = -131.197169935683 | etot = -104.431426119542
551000  ekin = 18.0766639239252 |  erot = 8.53967490713076 | epot = -130.876590963895 | etot = -104.260252132839
552000  ekin = 17.8245432639909 |  erot = 8.21111901724959 | epot = -130.613873841209 | etot = -104.578211559969
553000  ekin = 17.5785562404818 |  erot = 8.1637249709468 | epot = -130.411446104862 | etot = -104.669164893433
554000  ekin = 18.1123880413587 |  erot = 9.24690423334698 | epot = -130.275148444209 | etot = -102.915856169503
555000  ekin = 17.9212552367127 |  erot = 9.62912969525877 | epot = -130.169859263365 | etot = -102.619474331394
556000  ekin = 17.3952054982104 |  erot = 10.6263113078829 | epot = -130.010818613481 | etot = -101.989301807388
557000  ekin = 16.9877102103003 |  erot = 9.66426744471381 | epot = -129.86176781953 | etot = -103.209790164516
558000  ekin = 16.4865425164111 |  erot = 10.8347141196074 | epot = -129.73204173083 | etot = -102.410785094812
559000  ekin = 14.6833363987515 |  erot = 13.8364712312426 | epot = -128.194049488042 | etot = -99.674241858048
560000  ekin = 13.8032704865151 |  erot = 16.3621868060878 | epot = -128.630373745615 | etot = -98.4649164530117
561000  ekin = 15.490294368332 |  erot = 14.8483889650737 | epot = -131.674752388104 | etot = -101.336069054698
562000  ekin = 16.4428741862032 |  erot = 17.5475675993354 | epot = -132.990492692958 | etot = -99.0000509074191
563000  ekin = 17.1003382235047 |  erot = 19.640250194249 | epot = -133.976850490626 | etot = -97.2362620728722
564000  ekin = 16.8297751290314 |  erot = 19.1525128665222 | epot = -134.481565057905 | etot = -98.4992770623515
565000  ekin = 16.3252092422451 |  erot = 19.1618918613524 | epot = -134.565272154893 | etot = -99.0781710512954
566000  ekin = 17.2895019331068 |  erot = 16.8462091007505 | epot = -134.327406255376 | etot = -100.191695221518
567000  ekin = 17.0323906492612 |  erot = 16.2918825563585 | epot = -133.70766075318 | etot = -100.383387547561
568000  ekin = 16.3790772060084 |  erot = 15.574422277605 | epot = -132.83958628787 | etot = -100.886086804257
569000  ekin = 16.2273810520686 |  erot = 14.7240543653566 | epot = -131.797679013765 | etot = -100.84624359634
570000  ekin = 15.9900641522897 |  erot = 13.4261011321613 | epot = -130.646318396574 | etot = -101.230153112123
571000  ekin = 15.7066604174784 |  erot = 13.0234217520948 | epot = -129.518264815906 | etot = -100.788182646333
572000  ekin = 16.0092989285471 |  erot = 12.1575559277608 | epot = -128.379111697494 | etot = -100.212256841186
573000  ekin = 15.9708631343734 |  erot = 11.1187133232187 | epot = -127.396033205366 | etot = -100.306456747774
574000  ekin = 16.4336742572048 |  erot = 11.0463709626913 | epot = -126.578179119945 | etot = -99.0981339000487
575000  ekin = 16.6705776713588 |  erot = 10.7073066200581 | epot = -125.724205448364 | etot = -98.3463211569468
576000  ekin = 16.643261097378 |  erot = 12.4216729485139 | epot = -125.152387316774 | etot = -96.0874532708816
577000  ekin = 15.6029696585245 |  erot = 12.0210027469721 | epot = -124.637013618676 | etot = -97.013041213179
578000  ekin = 15.1217504082973 |  erot = 11.4595910442715 | epot = -124.233033278189 | etot = -97.6516918256206
579000  ekin = 15.0465935734355 |  erot = 12.7262115365452 | epot = -123.793441452729 | etot = -96.020636342748
580000  ekin = 15.0940489280731 |  erot = 13.6051774356274 | epot = -123.331749104319 | etot = -94.6325227406182
581000  ekin = 14.7781331191962 |  erot = 13.1159956075504 | epot = -122.898867614539 | etot = -95.0047388877927
582000  ekin = 15.6100957687545 |  erot = 11.534434713536 | epot = -122.427694372763 | etot = -95.283163890472
583000  ekin = 15.7489992202402 |  erot = 11.4364124472658 | epot = -121.985823755297 | etot = -94.8004120877914
584000  ekin = 15.8254878380624 |  erot = 10.2058040644955 | epot = -121.640978549533 | etot = -95.6096866469753
585000  ekin = 15.8487737856408 |  erot = 8.71747367911913 | epot = -121.394720232222 | etot = -96.8284727674621
586000  ekin = 15.9308434965333 |  erot = 6.8128965677088 | epot = -121.46318607434 | etot = -98.7194460100977
587000  ekin = 15.8799609085446 |  erot = 7.01145208775909 | epot = -121.773232683032 | etot = -98.8818196867284
588000  ekin = 16.4457907771307 |  erot = 9.32918579174535 | epot = -122.366046753847 | etot = -96.5910701849708
589000  ekin = 16.8324168458399 |  erot = 9.1361453433059 | epot = -123.120906016409 | etot = -97.1523438272635
590000  ekin = 17.7155015065396 |  erot = 10.8010239309507 | epot = -123.950279101779 | etot = -95.4337536642889
591000  ekin = 18.582172637572 |  erot = 12.1434913540551 | epot = -124.74317051467 | etot = -94.0175065230431
592000  ekin = 19.7287269455987 |  erot = 11.640248069895 | epot = -125.49053884396 | etot = -94.1215638284665
593000  ekin = 20.2421360449823 |  erot = 11.4691273703594 | epot = -125.936877192475 | etot = -94.2256137771328
594000  ekin = 20.8258968307947 |  erot = 11.5067585781664 | epot = -126.003184271851 | etot = -93.6705288628895
595000  ekin = 20.9016737450791 |  erot = 11.1374359774499 | epot = -125.680251813537 | etot = -93.6411420910081
596000  ekin = 20.5312730467165 |  erot = 12.1007665172713 | epot = -125.005964164709 | etot = -92.3739246007213
597000  ekin = 21.2832040757798 |  erot = 11.0271699946615 | epot = -124.018711426703 | etot = -91.7083373562622
598000  ekin = 21.6040849696085 |  erot = 10.0992687087962 | epot = -122.785973741727 | etot = -91.0826200633223
599000  ekin = 21.1832754570889 |  erot = 9.77634716460214 | epot = -121.476563224164 | etot = -90.5169406024733
600000  ekin = 20.1228831509292 |  erot = 9.54773898830651 | epot = -120.17647917022 | etot = -90.5058570309846
601000  ekin = 19.1118572595483 |  erot = 8.11320736376245 | epot = -119.010980700425 | etot = -91.785916077114
602000  ekin = 18.665680178544 |  erot = 7.4830535665545 | epot = -118.045890820527 | etot = -91.8971570754285
603000  ekin = 18.081995606827 |  erot = 7.92648414432153 | epot = -117.479261710445 | etot = -91.4707819592969
604000  ekin = 17.4910237608208 |  erot = 8.46224773004699 | epot = -117.280073334434 | etot = -91.3268018435657
605000  ekin = 16.4456067890573 |  erot = 9.20099509670733 | epot = -117.313042448408 | etot = -91.6664405626436
606000  ekin = 16.1733601636595 |  erot = 11.093246978186 | epot = -117.38446139491 | etot = -90.1178542530648
607000  ekin = 15.1981680377195 |  erot = 13.1805232503445 | epot = -117.510376798243 | etot = -89.1316855101794
608000  ekin = 14.0081061131211 |  erot = 13.7561125379848 | epot = -117.649547699418 | etot = -89.8853290483125
609000  ekin = 13.818830938552 |  erot = 14.2766924193893 | epot = -117.637467628634 | etot = -89.5419442706926
610000  ekin = 13.1121335077745 |  erot = 16.045118377416 | epot = -117.371219818667 | etot = -88.2139679334762
611000  ekin = 12.0976672808248 |  erot = 15.1858927078526 | epot = -116.858556378552 | etot = -89.5749963898744
612000  ekin = 11.9220029638036 |  erot = 13.3855104580498 | epot = -116.373946806847 | etot = -91.066433384994
613000  ekin = 11.3666160758114 |  erot = 13.2728981904756 | epot = -115.771250337883 | etot = -91.1317360715958
614000  ekin = 11.2524143895935 |  erot = 11.9009495049358 | epot = -115.241963454889 | etot = -92.0885995603595
615000  ekin = 11.1884819806374 |  erot = 13.6569860280969 | epot = -114.774782544834 | etot = -89.9293145360998
616000  ekin = 10.6499975272197 |  erot = 15.2013862540199 | epot = -114.309207967121 | etot = -88.4578241858816
617000  ekin = 10.4138402335121 |  erot = 15.0033070762677 | epot = -113.953877170139 | etot = -88.5367298603587
618000  ekin = 10.3874764562149 |  erot = 16.4172186143102 | epot = -113.710134407831 | etot = -86.905439337306
619000  ekin = 9.99028636695849 |  erot = 14.7274727636021 | epot = -113.508001683668 | etot = -88.7902425531073
620000  ekin = 10.3041883721209 |  erot = 13.8526750931187 | epot = -113.308536373256 | etot = -89.1516729080167
621000  ekin = 10.1555806788994 |  erot = 13.963035038534 | epot = -113.272222139053 | etot = -89.1536064216194
622000  ekin = 10.86693916419 |  erot = 14.0813122989611 | epot = -113.376374288736 | etot = -88.4281228255848
623000  ekin = 11.3859700250509 |  erot = 14.8524083294346 | epot = -113.589012852683 | etot = -87.3506344981977
624000  ekin = 11.6048296639596 |  erot = 13.5297803701118 | epot = -113.839931482373 | etot = -88.7053214483019
625000  ekin = 12.1696847808373 |  erot = 13.4945782229098 | epot = -114.125840311987 | etot = -88.4615773082402
626000  ekin = 13.3063758914076 |  erot = 11.0407694649289 | epot = -114.542707544126 | etot = -90.195562187789
627000  ekin = 14.0513781678418 |  erot = 12.9296572169748 | epot = -115.235963654475 | etot = -88.2549282696589
628000  ekin = 14.7386326295209 |  erot = 14.2733655885988 | epot = -116.140527364528 | etot = -87.1285291464083
629000  ekin = 16.0597037656505 |  erot = 14.8674132821056 | epot = -117.325470573689 | etot = -86.3983535259332
630000  ekin = 17.2708284639223 |  erot = 16.7113994079231 | epot = -118.67269157756 | etot = -84.6904637057142
631000  ekin = 19.0760838890113 |  erot = 17.1201987673922 | epot = -120.170898337672 | etot = -83.9746156812687
632000  ekin = 19.549583469596 |  erot = 16.7553102323763 | epot = -121.774107568747 | etot = -85.4692138667745
633000  ekin = 19.7557365237614 |  erot = 19.5052241200048 | epot = -123.382136946336 | etot = -84.1211763025696
634000  ekin = 20.3758046951383 |  erot = 20.4839422619294 | epot = -124.793264832696 | etot = -83.9335178756281
635000  ekin = 20.5084225289458 |  erot = 20.7141390055288 | epot = -126.044346489046 | etot = -84.8217849545716
636000  ekin = 21.1081835997456 |  erot = 21.7042260881149 | epot = -127.030253954489 | etot = -84.2178442666289
637000  ekin = 21.7890525197018 |  erot = 22.3611764197008 | epot = -127.462306332383 | etot = -83.3120773929799
638000  ekin = 22.8566093419233 |  erot = 23.1784344200364 | epot = -127.315216811043 | etot = -81.2801730490835
639000  ekin = 22.3429920008256 |  erot = 22.0459046291129 | epot = -126.706799479394 | etot = -82.3179028494555
640000  ekin = 22.6953942607299 |  erot = 20.8983710819614 | epot = -125.829760713803 | etot = -82.2359953711113
641000  ekin = 22.8439968772693 |  erot = 21.0740721959676 | epot = -124.721138440745 | etot = -80.8030693675081
642000  ekin = 22.1533451706583 |  erot = 21.1494022467433 | epot = -123.447161286469 | etot = -80.144413869067
643000  ekin = 21.5294868902541 |  erot = 20.1256715660592 | epot = -122.008233998322 | etot = -80.3530755420084
644000  ekin = 20.2303184656479 |  erot = 19.3407148019869 | epot = -120.681831167764 | etot = -81.1107979001294
645000  ekin = 19.4828971696373 |  erot = 19.0195806413955 | epot = -119.467917319826 | etot = -80.9654395087931
646000  ekin = 19.0662621367578 |  erot = 18.9888559285631 | epot = -118.272684937573 | etot = -80.2175668722518
647000  ekin = 18.6861208388155 |  erot = 16.4218027074871 | epot = -117.232865439236 | etot = -82.1249418929329
648000  ekin = 18.418772080989 |  erot = 16.1392001141573 | epot = -116.443271389682 | etot = -81.8852991945353
649000  ekin = 16.9720643990158 |  erot = 15.679285405117 | epot = -115.834634277679 | etot = -83.1832844735462
650000  ekin = 16.637818718134 |  erot = 17.4493822417518 | epot = -115.341820195353 | etot = -81.254619235467
651000  ekin = 16.7043030093967 |  erot = 16.7313546097741 | epot = -115.376079299152 | etot = -81.9404216799809
652000  ekin = 16.4646476925032 |  erot = 17.3683673741032 | epot = -115.48194607439 | etot = -81.6489310077834
653000  ekin = 15.8000469685932 |  erot = 17.0265265526311 | epot = -115.746812156879 | etot = -82.9202386356544
654000  ekin = 15.7743381483674 |  erot = 19.3876348309309 | epot = -116.186419410868 | etot = -81.0244464315693
655000  ekin = 15.6655810278436 |  erot = 19.2583049313345 | epot = -116.555885603646 | etot = -81.6319996444684
656000  ekin = 15.0368233093534 |  erot = 20.8003287973529 | epot = -116.82925763844 | etot = -80.9921055317338
657000  ekin = 15.1977678605749 |  erot = 22.5087472235756 | epot = -116.936596984334 | etot = -79.2300819001832
[...]
838000  ekin = 19.1740945620472 |  erot = 9.13223901034505 | epot = -125.035058601471 | etot = -96.7287250290788
839000  ekin = 19.7505157589066 |  erot = 9.63496380125181 | epot = -125.284451947216 | etot = -95.8989723870572
840000  ekin = 20.1471792177468 |  erot = 9.10187944827153 | epot = -125.534736495681 | etot = -96.2856778296631
841000  ekin = 19.6027548002793 |  erot = 8.52546960166535 | epot = -125.680127019133 | etot = -97.5519026171889
842000  ekin = 19.4863854237829 |  erot = 9.54974707904911 | epot = -125.695704153012 | etot = -96.6595716501799
843000  ekin = 19.155026075008 |  erot = 10.3127317669629 | epot = -125.588742330561 | etot = -96.12098448859
844000  ekin = 18.7487380479702 |  erot = 9.96785575488987 | epot = -125.34545235114 | etot = -96.6288585482803
845000  ekin = 18.2331914387742 |  erot = 9.53282016412031 | epot = -125.057985349926 | etot = -97.2919737470317
846000  ekin = 18.5216298811579 |  erot = 10.6765011499907 | epot = -124.75053142677 | etot = -95.5524003956219
847000  ekin = 17.6129752038445 |  erot = 11.1954358895151 | epot = -124.458389475805 | etot = -95.649978382445
848000  ekin = 17.8418961529153 |  erot = 13.3467675634966 | epot = -124.107460776295 | etot = -92.9187970598832
849000  ekin = 17.0906867018798 |  erot = 14.9412863530835 | epot = -123.797756965365 | etot = -91.7657839104019
850000  ekin = 16.5565760771884 |  erot = 16.3168424817122 | epot = -123.572248019221 | etot = -90.69882946032
851000  ekin = 16.3630368263058 |  erot = 17.241519847228 | epot = -123.335025531801 | etot = -89.7304688582673
852000  ekin = 15.9752556062866 |  erot = 17.7177869526889 | epot = -123.116884707468 | etot = -89.4238421484925
853000  ekin = 15.8668361896513 |  erot = 18.0092422853688 | epot = -122.872128188376 | etot = -88.9960497133555
854000  ekin = 15.8229688728036 |  erot = 18.0711771193 | epot = -122.5253434954 | etot = -88.6311975032962
855000  ekin = 15.9585783329093 |  erot = 18.7102931799029 | epot = -122.021344738748 | etot = -87.3524732259361
856000  ekin = 15.6873864921224 |  erot = 18.1729033343094 | epot = -121.461170358966 | etot = -87.6008805325342
857000  ekin = 15.4166200885964 |  erot = 18.1249802377734 | epot = -120.732895294045 | etot = -87.1912949676752
858000  ekin = 15.920319634723 |  erot = 17.2576511362215 | epot = -119.978117030039 | etot = -86.8001462590944
859000  ekin = 15.8396762585139 |  erot = 18.5696751038999 | epot = -119.31190868098 | etot = -84.9025573185659
860000  ekin = 15.5827603182971 |  erot = 18.7231746346669 | epot = -118.677135587555 | etot = -84.3712006345911
861000  ekin = 15.1722766838704 |  erot = 18.3361843793459 | epot = -118.024779075157 | etot = -84.5163180119404
862000  ekin = 15.0094595057786 |  erot = 18.888095695251 | epot = -117.561240138321 | etot = -83.6636849372913
863000  ekin = 16.3992141495581 |  erot = 19.0270095430012 | epot = -117.158995958539 | etot = -81.7327722659794
864000  ekin = 17.0456638476167 |  erot = 16.7973031691559 | epot = -116.781733582951 | etot = -82.9387665661782
865000  ekin = 17.6056841777089 |  erot = 14.0078111610621 | epot = -116.43066511917 | etot = -84.8171697803986
866000  ekin = 17.9448372652699 |  erot = 14.0693010157328 | epot = -116.126112398458 | etot = -84.1119741174554
867000  ekin = 18.2732015455461 |  erot = 13.244034526719 | epot = -115.888005802281 | etot = -84.3707697300162
868000  ekin = 18.2849597704299 |  erot = 12.9928912198279 | epot = -115.682028470573 | etot = -84.4041774803151
869000  ekin = 17.7524383551921 |  erot = 12.0043148955387 | epot = -115.581878837995 | etot = -85.8251255872641
870000  ekin = 18.12155333597 |  erot = 11.1888007724603 | epot = -115.508894436749 | etot = -86.1985403283188
871000  ekin = 18.7002477332545 |  erot = 11.3537342736374 | epot = -115.469320490239 | etot = -85.4153384833468
872000  ekin = 18.3281851410687 |  erot = 11.3049334382773 | epot = -115.522508538055 | etot = -85.8893899587089
873000  ekin = 18.9326956575937 |  erot = 11.6721180224957 | epot = -115.602256457199 | etot = -84.9974427771099
874000  ekin = 18.8522970516783 |  erot = 11.911050725311 | epot = -115.846744057966 | etot = -85.0833962809767
875000  ekin = 18.4229796561767 |  erot = 11.8729396239959 | epot = -116.074179417696 | etot = -85.7782601375235
876000  ekin = 18.7082371539651 |  erot = 12.516865025384 | epot = -116.343864328932 | etot = -85.1187621495826
877000  ekin = 18.3022205400887 |  erot = 13.6432909766226 | epot = -116.743995963962 | etot = -84.7984844472511
878000  ekin = 18.6015825941817 |  erot = 13.8971846266847 | epot = -117.366355702891 | etot = -84.867588482025
879000  ekin = 17.9525634287373 |  erot = 12.9414239809514 | epot = -118.014864660128 | etot = -87.120877250439
880000  ekin = 18.3766039136358 |  erot = 14.5500115107006 | epot = -118.764298269044 | etot = -85.8376828447072
881000  ekin = 17.262513355404 |  erot = 14.9536600733876 | epot = -119.565385720242 | etot = -87.3492122914507
882000  ekin = 16.7762235931364 |  erot = 14.5097084376052 | epot = -120.289225623202 | etot = -89.0032935924604
883000  ekin = 15.8395576604101 |  erot = 15.8361420619882 | epot = -120.824117258563 | etot = -89.148417536165
884000  ekin = 15.5937774075175 |  erot = 13.8227021338877 | epot = -121.099783610957 | etot = -91.6833040695522
885000  ekin = 14.9813853737919 |  erot = 13.3756451967454 | epot = -121.078780185378 | etot = -92.7217496148406
886000  ekin = 14.5031068301856 |  erot = 13.5060136353071 | epot = -120.843158893017 | etot = -92.8340384275241
887000  ekin = 14.6650536360114 |  erot = 13.7553660443201 | epot = -120.357347236274 | etot = -91.9369275559425
888000  ekin = 14.1759873663133 |  erot = 14.4716353583819 | epot = -119.759474461657 | etot = -91.1118517369617
889000  ekin = 14.1111904475878 |  erot = 12.7620258712917 | epot = -119.106732143149 | etot = -92.2335158242697
890000  ekin = 13.5338966496054 |  erot = 14.264867338732 | epot = -118.366576823951 | etot = -90.567812835614
891000  ekin = 12.589910875445 |  erot = 16.09351402541 | epot = -117.697261254063 | etot = -89.0138363532079
892000  ekin = 12.367696657161 |  erot = 14.8343112464362 | epot = -117.114979792313 | etot = -89.9129718887153
893000  ekin = 11.8888199540295 |  erot = 15.5619355677984 | epot = -116.569736465347 | etot = -89.1189809435189
894000  ekin = 12.0695922005297 |  erot = 14.1768659854505 | epot = -116.193015287478 | etot = -89.9465571014977
895000  ekin = 12.0137012689767 |  erot = 14.7176843341314 | epot = -116.049279411988 | etot = -89.3178938088798
896000  ekin = 12.0457177984029 |  erot = 15.0690385660324 | epot = -116.226063999879 | etot = -89.1113076354438
897000  ekin = 11.9649944708071 |  erot = 16.7585652239991 | epot = -116.547901475597 | etot = -87.8243417807911
898000  ekin = 12.4125505791435 |  erot = 16.0288167842045 | epot = -116.877747709982 | etot = -88.4363803466339
899000  ekin = 12.7913647101517 |  erot = 16.2599665436297 | epot = -117.22389856283 | etot = -88.1725673090489
900000  ekin = 12.7213203733162 |  erot = 15.9346879561939 | epot = -117.525910997654 | etot = -88.8699026681444
901000  ekin = 13.3925140460675 |  erot = 13.0898105027757 | epot = -117.79105806064 | etot = -91.3087335117963
902000  ekin = 13.5974591701383 |  erot = 12.6629036844613 | epot = -118.166495804444 | etot = -91.9061329498441
903000  ekin = 13.8239248106963 |  erot = 12.9097445050843 | epot = -118.503808290443 | etot = -91.7701389746622
904000  ekin = 13.9003237222555 |  erot = 12.7187951249901 | epot = -118.954435028969 | etot = -92.3353161817234
905000  ekin = 13.8484759023217 |  erot = 14.4414990804685 | epot = -119.555904078968 | etot = -91.2659290961777
906000  ekin = 14.0709567230086 |  erot = 17.1395182144883 | epot = -120.256597236867 | etot = -89.0461222993702
907000  ekin = 13.0525497710419 |  erot = 17.0435686835159 | epot = -120.833284821664 | etot = -90.7371663671067
908000  ekin = 13.5011032375864 |  erot = 17.4068087159159 | epot = -121.378539430815 | etot = -90.4706274773124
909000  ekin = 13.0477752122483 |  erot = 17.3551032189452 | epot = -121.944468320843 | etot = -91.5415898896497
910000  ekin = 13.0734564213323 |  erot = 17.7240098890034 | epot = -122.455605036845 | etot = -91.6581387265093
911000  ekin = 12.9549554196173 |  erot = 18.5309639253154 | epot = -122.885520670757 | etot = -91.3996013258247
912000  ekin = 12.9071827432122 |  erot = 19.3038132220738 | epot = -123.295755441277 | etot = -91.0847594759915
913000  ekin = 12.873639651769 |  erot = 17.6447968514768 | epot = -123.591389017518 | etot = -93.0729525142721
914000  ekin = 13.2090327600462 |  erot = 18.6146303397366 | epot = -123.77613155181 | etot = -91.9524684520271
915000  ekin = 13.7372183863305 |  erot = 16.6833035864293 | epot = -123.924888819256 | etot = -93.5043668464961
916000  ekin = 13.3061011890743 |  erot = 15.5577380665692 | epot = -124.029742172947 | etot = -95.1659029173032
917000  ekin = 12.890908113948 |  erot = 15.6377285599624 | epot = -124.171723385822 | etot = -95.6430867119113
918000  ekin = 13.2538313269488 |  erot = 15.4177757921272 | epot = -124.357165714437 | etot = -95.6855585953608
919000  ekin = 14.0444948242936 |  erot = 15.0452292964814 | epot = -124.576101947629 | etot = -95.4863778268544
920000  ekin = 14.0410127504381 |  erot = 13.9634869300633 | epot = -124.738136118335 | etot = -96.7336364378338
921000  ekin = 14.1551987065811 |  erot = 12.3941306059594 | epot = -125.088498782391 | etot = -98.5391694698508
922000  ekin = 14.2276920732135 |  erot = 15.0327547601353 | epot = -125.526288759493 | etot = -96.2658419261437
923000  ekin = 14.3552438210034 |  erot = 14.1363941405235 | epot = -126.12829028672 | etot = -97.6366523251935
924000  ekin = 14.5041705296654 |  erot = 15.9619253409903 | epot = -126.843033999763 | etot = -96.3769381291074
925000  ekin = 14.5400944209119 |  erot = 17.4997296566513 | epot = -127.507177319307 | etot = -95.4673532417434
926000  ekin = 14.6046327805672 |  erot = 17.1373142992145 | epot = -128.134692034914 | etot = -96.392744955132
927000  ekin = 14.6215715719242 |  erot = 16.8724972360635 | epot = -128.740987589665 | etot = -97.2469187816775
928000  ekin = 14.6396595729414 |  erot = 17.1396439909469 | epot = -129.209041498762 | etot = -97.4297379348733
929000  ekin = 13.808814016571 |  erot = 18.5482425791424 | epot = -129.59969540295 | etot = -97.2426388072368
930000  ekin = 13.3703713100728 |  erot = 18.6606507891562 | epot = -129.760150362545 | etot = -97.7291282633159
931000  ekin = 13.1805297982085 |  erot = 19.545741585529 | epot = -129.743156282366 | etot = -97.0168848986289
932000  ekin = 13.2649592845646 |  erot = 17.8574402167804 | epot = -129.645087354661 | etot = -98.5226878533157
933000  ekin = 12.9607863802779 |  erot = 16.307893445402 | epot = -129.63857938217 | etot = -100.36989955649
934000  ekin = 12.4022727576482 |  erot = 17.8774718578769 | epot = -129.637637094327 | etot = -99.3578924788016
935000  ekin = 12.2995741285428 |  erot = 14.8343045174739 | epot = -129.628654926379 | etot = -102.494776280362
936000  ekin = 12.3522202641654 |  erot = 13.1781575590471 | epot = -129.751598147133 | etot = -104.221220323921
937000  ekin = 12.8178813976735 |  erot = 13.3255184079132 | epot = -130.052677130556 | etot = -103.90927732497
938000  ekin = 13.6621340607039 |  erot = 15.3154449818888 | epot = -130.403259068065 | etot = -101.425680025473
939000  ekin = 14.2055416406367 |  erot = 15.7669887777399 | epot = -130.71799989098 | etot = -100.745469472603
940000  ekin = 14.6172332568569 |  erot = 15.1413456776972 | epot = -130.980505941845 | etot = -101.221927007291
941000  ekin = 14.7993386129929 |  erot = 12.9776335555139 | epot = -131.272247687568 | etot = -103.495275519061
942000  ekin = 15.5335296614623 |  erot = 14.077753507083 | epot = -131.64827113102 | etot = -102.036987962475
943000  ekin = 15.8153674520153 |  erot = 13.8900929959998 | epot = -132.104615249043 | etot = -102.399154801027
944000  ekin = 15.995840679904 |  erot = 13.2503963107949 | epot = -132.383467447975 | etot = -103.137230457276
945000  ekin = 16.9506733718874 |  erot = 13.0128057924875 | epot = -132.814341083772 | etot = -102.850861919398
946000  ekin = 17.2683330453948 |  erot = 12.2206111801736 | epot = -133.190147697266 | etot = -103.701203471697
947000  ekin = 18.2654627390238 |  erot = 12.607864411813 | epot = -133.437356622139 | etot = -102.564029471302
948000  ekin = 18.9247564734275 |  erot = 10.7958947548298 | epot = -133.491427845306 | etot = -103.770776617049
949000  ekin = 19.0156199461051 |  erot = 10.4720682695147 | epot = -133.362034264067 | etot = -103.874346048447
950000  ekin = 18.6246087033182 |  erot = 13.6364514367478 | epot = -133.04549769442 | etot = -100.784437554354
951000  ekin = 18.6927083514433 |  erot = 13.6661715172821 | epot = -132.47325327942 | etot = -100.114373410695
952000  ekin = 18.3844441390729 |  erot = 13.8860557825372 | epot = -131.51579451266 | etot = -99.2452945910494
953000  ekin = 17.8871996339964 |  erot = 15.3325866197267 | epot = -130.276129986655 | etot = -97.0563437329319
954000  ekin = 16.8413865084877 |  erot = 14.9334765987234 | epot = -128.903833142085 | etot = -97.1289700348742
955000  ekin = 15.7491647284399 |  erot = 13.5522552230972 | epot = -127.637147734617 | etot = -98.3357277830796
956000  ekin = 15.0316123603932 |  erot = 13.0118712405706 | epot = -126.594426180261 | etot = -98.5509425792974
957000  ekin = 13.9511166207686 |  erot = 12.8079283002139 | epot = -125.829517110607 | etot = -99.0704721896241
958000  ekin = 13.3400958629755 |  erot = 12.8632040396806 | epot = -125.202163021613 | etot = -98.9988631189573
959000  ekin = 12.3250795668259 |  erot = 12.4564269151362 | epot = -124.933673005766 | etot = -100.152166523804
960000  ekin = 11.692935434419 |  erot = 13.0608145327809 | epot = -124.894940531961 | etot = -100.141190564761
961000  ekin = 11.1176175414437 |  erot = 14.4883300738387 | epot = -124.970867463286 | etot = -99.3649198480031
962000  ekin = 10.411109427009 |  erot = 16.3322519853867 | epot = -125.234118963607 | etot = -98.4907575512117
963000  ekin = 9.3402588646206 |  erot = 16.0988706764342 | epot = -125.397678792901 | etot = -99.9585492518461
964000  ekin = 9.16866022508975 |  erot = 17.2216753836534 | epot = -125.348930629784 | etot = -98.9585950210411
965000  ekin = 8.68918272510296 |  erot = 17.3709063020777 | epot = -125.23288520793 | etot = -99.1727961807491
966000  ekin = 8.81826896074676 |  erot = 14.5745151863203 | epot = -125.032911211113 | etot = -101.640127064046
967000  ekin = 8.9569030293131 |  erot = 14.2045669524529 | epot = -124.84250103047 | etot = -101.681031048704
968000  ekin = 9.54853320838666 |  erot = 13.2723352951195 | epot = -124.74515666583 | etot = -101.924288162324
969000  ekin = 9.4502437687464 |  erot = 14.3945740263151 | epot = -124.682399280719 | etot = -100.837581485658
970000  ekin = 9.21873366215398 |  erot = 13.9996220324049 | epot = -124.744791785532 | etot = -101.526436090974
971000  ekin = 9.99365012208013 |  erot = 12.832841266649 | epot = -125.082193628276 | etot = -102.255702239547
972000  ekin = 10.8531518844497 |  erot = 10.1692890940719 | epot = -125.661646459223 | etot = -104.639205480702
973000  ekin = 12.2157559658085 |  erot = 10.8538801407932 | epot = -126.544527982808 | etot = -103.474891876206
974000  ekin = 12.8260432549802 |  erot = 10.3799360087168 | epot = -127.611569187676 | etot = -104.405589923979
975000  ekin = 13.6580394236602 |  erot = 11.9432331482014 | epot = -128.916385945886 | etot = -103.315113374025
976000  ekin = 14.9533034244138 |  erot = 13.0781940579022 | epot = -130.386531138976 | etot = -102.35503365666
977000  ekin = 16.1302157200235 |  erot = 11.728247443694 | epot = -131.809854533652 | etot = -103.951391369934
978000  ekin = 17.4131006781175 |  erot = 12.2883320926868 | epot = -133.127724933689 | etot = -103.426292162884
979000  ekin = 18.3408340925242 |  erot = 12.638307739685 | epot = -134.299556644019 | etot = -103.32041481181
980000  ekin = 18.486099268637 |  erot = 11.4553544827387 | epot = -135.258651277385 | etot = -105.31719752601
981000  ekin = 18.3977271567707 |  erot = 10.6940239109833 | epot = -135.863204035817 | etot = -106.771452968063
982000  ekin = 18.264195125121 |  erot = 11.8519030299459 | epot = -136.325677964425 | etot = -106.209579809358
983000  ekin = 18.2336771349386 |  erot = 11.5789339214239 | epot = -136.608013715885 | etot = -106.795402659523
984000  ekin = 18.0795330780538 |  erot = 10.8886569682827 | epot = -136.787086300594 | etot = -107.818896254257
985000  ekin = 18.3215007661408 |  erot = 11.1826156263063 | epot = -136.893675411741 | etot = -107.389559019294
986000  ekin = 18.9278184735634 |  erot = 10.2084663205533 | epot = -136.842552426241 | etot = -107.706267632124
987000  ekin = 19.2070490323178 |  erot = 10.3450839761618 | epot = -136.728820076786 | etot = -107.176687068307
988000  ekin = 19.3393384968811 |  erot = 13.1094542662134 | epot = -136.487574308696 | etot = -104.038781545602
989000  ekin = 18.8692607694595 |  erot = 10.804304167891 | epot = -136.128710512953 | etot = -106.455145575602
990000  ekin = 19.1296994352489 |  erot = 11.0871442087597 | epot = -135.566590211579 | etot = -105.349746567571
991000  ekin = 19.2058799885993 |  erot = 10.5863233864291 | epot = -134.828724859505 | etot = -105.036521484476
992000  ekin = 18.6626052074925 |  erot = 9.94438664060896 | epot = -134.114003323149 | etot = -105.507011475048
993000  ekin = 18.2986732324755 |  erot = 12.5751167790973 | epot = -133.457845849078 | etot = -102.584055837505
994000  ekin = 18.9118804426949 |  erot = 16.3587861176306 | epot = -132.884788625388 | etot = -97.6141220650621
995000  ekin = 18.8780869759588 |  erot = 14.201731801613 | epot = -132.323032403657 | etot = -99.243213626085
996000  ekin = 19.0405880064438 |  erot = 12.7388574752212 | epot = -131.843357344105 | etot = -100.06391186244
997000  ekin = 18.2614854697624 |  erot = 12.4531767028895 | epot = -131.423862770818 | etot = -100.709200598166
998000  ekin = 17.4819080210013 |  erot = 11.3300069724737 | epot = -130.959892229695 | etot = -102.14797723622
999000  ekin = 17.0511128282761 |  erot = 11.8922913066054 | epot = -130.533301683943 | etot = -101.589897549061
1000000  ekin = 16.4176868113516 |  erot = 10.505891115617 | epot = -130.086633390017 | etot = -103.163055463049
   1000000   367.18625     -134.96443      4.8777959     -113.66895     -0.029625089    39304000     
Loop time of 26.4037 on 4 procs for 1000000 steps with 16 atoms

Performance: 55.825 ns/day, 0.430 hours/ns, 37873.477 timesteps/s, 605.976 katom-step/s
99.4% CPU use with 4 MPI tasks x no OpenMP threads

MPI task timing breakdown:
Section |  min time  |  avg time  |  max time  |%varavg| %total
---------------------------------------------------------------
Pair    | 8.0347     | 10.957     | 16.143     |  93.9 | 41.50
Bond    | 0.3256     | 0.38079    | 0.42679    |   6.8 |  1.44
Neigh   | 0.021142   | 0.021313   | 0.021466   |   0.1 |  0.08
Comm    | 5.5113     | 11.003     | 14.141     | 100.0 | 41.67
Output  | 0.091898   | 0.097995   | 0.11134    |   2.5 |  0.37
Modify  | 1.3872     | 1.6961     | 1.9792     |  21.0 |  6.42
Other   |            | 2.247      |            |       |  8.51

Nlocal:              4 ave           6 max           2 min
Histogram: 2 0 0 0 0 0 0 0 0 2
Nghost:             12 ave          14 max          10 min
Histogram: 2 0 0 0 0 0 0 0 0 2
Neighs:          26.25 ave          67 max           8 min
Histogram: 1 2 0 0 0 0 0 0 0 1

Total # of neighbors = 105
Ave neighs/atom = 6.5625
Ave special neighs/atom = 3.75
Neighbor list builds = 1000
Dangerous builds = 0

write_data last_config.${number}.* nocoeff
write_data last_config.2.* nocoeff
System init for write_data ...
Generated 0 of 6 mixed pair_coeff terms from geometric mixing rule
#write_restart last_config.${number}.*
Total wall time: 0:00:26
