LAMMPS data file via write_data, version 2 Jul 2021

148 atoms
4 atom types
148 bonds
1 bond types
148 ellipsoids

0 100 xlo xhi
0 100 ylo yhi
0 100 zlo zhi

Masses

1 3.1575
2 3.1575
3 3.1575
4 3.1575

Atoms # hybrid

1 1 24.4563103076585 24.545468489552267 25.008405986404544 1 1 3.7269849963023267 0 0 0
2 4 24.529799925849524 24.236299729034574 25.438869726984304 1 1 3.7269849963023267 0 0 0
3 3 24.837268545282573 23.98498105692614 25.841653825869834 1 1 3.7269849963023267 0 0 0
4 2 25.160243408748546 23.990448143707216 26.252262907702004 1 1 3.7269849963023267 0 0 0
5 1 25.511800888983288 24.20297091581725 26.46953407064928 1 1 3.7269849963023267 0 0 0
6 2 25.746069731378416 24.53734405670471 26.70776555674676 1 1 3.7269849963023267 0 0 0
7 3 25.808044471759384 24.911661509909727 27.06389642784591 1 1 3.7269849963023267 0 0 0
8 2 25.702150220414598 25.16021735315657 27.552609445175545 1 1 3.7269849963023267 0 0 0
9 4 25.86583558481563 25.223272838133713 28.134182300485513 1 1 3.7269849963023267 0 0 0
10 2 25.80332921740182 25.045832983472046 28.610009845867623 1 1 3.7269849963023267 0 0 0
11 3 25.910927625439783 24.67877553909445 29.01481046441401 1 1 3.7269849963023267 0 0 0
12 2 26.258738827371122 24.424202368909146 29.31202041427481 1 1 3.7269849963023267 0 0 0
13 2 26.685861178879446 24.203670648569435 29.53932592988526 1 1 3.7269849963023267 0 0 0
14 1 27.213655907159712 24.05889335581843 29.529355686667273 1 1 3.7269849963023267 0 0 0
15 2 27.732458381354213 24.12301887416258 29.465296878682626 1 1 3.7269849963023267 0 0 0
16 3 28.176435469098767 24.39188111290902 29.295132944313664 1 1 3.7269849963023267 0 0 0
17 1 28.526140016035093 24.71780561439453 29.306758099194106 1 1 3.7269849963023267 0 0 0
18 4 28.81297070371788 25.156085631242032 29.41241337896862 1 1 3.7269849963023267 0 0 0
19 2 29.207268942683253 25.464359514737925 29.764217600427827 1 1 3.7269849963023267 0 0 0
20 4 29.513927400101824 25.6118524234793 30.245210919346164 1 1 3.7269849963023267 0 0 0
21 2 30.003254698861596 25.548164315889366 30.532777142800704 1 1 3.7269849963023267 0 0 0
22 3 30.48018822794972 25.262106981177638 30.605441832922853 1 1 3.7269849963023267 0 0 0
23 1 30.892907579242564 24.96400488333011 30.400187079758883 1 1 3.7269849963023267 0 0 0
24 1 31.272921417837917 24.75606240152481 30.084591571801752 1 1 3.7269849963023267 0 0 0
25 2 31.45980735195335 24.678047303787324 29.516918385152074 1 1 3.7269849963023267 0 0 0
26 3 31.706752399918585 24.760376327238674 29.084205170613252 1 1 3.7269849963023267 0 0 0
27 1 31.825883349902693 25.019554534293842 28.71228151368503 1 1 3.7269849963023267 0 0 0
28 4 32.03386829513462 25.369633243002873 28.451125390816088 1 1 3.7269849963023267 0 0 0
29 3 32.53689331378325 25.61089652717825 28.295900822185594 1 1 3.7269849963023267 0 0 0
30 2 33.06271263659326 25.774152791508687 28.273746725064125 1 1 3.7269849963023267 0 0 0
31 4 33.52142887694454 25.601797466727078 28.11055235018921 1 1 3.7269849963023267 0 0 0
32 2 33.91568709239206 25.283711279253097 27.8909943443993 1 1 3.7269849963023267 0 0 0
33 1 34.177641179115845 25.004593725832265 27.451561879204412 1 1 3.7269849963023267 0 0 0
34 4 34.208626385427706 24.707495330231843 27.048442321724874 1 1 3.7269849963023267 0 0 0
35 2 34.082012453158825 24.505795567094143 26.61473051581215 1 1 3.7269849963023267 0 0 0
36 4 33.949520365838396 24.526137035750864 26.16790391788176 1 1 3.7269849963023267 0 0 0
37 2 33.92476566121366 24.592689183725792 25.626516502507826 1 1 3.7269849963023267 0 0 0
38 4 33.85225391322309 24.960947839094587 25.26017383231366 1 1 3.7269849963023267 0 0 0
39 3 34.11228837744851 25.35347319831364 24.942278784477317 1 1 3.7269849963023267 0 0 0
40 1 34.36033208544573 25.757747127699123 24.601914493641434 1 1 3.7269849963023267 0 0 0
41 4 34.68447265108969 25.75281386419404 24.241508437854133 1 1 3.7269849963023267 0 0 0
42 2 34.79269490735618 25.623672790695387 23.678538924804666 1 1 3.7269849963023267 0 0 0
43 1 34.753741466077045 25.337233303593457 23.16601298167167 1 1 3.7269849963023267 0 0 0
44 4 34.59181548863591 24.986079417371133 22.755301708206787 1 1 3.7269849963023267 0 0 0
45 4 34.40879419362997 24.630898502963813 22.55999758905835 1 1 3.7269849963023267 0 0 0
46 2 33.90877081260677 24.454255308291586 22.480370414000724 1 1 3.7269849963023267 0 0 0
47 3 33.389994748568355 24.448033629140625 22.400237534903862 1 1 3.7269849963023267 0 0 0
48 3 32.92270356937016 24.68336387187774 22.32934654102368 1 1 3.7269849963023267 0 0 0
49 1 32.45576642621448 24.99545345297995 22.22583331074809 1 1 3.7269849963023267 0 0 0
50 4 32.18015654347581 25.250534381556076 21.872483225748145 1 1 3.7269849963023267 0 0 0
51 2 31.963112737103277 25.40181159513097 21.39874463404153 1 1 3.7269849963023267 0 0 0
52 2 31.677804642093392 25.364851924896104 20.875873168885278 1 1 3.7269849963023267 0 0 0
53 3 31.39441653928761 25.115305865863796 20.473551707902534 1 1 3.7269849963023267 0 0 0
54 2 30.920751116009413 24.90955329317796 20.247774626492223 1 1 3.7269849963023267 0 0 0
55 2 30.433930757552503 24.49259165599716 20.285516091786025 1 1 3.7269849963023267 0 0 0
56 1 29.927593328854318 24.417379016374497 20.44729306614509 1 1 3.7269849963023267 0 0 0
57 1 29.468689211209185 24.356983174590244 20.73481874763059 1 1 3.7269849963023267 0 0 0
58 4 29.05647892922904 24.518592766825268 21.008770793972737 1 1 3.7269849963023267 0 0 0
59 3 28.71710307148458 24.823751059656175 21.267189817160382 1 1 3.7269849963023267 0 0 0
60 2 28.475966743694585 25.270452656180346 21.345694213935065 1 1 3.7269849963023267 0 0 0
61 3 28.13628879031047 25.66658729399272 21.21785093681449 1 1 3.7269849963023267 0 0 0
62 2 27.601021447013018 25.768855335649704 21.03779448055474 1 1 3.7269849963023267 0 0 0
63 2 27.00931772523695 25.617172753906647 20.911648911662837 1 1 3.7269849963023267 0 0 0
64 1 26.55519195243888 25.359523630164194 20.975378082063024 1 1 3.7269849963023267 0 0 0
65 4 26.273989173217412 24.94557093741794 21.304033513543096 1 1 3.7269849963023267 0 0 0
66 2 26.221914749013006 24.585776360115993 21.63789003190145 1 1 3.7269849963023267 0 0 0
67 4 26.193438361250763 24.376750813571793 22.050097162808477 1 1 3.7269849963023267 0 0 0
68 3 26.201324065482883 24.325450386461092 22.606452770336915 1 1 3.7269849963023267 0 0 0
69 4 26.17471898214314 24.575749724802375 23.091585548564353 1 1 3.7269849963023267 0 0 0
70 2 26.02335082849493 24.908257401252587 23.529107108416536 1 1 3.7269849963023267 0 0 0
71 3 25.651267664730547 25.192079918693462 23.831752862227333 1 1 3.7269849963023267 0 0 0
72 2 25.217003840349953 25.339279875756237 24.059449373495085 1 1 3.7269849963023267 0 0 0
73 3 24.821858366366477 25.32373878201269 24.349325228837248 1 1 3.7269849963023267 0 0 0
74 2 24.52371941046921 25.002103481686692 24.640726114051727 1 1 3.7269849963023267 0 0 0
75 3 25.598009016668964 24.518873693595243 24.91882101447603 2 1 3.7269849963023267 0 0 0
76 2 25.427238756513358 24.301007582224713 24.44316375014865 2 1 3.7269849963023267 0 0 0
77 3 25.064917226893478 24.1744996693387 24.04114053737127 2 1 3.7269849963023267 0 0 0
78 2 24.935835560058162 24.310630170294576 23.497873361870962 2 1 3.7269849963023267 0 0 0
79 3 24.947052458805103 24.604993171264848 23.080111757564428 2 1 3.7269849963023267 0 0 0
80 1 25.108221368921303 24.93987851339803 22.78466627575098 2 1 3.7269849963023267 0 0 0
81 2 25.567029051298007 25.336883558925546 22.613483665009124 2 1 3.7269849963023267 0 0 0
82 1 25.977933802261195 25.494884341698153 22.361177765359677 2 1 3.7269849963023267 0 0 0
83 3 26.51585409198948 25.56882274198199 22.270702612866675 2 1 3.7269849963023267 0 0 0
84 1 26.898094042158256 25.43126923497678 22.136142593902736 2 1 3.7269849963023267 0 0 0
85 4 27.2282338544016 25.03939058206712 21.975004266020655 2 1 3.7269849963023267 0 0 0
86 3 27.45312307645279 24.76234771560634 21.573973110116803 2 1 3.7269849963023267 0 0 0
87 3 27.601433385556053 24.56156448386474 21.121284432422822 2 1 3.7269849963023267 0 0 0
88 2 27.887087703479907 24.639659406696175 20.647423041744478 2 1 3.7269849963023267 0 0 0
89 3 28.261596261597024 24.878830990697377 20.262074903970543 2 1 3.7269849963023267 0 0 0
90 2 28.669247681666896 25.241598582808898 20.13595769437227 2 1 3.7269849963023267 0 0 0
91 1 29.162947101827424 25.46126020981763 20.29119476534042 2 1 3.7269849963023267 0 0 0
92 4 29.626827720432082 25.569578560516256 20.521043387351114 2 1 3.7269849963023267 0 0 0
93 4 29.94106479726571 25.46437861463676 20.945812440078498 2 1 3.7269849963023267 0 0 0
94 3 30.29025124351676 25.13135267765501 21.293123410503096 2 1 3.7269849963023267 0 0 0
95 3 30.69726706273153 24.79296975393911 21.37843871066455 2 1 3.7269849963023267 0 0 0
96 2 31.065205835301647 24.466654538309413 21.38217937265794 2 1 3.7269849963023267 0 0 0
97 3 31.47949349145455 24.235044344783937 21.207303357880345 2 1 3.7269849963023267 0 0 0
98 3 32.0141851785801 24.199047010891896 21.144063603619387 2 1 3.7269849963023267 0 0 0
99 1 32.531553756690144 24.430680075450717 21.057107964598707 2 1 3.7269849963023267 0 0 0
100 4 32.98962179526399 24.778596160926984 21.144383998305358 2 1 3.7269849963023267 0 0 0
101 2 33.412089437390414 25.16978981992855 21.366097445928173 2 1 3.7269849963023267 0 0 0
102 2 33.64688673923798 25.416880152326826 21.80823145369244 2 1 3.7269849963023267 0 0 0
103 3 33.73260009980956 25.581799927882354 22.284949811529895 2 1 3.7269849963023267 0 0 0
104 1 33.71190505788351 25.621797401531534 22.839310166247465 2 1 3.7269849963023267 0 0 0
105 1 33.57308722698115 25.405379008714707 23.245158668130212 2 1 3.7269849963023267 0 0 0
106 4 33.690827355981554 25.10089414752484 23.595216498164593 2 1 3.7269849963023267 0 0 0
107 3 34.01115578964591 24.78647396522056 23.89598110848665 2 1 3.7269849963023267 0 0 0
108 1 34.484013716732484 24.626220866364136 24.174215444712242 2 1 3.7269849963023267 0 0 0
109 4 34.990266640570965 24.69448985833302 24.562811124280305 2 1 3.7269849963023267 0 0 0
110 2 35.145896903493316 24.793241326024813 25.04385957026009 2 1 3.7269849963023267 0 0 0
111 1 35.06860532892695 25.048723590439906 25.570332580544218 2 1 3.7269849963023267 0 0 0
112 3 34.935175985993084 25.335540132080055 26.006545003503096 2 1 3.7269849963023267 0 0 0
113 1 34.49657428034769 25.607489233067064 26.123731584378923 2 1 3.7269849963023267 0 0 0
114 3 34.0132432396664 25.732289222865404 26.321416792125166 2 1 3.7269849963023267 0 0 0
115 1 33.58776734894964 25.62064953889948 26.688539619472973 2 1 3.7269849963023267 0 0 0
116 4 33.15654425248354 25.338672553764333 26.826329665315537 2 1 3.7269849963023267 0 0 0
117 3 32.9076504056509 24.991331214323903 27.228446976881234 2 1 3.7269849963023267 0 0 0
118 1 32.9297689116334 24.632517190191024 27.681355827816688 2 1 3.7269849963023267 0 0 0
119 3 33.00216450637092 24.55541285047072 28.22302417752094 2 1 3.7269849963023267 0 0 0
120 2 32.9420586075282 24.60559201752168 28.777865869642905 2 1 3.7269849963023267 0 0 0
121 1 32.83738319038634 24.94702033575836 29.307330619456266 2 1 3.7269849963023267 0 0 0
122 4 32.57977335421255 25.328020610731436 29.570214128887336 2 1 3.7269849963023267 0 0 0
123 2 32.17061122190304 25.708023527353955 29.63983317809503 2 1 3.7269849963023267 0 0 0
124 3 31.636567367502767 25.872024842140746 29.617831484163407 2 1 3.7269849963023267 0 0 0
125 4 31.132545834345493 25.788771465761464 29.473140927527755 2 1 3.7269849963023267 0 0 0
126 4 30.66416343932506 25.546908667108468 29.387529102708452 2 1 3.7269849963023267 0 0 0
127 2 30.33924138958816 25.185314142044398 29.432101524801457 2 1 3.7269849963023267 0 0 0
128 3 30.21851533734297 24.75102015597501 29.680917821332173 2 1 3.7269849963023267 0 0 0
129 1 29.83055401261429 24.475918281129495 29.97162814225401 2 1 3.7269849963023267 0 0 0
130 3 29.249485560956284 24.357720612933235 30.18837063610894 2 1 3.7269849963023267 0 0 0
131 1 28.781676718751342 24.49568907629974 30.44184869682069 2 1 3.7269849963023267 0 0 0
132 4 28.36450096738524 24.685434120589196 30.49743020497358 2 1 3.7269849963023267 0 0 0
133 2 27.894551946623423 24.837727188738235 30.34711720087607 2 1 3.7269849963023267 0 0 0
134 3 27.508292857728566 25.088322909380263 30.133245922971607 2 1 3.7269849963023267 0 0 0
135 4 27.241346180997713 25.267053075592756 29.64178369349919 2 1 3.7269849963023267 0 0 0
136 3 27.218818800921397 25.215081113349864 29.159907670904147 2 1 3.7269849963023267 0 0 0
137 3 27.02933155098957 25.112497188942573 28.675346059869035 2 1 3.7269849963023267 0 0 0
138 2 26.851977504610755 24.71938899539783 28.28526582883007 2 1 3.7269849963023267 0 0 0
139 3 26.59180773435854 24.392121015039574 28.0315153318485 2 1 3.7269849963023267 0 0 0
140 1 26.144076290879692 24.12025957614224 27.88788013894524 2 1 3.7269849963023267 0 0 0
141 3 25.563811431446247 24.027906044413065 27.791736909825648 2 1 3.7269849963023267 0 0 0
142 2 25.048444082139802 24.144918544702442 27.595417884995534 2 1 3.7269849963023267 0 0 0
143 3 24.69600398710859 24.44583357467624 27.405053085397356 2 1 3.7269849963023267 0 0 0
144 4 24.59744299188776 24.858825457742554 26.955781464492944 2 1 3.7269849963023267 0 0 0
145 3 24.65773864962153 25.059994502648383 26.46669248676088 2 1 3.7269849963023267 0 0 0
146 2 24.90063749440873 25.167665448384763 26.07330419183128 2 1 3.7269849963023267 0 0 0
147 1 25.21727161694257 25.10782115845074 25.724713610577954 2 1 3.7269849963023267 0 0 0
148 4 25.488411823654253 24.90982270275774 25.296797991603025 2 1 3.7269849963023267 0 0 0

Velocities

1 0.08300068618267588 -0.08831129011166566 -0.05545809946732253 0.10981673333707669 -0.10652089222623992 0.007086521419025317
2 -0.15788612600490118 0.05171811236444691 -0.031622138456419494 -0.23463557994913956 0.21229724181245807 -0.10490900742719046
3 -0.06587335505805957 0.0429690329809904 0.1319591121961097 0.3962326828713534 0.03720611306637009 -0.06621220610944002
4 0.12470367675845166 -0.09652440338338303 0.23120161980405238 0.18125982926429665 0.22723978306964554 0.12670206942936166
5 0.16912220721562124 0.12552950168210777 0.18519329769586 -0.2347627519845649 0.09084332667313402 -0.18098704545405125
6 0.19553851200587521 -0.07830790816686874 -0.18269444234102383 0.17315340729298617 -0.23634103788918537 0.17562939013579246
7 -0.07940793995706148 -0.08358329699344363 -0.14132309643521343 0.014226233827109903 -0.0700123896985558 0.17199453144507781
8 0.007419895490764708 -0.05449044761784256 -0.06932534306432905 0.04854974296258545 -0.13164978845688044 -0.17734867278191113
9 -0.14038356802962443 0.3118349815074341 0.2438155136055713 -0.08905273911200458 0.09902649906722337 0.1660081774304181
10 -0.32007349894495213 0.09261497929755574 0.126786869147107 0.21478276963497908 -0.002285496937987813 -0.36718559789942506
11 -0.12280636121442713 -0.05682629830777783 -0.11939999477195598 -0.03775300676530123 -0.34512553646189037 0.39088564821114535
12 0.2826796628826206 0.2686743331203736 -0.07589019161858215 0.06093595738503681 0.19509857946445014 0.22128466509389333
13 0.1516211205630381 0.1607435814417579 -0.015968371103384497 -0.04019408469550471 0.0008267589449252365 0.1401333557036912
14 -0.0926491015960836 -0.1805250096024025 -0.05108460129986559 -0.20663162530253257 0.14519779845059655 0.013710903233454308
15 0.35523218790426714 -0.04333977325236339 0.21761491180918205 -0.03088534495262574 0.20273369935061386 -0.002594341231371922
16 0.018184284921292204 0.13621104567087988 -0.09338890254253479 0.187520140685715 0.20183166462503915 0.12617647805561477
17 0.06651062734524887 0.009970438595327594 -0.20471642786720282 -0.15145571700563062 -0.02669782747532206 0.19982866127642462
18 -0.25511880354884964 0.23638332254022915 0.06952917244826137 0.27006655473451385 -0.13187416826486636 0.12327382498640965
19 -0.40982657052769783 -0.1618497558684851 0.08643869952072784 -0.25614373382926536 -0.07630944092040806 -0.1707900734219223
20 -0.017856714238243605 0.07726955838081953 -0.09318414674830092 0.21384021224865168 0.13488474603685277 -0.30337708291192766
21 0.28349803604734897 0.08142828644990636 -0.022009087708225836 -0.27199514163240446 0.005538468918735965 -0.053201778091885775
22 -0.17031020415834175 0.005622802161220184 0.39782588324389573 -0.10428452566174556 0.17359359895209767 0.36643314960561374
23 0.24299336550903505 0.12641956311885563 0.05895762646020824 0.14806075854731052 0.48242281297381234 -0.14553957768713705
24 -0.054966252196581376 -0.2241510202234215 -0.1416060046298988 -0.02146206124776412 0.15892405731943135 0.2432792666383497
25 0.193302595056254 -0.22343146559616195 0.15112725015779532 -0.2945916874182198 0.07647653582886763 -0.13857980155118438
26 0.27076802751829965 -0.07215080843316872 0.008128109776454836 0.08985724380644568 0.020518675004785044 0.09743894686576914
27 -0.33352947322900894 -0.15433482219688568 0.10051297379005304 0.26643236767398293 0.4507564326752171 0.023938687334874437
28 0.3480308433822986 0.0016458805612120013 -0.16122122514647033 -0.17574707013576274 0.5242720572651276 -0.25764260990443105
29 0.23712716422180144 0.1561137761293018 0.2317770814348783 -0.20513212571884665 0.23880099794365356 -0.09831638853020264
30 0.04507568680224582 0.1601668169343078 -0.1504404850491829 0.19069503829696485 -0.013877632684239857 0.14648464556895752
31 -0.17719148684837127 -0.07119679520271896 -0.18686023519771305 0.13035273061240518 -0.07021638139053202 0.020925924944080604
32 -0.22562612818385097 0.0793513289737349 -0.24954069766606327 0.339843318129252 -0.01619555693560631 -0.052476846111563426
33 0.04775872412797385 0.09010169873126496 0.001862596262032444 0.16854982234281646 0.11715253583405669 0.09914480950407666
34 0.01667377726761321 0.04330718099325233 0.057765637593271565 -0.17063761332563518 0.13519987664024352 -0.0868362425703879
35 -0.08384021505080447 -0.04184061689335992 -0.07682193833208445 -0.0102409602950028 0.11352938932369303 -0.18496936801388547
36 -0.4268163181527214 0.10607280697410457 -0.003677926701070881 -0.3882845349497634 0.27131351243616186 -0.2021556633917241
37 0.06973675290207063 0.10569526274869374 -0.15802700598162442 0.01622360970624983 -0.2517695375506107 -0.21164242604389114
38 -0.08625916678389474 0.1418803306273376 0.010816466160951685 -0.06974343625625562 0.22415211946277833 0.30720086434603183
39 -0.06556190858616102 0.001086885879755609 0.07045604075184787 0.10537798867421218 0.060772295432363364 -0.3513860426490666
40 0.08531220986420884 0.09746239705139806 -0.06560094952353977 0.3183585461085769 -0.40834323841668296 -0.12663924494541173
41 -0.06232999827395835 -0.11163868096785891 0.09176333386537722 -0.05788438197614193 0.1774521102730899 0.35762887697572193
42 0.12293883860616782 -0.2955626265855382 0.1388519847587554 -0.10058619691853944 0.07398656876125896 0.11630229379448807
43 -0.06589539372497384 0.41823675475805716 0.0008026475297472151 0.19534081988420837 -0.47773592462946735 0.24319561314894397
44 -0.0743064163331904 -0.12918774971318053 -0.19864476978636375 0.39441451130430943 0.24341817917705041 -0.3104587540680757
45 -0.28070952753116973 -0.24472276073952454 -0.0768351199773794 0.05040141149595214 0.2360903589791636 -0.0497515970823143
46 -0.08876453546070637 0.048636558745682366 -0.1395670979439679 0.004581129287964173 0.11927429076819837 0.07706341785718857
47 0.05086554744356743 0.026164151737788355 -0.11258490688380106 0.26536509964358607 -0.10194028515819602 -0.3389184078790059
48 0.09811180443247224 0.15076841995387966 0.03543329968960754 -0.00941626872204756 -0.08792386869984349 -0.3679996636142601
49 0.03132563413870336 0.27837529462148586 0.4279240378618721 -0.20913960462502776 -0.06110723275609456 0.03411314137805762
50 0.20772897837481802 -0.07176726043920854 -0.0743910622730496 0.06966902410765992 -0.0934959634348976 -0.1435206175958738
51 0.1966887543673296 0.14620766884009678 0.02894988186758179 -0.18169248485928147 0.05523836754320024 -0.1163256962520709
52 -0.10930328426627 -0.12296492459104573 0.02557316592015575 -0.30134241266324585 -0.21207676759366942 0.12195297618007685
53 -0.26958511036654836 -0.12108892847738102 0.19488788241289437 -0.131733781110882 0.1479695143365824 0.07262051285203575
54 0.32595774817833195 -0.06855291524390025 -0.06633357993342752 0.1993106534348727 0.3002186317676102 0.12261839481610334
55 -0.09682154145774985 -0.040995206458949884 0.10730398079793069 0.13511766314397444 0.19565213187178326 0.08276346524189493
56 0.08023908048206185 0.08680121510877062 -0.060032609358149 0.050807801827622144 -0.047514271961560856 0.28870210594396506
57 0.03692413561573409 0.3034604960416721 -0.16808034841432054 -0.32387995374464174 -0.02008305483480861 -0.309541422879541
58 -0.053738776261293746 0.09846797262419232 -0.06943290419579674 -0.45305676833893554 0.21442365102080058 0.15692081889927542
59 -0.12535015349986442 0.2598900291130079 -0.1771389375416444 0.0778328626021456 0.18765769534982918 0.2649284402746124
60 -0.036136867342220234 0.0031416867664012097 0.0004900872351313562 0.143355366145617 0.01579538100812741 -0.14635148436340817
61 0.13359167413268314 0.18763914823813235 -0.1309164263221498 -0.019381496193392418 -0.031187296379238068 0.017399479676025932
62 0.05001394873446554 -0.045119479426626724 0.20664489016025483 -0.22513473816663132 -0.10943752021370265 0.12676520826563548
63 -0.07985667608771806 0.2232502946916894 -0.09346065001758118 0.13197340156013002 -0.008642309932002115 0.21718438223912614
64 -0.044920413919148736 -0.24219977994285874 0.07992759148083965 -0.3147236280584971 0.11749535354972557 0.23693340780698402
65 -0.09534055411373117 -0.22391605772298784 -0.3788115256289578 -0.001121048125626753 0.04422988797572019 0.19900234912998874
66 -0.11408144020892855 0.27367946867440057 0.23803755293162393 -0.30235445951326556 -0.4055532254252237 0.057834976346687134
67 -0.166306802625511 -0.009366271722571453 0.027115941668540693 0.10581139143095335 -0.36577859669777824 0.1162053729597003
68 -0.08344701300388403 0.14859705282857621 0.32847515165343816 0.20025022029536554 0.18273252242613502 0.02375854215968393
69 0.143211347100323 -0.1571355116701895 0.022374010924880897 0.33200952652727905 0.1582669554506368 -0.30907627832219087
70 0.05807365339226411 0.19230578480060553 -0.002477446223151882 -0.07747315429581776 -0.515866068414703 -0.003290021113576715
71 -0.1571409534321301 -0.15513453762058038 -0.3124161335217244 -0.07324668657900713 0.038597300048682344 -0.38726710047447904
72 -0.24252946677809537 -0.20548491766574475 0.4023665085583848 0.22248411987463254 -0.09031684034763693 -0.026770397708221177
73 -0.11557568193092868 0.2795938954703391 -0.19199820613823443 -0.517389314296746 -0.1190479157517304 0.374045312846886
74 0.09192431141178713 -0.07152563085468541 0.027951655007556767 0.08615968263143642 0.1821903200516966 0.5365426445770833
75 -0.15293089397443577 0.1832797402381307 0.07254183259887934 0.1770866398454595 -0.008720004201126277 -0.3537310479589927
76 -0.3561550823288748 -0.02848286363846629 0.006546489251954451 0.25308509013997 0.053486576210159696 0.33130185694942427
77 -0.19917286729554637 -0.005444788483051025 0.07197281049334404 -0.14690257925189779 0.006200163811348182 -0.12213921994881691
78 0.29091019449783023 -0.05277925227043353 0.05900918974049584 -0.2508482628243189 -0.03338059974534062 -0.19018399180486756
79 -0.03481521840376228 -0.15936362678581187 0.14121892090892557 0.23310112604757457 0.11169618200590406 0.12192682963938048
80 0.0411784876968824 -0.04765624730387498 0.019043194633614556 -0.06477236349004867 -0.019541071985135185 0.0408257127632226
81 0.1594336231374396 0.03932777888003818 -0.05276287093749646 0.025840593310084904 0.06981667192454707 -0.09257476720268304
82 -0.12896444934974302 0.1475716543352601 -0.04157387027099884 0.10927762275485634 -0.21401106677564052 -0.1875189852440686
83 -0.3279405242027113 -0.1609113480650034 -0.12968664163207738 -0.24985805062718924 0.07685223634118567 -0.08966257835404672
84 -0.01872609931158614 -0.25710982063770355 -0.13847088972427862 0.0012627750458420637 -0.12672039628165294 -0.06529036356964409
85 0.014372188534847202 -0.01639936229532097 0.04960569181697547 -0.1008944484175044 0.1991382846448013 -0.32419614420590037
86 -0.3877655729450763 0.1658602352671496 0.24805447528616634 0.09490934623994209 -0.06096631356119527 -0.04196527838539162
87 0.2673856998711079 0.3365887326642041 -0.0238376402581637 0.14929775436746526 0.20932553130538414 0.15911529870401006
88 -0.13138147291693658 0.21409439153739804 0.01239984074619237 0.1820166552460691 -0.13249621680963417 0.20722283870222913
89 -0.14629683972442448 -0.3899393709936492 0.06865544203984926 -0.1576142314001741 0.15822690646355145 0.025865337812969985
90 0.10377313032779464 -0.012540989355630278 -0.24131142712047132 -0.3800399610827047 -0.03275425226168607 0.09172727712366359
91 0.13946144755112216 -0.015589262428713363 0.023296288489968252 -0.07606465794250777 0.05889585543828826 -0.03030240043247539
92 0.23500445515112153 0.25183271179900446 -0.22345988460479385 0.4818439349856969 -0.04982158771822558 0.3634596422146747
93 0.060329217984221674 0.31143183559926757 -0.03835533085342826 -0.3235487484857347 -0.16853638878529112 -0.08923659936360206
94 -0.21458456880910542 -0.09074546478187064 0.13558146166630813 0.010109469795366819 0.1014488205544976 -0.3881624031540198
95 -0.006933900672093962 -0.14703356927802283 0.15521893140762924 -0.004305022451245717 0.15166779684740783 0.13243663204552092
96 0.03386471590240012 0.13783124409315414 -0.019347847848365563 0.17642375074710992 0.08566985459377241 -0.27012606168441894
97 -0.2148457891076012 -0.056184553717636206 0.1882089257728973 -0.14900937009404872 0.2500730736600479 0.11555254623155481
98 0.018307762519986476 -0.023688793266034857 -0.03547718954585445 0.35015754482321687 0.1705876978921578 -0.16349378490774444
99 -0.10674610762031415 -0.044335254580783294 -0.13781217400551052 0.31061767589359063 -0.12387003518772778 -0.13921103048412126
100 -0.055734099524711214 0.09962483188528479 -0.20234430296963996 -0.21339771063633795 -0.12591284907523032 0.06264343231634638
101 0.14160508793683182 -0.1813301557567768 -0.11351573955006118 -0.162283228509038 0.020990670312396577 0.2104656524877436
102 -0.10519258072645903 0.3243684510904009 -0.12253589945357302 0.13876732772244166 0.23405912749258906 0.5382818449684141
103 0.11043342858138605 -0.13525409288469914 0.17465325902480908 -0.4345173804669885 -0.12798055896378213 -0.011619252054735234
104 -0.1194347818351322 0.3738176099887111 -0.012266175119074832 -0.409018651314492 -0.21000334293137296 0.3119446543390844
105 0.037943040714916304 -0.08527869311177688 -0.046572122141667185 -0.048966090623210376 -0.07510507821371278 0.04081489516127686
106 -0.23348213574753862 0.04274253793837019 -0.321186706992024 -0.2009124793045829 -0.04754793577516722 -0.06077716783190084
107 -0.028182975754433636 0.008749667737930254 0.11843203916938111 0.062040375243544964 0.12031662426440884 -0.04614498266056866
108 0.17076730223445344 -0.14114088619886633 -0.06686742266786802 -0.20399122633635752 0.11218284278732024 -0.2814229469502568
109 -0.022027014868877696 -0.2565302330524684 -0.03872135889101711 0.08348624824969499 0.11313052418355501 -0.13741661216687975
110 0.2641659121509712 -0.07261481571180649 0.0823228962812241 0.18485113827252142 0.11908895311596591 0.053277144861866285
111 -0.02671139784138693 0.031436334822142746 0.058127904925035966 0.0819750464290929 0.36815238025323893 0.08876647885031949
112 0.4332419708894291 0.02068405360858892 0.0726778807439601 -0.03514435626669747 -0.016901371038309108 -0.3030268367138423
113 -0.13742922994069504 -0.11485604110246839 0.11949727970917344 -0.0947241567679369 -0.20406323898403075 0.14319694909746394
114 -0.0886363447364988 0.01837212939111841 0.20267624872875553 -0.20036156685284706 -0.04943291263275229 0.1692939670552358
115 -0.48712445417608485 0.0256926782273663 -0.024542520151768693 -0.015188586505152004 -0.16090766817222676 0.0867651858162793
116 -0.1506577211769498 -0.22722826317031072 -0.28525625355772616 -0.1845757522485398 -0.16089981693738162 0.3106320810696583
117 -0.3267268822575336 -0.11257404342073865 0.10540298874440346 -0.1517804918780289 0.244775993844997 -0.3655299003085974
118 0.1360155980108208 0.21692693563435178 -0.06342054822530084 0.0335457035173448 0.04380446309545473 -0.16134651025863447
119 -0.11212383405016707 -0.10907279108454358 0.03689265941678787 0.04371129615834985 0.10395042233801043 -0.04159499691129526
120 0.26123830246062335 0.037090403157279794 -0.2558513257776569 -0.14375487469109474 0.021039559366653127 -0.07780156822243188
121 -0.1838836984616318 -0.008234016064665919 0.16886518180858465 0.0784382920845553 -0.006083408773891336 -0.1072606571067589
122 0.015562779408345995 -0.016231905737977642 -0.4257445430267252 -0.2698678948771958 0.03651262425099296 -0.1662999128433127
123 0.23810161605704377 -0.11946357658421103 0.0053425918702379 -0.26507085311347767 -0.005060520073985519 -0.028794675468980298
124 0.3312048487900394 0.26189741666863997 -0.10964110515509969 0.1544616897402785 -0.23337971316705755 0.10244776357671773
125 -0.20606377334048767 -0.2480013884660967 0.0503364492363312 -0.2245111582587185 -0.21456054582014408 0.2050630976792822
126 -0.03552739269815303 0.1691039422819466 -0.07802319703580368 -0.4323743483104413 0.18256530801905368 0.18628686436697428
127 -0.20029656593994563 0.32983545343079457 -0.2070512488410065 0.019326899103251225 0.027644495282593218 0.442626348526685
128 0.08491008750400077 0.1035215229851968 -0.1739408713288041 0.27470989108566846 -0.24402446279772083 0.07443846420743241
129 -0.08830853934911108 -0.26734530364104053 -0.1988201363520286 -0.06923156954944658 -0.02189796001542307 -0.1338797245794809
130 0.20981215982263213 0.13488162846156487 -0.03943887942626307 -0.011593722599637339 -0.6890299572253064 0.1790251091910087
131 0.07652601338116555 -0.19283772018282666 -0.2776397161982535 0.24663050117341062 0.044069318144154775 0.2747329718398644