LAMMPS data file via write_data, version 17 Apr 2024, timestep = 1394, units = lj

375 atoms
3 atom types

0 5 xlo xhi
0 5 ylo yhi
0 5 zlo zhi

Masses

1 1
2 1
3 1

PairIJ Coeffs # dpd/coul/slater/long

1 1 78 4.5 yes 1
1 2 78 4.5 yes 1
1 3 78 4.5 yes 1
2 2 78 4.5 no 1
2 3 78 4.5 no 1
3 3 78 4.5 no 1

Atoms # full

189 0 1 0 0.8621554018960034 1.5213257556560191 0.4064444607843129 0 1 0
107 0 1 0 2.040249318291146 0.3862591116608294 1.8661957131854634 0 0 0
253 0 1 0 3.511834308089607 0.7338273870464224 0.801173549802059 0 1 1
163 0 1 0 2.303289649738226 0.6809493239075631 0.7383435796468727 0 1 0
26 0 1 0 0.03534770106704549 1.4889933012536283 1.4815498922617432 0 0 0
27 0 1 0 4.170525658289272 1.8438490221677797 2.1918634082517614 -1 0 0
56 0 1 0 2.9501314702448633 2.322938987390429 0.6158870411938201 0 0 0
167 0 1 0 1.948558457807243 0.1261294591496785 0.039492485708843984 0 1 0
364 0 3 -1 4.538825953029656 0.2655458359259118 2.131668601530241 0 1 0
61 0 1 0 4.645784299395809 0.3574274125207269 1.7056474795918568 -1 0 0
222 0 1 0 4.41481966340897 2.262979887349817 1.1679075968940398 0 0 0
332 0 2 1 3.853874714249102 0.1758912358513287 0.8799773810713412 0 1 0
1 0 1 0 4.608301143657016 1.4090100132224024 1.218887039455649 -1 0 0
319 0 2 1 3.732213186171727 0.981827023519373 2.3857377768158727 -1 0 0
53 0 1 0 2.380311878254328 0.953677113042391 1.8268738776443192 0 0 0
68 0 1 0 0.33279009298924916 1.0106375746131884 0.7038515854567269 0 0 0
220 0 1 0 1.1094848303775686 2.378414106514282 1.4793246435196352 1 0 0
44 0 1 0 0.12449238274832848 1.7475396894040345 0.5495194876290164 0 0 0
55 0 1 0 0.1451415441609303 2.337329820574407 0.940744164662616 0 0 0
362 0 3 -1 1.2987762452744613 1.8352325797868587 1.1809674941775483 0 0 0
165 0 1 0 0.6610209400465688 2.22554349560855 1.971912177574677 0 0 0
60 0 1 0 1.8643313870571518 0.6352678895179578 1.4416996493100478 0 0 0
202 0 1 0 0.007896731087640774 1.5385720917803027 0.18965671583085075 0 1 0
85 0 1 0 1.5630176980330266 1.1482985441214197 2.019916217302335 1 0 0
73 0 1 0 0.5556133646182337 1.6170466333456652 2.101792903006452 0 0 0
96 0 1 0 1.6611967219346682 0.07688637034882238 0.46572063062814617 0 0 1
30 0 1 0 0.46644353751713447 1.8254820637852556 1.2380479793915407 1 0 0
67 0 1 0 3.4270812515248483 2.350996339385886 1.77527952461483 0 0 0
349 0 3 -1 1.7935506583370944 1.7235931740659332 0.4478371869612185 1 0 0
132 0 1 0 4.951074988035153 1.5039089286454406 2.4219801232797398 -1 0 0
328 0 2 1 0.8958492991096989 1.2809413147557527 1.0440931858570435 0 0 1
161 0 1 0 4.798276598985588 0.9882558902185279 2.462987088497934 0 1 0
185 0 1 0 0.6126520391294695 0.04940161418784647 0.6135262263024062 0 1 0
219 0 1 0 1.647872968759676 2.305100092833184 2.0217182617222096 0 0 0
8 0 1 0 2.8077478718165207 0.7661158156519451 1.3602857540877684 0 0 0
69 0 1 0 2.8568644931819835 0.13340029053585767 2.106212637519767 0 0 0
3 0 1 0 1.908450187819087 2.298808713848062 0.4221817812562634 0 0 0
7 0 1 0 1.8799145446976495 0.9814789886011673 0.955308672406064 0 0 0
329 0 2 1 0.9727877144189607 0.8906662949552561 1.4472553696387669 0 1 0
174 0 1 0 3.9905681672951636 0.6401683928312465 1.0284041192891435 -1 1 0
20 0 1 0 3.392515194191721 2.0774851454870427 0.8812446323305514 0 0 0
57 0 1 0 4.874212056539195 0.13899230379169403 0.7199140773346149 0 0 0
325 0 2 1 1.362093021934204 2.3422237404192465 0.6655225660551776 0 0 1
40 0 1 0 4.306473534903154 1.7047871476017826 0.8560715024613603 0 0 0
51 0 1 0 2.297377802384159 0.11499650506694176 1.4731005354419167 0 0 0
54 0 1 0 2.971300335884777 1.8792385205105047 1.3973014092900102 0 0 0
186 0 1 0 3.583414064904102 1.7542346893771112 0.35130247738019466 0 0 0
289 0 1 0 2.5651653875350906 1.4858962835620086 0.6587351599193196 0 0 1
75 0 1 0 3.132107705055228 0.19794042232605677 0.44488993973642094 0 0 1
48 0 1 0 3.4384178020381717 0.7217742755424055 1.7304812232062636 0 0 0
66 0 1 0 3.191389133037332 1.1674191637093172 1.7413707516914332 0 0 0
52 0 1 0 1.856006413772654 1.871405713016935 1.5164995404363106 0 0 0
158 0 1 0 3.725559226243618 1.2320067990055215 0.4240371305587515 -1 1 0
330 0 2 1 0.4226192821951129 0.22648053650193767 0.04025715930862768 1 1 0
359 0 3 -1 4.4476116877707925 0.8271711042623823 1.1688054720798116 0 1 0
366 0 3 -1 0.13989896192253948 0.6502137062351493 0.845841913773404 1 1 0
196 0 1 0 0.21878194805964699 2.4139077401885523 1.602735237996178 1 0 0
128 0 1 0 2.474112780481313 1.5036993910540244 1.234391076605564 0 0 1
118 0 1 0 0.1703454662324439 0.9401878407982331 0.17224714060344348 0 0 1
43 0 1 0 3.708324777814944 2.4767443359210524 0.5791362456922102 0 0 0
184 0 1 0 0.4061592126934206 0.22209165285150972 1.3598048859115588 0 1 0
360 0 3 -1 1.225690366400486 0.4472136514952278 1.0864811555493794 0 1 0
64 0 1 0 2.6116937036965266 1.793563094424563 2.091822223631947 0 0 0
285 0 1 0 0.7747031518566616 0.24118573693540882 2.1434463705260494 0 1 0
58 0 1 0 1.598997109049339 1.2355543729347458 1.1437352681100093 0 0 0
257 0 1 0 0.02882436640692898 0.8179392413775496 1.6880006059524528 1 1 0
356 0 3 -1 2.0441963785801733 1.236982129976697 2.2147135788798726 0 0 0
100 0 1 0 3.653446945164378 0.3462603812889145 1.6428480228892703 0 0 0
121 0 1 0 3.3427026587713 1.3818800793465942 1.0715223415915789 0 0 1
130 0 1 0 3.3647959804349648 1.6468424783155522 2.142743574286686 0 0 1
238 0 1 0 1.3459228411155364 0.633596613028775 2.1301210835283637 0 1 0
211 0 1 0 0.6615598402766512 2.33271179551025 0.47581804017205676 1 0 0
208 0 1 0 2.962020456626749 0.2159270527386094 1.30534135402314 0 1 0
63 0 1 0 1.3612122125160733 0.010635376740000254 1.5982897032081793 0 0 0
22 0 1 0 4.210300352056279 0.36529901441609736 0.22595511161653342 0 0 0
355 0 3 -1 1.2042503283777344 1.597276477439138 1.9589099368399292 0 0 0
70 0 1 0 4.378695647703822 2.2211752925991073 0.5054248018357668 0 0 0
65 0 1 0 4.730200694542147 1.8860651406962996 1.9541188923646609 0 0 0
182 0 1 0 0.6006579892093956 1.0766698682185656 1.8982320873119558 0 1 0
188 0 1 0 3.968278800401347 2.2778420975676017 1.5855956915283134 -1 0 0
35 0 1 0 2.223480574739111 2.044750380955685 1.1501174861326973 0 0 0
6 0 1 0 4.393818207857278 0.9691596735067866 0.4973738964333318 0 0 0
346 0 3 -1 1.799292171051204 0.9378491451956622 0.32819450450408366 0 0 0
14 0 1 0 4.116276227278533 0.9144868046413738 1.9001996318293624 0 0 0
15 0 1 0 4.057083687324151 1.5512296337030849 1.8388944544921122 0 0 0
16 0 1 0 3.82411370026405 1.5506478336832812 1.2725337401183239 0 0 0
287 0 1 0 2.6387027215894454 1.893079917045916 0.49300315071401646 0 0 1
81 0 1 0 0.23374890251430025 0.34479122000015083 2.377074044522331 1 0 0
114 0 1 0 2.97788308248854 0.8029642133737654 0.43679357743492564 0 0 1
232 0 1 0 1.1637120121074183 0.7914170906883582 0.5169414304881136 1 1 1
50 0 1 0 1.3582030484899448 1.733969902734067 2.475757370252963 0 0 -1
79 0 1 0 4.002398001699839 2.453310546669259 2.3569732163529196 0 0 0
74 0 1 0 2.5693171940612936 0.3236751012125613 0.052755933881527994 0 0 1
194 0 1 0 2.8970695996535842 1.3203227830648074 2.4866087995688972 0 0 0
133 0 1 0 2.6178632265286743 1.0115830273791913 0.19081692003348572 0 0 1
311 0 1 0 3.3683313684704523 1.1471203834722834 0.04523595785096113 0 1 1
115 0 1 0 0.43505007353257874 2.385803272207332 0.02841287624716582 0 0 1
4 0 1 0 4.3073950086925725 2.400627067573385 4.56127636601268 -1 0 -1
151 0 1 0 0.6919123879927325 2.1849820555988084 3.5078472275384267 0 0 0
306 0 1 0 0.5589151617318056 0.058029533314856774 4.427085995859885 0 1 0
138 0 1 0 1.7147207261520883 1.4323880737092538 3.757478681577442 0 0 0
110 0 1 0 1.3876397037618702 1.3714565550984217 4.5219172301432895 0 0 0
251 0 1 0 2.788428291071368 2.3409448558940977 3.4381375025566263 0 0 0
331 0 2 1 2.838525921735314 0.09442598845901452 3.3146265769160324 0 1 0
243 0 1 0 4.489290143790526 2.26853729359999 3.7839844553823094 0 0 0
156 0 1 0 0.23302160032454478 1.3603287603692662 4.342729568698205 1 1 -1
32 0 1 0 2.081389395149717 0.4938421510915584 2.707994013583073 0 0 0
205 0 1 0 0.09940021857353744 2.408012210772126 3.2074615425616426 0 0 0
41 0 1 0 4.323708181823033 0.4958928465474822 2.525689303250374 0 0 0
28 0 1 0 4.717322170568759 1.0215969335342936 3.32138298357052 -1 0 -1
322 0 2 1 2.2029274368349303 2.0230576314539634 3.254975041225457 0 0 0
103 0 1 0 3.4039994449255992 0.5284405133705601 4.809880920488395 0 0 0
353 0 3 -1 1.1636351711418296 1.6849823280188108 3.628904996363181 0 0 0
295 0 1 0 2.015582444660267 2.152457218882018 4.802270482662931 0 0 0
365 0 3 -1 0.1355221924615853 0.6843479265638512 3.832358314244189 0 0 0
98 0 1 0 2.5146420394624114 1.4050031824562241 2.965312255745623 0 0 0
33 0 1 0 2.3626541269063335 0.301607887792709 4.126675184172655 0 0 0
39 0 1 0 1.0864796756700101 0.14884263883618853 3.538403788545902 0 0 -1
343 0 2 1 1.4514575528852092 0.7274022675751877 4.022000140293159 0 1 0
259 0 1 0 3.655779855306037 1.3576945405765304 3.834017837247726 0 0 0
77 0 1 0 0.8784812240014032 1.3079405939838267 3.865082861143354 1 0 0
140 0 1 0 0.8162940643502995 1.1305386542609035 4.8092097458556715 0 0 0
111 0 1 0 4.795245146003238 1.9956723305718642 3.9129401250192046 0 0 0
129 0 1 0 0.34843108982968385 0.5298485948666217 2.8292148084141364 0 0 0
317 0 2 1 4.124560425539725 0.9992026808502931 4.821938521772994 0 0 -1
25 0 1 0 2.8922318837378698 0.9335539802277806 4.287158919025898 -1 0 -1
21 0 1 0 4.585171090824654 1.3705322366558885 4.19496485298651 0 0 -1
276 0 1 0 2.403137350597824 1.5009012449757657 3.808385508050605 0 0 0
160 0 1 0 2.937633869764959 0.00248285164262807 4.155863012635541 0 1 -1
308 0 1 0 2.007117640798801 0.07533937286437335 3.949461187876648 0 1 0
313 0 1 0 3.138628385914381 0.06932121228333508 4.61254641181726 0 1 0
71 0 1 0 0.7604830442534299 1.8783527414570997 4.529066129071014 0 0 -1
42 0 1 0 0.8786351691021071 1.5220089570408293 2.909825736835378 0 0 0
83 0 1 0 2.268823589694475 0.8105925806076607 3.3728322715236114 0 0 0
123 0 1 0 1.7884920869805707 1.339956019375266 2.861286357841185 0 0 0
29 0 1 0 4.460413120634612 1.661186434187469 2.731131826280074 0 0 0
291 0 1 0 0.0035749317593865015 0.21166749654426853 3.275077495308186 1 1 0
299 0 1 0 0.6601895850752213 0.7060682406274252 3.722602054061811 0 1 0
87 0 1 0 3.635932620062484 1.4708618427874118 4.477899978536171 0 0 0
78 0 1 0 1.5540100281849198 2.289959113070306 3.8245622090496108 0 0 0
5 0 1 0 2.937548438619819 2.211877405174181 2.85571535820357 0 0 0
95 0 1 0 3.105981604150784 2.188298914603185 4.094702761761116 0 0 0
352 0 3 -1 0.11773003147587424 1.9458234584845089 4.811739126011424 0 0 0
281 0 1 0 1.1502488869841234 0.20873030537461357 4.295523149721441 1 1 0
206 0 1 0 3.330001486381421 1.53529174323865 3.1417824971878447 0 0 0
241 0 1 0 3.878317992103332 2.023909280872213 4.783549131197242 0 0 0
109 0 1 0 2.580544454574246 2.2025316047831676 4.264813345165653 0 0 0
126 0 1 0 2.6463397268489866 0.7745950386723881 3.699331340328284 0 0 0
62 0 1 0 0.10088965537315422 1.464964032622401 3.4200098453857786 0 0 -1
145 0 1 0 4.7108240170803874 2.1614660538205466 3.070399886653731 -1 0 0
354 0 3 -1 1.610893620580725 0.7512309895438358 3.571881076052697 0 0 0
248 0 1 0 2.3260578668858516 2.409053529199307 3.878500098271755 0 0 0
278 0 1 0 1.0565916295142963 0.21636101668521504 2.9280061580151355 1 1 0
334 0 2 1 3.3217760513533556 0.20221074730138347 3.857259461716569 0 0 0
344 0 2 1 2.145759202198284 0.8646312386735645 4.34482845102358 0 0 0
84 0 1 0 3.310133712882211 0.8325063678401754 3.1928917336760043 0 0 0
135 0 1 0 0.5746060669769325 0.007152134736939431 3.7081262585514363 1 0 0
124 0 1 0 1.5924837125088054 2.3295502621690507 3.1555629363203055 0 0 0
301 0 1 0 1.3559071869586012 2.104676990793624 4.2855408539569995 0 0 0
221 0 1 0 4.025760501970453 0.12181323773082332 4.427152392469986 0 1 -1
149 0 1 0 1.288517578213514 1.1078634671167045 3.0983488547366833 -1 1 -1
235 0 1 0 3.722079255584157 0.731147796276342 4.106075812812072 0 1 0
268 0 1 0 4.725777687386199 0.0696714424235374 3.965580233489741 -1 1 0
229 0 1 0 4.9205143154909035 0.5378937212478773 4.686090920391123 0 1 -1
144 0 1 0 4.391887063016131 1.3427912572926557 3.770425380327373 0 0 0
142 0 1 0 1.8346060623646443 0.7517320991384026 4.677813188511546 0 0 0
119 0 1 0 3.2188591291035764 1.8480317120563596 4.70754013191232 0 0 0
218 0 1 0 4.590989187547614 0.7832518807186819 4.248448878177557 -1 1 -1
269 0 1 0 3.83528197952535 2.2671443874151396 3.9458234070905074 0 0 0
171 0 1 0 1.1367690782529518 0.30653599490724565 4.981237832751898 0 1 -1
347 0 3 -1 2.730105013349213 1.5732651978450825 4.737616332834529 0 0 -1
117 0 1 0 2.893231454879688 1.6327429583278301 3.809375824669355 0 0 0
244 0 1 0 1.903054222598179 1.4266071609686257 4.248317450667845 1 0 0
46 0 1 0 0.6110511992687845 0.9392825733011035 4.4718586456826115 1 0 -1
97 0 1 0 3.9786678543088594 1.7659872954929934 3.352752402727882 0 0 0
155 0 1 0 3.5064237015545134 2.2748461716495725 3.3907408576276095 0 0 0
190 0 1 0 3.6257913177213887 1.8596172005909988 2.624582193387495 0 0 0
141 0 1 0 4.133819851057611 1.125460792510254 2.8214638820568316 0 0 0
261 0 1 0 0.48116423022710325 1.98166727716818 4.003063462271802 1 1 0
92 0 1 0 3.749162681150054 0.5480152103582329 3.44882074629632 0 0 0
327 0 2 1 4.261412399401647 0.5826170932678485 3.573292268629846 0 0 0
337 0 2 1 1.6827282642347854 0.2789473832751784 2.9589468652224666 0 1 0
45 0 1 0 0.31403607701825803 1.3800214560597042 2.9837533879244087 1 0 0
200 0 1 0 1.995256276504289 1.4516800278315318 4.898899074068972 0 1 -1
19 0 1 0 1.2925196386926214 2.321053353209675 4.936516373289165 0 0 -1
137 0 1 0 0.8617630289962365 2.28834525235633 2.787630960107895 0 0 0
127 0 1 0 0.19137038400231676 2.1505994041298755 2.5584316139464898 1 0 0
9 0 1 0 4.475150825165361 1.5978909296640629 4.832730899627523 -1 0 -1
122 0 1 0 0.6525439970988997 0.9547926616198447 2.731781719219051 0 0 1
213 0 1 0 4.260400034205448 0.19910770741166325 2.9310219053551076 0 1 0
136 0 1 0 2.2005511013729873 1.8455801462092951 2.556685426816697 0 0 0
37 0 1 0 3.4251867503322573 0.6527991402153643 2.527078438582748 0 0 0
34 0 1 0 2.9175944797670583 0.13654347040781536 2.8820983415866803 0 0 0
217 0 1 0 2.6954995241935262 0.7710325900782893 2.5236360609937285 0 0 0
250 0 1 0 3.6726666633431457 4.6018232175750455 1.320473043522378 0 0 1
166 0 1 0 4.7009740947187035 3.7966019637038317 2.3031579729427096 0 0 0
150 0 1 0 0.04748930775599636 4.455597613980116 1.8427292493854273 0 0 0
368 0 3 -1 2.4584991330272654 3.7591217299647854 0.426379021376866 0 0 1
339 0 2 1 4.156459282343587 3.061985537069849 1.9932515879322967 0 0 0
340 0 2 1 1.9850368150824245 4.230758829154677 0.5294221302127794 0 0 1
338 0 2 1 0.9865267877252728 4.5330122869142055 1.0314881718061573 0 0 0
201 0 1 0 3.4754534022764494 3.0217470705506297 1.6935508350107573 0 0 0
101 0 1 0 2.4842203411723074 4.89685402639858 2.0242798213421707 0 -1 0
209 0 1 0 0.013989467358051372 4.330201393745349 0.7846247571577325 0 0 0
168 0 1 0 3.6350006680732463 4.754122434939927 0.3223377232438807 0 0 0
216 0 1 0 2.9114246475391328 3.433945937453107 1.8710068661397548 0 0 0
203 0 1 0 1.3574269717949698 4.456732218277533 1.5387489126454328 0 0 0
179 0 1 0 0.522179118267259 2.8689808625572804 0.9077030710981577 0 0 0
181 0 1 0 3.6672727729190364 3.878549463830204 1.3381224951621222 0 0 0
236 0 1 0 4.185529129045369 4.161219716693221 2.3595808103262947 0 0 0
18 0 1 0 1.9980056628841183 4.320068243150856 1.6822915445402666 0 -1 0
363 0 3 -1 2.235554720706489 2.906908244875693 1.036143254738836 0 0 0
198 0 1 0 0.5887731317025171 3.6812050133593415 0.29825916210104214 1 0 0
146 0 1 0 4.960647912886466 3.5092208739797943 1.7004652621516252 0 -1 0
284 0 1 0 0.7836145638659848 4.548012471030345 0.34455457204719553 0 0 1
207 0 1 0 0.7814740880134713 3.3714021164537535 1.118310228903454 0 0 0
183 0 1 0 1.7161486342210968 3.5481236466130888 1.4041933001601494 0 0 0
90 0 1 0 3.016201247291213 2.9587290353837226 0.5684151813116627 0 0 1
159 0 1 0 2.232365423522552 2.6465053064946784 0.3759996466051841 0 0 0
274 0 1 0 0.5881709093591322 4.080889794199071 2.280264861574092 0 0 0
303 0 1 0 3.246061664307446 4.37314477200102 0.7856213092562913 0 0 1
315 0 1 0 0.35327667038742755 3.029146608728807 0.0791450986650732 0 0 1
11 0 1 0 1.8285612986193809 3.353968071719668 0.5643737651851671 0 0 0
176 0 1 0 0.2508944492255997 3.000972330471306 2.0071913487423076 0 0 0
304 0 1 0 3.0726902044877265 4.647914126011872 0.9996827940171641 0 0 1
143 0 1 0 3.9352261868949907 3.898490778762382 0.7840306203684324 -1 0 1
275 0 1 0 3.0573248045448427 3.8840876505181687 1.5573196095677335 0 0 0
242 0 1 0 0.4226727582609528 4.737822957131883 1.387223661593226 1 0 0
169 0 1 0 0.620846920150785 3.1839828246731394 2.426601824718326 0 0 0
86 0 1 0 1.5665987066447504 4.978509835006031 2.1415023910919806 0 -1 0
333 0 2 1 2.445920926535492 4.47766917410732 1.1358754296155358 0 0 0
294 0 1 0 1.1981531521673625 2.8049885346916006 2.111987077826676 1 0 0
310 0 1 0 1.9298476539189637 4.937913932158907 1.030730042471827 0 0 1
192 0 1 0 4.108736026656326 4.6378045277922135 1.671217346737129 0 0 0
280 0 1 0 1.8281315737488533 2.7749825164949944 1.6554178103691615 0 0 0
164 0 1 0 1.3010575917308485 4.494402162669739 0.041752472824225825 0 0 0
170 0 1 0 3.650388228932189 2.9899308003889966 1.067251647123858 0 0 0
256 0 1 0 0.3339581189133178 3.843411762565409 0.9273636798830823 1 0 1
305 0 1 0 1.025180078056553 3.006380787860488 0.2873424831400842 0 0 1
321 0 2 1 1.3189364418815286 3.4276539374299775 2.089591655927524 0 0 0
147 0 1 0 1.1461014570579835 3.8511084209677513 0.7525062047220421 0 0 0
204 0 1 0 1.5112706244387488 2.8188173134434136 0.974908694884752 0 0 0
215 0 1 0 2.343066001179666 3.1978495580526083 1.8659131264876065 0 0 0
307 0 1 0 0.6571664267721125 3.1829219496620875 1.6123833084425085 0 0 0
230 0 1 0 1.691826706532908 4.328533707881519 0.9338934645265112 0 0 0
357 0 3 -1 0.9424908379877175 4.354374546920949 1.9334517447934154 1 -1 0
273 0 1 0 2.7367589344269287 4.456539476093516 0.09405577094510116 0 0 1
104 0 1 0 4.8224729965828805 2.532966442497679 2.359616149253149 -1 -1 0
326 0 2 1 3.205170108738211 3.657764190269539 0.6059860569327459 0 0 1
153 0 1 0 2.492658010069284 2.5549338497141174 2.359226108751561 0 0 0
10 0 1 0 3.8691461518549306 3.358206982770836 0.5857517185532839 0 0 0
17 0 1 0 1.4938724652414974 3.6267684500076256 0.6528239210562307 0 0 0
172 0 1 0 2.222730505934896 3.9294618789141045 1.857472216603435 0 0 0
187 0 1 0 4.12882439435804 4.373709089764649 0.7735950113473502 0 0 0
246 0 1 0 2.819371376884619 2.580827865657106 1.2982493640886932 0 0 0
175 0 1 0 3.6037043838950598 3.9741874494279883 2.1537260234843565 0 0 0
233 0 1 0 2.4936360109190447 3.7461714899270047 1.0175156445748128 0 0 1
197 0 1 0 4.513537428106752 3.877838158564245 0.23454380025260257 0 0 0
36 0 1 0 4.75739982448861 2.993089291142829 1.2955298606828172 0 0 0
157 0 1 0 4.577486719825762 2.5548383034837867 0.24912616922292966 -1 0 0
212 0 1 0 3.0478551135031786 3.2498317267851125 1.1259910025155964 0 0 0
369 0 3 -1 1.3808431418191394 3.7792710503646454 1.4792791648287753 0 0 0
225 0 1 0 0.5765924415162327 3.9233350563958895 1.5040765765770432 0 0 0
88 0 1 0 1.7263407212681612 4.0160590932504725 2.4625624343301684 0 -1 0
180 0 1 0 2.957032676177556 4.366369702631684 1.8084697653437938 0 0 0
228 0 1 0 4.007414662615488 3.641531116903689 1.6104136392925874 0 0 0
296 0 1 0 4.449577191326246 2.7185852714293324 1.5770958226540965 0 0 1
309 0 1 0 4.193664393097815 3.195309236798277 0.013138071944119596 0 0 1
316 0 2 1 4.8850975785077875 3.1181643275208497 0.4988834454683537 0 0 0
282 0 1 0 4.547534798722087 4.098196657638136 1.3514482711905391 -1 0 0
223 0 1 0 4.070573701500224 3.0161107941779735 1.0525783618149982 0 0 0
112 0 1 0 0.40619378501741044 4.581496953329872 2.4303817659862164 1 -1 0
89 0 1 0 1.1309601445791022 2.8935782083274892 1.0807782088379005 0 0 0
191 0 1 0 3.307024885373677 4.7782882192530485 2.015572284198738 0 0 0
237 0 1 0 4.748120043170084 3.725460808317568 0.9522577175239182 0 0 0
226 0 1 0 3.818166049029603 4.848449417426425 2.3600959505179793 0 0 0
231 0 1 0 3.0678050795347436 2.5699968710786734 2.0631097277316033 0 0 0
49 0 1 0 2.4740584898343307 4.766019947430475 0.6261200658844492 0 -1 0
375 0 3 -1 3.3298272958028243 2.9611113328638377 0.026915061404104934 0 0 1
265 0 1 0 1.84918915840028 3.334712440161601 2.324387380119898 0 0 0
193 0 1 0 0.2324107132082972 4.337276389235211 0.15737812733136072 0 0 0
318 0 2 1 4.741026775461015 4.950744240431997 0.09991000779517484 0 -1 0
38 0 1 0 4.567313389179671 4.564683120735231 2.2383375090123745 0 -1 0
195 0 1 0 4.276432197666434 4.550778719775141 0.01705180460738089 -1 0 0
224 0 1 0 4.512998770219293 4.930686914076221 1.3263777979979738 0 0 0
139 0 1 0 2.3611855680314053 2.5238664431540845 1.7400861072101907 0 0 0
102 0 1 0 1.3179823049817583 4.634953041690075 2.4318467808197792 0 -1 0
263 0 1 0 1.7520030887065592 2.504606951431736 2.4950818538423345 0 0 0
361 0 3 -1 4.0568544056493225 3.3144731773008287 2.4514614954683602 -1 0 0
298 0 1 0 2.2362905839125626 4.407255609537625 2.480448696532583 0 0 0
106 0 1 0 0.017457347778004895 4.764685683823287 3.185502158549636 1 -1 0
288 0 1 0 1.4779816621680442 4.314571361320767 3.1205014313954074 0 0 0
320 0 2 1 0.07352439249274566 2.7314754874268874 4.438222837395544 0 0 0
12 0 1 0 0.8318394760130385 3.0151110605041334 4.63155060662692 0 0 -1
350 0 3 -1 3.745719265020869 3.633969589456328 4.863558280777614 0 0 -1
255 0 1 0 3.7208321476425765 2.5430981712665512 4.92336590272389 0 0 0
264 0 1 0 0.6187322774863372 4.591988430718435 2.99409822364528 0 0 0
131 0 1 0 1.2363781535890241 3.269322268996143 2.994313299793769 0 -1 0
271 0 1 0 1.547729125698992 3.0254742510247556 3.7969510998815252 0 0 0
239 0 1 0 2.9727140078350547 4.458728462772902 2.589816182926471 0 0 0
247 0 1 0 4.723447954180547 4.559587825067703 4.2844794465287395 -1 0 0
336 0 2 1 4.30377897745755 3.6083219532870245 3.0751026181087915 -1 0 0
80 0 1 0 3.9139985069210037 4.2026902501983585 3.687780496901057 0 -1 0
351 0 3 -1 2.3310951879832125 4.1532874672431905 3.1481350248436812 0 -1 0
345 0 2 1 2.1434754823364397 3.630858480566402 4.76111427884395 0 0 0
23 0 1 0 0.1116865464821783 3.425858998459883 3.8315121362406237 1 0 -1
372 0 3 -1 0.2013553605339663 4.542002104842189 4.709301425799447 0 0 0
374 0 3 -1 4.681869085817003 3.6012197326454385 3.5343842160338768 -1 0 0
99 0 1 0 2.0103450534211995 4.916636042614968 2.7722290840703248 0 -1 0
134 0 1 0 1.2868072532982127 3.6027664980659657 4.834686879117821 0 0 0
94 0 1 0 3.4969553288958197 4.191479164754045 3.257611668733077 0 -1 0
108 0 1 0 1.069116967523645 3.8915098801681096 3.4741345909171617 0 -1 0
116 0 1 0 1.7110071948939123 3.003308695307758 4.880957418376936 0 0 0
47 0 1 0 0.6144957209089892 4.086034990124086 3.6421216730599935 0 -1 0
177 0 1 0 1.9967818019099437 4.223293250522419 4.123286584622672 0 0 -1
154 0 1 0 2.9241663178555766 3.006235461853767 2.736488872218668 0 0 0
272 0 1 0 3.6421402582975864 3.397998711089007 3.420005877158591 0 0 0
292 0 1 0 0.9456777627899714 2.854242407065964 3.6713102734015375 0 0 0
348 0 3 -1 3.602827568682842 4.841299797785864 3.0727220886411226 0 -1 0
113 0 1 0 4.09715162476059 4.796283984467532 3.6675472388615478 0 -1 0
76 0 1 0 3.0081758606102404 4.473089701483304 3.4619137215698026 0 -1 0
178 0 1 0 0.1695480127810721 4.181202627391224 3.659798577645965 1 0 -1
82 0 1 0 4.308822049710188 2.5505905907422872 2.8631988472742047 0 -1 0
358 0 3 -1 3.000038253202886 3.679700145601949 3.1009139360007207 0 -1 0
302 0 1 0 0.8272609584103479 4.003958148100786 4.445729848848656 0 0 0
13 0 1 0 3.9722298533039946 4.5610720224823025 4.234031447999139 -1 -1 -1
72 0 1 0 4.772965920074378 3.1606932108115786 2.6365859592135936 -1 -1 0
245 0 1 0 2.197144845045862 4.9556893549684515 3.4030216646163236 0 0 0
234 0 1 0 1.6678259516197003 2.9505643678051627 4.390951365364965 0 0 0
300 0 1 0 1.6328211445692586 4.819932075478693 4.586452176846693 0 0 0
105 0 1 0 1.892439317939264 4.041167636776589 4.848755937425436 0 -1 0
254 0 1 0 1.9694419982366302 2.9792140111735144 3.3447749736668477 0 0 0
371 0 3 -1 0.7643208588903881 2.802514146046753 4.3289561641866845 1 0 0
262 0 1 0 3.7153807374055208 2.9342246849719764 3.2753284900477935 0 0 0
266 0 1 0 1.0036319050407299 3.924029109027026 2.765363860481497 0 0 0
31 0 1 0 3.2842646038163683 3.4104333522804806 4.272304684998637 -1 0 -1
267 0 1 0 0.3478333275641798 3.7705819143047163 4.485021488086793 1 0 0
290 0 1 0 3.1115982282440853 2.9295831819273586 3.5626146396041767 0 0 0
324 0 2 1 2.771587476254712 3.9414271647783257 4.230821042895357 0 -1 0
293 0 1 0 4.214234541195906 3.262981149206049 4.090936501706094 0 0 0
323 0 2 1 2.8122245885603756 2.580830565080179 4.80431964625616 0 0 0
335 0 2 1 1.4810951840990771 4.639126972487052 3.6567291514204365 0 0 0
270 0 1 0 4.9358344334018485 3.549094534023696 4.864412320210946 0 0 0
173 0 1 0 3.117530919934732 3.684181958243471 4.8516982526619845 0 0 -1
2 0 1 0 0.3021690885489914 2.659446894836416 4.0367641920770465 1 0 0
210 0 1 0 1.1142397715035879 4.4046148625915365 4.3150622960514795 0 0 -1
125 0 1 0 2.7530308932307075 2.8955411122664563 4.086365750770761 0 0 0
214 0 1 0 2.447949785773993 3.4411883728706667 3.42533264878368 0 0 0
258 0 1 0 2.4686303390297684 4.538868481224538 4.639944166832721 0 0 0
93 0 1 0 3.788036472073458 2.8805091146305495 4.207262328768323 0 0 0
24 0 1 0 1.1758426635439467 2.95987521811849 2.7491364787864434 0 -1 -1
152 0 1 0 2.4635622448768637 3.071194152656136 4.899091259343484 0 0 -1
367 0 3 -1 3.1644043863749083 3.8654934982056908 3.8521845414359994 0 0 -1
249 0 1 0 0.8478947214959758 3.5141550038968123 4.043189817151755 1 0 0
252 0 1 0 3.6043032286195786 2.7211428234421744 2.6278508560867944 0 0 0
227 0 1 0 2.617074822292329 4.356852917720359 3.706994190844186 0 0 0
120 0 1 0 4.569034188524726 2.9098756991392434 3.6702905357629025 -1 0 0
342 0 2 1 0.04291508283574702 3.9189332996339656 3.0034347187387493 1 0 0
370 0 3 -1 2.5035109101131465 3.367965526536857 4.050360185006087 0 0 0
283 0 1 0 4.572823838429256 4.030918642578753 4.393803855463066 0 0 0
279 0 1 0 4.173810766411638 3.812475242565163 4.301379932392817 0 0 0
314 0 1 0 4.4933290428810615 4.490246675016839 3.151051409399978 0 0 0
297 0 1 0 4.726982536341496 3.1414792583129945 4.429739330385717 0 0 0
341 0 2 1 1.8003373130876947 3.4781354307892713 2.899858395353646 0 0 0
312 0 1 0 2.303209904055366 2.9656095134210108 2.8204198689888864 0 0 0
373 0 3 -1 3.565365933175215 4.286825401805136 4.955585318174815 0 0 0
91 0 1 0 1.9018724274489394 3.9228474975062673 3.538137694177671 1 0 0
260 0 1 0 3.349946104166285 4.305285613626282 4.371436905009239 0 0 0
286 0 1 0 3.4730325337603043 3.45134046911952 2.570996040716748 0 0 0
277 0 1 0 3.893007381012101 4.253386877442837 2.9065935101973173 0 0 0
162 0 1 0 1.6103352066101007 3.6182097268745603 4.028619192357339 0 0 -1
148 0 1 0 0.47140654288437406 3.361602614222439 3.2833125638624368 0 0 0
199 0 1 0 0.45641137753428773 2.8928189398052093 3.055011726454653 0 0 0
59 0 1 0 2.603235557919487 3.7590996377530255 2.60080520480327 0 -1 0
240 0 1 0 0.03755253175857831 3.8996655727813736 2.694428316121082 0 0 0

Velocities

189 -0.32037987935911505 -1.8545793275796412 -0.3389478887810303
107 0.3468735347167663 -0.2955882500703209 0.7493971092549213
253 -0.48452738488616026 0.9567078415781696 -0.25617231541775964
163 0.05392635484651058 1.4098736248940131 -0.9551003900232069
26 -1.617929859419785 -1.7202842142734436 0.11135553428439426
27 -0.29551994504699913 1.1370741945626326 0.41194386832776464
56 0.16870751745665893 0.5465328233065259 -1.6661100877128618
167 -0.697267953141008 -1.9033337525745169 -0.31395781199009537
364 -1.400949260052127 0.7984877976989593 1.9724238551125475
61 -0.07154629291712847 0.7516744652931485 1.9678922707455193
222 0.23902932306419583 0.792970583016431 0.1021330637484922
332 2.0928445946235548 0.5309926353418448 1.5604773439112944
1 -0.28287953739229227 -0.029534368909520013 1.0355343887239448
319 -1.0849228432051101 -0.23080330071554434 1.1791104359270128
53 0.9157229929216929 -2.3903991179046433 -1.5736773702897364
68 0.17385350731976662 -0.30161653041932146 -0.39368426363389786
220 2.5382960064880953 0.2591819621699902 -0.624753681550235
44 -1.6451203378616364 -0.9239543258332603 1.132412983542016
55 -0.08195646053083308 0.37533078137864123 -0.36860166560573604
362 -0.4446005218467803 -0.13521669762509536 -0.3021189485210508
165 -0.3037978228853421 0.48479699556498196 -0.14302405851335173
60 -0.544505644947158 0.17484779434446918 0.5635832746819489
202 0.40080169998085574 0.6655121110868133 0.4354226901236873
85 -0.08059699858936498 -0.02186022407318814 -1.2385638610310603
73 1.183399433007768 -0.5106063831888463 1.1937543804310102
96 1.2595243589106713 -0.013906208472664688 0.4458849845729422
30 0.5511059698244886 -0.6732784212785152 -1.0116331060036698
67 -1.9023068008435087 1.0951572746798406 -2.0479882413103634
349 1.4237209300898004 0.30323664052562727 0.19232435921291324
132 -0.48867767658730155 0.09532364712318463 -0.42068909019073003
328 -0.5663127928136679 0.37616782849718877 0.4297794152083855
161 0.7703317540205181 0.6774326958924123 -0.3026855763654866
185 -0.023401903290328513 0.2511657303041649 -1.3088367457780965
219 1.2737339284351616 1.028957623073161 -1.0554246534519245
8 -0.06863366403807239 -1.6556315386699292 -0.23974376153400073
69 0.1565812662607089 -1.2971845847251846 2.613897358932758
3 0.8019572100951472 0.849648794229192 0.11213159968547601
7 0.25284839489562 1.491377162402211 -0.0841367270980815
329 0.6351810405065701 0.25238586135592256 0.8556983715790075
174 -0.5484640782672199 -0.14739645457730516 -0.17643270798617747
20 -0.7181391568279812 -0.22546080581710778 -0.48698419533440007
57 -1.6318504400975429 1.5493172313080645 0.4266085421953033