ITEM: TIMESTEP
0
ITEM: NUMBER OF ATOMS
1968
ITEM: BOX BOUNDS
-14.087 10.545
-1.88253 22.7495
-5.44214 33.9691
ITEM: ATOMS
1 37 0.724504 0.0949789 0.140014 0 0 0
2 34 0.684719 0.0877526 0.142425 0 0 0
3 34 0.75414 0.0681034 0.144328 0 0 0
4 33 0.73303 0.156484 0.128114 0 0 0
5 19 0.776672 0.168948 0.105354 0 0 0
6 7 0.761529 0.169394 0.0796001 0 0 0
7 7 0.808013 0.137363 0.107917 0 0 0
8 17 0.801193 0.224647 0.112002 0 0 0
9 6 0.841709 0.226393 0.10099 0 0 0
10 36 0.768025 0.266991 0.0970063 0 0 0
11 18 0.75004 0.303975 0.123141 0 0 0
12 6 0.774033 0.341081 0.121898 0 0 0
13 22 0.692067 0.317575 0.119183 0 0 0
14 15 0.615053 0.362111 0.113372 0 0 0
15 29 0.601534 0.306979 0.112053 0 0 0
16 14 0.648506 0.284407 0.115656 0 0 0
17 4 0.652971 0.240359 0.115884 0 0 0
18 27 0.610466 0.457231 0.113448 0 0 0
19 14 0.664176 0.458327 0.117711 0 0 0
20 4 0.68277 0.498315 0.119563 0 0 0
21 27 0.697385 0.416024 0.120121 0 0 0
22 15 0.670022 0.368809 0.117736 0 0 0
23 11 0.583996 0.40961 0.111114 0 0 0
24 21 0.530408 0.409488 0.106724 0 0 0
25 2 0.509946 0.444929 0.105253 0 0 0
26 2 0.51019 0.373924 0.104872 0 0 0
27 18 0.760514 0.276084 0.156532 0 0 0
28 6 0.774439 0.305761 0.175106 0 0 0
29 35 0.778377 0.31721 0.179216 0 0 0
30 5 0.723773 0.254974 0.165032 0 0 0
31 17 0.804725 0.235974 0.149935 0 0 0
32 6 0.797052 0.198746 0.164195 0 0 0
33 33 0.856527 0.258222 0.158968 0 0 0
34 37 0.870858 0.271538 0.197916 0 0 0
35 34 0.93074 0.27032 0.202281 0 0 0
36 34 0.836391 0.237273 0.220245 0 0 0
37 33 0.850438 0.333408 0.200352 0 0 0
38 19 0.867286 0.372666 0.175639 0 0 0
39 7 0.848124 0.363613 0.151585 0 0 0
40 7 0.911618 0.370068 0.172873 0 0 0
41 17 0.850925 0.430396 0.185001 0 0 0
42 6 0.876623 0.458814 0.171224 0 0 0
43 36 0.794616 0.44091 0.176324 0 0 0
44 18 0.765467 0.458651 0.206188 0 0 0
45 6 0.761286 0.5027 0.205402 0 0 0
46 23 0.710863 0.433643 0.207787 0 0 0
47 12 0.70449 0.378553 0.210451 0 0 0
48 4 0.739972 0.353057 0.213749 0 0 0
49 10 0.666775 0.467745 0.204717 0 0 0
50 31 0.671687 0.517315 0.202839 0 0 0
51 24 0.616515 0.442981 0.204209 0 0 0
52 3 0.584402 0.467177 0.201748 0 0 0
53 9 0.606447 0.387931 0.206518 0 0 0
54 31 0.559638 0.370474 0.205605 0 0 0
55 13 0.65492 0.355371 0.209817 0 0 0
56 20 0.65017 0.293785 0.211923 0 0 0
57 8 0.621143 0.282864 0.231409 0 0 0
58 8 0.689753 0.276409 0.218012 0 0 0
59 8 0.636408 0.277952 0.187818 0 0 0
60 18 0.8003 0.443346 0.236154 0 0 0
61 6 0.797783 0.47489 0.255565 0 0 0
62 35 0.794779 0.486217 0.260031 0 0 0
63 5 0.788039 0.403601 0.246075 0 0 0
64 17 0.857096 0.440464 0.22296 0 0 0
65 6 0.878531 0.406565 0.234708 0 0 0
66 33 0.88527 0.490358 0.229329 0 0 0
67 37 0.895866 0.510697 0.26749 0 0 0
68 34 0.948643 0.539765 0.268759 0 0 0
69 34 0.886001 0.464903 0.291189 0 0 0
70 33 0.847515 0.554177 0.271373 0 0 0
71 19 0.844713 0.600296 0.249222 0 0 0
72 7 0.837162 0.586655 0.223569 0 0 0
73 7 0.883931 0.62165 0.250236 0 0 0
74 17 0.79896 0.639351 0.258331 0 0 0
75 6 0.803669 0.676416 0.243563 0 0 0
76 36 0.746143 0.615967 0.250998 0 0 0
77 18 0.712569 0.617956 0.281116 0 0 0
78 6 0.685206 0.652586 0.279289 0 0 0
79 22 0.680375 0.567575 0.284998 0 0 0
80 12 0.705139 0.518492 0.289185 0 0 0
81 4 0.749106 0.516503 0.291138 0 0 0
82 12 0.675787 0.472658 0.291468 0 0 0
83 4 0.695274 0.433237 0.294488 0 0 0
84 9 0.624431 0.572 0.283247 0 0 0
85 32 0.602874 0.616698 0.279873 0 0 0
86 26 0.594552 0.525922 0.285582 0 0 0
87 11 0.618179 0.477448 0.289515 0 0 0
88 21 0.587285 0.433197 0.291443 0 0 0
89 2 0.60462 0.396334 0.29431 0 0 0
90 2 0.546484 0.436485 0.290098 0 0 0
91 18 0.750811 0.626603 0.310524 0 0 0
92 6 0.731852 0.653479 0.329249 0 0 0
93 35 0.723449 0.66172 0.333461 0 0 0
94 5 0.76226 0.587549 0.321688 0 0 0
95 17 0.799894 0.653763 0.295934 0 0 0
96 6 0.836513 0.63728 0.307707 0 0 0
97 33 0.797417 0.71133 0.300679 0 0 0
98 37 0.796727 0.73715 0.338079 0 0 0
99 34 0.822669 0.791551 0.336887 0 0 0
100 34 0.816823 0.696187 0.362666 0 0 0
101 33 0.732461 0.744742 0.343179 0 0 0
102 19 0.700065 0.76703 0.316334 0 0 0
103 7 0.698238 0.738368 0.295604 0 0 0
104 7 0.719348 0.804826 0.307631 0 0 0
105 17 0.641807 0.778316 0.327093 0 0 0
106 6 0.625528 0.811038 0.311513 0 0 0
107 36 0.607949 0.730574 0.322805 0 0 0
108 18 0.581317 0.717988 0.354547 0 0 0
109 6 0.539786 0.733091 0.353709 0 0 0
110 22 0.580627 0.658716 0.360915 0 0 0
111 12 0.62772 0.630338 0.36561 0 0 0
112 4 0.666369 0.65149 0.365204 0 0 0
113 12 0.626745 0.576303 0.370735 0 0 0
114 4 0.664136 0.553365 0.374414 0 0 0
115 9 0.53057 0.633099 0.361372 0 0 0
116 32 0.488673 0.659366 0.357211 0 0 0
117 26 0.529311 0.578617 0.366523 0 0 0
118 11 0.575065 0.550118 0.37109 0 0 0
119 21 0.572304 0.496529 0.375886 0 0 0
120 2 0.606609 0.47485 0.379184 0 0 0
121 2 0.535969 0.47757 0.376241 0 0 0
122 18 0.612171 0.748112 0.381722 0 0 0
123 6 0.583793 0.763458 0.400701 0 0 0
124 35 0.57271 0.766584 0.405344 0 0 0
125 5 0.642984 0.721764 0.393064 0 0 0
126 17 0.638803 0.79488 0.364265 0 0 0
127 6 0.679725 0.800564 0.374313 0 0 0
128 33 0.607665 0.843394 0.368604 0 0 0
129 37 0.598165 0.867915 0.405877 0 0 0
130 34 0.594673 0.927959 0.403416 0 0 0
131 34 0.63791 0.843069 0.429551 0 0 0
132 33 0.538811 0.844003 0.413844 0 0 0
133 19 0.493626 0.858862 0.392861 0 0 0
134 7 0.503126 0.849849 0.366675 0 0 0
135 7 0.486603 0.902666 0.395753 0 0 0
136 17 0.441986 0.827764 0.401488 0 0 0
137 6 0.410564 0.838604 0.383244 0 0 0
138 36 0.450552 0.769466 0.400092 0 0 0
139 18 0.433461 0.745189 0.431758 0 0 0
140 6 0.392904 0.7283 0.428586 0 0 0
141 23 0.471135 0.701465 0.442364 0 0 0
142 12 0.525089 0.711533 0.44754 0 0 0
143 4 0.539826 0.753105 0.446297 0 0 0
144 10 0.450106 0.649541 0.445003 0 0 0
145 31 0.401551 0.63996 0.441121 0 0 0
146 24 0.486887 0.608943 0.452793 0 0 0
147 3 0.472475 0.570985 0.454543 0 0 0
148 9 0.541775 0.615561 0.458147 0 0 0
149 31 0.570599 0.5761 0.464718 0 0 0
150 13 0.560166 0.671098 0.455051 0 0 0
151 20 0.62025 0.684049 0.459542 0 0 0
152 8 0.634824 0.666308 0.483012 0 0 0
153 8 0.626015 0.727894 0.460151 0 0 0
154 8 0.642984 0.667079 0.438584 0 0 0
155 18 0.431228 0.790698 0.457258 0 0 0
156 6 0.397085 0.784243 0.474639 0 0 0
157 35 0.385962 0.779656 0.478521 0 0 0
158 5 0.469958 0.793419 0.470884 0 0 0
159 17 0.422053 0.841445 0.43701 0 0 0
160 6 0.446208 0.874573 0.447566 0 0 0
161 33 0.365785 0.855857 0.436503 0 0 0
162 37 0.340817 0.895237 0.464947 0 0 0
163 34 0.300585 0.931897 0.448758 0 0 0
164 34 0.38584 0.918905 0.485144 0 0 0
165 33 0.309192 0.851595 0.487859 0 0 0
166 19 0.265752 0.820132 0.473827 0 0 0
167 7 0.27915 0.801091 0.45056 0 0 0
168 7 0.231447 0.847413 0.468473 0 0 0
169 17 0.247727 0.774825 0.497425 0 0 0
170 6 0.207576 0.760819 0.489838 0 0 0
171 36 0.28528 0.729396 0.49608 0 0 0
172 18 0.302899 0.716649 0.530055 0 0 0
173 6 0.277932 0.683521 0.539773 0 0 0
174 22 0.360548 0.700044 0.531349 0 0 0
175 15 0.434679 0.650962 0.537489 0 0 0
176 29 0.452176 0.704875 0.535485 0 0 0
177 14 0.406666 0.73033 0.531932 0 0 0
178 4 0.405448 0.774297 0.529395 0 0 0
179 27 0.432202 0.556207 0.54231 0 0 0
180 14 0.378289 0.558805 0.539392 0 0 0
181 4 0.356488 0.520441 0.539925 0 0 0
182 27 0.348247 0.602935 0.535637 0 0 0
183 15 0.379101 0.647917 0.534876 0 0 0
184 11 0.462244 0.601717 0.541524 0 0 0
185 21 0.515914 0.598307 0.545203 0 0 0
186 2 0.533696 0.561607 0.548045 0 0 0
187 2 0.538771 0.632328 0.545203 0 0 0
188 18 0.292181 0.766624 0.551013 0 0 0
189 6 0.281139 0.755013 0.576818 0 0 0
190 35 0.277323 0.748071 0.583872 0 0 0
191 5 0.327745 0.793337 0.550683 0 0 0
192 17 0.245454 0.794474 0.534115 0 0 0
193 6 0.251056 0.838441 0.535079 0 0 0
194 33 0.19495 0.779494 0.549669 0 0 0
195 37 0.172297 0.811444 0.582299 0 0 0
196 34 0.116029 0.829956 0.575169 0 0 0
197 34 0.213503 0.851838 0.59326 0 0 0
198 33 0.170105 0.76293 0.609651 0 0 0
199 19 0.158737 0.708123 0.5994 0 0 0
200 7 0.176275 0.700856 0.574687 0 0 0
201 7 0.114364 0.702683 0.5977 0 0 0
202 17 0.183745 0.665983 0.623353 0 0 0
203 6 0.164908 0.626766 0.618532 0 0 0
204 36 0.241719 0.661233 0.617314 0 0 0
205 18 0.271071 0.670692 0.648574 0 0 0
206 6 0.284346 0.631962 0.658977 0 0 0
207 23 0.318854 0.705687 0.642916 0 0 0
208 15 0.372524 0.689773 0.643601 0 0 0
209 21 0.469998 0.588645 0.653827 0 0 0
210 2 0.510961 0.586534 0.653141 0 0 0
211 2 0.447954 0.554868 0.658368 0 0 0
212 28 0.390914 0.638864 0.649488 0 0 0
213 11 0.445112 0.635981 0.648574 0 0 0
214 25 0.478321 0.679989 0.642358 0 0 0
215 3 0.518918 0.674427 0.64218 0 0 0
216 9 0.460499 0.732603 0.636217 0 0 0
217 31 0.493464 0.769019 0.630838 0 0 0
218 16 0.402931 0.736054 0.637131 0 0 0
219 29 0.368992 0.780955 0.632386 0 0 0
220 14 0.321493 0.759641 0.636167 0 0 0
221 4 0.284833 0.784162 0.634187 0 0 0
222 18 0.231569 0.696837 0.672806 0 0 0
223 6 0.23843 0.681288 0.698484 0 0 0
224 35 0.242937 0.674468 0.705284 0 0 0
225 5 0.235507 0.741129 0.671816 0 0 0
226 17 0.176316 0.680436 0.660982 0 0 0
227 6 0.148507 0.714578 0.664001 0 0 0
228 33 0.157235 0.63452 0.67986 0 0 0
229 37 0.146842 0.639148 0.719975 0 0 0
230 34 0.09845 0.606183 0.728957 0 0 0
231 34 0.14875 0.697243 0.729947 0 0 0
232 33 0.20035 0.609268 0.734083 0 0 0
233 19 0.202258 0.551214 0.736595 0 0 0
234 7 0.187521 0.533635 0.7132 0 0 0
235 7 0.17591 0.538466 0.757655 0 0 0
236 17 0.259825 0.529819 0.741746 0 0 0
237 6 0.262992 0.489749 0.730251 0 0 0
238 36 0.299286 0.565382 0.725938 0 0 0
239 18 0.339721 0.581256 0.750525 0 0 0
240 6 0.375975 0.555842 0.747049 0 0 0
241 23 0.354823 0.639107 0.746744 0 0 0
242 12 0.317798 0.679908 0.752047 0 0 0
243 4 0.276145 0.669718 0.758796 0 0 0
244 10 0.407965 0.650312 0.737838 0 0 0
245 31 0.441499 0.614221 0.732916 0 0 0
246 24 0.421241 0.704591 0.734692 0 0 0
247 3 0.45993 0.71332 0.728196 0 0 0
248 9 0.386611 0.74803 0.739614 0 0 0
249 31 0.402891 0.79488 0.736138 0 0 0
250 13 0.331967 0.732603 0.74885 0 0 0
251 20 0.289664 0.776733 0.755219 0 0 0
252 8 0.249107 0.759398 0.753164 0 0 0
253 8 0.294455 0.808967 0.736493 0 0 0
254 8 0.295307 0.793459 0.780592 0 0 0
255 18 0.31516 0.569889 0.784931 0 0 0
256 6 0.346541 0.556167 0.802566 0 0 0
257 35 0.358396 0.551498 0.805839 0 0 0
258 5 0.294455 0.606223 0.794345 0 0 0
259 17 0.274481 0.525637 0.779324 0 0 0
260 6 0.238714 0.532945 0.795004 0 0 0
261 33 0.297459 0.473551 0.786936 0 0 0
262 37 0.307568 0.455201 0.825554 0 0 0
263 34 0.312439 0.395157 0.826848 0 0 0
264 34 0.267214 0.482685 0.847654 0 0 0
265 33 0.366312 0.481589 0.8321 0 0 0
266 19 0.41438 0.457434 0.818069 0 0 0
267 7 0.403378 0.421505 0.80386 0 0 0
268 7 0.441499 0.446107 0.839103 0 0 0
269 17 0.44361 0.49527 0.793507 0 0 0
270 6 0.427006 0.489709 0.768134 0 0 0
271 36 0.437033 0.55162 0.803454 0 0 0
272 18 0.48981 0.576344 0.807996 0 0 0
273 6 0.499269 0.601392 0.785997 0 0 0
274 23 0.491515 0.61004 0.8389 0 0 0
275 12 0.478483 0.588645 0.869881 0 0 0
276 4 0.466263 0.54622 0.871632 0 0 0
277 10 0.507186 0.663547 0.835323 0 0 0
278 31 0.518959 0.683196 0.80764 0 0 0
279 24 0.508972 0.693833 0.864832 0 0 0
280 3 0.520502 0.733009 0.86265 0 0 0
281 9 0.496549 0.675402 0.897082 0 0 0
282 31 0.499594 0.705931 0.921669 0 0 0
283 13 0.480554 0.618971 0.8983 0 0 0
284 20 0.465817 0.593354 0.9323 0 0 0
285 8 0.432243 0.615642 0.943693 0 0 0
286 8 0.500893 0.594775 0.949148 0 0 0
287 8 0.453881 0.551214 0.928316 0 0 0
288 18 0.530042 0.530428 0.810279 0 0 0
289 6 0.567676 0.541714 0.797186 0 0 0
290 35 0.577176 0.548088 0.792645 0 0 0
291 5 0.53739 0.520116 0.836972 0 0 0
292 17 0.504222 0.483538 0.792518 0 0 0
293 6 0.512951 0.446026 0.806194 0 0 0
294 33 0.523141 0.479843 0.75839 0 0 0
295 37 0.55911 0.429137 0.746846 0 0 0
296 34 0.594267 0.412451 0.775594 0 0 0
297 34 0.58424 0.441195 0.713454 0 0 0
298 33 0.512342 0.38448 0.741948 0 0 0
299 19 0.525333 0.328496 0.746566 0 0 0
300 7 0.511043 0.31652 0.770976 0 0 0
301 7 0.569544 0.323705 0.745475 0 0 0
302 17 0.497361 0.291714 0.720863 0 0 0
303 6 0.487983 0.252822 0.732611 0 0 0
304 36 0.447751 0.316438 0.708532 0 0 0
305 18 0.457657 0.336291 0.674886 0 0 0
306 6 0.433664 0.312703 0.657277 0 0 0
307 22 0.440159 0.393249 0.672349 0 0 0
308 15 0.389697 0.467177 0.673592 0 0 0
309 29 0.443366 0.484796 0.675724 0 0 0
310 14 0.469389 0.439327 0.675089 0 0 0
311 4 0.512342 0.437784 0.67986 0 0 0
312 27 0.294658 0.464863 0.670801 0 0 0
313 14 0.297621 0.410868 0.669152 0 0 0
314 4 0.259176 0.389148 0.667427 0 0 0
315 27 0.342319 0.380623 0.669457 0 0 0
316 15 0.387301 0.41164 0.671715 0 0 0
317 11 0.340168 0.494824 0.673009 0 0 0
318 21 0.336514 0.548737 0.673694 0 0 0
319 2 0.370494 0.571594 0.674683 0 0 0
320 2 0.299692 0.566722 0.673389 0 0 0
321 18 0.51697 0.326628 0.666665 0 0 0
322 6 0.520948 0.312379 0.640404 0 0 0
323 35 0.518959 0.308075 0.632538 0 0 0
324 5 0.540922 0.363085 0.671258 0 0 0
325 17 0.534467 0.283027 0.690517 0 0 0
326 6 0.576892 0.288873 0.69757 0 0 0
327 33 0.526591 0.230453 0.676003 0 0 0
328 37 0.559719 0.21259 0.642789 0 0 0
329 34 0.575836 0.154779 0.646164 0 0 0
330 34 0.601697 0.254162 0.63538 0 0 0
331 33 0.512098 0.217259 0.615183 0 0 0
332 19 0.463828 0.185593 0.619319 0 0 0
333 7 0.452379 0.185227 0.645809 0 0 0
334 7 0.472394 0.143899 0.610895 0 0 0
335 17 0.415557 0.208165 0.599806 0 0 0
336 6 0.37841 0.192007 0.610844 0 0 0
337 36 0.413527 0.267072 0.601354 0 0 0
338 18 0.40829 0.28867 0.567379 0 0 0
339 6 0.365663 0.297236 0.562304 0 0 0
340 23 0.440403 0.338929 0.562939 0 0 0
341 12 0.495534 0.339092 0.567354 0 0 0
342 4 0.516198 0.301336 0.573697 0 0 0
343 10 0.412431 0.385617 0.554464 0 0 0
344 31 0.362943 0.386063 0.550531 0 0 0
345 24 0.443326 0.43206 0.550836 0 0 0
346 3 0.423474 0.46604 0.544112 0 0 0
347 9 0.498985 0.435876 0.554972 0 0 0
348 31 0.522369 0.47964 0.55147 0 0 0
349 13 0.524764 0.385048 0.563751 0 0 0
350 20 0.586026 0.383343 0.569181 0 0 0
351 8 0.604539 0.419272 0.558016 0 0 0
352 8 0.602631 0.347089 0.557407 0 0 0
353 8 0.594673 0.38245 0.596051 0 0 0
354 18 0.427209 0.244337 0.543858 0 0 0
355 6 0.40281 0.244824 0.520591 0 0 0
356 35 0.393513 0.247423 0.514653 0 0 0
357 5 0.470607 0.24929 0.538453 0 0 0
358 17 0.417912 0.19221 0.562558 0 0 0
359 6 0.452014 0.164766 0.558245 0 0 0
360 33 0.368302 0.16708 0.552231 0 0 0
361 37 0.359939 0.147553 0.51379 0 0 0
362 34 0.323238 0.0997288 0.51341 0 0 0
363 34 0.413771 0.14394 0.497019 0 0 0
364 33 0.327907 0.199152 0.499023 0 0 0
365 19 0.28459 0.223186 0.51818 0 0 0
366 7 0.301113 0.242876 0.540433 0 0 0
367 7 0.256496 0.19083 0.52597 0 0 0
368 17 0.254263 0.266422 0.498237 0 0 0
369 6 0.213422 0.270726 0.508487 0 0 0
370 36 0.28187 0.318306 0.500419 0 0 0
371 18 0.296241 0.336575 0.466723 0 0 0
372 6 0.267823 0.368038 0.458781 0 0 0
373 22 0.351981 0.358538 0.465835 0 0 0
374 15 0.421972 0.414238 0.463627 0 0 0
375 29 0.443732 0.362354 0.468448 0 0 0
376 14 0.400333 0.33284 0.469387 0 0 0
377 4 0.402566 0.289035 0.47266 0 0 0
378 27 0.411903 0.507937 0.455812 0 0 0
379 14 0.358477 0.500589 0.454645 0 0 0
380 4 0.333956 0.536802 0.451118 0 0 0
381 27 0.331845 0.453983 0.457461 0 0 0
382 15 0.366191 0.412086 0.461953 0 0 0
383 11 0.445599 0.465715 0.460303 0 0 0
384 21 0.499026 0.474484 0.461673 0 0 0
385 2 0.524724 0.443103 0.465251 0 0 0
386 2 0.513884 0.512646 0.459009 0 0 0
387 18 0.290354 0.288142 0.443709 0 0 0
388 6 0.273872 0.301052 0.419249 0 0 0
389 35 0.268716 0.308156 0.412703 0 0 0
390 5 0.329653 0.267681 0.440867 0 0 0
391 17 0.250812 0.25132 0.460861 0 0 0
392 6 0.263114 0.209099 0.457335 0 0 0
393 33 0.197143 0.259683 0.447946 0 0 0
394 37 0.183421 0.247707 0.408795 0 0 0
395 34 0.126787 0.22753 0.406232 0 0 0
396 34 0.228159 0.215107 0.393799 0 0 0
397 33 0.186141 0.308319 0.393698 0 0 0
398 19 0.155287 0.351312 0.408922 0 0 0
399 7 0.169374 0.357807 0.434625 0 0 0
400 7 0.112294 0.339173 0.409328 0 0 0
401 17 0.16162 0.405185 0.390273 0 0 0
402 6 0.131172 0.433684 0.399534 0 0 0
403 36 0.215208 0.428082 0.395829 0 0 0
404 18 0.242774 0.434293 0.363605 0 0 0
405 6 0.242125 0.47692 0.356171 0 0 0
406 23 0.299529 0.415577 0.365762 0 0 0
407 15 0.345039 0.447731 0.366066 0 0 0
408 21 0.404474 0.575613 0.360966 0 0 0
409 2 0.442636 0.590675 0.361854 0 0 0
410 2 0.372727 0.600865 0.357541 0 0 0
411 28 0.34577 0.502375 0.363098 0 0 0
412 11 0.396111 0.522349 0.36429 0 0 0
413 25 0.441743 0.490602 0.368299 0 0 0
414 3 0.477915 0.508627 0.369593 0 0 0
415 9 0.442108 0.434537 0.371344 0 0 0
416 31 0.485385 0.410178 0.374795 0 0 0
417 16 0.388844 0.412939 0.369999 0 0 0
418 29 0.371306 0.359106 0.372029 0 0 0
419 14 0.319422 0.364628 0.369289 0 0 0
420 4 0.292669 0.329511 0.369365 0 0 0
421 18 0.210946 0.401571 0.338181 0 0 0
422 6 0.210053 0.422682 0.313797 0 0 0
423 35 0.211473 0.431898 0.307504 0 0 0
424 5 0.228443 0.360771 0.335897 0 0 0
425 17 0.154759 0.397877 0.352187 0 0 0
426 6 0.137545 0.35797 0.346808 0 0 0
427 33 0.121225 0.439733 0.338181 0 0 0
428 37 0.109493 0.441925 0.298116 0 0 0
429 34 0.0513569 0.455038 0.292559 0 0 0
430 34 0.132958 0.392762 0.281928 0 0 0
431 33 0.145706 0.493809 0.287865 0 0 0
432 19 0.139332 0.544393 0.3055 0 0 0
433 7 0.147614 0.538426 0.332167 0 0 0
434 7 0.0971509 0.558156 0.302227 0 0 0
435 17 0.178305 0.588198 0.293067 0 0 0
436 6 0.165842 0.627172 0.303571 0 0 0
437 36 0.23368 0.577034 0.303622 0 0 0
438 18 0.268797 0.576019 0.274189 0 0 0
439 6 0.290598 0.614424 0.272388 0 0 0
440 23 0.308177 0.530996 0.276092 0 0 0
441 15 0.363633 0.535543 0.277716 0 0 0
442 21 0.479661 0.615723 0.279391 0 0 0
443 2 0.520096 0.609146 0.280659 0 0 0
444 2 0.465167 0.654007 0.278173 0 0 0
445 28 0.392011 0.582433 0.277614 0 0 0
446 11 0.445437 0.573867 0.279391 0 0 0
447 25 0.468537 0.522998 0.281167 0 0 0
448 3 0.50885 0.520035 0.282638 0 0 0
449 9 0.44024 0.474281 0.281268 0 0 0
450 31 0.464843 0.430964 0.282968 0 0 0
451 16 0.383526 0.482969 0.279365 0 0 0
452 29 0.341101 0.445417 0.278756 0 0 0
453 14 0.299408 0.476799 0.276828 0 0 0
454 4 0.258567 0.460316 0.27528 0 0 0
455 18 0.232097 0.569929 0.243842 0 0 0
456 6 0.247889 0.593882 0.222656 0 0 0
457 35 0.255238 0.602367 0.217758 0 0 0
458 5 0.228118 0.526855 0.237195 0 0 0
459 17 0.178143 0.591974 0.254499 0 0 0
460 6 0.145706 0.566641 0.244147 0 0 0
461 33 0.171688 0.646983 0.243513 0 0 0
462 37 0.17112 0.661761 0.203828 0 0 0
463 34 0.136815 0.7106 0.198602 0 0 0
464 34 0.159468 0.611785 0.184037 0 0 0
465 33 0.233762 0.678162 0.198576 0 0 0
466 19 0.256983 0.722129 0.217556 0 0 0
467 7 0.26015 0.710559 0.243969 0 0 0
468 7 0.230108 0.757571 0.21517 0 0 0
469 17 0.314023 0.736826 0.205731 0 0 0
470 6 0.325309 0.775962 0.21649 0 0 0
471 36 0.353321 0.69639 0.216439 0 0 0
472 18 0.38178 0.675564 0.187082 0 0 0
473 6 0.421647 0.694685 0.185382 0 0 0
474 22 0.388438 0.616251 0.188884 0 0 0
475 15 0.423271 0.534244 0.192766 0 0 0
476 29 0.367409 0.526896 0.188934 0 0 0
477 14 0.350682 0.576384 0.186854 0 0 0
478 4 0.307974 0.585803 0.183276 0 0 0
479 27 0.516198 0.519182 0.199616 0 0 0
480 14 0.523628 0.57269 0.199287 0 0 0
481 4 0.5652 0.586818 0.20223 0 0 0
482 27 0.485953 0.610689 0.195937 0 0 0
483 15 0.436262 0.588563 0.192791 0 0 0
484 11 0.466345 0.49799 0.196419 0 0 0
485 21 0.460052 0.444199 0.196749 0 0 0
486 2 0.492774 0.419718 0.199413 0 0 0
487 2 0.422621 0.427919 0.19439 0 0 0
488 18 0.348449 0.691438 0.156634 0 0 0
489 6 0.375244 0.701993 0.135498 0 0 0
490 35 0.386124 0.704794 0.130626 0 0 0
491 5 0.3206 0.658391 0.149961 0 0 0
492 17 0.316824 0.740276 0.167189 0 0 0
493 6 0.275983 0.738287 0.156507 0 0 0
494 33 0.343578 0.788831 0.156405 0 0 0
495 37 0.352753 0.800523 0.116747 0 0 0
496 34 0.35121 0.860039 0.110886 0 0 0
497 34 0.316418 0.764594 0.0967779 0 0 0
498 33 0.414299 0.779656 0.112687 0 0 0
499 19 0.456682 0.803405 0.132732 0 0 0
500 7 0.450146 0.793662 0.159146 0 0 0
501 7 0.455221 0.847697 0.129281 0 0 0
502 17 0.512951 0.782335 0.123522 0 0 0
503 6 0.543277 0.806978 0.136437 0 0 0
504 36 0.519893 0.726108 0.133772 0 0 0
505 18 0.53804 0.694361 0.1051 0 0 0
506 6 0.581885 0.688839 0.106674 0 0 0
507 23 0.511286 0.640609 0.104288 0 0 0
508 12 0.456317 0.635941 0.0998227 0 0 0
509 4 0.431756 0.672438 0.0975137 0 0 0
510 10 0.544048 0.595303 0.10779 0 0 0
511 31 0.593415 0.598875 0.111774 0 0 0
512 24 0.517985 0.545652 0.106471 0 0 0
513 3 0.541044 0.512524 0.109312 0 0 0
514 9 0.462894 0.537451 0.101954 0 0 0
515 31 0.444016 0.491292 0.100888 0 0 0
516 13 0.431959 0.587021 0.0985794 0 0 0
517 20 0.370656 0.583935 0.0934286 0 0 0
518 8 0.351778 0.620717 0.103172 0 0 0
519 8 0.35462 0.548737 0.106699 0 0 0
520 8 0.361765 0.58016 0.066685 0 0 0
521 18 0.524805 0.727448 0.0738657 0 0 0
522 6 0.55708 0.722413 0.0549371 0 0 0
523 35 0.568447 0.719084 0.050852 0 0 0
524 5 0.485141 0.715471 0.0637417 0 0 0
525 17 0.522897 0.78538 0.0854106 0 0 0
526 6 0.488957 0.806166 0.0731045 0 0 0
527 33 0.572751 0.812784 0.0780777 0 0 0
528 30 0.05 0.05 0.03125 0 0 0
529 1 0.0807303 0.0737854 0.03125 0 0 0
530 1 0.0192697 0.0737854 0.03125 0 0 0
531 30 0.15 0.15 0.03125 0 0 0
532 1 0.18073 0.173785 0.03125 0 0 0
533 1 0.11927 0.173785 0.03125 0 0 0
534 38 0.15 0.05 0.09375 0 0 0
535 30 0.05 0.15 0.09375 0 0 0
536 1 0.0807303 0.173785 0.09375 0 0 0
537 1 0.0192697 0.173785 0.09375 0 0 0
538 30 0.05 0.05 0.15625 0 0 0
539 1 0.0807303 0.0737854 0.15625 0 0 0
540 1 0.0192697 0.0737854 0.15625 0 0 0
541 38 0.15 0.15 0.15625 0 0 0
542 30 0.15 0.05 0.21875 0 0 0
543 1 0.18073 0.0737854 0.21875 0 0 0
544 1 0.11927 0.0737854 0.21875 0 0 0
545 30 0.05 0.15 0.21875 0 0 0
546 1 0.0807303 0.173785 0.21875 0 0 0
547 1 0.0192697 0.173785 0.21875 0 0 0
548 30 0.05 0.05 0.28125 0 0 0
549 1 0.0807303 0.0737854 0.28125 0 0 0
550 1 0.0192697 0.0737854 0.28125 0 0 0
551 30 0.15 0.15 0.28125 0 0 0
552 1 0.18073 0.173785 0.28125 0 0 0
553 1 0.11927 0.173785 0.28125 0 0 0
554 30 0.15 0.05 0.34375 0 0 0
555 1 0.18073 0.0737854 0.34375 0 0 0
556 1 0.11927 0.0737854 0.34375 0 0 0
557 30 0.05 0.15 0.34375 0 0 0
558 1 0.0807303 0.173785 0.34375 0 0 0
559 1 0.0192697 0.173785 0.34375 0 0 0
560 30 0.05 0.05 0.40625 0 0 0
561 1 0.0807303 0.0737854 0.40625 0 0 0
562 1 0.0192697 0.0737854 0.40625 0 0 0
563 30 0.15 0.05 0.46875 0 0 0
564 1 0.18073 0.0737854 0.46875 0 0 0
565 1 0.11927 0.0737854 0.46875 0 0 0
566 30 0.05 0.15 0.46875 0 0 0
567 1 0.0807303 0.173785 0.46875 0 0 0
568 1 0.0192697 0.173785 0.46875 0 0 0
569 30 0.05 0.05 0.53125 0 0 0
570 1 0.0807303 0.0737854 0.53125 0 0 0
571 1 0.0192697 0.0737854 0.53125 0 0 0
572 30 0.15 0.15 0.53125 0 0 0
573 1 0.18073 0.173785 0.53125 0 0 0
574 1 0.11927 0.173785 0.53125 0 0 0
575 30 0.15 0.05 0.59375 0 0 0
576 1 0.18073 0.0737854 0.59375 0 0 0
577 1 0.11927 0.0737854 0.59375 0 0 0
578 30 0.05 0.15 0.59375 0 0 0
579 1 0.0807303 0.173785 0.59375 0 0 0
580 1 0.0192697 0.173785 0.59375 0 0 0
581 30 0.05 0.05 0.65625 0 0 0
582 1 0.0807303 0.0737854 0.65625 0 0 0
583 1 0.0192697 0.0737854 0.65625 0 0 0
584 30 0.15 0.15 0.65625 0 0 0
585 1 0.18073 0.173785 0.65625 0 0 0
586 1 0.11927 0.173785 0.65625 0 0 0
587 30 0.15 0.05 0.71875 0 0 0
588 1 0.18073 0.0737854 0.71875 0 0 0
589 1 0.11927 0.0737854 0.71875 0 0 0
590 30 0.05 0.15 0.71875 0 0 0
591 1 0.0807303 0.173785 0.71875 0 0 0
592 1 0.0192697 0.173785 0.71875 0 0 0
593 30 0.05 0.05 0.78125 0 0 0
594 1 0.0807303 0.0737854 0.78125 0 0 0
595 1 0.0192697 0.0737854 0.78125 0 0 0
596 30 0.15 0.15 0.78125 0 0 0
597 1 0.18073 0.173785 0.78125 0 0 0
598 1 0.11927 0.173785 0.78125 0 0 0
599 30 0.15 0.05 0.84375 0 0 0
600 1 0.18073 0.0737854 0.84375 0 0 0
601 1 0.11927 0.0737854 0.84375 0 0 0
602 30 0.05 0.15 0.84375 0 0 0
603 1 0.0807303 0.173785 0.84375 0 0 0
604 1 0.0192697 0.173785 0.84375 0 0 0
605 30 0.05 0.05 0.90625 0 0 0
606 1 0.0807303 0.0737854 0.90625 0 0 0
607 1 0.0192697 0.0737854 0.90625 0 0 0
608 30 0.15 0.15 0.90625 0 0 0
609 1 0.18073 0.173785 0.90625 0 0 0
610 1 0.11927 0.173785 0.90625 0 0 0
611 30 0.15 0.05 0.96875 0 0 0
612 1 0.18073 0.0737854 0.96875 0 0 0
613 1 0.11927 0.0737854 0.96875 0 0 0
614 30 0.05 0.15 0.96875 0 0 0
615 1 0.0807303 0.173785 0.96875 0 0 0
616 1 0.0192697 0.173785 0.96875 0 0 0
617 30 0.05 0.25 0.03125 0 0 0
618 1 0.0807303 0.273785 0.03125 0 0 0
619 1 0.0192697 0.273785 0.03125 0 0 0
620 30 0.15 0.35 0.03125 0 0 0
621 1 0.18073 0.373785 0.03125 0 0 0
622 1 0.11927 0.373785 0.03125 0 0 0
623 30 0.15 0.25 0.09375 0 0 0
624 1 0.18073 0.273785 0.09375 0 0 0
625 1 0.11927 0.273785 0.09375 0 0 0
626 30 0.05 0.35 0.09375 0 0 0
627 1 0.0807303 0.373785 0.09375 0 0 0
628 1 0.0192697 0.373785 0.09375 0 0 0
629 30 0.05 0.25 0.15625 0 0 0
630 1 0.0807303 0.273785 0.15625 0 0 0
631 1 0.0192697 0.273785 0.15625 0 0 0
632 30 0.15 0.35 0.15625 0 0 0
633 1 0.18073 0.373785 0.15625 0 0 0
634 1 0.11927 0.373785 0.15625 0 0 0
635 30 0.15 0.25 0.21875 0 0 0
636 1 0.18073 0.273785 0.21875 0 0 0
637 1 0.11927 0.273785 0.21875 0 0 0
638 30 0.05 0.35 0.21875 0 0 0
639 1 0.0807303 0.373785 0.21875 0 0 0
640 1 0.0192697 0.373785 0.21875 0 0 0
641 30 0.05 0.25 0.28125 0 0 0
642 1 0.0807303 0.273785 0.28125 0 0 0
643 1 0.0192697 0.273785 0.28125 0 0 0
644 30 0.05 0.35 0.46875 0 0 0
645 1 0.0807303 0.373785 0.46875 0 0 0
646 1 0.0192697 0.373785 0.46875 0 0 0
647 30 0.05 0.25 0.53125 0 0 0
648 1 0.0807303 0.273785 0.53125 0 0 0
649 1 0.0192697 0.273785 0.53125 0 0 0
650 30 0.15 0.25 0.59375 0 0 0
651 1 0.18073 0.273785 0.59375 0 0 0
652 1 0.11927 0.273785 0.59375 0 0 0
653 30 0.05 0.35 0.59375 0 0 0
654 1 0.0807303 0.373785 0.59375 0 0 0
655 1 0.0192697 0.373785 0.59375 0 0 0
656 30 0.05 0.25 0.65625 0 0 0
657 1 0.0807303 0.273785 0.65625 0 0 0
658 1 0.0192697 0.273785 0.65625 0 0 0
659 30 0.15 0.35 0.65625 0 0 0
660 1 0.18073 0.373785 0.65625 0 0 0
661 1 0.11927 0.373785 0.65625 0 0 0
662 30 0.15 0.25 0.71875 0 0 0
663 1 0.18073 0.273785 0.71875 0 0 0
664 1 0.11927 0.273785 0.71875 0 0 0
665 30 0.05 0.35 0.71875 0 0 0
666 1 0.0807303 0.373785 0.71875 0 0 0
667 1 0.0192697 0.373785 0.71875 0 0 0
668 30 0.05 0.25 0.78125 0 0 0
669 1 0.0807303 0.273785 0.78125 0 0 0
670 1 0.0192697 0.273785 0.78125 0 0 0
671 30 0.15 0.35 0.78125 0 0 0
672 1 0.18073 0.373785 0.78125 0 0 0
673 1 0.11927 0.373785 0.78125 0 0 0
674 30 0.15 0.25 0.84375 0 0 0
675 1 0.18073 0.273785 0.84375 0 0 0
676 1 0.11927 0.273785 0.84375 0 0 0
677 30 0.05 0.35 0.84375 0 0 0
678 1 0.0807303 0.373785 0.84375 0 0 0
679 1 0.0192697 0.373785 0.84375 0 0 0
680 30 0.05 0.25 0.90625 0 0 0
681 1 0.0807303 0.273785 0.90625 0 0 0
682 1 0.0192697 0.273785 0.90625 0 0 0
683 30 0.15 0.35 0.90625 0 0 0
684 1 0.18073 0.373785 0.90625 0 0 0
685 1 0.11927 0.373785 0.90625 0 0 0
686 30 0.15 0.25 0.96875 0 0 0
687 1 0.18073 0.273785 0.96875 0 0 0
688 1 0.11927 0.273785 0.96875 0 0 0
689 30 0.05 0.35 0.96875 0 0 0
690 1 0.0807303 0.373785 0.96875 0 0 0
691 1 0.0192697 0.373785 0.96875 0 0 0
692 30 0.05 0.45 0.03125 0 0 0
693 1 0.0807303 0.473785 0.03125 0 0 0
694 1 0.0192697 0.473785 0.03125 0 0 0
695 30 0.15 0.55 0.03125 0 0 0
696 1 0.18073 0.573785 0.03125 0 0 0
697 1 0.11927 0.573785 0.03125 0 0 0
698 30 0.15 0.45 0.09375 0 0 0
699 1 0.18073 0.473785 0.09375 0 0 0
700 1 0.11927 0.473785 0.09375 0 0 0
701 30 0.05 0.55 0.09375 0 0 0
702 1 0.0807303 0.573785 0.09375 0 0 0
703 1 0.0192697 0.573785 0.09375 0 0 0
704 30 0.05 0.45 0.15625 0 0 0
705 1 0.0807303 0.473785 0.15625 0 0 0
706 1 0.0192697 0.473785 0.15625 0 0 0
707 30 0.15 0.55 0.40625 0 0 0
708 1 0.18073 0.573785 0.40625 0 0 0
709 1 0.11927 0.573785 0.40625 0 0 0
710 30 0.05 0.55 0.46875 0 0 0
711 1 0.0807303 0.573785 0.46875 0 0 0
712 1 0.0192697 0.573785 0.46875 0 0 0
713 30 0.05 0.45 0.53125 0 0 0
714 1 0.0807303 0.473785 0.53125 0 0 0
715 1 0.0192697 0.473785 0.53125 0 0 0
716 30 0.15 0.55 0.53125 0 0 0
717 1 0.18073 0.573785 0.53125 0 0 0
718 1 0.11927 0.573785 0.53125 0 0 0
719 30 0.15 0.45 0.59375 0 0 0
720 1 0.18073 0.473785 0.59375 0 0 0
721 1 0.11927 0.473785 0.59375 0 0 0
722 30 0.05 0.55 0.59375 0 0 0
723 1 0.0807303 0.573785 0.59375 0 0 0
724 1 0.0192697 0.573785 0.59375 0 0 0
725 30 0.05 0.45 0.65625 0 0 0
726 1 0.0807303 0.473785 0.65625 0 0 0
727 1 0.0192697 0.473785 0.65625 0 0 0
728 30 0.05 0.45 0.78125 0 0 0
729 1 0.0807303 0.473785 0.78125 0 0 0
730 1 0.0192697 0.473785 0.78125 0 0 0
731 30 0.15 0.45 0.84375 0 0 0
732 1 0.18073 0.473785 0.84375 0 0 0
733 1 0.11927 0.473785 0.84375 0 0 0
734 30 0.05 0.55 0.84375 0 0 0
735 1 0.0807303 0.573785 0.84375 0 0 0
736 1 0.0192697 0.573785 0.84375 0 0 0
737 30 0.05 0.45 0.90625 0 0 0
738 1 0.0807303 0.473785 0.90625 0 0 0
739 1 0.0192697 0.473785 0.90625 0 0 0
740 30 0.15 0.55 0.90625 0 0 0
741 1 0.18073 0.573785 0.90625 0 0 0
742 1 0.11927 0.573785 0.90625 0 0 0
743 30 0.15 0.45 0.96875 0 0 0
744 1 0.18073 0.473785 0.96875 0 0 0
745 1 0.11927 0.473785 0.96875 0 0 0
746 30 0.05 0.55 0.96875 0 0 0
747 1 0.0807303 0.573785 0.96875 0 0 0
748 1 0.0192697 0.573785 0.96875 0 0 0
749 30 0.05 0.65 0.03125 0 0 0
750 1 0.0807303 0.673785 0.03125 0 0 0
751 1 0.0192697 0.673785 0.03125 0 0 0
752 30 0.15 0.75 0.03125 0 0 0
753 1 0.18073 0.773785 0.03125 0 0 0
754 1 0.11927 0.773785 0.03125 0 0 0
755 30 0.15 0.65 0.09375 0 0 0
756 1 0.18073 0.673785 0.09375 0 0 0
757 1 0.11927 0.673785 0.09375 0 0 0
758 30 0.05 0.75 0.09375 0 0 0
759 1 0.0807303 0.773785 0.09375 0 0 0
760 1 0.0192697 0.773785 0.09375 0 0 0
761 30 0.05 0.75 0.34375 0 0 0
762 1 0.0807303 0.773785 0.34375 0 0 0
763 1 0.0192697 0.773785 0.34375 0 0 0
764 30 0.05 0.65 0.40625 0 0 0
765 1 0.0807303 0.673785 0.40625 0 0 0
766 1 0.0192697 0.673785 0.40625 0 0 0
767 30 0.15 0.75 0.40625 0 0 0
768 1 0.18073 0.773785 0.40625 0 0 0
769 1 0.11927 0.773785 0.40625 0 0 0
770 30 0.15 0.65 0.46875 0 0 0
771 1 0.18073 0.673785 0.46875 0 0 0
772 1 0.11927 0.673785 0.46875 0 0 0
773 30 0.05 0.75 0.46875 0 0 0
774 1 0.0807303 0.773785 0.46875 0 0 0
775 1 0.0192697 0.773785 0.46875 0 0 0
776 30 0.05 0.65 0.53125 0 0 0
777 1 0.0807303 0.673785 0.53125 0 0 0
778 1 0.0192697 0.673785 0.53125 0 0 0
779 30 0.15 0.65 0.84375 0 0 0
780 1 0.18073 0.673785 0.84375 0 0 0
781 1 0.11927 0.673785 0.84375 0 0 0
782 30 0.05 0.75 0.84375 0 0 0
783 1 0.0807303 0.773785 0.84375 0 0 0
784 1 0.0192697 0.773785 0.84375 0 0 0
785 30 0.05 0.65 0.90625 0 0 0