LAMMPS (17 Jan 2018)
OMP_NUM_THREADS environment is not set. Defaulting to 1 thread. (../comm.cpp:90)
  using 1 OpenMP thread(s) per MPI task
# Created by charmm2lammps v1.9.1 on Sun Jan 28 05:46:18 EST 2018
# Command: charmm2lammps.pl -water -ions -border=2.0 all27_na 1ac7

units           real
neigh_modify    delay 2 every 1

atom_style      full
bond_style      harmonic
angle_style     charmm
dihedral_style  charmm
improper_style  harmonic

pair_style      lj/charmm/coul/long 8 12
pair_modify     mix arithmetic
kspace_style    pppm 1e-6

read_data       1ac7.data
  orthogonal box = (-14.087 -1.88253 -5.44214) to (10.545 22.7495 33.9691)
  2 by 1 by 2 MPI processor grid
  reading atoms ...
  1968 atoms
  scanning bonds ...
  3 = max bonds/atom
  scanning angles ...
  6 = max angles/atom
  scanning dihedrals ...
  14 = max dihedrals/atom
  scanning impropers ...
  1 = max impropers/atom
  reading bonds ...
  1516 bonds
  reading angles ...
  1491 angles
  reading dihedrals ...
  1659 dihedrals
  reading impropers ...
  43 impropers
  4 = max # of 1-2 neighbors
  7 = max # of 1-3 neighbors
  18 = max # of 1-4 neighbors
  20 = max # of special neighbors

special_bonds   charmm
thermo          10
thermo_style    multi
timestep        1.0

minimize 0.0 0.0 50 200
WARNING: Using 'neigh_modify every 1 delay 0 check yes' setting during minimization (../min.cpp:168)
PPPM initialization ...
WARNING: Using 12-bit tables for long-range coulomb (../kspace.cpp:321)
  G vector (1/distance) = 0.280406
  grid = 30 30 40
  stencil order = 5
  estimated absolute RMS force accuracy = 0.000302577
  estimated relative force accuracy = 9.11202e-07
  using double precision FFTs
  3d grid and FFT values/proc = 21978 9000
Neighbor list info ...
  update every 1 steps, delay 0 steps, check yes
  max neighbors/atom: 2000, page size: 100000
  master list distance cutoff = 14
  ghost atom cutoff = 14
  binsize = 7, bins = 4 4 6
  1 neighbor lists, perpetual/occasional/extra = 1 0 0
  (1) pair lj/charmm/coul/long, perpetual
      attributes: half, newton on
      pair build: half/bin/newton
      stencil: half/bin/3d/newton
      bin: standard
Per MPI rank memory allocation (min/avg/max) = 17.89 | 17.89 | 17.9 Mbytes
---------------- Step        0 ----- CPU =      0.0000 (sec) ----------------
TotEng   =     16382.0106 KinEng   =         0.0000 Temp     =         0.0000 
PotEng   =     16382.0106 E_bond   =     12014.3479 E_angle  =      5414.5475 
E_dihed  =       557.2338 E_impro  =         0.0516 E_vdwl   =      1174.9839 
E_coul   =     28273.7003 E_long   =    -31052.8544 Press    =    -17947.7297 
---------------- Step       10 ----- CPU =      0.2030 (sec) ----------------
TotEng   =     -1386.3677 KinEng   =         0.0000 Temp     =         0.0000 
PotEng   =     -1386.3677 E_bond   =       238.0964 E_angle  =      2167.9109 
E_dihed  =       556.7458 E_impro  =         2.3622 E_vdwl   =      -407.1366 
E_coul   =     27803.2765 E_long   =    -31747.6229 Press    =      -902.5957 
---------------- Step       20 ----- CPU =      0.4523 (sec) ----------------
TotEng   =     -4643.9749 KinEng   =         0.0000 Temp     =         0.0000 
PotEng   =     -4643.9749 E_bond   =       186.6424 E_angle  =       546.1482 
E_dihed  =       557.6115 E_impro  =         3.7530 E_vdwl   =      -572.4168 
E_coul   =     27184.6593 E_long   =    -32550.3724 Press    =    -13499.9676 
---------------- Step       30 ----- CPU =      0.7954 (sec) ----------------
TotEng   =     -5356.2261 KinEng   =         0.0000 Temp     =         0.0000 
PotEng   =     -5356.2261 E_bond   =       150.5494 E_angle  =       451.1209 
E_dihed  =       548.4804 E_impro  =         3.8629 E_vdwl   =      -587.7229 
E_coul   =     26908.1173 E_long   =    -32830.6340 Press    =    -12635.5249 
---------------- Step       40 ----- CPU =      1.1432 (sec) ----------------
TotEng   =     -5814.9675 KinEng   =         0.0000 Temp     =         0.0000 
PotEng   =     -5814.9675 E_bond   =       145.1741 E_angle  =       424.9449 
E_dihed  =       539.7599 E_impro  =         3.8304 E_vdwl   =      -559.2034 
E_coul   =     26618.2861 E_long   =    -32987.7596 Press    =    -13254.1066 
---------------- Step       50 ----- CPU =      1.4855 (sec) ----------------
TotEng   =     -6207.1556 KinEng   =         0.0000 Temp     =         0.0000 
PotEng   =     -6207.1556 E_bond   =       172.5209 E_angle  =       400.9621 
E_dihed  =       532.0702 E_impro  =         3.4517 E_vdwl   =      -491.3979 
E_coul   =     26261.2546 E_long   =    -33086.0173 Press    =    -13942.2342 
Loop time of 1.48576 on 4 procs for 50 steps with 1968 atoms

98.7% CPU use with 4 MPI tasks x 1 OpenMP threads

Minimization stats:
  Stopping criterion = max iterations
  Energy initial, next-to-last, final = 
         16382.0106166     -6167.68761847     -6207.15563509
  Force two-norm initial, final = 9111.03 289.249
  Force max component initial, final = 2253.01 63.7887
  Final line search alpha, max atom move = 0.000835537 0.0532979
  Iterations, force evaluations = 50 75

MPI task timing breakdown:
Section |  min time  |  avg time  |  max time  |%varavg| %total
---------------------------------------------------------------
Pair    | 0.86139    | 0.95604    | 1.1156     |  10.8 | 64.35
Bond    | 0.0054429  | 0.012373   | 0.015879   |   3.7 |  0.83
Kspace  | 0.29818    | 0.45076    | 0.54304    |  15.1 | 30.34
Neigh   | 0.037995   | 0.038014   | 0.038038   |   0.0 |  2.56
Comm    | 0.021986   | 0.022179   | 0.022257   |   0.1 |  1.49
Output  | 0.00028157 | 0.00048172 | 0.0010796  |   0.0 |  0.03
Modify  | 0          | 0          | 0          |   0.0 |  0.00
Other   |            | 0.005911   |            |       |  0.40

Nlocal:    492 ave 538 max 472 min
Histogram: 2 0 1 0 0 0 0 0 0 1
Nghost:    8001.25 ave 8242 max 7756 min
Histogram: 1 0 0 1 0 0 0 1 0 1
Neighs:    232207 ave 275971 max 203927 min
Histogram: 2 0 0 0 1 0 0 0 0 1

Total # of neighbors = 928828
Ave neighs/atom = 471.965
Ave special neighs/atom = 4.4065
Neighbor list builds = 3
Dangerous builds = 0

reset_timestep  0
fix             1 all nve
fix             2 all shake 1e-6 500 0 m 1.0 a 93
  112 = # of size 2 clusters
  26 = # of size 3 clusters
  6 = # of size 4 clusters
  475 = # of frozen angles
velocity        all create 0.0 12345678 dist uniform

restart         500 1ac7.restart1 1ac7.restart2
dump            1 all atom 100 1ac7.dump
dump_modify     1 image yes scale yes

thermo          100
run             1000
PPPM initialization ...
WARNING: Using 12-bit tables for long-range coulomb (../kspace.cpp:321)
  G vector (1/distance) = 0.280406
  grid = 30 30 40
  stencil order = 5
  estimated absolute RMS force accuracy = 0.000302577
  estimated relative force accuracy = 9.11202e-07
  using double precision FFTs
  3d grid and FFT values/proc = 21978 9000
Per MPI rank memory allocation (min/avg/max) = 18.67 | 18.68 | 18.68 Mbytes
---------------- Step        0 ----- CPU =      0.0000 (sec) ----------------
TotEng   =     -6345.9602 KinEng   =         0.0000 Temp     =         0.0000 
PotEng   =     -6345.9602 E_bond   =       118.9251 E_angle  =       315.7533 
E_dihed  =       532.0702 E_impro  =         3.4517 E_vdwl   =      -491.3979 
E_coul   =     26261.2546 E_long   =    -33086.0173 Press    =    -13274.6498 
---------------- Step      100 ----- CPU =      1.5587 (sec) ----------------
TotEng   =     -6089.2059 KinEng   =       737.9545 Temp     =       172.9635 
PotEng   =     -6827.1604 E_bond   =        99.2610 E_angle  =       293.4796 
E_dihed  =       518.3926 E_impro  =         3.4260 E_vdwl   =       -53.1737 
E_coul   =     25455.9659 E_long   =    -33144.5118 Press    =     -7582.0585 
---------------- Step      200 ----- CPU =      3.1808 (sec) ----------------
TotEng   =     -6089.3334 KinEng   =      1048.0815 Temp     =       245.6518 
PotEng   =     -7137.4150 E_bond   =       105.4181 E_angle  =       314.1091 
E_dihed  =       525.7575 E_impro  =         2.0633 E_vdwl   =       549.1716 
E_coul   =     24511.2323 E_long   =    -33145.1669 Press    =     -1214.5095 
---------------- Step      300 ----- CPU =      4.8699 (sec) ----------------
TotEng   =     -6089.3928 KinEng   =      1163.3028 Temp     =       272.6576 
PotEng   =     -7252.6956 E_bond   =       101.6270 E_angle  =       351.8828 
E_dihed  =       525.2212 E_impro  =         3.1286 E_vdwl   =       516.2458 
E_coul   =     24404.4712 E_long   =    -33155.2722 Press    =     -2323.5317 
---------------- Step      400 ----- CPU =      6.5652 (sec) ----------------
TotEng   =     -6089.4987 KinEng   =      1182.3885 Temp     =       277.1310 
PotEng   =     -7271.8872 E_bond   =       114.0720 E_angle  =       325.6458 
E_dihed  =       516.7310 E_impro  =         3.1876 E_vdwl   =       522.6196 
E_coul   =     24402.0712 E_long   =    -33156.2144 Press    =     -2169.9377 
---------------- Step      500 ----- CPU =      8.2547 (sec) ----------------
TotEng   =     -6089.4538 KinEng   =      1158.7955 Temp     =       271.6012 
PotEng   =     -7248.2493 E_bond   =       103.0865 E_angle  =       339.1037 
E_dihed  =       522.7155 E_impro  =         2.6322 E_vdwl   =       439.8428 
E_coul   =     24513.5109 E_long   =    -33169.1409 Press    =     -1803.4201 
---------------- Step      600 ----- CPU =      9.9107 (sec) ----------------
TotEng   =     -6089.5529 KinEng   =      1205.1352 Temp     =       282.4624 
PotEng   =     -7294.6881 E_bond   =       108.2588 E_angle  =       346.6746 
E_dihed  =       531.5390 E_impro  =         3.2909 E_vdwl   =       459.2427 
E_coul   =     24426.5336 E_long   =    -33170.2276 Press    =     -2567.6797 
---------------- Step      700 ----- CPU =     11.5432 (sec) ----------------
TotEng   =     -6089.5542 KinEng   =      1192.6231 Temp     =       279.5298 
PotEng   =     -7282.1773 E_bond   =       111.1701 E_angle  =       368.3148 
E_dihed  =       531.3469 E_impro  =         3.6338 E_vdwl   =       526.5919 
E_coul   =     24341.9242 E_long   =    -33165.1590 Press    =     -1918.0534 
---------------- Step      800 ----- CPU =     13.1827 (sec) ----------------
TotEng   =     -6089.6409 KinEng   =      1211.1193 Temp     =       283.8650 
PotEng   =     -7300.7601 E_bond   =       104.1488 E_angle  =       343.9467 
E_dihed  =       536.0043 E_impro  =         5.1288 E_vdwl   =       507.6841 
E_coul   =     24380.9222 E_long   =    -33178.5951 Press    =     -1535.2124 
---------------- Step      900 ----- CPU =     14.8342 (sec) ----------------
TotEng   =     -6089.6435 KinEng   =      1219.9414 Temp     =       285.9327 
PotEng   =     -7309.5848 E_bond   =       106.3702 E_angle  =       362.6403 
E_dihed  =       531.9023 E_impro  =         4.1736 E_vdwl   =       532.4576 
E_coul   =     24326.4696 E_long   =    -33173.5985 Press    =      -694.2393 
---------------- Step     1000 ----- CPU =     16.5041 (sec) ----------------
TotEng   =     -6089.6045 KinEng   =      1204.4192 Temp     =       282.2946 
PotEng   =     -7294.0238 E_bond   =       108.7432 E_angle  =       365.2088 
E_dihed  =       541.1125 E_impro  =         5.8781 E_vdwl   =       533.2755 
E_coul   =     24329.0904 E_long   =    -33177.3322 Press    =     -1373.0623 
Loop time of 16.5043 on 4 procs for 1000 steps with 1968 atoms

Performance: 5.235 ns/day, 4.585 hours/ns, 60.590 timesteps/s
98.8% CPU use with 4 MPI tasks x 1 OpenMP threads

MPI task timing breakdown:
Section |  min time  |  avg time  |  max time  |%varavg| %total
---------------------------------------------------------------
Pair    | 8.2128     | 9.5121     | 11.127     |  36.9 | 57.63
Bond    | 0.035131   | 0.11618    | 0.15792    |  14.0 |  0.70
Kspace  | 4.0276     | 5.4843     | 6.6741     |  44.1 | 33.23
Neigh   | 0.66517    | 0.66553    | 0.66594    |   0.0 |  4.03
Comm    | 0.28238    | 0.35525    | 0.41804    |   9.9 |  2.15
Output  | 0.01374    | 0.014323   | 0.015721   |   0.7 |  0.09
Modify  | 0.28166    | 0.28593    | 0.29397    |   0.9 |  1.73
Other   |            | 0.07076    |            |       |  0.43

Nlocal:    492 ave 517 max 456 min
Histogram: 1 0 0 0 0 1 0 0 1 1
Nghost:    7866 ave 8035 max 7664 min
Histogram: 1 0 0 1 0 0 0 0 1 1
Neighs:    232474 ave 255787 max 198462 min
Histogram: 1 0 0 1 0 0 0 0 0 2

Total # of neighbors = 929895
Ave neighs/atom = 472.508
Ave special neighs/atom = 4.4065
Neighbor list builds = 47
Dangerous builds = 0
Total wall time: 0:00:18
