RANDOM INITIALIZATION FOR STOCKMAYER FLUID
2     atoms
1     atom types

     -3.0   3.0  xlo xhi
     -3.0   3.0  ylo yhi     
     -3.0   3.0  zlo zhi
     #30.0 30.0 0.0    xy xz yz

Atoms

1	1	1.73	 0.0	 0.0	 0.0	 0.0	 0.0	 1.0 
2	1	1.73	 0.0	 2.5	 0.0	 0.0	 0.0	 1.0 
