LAMMPS data file via write_data, version 27 May 2021

10 atoms
4 atom types
8 bonds
1 bond types
10 ellipsoids

-20 20 xlo xhi
-20 20 ylo yhi
-20 20 zlo zhi

Masses

1 1
2 1
3 1
4 1

Atoms # hybrid

1 1 -0.11270997503399371 -0.7862611620723637 1.3165400870544903 1 1 0.060395054525384434 0 0 0
2 2 -0.16100240482903602 -1.0148422652606093 1.7725173088171975 1 1 0.060395054525384434 0 0 0
3 3 -0.07298109176865208 -1.2058352049378398 2.2155374630046025 1 1 0.060395054525384434 0 0 0
4 4 0.20885923193243378 -1.2688318677749852 2.7293157091426354 1 1 0.060395054525384434 0 0 0
5 1 0.4977080746488808 -1.1877183116613397 3.1217952838980874 1 1 0.060395054525384434 0 0 0
6 4 -0.2268968274787041 -0.189603020612256 3.1084583050105072 2 1 0.060395054525384434 0 0 0
7 1 -0.0350302960648884 -0.11245734514413211 2.7014501755341493 2 1 0.060395054525384434 0 0 0
8 2 0.25244681036675387 -0.03694235704351071 2.3220950502861553 2 1 0.060395054525384434 0 0 0
9 3 0.6676541258850296 -0.19471246409842435 2.0340464261767104 2 1 0.060395054525384434 0 0 0
10 4 0.934602266948905 -0.5194117909409754 1.8612193115349325 2 1 0.060395054525384434 0 0 0

Velocities

1 0.7350861197179651 -0.21340767305489933 0.039697389523131524 0.514970941606362 -0.5778402699166201 0.41643574848945447
2 0.45886825731636693 0.15479323180826426 0.45998155912439004 -0.09532046111956156 -0.028811462065931184 0.1672428695820793
3 -0.10009582230026307 -0.1356043155573722 -0.1357102030132947 0.512435093836635 0.8794667047362844 -0.4062045597142004
4 -0.030407148345627223 -0.009119685021467273 0.2894674569635424 -0.22197357320787495 0.46474035192627294 -0.07166539037437039
5 0.021807141873185235 -0.3544326055489752 0.4440408124043861 -0.019877710182688496 0.008454084203717545 -0.16574323908949498
6 0.058814594979770644 -0.23964725458291067 0.09430081861001074 -0.16841516333125345 -0.27499692207835863 0.49231682345951117
7 -0.004278840261670186 0.011171100752661912 -0.10686407869958243 0.3533956051874728 -0.5781793964284943 0.171273466705473
8 -0.5678723978567293 -0.05635280062816237 -0.12337612014269532 -0.06293014166900977 -0.5548255617488771 -0.3948679676680598
9 0.07493146865794496 0.37868089841113717 0.11143666048372917 -0.35561925325917687 -0.3453461570214745 -0.5277976799082732
10 -0.48819053761319386 -0.11027061946453155 0.19465531836187655 0.10340969323917759 0.3809806548307742 0.25623918588602335

Bonds

1 1 1 2
2 1 2 3
3 1 3 4
4 1 4 5
5 1 6 7
6 1 7 8
7 1 8 9
8 1 9 10

Ellipsoids

1 3.1622776601683795 3.1622776601683795 3.1622776601683795 0.9824438652148015 -0.023183015026523597 -0.18238525095550406 0.031657854475291056
2 3.1622776601683795 3.1622776601683795 3.1622776601683795 0.9303156820429525 0.02962373336578937 -0.07607439157272995 0.3575581814380256
3 3.1622776601683795 3.1622776601683795 3.1622776601683795 0.7912072782182723 -0.043679545103099016 -0.05996218100443608 0.6070318583758278
4 3.1622776601683795 3.1622776601683795 3.1622776601683795 0.6531869542452552 -0.03659000162837596 0.004181596561545229 0.7563005281201641
5 3.1622776601683795 3.1622776601683795 3.1622776601683795 0.3249781771672557 0.06207197535108856 0.03689277251937633 0.9429608568635791
6 3.1622776601683795 3.1622776601683795 3.1622776601683795 0.08029535222204207 0.8726095530830543 -0.46831094470633033 -0.11309325067392484
7 3.1622776601683795 3.1622776601683795 3.1622776601683795 -0.1303991484205687 0.7764383491760718 -0.6081660772848121 0.10135864274905797
8 3.1622776601683795 3.1622776601683795 3.1622776601683795 -0.14971034142173664 0.5769499085020084 -0.7973230447846137 0.09482393688465168
9 3.1622776601683795 3.1622776601683795 3.1622776601683795 0.21130729744233523 -0.37917864508185584 0.8946270178621702 -0.10590221939385809
10 3.1622776601683795 3.1622776601683795 3.1622776601683795 0.34278400171414436 0.15185237372800306 0.9252984668160771 0.05712032974191834
