LAMMPS (2 Jul 2021)
variable number	equal 3
variable ofreq	equal 1000
variable efreq	equal 1000
variable T      equal 0.1
variable rhos   equal 0.2

units lj

dimension 3

newton on

boundary  p p p

atom_style hybrid bond ellipsoid oxdna
WARNING: Atom style hybrid defines both, per-type and per-atom masses; both must be set, but only per-atom masses will be used (../atom_vec_hybrid.cpp:157)
atom_modify sort 0 1.0

# Pair interactions require lists of neighbours to be calculated
neighbor 2.0 bin
neigh_modify every 1 delay 0 check yes

read_data data.duplex3
Reading data file ...
  orthogonal box = (-20.000000 -20.000000 -20.000000) to (20.000000 20.000000 20.000000)
  1 by 1 by 1 MPI processor grid
  reading atoms ...
  10 atoms
  reading velocities ...
  10 velocities
  scanning bonds ...
  1 = max bonds/atom
  10 ellipsoids
  reading bonds ...
  8 bonds
Finding 1-2 1-3 1-4 neighbors ...
  special bond factors lj:    0        0        0       
  special bond factors coul:  0        0        0       
     2 = max # of 1-2 neighbors
     2 = max # of 1-3 neighbors
     2 = max # of 1-4 neighbors
     4 = max # of special neighbors
  special bonds CPU = 0.000 seconds
  read_data CPU = 0.003 seconds

set atom * mass 1.0
Setting atom values ...
  10 settings made for mass

group all type 1 4
10 atoms in group all

# oxDNA2 bond interactions - FENE backbone
bond_style oxdna2/fene
bond_coeff * 2.0 0.25 0.7564
special_bonds lj 0 1 1
Finding 1-2 1-3 1-4 neighbors ...
  special bond factors lj:    0        1        1       
  special bond factors coul:  0        0        0       
     2 = max # of 1-2 neighbors
     2 = max # of 1-3 neighbors
     2 = max # of 1-4 neighbors
     4 = max # of special neighbors
  special bonds CPU = 0.000 seconds

# oxDNA2 pair interactions
pair_style hybrid/overlay oxdna2/excv oxdna2/stk oxdna2/hbond oxdna2/xstk oxdna2/coaxstk oxdna2/dh
pair_coeff * * oxdna2/excv    2.0 0.7 0.675 2.0 0.515 0.5 2.0 0.33 0.32
pair_coeff * * oxdna2/stk     seqdep ${T} 1.3523 2.6717 6.0 0.4 0.9 0.32 0.75 1.3 0 0.8 0.9 0 0.95 0.9 0 0.95 2.0 0.65 2.0 0.65
pair_coeff * * oxdna2/stk     seqdep 0.1 1.3523 2.6717 6.0 0.4 0.9 0.32 0.75 1.3 0 0.8 0.9 0 0.95 0.9 0 0.95 2.0 0.65 2.0 0.65
pair_coeff * * oxdna2/hbond   seqdep 0.0 8.0 0.4 0.75 0.34 0.7 1.5 0 0.7 1.5 0 0.7 1.5 0 0.7 0.46 3.141592653589793 0.7 4.0 1.5707963267948966 0.45 4.0 1.5707963267948966 0.45
pair_coeff 1 4 oxdna2/hbond   seqdep 1.0678 8.0 0.4 0.75 0.34 0.7 1.5 0 0.7 1.5 0 0.7 1.5 0 0.7 0.46 3.141592653589793 0.7 4.0 1.5707963267948966 0.45 4.0 1.5707963267948966 0.45
pair_coeff 2 3 oxdna2/hbond   seqdep 1.0678 8.0 0.4 0.75 0.34 0.7 1.5 0 0.7 1.5 0 0.7 1.5 0 0.7 0.46 3.141592653589793 0.7 4.0 1.5707963267948966 0.45 4.0 1.5707963267948966 0.45
pair_coeff * * oxdna2/xstk    47.5 0.575 0.675 0.495 0.655 2.25 0.791592653589793 0.58 1.7 1.0 0.68 1.7 1.0 0.68 1.5 0 0.65 1.7 0.875 0.68 1.7 0.875 0.68
pair_coeff * * oxdna2/coaxstk 58.5 0.4 0.6 0.22 0.58 2.0 2.891592653589793 0.65 1.3 0 0.8 0.9 0 0.95 0.9 0 0.95 40.0 3.116592653589793
pair_coeff * * oxdna2/dh      ${T} ${rhos} 0.815
pair_coeff * * oxdna2/dh      0.1 ${rhos} 0.815
pair_coeff * * oxdna2/dh      0.1 0.2 0.815

# NVE ensemble
fix 1 all nve/asphere
#fix 2 all langevin ${T} ${T} 2.5 457145 angmom 10

timestep 1e-5

#comm_style tiled
fix 3 all balance 1000 1.03 shift xyz 10 1.03
comm_modify cutoff 3.8

compute quat all property/atom quatw quati quatj quatk

compute erot all erotate/asphere
compute ekin all ke
compute epot all pe
variable erot equal c_erot
variable ekin equal c_ekin
variable epot equal c_epot
variable etot equal c_erot+c_ekin+c_epot
fix 5 all print ${efreq} "$(step)  ekin = ${ekin} |  erot = ${erot} | epot = ${epot} | etot = ${etot}" screen yes
fix 5 all print 1000 "$(step)  ekin = ${ekin} |  erot = ${erot} | epot = ${epot} | etot = ${etot}" screen yes

dump out all custom ${ofreq} out.${number}.lammpstrj id mol type x y z ix iy iz vx vy vz c_quat[1] c_quat[2] c_quat[3] c_quat[4] angmomx angmomy angmomz
dump out all custom 1000 out.${number}.lammpstrj id mol type x y z ix iy iz vx vy vz c_quat[1] c_quat[2] c_quat[3] c_quat[4] angmomx angmomy angmomz
dump out all custom 1000 out.3.lammpstrj id mol type x y z ix iy iz vx vy vz c_quat[1] c_quat[2] c_quat[3] c_quat[4] angmomx angmomy angmomz
dump_modify out sort id
dump_modify out format line "%d %d %d  %22.15le %22.15le %22.15le  %d %d %d  %22.15le %22.15le %22.15le  %22.15le %22.15le %22.15le %22.15le  %22.15le %22.15le %22.15le"

run 1000000
Neighbor list info ...
  update every 1 steps, delay 0 steps, check yes
  max neighbors/atom: 2000, page size: 100000
  master list distance cutoff = 5.6389877
  ghost atom cutoff = 5.6389877
  binsize = 2.8194939, bins = 15 15 15
  5 neighbor lists, perpetual/occasional/extra = 5 0 0
  (1) pair oxdna2/excv, perpetual
      attributes: half, newton on
      pair build: half/bin/newton
      stencil: half/bin/3d
      bin: standard
  (2) pair oxdna2/hbond, perpetual, copy from (1)
      attributes: half, newton on
      pair build: copy
      stencil: none
      bin: none
  (3) pair oxdna2/xstk, perpetual, copy from (1)
      attributes: half, newton on
      pair build: copy
      stencil: none
      bin: none
  (4) pair oxdna2/coaxstk, perpetual, copy from (1)
      attributes: half, newton on
      pair build: copy
      stencil: none
      bin: none
  (5) pair oxdna2/dh, perpetual, copy from (1)
      attributes: half, newton on
      pair build: copy
      stencil: none
      bin: none
WARNING: Communication cutoff adjusted to 5.638987723814632 (../comm.cpp:739)
0  ekin = 1.18025158324274 |  erot = 2.17908479136507 | epot = -11.4931199991265 | etot = -8.13378362451864
Per MPI rank memory allocation (min/avg/max) = 9.198 | 9.198 | 9.198 Mbytes
Step Temp E_pair E_mol TotEng Press Volume 
       0  0.087426043   -1.2259004  0.076588446   -1.0312868 -7.7802026e-06        64000 
1000  ekin = 1.08696491147664 |  erot = 2.23197650714075 | epot = -11.4527250425129 | etot = -8.13378362389549
2000  ekin = 1.01265115460252 |  erot = 2.29132031278141 | epot = -11.4377550908151 | etot = -8.13378362343119
3000  ekin = 0.964951920610362 |  erot = 2.35614244814783 | epot = -11.4548779921653 | etot = -8.13378362340706
4000  ekin = 0.945861179227109 |  erot = 2.42482489276794 | epot = -11.504469695762 | etot = -8.13378362376699
5000  ekin = 0.952186940161594 |  erot = 2.49508744948287 | epot = -11.5810580140496 | etot = -8.13378362440513
6000  ekin = 0.976836955567339 |  erot = 2.56435791368456 | epot = -11.6749784943528 | etot = -8.13378362510091
7000  ekin = 1.01151727363105 |  erot = 2.63034980765842 | epot = -11.7756507069156 | etot = -8.13378362562616
8000  ekin = 1.04963768886898 |  erot = 2.69159648304404 | epot = -11.8750177977506 | etot = -8.13378362583759
9000  ekin = 1.08831406483925 |  erot = 2.74768757650641 | epot = -11.9697852671577 | etot = -8.13378362581202
10000  ekin = 1.12769894654433 |  erot = 2.79881902231421 | epot = -12.0603015945015 | etot = -8.13378362564291
11000  ekin = 1.16997706279097 |  erot = 2.84539220453504 | epot = -12.1491528928087 | etot = -8.13378362548265
12000  ekin = 1.21772825403564 |  erot = 2.88753582693543 | epot = -12.2390477064186 | etot = -8.13378362544756
13000  ekin = 1.27247277648631 |  erot = 2.92478423931378 | epot = -12.3310406413901 | etot = -8.13378362558998
14000  ekin = 1.33384628320074 |  erot = 2.95599632290763 | epot = -12.423626232019 | etot = -8.13378362591067
15000  ekin = 1.39936071611664 |  erot = 2.97947113417333 | epot = -12.5126154766849 | etot = -8.13378362639496
16000  ekin = 1.46443870928025 |  erot = 2.99312358077431 | epot = -12.5913459174139 | etot = -8.13378362735934
17000  ekin = 1.52113741921509 |  erot = 2.99430260105838 | epot = -12.6492236482455 | etot = -8.13378362797204
18000  ekin = 1.56143918576787 |  erot = 2.98098620608846 | epot = -12.6762090203241 | etot = -8.13378362846779
19000  ekin = 1.57873438318794 |  erot = 2.9520667445456 | epot = -12.6645847564923 | etot = -8.13378362875874
20000  ekin = 1.56841348053791 |  erot = 2.9073514731296 | epot = -12.6095485824455 | etot = -8.133783628778
21000  ekin = 1.52886464109308 |  erot = 2.8476529136898 | epot = -12.5103011832754 | etot = -8.13378362849248
22000  ekin = 1.46209217703489 |  erot = 2.774783976472 | epot = -12.3706597813886 | etot = -8.13378362788177
23000  ekin = 1.37376733102674 |  erot = 2.69155728313727 | epot = -12.1991082412397 | etot = -8.13378362707572
24000  ekin = 1.27262109890792 |  erot = 2.60118350194755 | epot = -12.0075882269997 | etot = -8.13378362614425
25000  ekin = 1.16926502294376 |  erot = 2.50703692695188 | epot = -11.8100855751042 | etot = -8.13378362520854
26000  ekin = 1.07471489945141 |  erot = 2.4123584015281 | epot = -11.6208569253571 | etot = -8.13378362437762
27000  ekin = 0.998982995755817 |  erot = 2.31997753232672 | epot = -11.4527441518066 | etot = -8.13378362372404
28000  ekin = 0.950065052892328 |  erot = 2.23215621537583 | epot = -11.3160048915416 | etot = -8.13378362327344
29000  ekin = 0.933483801722602 |  erot = 2.1505610010297 | epot = -11.2178284257645 | etot = -8.13378362301223
30000  ekin = 0.952335164336064 |  erot = 2.07633501131217 | epot = -11.1624537985556 | etot = -8.13378362290736
31000  ekin = 1.00761822011319 |  erot = 2.01025995539428 | epot = -11.1516617984317 | etot = -8.13378362292422
32000  ekin = 1.09859027316482 |  erot = 1.95287201474925 | epot = -11.1852459109705 | etot = -8.13378362305645
33000  ekin = 1.22296348257697 |  erot = 1.90442653272436 | epot = -11.2611736386122 | etot = -8.13378362331083
34000  ekin = 1.37683793249585 |  erot = 1.86498336105423 | epot = -11.3756049172807 | etot = -8.13378362373066
35000  ekin = 1.55422271443458 |  erot = 1.83436013830184 | epot = -11.5223664771471 | etot = -8.13378362441064
36000  ekin = 1.74589607048141 |  erot = 1.81205442227457 | epot = -11.6917341182485 | etot = -8.13378362549247
37000  ekin = 1.93777565280859 |  erot = 1.79705197600543 | epot = -11.8686112558399 | etot = -8.13378362702585
38000  ekin = 2.11051089015041 |  erot = 1.78782890330229 | epot = -12.0321234221666 | etot = -8.13378362871388
39000  ekin = 2.24321482588509 |  erot = 1.78271510837226 | epot = -12.1597135641243 | etot = -8.1337836298669
40000  ekin = 2.32146151921643 |  erot = 1.7807328300512 | epot = -12.2359779791645 | etot = -8.13378362989691
41000  ekin = 2.34386750101389 |  erot = 1.78241563043109 | epot = -12.2600667603296 | etot = -8.1337836288846
42000  ekin = 2.32118218527097 |  erot = 1.78979050959073 | epot = -12.2447563223396 | etot = -8.13378362747785
43000  ekin = 2.26309111555158 |  erot = 1.8053926207647 | epot = -12.2022673943961 | etot = -8.13378365807986
44000  ekin = 2.15856242114832 |  erot = 1.84609032619604 | epot = -12.1384363880305 | etot = -8.13378364068615
45000  ekin = 2.08936731003526 |  erot = 1.88904724563039 | epot = -12.1121981822921 | etot = -8.1337836266264
46000  ekin = 1.9964611597006 |  erot = 1.93503982400428 | epot = -12.0652846104763 | etot = -8.13378362677143
47000  ekin = 1.89712577412051 |  erot = 1.98806984898587 | epot = -12.0189792501524 | etot = -8.133783627046
48000  ekin = 1.79036864863103 |  erot = 2.04496273496239 | epot = -11.9691150108766 | etot = -8.13378362728318
49000  ekin = 1.67630116263937 |  erot = 2.10216327906913 | epot = -11.9122480690703 | etot = -8.13378362736179
50000  ekin = 1.55727015247065 |  erot = 2.15637892895985 | epot = -11.8474327086501 | etot = -8.13378362721965
51000  ekin = 1.43817433709145 |  erot = 2.205140400327 | epot = -11.7770983642842 | etot = -8.13378362686579
52000  ekin = 1.32596547232174 |  erot = 2.24710946475012 | epot = -11.7068585634502 | etot = -8.13378362637838
53000  ekin = 1.22848082922914 |  erot = 2.28204759210385 | epot = -11.6443120472106 | etot = -8.13378362587756
54000  ekin = 1.15295119316272 |  erot = 2.31049933939892 | epot = -11.597234158045 | etot = -8.13378362548335
55000  ekin = 1.10463170766329 |  erot = 2.33334681406842 | epot = -11.5717621470128 | etot = -8.13378362528111
56000  ekin = 1.08590799517335 |  erot = 2.35139880092331 | epot = -11.5710904214035 | etot = -8.13378362530685
57000  ekin = 1.09599893485501 |  erot = 2.3651115445053 | epot = -11.5948941049136 | etot = -8.1337836255533
58000  ekin = 1.13119803471016 |  erot = 2.37445830578815 | epot = -11.6394399664722 | etot = -8.13378362597388
59000  ekin = 1.18549837183919 |  erot = 2.3789169186323 | epot = -11.6981989169901 | etot = -8.13378362651858
60000  ekin = 1.25136230662772 |  erot = 2.37755306615245 | epot = -11.7626989998985 | etot = -8.13378362711835
61000  ekin = 1.32065657328813 |  erot = 2.36917823379307 | epot = -11.8236184347912 | etot = -8.13378362771004
62000  ekin = 1.38555350991079 |  erot = 2.35258911579049 | epot = -11.8719262538939 | etot = -8.1337836281926
63000  ekin = 1.43966787267658 |  erot = 2.32682848519592 | epot = -11.9002799863548 | etot = -8.13378362848234
64000  ekin = 1.4790950343818 |  erot = 2.29144993715393 | epot = -11.9043286000689 | etot = -8.1337836285332
65000  ekin = 1.502880497741 |  erot = 2.2467096090511 | epot = -11.88337373515 | etot = -8.13378362835793
66000  ekin = 1.51274507599024 |  erot = 2.19359684182996 | epot = -11.8401255458509 | etot = -8.1337836280307
67000  ekin = 1.51208659633021 |  erot = 2.13371356874809 | epot = -11.7795837927184 | etot = -8.1337836276401
68000  ekin = 1.50462166617951 |  erot = 2.06904733139779 | epot = -11.7074526249092 | etot = -8.13378362733192
69000  ekin = 1.49293889166158 |  erot = 2.00167765430522 | epot = -11.6284001731036 | etot = -8.1337836271368
70000  ekin = 1.47793621174641 |  erot = 1.93361210060369 | epot = -11.5453319394055 | etot = -8.13378362705538
71000  ekin = 1.45891349102845 |  erot = 1.86670994694693 | epot = -11.4594070650146 | etot = -8.13378362703918
72000  ekin = 1.43427842101622 |  erot = 1.80270883809016 | epot = -11.3707708861215 | etot = -8.13378362701512
73000  ekin = 1.40258583891026 |  erot = 1.74331039193086 | epot = -11.279679857752 | etot = -8.13378362691089
74000  ekin = 1.36359371155274 |  erot = 1.69025647754912 | epot = -11.187633815782 | etot = -8.13378362668016
75000  ekin = 1.31886252565205 |  erot = 1.6453382071802 | epot = -11.0979843591715 | etot = -8.13378362633928
76000  ekin = 1.27181692773745 |  erot = 1.61030043593585 | epot = -11.0159009896012 | etot = -8.13378362592793
77000  ekin = 1.22767338921998 |  erot = 1.58670952555601 | epot = -10.9481665402833 | etot = -8.13378362550729
78000  ekin = 1.1918742588197 |  erot = 1.57555521121124 | epot = -10.9012130952115 | etot = -8.1337836251806
79000  ekin = 1.16922470588821 |  erot = 1.57716601534084 | epot = -10.880174346204 | etot = -8.13378362497499
80000  ekin = 1.1635131219374 |  erot = 1.59112852775413 | epot = -10.8884252746034 | etot = -8.1337836249119
81000  ekin = 1.17709123428946 |  erot = 1.61633850893092 | epot = -10.927213368212 | etot = -8.13378362499167
82000  ekin = 1.21064005584029 |  erot = 1.65118762576691 | epot = -10.9956113068161 | etot = -8.13378362520887
83000  ekin = 1.26297331742736 |  erot = 1.69382675572846 | epot = -11.0905836987108 | etot = -8.13378362555501
84000  ekin = 1.33092648687662 |  erot = 1.74243133123673 | epot = -11.2071414441142 | etot = -8.13378362600083
85000  ekin = 1.40961218427365 |  erot = 1.7954064033782 | epot = -11.3388022141303 | etot = -8.13378362647841
86000  ekin = 1.49330005467923 |  erot = 1.8515006441401 | epot = -11.478584325705 | etot = -8.13378362688569
87000  ekin = 1.57653380716703 |  erot = 1.90982169886827 | epot = -11.6201391333936 | etot = -8.13378362735832
88000  ekin = 1.65416408678855 |  erot = 1.96971725895485 | epot = -11.7576649732582 | etot = -8.13378362751478
89000  ekin = 1.72360216634179 |  erot = 2.03055934337534 | epot = -11.8879451373045 | etot = -8.13378362758735
90000  ekin = 1.78500984589395 |  erot = 2.09126219979607 | epot = -12.0100556734362 | etot = -8.13378362774619
91000  ekin = 1.83789001415886 |  erot = 2.15001837237363 | epot = -12.1216920145417 | etot = -8.1337836280092
92000  ekin = 1.87517809322888 |  erot = 2.20985483887525 | epot = -12.21881656028 | etot = -8.1337836281759
93000  ekin = 1.90356384535089 |  erot = 2.26204903047957 | epot = -12.2993965046574 | etot = -8.13378362882697
94000  ekin = 1.9156664167305 |  erot = 2.30892488078276 | epot = -12.3583749263607 | etot = -8.13378362884746
95000  ekin = 1.91095769384008 |  erot = 2.34997522030004 | epot = -12.3947165431006 | etot = -8.1337836289605
96000  ekin = 1.889484024989 |  erot = 2.38411475951065 | epot = -12.4073824132802 | etot = -8.1337836287806
97000  ekin = 1.85343811133898 |  erot = 2.41133046292227 | epot = -12.3985522027162 | etot = -8.13378362845492
98000  ekin = 1.80684275230277 |  erot = 2.43203206054831 | epot = -12.372658440891 | etot = -8.13378362803991
99000  ekin = 1.75478641123179 |  erot = 2.44692977736848 | epot = -12.3354998162067 | etot = -8.13378362760647
100000  ekin = 1.69590911435708 |  erot = 2.45386958409534 | epot = -12.2835623848859 | etot = -8.1337836864335
101000  ekin = 1.68113249375231 |  erot = 2.36572534112462 | epot = -12.1806414642138 | etot = -8.13378362933684
102000  ekin = 1.7267856590017 |  erot = 2.35051337712505 | epot = -12.2110826965905 | etot = -8.13378366046373
103000  ekin = 1.68338599487708 |  erot = 2.35411811039611 | epot = -12.1712877656948 | etot = -8.13378366042166
104000  ekin = 1.64323586412858 |  erot = 2.35701648102726 | epot = -12.134036005652 | etot = -8.13378366049613
105000  ekin = 1.60584113472061 |  erot = 2.35932964102255 | epot = -12.0989544363532 | etot = -8.13378366061001
106000  ekin = 1.57044138011816 |  erot = 2.3609277694323 | epot = -12.0651528102264 | etot = -8.13378366067597
107000  ekin = 1.53705400250982 |  erot = 2.36166253248201 | epot = -12.0325001956582 | etot = -8.13378366066635
108000  ekin = 1.50696391591135 |  erot = 2.361285573492 | epot = -12.0020331499847 | etot = -8.13378366058131
109000  ekin = 1.48244426546665 |  erot = 2.35938088271005 | epot = -11.9756088087053 | etot = -8.13378366052861
110000  ekin = 1.46539913148082 |  erot = 2.3553068314616 | epot = -11.9544896235797 | etot = -8.13378366063725
111000  ekin = 1.45548748017621 |  erot = 2.34818065606092 | epot = -11.9374517972409 | etot = -8.13378366100376
112000  ekin = 1.44872729612956 |  erot = 2.33695548266951 | epot = -11.9194664403753 | etot = -8.13378366157622
113000  ekin = 1.438054955865 |  erot = 2.320686955094 | epot = -11.8925255730877 | etot = -8.13378366212873
114000  ekin = 1.41640788690883 |  erot = 2.29883886662114 | epot = -11.8490304158911 | etot = -8.13378366236113
115000  ekin = 1.38063781822087 |  erot = 2.27153218573304 | epot = -11.7859536655161 | etot = -8.13378366156219
116000  ekin = 1.33630540308419 |  erot = 2.23942220246129 | epot = -11.7095112666477 | etot = -8.13378366110223
117000  ekin = 1.29001229198315 |  erot = 2.20380811829907 | epot = -11.6276040708686 | etot = -8.13378366058633
118000  ekin = 1.24711548834727 |  erot = 2.16635124019904 | epot = -11.5472503887779 | etot = -8.13378366023156
119000  ekin = 1.21073685469435 |  erot = 2.12872161390266 | epot = -11.4732421286715 | etot = -8.13378366007448
120000  ekin = 1.18115748419452 |  erot = 2.09256534610069 | epot = -11.4075064903304 | etot = -8.13378366003518
121000  ekin = 1.15688642101106 |  erot = 2.05947511288399 | epot = -11.3501451939313 | etot = -8.13378366003622
122000  ekin = 1.13593168276773 |  erot = 2.03084061403908 | epot = -11.3005559568655 | etot = -8.13378366005868
123000  ekin = 1.11638811965945 |  erot = 2.00761097209064 | epot = -11.2577827519202 | etot = -8.13378366017012
124000  ekin = 1.09616325371745 |  erot = 1.99019695902077 | epot = -11.2201438730114 | etot = -8.13378366027323
125000  ekin = 1.07358508996133 |  erot = 1.97820026039369 | epot = -11.1855690107828 | etot = -8.13378366042783
126000  ekin = 1.047121989785 |  erot = 1.97030937007241 | epot = -11.1512150205173 | etot = -8.13378366065987
127000  ekin = 1.0156035955053 |  erot = 1.96476336054352 | epot = -11.1141506168024 | etot = -8.1337836607536
128000  ekin = 0.97928184665228 |  erot = 1.95990906194963 | epot = -11.0729745693073 | etot = -8.13378366070535
129000  ekin = 0.940294043229882 |  erot = 1.95428772921566 | epot = -11.0283654329011 | etot = -8.13378366045551
130000  ekin = 0.902735823607268 |  erot = 1.94710047764773 | epot = -10.983619961355 | etot = -8.13378366010001
131000  ekin = 0.872329759139703 |  erot = 1.93820575526838 | epot = -10.9443191739569 | etot = -8.13378365954882
132000  ekin = 0.855045600562256 |  erot = 1.92803271303694 | epot = -10.9168619728694 | etot = -8.13378365927017
133000  ekin = 0.85477556282256 |  erot = 1.91694878880971 | epot = -10.9055080107084 | etot = -8.13378365907613
134000  ekin = 0.873981086378922 |  erot = 1.90549522489457 | epot = -10.9132599702531 | etot = -8.13378365897964
135000  ekin = 0.913690181741819 |  erot = 1.89429118508522 | epot = -10.9417650257941 | etot = -8.13378365896708
136000  ekin = 0.973734451665589 |  erot = 1.88395321784242 | epot = -10.9914713285353 | etot = -8.13378365902725
137000  ekin = 1.05255313135938 |  erot = 1.87488800080373 | epot = -11.0612247920055 | etot = -8.13378365984243
138000  ekin = 1.1443524994853 |  erot = 1.8662689721205 | epot = -11.1444051316852 | etot = -8.13378366007936
139000  ekin = 1.24448357091331 |  erot = 1.85821435006753 | epot = -11.2364815813234 | etot = -8.13378366034253
140000  ekin = 1.34860347563745 |  erot = 1.85113522079119 | epot = -11.333522357093 | etot = -8.1337836606644
141000  ekin = 1.45162669266307 |  erot = 1.84534635451924 | epot = -11.430756708267 | etot = -8.13378366108469
142000  ekin = 1.54663919844505 |  erot = 1.84103156950907 | epot = -11.521454429749 | etot = -8.13378366179486
143000  ekin = 1.6247011023941 |  erot = 1.83813053702613 | epot = -11.5966153018863 | etot = -8.13378366246606
144000  ekin = 1.67710589256285 |  erot = 1.83622813336416 | epot = -11.6471176890259 | etot = -8.13378366309886
145000  ekin = 1.69650852159039 |  erot = 1.83477115527459 | epot = -11.6650633403347 | etot = -8.13378366346972
146000  ekin = 1.67998250270633 |  erot = 1.8333430641869 | epot = -11.6471092301922 | etot = -8.13378366329893
147000  ekin = 1.63255928725478 |  erot = 1.83204496823007 | epot = -11.598387917878 | etot = -8.13378366239317
148000  ekin = 1.56926257377408 |  erot = 1.83182914755799 | epot = -11.534875382188 | etot = -8.1337836608559
149000  ekin = 1.51300824977688 |  erot = 1.83452727994329 | epot = -11.4813191889249 | etot = -8.13378365920474
150000  ekin = 1.48724963784664 |  erot = 1.84235837448576 | epot = -11.4633916705171 | etot = -8.13378365818466
151000  ekin = 1.50619323822939 |  erot = 1.85697474829977 | epot = -11.4969516448352 | etot = -8.13378365830607
152000  ekin = 1.56855992602549 |  erot = 1.87847282638512 | epot = -11.5808164119011 | etot = -8.13378365949048
153000  ekin = 1.65914489646567 |  erot = 1.90493735115929 | epot = -11.6978659087714 | etot = -8.13378366114644
154000  ekin = 1.75680978950735 |  erot = 1.93282846213573 | epot = -11.8234219142215 | etot = -8.13378366257846
155000  ekin = 1.84344901658437 |  erot = 1.95802697046849 | epot = -11.9352596504333 | etot = -8.1337836633804
156000  ekin = 1.90893795388443 |  erot = 1.97697594926079 | epot = -12.0196975667215 | etot = -8.13378366357624
157000  ekin = 1.95061494385932 |  erot = 1.98738512433505 | epot = -12.0717837316313 | etot = -8.13378366343689
158000  ekin = 1.96976178337731 |  erot = 1.98837447181476 | epot = -12.0919199183612 | etot = -8.13378366316915
159000  ekin = 1.96892634677255 |  erot = 1.98033790354811 | epot = -12.0830479131018 | etot = -8.13378366278114
160000  ekin = 1.95167601805979 |  erot = 1.96478101829951 | epot = -12.050240698581 | etot = -8.13378366222171
161000  ekin = 1.92323849263822 |  erot = 1.94408396543486 | epot = -12.001106119617 | etot = -8.13378366154392
162000  ekin = 1.89012785139944 |  erot = 1.92106669306913 | epot = -11.94497820536 | etot = -8.13378366089138
163000  ekin = 1.85873206626408 |  erot = 1.89844726529886 | epot = -11.8909629919524 | etot = -8.13378366038947
164000  ekin = 1.83396756863979 |  erot = 1.87841814938175 | epot = -11.8461693781077 | etot = -8.13378366008619
165000  ekin = 1.81873657814123 |  erot = 1.86247026312239 | epot = -11.8149905012202 | etot = -8.1337836599566
166000  ekin = 1.81415764355357 |  erot = 1.85144128795245 | epot = -11.7993825914515 | etot = -8.13378365994553
167000  ekin = 1.82014338462852 |  erot = 1.84569577974681 | epot = -11.7996228243664 | etot = -8.13378365999109
168000  ekin = 1.83604973591366 |  erot = 1.8453491867352 | epot = -11.8151825826933 | etot = -8.13378366004445
169000  ekin = 1.86118807804061 |  erot = 1.850477664299 | epot = -11.8454494024155 | etot = -8.13378366007584
170000  ekin = 1.89508209492149 |  erot = 1.86127600745022 | epot = -11.8901417624555 | etot = -8.13378366008374
171000  ekin = 1.93739070093832 |  erot = 1.8781392722114 | epot = -11.9493136332464 | etot = -8.13378366009671
172000  ekin = 1.98746465492716 |  erot = 1.90165699566161 | epot = -12.0229053107602 | etot = -8.13378366017142
173000  ekin = 2.04358732260738 |  erot = 1.93252470914456 | epot = -12.1098956921178 | etot = -8.13378366036586
174000  ekin = 2.10212586880685 |  erot = 1.97139111366116 | epot = -12.2073006432559 | etot = -8.13378366078787
175000  ekin = 2.15653164019895 |  erot = 2.01868623997428 | epot = -12.3090015416374 | etot = -8.13378366146419
176000  ekin = 2.19700590631297 |  erot = 2.07444517694537 | epot = -12.4052347456343 | etot = -8.13378366237597
177000  ekin = 2.21275117726728 |  erot = 2.13809655452259 | epot = -12.4846313951105 | etot = -8.13378366332058
178000  ekin = 2.191030841378 |  erot = 2.2084963736183 | epot = -12.5333108794519 | etot = -8.1337836644556
179000  ekin = 2.05002958755708 |  erot = 2.27647492405861 | epot = -12.4602881626275 | etot = -8.13378365101178
180000  ekin = 2.00100366281088 |  erot = 2.36086155180537 | epot = -12.4956488860898 | etot = -8.13378367147353
181000  ekin = 1.82885344502827 |  erot = 2.44444025932694 | epot = -12.4070773745335 | etot = -8.13378367017832
182000  ekin = 1.62724610560602 |  erot = 2.53221325513864 | epot = -12.2932430288216 | etot = -8.13378366807689
183000  ekin = 1.42880501135674 |  erot = 2.6254005853434 | epot = -12.1879892625417 | etot = -8.1337836658416
184000  ekin = 1.26714962832119 |  erot = 2.72561981850436 | epot = -12.1265531111179 | etot = -8.13378366429233
185000  ekin = 1.16606552757954 |  erot = 2.83366450732251 | epot = -12.1335136988418 | etot = -8.1337836639398
186000  ekin = 1.13327188784872 |  erot = 2.94811459460534 | epot = -12.2151701472112 | etot = -8.13378366475712
187000  ekin = 1.16127663962544 |  erot = 3.06454091657718 | epot = -12.3596012225469 | etot = -8.13378366634433
188000  ekin = 1.23275799228605 |  erot = 3.17578119614176 | epot = -12.5423228566622 | etot = -8.13378366823443
189000  ekin = 1.32637276316036 |  erot = 3.27316596760519 | epot = -12.733322400823 | etot = -8.1337836700575
190000  ekin = 1.42100795808774 |  erot = 3.34817980173636 | epot = -12.9029714313697 | etot = -8.13378367154559
191000  ekin = 1.49794111549818 |  erot = 3.39410379075351 | epot = -13.0258285788614 | etot = -8.13378367260974
192000  ekin = 1.54262156679641 |  erot = 3.40720165429243 | epot = -13.0836068940667 | etot = -8.13378367297783
193000  ekin = 1.54797240883498 |  erot = 3.38715231466168 | epot = -13.0689083961198 | etot = -8.13378367262315
194000  ekin = 1.51467582661462 |  erot = 3.33705387754773 | epot = -12.9855133757567 | etot = -8.13378367159431
195000  ekin = 1.45101621748256 |  erot = 3.26269312885266 | epot = -12.8474930164477 | etot = -8.13378367011248
196000  ekin = 1.37083042970796 |  erot = 3.17132041678952 | epot = -12.6759345150014 | etot = -8.13378366850388
197000  ekin = 1.29009120536748 |  erot = 3.07036265935845 | epot = -12.4942375317758 | etot = -8.13378366704992
198000  ekin = 1.22364196643987 |  erot = 2.96652382644046 | epot = -12.3239494587839 | etot = -8.13378366590357
199000  ekin = 1.18307710083285 |  erot = 2.86542144217805 | epot = -12.1822822081308 | etot = -8.13378366511989
200000  ekin = 1.17564340951956 |  erot = 2.7715869837879 | epot = -12.0810140580308 | etot = -8.13378366472336
201000  ekin = 1.2035961939178 |  erot = 2.68856918537222 | epot = -12.0259490440303 | etot = -8.13378366474028
202000  ekin = 1.26374726413821 |  erot = 2.61894189740096 | epot = -12.0164728267172 | etot = -8.13378366517806
203000  ekin = 1.3475159756314 |  erot = 2.56419616426486 | epot = -12.0454958058714 | etot = -8.13378366597512
204000  ekin = 1.44203337890014 |  erot = 2.52468734318962 | epot = -12.1005043890649 | etot = -8.13378366697511
205000  ekin = 1.53246038205354 |  erot = 2.49972903140538 | epot = -12.1659730814069 | etot = -8.13378366794802
206000  ekin = 1.60510558525656 |  erot = 2.487934252803 | epot = -12.226823506722 | etot = -8.13378366866242
207000  ekin = 1.65039556723136 |  erot = 2.48771410987755 | epot = -12.2718933460771 | etot = -8.13378366896824
208000  ekin = 1.66471924263828 |  erot = 2.49772662877211 | epot = -12.296229540258 | etot = -8.13378366884764
209000  ekin = 1.65060780281931 |  erot = 2.51706178773899 | epot = -12.3014532589738 | etot = -8.1337836684155
210000  ekin = 1.61529613530101 |  erot = 2.54506818372113 | epot = -12.294147986902 | etot = -8.13378366787983
211000  ekin = 1.56815998339903 |  erot = 2.58088870847291 | epot = -12.2828323593491 | etot = -8.13378366747717
212000  ekin = 1.51779769211944 |  erot = 2.62289115840009 | epot = -12.2744725179132 | etot = -8.13378366739367
213000  ekin = 1.46970697786409 |  erot = 2.66822787294334 | epot = -12.2717185184986 | etot = -8.13378366769122
214000  ekin = 1.42551121611952 |  erot = 2.71271314915572 | epot = -12.2720080334465 | etot = -8.13378366817127
215000  ekin = 1.38449526701797 |  erot = 2.75113858809842 | epot = -12.2694175238339 | etot = -8.13378366871755
216000  ekin = 1.3461145051069 |  erot = 2.77818905444625 | epot = -12.2580872284516 | etot = -8.13378366889847
217000  ekin = 1.31348152811954 |  erot = 2.78964053187663 | epot = -12.2369057285552 | etot = -8.13378366855904
218000  ekin = 1.29458639919478 |  erot = 2.7831914510914 | epot = -12.2115615182393 | etot = -8.13378366795308
219000  ekin = 1.29978448123104 |  erot = 2.7578586549423 | epot = -12.1914268036072 | etot = -8.1337836674339
220000  ekin = 1.33694784981731 |  erot = 2.71363634301963 | epot = -12.1843678601774 | etot = -8.13378366734043
221000  ekin = 1.40745643921055 |  erot = 2.65092088134267 | epot = -12.1921609882709 | etot = -8.13378366771773
222000  ekin = 1.50572252625935 |  erot = 2.57029476952289 | epot = -12.2098009641033 | etot = -8.13378366832109
223000  ekin = 1.62210843375735 |  erot = 2.47289007334103 | epot = -12.2287821759278 | etot = -8.13378366882941
224000  ekin = 1.746793930229 |  erot = 2.36097135919342 | epot = -12.2415489584551 | etot = -8.13378366903269
225000  ekin = 1.87205636329951 |  erot = 2.23842454190523 | epot = -12.2442645742132 | etot = -8.13378366900846
226000  ekin = 1.99134598106693 |  erot = 2.11064622098412 | epot = -12.2357758711294 | etot = -8.13378366907832
227000  ekin = 2.09586639151715 |  erot = 1.98364704051183 | epot = -12.2132971015584 | etot = -8.13378366952941
228000  ekin = 2.17197666667475 |  erot = 1.86293503717791 | epot = -12.1686953741916 | etot = -8.13378367033897
229000  ekin = 2.20263173192667 |  erot = 1.75265294154725 | epot = -12.0890683445911 | etot = -8.13378367111716
230000  ekin = 2.17321554606937 |  erot = 1.65532359970871 | epot = -11.9623228171299 | etot = -8.13378367135177
231000  ekin = 2.07854920573232 |  erot = 1.57213281486727 | epot = -11.7844656913365 | etot = -8.13378367073688
232000  ekin = 1.9267119502196 |  erot = 1.50340464294852 | epot = -11.5639002625325 | etot = -8.13378366936441
233000  ekin = 1.73729705956053 |  erot = 1.44896834770272 | epot = -11.3200490749324 | etot = -8.13378366766914
234000  ekin = 1.53556953354802 |  erot = 1.40834045937527 | epot = -11.0776936590032 | etot = -8.13378366607992
235000  ekin = 1.34558700580155 |  erot = 1.38078818073916 | epot = -10.8601588514749 | etot = -8.13378366493417
236000  ekin = 1.18525206422596 |  erot = 1.3657026321041 | epot = -10.6847383605466 | etot = -8.1337836642165
237000  ekin = 1.06637029724341 |  erot = 1.36251012102854 | epot = -10.5626640820866 | etot = -8.13378366381463
238000  ekin = 0.995491212021019 |  erot = 1.37070429771416 | epot = -10.4999791733993 | etot = -8.13378366366416
239000  ekin = 0.975031518631579 |  erot = 1.3897138412691 | epot = -10.4985290236698 | etot = -8.1337836637691
240000  ekin = 1.003524239047 |  erot = 1.41866034024255 | epot = -10.5559682434628 | etot = -8.13378366417323
241000  ekin = 1.07556704774179 |  erot = 1.45612900246831 | epot = -10.6654797151277 | etot = -8.13378366491761
242000  ekin = 1.18122375067269 |  erot = 1.49994629855486 | epot = -10.8149537152521 | etot = -8.13378366602455
243000  ekin = 1.30634294707391 |  erot = 1.5470333102007 | epot = -10.9871599246153 | etot = -8.13378366734069
244000  ekin = 1.43466609576103 |  erot = 1.59374373480216 | epot = -11.1621934990183 | etot = -8.1337836684551
245000  ekin = 1.55091944171202 |  erot = 1.63606515904626 | epot = -11.3207682704719 | etot = -8.13378366971362
246000  ekin = 1.63963426714548 |  erot = 1.67091688012705 | epot = -11.4443348179091 | etot = -8.13378367063655
247000  ekin = 1.68912292676081 |  erot = 1.69643192578571 | epot = -11.5193385235861 | etot = -8.1337836710396
248000  ekin = 1.6941862336649 |  erot = 1.7122329815499 | epot = -11.5402028860517 | etot = -8.13378367083691
249000  ekin = 1.65708464249985 |  erot = 1.71943097162587 | epot = -11.5102992843203 | etot = -8.13378367019458
250000  ekin = 1.5863986468533 |  erot = 1.72015982289358 | epot = -11.4403421388607 | etot = -8.13378366911384
251000  ekin = 1.49555936407786 |  erot = 1.71716072440045 | epot = -11.3465037564426 | etot = -8.13378366796434
252000  ekin = 1.39930346630862 |  erot = 1.71298107622629 | epot = -11.2460682095268 | etot = -8.13378366699192
253000  ekin = 1.31034898359547 |  erot = 1.70949093459515 | epot = -11.1536235845413 | etot = -8.13378366635073
254000  ekin = 1.23716194123368 |  erot = 1.70776552340092 | epot = -11.0787111307331 | etot = -8.13378366609854
255000  ekin = 1.18305733845311 |  erot = 1.70821467485061 | epot = -11.025055679451 | etot = -8.13378366614725
256000  ekin = 1.14729363432842 |  erot = 1.7106327515816 | epot = -10.9917100522917 | etot = -8.13378366638171
257000  ekin = 1.12650460108729 |  erot = 1.71454195552779 | epot = -10.974830223265 | etot = -8.13378366664996
258000  ekin = 1.1166971591796 |  erot = 1.71938873503289 | epot = -10.9698695610665 | etot = -8.13378366685405
259000  ekin = 1.11461746403917 |  erot = 1.72463904931066 | epot = -10.9730401803372 | etot = -8.13378366698733
260000  ekin = 1.11796213299311 |  erot = 1.72976096813936 | epot = -10.9815067682349 | etot = -8.13378366710241
261000  ekin = 1.12495929560805 |  erot = 1.73429797646796 | epot = -10.9930409392091 | etot = -8.13378366713307
262000  ekin = 1.13415334886796 |  erot = 1.73799782227173 | epot = -11.0059348383754 | etot = -8.13378366723574
263000  ekin = 1.1441924865775 |  erot = 1.74014341283954 | epot = -11.0181195666639 | etot = -8.13378366724682
264000  ekin = 1.15486713033016 |  erot = 1.74014049676713 | epot = -11.0287912942162 | etot = -8.13378366711894
265000  ekin = 1.16757148072387 |  erot = 1.73774643956152 | epot = -11.0391015871619 | etot = -8.13378366687652
266000  ekin = 1.18492523334604 |  erot = 1.73313774545366 | epot = -11.0518466453998 | etot = -8.13378366660006
267000  ekin = 1.20976553808602 |  erot = 1.7268208539035 | epot = -11.0703700583702 | etot = -8.13378366638072
268000  ekin = 1.24403111905679 |  erot = 1.71946869065397 | epot = -11.0972834759949 | etot = -8.13378366628417
269000  ekin = 1.28796807043007 |  erot = 1.71176934564011 | epot = -11.1335210824064 | etot = -8.13378366633624
270000  ekin = 1.33984072253264 |  erot = 1.70434119615532 | epot = -11.1779655852108 | etot = -8.13378366652286
271000  ekin = 1.39615730896038 |  erot = 1.69774776464757 | epot = -11.2276887403839 | etot = -8.13378366677592
272000  ekin = 1.45234426470337 |  erot = 1.69276715684432 | epot = -11.2788950886215 | etot = -8.13378366707379
273000  ekin = 1.50368133069646 |  erot = 1.68992546991196 | epot = -11.3273904679228 | etot = -8.13378366731438
274000  ekin = 1.54639996325526 |  erot = 1.68983337628827 | epot = -11.3700170069557 | etot = -8.13378366741213
275000  ekin = 1.57877490148631 |  erot = 1.69332235277275 | epot = -11.4058809215907 | etot = -8.13378366733162
276000  ekin = 1.60168052283226 |  erot = 1.70138855155399 | epot = -11.436852741484 | etot = -8.13378366709777
277000  ekin = 1.61832490282934 |  erot = 1.71502642603181 | epot = -11.4671349956638 | etot = -8.13378366680269
278000  ekin = 1.63311060675181 |  erot = 1.73495415768007 | epot = -11.5018484310108 | etot = -8.13378366657894
279000  ekin = 1.64995273994837 |  erot = 1.76130541527865 | epot = -11.5450418217717 | etot = -8.1337836665447
280000  ekin = 1.67073877093407 |  erot = 1.79339849893171 | epot = -11.5979209366107 | etot = -8.13378366674486
281000  ekin = 1.69438407985006 |  erot = 1.82970064438533 | epot = -11.6578683914565 | etot = -8.13378366722115
282000  ekin = 1.71376506080862 |  erot = 1.86795891950281 | epot = -11.7155076481303 | etot = -8.13378366781888
283000  ekin = 1.72224450525371 |  erot = 1.9052906854816 | epot = -11.7613188590757 | etot = -8.13378366834034
284000  ekin = 1.71505262177341 |  erot = 1.93881515489551 | epot = -11.7876514453545 | etot = -8.13378366868558
285000  ekin = 1.68954869056625 |  erot = 1.96608819497539 | epot = -11.7894205543634 | etot = -8.13378366882172
286000  ekin = 1.64555137747819 |  erot = 1.98537597121294 | epot = -11.7647110174642 | etot = -8.13378366877303
287000  ekin = 1.58495470813229 |  erot = 1.99578989882443 | epot = -11.7145282755479 | etot = -8.13378366859116
288000  ekin = 1.51101761585578 |  erot = 1.9972977679279 | epot = -11.6420990521131 | etot = -8.13378366832946
289000  ekin = 1.42766231980942 |  erot = 1.99063899576434 | epot = -11.5520849836069 | etot = -8.1337836680331
290000  ekin = 1.33894501486192 |  erot = 1.9771675899912 | epot = -11.4498962725844 | etot = -8.13378366773129
291000  ekin = 1.24881721188018 |  erot = 1.95864649302945 | epot = -11.3412473723313 | etot = -8.13378366742167
292000  ekin = 1.16137515575687 |  erot = 1.93702958191697 | epot = -11.2321884047288 | etot = -8.13378366705499
293000  ekin = 1.08169833470763 |  erot = 1.91427738455186 | epot = -11.1297593858162 | etot = -8.13378366655672
294000  ekin = 1.01689863826406 |  erot = 1.8922324358106 | epot = -11.0429147399714 | etot = -8.13378366589676
295000  ekin = 0.976377352950502 |  erot = 1.8725332495628 | epot = -10.9826942676913 | etot = -8.13378366517798
296000  ekin = 0.970182395979119 |  erot = 1.85650679550227 | epot = -10.9604728561376 | etot = -8.13378366465623
297000  ekin = 1.00537151817025 |  erot = 1.84499118418531 | epot = -10.9841463669809 | etot = -8.13378366462529
298000  ekin = 1.08200534146773 |  erot = 1.8381241771558 | epot = -11.0539131838573 | etot = -8.13378366523378
299000  ekin = 1.19125189129751 |  erot = 1.83519410294181 | epot = -11.1602296606154 | etot = -8.13378366637606
300000  ekin = 1.31698721061293 |  erot = 1.83465168975374 | epot = -11.2854225681136 | etot = -8.13378366774693
301000  ekin = 1.44008784809228 |  erot = 1.83433803115513 | epot = -11.4082095482398 | etot = -8.13378366899243
302000  ekin = 1.54329548540188 |  erot = 1.8319000019686 | epot = -11.5089791572097 | etot = -8.13378366983918
303000  ekin = 1.61484992407185 |  erot = 1.82529439832924 | epot = -11.5739279925551 | etot = -8.13378367015401
304000  ekin = 1.65011047810347 |  erot = 1.81324433416857 | epot = -11.5971384822046 | etot = -8.13378366993254
305000  ekin = 1.65140814366672 |  erot = 1.79549497030458 | epot = -11.5806867832613 | etot = -8.13378366929
306000  ekin = 1.62643416627335 |  erot = 1.77280218914075 | epot = -11.5330200238232 | etot = -8.13378366840907
307000  ekin = 1.58577500467154 |  erot = 1.7466850070844 | epot = -11.4662436792504 | etot = -8.1337836674945
308000  ekin = 1.54030424866655 |  erot = 1.71903801624886 | epot = -11.3931259316301 | etot = -8.13378366671474
309000  ekin = 1.4990009105044 |  erot = 1.69173690592116 | epot = -11.3245214826142 | etot = -8.13378366618868
310000  ekin = 1.46747597212362 |  erot = 1.66636932779771 | epot = -11.2676289658628 | etot = -8.13378366594147
311000  ekin = 1.44771419446033 |  erot = 1.64410448876994 | epot = -11.2256023491826 | etot = -8.13378366595238
312000  ekin = 1.4383914186309 |  erot = 1.62568199896361 | epot = -11.1978570837367 | etot = -8.13378366614219
313000  ekin = 1.43594352564835 |  erot = 1.61150443049618 | epot = -11.1812316225544 | etot = -8.1337836664099
314000  ekin = 1.43595255616958 |  erot = 1.60177116104875 | epot = -11.1715073838745 | etot = -8.13378366665619
315000  ekin = 1.43500742740479 |  erot = 1.59648896098924 | epot = -11.1652800551023 | etot = -8.13378366670831
316000  ekin = 1.43108473245268 |  erot = 1.5956580439379 | epot = -11.1605264431142 | etot = -8.13378366672358
317000  ekin = 1.42390336283526 |  erot = 1.59957952106317 | epot = -11.1572665504279 | etot = -8.13378366652945
318000  ekin = 1.41631295378262 |  erot = 1.60866819207214 | epot = -11.158764812016 | etot = -8.1337836661612
319000  ekin = 1.41381426232535 |  erot = 1.62334142232245 | epot = -11.1709393503702 | etot = -8.13378366572238
320000  ekin = 1.42315030251777 |  erot = 1.64384116840196 | epot = -11.2007751362838 | etot = -8.13378366536404
321000  ekin = 1.45024845493823 |  erot = 1.67003325939981 | epot = -11.2540653795749 | etot = -8.13378366523685
322000  ekin = 1.49815500536655 |  erot = 1.70123818171226 | epot = -11.3331768525206 | etot = -8.13378366544176
323000  ekin = 1.56569352501989 |  erot = 1.73609284126389 | epot = -11.4355700323001 | etot = -8.13378366601634
324000  ekin = 1.64679224021427 |  erot = 1.77264010659823 | epot = -11.553216013806 | etot = -8.13378366699349
325000  ekin = 1.73163775631264 |  erot = 1.80818795205361 | epot = -11.6736093764089 | etot = -8.13378366804261
326000  ekin = 1.80750329208696 |  erot = 1.8398074929546 | epot = -11.7810944543884 | etot = -8.13378366934687
327000  ekin = 1.85797659457013 |  erot = 1.86537346541894 | epot = -11.8571337303148 | etot = -8.13378367032571
328000  ekin = 1.87027520749331 |  erot = 1.88392315073132 | epot = -11.8879820288833 | etot = -8.13378367065868
329000  ekin = 1.83949589055174 |  erot = 1.89597309718727 | epot = -11.869252657917 | etot = -8.13378367017803
330000  ekin = 1.77117100869305 |  erot = 1.90323589019341 | epot = -11.8081905678819 | etot = -8.13378366899542
331000  ekin = 1.68023517873615 |  erot = 1.90771959425362 | epot = -11.7217384405342 | etot = -8.13378366754447
332000  ekin = 1.58599656571697 |  erot = 1.91066851347039 | epot = -11.630448745537 | etot = -8.13378366634961
333000  ekin = 1.50566649891836 |  erot = 1.91203797343616 | epot = -11.5514881380525 | etot = -8.13378366569794
334000  ekin = 1.44997196059215 |  erot = 1.91073772769808 | epot = -11.4944933538505 | etot = -8.13378366556023
335000  ekin = 1.42175053141052 |  erot = 1.90515605628881 | epot = -11.4606902539328 | etot = -8.13378366623347
336000  ekin = 1.4166253105865 |  erot = 1.89330033651205 | epot = -11.443709313723 | etot = -8.13378366662444
337000  ekin = 1.42902342420092 |  erot = 1.87459660541265 | epot = -11.43740369656 | etot = -8.13378366694648
338000  ekin = 1.45347553474253 |  erot = 1.84924982278892 | epot = -11.4365090247033 | etot = -8.13378366717183
339000  ekin = 1.48532648332336 |  erot = 1.81789825388445 | epot = -11.4370084045411 | etot = -8.13378366733326
340000  ekin = 1.52068113212542 |  erot = 1.78131054290141 | epot = -11.4357753425007 | etot = -8.13378366747385
341000  ekin = 1.5560607012887 |  erot = 1.74019406298323 | epot = -11.4300384318859 | etot = -8.13378366761399
342000  ekin = 1.58819693536409 |  erot = 1.69515176482787 | epot = -11.4171323679319 | etot = -8.13378366773989
343000  ekin = 1.61415529814685 |  erot = 1.64675903935067 | epot = -11.3946980053118 | etot = -8.13378366781423
344000  ekin = 1.63171879307236 |  erot = 1.59569319794419 | epot = -11.3611956588172 | etot = -8.13378366780061
345000  ekin = 1.63976605961489 |  erot = 1.5428270420927 | epot = -11.3163767694021 | etot = -8.13378366769448
346000  ekin = 1.63837200138302 |  erot = 1.48918714017029 | epot = -11.2613428090738 | etot = -8.13378366752046
347000  ekin = 1.62852754177388 |  erot = 1.4358735156518 | epot = -11.1981847247562 | etot = -8.13378366733053
348000  ekin = 1.61158889283549 |  erot = 1.38392546940706 | epot = -11.1292980294148 | etot = -8.13378366717223
349000  ekin = 1.58873557439393 |  erot = 1.33422850520796 | epot = -11.0567477466751 | etot = -8.13378366707319
350000  ekin = 1.56064786721289 |  erot = 1.28749851960141 | epot = -10.981930053846 | etot = -8.13378366703173
351000  ekin = 1.52754191191144 |  erot = 1.24434620359675 | epot = -10.9056717825216 | etot = -8.1337836670134
352000  ekin = 1.48960299203704 |  erot = 1.20538641998308 | epot = -10.8287730789798 | etot = -8.13378366695972
353000  ekin = 1.44778264502695 |  erot = 1.17134399709371 | epot = -10.752910308908 | etot = -8.13378366678732
354000  ekin = 1.4053310095306 |  erot = 1.14324844922782 | epot = -10.682363125244 | etot = -8.13378366648559
355000  ekin = 1.36869095863183 |  erot = 1.12250242069477 | epot = -10.6249770453809 | etot = -8.13378366605434
356000  ekin = 1.34490175995297 |  erot = 1.10992990778302 | epot = -10.5886153331823 | etot = -8.13378366544635
357000  ekin = 1.34315796275824 |  erot = 1.10621719879765 | epot = -10.5831588263819 | etot = -8.13378366482602
358000  ekin = 1.37283801207744 |  erot = 1.11171347587857 | epot = -10.6183351524118 | etot = -8.13378366445576
359000  ekin = 1.43996759058201 |  erot = 1.12612871057513 | epot = -10.6998799657442 | etot = -8.13378366458706
360000  ekin = 1.5438844591394 |  erot = 1.14830381564191 | epot = -10.825971940099 | etot = -8.13378366531768
361000  ekin = 1.67586531509034 |  erot = 1.17618905419233 | epot = -10.9858380358531 | etot = -8.13378366657042
362000  ekin = 1.82005627455383 |  erot = 1.20703160753447 | epot = -11.1608715500439 | etot = -8.13378366795558
363000  ekin = 1.95850583937149 |  erot = 1.23798141777832 | epot = -11.3302709261636 | etot = -8.13378366901377
364000  ekin = 2.0758001766431 |  erot = 1.26672677095262 | epot = -11.4763106177177 | etot = -8.13378367012194
365000  ekin = 2.15891662517416 |  erot = 1.29173621495748 | epot = -11.5844365106022 | etot = -8.13378367047059
366000  ekin = 2.20238380195839 |  erot = 1.31262064914847 | epot = -11.6487881213389 | etot = -8.13378367023206
367000  ekin = 2.2085172727543 |  erot = 1.33022857587956 | epot = -11.6725295182442 | etot = -8.13378366961034
368000  ekin = 2.18513118770686 |  erot = 1.34632721320096 | epot = -11.6652420696059 | etot = -8.13378366869811
369000  ekin = 2.14321144646781 |  erot = 1.36315448463404 | epot = -11.6401495989055 | etot = -8.13378366780367
370000  ekin = 2.0938828241348 |  erot = 1.38296858720496 | epot = -11.6106350785167 | etot = -8.1337836671769
371000  ekin = 2.04539161606818 |  erot = 1.40758201280334 | epot = -11.5867572956956 | etot = -8.13378366682413
372000  ekin = 2.00261126514815 |  erot = 1.43827057512772 | epot = -11.574665506942 | etot = -8.13378366666616
373000  ekin = 1.96798302472993 |  erot = 1.475845039439 | epot = -11.5776117307495 | etot = -8.13378366658054
374000  ekin = 1.94276422015049 |  erot = 1.52074221163621 | epot = -11.5972900983351 | etot = -8.13378366654844
375000  ekin = 1.92741631545133 |  erot = 1.57302624843796 | epot = -11.6342262305073 | etot = -8.13378366661803
376000  ekin = 1.92110841836636 |  erot = 1.63232320681275 | epot = -11.6872152920284 | etot = -8.13378366684932
377000  ekin = 1.92083197489617 |  erot = 1.69770894533729 | epot = -11.7523245875363 | etot = -8.1337836673028
378000  ekin = 1.92097158011965 |  erot = 1.76763055654163 | epot = -11.8223858045346 | etot = -8.13378366787334
379000  ekin = 1.91438056916682 |  erot = 1.83964318712893 | epot = -11.887807424947 | etot = -8.13378366865125
380000  ekin = 1.89241520119269 |  erot = 1.91106138176787 | epot = -11.9372602523186 | etot = -8.13378366935807
381000  ekin = 1.847118431211 |  erot = 1.97933543814399 | epot = -11.9602375392212 | etot = -8.13378366986618
382000  ekin = 1.77364821788507 |  erot = 2.04210934439902 | epot = -11.9495412323413 | etot = -8.13378367005726
383000  ekin = 1.67178472399512 |  erot = 2.09754562136631 | epot = -11.903114015185 | etot = -8.13378366982355
384000  ekin = 1.5470955648132 |  erot = 2.1443870823428 | epot = -11.8252663163759 | etot = -8.13378366921985
385000  ekin = 1.41093432867735 |  erot = 2.18184182145047 | epot = -11.7265598182841 | etot = -8.13378366815629
386000  ekin = 1.27958936994635 |  erot = 2.21051340231003 | epot = -11.6238864391457 | etot = -8.13378366688934
387000  ekin = 1.17137861198704 |  erot = 2.23163165239755 | epot = -11.5367939301752 | etot = -8.13378366579065
388000  ekin = 1.1017978040278 |  erot = 2.24634754527518 | epot = -11.4819290145306 | etot = -8.13378366522763
389000  ekin = 1.07882148969069 |  erot = 2.25505587957395 | epot = -11.4676610376653 | etot = -8.1337836684007
390000  ekin = 1.07051570135882 |  erot = 2.26936424221012 | epot = -11.4736636037183 | etot = -8.13378366014933
391000  ekin = 1.12513305991829 |  erot = 2.28557987987778 | epot = -11.5444966077486 | etot = -8.1337836679525
392000  ekin = 1.21295440172474 |  erot = 2.27063670340335 | epot = -11.6173747716335 | etot = -8.13378366650546
393000  ekin = 1.30924312365477 |  erot = 2.24076930893612 | epot = -11.683796099719 | etot = -8.13378366712811
394000  ekin = 1.40561895760574 |  erot = 2.19794335034468 | epot = -11.737345975341 | etot = -8.13378366739058
395000  ekin = 1.49662707239207 |  erot = 2.14293675801956 | epot = -11.7733474977468 | etot = -8.13378366733519
396000  ekin = 1.58077727991366 |  erot = 2.07761988891088 | epot = -11.792180835874 | etot = -8.13378366704947
397000  ekin = 1.65955042581691 |  erot = 2.00469837191009 | epot = -11.7980324643556 | etot = -8.13378366662865
398000  ekin = 1.73622447988457 |  erot = 1.92743077252824 | epot = -11.7974389185588 | etot = -8.13378366614599
399000  ekin = 1.81471876942085 |  erot = 1.84941455049417 | epot = -11.7979169856346 | etot = -8.13378366571955
400000  ekin = 1.89831345083173 |  erot = 1.77428869309119 | epot = -11.8063858093336 | etot = -8.13378366541068
401000  ekin = 1.98857882165051 |  erot = 1.70555701947522 | epot = -11.8279195064034 | etot = -8.13378366527767
402000  ekin = 2.08469272454806 |  erot = 1.64640053761174 | epot = -11.864876927493 | etot = -8.13378366533317
403000  ekin = 2.18333492883686 |  erot = 1.59947809827568 | epot = -11.9165966926833 | etot = -8.13378366557074
404000  ekin = 2.27899469657634 |  erot = 1.56671457666561 | epot = -11.9794929391001 | etot = -8.13378366585815
405000  ekin = 2.36506409046791 |  erot = 1.54904572147161 | epot = -12.0478934783885 | etot = -8.133783666449
406000  ekin = 2.43306193249953 |  erot = 1.5463043441214 | epot = -12.113149943779 | etot = -8.13378366715811
407000  ekin = 2.47364186380652 |  erot = 1.55689186412975 | epot = -12.1643173959552 | etot = -8.13378366801896
408000  ekin = 2.47760299472659 |  erot = 1.57810641384372 | epot = -12.1894930773339 | etot = -8.13378366876364
409000  ekin = 2.4382285084277 |  erot = 1.60664113475376 | epot = -12.1786533122599 | etot = -8.13378366907848
410000  ekin = 2.35516301280443 |  erot = 1.63934184028269 | epot = -12.1282885218174 | etot = -8.13378366873023
411000  ekin = 2.23661952277391 |  erot = 1.67408087730519 | epot = -12.0444840678247 | etot = -8.13378366774563
412000  ekin = 2.0985126746209 |  erot = 1.71012170017462 | epot = -11.9424180412156 | etot = -8.13378366642006
413000  ekin = 1.9605648479408 |  erot = 1.7477880401099 | epot = -11.842136553205 | etot = -8.13378366515434
414000  ekin = 1.84128090481651 |  erot = 1.78771082121978 | epot = -11.7627753903069 | etot = -8.13378366427058
415000  ekin = 1.75390442336269 |  erot = 1.8300910315431 | epot = -11.7177791188322 | etot = -8.1337836639264
416000  ekin = 1.70439570487947 |  erot = 1.8742500828549 | epot = -11.7124294518619 | etot = -8.13378366412758
417000  ekin = 1.6913155425304 |  erot = 1.91850147883522 | epot = -11.7436006861825 | etot = -8.13378366481692
418000  ekin = 1.70689490031879 |  erot = 1.96025799788586 | epot = -11.8009365639622 | etot = -8.13378366575752
419000  ekin = 1.73962222230418 |  erot = 1.99637255840534 | epot = -11.8697784474987 | etot = -8.13378366678922
420000  ekin = 1.77669286262506 |  erot = 2.02357619714827 | epot = -11.9340527274771 | etot = -8.13378366770374
421000  ekin = 1.80657824082939 |  erot = 2.03903049555573 | epot = -11.9793924047129 | etot = -8.13378366832774
422000  ekin = 1.82111290085882 |  erot = 2.04088419799503 | epot = -11.9957807674272 | etot = -8.1337836685733
423000  ekin = 1.8164858456862 |  erot = 2.02865244729792 | epot = -11.9789219614438 | etot = -8.13378366845964
424000  ekin = 1.79301691785 |  erot = 2.00326876348577 | epot = -11.93006934941 | etot = -8.1337836680742
425000  ekin = 1.7542404696796 |  erot = 1.96680784722199 | epot = -11.8548319844099 | etot = -8.13378366750835
426000  ekin = 1.70601392329041 |  erot = 1.92202692837085 | epot = -11.7618245184889 | etot = -8.13378366682768
427000  ekin = 1.65580906012742 |  erot = 1.8718698544119 | epot = -11.6614625806777 | etot = -8.13378366613836
428000  ekin = 1.61207963969203 |  erot = 1.81905558542305 | epot = -11.5649188905514 | etot = -8.13378366543629
429000  ekin = 1.58339999422577 |  erot = 1.76579893171841 | epot = -11.4829825908551 | etot = -8.13378366491096
430000  ekin = 1.57646033947156 |  erot = 1.71346152699463 | epot = -11.4237055311677 | etot = -8.1337836647015
431000  ekin = 1.59418488210558 |  erot = 1.66239892773017 | epot = -11.3903674747255 | etot = -8.13378366488974
432000  ekin = 1.63452809771572 |  erot = 1.61205574804186 | epot = -11.3803675111907 | etot = -8.13378366543315
433000  ekin = 1.69077410976896 |  erot = 1.56136635610719 | epot = -11.3859241320169 | etot = -8.13378366614078
434000  ekin = 1.75368500742744 |  erot = 1.50939558466526 | epot = -11.3968642588279 | etot = -8.13378366673519
435000  ekin = 1.81477188941387 |  erot = 1.45598133800037 | epot = -11.4045368944168 | etot = -8.13378366700251
436000  ekin = 1.86895151228359 |  erot = 1.40204530898162 | epot = -11.4047804881014 | etot = -8.13378366683618
437000  ekin = 1.91551323813695 |  erot = 1.34941425923643 | epot = -11.3987111639621 | etot = -8.1337836665887
438000  ekin = 1.95545357706326 |  erot = 1.30011080733834 | epot = -11.3893480508819 | etot = -8.1337836664803
439000  ekin = 1.98811153075701 |  erot = 1.25557284833992 | epot = -11.3774680457432 | etot = -8.13378366664629
440000  ekin = 2.00986623436144 |  erot = 1.21630204161218 | epot = -11.3599519429689 | etot = -8.1337836669953
441000  ekin = 2.01530350765885 |  erot = 1.18202297032986 | epot = -11.3311101452771 | etot = -8.13378366728841
442000  ekin = 1.99936349679026 |  erot = 1.15207873138338 | epot = -11.285225896028 | etot = -8.13378366785432
443000  ekin = 1.95696749681617 |  erot = 1.12547607064141 | epot = -11.2162272349861 | etot = -8.13378366752857
444000  ekin = 1.89166490098894 |  erot = 1.10194461448034 | epot = -11.1273931823296 | etot = -8.13378366686036
445000  ekin = 1.81328868644648 |  erot = 1.08168732032615 | epot = -11.0287596725666 | etot = -8.13378366579393
446000  ekin = 1.73577899474597 |  erot = 1.06505071492877 | epot = -10.934613374721 | etot = -8.13378366504623
447000  ekin = 1.67093185588756 |  erot = 1.05239705126936 | epot = -10.8571125714687 | etot = -8.13378366431178
448000  ekin = 1.62911856819551 |  erot = 1.04409603312636 | epot = -10.8069982651691 | etot = -8.1337836638472
449000  ekin = 1.61731626297121 |  erot = 1.04041489697142 | epot = -10.791514823704 | etot = -8.13378366376135
450000  ekin = 1.6371169760582 |  erot = 1.04135992229642 | epot = -10.8122605626996 | etot = -8.13378366434497
451000  ekin = 1.683202581423 |  erot = 1.04620824656516 | epot = -10.8631944930217 | etot = -8.13378366503355
452000  ekin = 1.74581668011809 |  erot = 1.05391169410105 | epot = -10.9335120399986 | etot = -8.13378366577951
453000  ekin = 1.81457146100557 |  erot = 1.06335165863438 | epot = -11.0117067861187 | etot = -8.13378366647873
454000  ekin = 1.87975957938354 |  erot = 1.07317402238495 | epot = -11.0867172689043 | etot = -8.13378366713579
455000  ekin = 1.93251877587718 |  erot = 1.08171623325452 | epot = -11.1480186769418 | etot = -8.13378366781011
456000  ekin = 1.96415416826587 |  erot = 1.08704156958762 | epot = -11.1849794063545 | etot = -8.13378366850104
457000  ekin = 1.96605348076947 |  erot = 1.0872339429412 | epot = -11.1870710927812 | etot = -8.13378366907053
458000  ekin = 1.93127523760885 |  erot = 1.08096076790336 | epot = -11.1460196747758 | etot = -8.1337836692636
459000  ekin = 1.85771594839236 |  erot = 1.06809531780637 | epot = -11.0595949350235 | etot = -8.13378366882475
460000  ekin = 1.75147188083691 |  erot = 1.05009293158279 | epot = -10.935348480065 | etot = -8.13378366764531
461000  ekin = 1.62834142733994 |  erot = 1.02990811326384 | epot = -10.7920332065057 | etot = -8.13378366590194
462000  ekin = 1.51195360648057 |  erot = 1.01153881174369 | epot = -10.6572760812005 | etot = -8.13378366297619
463000  ekin = 1.43011910144001 |  erot = 1.00022578453745 | epot = -10.5641285481523 | etot = -8.13378366217487
464000  ekin = 1.39582910827648 |  erot = 0.998198432076844 | epot = -10.5278112022039 | etot = -8.1337836618506
465000  ekin = 1.41007554850293 |  erot = 1.00592009003209 | epot = -10.5497793012381 | etot = -8.13378366270313
466000  ekin = 1.46251969360747 |  erot = 1.02219738030556 | epot = -10.6185007378637 | etot = -8.13378366395071
467000  ekin = 1.49627186630975 |  erot = 1.05472101821045 | epot = -10.6847765488433 | etot = -8.13378366432313
468000  ekin = 1.51725853676438 |  erot = 1.12479885660867 | epot = -10.7758410579087 | etot = -8.13378366453565
469000  ekin = 1.58140637755938 |  erot = 1.16828828959022 | epot = -10.8834783316313 | etot = -8.13378366448166
470000  ekin = 1.60068578300076 |  erot = 1.18114141021406 | epot = -10.9156108575643 | etot = -8.13378366434945
471000  ekin = 1.59076368328042 |  erot = 1.18707237247322 | epot = -10.9116197194539 | etot = -8.13378366370031
472000  ekin = 1.5612406060142 |  erot = 1.18572143101511 | epot = -10.8807456998225 | etot = -8.13378366279316
473000  ekin = 1.52502097412807 |  erot = 1.17792025681444 | epot = -10.8367248927777 | etot = -8.1337836618352
474000  ekin = 1.49533177226926 |  erot = 1.165444462138 | epot = -10.7945598953625 | etot = -8.13378366095528
475000  ekin = 1.48386630176695 |  erot = 1.15068540215814 | epot = -10.7683353641634 | etot = -8.1337836602383
476000  ekin = 1.49971334633236 |  erot = 1.13623821678217 | epot = -10.7697352228581 | etot = -8.13378365974359
477000  ekin = 1.5487111876978 |  erot = 1.12448433353011 | epot = -10.8069791813398 | etot = -8.1337836601119
478000  ekin = 1.62953491120436 |  erot = 1.11764268903856 | epot = -10.8809612604826 | etot = -8.13378366023969
479000  ekin = 1.73735741643734 |  erot = 1.11700620811583 | epot = -10.9881472852193 | etot = -8.13378366066615
480000  ekin = 1.86556210287678 |  erot = 1.12262064775425 | epot = -11.1219664120635 | etot = -8.1337836614325
481000  ekin = 2.00121026337328 |  erot = 1.13364860021549 | epot = -11.2686425499546 | etot = -8.13378368636585
482000  ekin = 2.04617329760094 |  erot = 1.16256926169772 | epot = -11.3425262237857 | etot = -8.13378366448705
483000  ekin = 2.14335261834056 |  erot = 1.21476273129688 | epot = -11.4918990325462 | etot = -8.13378368290878
484000  ekin = 2.20270995356394 |  erot = 1.23147381807205 | epot = -11.5679674446545 | etot = -8.13378367301847
485000  ekin = 2.20682939441105 |  erot = 1.23835798982356 | epot = -11.5789710574867 | etot = -8.13378367325212
486000  ekin = 2.16589682794375 |  erot = 1.24300370552104 | epot = -11.5426842062933 | etot = -8.13378367282848
487000  ekin = 2.08668888865065 |  erot = 1.24625551752377 | epot = -11.4667280780208 | etot = -8.13378367184637
488000  ekin = 1.98386509125157 |  erot = 1.24977318046877 | epot = -11.3674219422435 | etot = -8.13378367052311
489000  ekin = 1.87707931030795 |  erot = 1.25547012773927 | epot = -11.2663331072078 | etot = -8.13378366916055
490000  ekin = 1.78677596317092 |  erot = 1.26490338722197 | epot = -11.1854630185197 | etot = -8.1337836681268
491000  ekin = 1.72903831214112 |  erot = 1.27867004038315 | epot = -11.1414920203231 | etot = -8.13378366779881
492000  ekin = 1.7103997905776 |  erot = 1.29591768107408 | epot = -11.1401011400714 | etot = -8.13378366841973
493000  ekin = 1.72454317156023 |  erot = 1.31423280426865 | epot = -11.1725596457326 | etot = -8.1337836699037
494000  ekin = 1.75332785015283 |  erot = 1.33022406246729 | epot = -11.2173355843424 | etot = -8.13378367172227
495000  ekin = 1.77349565825339 |  erot = 1.34086561473228 | epot = -11.2481449460233 | etot = -8.13378367303767
496000  ekin = 1.76725059667391 |  erot = 1.34512484286612 | epot = -11.246159112691 | etot = -8.13378367315101
497000  ekin = 1.73127637989022 |  erot = 1.34494708212087 | epot = -11.2100071339734 | etot = -8.13378367196233
498000  ekin = 1.67855000907778 |  erot = 1.34489121264346 | epot = -11.1572248917577 | etot = -8.13378367003641
499000  ekin = 1.63191747119361 |  erot = 1.35056727533119 | epot = -11.1162684147384 | etot = -8.13378366821364
500000  ekin = 1.61378359989808 |  erot = 1.36676364681355 | epot = -11.1143309138627 | etot = -8.13378366715105
501000  ekin = 1.63758101988158 |  erot = 1.39609850676573 | epot = -11.1674631937488 | etot = -8.13378366710151
502000  ekin = 1.70413807541423 |  erot = 1.43847493669164 | epot = -11.2763966800733 | etot = -8.13378366796746
503000  ekin = 1.80268297747941 |  erot = 1.49115460253826 | epot = -11.4276212495095 | etot = -8.13378366949188
504000  ekin = 1.91419549779682 |  erot = 1.54914693964081 | epot = -11.5971261088649 | etot = -8.1337836714273
505000  ekin = 2.01490443998886 |  erot = 1.60576406504492 | epot = -11.7544521785742 | etot = -8.13378367354037
506000  ekin = 2.07966541471917 |  erot = 1.65345439354273 | epot = -11.8669034837012 | etot = -8.13378367543934
507000  ekin = 2.08700353897931 |  erot = 1.68517460629698 | epot = -11.9059618217544 | etot = -8.13378367647812
508000  ekin = 2.02663352664087 |  erot = 1.69625747623816 | epot = -11.8566746789476 | etot = -8.13378367606856
509000  ekin = 1.90589064134532 |  erot = 1.68599529702818 | epot = -11.7256696125605 | etot = -8.13378367418702
510000  ekin = 1.74959091232532 |  erot = 1.65787688253333 | epot = -11.5412514663247 | etot = -8.13378367146606
511000  ekin = 1.59231955658843 |  erot = 1.6182626673154 | epot = -11.3443658926804 | etot = -8.13378366877654
512000  ekin = 1.46755856060292 |  erot = 1.57434662380292 | epot = -11.1756888512875 | etot = -8.13378366688171
513000  ekin = 1.39839916093105 |  erot = 1.53234768377481 | epot = -11.0645305108152 | etot = -8.13378366610933
514000  ekin = 1.39338903686656 |  erot = 1.49706258344342 | epot = -11.0242352864652 | etot = -8.13378366615522
515000  ekin = 1.4449515906223 |  erot = 1.47110271002822 | epot = -11.0498379682114 | etot = -8.13378366756091
516000  ekin = 1.53288312821876 |  erot = 1.453570647243 | epot = -11.1202374448478 | etot = -8.133783669386
517000  ekin = 1.63159033312891 |  erot = 1.44224294472704 | epot = -11.2076169492337 | etot = -8.13378367137774
518000  ekin = 1.7140940145624 |  erot = 1.43408399435691 | epot = -11.281961682157 | etot = -8.13378367323773
519000  ekin = 1.75665192757263 |  erot = 1.42579002916731 | epot = -11.316225631737 | etot = -8.13378367499705
520000  ekin = 1.74187345948359 |  erot = 1.41504839774727 | epot = -11.2907055324355 | etot = -8.13378367520464
521000  ekin = 1.6687170304138 |  erot = 1.40071550595613 | epot = -11.2032162101188 | etot = -8.13378367374886
522000  ekin = 1.55952182856936 |  erot = 1.38339983649833 | epot = -11.0767053362068 | etot = -8.13378367113911
523000  ekin = 1.45114556552355 |  erot = 1.36568308064632 | epot = -10.9506123146269 | etot = -8.13378366845702
524000  ekin = 1.38091842213512 |  erot = 1.35134919390609 | epot = -10.8660512824867 | etot = -8.13378366644547
525000  ekin = 1.37601425592005 |  erot = 1.34456662955663 | epot = -10.8543645508867 | etot = -8.13378366541006
526000  ekin = 1.44870428485565 |  erot = 1.34909740178984 | epot = -10.9315853521561 | etot = -8.13378366551062
527000  ekin = 1.59459863547555 |  erot = 1.36714947551734 | epot = -11.0955317779066 | etot = -8.13378366691373
528000  ekin = 1.79183405482323 |  erot = 1.39841904592953 | epot = -11.3240367701711 | etot = -8.1337836694183
529000  ekin = 2.00478978698341 |  erot = 1.43972835787364 | epot = -11.5783018172279 | etot = -8.13378367237083
530000  ekin = 2.19333795602184 |  erot = 1.48552207657583 | epot = -11.8126437074866 | etot = -8.13378367488898
531000  ekin = 2.32431476966283 |  erot = 1.52928747155129 | epot = -11.9873859175035 | etot = -8.13378367628933
532000  ekin = 2.37971447238976 |  erot = 1.56539257217402 | epot = -12.0788907210184 | etot = -8.13378367645461
533000  ekin = 2.35771666716381 |  erot = 1.59048999439669 | epot = -12.0819903372243 | etot = -8.1337836756638
534000  ekin = 2.26899715449622 |  erot = 1.60407394358295 | epot = -12.0068547722117 | etot = -8.13378367413258
535000  ekin = 2.13365177460143 |  erot = 1.60831072461293 | epot = -11.8757461712372 | etot = -8.13378367202286
536000  ekin = 1.97886376167562 |  erot = 1.60719127866692 | epot = -11.7198387100714 | etot = -8.13378366972884
537000  ekin = 1.83421887314921 |  erot = 1.60523898300898 | epot = -11.5732415239224 | etot = -8.13378366776425
538000  ekin = 1.72531720892395 |  erot = 1.60632519288809 | epot = -11.465426068323 | etot = -8.13378366651098
539000  ekin = 1.66856519905205 |  erot = 1.61301472929837 | epot = -11.4153635944735 | etot = -8.13378366612308
540000  ekin = 1.66907056567389 |  erot = 1.62662968764599 | epot = -11.4294839194817 | etot = -8.1337836661618
541000  ekin = 1.72153495926528 |  erot = 1.64788745985663 | epot = -11.5032060864699 | etot = -8.13378366734799
542000  ekin = 1.80903650496287 |  erot = 1.67547869679642 | epot = -11.618298870671 | etot = -8.13378366891172
543000  ekin = 1.90894616834964 |  erot = 1.70734508947333 | epot = -11.7500749283571 | etot = -8.13378367053414
544000  ekin = 1.99777842838976 |  erot = 1.74125357780433 | epot = -11.8728156781126 | etot = -8.13378367191851
545000  ekin = 2.05546409374046 |  erot = 1.77521000036089 | epot = -11.9644577669355 | etot = -8.13378367283414
546000  ekin = 2.06867595313242 |  erot = 1.8077948360879 | epot = -12.0102544623758 | etot = -8.13378367315551
547000  ekin = 2.03267806245285 |  erot = 1.83838588997954 | epot = -12.0048476252993 | etot = -8.13378367286689
548000  ekin = 1.95148731421026 |  erot = 1.86718390882511 | epot = -11.9524548951376 | etot = -8.13378367210227
549000  ekin = 1.83645042330075 |  erot = 1.89487456520008 | epot = -11.8651086595368 | etot = -8.13378367103596
550000  ekin = 1.70373130495655 |  erot = 1.92233248820821 | epot = -11.7598474630408 | etot = -8.13378366987601
551000  ekin = 1.57139422781638 |  erot = 1.9502429186833 | epot = -11.65542081531 | etot = -8.1337836688103
552000  ekin = 1.45663332558441 |  erot = 1.97878558863207 | epot = -11.5692025822092 | etot = -8.13378366799269
553000  ekin = 1.3733740902053 |  erot = 2.00744335365976 | epot = -11.5146011114102 | etot = -8.13378366754517
554000  ekin = 1.33029485863377 |  erot = 2.0349665714564 | epot = -11.4990450976332 | etot = -8.13378366754299
555000  ekin = 1.32945359626657 |  erot = 2.05953157376384 | epot = -11.5227688380265 | etot = -8.13378366799606
556000  ekin = 1.36589068758086 |  erot = 2.07909837609607 | epot = -11.5787727324867 | etot = -8.13378366880977
557000  ekin = 1.42857577084687 |  erot = 2.09193210847203 | epot = -11.6542915491193 | etot = -8.13378366980039
558000  ekin = 1.50275359964787 |  erot = 2.09715314140285 | epot = -11.733690411781 | etot = -8.13378367073029
559000  ekin = 1.57321830908193 |  erot = 2.09511862189589 | epot = -11.8021206023721 | etot = -8.13378367139428
560000  ekin = 1.62740172364015 |  erot = 2.0874549689334 | epot = -11.8486403642998 | etot = -8.13378367172623
561000  ekin = 1.65692416188407 |  erot = 2.07666092047466 | epot = -11.867368754165 | etot = -8.1337836718063
562000  ekin = 1.65737426356001 |  erot = 2.06544534214375 | epot = -11.8566032774352 | etot = -8.13378367173146
563000  ekin = 1.62727808427686 |  erot = 2.0561555503796 | epot = -11.8172173064426 | etot = -8.1337836717861
564000  ekin = 1.56679933055812 |  erot = 2.05047511799406 | epot = -11.7510581199034 | etot = -8.13378367135121
565000  ekin = 1.48206055328865 |  erot = 2.04917576858446 | epot = -11.6650199925185 | etot = -8.13378367064534
566000  ekin = 1.38423866544416 |  erot = 2.05221850150166 | epot = -11.570240836728 | etot = -8.13378366978216
567000  ekin = 1.28749391779805 |  erot = 2.05873429505309 | epot = -11.4800118818356 | etot = -8.1337836689845
568000  ekin = 1.2057043110348 |  erot = 2.06705692033903 | epot = -11.4065448998294 | etot = -8.13378366845561
569000  ekin = 1.14918558023836 |  erot = 2.07495244466027 | epot = -11.3579216931865 | etot = -8.13378366828788
570000  ekin = 1.12276449647263 |  erot = 2.08007272962266 | epot = -11.3366208945389 | etot = -8.13378366844359
571000  ekin = 1.12567595873366 |  erot = 2.08050218013587 | epot = -11.3399618076688 | etot = -8.13378366879922
572000  ekin = 1.15294903412069 |  erot = 2.07519259344981 | epot = -11.3619252967711 | etot = -8.1337836692006
573000  ekin = 1.19838854920248 |  erot = 2.06451015558496 | epot = -11.3966823740142 | etot = -8.13378366922679
574000  ekin = 1.25460427390538 |  erot = 2.04968889738576 | epot = -11.4380768408162 | etot = -8.13378366952507
575000  ekin = 1.3145473569659 |  erot = 2.03199549862714 | epot = -11.4803265251246 | etot = -8.13378366953155
576000  ekin = 1.37512583612256 |  erot = 2.01319845741142 | epot = -11.522107962838 | etot = -8.13378366930401
577000  ekin = 1.43682760503803 |  erot = 1.99528982934627 | epot = -11.5659011033479 | etot = -8.13378366896359
578000  ekin = 1.50235588202257 |  erot = 1.98017269182707 | epot = -11.616312242474 | etot = -8.13378366862437
579000  ekin = 1.57520818416893 |  erot = 1.96938672247183 | epot = -11.6783785749987 | etot = -8.13378366835792
580000  ekin = 1.65868462492759 |  erot = 1.9639024985745 | epot = -11.7563707921412 | etot = -8.13378366863908
581000  ekin = 1.75247311826172 |  erot = 1.96419308534662 | epot = -11.8504498724713 | etot = -8.13378366886299
582000  ekin = 1.85283782857126 |  erot = 1.96967477641562 | epot = -11.9562962743646 | etot = -8.13378366937774
583000  ekin = 1.95429754596698 |  erot = 1.97826405495517 | epot = -12.0663452712462 | etot = -8.13378367032403
584000  ekin = 2.04662916571296 |  erot = 1.98631443704561 | epot = -12.1667272745288 | etot = -8.13378367177025
585000  ekin = 2.11419694670623 |  erot = 1.98862566442644 | epot = -12.2366062846708 | etot = -8.1337836735381
586000  ekin = 2.13871236987403 |  erot = 1.97915340582032 | epot = -12.251649450775 | etot = -8.13378367508065
587000  ekin = 2.1046578324698 |  erot = 1.95256271523913 | epot = -12.1910042235993 | etot = -8.13378367589034
588000  ekin = 2.00543191748363 |  erot = 1.90599988278528 | epot = -12.0452154755461 | etot = -8.13378367527722
589000  ekin = 1.85115446103327 |  erot = 1.84021509337235 | epot = -11.8251532276819 | etot = -8.13378367327628
590000  ekin = 1.66921622807052 |  erot = 1.75933351105154 | epot = -11.5623334095136 | etot = -8.13378367039159
591000  ekin = 1.49774854837099 |  erot = 1.66961531493849 | epot = -11.3011475307967 | etot = -8.13378366748726
592000  ekin = 1.3741820859932 |  erot = 1.57786762200524 | epot = -11.0858333735181 | etot = -8.13378366551967
593000  ekin = 1.32230765433109 |  erot = 1.49017042368474 | epot = -10.9462617430929 | etot = -8.13378366507706
594000  ekin = 1.34433584580908 |  erot = 1.41110289037829 | epot = -10.8892224022229 | etot = -8.13378366603555
595000  ekin = 1.4231376214122 |  erot = 1.34352894995752 | epot = -10.9004502389522 | etot = -8.13378366758252
596000  ekin = 1.53140640357278 |  erot = 1.28905714164113 | epot = -10.9542472149381 | etot = -8.13378366972416
597000  ekin = 1.63793776665508 |  erot = 1.24822708399344 | epot = -11.019948521789 | etot = -8.13378367114047
598000  ekin = 1.71853369497956 |  erot = 1.22042305585484 | epot = -11.0727404229849 | etot = -8.13378367215051
599000  ekin = 1.75676579673314 |  erot = 1.20417119499254 | epot = -11.0947206644607 | etot = -8.13378367273503
600000  ekin = 1.74415562352347 |  erot = 1.1974850125872 | epot = -11.0754243089252 | etot = -8.13378367281453
601000  ekin = 1.68078686629012 |  erot = 1.19842786468538 | epot = -11.012998403262 | etot = -8.13378367228648
602000  ekin = 1.57592768465659 |  erot = 1.20571835984221 | epot = -10.9154297156387 | etot = -8.13378367113989
603000  ekin = 1.44736021988886 |  erot = 1.21906556666659 | epot = -10.8002094561258 | etot = -8.13378366957031
604000  ekin = 1.31829530124112 |  erot = 1.23900632721008 | epot = -10.6910852964351 | etot = -8.13378366798387
605000  ekin = 1.21203583246966 |  erot = 1.26625018196441 | epot = -10.6120696811954 | etot = -8.13378366676136
606000  ekin = 1.1471788194313 |  erot = 1.30114918573804 | epot = -10.5821116711522 | etot = -8.13378366598283
607000  ekin = 1.13493137969395 |  erot = 1.34344256501628 | epot = -10.6121576106217 | etot = -8.13378366591145
608000  ekin = 1.17769398074537 |  erot = 1.39211398655978 | epot = -10.7035916336101 | etot = -8.13378366630492
609000  ekin = 1.27083042497215 |  erot = 1.44572829443106 | epot = -10.8503423864839 | etot = -8.13378366708069
610000  ekin = 1.40359308953497 |  erot = 1.50241692808096 | epot = -11.0397936861262 | etot = -8.13378366851022
611000  ekin = 1.55996607947089 |  erot = 1.55982171139299 | epot = -11.253571460632 | etot = -8.13378366976813
612000  ekin = 1.72323074885791 |  erot = 1.61567444067702 | epot = -11.4726888606289 | etot = -8.13378367109395
613000  ekin = 1.87623356286535 |  erot = 1.66732234623712 | epot = -11.677339581494 | etot = -8.13378367239149
614000  ekin = 2.00332542687785 |  erot = 1.71185786770152 | epot = -11.8489669678998 | etot = -8.13378367332043
615000  ekin = 2.0938447106911 |  erot = 1.74706892485081 | epot = -11.9746973091395 | etot = -8.1337836735976
616000  ekin = 2.14582652012071 |  erot = 1.77208418550063 | epot = -12.0516943786421 | etot = -8.13378367302075
617000  ekin = 2.16764032551916 |  erot = 1.787864761541 | epot = -12.0892887588615 | etot = -8.13378367180135
618000  ekin = 2.17543321836323 |  erot = 1.79702594193641 | epot = -12.1062428306531 | etot = -8.13378367035343
619000  ekin = 2.18765015125133 |  erot = 1.80309631575425 | epot = -12.1245301362281 | etot = -8.13378366922254
620000  ekin = 2.21827388576285 |  erot = 1.80941579610204 | epot = -12.1614733506252 | etot = -8.13378366876028
621000  ekin = 2.27256724286815 |  erot = 1.81817906105655 | epot = -12.2245299729573 | etot = -8.13378366903265
622000  ekin = 2.34686215369527 |  erot = 1.82980019933902 | epot = -12.3104460229224 | etot = -8.13378366988815
623000  ekin = 2.43079483962716 |  erot = 1.8427295467928 | epot = -12.4073080575176 | etot = -8.13378367109765
624000  ekin = 2.5107485939996 |  erot = 1.85365912855095 | epot = -12.4981913948937 | etot = -8.13378367234319
625000  ekin = 2.57376014758943 |  erot = 1.85839628629729 | epot = -12.5659401070791 | etot = -8.13378367319238
626000  ekin = 2.61178608744741 |  erot = 1.85335246050191 | epot = -12.5989222212815 | etot = -8.13378367333221
627000  ekin = 2.62439666915785 |  erot = 1.83675929860322 | epot = -12.5949396406017 | etot = -8.13378367284068
628000  ekin = 2.61715143116438 |  erot = 1.8088329781474 | epot = -12.5597680815328 | etot = -8.13378367222104
629000  ekin = 2.59614002779832 |  erot = 1.77076928021883 | epot = -12.5006929799542 | etot = -8.1337836719371
630000  ekin = 2.56316564608462 |  erot = 1.7236886227231 | epot = -12.4206379408516 | etot = -8.13378367204391
631000  ekin = 2.51545670839933 |  erot = 1.66841938704488 | epot = -12.3176597676938 | etot = -8.13378367224957
632000  ekin = 2.44898106284144 |  erot = 1.60594586085105 | epot = -12.1887105959446 | etot = -8.13378367225213
633000  ekin = 2.36287257797916 |  erot = 1.53782426737236 | epot = -12.0344805167089 | etot = -8.13378367135735
634000  ekin = 2.26405242524496 |  erot = 1.46623278029967 | epot = -11.864068876129 | etot = -8.13378367058439
635000  ekin = 2.16101755721112 |  erot = 1.39475566087583 | epot = -11.6895568877978 | etot = -8.13378366971087
636000  ekin = 2.06475253332541 |  erot = 1.3268650623379 | epot = -11.5254012642585 | etot = -8.13378366859516
637000  ekin = 1.98973271037715 |  erot = 1.26596624428881 | epot = -11.3894826221233 | etot = -8.13378366745732
638000  ekin = 1.95146778323067 |  erot = 1.21514985243714 | epot = -11.3004013023013 | etot = -8.13378366663354
639000  ekin = 1.96182069136509 |  erot = 1.17695161176092 | epot = -11.2725559693112 | etot = -8.13378366618516
640000  ekin = 2.02679898932797 |  erot = 1.15239183903173 | epot = -11.3129744949352 | etot = -8.13378366657551
641000  ekin = 2.14199910312317 |  erot = 1.14071086556715 | epot = -11.4164936363374 | etot = -8.1337836676471
642000  ekin = 2.2928504631817 |  erot = 1.13915186811625 | epot = -11.5657860007561 | etot = -8.13378366945816
643000  ekin = 2.45552552112345 |  erot = 1.1433882823325 | epot = -11.7326974750707 | etot = -8.13378367161478
644000  ekin = 2.60133752583198 |  erot = 1.148353674905 | epot = -11.8834748743264 | etot = -8.13378367358945
645000  ekin = 2.70371430392256 |  erot = 1.14938437136365 | epot = -11.9868823501647 | etot = -8.13378367487845
646000  ekin = 2.74463607558011 |  erot = 1.14332224209556 | epot = -12.0217419928901 | etot = -8.13378367521444
647000  ekin = 2.71817787235873 |  erot = 1.12915792946586 | epot = -11.9811194764579 | etot = -8.13378367463333
648000  ekin = 2.63028246064842 |  erot = 1.10798613625545 | epot = -11.8720522702983 | etot = -8.13378367339448
649000  ekin = 2.49559189346538 |  erot = 1.08245328244055 | epot = -11.7118288477703 | etot = -8.13378367186436
650000  ekin = 2.33293161554122 |  erot = 1.05592857134661 | epot = -11.5226438572585 | etot = -8.13378367037071
651000  ekin = 2.16312160403312 |  erot = 1.03179243267749 | epot = -11.3286977053606 | etot = -8.13378366864995
652000  ekin = 2.0043776447218 |  erot = 1.0126334647444 | epot = -11.1507947775976 | etot = -8.13378366813138
653000  ekin = 1.86320148187806 |  erot = 0.999771298657919 | epot = -10.9967564484937 | etot = -8.13378366795773
654000  ekin = 1.74159938814614 |  erot = 0.993638993388595 | epot = -10.8690220495541 | etot = -8.13378366801934
655000  ekin = 1.63877614368846 |  erot = 0.993961110596709 | epot = -10.7665209224708 | etot = -8.13378366818566
656000  ekin = 1.5529369639273 |  erot = 0.999977751459511 | epot = -10.6866983837148 | etot = -8.13378366832803
657000  ekin = 1.48301105563479 |  erot = 1.01069155837003 | epot = -10.6274862823526 | etot = -8.13378366834774
658000  ekin = 1.42991653831162 |  erot = 1.02511295990344 | epot = -10.5888131664135 | etot = -8.13378366819842
659000  ekin = 1.39703562131292 |  erot = 1.04246417551983 | epot = -10.5732834647419 | etot = -8.13378366790917
[...]
837000  ekin = 1.4649469150044 |  erot = 1.67922598577313 | epot = -11.2779565658821 | etot = -8.13378366510453
838000  ekin = 1.41623376457433 |  erot = 1.68359587928439 | epot = -11.2336133181127 | etot = -8.13378367425399
839000  ekin = 1.38164226012672 |  erot = 1.69827238734037 | epot = -11.2136983220805 | etot = -8.13378367461343
840000  ekin = 1.37281419715513 |  erot = 1.71791872248084 | epot = -11.2245165947373 | etot = -8.13378367510138
841000  ekin = 1.38251849193881 |  erot = 1.74222357841543 | epot = -11.2585257459448 | etot = -8.13378367559059
842000  ekin = 1.40440815942035 |  erot = 1.77053653191625 | epot = -11.308728367384 | etot = -8.13378367604745
843000  ekin = 1.43288889925859 |  erot = 1.80208713634726 | epot = -11.3687597120877 | etot = -8.13378367648181
844000  ekin = 1.46337505814903 |  erot = 1.83581425236187 | epot = -11.4329729874354 | etot = -8.13378367692452
845000  ekin = 1.49225138963089 |  erot = 1.87011931155121 | epot = -11.4961543785795 | etot = -8.13378367739744
846000  ekin = 1.51675477462874 |  erot = 1.90271354930936 | epot = -11.5532520018099 | etot = -8.13378367787183
847000  ekin = 1.53514567571852 |  erot = 1.93076451181253 | epot = -11.5996938657532 | etot = -8.13378367822212
848000  ekin = 1.54758817139767 |  erot = 1.95149729782707 | epot = -11.6328691474788 | etot = -8.1337836782541
849000  ekin = 1.55740275309144 |  erot = 1.96313933265 | epot = -11.6543257635983 | etot = -8.13378367785683
850000  ekin = 1.57132389421101 |  erot = 1.96572299084975 | epot = -11.6708305622435 | etot = -8.13378367718269
851000  ekin = 1.59707563452676 |  erot = 1.96110149893909 | epot = -11.6919608101049 | etot = -8.13378367663905
852000  ekin = 1.6386535081545 |  erot = 1.95197424613878 | epot = -11.7244114309664 | etot = -8.13378367667315
853000  ekin = 1.69191652813023 |  erot = 1.94037118809899 | epot = -11.7660713936989 | etot = -8.1337836774697
854000  ekin = 1.74370784145889 |  erot = 1.92645693893931 | epot = -11.8039484591072 | etot = -8.13378367870896
855000  ekin = 1.77620146948086 |  erot = 1.90847432090069 | epot = -11.8184594703326 | etot = -8.13378367995108
856000  ekin = 1.77433273184065 |  erot = 1.88315818057335 | epot = -11.7912745929164 | etot = -8.13378368050239
857000  ekin = 1.73346273147091 |  erot = 1.84735528776312 | epot = -11.7146016992328 | etot = -8.13378367999875
858000  ekin = 1.66317903315863 |  erot = 1.79946643728795 | epot = -11.5964291489817 | etot = -8.13378367853512
859000  ekin = 1.58513293473523 |  erot = 1.74007953905842 | epot = -11.4589961504119 | etot = -8.13378367661827
860000  ekin = 1.52581941740006 |  erot = 1.67168470802684 | epot = -11.3312878003291 | etot = -8.13378367490221
861000  ekin = 1.50775028679288 |  erot = 1.59782760969369 | epot = -11.2393615703528 | etot = -8.1337836738662
862000  ekin = 1.54306866321957 |  erot = 1.52225954467352 | epot = -11.1991118815402 | etot = -8.13378367364711
863000  ekin = 1.63171594625002 |  erot = 1.44845127786619 | epot = -11.2139508982038 | etot = -8.13378367408762
864000  ekin = 1.76367870712172 |  erot = 1.37946094115355 | epot = -11.2769233231883 | etot = -8.13378367491307
865000  ekin = 1.92306452976728 |  erot = 1.31796433815998 | epot = -11.374812543797 | etot = -8.13378367586979
866000  ekin = 2.09215456373456 |  erot = 1.26628926087244 | epot = -11.492227501168 | etot = -8.13378367656101
867000  ekin = 2.2555870663093 |  erot = 1.22649711226227 | epot = -11.6158678558662 | etot = -8.13378367729465
868000  ekin = 2.40057443573636 |  erot = 1.20017706622215 | epot = -11.7345351797559 | etot = -8.13378367779738
869000  ekin = 2.51819395203098 |  erot = 1.18842552010846 | epot = -11.8404031502132 | etot = -8.13378367807373
870000  ekin = 2.60380767615723 |  erot = 1.19178595747267 | epot = -11.9293773118501 | etot = -8.13378367822019
871000  ekin = 2.65597330530642 |  erot = 1.21008900212213 | epot = -11.9998459857543 | etot = -8.13378367832573
872000  ekin = 2.67413391791353 |  erot = 1.24223617503019 | epot = -12.0501537716762 | etot = -8.13378367873251
873000  ekin = 2.6552381335266 |  erot = 1.28590823805749 | epot = -12.0749300509471 | etot = -8.13378367936302
874000  ekin = 2.59426343772232 |  erot = 1.33769628235099 | epot = -12.0657434000994 | etot = -8.13378368002606
875000  ekin = 2.48661885046081 |  erot = 1.39359938817273 | epot = -12.014001918994 | etot = -8.13378368036042
876000  ekin = 2.33257163459597 |  erot = 1.4498598457216 | epot = -11.9162151603149 | etot = -8.13378367999738
877000  ekin = 2.141517317418 |  erot = 1.50380376864633 | epot = -11.7791047648915 | etot = -8.13378367882715
878000  ekin = 1.93283200512491 |  erot = 1.55419737778086 | epot = -11.6208130600935 | etot = -8.13378367718774
879000  ekin = 1.73117573768839 |  erot = 1.60084517567798 | epot = -11.4658045891139 | etot = -8.13378367574752
880000  ekin = 1.5578715146681 |  erot = 1.64373016660559 | epot = -11.3353853563275 | etot = -8.1337836750538
881000  ekin = 1.42384142296435 |  erot = 1.68244604719099 | epot = -11.240071145286 | etot = -8.1337836751306
882000  ekin = 1.32893688638413 |  erot = 1.71640874333306 | epot = -11.1791293052726 | etot = -8.13378367555537
883000  ekin = 1.26714280251856 |  erot = 1.74554143078467 | epot = -11.1464679090328 | etot = -8.13378367572956
884000  ekin = 1.23268823981684 |  erot = 1.77071758435451 | epot = -11.1371895001203 | etot = -8.13378367594895
885000  ekin = 1.22008849613112 |  erot = 1.79312166866591 | epot = -11.1469938409055 | etot = -8.13378367610844
886000  ekin = 1.22532479936357 |  erot = 1.81382116072379 | epot = -11.1729296363289 | etot = -8.13378367624153
887000  ekin = 1.2449454811134 |  erot = 1.83336039664062 | epot = -11.2120895542198 | etot = -8.1337836764658
888000  ekin = 1.27500212867653 |  erot = 1.8516886713632 | epot = -11.2604744767923 | etot = -8.13378367675256
889000  ekin = 1.31152735186358 |  erot = 1.86844690163024 | epot = -11.3137579305996 | etot = -8.13378367710575
890000  ekin = 1.3498631749174 |  erot = 1.88304641091815 | epot = -11.3666932633624 | etot = -8.13378367752689
891000  ekin = 1.38390530385042 |  erot = 1.89468392947328 | epot = -11.412372911412 | etot = -8.13378367808832
892000  ekin = 1.40569395920114 |  erot = 1.9022674868734 | epot = -11.4417451250871 | etot = -8.13378367901258
893000  ekin = 1.40448288885454 |  erot = 1.90432470815783 | epot = -11.4425912767175 | etot = -8.13378367970511
894000  ekin = 1.37144289301693 |  erot = 1.89954369089987 | epot = -11.4047702639074 | etot = -8.1337836799906
895000  ekin = 1.30348485835023 |  erot = 1.88750423026719 | epot = -11.3247727647944 | etot = -8.133783676177
896000  ekin = 1.22187336940036 |  erot = 1.8707106171673 | epot = -11.2263676620824 | etot = -8.13378367551471
897000  ekin = 1.1475484574015 |  erot = 1.8526380388531 | epot = -11.1339701707606 | etot = -8.13378367450598
898000  ekin = 1.08944016615085 |  erot = 1.83653761372357 | epot = -11.0597614537982 | etot = -8.13378367392382
899000  ekin = 1.05403951137015 |  erot = 1.82413022669427 | epot = -11.0119534116562 | etot = -8.13378367359175
900000  ekin = 1.04500203331437 |  erot = 1.81619426355301 | epot = -10.9949799704688 | etot = -8.13378367360146
901000  ekin = 1.06222206923137 |  erot = 1.81234403117871 | epot = -11.0083497743367 | etot = -8.13378367392657
902000  ekin = 1.10209713925585 |  erot = 1.81111462924797 | epot = -11.0469954429571 | etot = -8.13378367445329
903000  ekin = 1.15876030901198 |  erot = 1.81037876583237 | epot = -11.1029227498745 | etot = -8.13378367503018
904000  ekin = 1.22532881859542 |  erot = 1.80797942323846 | epot = -11.1670919178021 | etot = -8.13378367596819
905000  ekin = 1.29206809095771 |  erot = 1.80250391202481 | epot = -11.228355679448 | etot = -8.13378367646547
906000  ekin = 1.35183435818773 |  erot = 1.79300035920579 | epot = -11.2786183941511 | etot = -8.13378367675755
907000  ekin = 1.39979991832311 |  erot = 1.77946415970531 | epot = -11.3130477549902 | etot = -8.13378367696177
908000  ekin = 1.43268044809292 |  erot = 1.76253539552682 | epot = -11.3289995206312 | etot = -8.13378367701141
909000  ekin = 1.44897967392585 |  erot = 1.74341748030413 | epot = -11.3261808311167 | etot = -8.13378367688676
910000  ekin = 1.44937912518518 |  erot = 1.72390580405004 | epot = -11.3070686057931 | etot = -8.13378367655785
911000  ekin = 1.43727654048153 |  erot = 1.70617572376328 | epot = -11.2772359402954 | etot = -8.13378367605061
912000  ekin = 1.41843448710304 |  erot = 1.69263823219248 | epot = -11.2448563947427 | etot = -8.13378367544719
913000  ekin = 1.40006194636186 |  erot = 1.68549440968357 | epot = -11.2193400309129 | etot = -8.1337836748675
914000  ekin = 1.38958826680245 |  erot = 1.68634774644459 | epot = -11.2097196877205 | etot = -8.1337836744735
915000  ekin = 1.39244842079852 |  erot = 1.69595180430484 | epot = -11.2221838995188 | etot = -8.1337836744154
916000  ekin = 1.41015014913687 |  erot = 1.71401831966597 | epot = -11.257952143573 | etot = -8.13378367477015
917000  ekin = 1.43929629826323 |  erot = 1.73916764021605 | epot = -11.3122476139723 | etot = -8.13378367549302
918000  ekin = 1.4722794295836 |  erot = 1.76903078869455 | epot = -11.3750938946781 | etot = -8.1337836764
919000  ekin = 1.49986621867062 |  erot = 1.80052098874725 | epot = -11.4341708846036 | etot = -8.13378367718575
920000  ekin = 1.51501277168815 |  erot = 1.83027923270359 | epot = -11.4790756819828 | etot = -8.13378367759109
921000  ekin = 1.50567012560593 |  erot = 1.85806253143217 | epot = -11.4975163338839 | etot = -8.13378367684584
922000  ekin = 1.50530570212432 |  erot = 1.88405749209565 | epot = -11.5231468708402 | etot = -8.13378367662025
923000  ekin = 1.51005072163659 |  erot = 1.89398296785835 | epot = -11.5378173653492 | etot = -8.13378367585429
924000  ekin = 1.52928061110808 |  erot = 1.89561779723843 | epot = -11.558682083782 | etot = -8.13378367543545
925000  ekin = 1.56873673242218 |  erot = 1.88910082671996 | epot = -11.5916212348592 | etot = -8.13378367571709
926000  ekin = 1.62371911797747 |  erot = 1.87429650796065 | epot = -11.6317993026205 | etot = -8.13378367668236
927000  ekin = 1.67952368621566 |  erot = 1.85068760963458 | epot = -11.663994973807 | etot = -8.13378367795674
928000  ekin = 1.71651231863953 |  erot = 1.81783745906732 | epot = -11.6681334567389 | etot = -8.13378367903208
929000  ekin = 1.71702542898816 |  erot = 1.77614095822328 | epot = -11.6269500667182 | etot = -8.13378367950679
930000  ekin = 1.67099557122645 |  erot = 1.72742889265358 | epot = -11.5322081430821 | etot = -8.13378367920211
931000  ekin = 1.57874461805286 |  erot = 1.67513458336157 | epot = -11.3876628795813 | etot = -8.13378367816685
932000  ekin = 1.4507920755465 |  erot = 1.62392798812581 | epot = -11.2085037402974 | etot = -8.13378367662505
933000  ekin = 1.30531755369149 |  erot = 1.57894109557251 | epot = -11.0180423241588 | etot = -8.13378367489477
934000  ekin = 1.16422088055465 |  erot = 1.54485802719546 | epot = -10.8428625810454 | etot = -8.13378367329525
935000  ekin = 1.04864497195189 |  erot = 1.5250920918049 | epot = -10.7075207359171 | etot = -8.13378367216033
936000  ekin = 0.974709275907845 |  erot = 1.52116328113893 | epot = -10.6296562287295 | etot = -8.13378367168275
937000  ekin = 0.950462281728795 |  erot = 1.53244919754867 | epot = -10.6166951512348 | etot = -8.13378367195737
938000  ekin = 0.974421294247563 |  erot = 1.55616007284456 | epot = -10.6643650400328 | etot = -8.13378367294068
939000  ekin = 1.03606886914207 |  erot = 1.58755449810235 | epot = -10.7574070416974 | etot = -8.13378367445297
940000  ekin = 1.11826841163644 |  erot = 1.62042989252328 | epot = -10.8724819803543 | etot = -8.13378367619459
941000  ekin = 1.20122028754373 |  erot = 1.64794232268583 | epot = -10.9829462880145 | etot = -8.1337836777849
942000  ekin = 1.26717763871503 |  erot = 1.66371924010786 | epot = -11.0646805577046 | etot = -8.1337836788817
943000  ekin = 1.3050921263636 |  erot = 1.66314531322851 | epot = -11.1020211187136 | etot = -8.13378367912151
944000  ekin = 1.31392378036222 |  erot = 1.64449670959754 | epot = -11.0922041684753 | etot = -8.13378367851557
945000  ekin = 1.30237464583948 |  erot = 1.60929976264344 | epot = -11.04545808583 | etot = -8.13378367734709
946000  ekin = 1.28506402630223 |  erot = 1.56181036915073 | epot = -10.9806580715648 | etot = -8.13378367611187
947000  ekin = 1.27634123347521 |  erot = 1.50774431563436 | epot = -10.9178692243886 | etot = -8.133783675279
948000  ekin = 1.28467886415746 |  erot = 1.45281196766794 | epot = -10.8712745068899 | etot = -8.13378367506454
949000  ekin = 1.31037739981839 |  erot = 1.40157240050898 | epot = -10.8457334757007 | etot = -8.13378367537332
950000  ekin = 1.34722619727445 |  erot = 1.35688689258473 | epot = -10.8378967657852 | etot = -8.13378367592597
951000  ekin = 1.38650860359963 |  erot = 1.31991932915849 | epot = -10.8402116091881 | etot = -8.13378367643003
952000  ekin = 1.42144708600024 |  erot = 1.29081153261565 | epot = -10.8460422952464 | etot = -8.13378367663051
953000  ekin = 1.44882630049243 |  erot = 1.26905800932661 | epot = -10.8516679865683 | etot = -8.13378367674927
954000  ekin = 1.46839021309569 |  erot = 1.25288008944085 | epot = -10.8550539791095 | etot = -8.13378367657292
955000  ekin = 1.48389177819301 |  erot = 1.24071488903617 | epot = -10.858390343506 | etot = -8.13378367627686
956000  ekin = 1.50041048021928 |  erot = 1.23152279379181 | epot = -10.8657169500894 | etot = -8.13378367607827
957000  ekin = 1.52124213198277 |  erot = 1.2248104766171 | epot = -10.8798362846954 | etot = -8.13378367609549
958000  ekin = 1.54632228951779 |  erot = 1.22051885586618 | epot = -10.9006248216425 | etot = -8.13378367625849
959000  ekin = 1.5732429585497 |  erot = 1.2189190985513 | epot = -10.9259457334718 | etot = -8.1337836763708
960000  ekin = 1.59969207484939 |  erot = 1.22060655465072 | epot = -10.9540823058879 | etot = -8.13378367638774
961000  ekin = 1.62253442120938 |  erot = 1.22677322860071 | epot = -10.9830913260732 | etot = -8.13378367626306
962000  ekin = 1.64127230246638 |  erot = 1.23851880553052 | epot = -11.0135747841204 | etot = -8.13378367612348
963000  ekin = 1.65616191530707 |  erot = 1.25678968557686 | epot = -11.0467352770293 | etot = -8.13378367614533
964000  ekin = 1.66566514878509 |  erot = 1.28218253465312 | epot = -11.0816313596854 | etot = -8.13378367624715
965000  ekin = 1.66770285413704 |  erot = 1.3145546426696 | epot = -11.1160411733802 | etot = -8.13378367657354
966000  ekin = 1.65810694801932 |  erot = 1.35314679620483 | epot = -11.1450374210337 | etot = -8.13378367680953
967000  ekin = 1.63401913429882 |  erot = 1.39653020162862 | epot = -11.1643330128601 | etot = -8.1337836769327
968000  ekin = 1.59493849996686 |  erot = 1.44254096556363 | epot = -11.1712631425958 | etot = -8.13378367706529
969000  ekin = 1.54116623449113 |  erot = 1.48830566532954 | epot = -11.1632555771591 | etot = -8.13378367733845
970000  ekin = 1.4719525052895 |  erot = 1.53048571058931 | epot = -11.1362218935876 | etot = -8.13378367770882
971000  ekin = 1.38571362496392 |  erot = 1.56593199218658 | epot = -11.0854292947599 | etot = -8.13378367760946
972000  ekin = 1.28446124080782 |  erot = 1.59277024357702 | epot = -11.0110151618351 | etot = -8.13378367745027
973000  ekin = 1.17320808804033 |  erot = 1.61049478778007 | epot = -10.9174865525069 | etot = -8.13378367668655
974000  ekin = 1.06313421672607 |  erot = 1.62023440931496 | epot = -10.8171523014627 | etot = -8.1337836754217
975000  ekin = 0.970987627773263 |  erot = 1.62445058232732 | epot = -10.7292218841971 | etot = -8.13378367409648
976000  ekin = 0.913517832896917 |  erot = 1.62592321152395 | epot = -10.6732247177148 | etot = -8.13378367329392
977000  ekin = 0.900210296281933 |  erot = 1.62660680876215 | epot = -10.6606007784181 | etot = -8.13378367337401
978000  ekin = 0.928774957734405 |  erot = 1.62702793017349 | epot = -10.6895865621565 | etot = -8.13378367424864
979000  ekin = 0.986309688615544 |  erot = 1.62661906277886 | epot = -10.7467124267463 | etot = -8.13378367535186
980000  ekin = 1.05604184509069 |  erot = 1.62477777772944 | epot = -10.8146032989454 | etot = -8.13378367612524
981000  ekin = 1.12469745172871 |  erot = 1.62193499957867 | epot = -10.8804161275922 | etot = -8.13378367628486
982000  ekin = 1.18655422485744 |  erot = 1.61989865506831 | epot = -10.9402365558265 | etot = -8.13378367590075
983000  ekin = 1.24323393324142 |  erot = 1.62138932885757 | epot = -10.9984069373473 | etot = -8.1337836752483
984000  ekin = 1.30072892338428 |  erot = 1.62917854698298 | epot = -11.0636911449926 | etot = -8.13378367462536
985000  ekin = 1.36575798911899 |  erot = 1.64530549626705 | epot = -11.1448471596467 | etot = -8.13378367426062
986000  ekin = 1.44269014494577 |  erot = 1.67060135317286 | epot = -11.2470751724194 | etot = -8.13378367430079
987000  ekin = 1.53139017700859 |  erot = 1.70450616299349 | epot = -11.3696800148167 | etot = -8.13378367481465
988000  ekin = 1.62542516970506 |  erot = 1.74490462806446 | epot = -11.5041134736236 | etot = -8.13378367585409
989000  ekin = 1.7097331432548 |  erot = 1.78758053809196 | epot = -11.6310973585289 | etot = -8.13378367718214
990000  ekin = 1.7683499056324 |  erot = 1.8285480090496 | epot = -11.7306815930646 | etot = -8.13378367838265
991000  ekin = 1.78717585085268 |  erot = 1.86445265595412 | epot = -11.7854121858802 | etot = -8.13378367907336
992000  ekin = 1.75808068859759 |  erot = 1.89344947202214 | epot = -11.7853138396523 | etot = -8.13378367903258
993000  ekin = 1.68149922524448 |  erot = 1.91587778986002 | epot = -11.7311606933815 | etot = -8.13378367827695
994000  ekin = 1.56634005423023 |  erot = 1.93428820616986 | epot = -11.6344119373831 | etot = -8.13378367698301
995000  ekin = 1.42807354993205 |  erot = 1.95281321298946 | epot = -11.5146704383349 | etot = -8.13378367541341
996000  ekin = 1.28578074359379 |  erot = 1.97614374534584 | epot = -11.3957081628235 | etot = -8.1337836738839
997000  ekin = 1.15849050625869 |  erot = 2.00849321119135 | epot = -11.3007673901264 | etot = -8.13378367267635
998000  ekin = 1.06172554938436 |  erot = 2.05288173975883 | epot = -11.248390961091 | etot = -8.13378367194784
999000  ekin = 1.00534864058225 |  erot = 2.1108335144693 | epot = -11.2499658267879 | etot = -8.13378367173635
1000000  ekin = 0.992888355159924 |  erot = 2.18232107200368 | epot = -11.3089930991865 | etot = -8.13378367202294
 1000000  0.073547286   -1.1520387  0.021139403   -1.0316105 -4.7686302e-05        64000 
Loop time of 16.9184 on 1 procs for 1000000 steps with 10 atoms

Performance: 51068.728 tau/day, 59107.325 timesteps/s
99.7% CPU use with 1 MPI tasks x no OpenMP threads

MPI task timing breakdown:
Section |  min time  |  avg time  |  max time  |%varavg| %total
---------------------------------------------------------------
Pair    | 14.164     | 14.164     | 14.164     |   0.0 | 83.72
Bond    | 0.59031    | 0.59031    | 0.59031    |   0.0 |  3.49
Neigh   | 0.006119   | 0.006119   | 0.006119   |   0.0 |  0.04
Comm    | 0.33057    | 0.33057    | 0.33057    |   0.0 |  1.95
Output  | 0.094999   | 0.094999   | 0.094999   |   0.0 |  0.56
Modify  | 1.4671     | 1.4671     | 1.4671     |   0.0 |  8.67
Other   |            | 0.265      |            |       |  1.57

Nlocal:        10.0000 ave          10 max          10 min
Histogram: 1 0 0 0 0 0 0 0 0 0
Nghost:         0.00000 ave           0 max           0 min
Histogram: 1 0 0 0 0 0 0 0 0 0
Neighs:        37.0000 ave          37 max          37 min
Histogram: 1 0 0 0 0 0 0 0 0 0

Total # of neighbors = 37
Ave neighs/atom = 3.7000000
Ave special neighs/atom = 3.6000000
Neighbor list builds = 1000
Dangerous builds = 0

write_data last_config.${number}.* nocoeff
write_data last_config.3.* nocoeff
System init for write_data ...
#write_restart last_config.${number}.*
Total wall time: 0:00:16
