LAMMPS (27 May 2021)
variable number	equal 3
variable ofreq	equal 1000
variable efreq	equal 1000
variable T      equal 0.1
variable rhos   equal 0.2

units lj

dimension 3

newton off

boundary  p p p

atom_style hybrid bond ellipsoid oxdna
WARNING: Atom style hybrid defines both, per-type and per-atom masses; both must be set, but only per-atom masses will be used (../atom_vec_hybrid.cpp:157)
atom_modify sort 0 1.0

# Pair interactions require lists of neighbours to be calculated
neighbor 2.0 bin
neigh_modify every 1 delay 0 check yes

read_data data.duplex3
Reading data file ...
  orthogonal box = (-20.000000 -20.000000 -20.000000) to (20.000000 20.000000 20.000000)
  1 by 1 by 1 MPI processor grid
  reading atoms ...
  10 atoms
  reading velocities ...
  10 velocities
  scanning bonds ...
  2 = max bonds/atom
  10 ellipsoids
  reading bonds ...
  8 bonds
Finding 1-2 1-3 1-4 neighbors ...
  special bond factors lj:    0        0        0       
  special bond factors coul:  0        0        0       
     2 = max # of 1-2 neighbors
     2 = max # of 1-3 neighbors
     2 = max # of 1-4 neighbors
     4 = max # of special neighbors
  special bonds CPU = 0.000 seconds
  read_data CPU = 0.003 seconds

set atom * mass 1.0
Setting atom values ...
  10 settings made for mass

group all type 1 4
10 atoms in group all

# oxDNA2 bond interactions - FENE backbone
bond_style oxdna2/fene
bond_coeff * 2.0 0.25 0.7564
special_bonds lj 0 1 1
Finding 1-2 1-3 1-4 neighbors ...
  special bond factors lj:    0        1        1       
  special bond factors coul:  0        0        0       
     2 = max # of 1-2 neighbors
     2 = max # of 1-3 neighbors
     2 = max # of 1-4 neighbors
     4 = max # of special neighbors
  special bonds CPU = 0.000 seconds

# oxDNA2 pair interactions
pair_style hybrid/overlay oxdna2/excv oxdna2/stk oxdna2/hbond oxdna2/xstk oxdna2/coaxstk oxdna2/dh
pair_coeff * * oxdna2/excv    2.0 0.7 0.675 2.0 0.515 0.5 2.0 0.33 0.32
pair_coeff * * oxdna2/stk     seqdep ${T} 1.3523 2.6717 6.0 0.4 0.9 0.32 0.75 1.3 0 0.8 0.9 0 0.95 0.9 0 0.95 2.0 0.65 2.0 0.65
pair_coeff * * oxdna2/stk     seqdep 0.1 1.3523 2.6717 6.0 0.4 0.9 0.32 0.75 1.3 0 0.8 0.9 0 0.95 0.9 0 0.95 2.0 0.65 2.0 0.65
pair_coeff * * oxdna2/hbond   seqdep 0.0 8.0 0.4 0.75 0.34 0.7 1.5 0 0.7 1.5 0 0.7 1.5 0 0.7 0.46 3.141592653589793 0.7 4.0 1.5707963267948966 0.45 4.0 1.5707963267948966 0.45
pair_coeff 1 4 oxdna2/hbond   seqdep 1.0678 8.0 0.4 0.75 0.34 0.7 1.5 0 0.7 1.5 0 0.7 1.5 0 0.7 0.46 3.141592653589793 0.7 4.0 1.5707963267948966 0.45 4.0 1.5707963267948966 0.45
pair_coeff 2 3 oxdna2/hbond   seqdep 1.0678 8.0 0.4 0.75 0.34 0.7 1.5 0 0.7 1.5 0 0.7 1.5 0 0.7 0.46 3.141592653589793 0.7 4.0 1.5707963267948966 0.45 4.0 1.5707963267948966 0.45
pair_coeff * * oxdna2/xstk    47.5 0.575 0.675 0.495 0.655 2.25 0.791592653589793 0.58 1.7 1.0 0.68 1.7 1.0 0.68 1.5 0 0.65 1.7 0.875 0.68 1.7 0.875 0.68
pair_coeff * * oxdna2/coaxstk 58.5 0.4 0.6 0.22 0.58 2.0 2.891592653589793 0.65 1.3 0 0.8 0.9 0 0.95 0.9 0 0.95 40.0 3.116592653589793
pair_coeff * * oxdna2/dh      ${T} ${rhos} 0.815
pair_coeff * * oxdna2/dh      0.1 ${rhos} 0.815
pair_coeff * * oxdna2/dh      0.1 0.2 0.815

# NVE ensemble
fix 1 all nve/asphere
#fix 2 all langevin ${T} ${T} 2.5 457145 angmom 10

timestep 1e-5

#comm_style tiled
fix 3 all balance 1000 1.03 shift xyz 10 1.03
comm_modify cutoff 3.8

compute quat all property/atom quatw quati quatj quatk

compute erot all erotate/asphere
compute ekin all ke
compute epot all pe
variable erot equal c_erot
variable ekin equal c_ekin
variable epot equal c_epot
variable etot equal c_erot+c_ekin+c_epot
fix 5 all print ${efreq} "$(step)  ekin = ${ekin} |  erot = ${erot} | epot = ${epot} | etot = ${etot}" screen yes
fix 5 all print 1000 "$(step)  ekin = ${ekin} |  erot = ${erot} | epot = ${epot} | etot = ${etot}" screen yes

dump out all custom ${ofreq} out.${number}.lammpstrj id mol type x y z ix iy iz vx vy vz c_quat[1] c_quat[2] c_quat[3] c_quat[4] angmomx angmomy angmomz
dump out all custom 1000 out.${number}.lammpstrj id mol type x y z ix iy iz vx vy vz c_quat[1] c_quat[2] c_quat[3] c_quat[4] angmomx angmomy angmomz
dump out all custom 1000 out.3.lammpstrj id mol type x y z ix iy iz vx vy vz c_quat[1] c_quat[2] c_quat[3] c_quat[4] angmomx angmomy angmomz
dump_modify out sort id
dump_modify out format line "%d %d %d  %22.15le %22.15le %22.15le  %d %d %d  %22.15le %22.15le %22.15le  %22.15le %22.15le %22.15le %22.15le  %22.15le %22.15le %22.15le"

run 1000000
Neighbor list info ...
  update every 1 steps, delay 0 steps, check yes
  max neighbors/atom: 2000, page size: 100000
  master list distance cutoff = 5.6389877
  ghost atom cutoff = 5.6389877
  binsize = 2.8194939, bins = 15 15 15
  5 neighbor lists, perpetual/occasional/extra = 5 0 0
  (1) pair oxdna2/excv, perpetual
      attributes: half, newton off
      pair build: half/bin/newtoff
      stencil: full/bin/3d
      bin: standard
  (2) pair oxdna2/hbond, perpetual, copy from (1)
      attributes: half, newton off
      pair build: copy
      stencil: none
      bin: none
  (3) pair oxdna2/xstk, perpetual, copy from (1)
      attributes: half, newton off
      pair build: copy
      stencil: none
      bin: none
  (4) pair oxdna2/coaxstk, perpetual, copy from (1)
      attributes: half, newton off
      pair build: copy
      stencil: none
      bin: none
  (5) pair oxdna2/dh, perpetual, copy from (1)
      attributes: half, newton off
      pair build: copy
      stencil: none
      bin: none
WARNING: Communication cutoff adjusted to 5.638987723814632 (../comm.cpp:739)
0  ekin = 1.18025158324274 |  erot = 2.17908479136507 | epot = -11.4931199991265 | etot = -8.13378362451864
Per MPI rank memory allocation (min/avg/max) = 9.448 | 9.448 | 9.448 Mbytes
Step Temp E_pair E_mol TotEng Press Volume 
       0  0.087426043   -1.2259004  0.076588446   -1.0312868 -7.7802026e-06        64000 
1000  ekin = 1.08696491147664 |  erot = 2.23197650714075 | epot = -11.4527250425129 | etot = -8.13378362389549
2000  ekin = 1.01265115460252 |  erot = 2.29132031278141 | epot = -11.4377550908151 | etot = -8.13378362343119
3000  ekin = 0.964951920610361 |  erot = 2.35614244814783 | epot = -11.4548779921653 | etot = -8.13378362340706
4000  ekin = 0.945861179227109 |  erot = 2.42482489276794 | epot = -11.504469695762 | etot = -8.13378362376699
5000  ekin = 0.952186940161594 |  erot = 2.49508744948287 | epot = -11.5810580140496 | etot = -8.13378362440513
6000  ekin = 0.976836955567338 |  erot = 2.56435791368456 | epot = -11.6749784943528 | etot = -8.1337836251009
7000  ekin = 1.01151727363105 |  erot = 2.63034980765842 | epot = -11.7756507069156 | etot = -8.13378362562613
8000  ekin = 1.04963768886897 |  erot = 2.69159648304405 | epot = -11.8750177977506 | etot = -8.13378362583758
9000  ekin = 1.08831406483925 |  erot = 2.74768757650641 | epot = -11.9697852671577 | etot = -8.133783625812
10000  ekin = 1.12769894654433 |  erot = 2.79881902231422 | epot = -12.0603015945014 | etot = -8.13378362564289
11000  ekin = 1.16997706279096 |  erot = 2.84539220453504 | epot = -12.1491528928086 | etot = -8.13378362548262
12000  ekin = 1.21772825403563 |  erot = 2.88753582693543 | epot = -12.2390477064186 | etot = -8.13378362544753
13000  ekin = 1.2724727764863 |  erot = 2.92478423931379 | epot = -12.3310406413901 | etot = -8.13378362559001
14000  ekin = 1.33384628320073 |  erot = 2.95599632290764 | epot = -12.4236262320191 | etot = -8.13378362591071
15000  ekin = 1.39936071611664 |  erot = 2.97947113417335 | epot = -12.512615476685 | etot = -8.13378362639499
16000  ekin = 1.46443870928024 |  erot = 2.99312358077433 | epot = -12.5913459174139 | etot = -8.13378362735931
17000  ekin = 1.52113741921509 |  erot = 2.9943026010584 | epot = -12.6492236482456 | etot = -8.13378362797207
18000  ekin = 1.56143918576787 |  erot = 2.98098620608849 | epot = -12.6762090203242 | etot = -8.13378362846781
19000  ekin = 1.57873438318794 |  erot = 2.95206674454563 | epot = -12.6645847564923 | etot = -8.13378362875874
20000  ekin = 1.56841348053791 |  erot = 2.90735147312963 | epot = -12.6095485824455 | etot = -8.133783628778
21000  ekin = 1.52886464109308 |  erot = 2.84765291368983 | epot = -12.5103011832753 | etot = -8.13378362849243
22000  ekin = 1.46209217703488 |  erot = 2.77478397647202 | epot = -12.3706597813886 | etot = -8.13378362788172
23000  ekin = 1.37376733102673 |  erot = 2.6915572831373 | epot = -12.1991082412398 | etot = -8.13378362707573
24000  ekin = 1.27262109890791 |  erot = 2.60118350194759 | epot = -12.0075882269997 | etot = -8.13378362614423
25000  ekin = 1.16926502294375 |  erot = 2.50703692695192 | epot = -11.8100855751042 | etot = -8.13378362520853
26000  ekin = 1.0747148994514 |  erot = 2.41235840152815 | epot = -11.6208569253572 | etot = -8.13378362437762
27000  ekin = 0.998982995755809 |  erot = 2.31997753232677 | epot = -11.4527441518066 | etot = -8.13378362372405
28000  ekin = 0.950065052892319 |  erot = 2.23215621537589 | epot = -11.3160048915417 | etot = -8.13378362327347
29000  ekin = 0.933483801722587 |  erot = 2.15056100102976 | epot = -11.2178284257646 | etot = -8.13378362301223
30000  ekin = 0.95233516433604 |  erot = 2.07633501131224 | epot = -11.1624537985557 | etot = -8.13378362290739
31000  ekin = 1.00761822011315 |  erot = 2.01025995539434 | epot = -11.1516617984317 | etot = -8.13378362292424
32000  ekin = 1.09859027316477 |  erot = 1.95287201474931 | epot = -11.1852459109706 | etot = -8.13378362305649
33000  ekin = 1.2229634825769 |  erot = 1.90442653272443 | epot = -11.2611736386122 | etot = -8.13378362331086
34000  ekin = 1.37683793249577 |  erot = 1.8649833610543 | epot = -11.3756049172808 | etot = -8.13378362373071
35000  ekin = 1.55422271443449 |  erot = 1.83436013830191 | epot = -11.5223664771471 | etot = -8.13378362441069
36000  ekin = 1.74589607048132 |  erot = 1.81205442227464 | epot = -11.6917341182485 | etot = -8.13378362549252
37000  ekin = 1.93777565280851 |  erot = 1.79705197600549 | epot = -11.8686112558399 | etot = -8.13378362702594
38000  ekin = 2.11051089015034 |  erot = 1.78782890330234 | epot = -12.0321234221666 | etot = -8.13378362871392
39000  ekin = 2.24321482588503 |  erot = 1.78271510837231 | epot = -12.1597135641243 | etot = -8.133783629867
40000  ekin = 2.32146151921639 |  erot = 1.78073283005123 | epot = -12.2359779791646 | etot = -8.13378362989703
41000  ekin = 2.34386750101386 |  erot = 1.78241563043111 | epot = -12.2600667603297 | etot = -8.13378362888477
42000  ekin = 2.32118218527095 |  erot = 1.78979050959074 | epot = -12.2447563223397 | etot = -8.133783627478
43000  ekin = 2.26309111555158 |  erot = 1.80539262076469 | epot = -12.2022673943963 | etot = -8.13378365808002
44000  ekin = 2.15856242114831 |  erot = 1.84609032619602 | epot = -12.1384363880306 | etot = -8.13378364068628
45000  ekin = 2.08936731003525 |  erot = 1.88904724563036 | epot = -12.1121981822921 | etot = -8.13378362662651
46000  ekin = 1.9964611597006 |  erot = 1.93503982400423 | epot = -12.0652846104764 | etot = -8.13378362677155
47000  ekin = 1.89712577412051 |  erot = 1.98806984898582 | epot = -12.0189792501525 | etot = -8.13378362704613
48000  ekin = 1.79036864863104 |  erot = 2.04496273496233 | epot = -11.9691150108767 | etot = -8.13378362728334
49000  ekin = 1.67630116263937 |  erot = 2.10216327906907 | epot = -11.9122480690704 | etot = -8.13378362736196
50000  ekin = 1.55727015247065 |  erot = 2.15637892895979 | epot = -11.8474327086503 | etot = -8.13378362721984
51000  ekin = 1.43817433709145 |  erot = 2.20514040032694 | epot = -11.7770983642843 | etot = -8.13378362686593
52000  ekin = 1.32596547232174 |  erot = 2.24710946475006 | epot = -11.7068585634503 | etot = -8.13378362637853
53000  ekin = 1.22848082922914 |  erot = 2.2820475921038 | epot = -11.6443120472107 | etot = -8.13378362587772
54000  ekin = 1.15295119316271 |  erot = 2.31049933939888 | epot = -11.5972341580451 | etot = -8.13378362548352
55000  ekin = 1.10463170766328 |  erot = 2.33334681406839 | epot = -11.5717621470129 | etot = -8.13378362528126
56000  ekin = 1.08590799517335 |  erot = 2.35139880092329 | epot = -11.5710904214036 | etot = -8.133783625307
57000  ekin = 1.09599893485501 |  erot = 2.36511154450529 | epot = -11.5948941049137 | etot = -8.13378362555341
58000  ekin = 1.13119803471017 |  erot = 2.37445830578815 | epot = -11.6394399664723 | etot = -8.13378362597402
59000  ekin = 1.18549837183919 |  erot = 2.37891691863231 | epot = -11.6981989169902 | etot = -8.13378362651871
60000  ekin = 1.25136230662771 |  erot = 2.37755306615247 | epot = -11.7626989998987 | etot = -8.1337836271185
61000  ekin = 1.32065657328812 |  erot = 2.3691782337931 | epot = -11.8236184347914 | etot = -8.13378362771016
62000  ekin = 1.38555350991078 |  erot = 2.35258911579052 | epot = -11.871926253894 | etot = -8.13378362819273
63000  ekin = 1.43966787267656 |  erot = 2.32682848519596 | epot = -11.900279986355 | etot = -8.13378362848243
64000  ekin = 1.47909503438177 |  erot = 2.29144993715397 | epot = -11.904328600069 | etot = -8.13378362853329
65000  ekin = 1.50288049774097 |  erot = 2.24670960905114 | epot = -11.8833737351501 | etot = -8.13378362835798
66000  ekin = 1.5127450759902 |  erot = 2.19359684183 | epot = -11.8401255458509 | etot = -8.13378362803075
67000  ekin = 1.51208659633015 |  erot = 2.13371356874813 | epot = -11.7795837927184 | etot = -8.13378362764017
68000  ekin = 1.50462166617945 |  erot = 2.06904733139784 | epot = -11.7074526249093 | etot = -8.13378362733203
69000  ekin = 1.49293889166151 |  erot = 2.00167765430527 | epot = -11.6284001731037 | etot = -8.13378362713692
70000  ekin = 1.47793621174634 |  erot = 1.93361210060374 | epot = -11.5453319394055 | etot = -8.13378362705547
71000  ekin = 1.45891349102838 |  erot = 1.86670994694699 | epot = -11.4594070650146 | etot = -8.13378362703923
72000  ekin = 1.43427842101615 |  erot = 1.80270883809022 | epot = -11.3707708861216 | etot = -8.13378362701521
73000  ekin = 1.40258583891021 |  erot = 1.74331039193092 | epot = -11.2796798577521 | etot = -8.13378362691097
74000  ekin = 1.36359371155269 |  erot = 1.69025647754919 | epot = -11.1876338157821 | etot = -8.13378362668024
75000  ekin = 1.31886252565201 |  erot = 1.64533820718028 | epot = -11.0979843591716 | etot = -8.13378362633934
76000  ekin = 1.27181692773741 |  erot = 1.61030043593592 | epot = -11.0159009896013 | etot = -8.13378362592798
77000  ekin = 1.22767338921994 |  erot = 1.58670952555608 | epot = -10.9481665402833 | etot = -8.1337836255073
78000  ekin = 1.19187425881965 |  erot = 1.57555521121131 | epot = -10.9012130952116 | etot = -8.13378362518063
79000  ekin = 1.16922470588817 |  erot = 1.5771660153409 | epot = -10.8801743462041 | etot = -8.133783624975
80000  ekin = 1.16351312193735 |  erot = 1.59112852775418 | epot = -10.8884252746035 | etot = -8.13378362491193
81000  ekin = 1.17709123428941 |  erot = 1.61633850893096 | epot = -10.9272133682121 | etot = -8.1337836249917
82000  ekin = 1.21064005584025 |  erot = 1.65118762576695 | epot = -10.9956113068161 | etot = -8.13378362520889
83000  ekin = 1.26297331742732 |  erot = 1.69382675572848 | epot = -11.0905836987108 | etot = -8.13378362555503
84000  ekin = 1.33092648687658 |  erot = 1.74243133123673 | epot = -11.2071414441142 | etot = -8.13378362600085
85000  ekin = 1.40961218427362 |  erot = 1.7954064033782 | epot = -11.3388022141303 | etot = -8.13378362647843
86000  ekin = 1.49330005467921 |  erot = 1.85150064414008 | epot = -11.478584325705 | etot = -8.13378362688575
87000  ekin = 1.57653380716702 |  erot = 1.90982169886824 | epot = -11.6201391333936 | etot = -8.13378362735836
88000  ekin = 1.65416408678856 |  erot = 1.96971725895481 | epot = -11.7576649732582 | etot = -8.13378362751481
89000  ekin = 1.72360216634181 |  erot = 2.03055934337529 | epot = -11.8879451373045 | etot = -8.1337836275874
90000  ekin = 1.785009845894 |  erot = 2.09126219979601 | epot = -12.0100556734362 | etot = -8.13378362774622
91000  ekin = 1.83789001415892 |  erot = 2.15001837237356 | epot = -12.1216920145417 | etot = -8.13378362800922
92000  ekin = 1.87517809322897 |  erot = 2.20985483887517 | epot = -12.21881656028 | etot = -8.1337836281759
93000  ekin = 1.90356384535099 |  erot = 2.26204903047949 | epot = -12.2993965046575 | etot = -8.13378362882701
94000  ekin = 1.91566641673062 |  erot = 2.30892488078268 | epot = -12.3583749263608 | etot = -8.13378362884745
95000  ekin = 1.9109576938402 |  erot = 2.34997522029996 | epot = -12.3947165431007 | etot = -8.13378362896051
96000  ekin = 1.88948402498914 |  erot = 2.38411475951057 | epot = -12.4073824132803 | etot = -8.13378362878061
97000  ekin = 1.85343811133912 |  erot = 2.4113304629222 | epot = -12.3985522027163 | etot = -8.13378362845495
98000  ekin = 1.8068427523029 |  erot = 2.43203206054824 | epot = -12.3726584408911 | etot = -8.13378362803995
99000  ekin = 1.75478641123191 |  erot = 2.44692977736841 | epot = -12.3354998162068 | etot = -8.13378362760648
100000  ekin = 1.69590911435714 |  erot = 2.45386958409525 | epot = -12.2835623848859 | etot = -8.1337836864335
101000  ekin = 1.68113249375248 |  erot = 2.36572534112453 | epot = -12.1806414642139 | etot = -8.13378362933689
102000  ekin = 1.7267856590017 |  erot = 2.35051337712499 | epot = -12.2110826965905 | etot = -8.13378366046378
103000  ekin = 1.68338599487705 |  erot = 2.35411811039604 | epot = -12.1712877656948 | etot = -8.13378366042173
104000  ekin = 1.64323586412853 |  erot = 2.35701648102718 | epot = -12.1340360056519 | etot = -8.13378366049622
105000  ekin = 1.60584113472054 |  erot = 2.35932964102246 | epot = -12.0989544363531 | etot = -8.1337836606101
106000  ekin = 1.57044138011807 |  erot = 2.36092776943221 | epot = -12.0651528102264 | etot = -8.13378366067613
107000  ekin = 1.53705400250973 |  erot = 2.36166253248191 | epot = -12.0325001956581 | etot = -8.13378366066648
108000  ekin = 1.50696391591126 |  erot = 2.3612855734919 | epot = -12.0020331499846 | etot = -8.13378366058145
109000  ekin = 1.48244426546657 |  erot = 2.35938088270994 | epot = -11.9756088087053 | etot = -8.13378366052874
110000  ekin = 1.46539913148075 |  erot = 2.35530683146149 | epot = -11.9544896235796 | etot = -8.13378366063734
111000  ekin = 1.45548748017616 |  erot = 2.34818065606081 | epot = -11.9374517972408 | etot = -8.13378366100382
112000  ekin = 1.44872729612952 |  erot = 2.3369554826694 | epot = -11.9194664403751 | etot = -8.13378366157621
113000  ekin = 1.43805495586496 |  erot = 2.32068695509389 | epot = -11.8925255730876 | etot = -8.13378366212871
114000  ekin = 1.41640788690877 |  erot = 2.29883886662103 | epot = -11.8490304158909 | etot = -8.13378366236113
115000  ekin = 1.3806378182208 |  erot = 2.27153218573294 | epot = -11.7859536655159 | etot = -8.13378366156219
116000  ekin = 1.3363054030841 |  erot = 2.23942220246119 | epot = -11.7095112666475 | etot = -8.13378366110222
117000  ekin = 1.29001229198302 |  erot = 2.20380811829898 | epot = -11.6276040708683 | etot = -8.13378366058632
118000  ekin = 1.2471154883471 |  erot = 2.16635124019895 | epot = -11.5472503887776 | etot = -8.13378366023153
119000  ekin = 1.21073685469415 |  erot = 2.12872161390258 | epot = -11.4732421286711 | etot = -8.13378366007441
120000  ekin = 1.18115748419429 |  erot = 2.09256534610061 | epot = -11.40750649033 | etot = -8.13378366003514
121000  ekin = 1.15688642101082 |  erot = 2.05947511288391 | epot = -11.3501451939309 | etot = -8.13378366003619
122000  ekin = 1.13593168276749 |  erot = 2.03084061403901 | epot = -11.3005559568652 | etot = -8.13378366005868
123000  ekin = 1.11638811965923 |  erot = 2.00761097209058 | epot = -11.2577827519199 | etot = -8.13378366017012
124000  ekin = 1.09616325371727 |  erot = 1.99019695902073 | epot = -11.2201438730112 | etot = -8.13378366027324
125000  ekin = 1.07358508996122 |  erot = 1.97820026039366 | epot = -11.1855690107827 | etot = -8.13378366042782
126000  ekin = 1.04712198978498 |  erot = 1.9703093700724 | epot = -11.1512150205173 | etot = -8.1337836606599
127000  ekin = 1.01560359550538 |  erot = 1.96476336054353 | epot = -11.1141506168026 | etot = -8.13378366075366
128000  ekin = 0.979281846652461 |  erot = 1.95990906194967 | epot = -11.0729745693076 | etot = -8.13378366070543
129000  ekin = 0.940294043230153 |  erot = 1.95428772921574 | epot = -11.0283654329015 | etot = -8.1337836604556
130000  ekin = 0.902735823607613 |  erot = 1.94710047764783 | epot = -10.9836199613556 | etot = -8.13378366010013
131000  ekin = 0.872329759140091 |  erot = 1.93820575526851 | epot = -10.9443191739575 | etot = -8.13378365954893
132000  ekin = 0.855045600562661 |  erot = 1.92803271303708 | epot = -10.91686197287 | etot = -8.13378365927029
133000  ekin = 0.854775562822957 |  erot = 1.91694878880986 | epot = -10.9055080107091 | etot = -8.13378365907624
134000  ekin = 0.873981086379292 |  erot = 1.90549522489472 | epot = -10.9132599702538 | etot = -8.13378365897974
135000  ekin = 0.913690181742145 |  erot = 1.89429118508536 | epot = -10.9417650257947 | etot = -8.13378365896716
136000  ekin = 0.973734451665867 |  erot = 1.88395321784255 | epot = -10.9914713285358 | etot = -8.13378365902736
137000  ekin = 1.05255313135959 |  erot = 1.87488800080386 | epot = -11.061224792006 | etot = -8.13378365984251
138000  ekin = 1.14435249948545 |  erot = 1.8662689721206 | epot = -11.1444051316855 | etot = -8.13378366007948
139000  ekin = 1.24448357091338 |  erot = 1.8582143500676 | epot = -11.2364815813236 | etot = -8.13378366034262
140000  ekin = 1.34860347563747 |  erot = 1.85113522079124 | epot = -11.3335223570932 | etot = -8.1337836606645
141000  ekin = 1.45162669266304 |  erot = 1.84534635451925 | epot = -11.430756708267 | etot = -8.13378366108474
142000  ekin = 1.54663919844502 |  erot = 1.84103156950906 | epot = -11.5214544297491 | etot = -8.13378366179501
143000  ekin = 1.62470110239408 |  erot = 1.83813053702609 | epot = -11.5966153018864 | etot = -8.13378366246618
144000  ekin = 1.67710589256287 |  erot = 1.83622813336409 | epot = -11.6471176890259 | etot = -8.13378366309898
145000  ekin = 1.69650852159047 |  erot = 1.83477115527449 | epot = -11.6650633403349 | etot = -8.13378366346991
146000  ekin = 1.6799825027065 |  erot = 1.83334306418678 | epot = -11.6471092301924 | etot = -8.13378366329909
147000  ekin = 1.63255928725504 |  erot = 1.83204496822992 | epot = -11.5983879178782 | etot = -8.13378366239327
148000  ekin = 1.56926257377443 |  erot = 1.83182914755782 | epot = -11.5348753821883 | etot = -8.13378366085607
149000  ekin = 1.5130082497773 |  erot = 1.8345272799431 | epot = -11.4813191889253 | etot = -8.13378365920492
150000  ekin = 1.4872496378471 |  erot = 1.84235837448555 | epot = -11.4633916705174 | etot = -8.1337836581848
151000  ekin = 1.50619323822985 |  erot = 1.85697474829955 | epot = -11.4969516448356 | etot = -8.13378365830622
152000  ekin = 1.56855992602591 |  erot = 1.8784728263849 | epot = -11.5808164119014 | etot = -8.1337836594906
153000  ekin = 1.659144896466 |  erot = 1.90493735115907 | epot = -11.6978659087716 | etot = -8.13378366114655
154000  ekin = 1.75680978950758 |  erot = 1.93282846213553 | epot = -11.8234219142217 | etot = -8.1337836625786
155000  ekin = 1.84344901658449 |  erot = 1.95802697046832 | epot = -11.9352596504334 | etot = -8.13378366338056
156000  ekin = 1.90893795388443 |  erot = 1.97697594926066 | epot = -12.0196975667215 | etot = -8.13378366357642
157000  ekin = 1.95061494385923 |  erot = 1.98738512433497 | epot = -12.0717837316312 | etot = -8.13378366343705
158000  ekin = 1.96976178337713 |  erot = 1.98837447181473 | epot = -12.0919199183611 | etot = -8.13378366316927
159000  ekin = 1.96892634677231 |  erot = 1.98033790354813 | epot = -12.0830479131017 | etot = -8.13378366278126
160000  ekin = 1.9516760180595 |  erot = 1.96478101829957 | epot = -12.050240698581 | etot = -8.13378366222189
161000  ekin = 1.92323849263791 |  erot = 1.94408396543495 | epot = -12.001106119617 | etot = -8.13378366154412
162000  ekin = 1.89012785139911 |  erot = 1.92106669306923 | epot = -11.9449782053599 | etot = -8.13378366089159
163000  ekin = 1.85873206626373 |  erot = 1.89844726529898 | epot = -11.8909629919524 | etot = -8.13378366038965
164000  ekin = 1.83396756863943 |  erot = 1.87841814938186 | epot = -11.8461693781076 | etot = -8.13378366008633
165000  ekin = 1.81873657814088 |  erot = 1.86247026312249 | epot = -11.8149905012201 | etot = -8.13378365995669
166000  ekin = 1.81415764355322 |  erot = 1.85144128795253 | epot = -11.7993825914514 | etot = -8.1337836599456
167000  ekin = 1.82014338462818 |  erot = 1.84569577974688 | epot = -11.7996228243663 | etot = -8.1337836599912
168000  ekin = 1.83604973591334 |  erot = 1.84534918673525 | epot = -11.8151825826932 | etot = -8.13378366004457
169000  ekin = 1.86118807804032 |  erot = 1.85047766429904 | epot = -11.8454494024153 | etot = -8.13378366007595
170000  ekin = 1.89508209492126 |  erot = 1.86127600745024 | epot = -11.8901417624553 | etot = -8.13378366008384
171000  ekin = 1.93739070093814 |  erot = 1.87813927221141 | epot = -11.9493136332464 | etot = -8.13378366009684
172000  ekin = 1.98746465492706 |  erot = 1.90165699566163 | epot = -12.0229053107602 | etot = -8.13378366017153
173000  ekin = 2.04358732260736 |  erot = 1.93252470914458 | epot = -12.1098956921179 | etot = -8.13378366036599
174000  ekin = 2.10212586880692 |  erot = 1.9713911136612 | epot = -12.2073006432561 | etot = -8.13378366078798
175000  ekin = 2.15653164019911 |  erot = 2.01868623997432 | epot = -12.3090015416377 | etot = -8.13378366146426
176000  ekin = 2.19700590631317 |  erot = 2.07444517694542 | epot = -12.4052347456347 | etot = -8.13378366237607
177000  ekin = 2.21275117726748 |  erot = 2.13809655452265 | epot = -12.4846313951108 | etot = -8.13378366332064
178000  ekin = 2.19103084137816 |  erot = 2.20849637361836 | epot = -12.5333108794522 | etot = -8.13378366445569
179000  ekin = 2.0500295875572 |  erot = 2.27647492405869 | epot = -12.4602881626278 | etot = -8.13378365101191
180000  ekin = 2.00100366281084 |  erot = 2.36086155180544 | epot = -12.49564888609 | etot = -8.13378367147368
181000  ekin = 1.82885344502819 |  erot = 2.44444025932702 | epot = -12.4070773745337 | etot = -8.13378367017847
182000  ekin = 1.62724610560594 |  erot = 2.53221325513872 | epot = -12.2932430288217 | etot = -8.13378366807706
183000  ekin = 1.42880501135671 |  erot = 2.62540058534349 | epot = -12.1879892625419 | etot = -8.13378366584172
184000  ekin = 1.26714962832124 |  erot = 2.72561981850446 | epot = -12.1265531111181 | etot = -8.13378366429242
185000  ekin = 1.16606552757969 |  erot = 2.83366450732262 | epot = -12.1335136988422 | etot = -8.13378366393991
186000  ekin = 1.13327188784896 |  erot = 2.94811459460546 | epot = -12.2151701472116 | etot = -8.13378366475722
187000  ekin = 1.16127663962576 |  erot = 3.06454091657731 | epot = -12.3596012225475 | etot = -8.13378366634445
188000  ekin = 1.23275799228642 |  erot = 3.17578119614188 | epot = -12.5423228566629 | etot = -8.13378366823461
189000  ekin = 1.32637276316072 |  erot = 3.27316596760526 | epot = -12.7333224008237 | etot = -8.13378367005767
190000  ekin = 1.42100795808807 |  erot = 3.34817980173637 | epot = -12.9029714313702 | etot = -8.13378367154575
191000  ekin = 1.49794111549843 |  erot = 3.39410379075346 | epot = -13.0258285788618 | etot = -8.13378367260988
192000  ekin = 1.54262156679656 |  erot = 3.4072016542923 | epot = -13.0836068940668 | etot = -8.13378367297795
193000  ekin = 1.54797240883502 |  erot = 3.38715231466146 | epot = -13.0689083961198 | etot = -8.13378367262328
194000  ekin = 1.51467582661458 |  erot = 3.33705387754744 | epot = -12.9855133757564 | etot = -8.13378367159443
195000  ekin = 1.45101621748247 |  erot = 3.2626931288523 | epot = -12.8474930164474 | etot = -8.13378367011261
196000  ekin = 1.37083042970781 |  erot = 3.17132041678911 | epot = -12.6759345150009 | etot = -8.13378366850402
197000  ekin = 1.29009120536726 |  erot = 3.070362659358 | epot = -12.4942375317752 | etot = -8.13378366704997
198000  ekin = 1.22364196643961 |  erot = 2.96652382643999 | epot = -12.3239494587833 | etot = -8.13378366590366
199000  ekin = 1.18307710083256 |  erot = 2.86542144217758 | epot = -12.1822822081301 | etot = -8.13378366511998
200000  ekin = 1.17564340951927 |  erot = 2.77158698378744 | epot = -12.0810140580301 | etot = -8.13378366472343
201000  ekin = 1.20359619391753 |  erot = 2.68856918537176 | epot = -12.0259490440297 | etot = -8.13378366474036
202000  ekin = 1.26374726413799 |  erot = 2.61894189740052 | epot = -12.0164728267167 | etot = -8.13378366517818
203000  ekin = 1.34751597563128 |  erot = 2.56419616426444 | epot = -12.0454958058709 | etot = -8.13378366597521
204000  ekin = 1.44203337890014 |  erot = 2.52468734318922 | epot = -12.1005043890645 | etot = -8.13378366697514
205000  ekin = 1.53246038205369 |  erot = 2.49972903140502 | epot = -12.1659730814068 | etot = -8.13378366794806
206000  ekin = 1.60510558525686 |  erot = 2.48793425280268 | epot = -12.226823506722 | etot = -8.13378366866246
207000  ekin = 1.6503955672318 |  erot = 2.48771410987726 | epot = -12.2718933460774 | etot = -8.13378366896831
208000  ekin = 1.6647192426388 |  erot = 2.49772662877186 | epot = -12.2962295402584 | etot = -8.13378366884771
209000  ekin = 1.65060780281985 |  erot = 2.51706178773876 | epot = -12.3014532589741 | etot = -8.13378366841553
210000  ekin = 1.6152961353015 |  erot = 2.54506818372093 | epot = -12.2941479869023 | etot = -8.13378366787986
211000  ekin = 1.56815998339941 |  erot = 2.58088870847273 | epot = -12.2828323593492 | etot = -8.1337836674771
212000  ekin = 1.51779769211966 |  erot = 2.62289115839993 | epot = -12.2744725179132 | etot = -8.13378366739362
213000  ekin = 1.46970697786411 |  erot = 2.66822787294319 | epot = -12.2717185184984 | etot = -8.13378366769114
214000  ekin = 1.42551121611936 |  erot = 2.71271314915558 | epot = -12.2720080334461 | etot = -8.1337836681712
215000  ekin = 1.38449526701769 |  erot = 2.75113858809828 | epot = -12.2694175238335 | etot = -8.13378366871751
216000  ekin = 1.34611450510656 |  erot = 2.77818905444611 | epot = -12.2580872284511 | etot = -8.13378366889838
217000  ekin = 1.31348152811926 |  erot = 2.7896405318765 | epot = -12.2369057285547 | etot = -8.13378366855898
218000  ekin = 1.29458639919466 |  erot = 2.78319145109127 | epot = -12.2115615182389 | etot = -8.13378366795296
219000  ekin = 1.29978448123113 |  erot = 2.75785865494217 | epot = -12.1914268036072 | etot = -8.13378366743386
220000  ekin = 1.33694784981763 |  erot = 2.7136363430195 | epot = -12.1843678601775 | etot = -8.13378366734035
221000  ekin = 1.40745643921106 |  erot = 2.65092088134252 | epot = -12.1921609882712 | etot = -8.13378366771763
222000  ekin = 1.50572252625996 |  erot = 2.57029476952272 | epot = -12.2098009641037 | etot = -8.13378366832102
223000  ekin = 1.62210843375796 |  erot = 2.47289007334085 | epot = -12.2287821759282 | etot = -8.13378366882936
224000  ekin = 1.74679393022953 |  erot = 2.36097135919324 | epot = -12.2415489584554 | etot = -8.1337836690326
225000  ekin = 1.87205636329989 |  erot = 2.23842454190504 | epot = -12.2442645742133 | etot = -8.13378366900838
226000  ekin = 1.99134598106712 |  erot = 2.11064622098391 | epot = -12.2357758711293 | etot = -8.13378366907824
227000  ekin = 2.09586639151718 |  erot = 1.9836470405116 | epot = -12.2132971015581 | etot = -8.1337836695293
228000  ekin = 2.17197666667466 |  erot = 1.86293503717766 | epot = -12.1686953741912 | etot = -8.13378367033886
229000  ekin = 2.20263173192656 |  erot = 1.75265294154698 | epot = -12.0890683445905 | etot = -8.133783671117
230000  ekin = 2.17321554606928 |  erot = 1.65532359970842 | epot = -11.9623228171293 | etot = -8.13378367135164
231000  ekin = 2.07854920573229 |  erot = 1.57213281486697 | epot = -11.7844656913359 | etot = -8.13378367073669
232000  ekin = 1.92671195021964 |  erot = 1.50340464294821 | epot = -11.5639002625321 | etot = -8.13378366936424
233000  ekin = 1.73729705956061 |  erot = 1.44896834770241 | epot = -11.320049074932 | etot = -8.13378366766899
234000  ekin = 1.53556953354815 |  erot = 1.40834045937497 | epot = -11.0776936590029 | etot = -8.13378366607974
235000  ekin = 1.34558700580172 |  erot = 1.38078818073889 | epot = -10.8601588514745 | etot = -8.13378366493391
236000  ekin = 1.18525206422618 |  erot = 1.36570263210385 | epot = -10.6847383605463 | etot = -8.13378366421624
237000  ekin = 1.06637029724371 |  erot = 1.36251012102833 | epot = -10.5626640820865 | etot = -8.13378366381442
238000  ekin = 0.995491212021415 |  erot = 1.37070429771399 | epot = -10.4999791733994 | etot = -8.13378366366397
239000  ekin = 0.975031518632071 |  erot = 1.38971384126899 | epot = -10.49852902367 | etot = -8.13378366376892
240000  ekin = 1.00352423904758 |  erot = 1.4186603402425 | epot = -10.5559682434632 | etot = -8.13378366417311
241000  ekin = 1.07556704774244 |  erot = 1.45612900246834 | epot = -10.6654797151283 | etot = -8.13378366491751
242000  ekin = 1.18122375067339 |  erot = 1.49994629855496 | epot = -10.8149537152528 | etot = -8.13378366602447
243000  ekin = 1.30634294707463 |  erot = 1.54703331020089 | epot = -10.9871599246161 | etot = -8.13378366734062
244000  ekin = 1.43466609576172 |  erot = 1.59374373480244 | epot = -11.1621934990192 | etot = -8.13378366845507
245000  ekin = 1.55091944171262 |  erot = 1.63606515904662 | epot = -11.3207682704728 | etot = -8.13378366971357
246000  ekin = 1.63963426714594 |  erot = 1.67091688012747 | epot = -11.44433481791 | etot = -8.13378367063654
247000  ekin = 1.68912292676109 |  erot = 1.69643192578617 | epot = -11.5193385235868 | etot = -8.13378367103955
248000  ekin = 1.69418623366497 |  erot = 1.71223298155038 | epot = -11.5402028860522 | etot = -8.13378367083691
249000  ekin = 1.65708464249967 |  erot = 1.71943097162633 | epot = -11.5102992843205 | etot = -8.13378367019453
250000  ekin = 1.58639864685292 |  erot = 1.72015982289402 | epot = -11.4403421388607 | etot = -8.13378366911377
251000  ekin = 1.4955593640773 |  erot = 1.71716072440084 | epot = -11.3465037564424 | etot = -8.13378366796425
252000  ekin = 1.39930346630793 |  erot = 1.71298107622663 | epot = -11.2460682095263 | etot = -8.13378366699178
253000  ekin = 1.31034898359465 |  erot = 1.70949093459542 | epot = -11.1536235845406 | etot = -8.13378366635058
254000  ekin = 1.23716194123275 |  erot = 1.70776552340113 | epot = -11.0787111307323 | etot = -8.1337836660984
255000  ekin = 1.1830573384521 |  erot = 1.70821467485075 | epot = -11.0250556794499 | etot = -8.13378366614706
256000  ekin = 1.14729363432733 |  erot = 1.71063275158168 | epot = -10.9917100522905 | etot = -8.13378366638151
257000  ekin = 1.12650460108618 |  erot = 1.71454195552784 | epot = -10.9748302232638 | etot = -8.13378366664974
258000  ekin = 1.11669715917854 |  erot = 1.71938873503291 | epot = -10.9698695610653 | etot = -8.13378366685386
259000  ekin = 1.11461746403823 |  erot = 1.72463904931068 | epot = -10.973040180336 | etot = -8.13378366698711
260000  ekin = 1.11796213299236 |  erot = 1.72976096813939 | epot = -10.981506768234 | etot = -8.13378366710223
261000  ekin = 1.12495929560755 |  erot = 1.73429797646801 | epot = -10.9930409392085 | etot = -8.1337836671329
262000  ekin = 1.13415334886775 |  erot = 1.73799782227182 | epot = -11.0059348383752 | etot = -8.13378366723562
263000  ekin = 1.14419248657758 |  erot = 1.74014341283967 | epot = -11.0181195666639 | etot = -8.13378366724668
264000  ekin = 1.15486713033053 |  erot = 1.7401404967673 | epot = -11.0287912942166 | etot = -8.13378366711881
265000  ekin = 1.16757148072449 |  erot = 1.73774643956173 | epot = -11.0391015871626 | etot = -8.1337836668764
266000  ekin = 1.18492523334689 |  erot = 1.73313774545392 | epot = -11.0518466454007 | etot = -8.13378366659988
267000  ekin = 1.20976553808707 |  erot = 1.72682085390381 | epot = -11.0703700583714 | etot = -8.13378366638055
268000  ekin = 1.24403111905802 |  erot = 1.71946869065433 | epot = -11.0972834759964 | etot = -8.13378366628403
269000  ekin = 1.28796807043146 |  erot = 1.71176934564053 | epot = -11.1335210824081 | etot = -8.13378366633612
270000  ekin = 1.33984072253416 |  erot = 1.70434119615581 | epot = -11.1779655852127 | etot = -8.13378366652273
271000  ekin = 1.39615730896201 |  erot = 1.69774776464813 | epot = -11.227688740386 | etot = -8.13378366677587
272000  ekin = 1.45234426470507 |  erot = 1.69276715684496 | epot = -11.2788950886237 | etot = -8.13378366707369
273000  ekin = 1.50368133069818 |  erot = 1.68992546991268 | epot = -11.3273904679252 | etot = -8.13378366731432
274000  ekin = 1.54639996325692 |  erot = 1.68983337628906 | epot = -11.370017006958 | etot = -8.13378366741207
275000  ekin = 1.57877490148782 |  erot = 1.69332235277359 | epot = -11.405880921593 | etot = -8.13378366733158
276000  ekin = 1.60168052283352 |  erot = 1.70138855155485 | epot = -11.4368527414861 | etot = -8.1337836670977
277000  ekin = 1.61832490283022 |  erot = 1.71502642603267 | epot = -11.4671349956655 | etot = -8.13378366680262
278000  ekin = 1.63311060675218 |  erot = 1.73495415768089 | epot = -11.501848431012 | etot = -8.1337836665789
279000  ekin = 1.64995273994814 |  erot = 1.76130541527939 | epot = -11.5450418217722 | etot = -8.1337836665447
280000  ekin = 1.67073877093319 |  erot = 1.79339849893235 | epot = -11.5979209366104 | etot = -8.1337836667449
281000  ekin = 1.69438407984855 |  erot = 1.82970064438583 | epot = -11.6578683914556 | etot = -8.13378366722118
282000  ekin = 1.71376506080659 |  erot = 1.86795891950317 | epot = -11.7155076481287 | etot = -8.13378366781891
283000  ekin = 1.72224450525134 |  erot = 1.90529068548182 | epot = -11.7613188590736 | etot = -8.13378366834043
284000  ekin = 1.71505262177091 |  erot = 1.93881515489562 | epot = -11.7876514453522 | etot = -8.13378366868565
285000  ekin = 1.68954869056389 |  erot = 1.96608819497543 | epot = -11.7894205543611 | etot = -8.1337836688218
286000  ekin = 1.6455513774762 |  erot = 1.98537597121296 | epot = -11.7647110174623 | etot = -8.13378366877313
287000  ekin = 1.58495470813084 |  erot = 1.99578989882447 | epot = -11.7145282755466 | etot = -8.13378366859128
288000  ekin = 1.51101761585498 |  erot = 1.997297767928 | epot = -11.6420990521125 | etot = -8.13378366832957
289000  ekin = 1.42766231980924 |  erot = 1.99063899576454 | epot = -11.5520849836069 | etot = -8.13378366803313
290000  ekin = 1.33894501486224 |  erot = 1.97716758999151 | epot = -11.4498962725851 | etot = -8.13378366773135
291000  ekin = 1.24881721188078 |  erot = 1.95864649302987 | epot = -11.3412473723324 | etot = -8.1337836674218
292000  ekin = 1.16137515575752 |  erot = 1.9370295819175 | epot = -11.2321884047302 | etot = -8.13378366705515
293000  ekin = 1.08169833470813 |  erot = 1.91427738455251 | epot = -11.1297593858174 | etot = -8.13378366655679
294000  ekin = 1.01689863826428 |  erot = 1.89223243581134 | epot = -11.0429147399724 | etot = -8.13378366589681
295000  ekin = 0.976377352950436 |  erot = 1.87253324956362 | epot = -10.9826942676921 | etot = -8.13378366517802
296000  ekin = 0.970182395978853 |  erot = 1.85650679550316 | epot = -10.9604728561383 | etot = -8.13378366465628
297000  ekin = 1.00537151816994 |  erot = 1.84499118418623 | epot = -10.9841463669816 | etot = -8.1337836646254
298000  ekin = 1.08200534146755 |  erot = 1.83812417715671 | epot = -11.0539131838581 | etot = -8.13378366523386
299000  ekin = 1.19125189129762 |  erot = 1.83519410294265 | epot = -11.1602296606164 | etot = -8.13378366637616
300000  ekin = 1.31698721061339 |  erot = 1.83465168975443 | epot = -11.2854225681148 | etot = -8.13378366774697
301000  ekin = 1.44008784809306 |  erot = 1.83433803115556 | epot = -11.4082095482411 | etot = -8.13378366899252
302000  ekin = 1.54329548540286 |  erot = 1.83190000196868 | epot = -11.5089791572108 | etot = -8.13378366983924
303000  ekin = 1.61484992407284 |  erot = 1.82529439832888 | epot = -11.5739279925558 | etot = -8.13378367015409
304000  ekin = 1.65011047810433 |  erot = 1.81324433416773 | epot = -11.5971384822047 | etot = -8.13378366993262
305000  ekin = 1.65140814366736 |  erot = 1.79549497030326 | epot = -11.5806867832608 | etot = -8.13378366929013
306000  ekin = 1.62643416627377 |  erot = 1.77280218913901 | epot = -11.533020023822 | etot = -8.13378366840924
307000  ekin = 1.58577500467182 |  erot = 1.74668500708233 | epot = -11.4662436792488 | etot = -8.13378366749463
308000  ekin = 1.54030424866681 |  erot = 1.71903801624656 | epot = -11.3931259316282 | etot = -8.13378366671483
309000  ekin = 1.49900091050482 |  erot = 1.69173690591874 | epot = -11.3245214826124 | etot = -8.13378366618884
310000  ekin = 1.46747597212437 |  erot = 1.66636932779528 | epot = -11.2676289658614 | etot = -8.13378366594171
311000  ekin = 1.44771419446156 |  erot = 1.6441044887676 | epot = -11.2256023491818 | etot = -8.13378366595262
312000  ekin = 1.43839141863275 |  erot = 1.62568199896143 | epot = -11.1978570837366 | etot = -8.13378366614239
313000  ekin = 1.43594352565088 |  erot = 1.61150443049421 | epot = -11.1812316225552 | etot = -8.1337836664101
314000  ekin = 1.43595255617279 |  erot = 1.60177116104702 | epot = -11.1715073838761 | etot = -8.13378366665631
315000  ekin = 1.43500742740862 |  erot = 1.59648896098777 | epot = -11.1652800551048 | etot = -8.13378366670845
316000  ekin = 1.43108473245696 |  erot = 1.59565804393669 | epot = -11.1605264431174 | etot = -8.13378366672371
317000  ekin = 1.42390336283974 |  erot = 1.59957952106222 | epot = -11.1572665504315 | etot = -8.13378366652955
318000  ekin = 1.41631295378698 |  erot = 1.60866819207144 | epot = -11.1587648120198 | etot = -8.13378366616138
319000  ekin = 1.41381426232924 |  erot = 1.62334142232199 | epot = -11.1709393503737 | etot = -8.13378366572251
320000  ekin = 1.42315030252084 |  erot = 1.64384116840171 | epot = -11.2007751362867 | etot = -8.13378366536418
321000  ekin = 1.45024845494019 |  erot = 1.67003325939975 | epot = -11.254065379577 | etot = -8.13378366523704
322000  ekin = 1.49815500536719 |  erot = 1.70123818171236 | epot = -11.3331768525215 | etot = -8.13378366544195
323000  ekin = 1.5656935250191 |  erot = 1.73609284126415 | epot = -11.4355700322998 | etot = -8.13378366601658
324000  ekin = 1.64679224021207 |  erot = 1.77264010659864 | epot = -11.5532160138045 | etot = -8.13378366699375
325000  ekin = 1.73163775630944 |  erot = 1.80818795205414 | epot = -11.6736093764064 | etot = -8.13378366804283
326000  ekin = 1.80750329208306 |  erot = 1.83980749295526 | epot = -11.7810944543854 | etot = -8.13378366934709
327000  ekin = 1.85797659456583 |  erot = 1.86537346541973 | epot = -11.8571337303115 | etot = -8.13378367032595
328000  ekin = 1.87027520748892 |  erot = 1.88392315073226 | epot = -11.8879820288801 | etot = -8.13378367065894
329000  ekin = 1.83949589054753 |  erot = 1.89597309718836 | epot = -11.8692526579141 | etot = -8.13378367017824
330000  ekin = 1.77117100868916 |  erot = 1.90323589019464 | epot = -11.8081905678794 | etot = -8.13378366899564
331000  ekin = 1.68023517873261 |  erot = 1.90771959425499 | epot = -11.7217384405322 | etot = -8.13378366754461
332000  ekin = 1.58599656571375 |  erot = 1.91066851347188 | epot = -11.6304487455355 | etot = -8.13378366634985
333000  ekin = 1.50566649891541 |  erot = 1.91203797343775 | epot = -11.5514881380513 | etot = -8.13378366569817
334000  ekin = 1.44997196058942 |  erot = 1.91073772769977 | epot = -11.4944933538496 | etot = -8.13378366556045
335000  ekin = 1.42175053140811 |  erot = 1.90515605629062 | epot = -11.4606902539324 | etot = -8.13378366623365
336000  ekin = 1.41662531058447 |  erot = 1.89330033651394 | epot = -11.443709313723 | etot = -8.13378366662462
337000  ekin = 1.42902342419931 |  erot = 1.87459660541457 | epot = -11.4374036965604 | etot = -8.13378366694656
338000  ekin = 1.45347553474132 |  erot = 1.84924982279079 | epot = -11.436509024704 | etot = -8.13378366717192
339000  ekin = 1.48532648332251 |  erot = 1.81789825388619 | epot = -11.437008404542 | etot = -8.13378366733331
340000  ekin = 1.52068113212483 |  erot = 1.7813105429029 | epot = -11.4357753425016 | etot = -8.13378366747389
341000  ekin = 1.55606070128828 |  erot = 1.74019406298435 | epot = -11.4300384318866 | etot = -8.13378366761401
342000  ekin = 1.58819693536375 |  erot = 1.69515176482855 | epot = -11.4171323679322 | etot = -8.13378366773992
343000  ekin = 1.61415529814652 |  erot = 1.64675903935083 | epot = -11.3946980053116 | etot = -8.13378366781428
344000  ekin = 1.63171879307199 |  erot = 1.5956931979438 | epot = -11.3611956588164 | etot = -8.13378366780064
345000  ekin = 1.63976605961451 |  erot = 1.54282704209179 | epot = -11.3163767694008 | etot = -8.13378366769452
346000  ekin = 1.63837200138269 |  erot = 1.48918714016891 | epot = -11.261342809072 | etot = -8.13378366752041
347000  ekin = 1.62852754177371 |  erot = 1.43587351565002 | epot = -11.1981847247542 | etot = -8.13378366733049
348000  ekin = 1.61158889283558 |  erot = 1.383925469405 | epot = -11.1292980294128 | etot = -8.1337836671722
349000  ekin = 1.5887355743944 |  erot = 1.33422850520572 | epot = -11.0567477466733 | etot = -8.13378366707318
350000  ekin = 1.56064786721382 |  erot = 1.28749851959908 | epot = -10.9819300538446 | etot = -8.13378366703172
351000  ekin = 1.5275419119129 |  erot = 1.24434620359442 | epot = -10.9056717825208 | etot = -8.13378366701344
352000  ekin = 1.48960299203902 |  erot = 1.20538641998081 | epot = -10.8287730789796 | etot = -8.13378366695982
353000  ekin = 1.44778264502937 |  erot = 1.17134399709156 | epot = -10.7529103089083 | etot = -8.13378366678739
354000  ekin = 1.40533100953332 |  erot = 1.1432484492258 | epot = -10.6823631252447 | etot = -8.13378366648562
355000  ekin = 1.36869095863465 |  erot = 1.1225024206929 | epot = -10.624977045382 | etot = -8.13378366605446
356000  ekin = 1.34490175995569 |  erot = 1.10992990778131 | epot = -10.5886153331834 | etot = -8.13378366544639
357000  ekin = 1.34315796276069 |  erot = 1.10621719879611 | epot = -10.5831588263828 | etot = -8.13378366482595
358000  ekin = 1.37283801207955 |  erot = 1.11171347587719 | epot = -10.6183351524124 | etot = -8.13378366445567
359000  ekin = 1.43996759058378 |  erot = 1.12612871057391 | epot = -10.6998799657445 | etot = -8.13378366458682
360000  ekin = 1.5438844591409 |  erot = 1.14830381564085 | epot = -10.8259719400993 | etot = -8.13378366531752
361000  ekin = 1.6758653150916 |  erot = 1.1761890541914 | epot = -10.9858380358532 | etot = -8.13378366657025
362000  ekin = 1.82005627455488 |  erot = 1.20703160753363 | epot = -11.1608715500439 | etot = -8.13378366795535
363000  ekin = 1.9585058393723 |  erot = 1.23798141777755 | epot = -11.3302709261634 | etot = -8.13378366901354
364000  ekin = 2.07580017664351 |  erot = 1.26672677095187 | epot = -11.4763106177171 | etot = -8.13378367012168
365000  ekin = 2.15891662517396 |  erot = 1.29173621495671 | epot = -11.584436510601 | etot = -8.13378367047035
366000  ekin = 2.20238380195759 |  erot = 1.31262064914767 | epot = -11.648788121337 | etot = -8.13378367023179
367000  ekin = 2.20851727275297 |  erot = 1.33022857587875 | epot = -11.6725295182418 | etot = -8.13378366961006
368000  ekin = 2.18513118770515 |  erot = 1.34632721320016 | epot = -11.6652420696031 | etot = -8.13378366869782
369000  ekin = 2.14321144646592 |  erot = 1.36315448463329 | epot = -11.6401495989026 | etot = -8.13378366780341
370000  ekin = 2.0938828241329 |  erot = 1.3829685872043 | epot = -11.6106350785139 | etot = -8.13378366717668
371000  ekin = 2.04539161606643 |  erot = 1.40758201280279 | epot = -11.5867572956931 | etot = -8.13378366682384
372000  ekin = 2.00261126514667 |  erot = 1.43827057512733 | epot = -11.5746655069399 | etot = -8.13378366666586
373000  ekin = 1.96798302472881 |  erot = 1.47584503943877 | epot = -11.5776117307477 | etot = -8.13378366658016
374000  ekin = 1.9427642201498 |  erot = 1.52074221163615 | epot = -11.597290098334 | etot = -8.13378366654806
375000  ekin = 1.92741631545116 |  erot = 1.57302624843808 | epot = -11.6342262305069 | etot = -8.13378366661764
376000  ekin = 1.92110841836679 |  erot = 1.63232320681306 | epot = -11.6872152920288 | etot = -8.13378366684891
377000  ekin = 1.92083197489726 |  erot = 1.69770894533778 | epot = -11.7523245875375 | etot = -8.13378366730242
378000  ekin = 1.92097158012141 |  erot = 1.7676305565423 | epot = -11.8223858045367 | etot = -8.13378366787296
379000  ekin = 1.9143805691691 |  erot = 1.83964318712979 | epot = -11.8878074249498 | etot = -8.13378366865087
380000  ekin = 1.89241520119535 |  erot = 1.91106138176889 | epot = -11.937260252322 | etot = -8.13378366935773
381000  ekin = 1.84711843121381 |  erot = 1.97933543814508 | epot = -11.9602375392247 | etot = -8.13378366986585
382000  ekin = 1.77364821788772 |  erot = 2.04210934440012 | epot = -11.9495412323447 | etot = -8.13378367005691
383000  ekin = 1.67178472399728 |  erot = 2.09754562136732 | epot = -11.9031140151878 | etot = -8.13378366982318
384000  ekin = 1.54709556481459 |  erot = 2.14438708234362 | epot = -11.8252663163777 | etot = -8.13378366921949
385000  ekin = 1.41093432867779 |  erot = 2.18184182145105 | epot = -11.7265598182848 | etot = -8.13378366815593
386000  ekin = 1.27958936994579 |  erot = 2.21051340231035 | epot = -11.6238864391451 | etot = -8.13378366688898
387000  ekin = 1.17137861198561 |  erot = 2.23163165239764 | epot = -11.5367939301736 | etot = -8.13378366579032
388000  ekin = 1.10179780402574 |  erot = 2.2463475452751 | epot = -11.4819290145282 | etot = -8.13378366522735
389000  ekin = 1.07882148968846 |  erot = 2.25505587957373 | epot = -11.4676610376626 | etot = -8.13378366840039
390000  ekin = 1.07051570135838 |  erot = 2.26936424220882 | epot = -11.4736636037163 | etot = -8.13378366014913
391000  ekin = 1.12513305991642 |  erot = 2.28557987987656 | epot = -11.5444966077453 | etot = -8.1337836679523
392000  ekin = 1.21295440172366 |  erot = 2.2706367034028 | epot = -11.6173747716316 | etot = -8.13378366650518
393000  ekin = 1.30924312365442 |  erot = 2.24076930893579 | epot = -11.6837960997181 | etot = -8.13378366712787
394000  ekin = 1.40561895760616 |  erot = 2.19794335034461 | epot = -11.737345975341 | etot = -8.13378366739023
395000  ekin = 1.49662707239319 |  erot = 2.14293675801978 | epot = -11.7733474977479 | etot = -8.13378366733488
396000  ekin = 1.5807772799153 |  erot = 2.07761988891138 | epot = -11.7921808358758 | etot = -8.13378366704916
397000  ekin = 1.65955042581882 |  erot = 2.00469837191084 | epot = -11.798032464358 | etot = -8.13378366662836
398000  ekin = 1.73622447988647 |  erot = 1.92743077252919 | epot = -11.7974389185614 | etot = -8.13378366614571
399000  ekin = 1.81471876942244 |  erot = 1.84941455049526 | epot = -11.7979169856369 | etot = -8.13378366571923
400000  ekin = 1.89831345083278 |  erot = 1.77428869309233 | epot = -11.8063858093355 | etot = -8.13378366541043
401000  ekin = 1.98857882165089 |  erot = 1.70555701947636 | epot = -11.8279195064046 | etot = -8.13378366527734
402000  ekin = 2.08469272454778 |  erot = 1.64640053761285 | epot = -11.8648769274935 | etot = -8.13378366533283
403000  ekin = 2.18333492883602 |  erot = 1.59947809827672 | epot = -11.9165966926831 | etot = -8.1337836655704
404000  ekin = 2.27899469657512 |  erot = 1.56671457666659 | epot = -11.9794929390995 | etot = -8.13378366585775
405000  ekin = 2.36506409046644 |  erot = 1.54904572147253 | epot = -12.0478934783876 | etot = -8.1337836664486
406000  ekin = 2.43306193249797 |  erot = 1.54630434412229 | epot = -12.1131499437779 | etot = -8.13378366715766
407000  ekin = 2.47364186380494 |  erot = 1.55689186413063 | epot = -12.1643173959541 | etot = -8.13378366801855
408000  ekin = 2.47760299472499 |  erot = 1.5781064138446 | epot = -12.1894930773328 | etot = -8.13378366876325
409000  ekin = 2.43822850842607 |  erot = 1.60664113475467 | epot = -12.1786533122588 | etot = -8.13378366907809
410000  ekin = 2.35516301280273 |  erot = 1.63934184028366 | epot = -12.1282885218163 | etot = -8.1337836687299
411000  ekin = 2.23661952277215 |  erot = 1.67408087730624 | epot = -12.0444840678237 | etot = -8.13378366774526
412000  ekin = 2.09851267461913 |  erot = 1.71012170017578 | epot = -11.9424180412146 | etot = -8.1337836664197
413000  ekin = 1.96056484793908 |  erot = 1.7477880401112 | epot = -11.8421365532043 | etot = -8.13378366515403
414000  ekin = 1.84128090481493 |  erot = 1.78771082122122 | epot = -11.7627753903064 | etot = -8.13378366427029
415000  ekin = 1.7539044233613 |  erot = 1.83009103154469 | epot = -11.7177791188321 | etot = -8.13378366392606
416000  ekin = 1.70439570487831 |  erot = 1.87425008285661 | epot = -11.7124294518623 | etot = -8.13378366412735
417000  ekin = 1.69131554252948 |  erot = 1.918501478837 | epot = -11.7436006861831 | etot = -8.13378366481665
418000  ekin = 1.7068949003181 |  erot = 1.96025799788764 | epot = -11.8009365639631 | etot = -8.13378366575732
419000  ekin = 1.73962222230371 |  erot = 1.99637255840703 | epot = -11.8697784474997 | etot = -8.13378366678895
420000  ekin = 1.77669286262483 |  erot = 2.02357619714979 | epot = -11.9340527274781 | etot = -8.13378366770344
421000  ekin = 1.8065782408294 |  erot = 2.03903049555701 | epot = -11.9793924047138 | etot = -8.13378366832744
422000  ekin = 1.82111290085909 |  erot = 2.04088419799601 | epot = -11.9957807674282 | etot = -8.13378366857305
423000  ekin = 1.81648584568676 |  erot = 2.02865244729856 | epot = -11.9789219614447 | etot = -8.13378366845938
424000  ekin = 1.79301691785087 |  erot = 2.00326876348606 | epot = -11.9300693494109 | etot = -8.13378366807394
425000  ekin = 1.75424046968078 |  erot = 1.96680784722196 | epot = -11.854831984411 | etot = -8.13378366750822
426000  ekin = 1.70601392329189 |  erot = 1.92202692837053 | epot = -11.7618245184899 | etot = -8.1337836668275
427000  ekin = 1.65580906012917 |  erot = 1.87186985441136 | epot = -11.6614625806787 | etot = -8.13378366613817
428000  ekin = 1.61207963969401 |  erot = 1.81905558542235 | epot = -11.5649188905524 | etot = -8.13378366543605
429000  ekin = 1.5833999942279 |  erot = 1.7657989317176 | epot = -11.4829825908563 | etot = -8.13378366491079
430000  ekin = 1.57646033947372 |  erot = 1.71346152699375 | epot = -11.4237055311687 | etot = -8.13378366470128
431000  ekin = 1.59418488210765 |  erot = 1.66239892772925 | epot = -11.3903674747264 | etot = -8.13378366488948
432000  ekin = 1.63452809771756 |  erot = 1.6120557480409 | epot = -11.3803675111914 | etot = -8.13378366543294
433000  ekin = 1.69077410977045 |  erot = 1.56136635610619 | epot = -11.3859241320172 | etot = -8.13378366614059
434000  ekin = 1.75368500742851 |  erot = 1.50939558466423 | epot = -11.3968642588277 | etot = -8.13378366673501
435000  ekin = 1.81477188941446 |  erot = 1.45598133799928 | epot = -11.4045368944161 | etot = -8.13378366700231
436000  ekin = 1.86895151228373 |  erot = 1.40204530898049 | epot = -11.4047804881002 | etot = -8.13378366683597
437000  ekin = 1.91551323813672 |  erot = 1.34941425923527 | epot = -11.3987111639605 | etot = -8.1337836665885
438000  ekin = 1.95545357706279 |  erot = 1.30011080733717 | epot = -11.3893480508802 | etot = -8.13378366648026
439000  ekin = 1.98811153075646 |  erot = 1.25557284833876 | epot = -11.3774680457415 | etot = -8.13378366664625
440000  ekin = 2.00986623436097 |  erot = 1.2163020416111 | epot = -11.3599519429673 | etot = -8.13378366699526
441000  ekin = 2.0153035076586 |  erot = 1.18202297032889 | epot = -11.3311101452758 | etot = -8.13378366728832
442000  ekin = 1.99936349679035 |  erot = 1.15207873138256 | epot = -11.2852258960272 | etot = -8.13378366785425
443000  ekin = 1.95696749681663 |  erot = 1.12547607064077 | epot = -11.216227234986 | etot = -8.13378366752865
444000  ekin = 1.89166490098974 |  erot = 1.10194461447989 | epot = -11.1273931823301 | etot = -8.13378366686045
445000  ekin = 1.81328868644751 |  erot = 1.08168732032588 | epot = -11.0287596725674 | etot = -8.13378366579406
446000  ekin = 1.73577899474701 |  erot = 1.06505071492863 | epot = -10.934613374722 | etot = -8.13378366504638
447000  ekin = 1.67093185588831 |  erot = 1.05239705126931 | epot = -10.8571125714695 | etot = -8.13378366431192
448000  ekin = 1.6291185681957 |  erot = 1.04409603312635 | epot = -10.8069982651693 | etot = -8.13378366384729
449000  ekin = 1.61731626297075 |  erot = 1.04041489697141 | epot = -10.7915148237036 | etot = -8.1337836637614
450000  ekin = 1.63711697605715 |  erot = 1.04135992229639 | epot = -10.8122605626986 | etot = -8.13378366434503
451000  ekin = 1.68320258142166 |  erot = 1.04620824656513 | epot = -10.8631944930204 | etot = -8.13378366503363
452000  ekin = 1.74581668011681 |  erot = 1.05391169410103 | epot = -10.9335120399974 | etot = -8.13378366577957
453000  ekin = 1.81457146100472 |  erot = 1.06335165863441 | epot = -11.0117067861179 | etot = -8.1337836664788
454000  ekin = 1.87975957938335 |  erot = 1.07317402238505 | epot = -11.0867172689043 | etot = -8.13378366713586
455000  ekin = 1.93251877587776 |  erot = 1.08171623325473 | epot = -11.1480186769427 | etot = -8.1337836678102
456000  ekin = 1.96415416826711 |  erot = 1.08704156958797 | epot = -11.1849794063562 | etot = -8.13378366850113
457000  ekin = 1.96605348077107 |  erot = 1.0872339429417 | epot = -11.1870710927834 | etot = -8.13378366907065
458000  ekin = 1.93127523761038 |  erot = 1.08096076790399 | epot = -11.146019674778 | etot = -8.13378366926365
459000  ekin = 1.85771594839341 |  erot = 1.06809531780711 | epot = -11.0595949350253 | etot = -8.13378366882483
460000  ekin = 1.75147188083719 |  erot = 1.05009293158359 | epot = -10.9353484800662 | etot = -8.13378366764541
461000  ekin = 1.62834142733938 |  erot = 1.02990811326467 | epot = -10.7920332065062 | etot = -8.13378366590216
462000  ekin = 1.51195360647934 |  erot = 1.01153881174451 | epot = -10.6572760812002 | etot = -8.13378366297633
463000  ekin = 1.43011910143845 |  erot = 1.00022578453823 | epot = -10.5641285481517 | etot = -8.13378366217503
464000  ekin = 1.39582910827496 |  erot = 0.998198432077561 | epot = -10.5278112022032 | etot = -8.13378366185073
465000  ekin = 1.41007554850175 |  erot = 1.0059200900327 | epot = -10.5497793012377 | etot = -8.13378366270329
466000  ekin = 1.46251969360673 |  erot = 1.02219738030602 | epot = -10.6185007378636 | etot = -8.13378366395089
467000  ekin = 1.49627186628377 |  erot = 1.05472101821887 | epot = -10.684776548826 | etot = -8.13378366432334
468000  ekin = 1.51725853676448 |  erot = 1.12479885662203 | epot = -10.7758410579224 | etot = -8.1337836645359
469000  ekin = 1.58140637755478 |  erot = 1.16828828958825 | epot = -10.883478331625 | etot = -8.13378366448195
470000  ekin = 1.60068578299443 |  erot = 1.18114141021191 | epot = -10.9156108575561 | etot = -8.13378366434975
471000  ekin = 1.59076368327275 |  erot = 1.18707237247091 | epot = -10.9116197194443 | etot = -8.1337836637006
472000  ekin = 1.56124060600587 |  erot = 1.18572143101271 | epot = -10.880745699812 | etot = -8.13378366279344
473000  ekin = 1.52502097411989 |  erot = 1.17792025681201 | epot = -10.8367248927673 | etot = -8.13378366183537
474000  ekin = 1.49533177226198 |  erot = 1.16544446213558 | epot = -10.794559895353 | etot = -8.13378366095545
475000  ekin = 1.48386630176111 |  erot = 1.15068540215573 | epot = -10.7683353641552 | etot = -8.13378366023836
476000  ekin = 1.49971334632826 |  erot = 1.13623821677978 | epot = -10.7697352228517 | etot = -8.13378365974365
477000  ekin = 1.54871118769558 |  erot = 1.1244843335277 | epot = -10.8069791813352 | etot = -8.13378366011192
478000  ekin = 1.62953491120423 |  erot = 1.11764268903608 | epot = -10.8809612604802 | etot = -8.13378366023986
479000  ekin = 1.73735741643918 |  erot = 1.11700620811327 | epot = -10.9881472852187 | etot = -8.13378366066626
480000  ekin = 1.86556210288033 |  erot = 1.12262064775157 | epot = -11.1219664120646 | etot = -8.13378366143269
481000  ekin = 2.00121026337205 |  erot = 1.13364860021322 | epot = -11.2686425499513 | etot = -8.133783686366
482000  ekin = 2.04617329758791 |  erot = 1.16256926170154 | epot = -11.3425262237766 | etot = -8.13378366448714
483000  ekin = 2.14335261834806 |  erot = 1.21476273130068 | epot = -11.4918990325578 | etot = -8.13378368290904
484000  ekin = 2.2027099535623 |  erot = 1.23147381806936 | epot = -11.5679674446503 | etot = -8.13378367301867
485000  ekin = 2.20682939440963 |  erot = 1.23835798982089 | epot = -11.5789710574828 | etot = -8.13378367325232
486000  ekin = 2.16589682794253 |  erot = 1.24300370551841 | epot = -11.5426842062897 | etot = -8.13378367282871
487000  ekin = 2.08668888864966 |  erot = 1.24625551752124 | epot = -11.4667280780175 | etot = -8.1337836718466
488000  ekin = 1.98386509125085 |  erot = 1.24977318046638 | epot = -11.3674219422406 | etot = -8.13378367052335
489000  ekin = 1.87707931030754 |  erot = 1.25547012773704 | epot = -11.2663331072054 | etot = -8.13378366916079
490000  ekin = 1.78677596317084 |  erot = 1.26490338721995 | epot = -11.1854630185179 | etot = -8.13378366812706
491000  ekin = 1.72903831214138 |  erot = 1.27867004038139 | epot = -11.1414920203219 | etot = -8.13378366779911
492000  ekin = 1.71039979057821 |  erot = 1.29591768107264 | epot = -11.1401011400708 | etot = -8.13378366841992
493000  ekin = 1.72454317156128 |  erot = 1.31423280426762 | epot = -11.1725596457329 | etot = -8.13378366990395
494000  ekin = 1.75332785015452 |  erot = 1.33022406246675 | epot = -11.2173355843439 | etot = -8.13378367172259
495000  ekin = 1.77349565825588 |  erot = 1.34086561473228 | epot = -11.2481449460261 | etot = -8.13378367303795
496000  ekin = 1.76725059667724 |  erot = 1.34512484286663 | epot = -11.2461591126952 | etot = -8.13378367315135
497000  ekin = 1.7312763798942 |  erot = 1.34494708212178 | epot = -11.2100071339786 | etot = -8.1337836719626
498000  ekin = 1.6785500090819 |  erot = 1.34489121264458 | epot = -11.1572248917632 | etot = -8.13378367003671
499000  ekin = 1.63191747119711 |  erot = 1.35056727533229 | epot = -11.1162684147433 | etot = -8.13378366821386
500000  ekin = 1.61378359990016 |  erot = 1.3667636468144 | epot = -11.1143309138658 | etot = -8.1337836671512
501000  ekin = 1.63758101988153 |  erot = 1.39609850676614 | epot = -11.1674631937492 | etot = -8.13378366710158
502000  ekin = 1.70413807541162 |  erot = 1.43847493669148 | epot = -11.2763966800707 | etot = -8.13378366796759
503000  ekin = 1.80268297747421 |  erot = 1.49115460253747 | epot = -11.4276212495037 | etot = -8.13378366949198
504000  ekin = 1.91419549778944 |  erot = 1.54914693963942 | epot = -11.5971261088563 | etot = -8.13378367142744
505000  ekin = 2.01490443998012 |  erot = 1.60576406504308 | epot = -11.7544521785637 | etot = -8.13378367354047
506000  ekin = 2.07966541471014 |  erot = 1.65345439354067 | epot = -11.8669034836903 | etot = -8.13378367543949
507000  ekin = 2.0870035389711 |  erot = 1.68517460629498 | epot = -11.9059618217443 | etot = -8.13378367647819
508000  ekin = 2.02663352663423 |  erot = 1.69625747623648 | epot = -11.8566746789393 | etot = -8.1337836760686
509000  ekin = 1.90589064134063 |  erot = 1.68599529702703 | epot = -11.7256696125548 | etot = -8.13378367418714
510000  ekin = 1.74959091232253 |  erot = 1.6578768825328 | epot = -11.5412514663215 | etot = -8.13378367146617
511000  ekin = 1.59231955658714 |  erot = 1.61826266731548 | epot = -11.3443658926793 | etot = -8.1337836687767
512000  ekin = 1.4675585606025 |  erot = 1.57434662380356 | epot = -11.1756888512879 | etot = -8.13378366688181
513000  ekin = 1.39839916093078 |  erot = 1.53234768377589 | epot = -11.0645305108162 | etot = -8.1337836661095
514000  ekin = 1.39338903686576 |  erot = 1.49706258344478 | epot = -11.024235286466 | etot = -8.13378366615549
515000  ekin = 1.44495159062055 |  erot = 1.47110271002976 | epot = -11.0498379682116 | etot = -8.13378366756126
516000  ekin = 1.53288312821577 |  erot = 1.45357064724467 | epot = -11.1202374448468 | etot = -8.13378366938636
517000  ekin = 1.63159033312452 |  erot = 1.44224294472879 | epot = -11.2076169492315 | etot = -8.13378367137819
518000  ekin = 1.71409401455657 |  erot = 1.4340839943587 | epot = -11.2819616821534 | etot = -8.13378367323809
519000  ekin = 1.75665192756545 |  erot = 1.42579002916916 | epot = -11.3162256317321 | etot = -8.13378367499745
520000  ekin = 1.7418734594754 |  erot = 1.41504839774918 | epot = -11.2907055324296 | etot = -8.13378367520502
521000  ekin = 1.66871703040513 |  erot = 1.40071550595816 | epot = -11.2032162101125 | etot = -8.13378367374925
522000  ekin = 1.55952182856079 |  erot = 1.38339983650052 | epot = -11.0767053362008 | etot = -8.13378367113947
523000  ekin = 1.45114556551557 |  erot = 1.3656830806487 | epot = -10.9506123146215 | etot = -8.13378366845718
524000  ekin = 1.38091842212804 |  erot = 1.35134919390869 | epot = -10.8660512824825 | etot = -8.13378366644579
525000  ekin = 1.37601425591404 |  erot = 1.34456662955946 | epot = -10.8543645508839 | etot = -8.13378366541038
526000  ekin = 1.44870428485067 |  erot = 1.34909740179289 | epot = -10.9315853521545 | etot = -8.13378366551097
527000  ekin = 1.59459863547139 |  erot = 1.36714947552062 | epot = -11.0955317779062 | etot = -8.13378366691416
528000  ekin = 1.79183405481955 |  erot = 1.39841904593302 | epot = -11.3240367701712 | etot = -8.13378366941866
529000  ekin = 2.00478978697981 |  erot = 1.43972835787733 | epot = -11.5783018172282 | etot = -8.13378367237111
530000  ekin = 2.19333795601797 |  erot = 1.48552207657973 | epot = -11.8126437074869 | etot = -8.13378367488922
531000  ekin = 2.32431476965854 |  erot = 1.52928747155543 | epot = -11.9873859175034 | etot = -8.13378367628947
532000  ekin = 2.37971447238515 |  erot = 1.56539257217842 | epot = -12.0788907210183 | etot = -8.13378367645474
533000  ekin = 2.35771666715934 |  erot = 1.59048999440141 | epot = -12.0819903372246 | etot = -8.13378367566386
534000  ekin = 2.26899715449254 |  erot = 1.60407394358798 | epot = -12.0068547722132 | etot = -8.13378367413272
535000  ekin = 2.13365177459914 |  erot = 1.60831072461823 | epot = -11.8757461712403 | etot = -8.13378367202297
536000  ekin = 1.97886376167499 |  erot = 1.60719127867242 | epot = -11.7198387100764 | etot = -8.13378366972895
537000  ekin = 1.83421887315024 |  erot = 1.60523898301454 | epot = -11.5732415239291 | etot = -8.13378366776436
538000  ekin = 1.72531720892644 |  erot = 1.6063251928936 | epot = -11.4654260683311 | etot = -8.13378366651106
539000  ekin = 1.66856519905571 |  erot = 1.6130147293037 | epot = -11.4153635944826 | etot = -8.13378366612323
540000  ekin = 1.66907056567834 |  erot = 1.62662968765102 | epot = -11.4294839194914 | etot = -8.13378366616205
541000  ekin = 1.72153495927027 |  erot = 1.64788745986125 | epot = -11.5032060864798 | etot = -8.13378366734831
542000  ekin = 1.80903650496826 |  erot = 1.6754786968006 | epot = -11.6182988706809 | etot = -8.13378366891207
543000  ekin = 1.90894616835527 |  erot = 1.70734508947704 | epot = -11.7500749283668 | etot = -8.13378367053448
544000  ekin = 1.99777842839545 |  erot = 1.74125357780754 | epot = -11.8728156781218 | etot = -8.13378367191885
545000  ekin = 2.05546409374589 |  erot = 1.77521000036354 | epot = -11.9644577669439 | etot = -8.13378367283447
546000  ekin = 2.0686759531372 |  erot = 1.80779483608995 | epot = -12.010254462383 | etot = -8.13378367315581
547000  ekin = 2.03267806245649 |  erot = 1.83838588998092 | epot = -12.0048476253046 | etot = -8.13378367286718
548000  ekin = 1.95148731421225 |  erot = 1.86718390882578 | epot = -11.9524548951405 | etot = -8.13378367210244
549000  ekin = 1.8364504233007 |  erot = 1.89487456520005 | epot = -11.8651086595368 | etot = -8.13378367103609
550000  ekin = 1.70373130495423 |  erot = 1.92233248820751 | epot = -11.759847463038 | etot = -8.13378366987622
551000  ekin = 1.57139422781184 |  erot = 1.95024291868203 | epot = -11.6554208153043 | etot = -8.13378366881045
552000  ekin = 1.45663332557803 |  erot = 1.97878558863039 | epot = -11.5692025822013 | etot = -8.13378366799288
553000  ekin = 1.37337409019781 |  erot = 2.00744335365785 | epot = -11.514601111401 | etot = -8.13378366754535
554000  ekin = 1.33029485862609 |  erot = 2.03496657145449 | epot = -11.4990450976237 | etot = -8.13378366754314
555000  ekin = 1.32945359625969 |  erot = 2.05953157376214 | epot = -11.5227688380181 | etot = -8.13378366799624
556000  ekin = 1.36589068757554 |  erot = 2.07909837609474 | epot = -11.5787727324803 | etot = -8.13378366881005
557000  ekin = 1.42857577084349 |  erot = 2.09193210847118 | epot = -11.6542915491153 | etot = -8.13378366980064
558000  ekin = 1.50275359964642 |  erot = 2.0971531414025 | epot = -11.7336904117795 | etot = -8.13378367073055
559000  ekin = 1.5732183090821 |  erot = 2.09511862189602 | epot = -11.8021206023728 | etot = -8.13378367139464
560000  ekin = 1.62740172364156 |  erot = 2.08745496893393 | epot = -11.8486403643022 | etot = -8.13378367172671
561000  ekin = 1.65692416188639 |  erot = 2.07666092047554 | epot = -11.8673687541686 | etot = -8.1337836718067
562000  ekin = 1.65737426356301 |  erot = 2.06544534214492 | epot = -11.8566032774398 | etot = -8.13378367173188
563000  ekin = 1.62727808428054 |  erot = 2.05615555038101 | epot = -11.8172173064481 | etot = -8.13378367178653
564000  ekin = 1.56679933056227 |  erot = 2.05047511799567 | epot = -11.7510581199095 | etot = -8.13378367135161
565000  ekin = 1.48206055329241 |  erot = 2.04917576858623 | epot = -11.6650199925243 | etot = -8.13378367064571
566000  ekin = 1.38423866544633 |  erot = 2.05221850150355 | epot = -11.5702408367324 | etot = -8.13378366978251
567000  ekin = 1.28749391779739 |  erot = 2.05873429505507 | epot = -11.4800118818374 | etot = -8.1337836689849
568000  ekin = 1.20570431103048 |  erot = 2.06705692034106 | epot = -11.4065448998275 | etot = -8.13378366845593
569000  ekin = 1.14918558023023 |  erot = 2.07495244466236 | epot = -11.3579216931806 | etot = -8.13378366828806
570000  ekin = 1.12276449646133 |  erot = 2.0800727296248 | epot = -11.3366208945299 | etot = -8.13378366844375
571000  ekin = 1.12567595872038 |  erot = 2.08050218013808 | epot = -11.3399618076578 | etot = -8.13378366879936
572000  ekin = 1.15294903410684 |  erot = 2.07519259345207 | epot = -11.3619252967597 | etot = -8.1337836692008
573000  ekin = 1.19838854918916 |  erot = 2.06451015558718 | epot = -11.3966823740033 | etot = -8.13378366922693
574000  ekin = 1.25460427389363 |  erot = 2.04968889738792 | epot = -11.4380768408067 | etot = -8.13378366952511
575000  ekin = 1.31454735695641 |  erot = 2.03199549862925 | epot = -11.4803265251173 | etot = -8.1337836695316
576000  ekin = 1.37512583611565 |  erot = 2.01319845741347 | epot = -11.5221079628331 | etot = -8.13378366930401
577000  ekin = 1.43682760503374 |  erot = 1.99528982934824 | epot = -11.5659011033457 | etot = -8.13378366896374
578000  ekin = 1.50235588202076 |  erot = 1.98017269182895 | epot = -11.6163122424743 | etot = -8.13378366862455
579000  ekin = 1.57520818416944 |  erot = 1.96938672247359 | epot = -11.6783785750011 | etot = -8.13378366835812
580000  ekin = 1.65868462493027 |  erot = 1.96390249857606 | epot = -11.7563707921455 | etot = -8.13378366863916
581000  ekin = 1.75247311826583 |  erot = 1.964193085348 | epot = -11.8504498724769 | etot = -8.1337836688631
582000  ekin = 1.85283782857648 |  erot = 1.96967477641674 | epot = -11.9562962743711 | etot = -8.13378366937788
583000  ekin = 1.95429754597291 |  erot = 1.97826405495591 | epot = -12.066345271253 | etot = -8.13378367032418
584000  ekin = 2.04662916571901 |  erot = 1.98631443704582 | epot = -12.1667272745352 | etot = -8.13378367177041
585000  ekin = 2.11419694671166 |  erot = 1.98862566442593 | epot = -12.2366062846758 | etot = -8.13378367353824
586000  ekin = 2.13871236987807 |  erot = 1.97915340581891 | epot = -12.2516494507778 | etot = -8.13378367508081
587000  ekin = 2.10465783247187 |  erot = 1.95256271523672 | epot = -12.1910042235991 | etot = -8.13378367589049
588000  ekin = 2.00543191748367 |  erot = 1.90599988278188 | epot = -12.0452154755429 | etot = -8.13378367527739
589000  ekin = 1.85115446103193 |  erot = 1.84021509336813 | epot = -11.8251532276766 | etot = -8.13378367327653
590000  ekin = 1.66921622806881 |  erot = 1.7593335110468 | epot = -11.5623334095075 | etot = -8.13378367039186
591000  ekin = 1.4977485483699 |  erot = 1.66961531493353 | epot = -11.301147530791 | etot = -8.13378366748759
592000  ekin = 1.3741820859932 |  erot = 1.57786762200031 | epot = -11.0858333735134 | etot = -8.13378366551992
593000  ekin = 1.32230765433201 |  erot = 1.49017042368006 | epot = -10.9462617430894 | etot = -8.13378366507729
594000  ekin = 1.34433584581037 |  erot = 1.41110289037398 | epot = -10.8892224022201 | etot = -8.13378366603572
595000  ekin = 1.42313762141316 |  erot = 1.34352894995369 | epot = -10.9004502389494 | etot = -8.13378366758259
596000  ekin = 1.53140640357297 |  erot = 1.2890571416378 | epot = -10.954247214935 | etot = -8.13378366972426
597000  ekin = 1.63793776665428 |  erot = 1.24822708399061 | epot = -11.0199485217856 | etot = -8.13378367114073
598000  ekin = 1.71853369497769 |  erot = 1.2204230558525 | epot = -11.0727404229811 | etot = -8.13378367215094
599000  ekin = 1.75676579673027 |  erot = 1.20417119499066 | epot = -11.0947206644564 | etot = -8.1337836727355
600000  ekin = 1.74415562351976 |  erot = 1.19748501258577 | epot = -11.0754243089205 | etot = -8.13378367281501
601000  ekin = 1.68078686628586 |  erot = 1.19842786468434 | epot = -11.0129984032571 | etot = -8.13378367228694
602000  ekin = 1.57592768465231 |  erot = 1.20571835984157 | epot = -10.9154297156343 | etot = -8.13378367114043
603000  ekin = 1.44736021988517 |  erot = 1.21906556666636 | epot = -10.8002094561225 | etot = -8.13378366957098
604000  ekin = 1.31829530123861 |  erot = 1.23900632721026 | epot = -10.6910852964334 | etot = -8.13378366798455
605000  ekin = 1.21203583246857 |  erot = 1.26625018196504 | epot = -10.6120696811956 | etot = -8.13378366676199
606000  ekin = 1.14717881943141 |  erot = 1.30114918573908 | epot = -10.5821116711541 | etot = -8.13378366598363
607000  ekin = 1.13493137969479 |  erot = 1.34344256501772 | epot = -10.6121576106247 | etot = -8.13378366591218
608000  ekin = 1.17769398074636 |  erot = 1.39211398656162 | epot = -10.7035916336137 | etot = -8.13378366630573
609000  ekin = 1.27083042497278 |  erot = 1.44572829443333 | epot = -10.8503423864876 | etot = -8.13378366708152
610000  ekin = 1.40359308953523 |  erot = 1.50241692808371 | epot = -11.0397936861299 | etot = -8.13378366851095
611000  ekin = 1.55996607947085 |  erot = 1.55982171139623 | epot = -11.253571460636 | etot = -8.13378366976893
612000  ekin = 1.72323074885771 |  erot = 1.61567444068065 | epot = -11.4726888606333 | etot = -8.13378367109498
613000  ekin = 1.87623356286519 |  erot = 1.6673223462411 | epot = -11.6773395814989 | etot = -8.13378367239258
614000  ekin = 2.00332542687796 |  erot = 1.7118578677057 | epot = -11.848966967905 | etot = -8.13378367332138
615000  ekin = 2.0938447106915 |  erot = 1.74706892485491 | epot = -11.9746973091449 | etot = -8.13378367359853
616000  ekin = 2.14582652012112 |  erot = 1.77208418550434 | epot = -12.051694378647 | etot = -8.13378367302157
617000  ekin = 2.16764032551907 |  erot = 1.787864761544 | epot = -12.0892887588653 | etot = -8.13378367180225
618000  ekin = 2.17543321836212 |  erot = 1.79702594193842 | epot = -12.1062428306546 | etot = -8.1337836703541
619000  ekin = 2.1876501512488 |  erot = 1.8030963157551 | epot = -12.124530136227 | etot = -8.13378366922312
620000  ekin = 2.21827388575881 |  erot = 1.80941579610169 | epot = -12.1614733506214 | etot = -8.13378366876093
621000  ekin = 2.27256724286288 |  erot = 1.81817906105508 | epot = -12.2245299729512 | etot = -8.13378366903325
622000  ekin = 2.34686215368936 |  erot = 1.82980019933667 | epot = -12.3104460229147 | etot = -8.13378366988869
623000  ekin = 2.4307948396215 |  erot = 1.84272954678992 | epot = -12.4073080575094 | etot = -8.13378367109801
624000  ekin = 2.51074859399526 |  erot = 1.85365912854803 | epot = -12.4981913948869 | etot = -8.1337836723436
625000  ekin = 2.57376014758728 |  erot = 1.85839628629478 | epot = -12.5659401070749 | etot = -8.13378367319283
626000  ekin = 2.61178608744766 |  erot = 1.85335246050013 | epot = -12.5989222212804 | etot = -8.13378367333261
627000  ekin = 2.6243966691599 |  erot = 1.83675929860226 | epot = -12.5949396406032 | etot = -8.13378367284104
628000  ekin = 2.61715143116715 |  erot = 1.80883297814718 | epot = -12.5597680815357 | etot = -8.1337836722214
629000  ekin = 2.59614002780091 |  erot = 1.77076928021921 | epot = -12.5006929799575 | etot = -8.1337836719374
630000  ekin = 2.56316564608668 |  erot = 1.723688622724 | epot = -12.4206379408549 | etot = -8.13378367204425
631000  ekin = 2.51545670840082 |  erot = 1.66841938704622 | epot = -12.3176597676969 | etot = -8.13378367224985
632000  ekin = 2.4489810628424 |  erot = 1.60594586085273 | epot = -12.1887105959476 | etot = -8.13378367225249
633000  ekin = 2.36287257797967 |  erot = 1.53782426737418 | epot = -12.0344805167116 | etot = -8.1337836713577
634000  ekin = 2.26405242524487 |  erot = 1.46623278030137 | epot = -11.8640688761309 | etot = -8.13378367058465
635000  ekin = 2.16101755721023 |  erot = 1.39475566087719 | epot = -11.6895568877986 | etot = -8.13378366971122
636000  ekin = 2.06475253332371 |  erot = 1.32686506233873 | epot = -11.5254012642579 | etot = -8.13378366859544
637000  ekin = 1.98973271037489 |  erot = 1.26596624428898 | epot = -11.3894826221215 | etot = -8.1337836674576
638000  ekin = 1.95146778322825 |  erot = 1.21514985243662 | epot = -11.3004013022987 | etot = -8.13378366663381
639000  ekin = 1.96182069136293 |  erot = 1.17695161175979 | epot = -11.272555969308 | etot = -8.13378366618532
640000  ekin = 2.02679898932639 |  erot = 1.15239183903012 | epot = -11.3129744949322 | etot = -8.13378366657568
641000  ekin = 2.14199910312227 |  erot = 1.14071086556531 | epot = -11.4164936363349 | etot = -8.13378366764727
642000  ekin = 2.29285046318152 |  erot = 1.13915186811449 | epot = -11.5657860007545 | etot = -8.13378366945849
643000  ekin = 2.45552552112392 |  erot = 1.14338828233112 | epot = -11.7326974750702 | etot = -8.13378367161514
644000  ekin = 2.60133752583305 |  erot = 1.14835367490429 | epot = -11.8834748743272 | etot = -8.1337836735899
645000  ekin = 2.70371430392415 |  erot = 1.14938437136379 | epot = -11.9868823501667 | etot = -8.1337836748788
646000  ekin = 2.744636075582 |  erot = 1.14332224209664 | epot = -12.0217419928935 | etot = -8.13378367521483
647000  ekin = 2.71817787236065 |  erot = 1.12915792946784 | epot = -11.9811194764621 | etot = -8.13378367463366
648000  ekin = 2.63028246065005 |  erot = 1.10798613625818 | epot = -11.872052270303 | etot = -8.13378367339473
649000  ekin = 2.49559189346646 |  erot = 1.08245328244387 | epot = -11.7118288477749 | etot = -8.13378367186454
650000  ekin = 2.33293161554164 |  erot = 1.05592857135036 | epot = -11.5226438572628 | etot = -8.13378367037085
651000  ekin = 2.16312160403298 |  erot = 1.03179243268154 | epot = -11.3286977053646 | etot = -8.13378366865011
652000  ekin = 2.00437764472146 |  erot = 1.01263346474868 | epot = -11.1507947776017 | etot = -8.13378366813157
653000  ekin = 1.86320148187803 |  erot = 0.999771298662386 | epot = -10.9967564484983 | etot = -8.13378366795787
654000  ekin = 1.74159938814689 |  erot = 0.993638993393247 | epot = -10.8690220495596 | etot = -8.13378366801952
655000  ekin = 1.63877614369039 |  erot = 0.99396111060154 | epot = -10.7665209224779 | etot = -8.13378366818596
656000  ekin = 1.55293696393068 |  erot = 0.999977751464522 | epot = -10.6866983837236 | etot = -8.1337836683284
657000  ekin = 1.4830110556397 |  erot = 1.01069155837519 | epot = -10.6274862823631 | etot = -8.13378366834819
658000  ekin = 1.42991653831793 |  erot = 1.02511295990871 | epot = -10.5888131664256 | etot = -8.13378366819894
[...]
836000  ekin = 1.56059049298033 |  erot = 1.69176136007029 | epot = -11.3861355304923 | etot = -8.13378367744166
837000  ekin = 1.46494691496556 |  erot = 1.67922598580687 | epot = -11.2779565658808 | etot = -8.13378366510835
838000  ekin = 1.41623376459279 |  erot = 1.68359587929023 | epot = -11.2336133181403 | etot = -8.13378367425731
839000  ekin = 1.38164226014501 |  erot = 1.69827238735174 | epot = -11.2136983221133 | etot = -8.13378367461659
840000  ekin = 1.37281419718589 |  erot = 1.71791872249748 | epot = -11.2245165947878 | etot = -8.13378367510438
841000  ekin = 1.38251849199312 |  erot = 1.74222357843919 | epot = -11.2585257460257 | etot = -8.1337836755934
842000  ekin = 1.40440815950989 |  erot = 1.77053653194949 | epot = -11.3087283675096 | etot = -8.1337836760502
843000  ekin = 1.43288889939346 |  erot = 1.80208713639206 | epot = -11.36875971227 | etot = -8.13378367648447
844000  ekin = 1.46337505833392 |  erot = 1.83581425241861 | epot = -11.4329729876798 | etot = -8.13378367692722
845000  ekin = 1.49225138986042 |  erot = 1.87011931161695 | epot = -11.4961543788775 | etot = -8.13378367740011
846000  ekin = 1.51675477488435 |  erot = 1.90271354937653 | epot = -11.5532520021354 | etot = -8.13378367787456
847000  ekin = 1.53514567596946 |  erot = 1.93076451186911 | epot = -11.5996938660634 | etot = -8.13378367822481
848000  ekin = 1.5475881716074 |  erot = 1.9514972978589 | epot = -11.632869147723 | etot = -8.1337836782567
849000  ekin = 1.55740275322743 |  erot = 1.9631393326447 | epot = -11.6543257637317 | etot = -8.13378367785955
850000  ekin = 1.57132389425342 |  erot = 1.96572299080043 | epot = -11.6708305622391 | etot = -8.13378367718525
851000  ekin = 1.59707563447322 |  erot = 1.96110149884602 | epot = -11.6919608099609 | etot = -8.13378367664163
852000  ekin = 1.63865350802047 |  erot = 1.95197424600859 | epot = -11.7244114307046 | etot = -8.1337836766755
853000  ekin = 1.69191652794579 |  erot = 1.94037118794228 | epot = -11.76607139336 | etot = -8.13378367747194
854000  ekin = 1.74370784126291 |  erot = 1.92645693876828 | epot = -11.8039484587425 | etot = -8.13378367871129
855000  ekin = 1.77620146931273 |  erot = 1.90847432072674 | epot = -11.818459469993 | etot = -8.13378367995357
856000  ekin = 1.77433273173135 |  erot = 1.88315818040523 | epot = -11.7912745926414 | etot = -8.13378368050482
857000  ekin = 1.73346273143704 |  erot = 1.84735528760624 | epot = -11.7146016990445 | etot = -8.13378368000122
858000  ekin = 1.66317903320086 |  erot = 1.79946643714417 | epot = -11.5964291488827 | etot = -8.13378367853766
859000  ekin = 1.58513293484139 |  erot = 1.74007953892668 | epot = -11.458996150389 | etot = -8.13378367662096
860000  ekin = 1.52581941755169 |  erot = 1.67168470790424 | epot = -11.331287800361 | etot = -8.1337836749051
861000  ekin = 1.50775028697231 |  erot = 1.59782760957668 | epot = -11.2393615704181 | etot = -8.1337836738691
862000  ekin = 1.54306866341494 |  erot = 1.52225954455881 | epot = -11.1991118816238 | etot = -8.13378367365005
863000  ekin = 1.63171594645684 |  erot = 1.4484512777512 | epot = -11.2139508982985 | etot = -8.13378367409045
864000  ekin = 1.76367870734132 |  erot = 1.37946094103656 | epot = -11.2769233232937 | etot = -8.13378367491581
865000  ekin = 1.92306453000344 |  erot = 1.31796433803999 | epot = -11.374812543916 | etot = -8.13378367587256
866000  ekin = 2.09215456398996 |  erot = 1.26628926074898 | epot = -11.4922275013027 | etot = -8.13378367656379
867000  ekin = 2.25558706658228 |  erot = 1.22649711213513 | epot = -11.6158678560148 | etot = -8.13378367729736
868000  ekin = 2.40057443601768 |  erot = 1.20017706609103 | epot = -11.7345351799089 | etot = -8.13378367780019
869000  ekin = 2.51819395230402 |  erot = 1.18842551997292 | epot = -11.8404031503536 | etot = -8.13378367807667
870000  ekin = 2.60380767640006 |  erot = 1.19178595733222 | epot = -11.9293773119552 | etot = -8.13378367822295
871000  ekin = 2.65597330550025 |  erot = 1.2100890019769 | epot = -11.9998459858056 | etot = -8.13378367832845
872000  ekin = 2.67413391804158 |  erot = 1.24223617488104 | epot = -12.0501537716578 | etot = -8.13378367873519
873000  ekin = 2.65523813357981 |  erot = 1.28590823790636 | epot = -12.0749300508519 | etot = -8.13378367936569
874000  ekin = 2.59426343770237 |  erot = 1.33769628220084 | epot = -12.0657433999318 | etot = -8.13378368002863
875000  ekin = 2.48661885037869 |  erot = 1.39359938802698 | epot = -12.0140019187687 | etot = -8.13378368036305
876000  ekin = 2.3325716344682 |  erot = 1.44985984558333 | epot = -11.9162151600516 | etot = -8.13378368000003
877000  ekin = 2.14151731726319 |  erot = 1.50380376851767 | epot = -11.7791047646106 | etot = -8.13378367882977
878000  ekin = 1.9328320049617 |  erot = 1.55419737766281 | epot = -11.6208130598149 | etot = -8.13378367719035
879000  ekin = 1.7311757375338 |  erot = 1.60084517557068 | epot = -11.4658045888545 | etot = -8.13378367575007
880000  ekin = 1.55787151453529 |  erot = 1.64373016650857 | epot = -11.3353853561002 | etot = -8.13378367505636
881000  ekin = 1.42384142286017 |  erot = 1.68244604710334 | epot = -11.2400711450968 | etot = -8.13378367513324
882000  ekin = 1.32893688630863 |  erot = 1.71640874325353 | epot = -11.1791293051203 | etot = -8.13378367555812
883000  ekin = 1.26714280246917 |  erot = 1.74554143071219 | epot = -11.1464679089137 | etot = -8.13378367573232
884000  ekin = 1.23268823978927 |  erot = 1.77071758428828 | epot = -11.1371895000291 | etot = -8.13378367595158
885000  ekin = 1.22008849612494 |  erot = 1.7931216686051 | epot = -11.1469938408411 | etot = -8.13378367611103
886000  ekin = 1.2253247993799 |  erot = 1.81382116066767 | epot = -11.1729296362917 | etot = -8.13378367624409
887000  ekin = 1.24494548115686 |  erot = 1.8333603965884 | epot = -11.2120895542136 | etot = -8.13378367646834
888000  ekin = 1.27500212875267 |  erot = 1.85168867131358 | epot = -11.2604744768214 | etot = -8.13378367675513
889000  ekin = 1.31152735197782 |  erot = 1.86844690158133 | epot = -11.3137579306675 | etot = -8.13378367710839
890000  ekin = 1.34986317506705 |  erot = 1.88304641086648 | epot = -11.366693263463 | etot = -8.13378367752949
891000  ekin = 1.38390530402723 |  erot = 1.89468392941472 | epot = -11.4123729115327 | etot = -8.13378367809074
892000  ekin = 1.4056939593949 |  erot = 1.90226748680413 | epot = -11.4417451252141 | etot = -8.13378367901505
893000  ekin = 1.40448288905364 |  erot = 1.90432470807527 | epot = -11.4425912768364 | etot = -8.13378367970753
894000  ekin = 1.37144289320793 |  erot = 1.89954369080315 | epot = -11.4047702640041 | etot = -8.13378367999306
895000  ekin = 1.30348485852156 |  erot = 1.88750423015747 | epot = -11.3247727648586 | etot = -8.13378367617955
896000  ekin = 1.22187336955615 |  erot = 1.87071061704799 | epot = -11.2263676621213 | etot = -8.13378367551712
897000  ekin = 1.14754845755141 |  erot = 1.85263803873205 | epot = -11.1339701707916 | etot = -8.13378367450818
898000  ekin = 1.08944016629691 |  erot = 1.83653761360572 | epot = -11.0597614538287 | etot = -8.13378367392606
899000  ekin = 1.05403951151006 |  erot = 1.82413022658184 | epot = -11.0119534116858 | etot = -8.13378367359388
900000  ekin = 1.04500203344446 |  erot = 1.81619426344812 | epot = -10.994979970496 | etot = -8.13378367360344
901000  ekin = 1.06222206934733 |  erot = 1.8123440310837 | epot = -11.0083497743595 | etot = -8.13378367392844
902000  ekin = 1.10209713935283 |  erot = 1.81111462916561 | epot = -11.0469954429736 | etot = -8.13378367445512
903000  ekin = 1.15876030908375 |  erot = 1.81037876576567 | epot = -11.1029227498814 | etot = -8.133783675032
904000  ekin = 1.22532881863849 |  erot = 1.80797942318881 | epot = -11.1670919177971 | etot = -8.13378367596983
905000  ekin = 1.29206809096935 |  erot = 1.80250391199268 | epot = -11.2283556794293 | etot = -8.13378367646727
906000  ekin = 1.35183435815479 |  erot = 1.79300035919243 | epot = -11.2786183941064 | etot = -8.13378367675922
907000  ekin = 1.3997999182264 |  erot = 1.77946415971456 | epot = -11.3130477549044 | etot = -8.13378367696348
908000  ekin = 1.43268044790834 |  erot = 1.76253539555357 | epot = -11.3289995204751 | etot = -8.13378367701317
909000  ekin = 1.44897967363112 |  erot = 1.74341748034194 | epot = -11.3261808308616 | etot = -8.13378367688856
910000  ekin = 1.44937912475448 |  erot = 1.72390580409483 | epot = -11.3070686054089 | etot = -8.13378367655958
911000  ekin = 1.43727653989154 |  erot = 1.70617572380865 | epot = -11.2772359397525 | etot = -8.13378367605232
912000  ekin = 1.41843448636244 |  erot = 1.69263823222815 | epot = -11.2448563940395 | etot = -8.13378367544888
913000  ekin = 1.40006194548143 |  erot = 1.68549440970377 | epot = -11.2193400300544 | etot = -8.13378367486918
914000  ekin = 1.38958826580783 |  erot = 1.68634774644355 | epot = -11.2097196867265 | etot = -8.13378367447512
915000  ekin = 1.39244841973003 |  erot = 1.69595180427737 | epot = -11.2221838984246 | etot = -8.13378367441721
916000  ekin = 1.41015014804868 |  erot = 1.71401831960836 | epot = -11.2579521424291 | etot = -8.13378367477205
917000  ekin = 1.4392962972226 |  erot = 1.73916764012751 | epot = -11.3122476128452 | etot = -8.13378367549508
918000  ekin = 1.47227942866918 |  erot = 1.76903078857887 | epot = -11.3750938936502 | etot = -8.13378367640215
919000  ekin = 1.49986621796558 |  erot = 1.80052098861358 | epot = -11.4341708837671 | etot = -8.13378367718791
920000  ekin = 1.51501277126177 |  erot = 1.83027923256497 | epot = -11.47907568142 | etot = -8.13378367759328
921000  ekin = 1.50567012556585 |  erot = 1.85806253127122 | epot = -11.4975163336852 | etot = -8.13378367684813
922000  ekin = 1.50530570224327 |  erot = 1.88405749197312 | epot = -11.5231468708389 | etot = -8.13378367662252
923000  ekin = 1.51005072191376 |  erot = 1.89398296774265 | epot = -11.5378173655129 | etot = -8.13378367585645
924000  ekin = 1.52928061141758 |  erot = 1.89561779711381 | epot = -11.5586820839691 | etot = -8.13378367543768
925000  ekin = 1.56873673267864 |  erot = 1.88910082656719 | epot = -11.5916212349651 | etot = -8.13378367571927
926000  ekin = 1.62371911818097 |  erot = 1.87429650776439 | epot = -11.6317993026299 | etot = -8.13378367668451
927000  ekin = 1.67952368644808 |  erot = 1.85068760938675 | epot = -11.6639949737938 | etot = -8.13378367795893
928000  ekin = 1.71651231901818 |  erot = 1.81783745876575 | epot = -11.6681334568181 | etot = -8.13378367903418
929000  ekin = 1.71702542960752 |  erot = 1.77614095786796 | epot = -11.6269500669844 | etot = -8.13378367950894
930000  ekin = 1.67099557211838 |  erot = 1.7274288922438 | epot = -11.5322081435662 | etot = -8.13378367920398
931000  ekin = 1.57874461917618 |  erot = 1.67513458289526 | epot = -11.3876628802403 | etot = -8.13378367816882
932000  ekin = 1.4507920768008 |  erot = 1.62392798760098 | epot = -11.2085037410289 | etot = -8.13378367662711
933000  ekin = 1.30531755494448 |  erot = 1.57894109498966 | epot = -11.018042324831 | etot = -8.1337836748969
934000  ekin = 1.16422088167371 |  erot = 1.54485802656028 | epot = -10.8428625815313 | etot = -8.13378367329727
935000  ekin = 1.04864497283229 |  erot = 1.52509209112999 | epot = -10.7075207361246 | etot = -8.13378367216232
936000  ekin = 0.974709276492776 |  erot = 1.52116328044459 | epot = -10.6296562286223 | etot = -8.13378367168494
937000  ekin = 0.950462282016656 |  erot = 1.53244919686212 | epot = -10.6166951508385 | etot = -8.13378367195971
938000  ekin = 0.974421294284288 |  erot = 1.55616007219735 | epot = -10.6643650394247 | etot = -8.13378367294306
939000  ekin = 1.03606886900089 |  erot = 1.58755449752601 | epot = -10.7574070409824 | etot = -8.13378367445547
940000  ekin = 1.1182684113919 |  erot = 1.62042989204406 | epot = -10.8724819796331 | etot = -8.13378367619717
941000  ekin = 1.20122028724958 |  erot = 1.64794232232013 | epot = -10.9829462873571 | etot = -8.13378367778742
942000  ekin = 1.26717763839312 |  erot = 1.66371923985981 | epot = -11.0646805571373 | etot = -8.13378367888438
943000  ekin = 1.30509212601128 |  erot = 1.66314531309206 | epot = -11.1020211182277 | etot = -8.13378367912435
944000  ekin = 1.31392377996911 |  erot = 1.64449670956111 | epot = -11.0922041680488 | etot = -8.13378367851861
945000  ekin = 1.30237464540686 |  erot = 1.60929976269543 | epot = -11.0454580854524 | etot = -8.13378367735008
946000  ekin = 1.28506402585559 |  erot = 1.56181036928443 | epot = -10.9806580712548 | etot = -8.13378367611474
947000  ekin = 1.27634123306472 |  erot = 1.50774431584928 | epot = -10.9178692241958 | etot = -8.13378367528185
948000  ekin = 1.28467886384667 |  erot = 1.45281196796929 | epot = -10.8712745068834 | etot = -8.13378367506747
949000  ekin = 1.31037739966444 |  erot = 1.4015724009042 | epot = -10.845733475945 | etot = -8.13378367537636
950000  ekin = 1.34722619730445 |  erot = 1.3568868930793 | epot = -10.8378967663129 | etot = -8.13378367592918
951000  ekin = 1.38650860378931 |  erot = 1.31991932975183 | epot = -10.8402116099744 | etot = -8.13378367643326
952000  ekin = 1.42144708624314 |  erot = 1.29081153328224 | epot = -10.8460422961592 | etot = -8.13378367663378
953000  ekin = 1.44882630067214 |  erot = 1.26905801004898 | epot = -10.8516679874738 | etot = -8.13378367675266
954000  ekin = 1.46839021307718 |  erot = 1.25288009019966 | epot = -10.8550539798531 | etot = -8.13378367657631
955000  ekin = 1.48389177785595 |  erot = 1.24071488980735 | epot = -10.8583903439438 | etot = -8.13378367628045
956000  ekin = 1.50041047950534 |  erot = 1.23152279455205 | epot = -10.8657169501392 | etot = -8.1337836760818
957000  ekin = 1.52124213092013 |  erot = 1.2248104773485 | epot = -10.879836284368 | etot = -8.13378367609941
958000  ekin = 1.54632228820822 |  erot = 1.22051885655829 | epot = -10.9006248210289 | etot = -8.13378367626243
959000  ekin = 1.57324295712668 |  erot = 1.21891909920002 | epot = -10.9259457327015 | etot = -8.13378367637477
960000  ekin = 1.59969207344602 |  erot = 1.22060655525412 | epot = -10.9540823050919 | etot = -8.13378367639174
961000  ekin = 1.62253441996171 |  erot = 1.22677322915566 | epot = -10.9830913253843 | etot = -8.13378367626691
962000  ekin = 1.64127230147935 |  erot = 1.23851880603448 | epot = -11.0135747836412 | etot = -8.13378367612736
963000  ekin = 1.65616191466682 |  erot = 1.25678968602508 | epot = -11.0467352768412 | etot = -8.13378367614927
964000  ekin = 1.66566514854511 |  erot = 1.28218253503938 | epot = -11.0816313598357 | etot = -8.13378367625117
965000  ekin = 1.66770285430116 |  erot = 1.31455464298714 | epot = -11.1160411738658 | etot = -8.13378367657753
966000  ekin = 1.65810694854125 |  erot = 1.35314679644672 | epot = -11.1450374218014 | etot = -8.13378367681348
967000  ekin = 1.63401913508899 |  erot = 1.39653020178946 | epot = -11.1643330138152 | etot = -8.13378367693677
968000  ekin = 1.59493850092154 |  erot = 1.44254096564059 | epot = -11.1712631436315 | etot = -8.13378367706939
969000  ekin = 1.54116623552017 |  erot = 1.48830566532219 | epot = -11.1632555781849 | etot = -8.13378367734257
970000  ekin = 1.47195250632947 |  erot = 1.53048571049902 | epot = -11.1362218945415 | etot = -8.13378367771304
971000  ekin = 1.38571362597403 |  erot = 1.56593199201498 | epot = -11.0854292956026 | etot = -8.13378367761359
972000  ekin = 1.2844612417634 |  erot = 1.5927702433258 | epot = -11.0110151625437 | etot = -8.13378367745447
973000  ekin = 1.17320808893134 |  erot = 1.61049478745248 | epot = -10.9174865530745 | etot = -8.13378367669067
974000  ekin = 1.063134217545 |  erot = 1.62023440891558 | epot = -10.8171523018864 | etot = -8.13378367542583
975000  ekin = 0.970987628511461 |  erot = 1.62445058186299 | epot = -10.729221884475 | etot = -8.13378367410056
976000  ekin = 0.913517833540499 |  erot = 1.62592321100425 | epot = -10.6732247178428 | etot = -8.13378367329807
977000  ekin = 0.900210296810119 |  erot = 1.62660680819932 | epot = -10.6606007783876 | etot = -8.13378367337816
978000  ekin = 0.928774958127715 |  erot = 1.62702792958257 | epot = -10.689586561963 | etot = -8.1337836742527
979000  ekin = 0.986309688868686 |  erot = 1.62661906217909 | epot = -10.7467124264037 | etot = -8.13378367535593
980000  ekin = 1.05604184520662 |  erot = 1.62477777714318 | epot = -10.8146032984793 | etot = -8.13378367612947
981000  ekin = 1.1246974517273 |  erot = 1.62193499902994 | epot = -10.8804161270463 | etot = -8.13378367628903
982000  ekin = 1.18655422477308 |  erot = 1.61989865458109 | epot = -10.9402365552591 | etot = -8.13378367590495
983000  ekin = 1.2432339331173 |  erot = 1.62138932845409 | epot = -10.9984069368238 | etot = -8.13378367525236
984000  ekin = 1.3007289232663 |  erot = 1.62917854668228 | epot = -11.0636911445781 | etot = -8.13378367462955
985000  ekin = 1.36575798905031 |  erot = 1.64530549608379 | epot = -11.1448471593989 | etot = -8.13378367426479
986000  ekin = 1.44269014496135 |  erot = 1.67060135311584 | epot = -11.2470751723821 | etot = -8.13378367430487
987000  ekin = 1.53139017712842 |  erot = 1.70450616306297 | epot = -11.3696800150103 | etot = -8.1337836748189
988000  ekin = 1.62542516993083 |  erot = 1.74490462825212 | epot = -11.5041134740412 | etot = -8.13378367585821
989000  ekin = 1.70973314356223 |  erot = 1.78758053837793 | epot = -11.6310973591265 | etot = -8.13378367718631
990000  ekin = 1.76834990596683 |  erot = 1.82854800940128 | epot = -11.7306815937548 | etot = -8.13378367838671
991000  ekin = 1.78717585114204 |  erot = 1.86445265633072 | epot = -11.7854121865501 | etot = -8.13378367907737
992000  ekin = 1.75808068877046 |  erot = 1.89344947238099 | epot = -11.785313840188 | etot = -8.13378367903651
993000  ekin = 1.68149922524843 |  erot = 1.91587779016308 | epot = -11.7311606936924 | etot = -8.13378367828091
994000  ekin = 1.56634005404157 |  erot = 1.93428820638793 | epot = -11.6344119374165 | etot = -8.13378367698701
995000  ekin = 1.42807354955332 |  erot = 1.95281321310297 | epot = -11.5146704380736 | etot = -8.13378367541727
996000  ekin = 1.28578074304376 |  erot = 1.97614374534339 | epot = -11.3957081622749 | etot = -8.13378367388774
997000  ekin = 1.15849050556427 |  erot = 2.00849321106801 | epot = -11.3007673893125 | etot = -8.1337836726802
998000  ekin = 1.06172554858003 |  erot = 2.05288173951555 | epot = -11.2483909600472 | etot = -8.13378367195161
999000  ekin = 1.00534863971574 |  erot = 2.11083351411326 | epot = -11.2499658255692 | etot = -8.13378367174015
1000000  ekin = 0.992888354298654 |  erot = 2.182321071549 | epot = -11.3089930978744 | etot = -8.13378367202676
 1000000  0.073547286   -1.1520387  0.021139403   -1.0316105 -4.7686302e-05        64000 
Loop time of 17.4426 on 1 procs for 1000000 steps with 10 atoms

Performance: 49534.033 tau/day, 57331.057 timesteps/s
99.7% CPU use with 1 MPI tasks x no OpenMP threads

MPI task timing breakdown:
Section |  min time  |  avg time  |  max time  |%varavg| %total
---------------------------------------------------------------
Pair    | 14.806     | 14.806     | 14.806     |   0.0 | 84.88
Bond    | 0.62301    | 0.62301    | 0.62301    |   0.0 |  3.57
Neigh   | 0.008078   | 0.008078   | 0.008078   |   0.0 |  0.05
Comm    | 0.18244    | 0.18244    | 0.18244    |   0.0 |  1.05
Output  | 0.099253   | 0.099253   | 0.099253   |   0.0 |  0.57
Modify  | 1.4674     | 1.4674     | 1.4674     |   0.0 |  8.41
Other   |            | 0.2565     |            |       |  1.47

Nlocal:        10.0000 ave          10 max          10 min
Histogram: 1 0 0 0 0 0 0 0 0 0
Nghost:         0.00000 ave           0 max           0 min
Histogram: 1 0 0 0 0 0 0 0 0 0
Neighs:        37.0000 ave          37 max          37 min
Histogram: 1 0 0 0 0 0 0 0 0 0

Total # of neighbors = 37
Ave neighs/atom = 3.7000000
Ave special neighs/atom = 3.6000000
Neighbor list builds = 1000
Dangerous builds = 0

write_data last_config.${number}.* nocoeff
write_data last_config.3.* nocoeff
System init for write_data ...
Total wall time: 0:00:17
