LAMMPS data file for polygons: squares of edge length L: Izz = 1/6mL^2
2 atoms
2 bodies
1 atom types
-6 6 xlo xhi
-6 6 ylo yhi
-0.5 0.5 zlo zhi

Atoms

1 1 1 1 0 0 0
2 1 1 1 5 1 0

Bodies

1 1 19
4
1 1 2.67 0 0 0
-2 -2 0
-2 2 0
2 2 0
2 -2 0
0.5
2 1 19
4
1 1 2.67 0 0 0
-2 -2 0
-2 2 0
2 2 0
2 -2 0
0.5

