LAMMPS (27 Jan 2013)
# 2d polygon nparticle bodies

units		lj
dimension       2
atom_style	body nparticle 2 6

read_data       data.body
  orthogonal box = (-15.5322 -15.5322 -0.5) to (15.5322 15.5322 0.5)
  2 by 1 by 1 MPI processor grid
  100 atoms
  100 bodies

velocity	all create 1.44 87287 loop geom

pair_style	body 5.0
pair_coeff	* * 1.0 1.0

neighbor	0.3 bin

fix		1 all nve/body
fix		2 all enforce2d

compute         1 all body/local type 1 2 3
dump            2 all local 100 dump.body index c_1[1] c_1[2] c_1[3] c_1[4]

thermo          500
run		10000
Memory usage per processor = 3.4303 Mbytes
Step Temp E_pair E_mol TotEng Press 
       0         1.44  -0.63799525            0   0.78760475  -0.15028724 
     500    1.5537157   -1.5243356            0  0.013843001    0.2654775 
    1000    1.5681616   -1.8003444            0   -0.2478644   0.07601415 
    1500    1.6994347   -1.7246456            0 -0.042205232    0.3664501 
    2000    1.6586967   -1.6970079            0 -0.054898132    0.1013876 
    2500    1.7943064   -1.8233324            0 -0.046969013   0.35643174 
    3000    1.7355506    -1.799582            0 -0.081386908   0.18919569 
    3500    1.7000767   -1.7231043            0 -0.040028341   0.30290232 
    4000    1.6930311   -1.7576092            0  -0.08150844   0.30834318 
    4500    1.7386122   -1.7631104            0 -0.041884373   0.29240818 
    5000      1.57071   -1.8286473            0  -0.27364441   0.25926746 
    5500    1.5922931   -1.6515552            0  -0.07518501   0.23135944 
    6000    1.6860919    -1.712596            0 -0.043365016   0.22250261 
    6500    1.4659862   -1.5948003            0  -0.14347396   0.17414312 
    7000    1.6578388   -1.7869357            0  -0.14567529   0.20935119 
    7500    1.8374862   -1.7395846            0  0.079526686    0.3752619 
    8000    1.6424345   -1.6536472            0 -0.027637089   0.32951585 
    8500    1.5748788   -1.6941696            0  -0.13503954   0.10036347 
    9000    1.6742149   -1.6396074            0  0.017865361   0.37994919 
    9500    1.6805117   -1.6372994            0  0.026407243   0.30494031 
   10000    1.7515522   -1.7145205            0  0.019516206  0.086555974 
Loop time of 1.17662 on 2 procs for 10000 steps with 100 atoms

Pair  time (%) = 0.914773 (77.7458)
Neigh time (%) = 0.00833547 (0.708425)
Comm  time (%) = 0.117286 (9.96807)
Outpt time (%) = 0.0376686 (3.20142)
Other time (%) = 0.098557 (8.37628)

Nlocal:    50 ave 52 max 48 min
Histogram: 1 0 0 0 0 0 0 0 0 1
Nghost:    63 ave 66 max 60 min
Histogram: 1 0 0 0 0 0 0 0 0 1
Neighs:    214.5 ave 234 max 195 min
Histogram: 1 0 0 0 0 0 0 0 0 1

Total # of neighbors = 429
Ave neighs/atom = 4.29
Neighbor list builds = 810
Dangerous builds = 122
