LAMMPS data file for Nanoparticles
270 atoms
2 atom types
-13.2934038818 13.2934038818 xlo xhi
-13.2934038818 13.2934038818 ylo yhi
-0.5 0.5 zlo zhi

Atoms

1 1 1 1 3.07843 1.22935 0 0 0 0
2 1 1 1 1.86321 2.27014 0 0 0 0
3 1 1 1 2.47082 1.74975 0 0 0 0
4 1 1 1 3.68604 0.708961 0 0 0 0
5 1 1 1 4.29365 0.188568 0 0 0 0
6 1 1 1 2.03764 0.0141312 0 0 0 0
7 1 1 1 2.55804 0.621742 0 0 0 0
8 1 1 1 3.59882 1.83696 0 0 0 0
9 1 1 1 4.11921 2.44458 0 0 0 0
10 1 1 1 11.9265 10.3133 0 0 0 0
11 1 1 1 12.507 8.82229 0 0 0 0
12 1 1 1 12.2167 9.56778 0 0 0 0
13 1 1 1 11.6362 11.0588 0 0 0 0
14 1 1 1 11.346 11.8042 0 0 0 0
15 1 1 1 -13.1694 10.8938 0 1 0 0
16 1 1 1 12.672 10.6035 0 0 0 0
17 1 1 1 11.181 10.023 0 0 0 0
18 1 1 1 10.4355 9.73276 0 0 0 0
19 1 1 1 2.92771 -6.14972 0 0 0 0
20 1 1 1 2.0477 -4.81346 0 0 0 0
21 1 1 1 2.48771 -5.48159 0 0 0 0
22 1 1 1 3.36771 -6.81785 0 0 0 0
23 1 1 1 3.80772 -7.48598 0 0 0 0
24 1 1 1 1.59145 -7.02972 0 0 0 0
25 1 1 1 2.25958 -6.58972 0 0 0 0
26 1 1 1 3.59584 -5.70971 0 0 0 0
27 1 1 1 4.26397 -5.26971 0 0 0 0
28 1 1 1 11.9757 -12.7981 0 0 0 0
29 1 1 1 -13.1156 13.2199 0 1 -1 0
30 1 1 1 12.7234 -13.0825 0 0 0 0
31 1 1 1 11.228 -12.5136 0 0 0 0
32 1 1 1 10.4803 -12.2292 0 0 0 0
33 1 1 1 12.5446 -11.3026 0 0 0 0
34 1 1 1 12.2602 -12.0503 0 0 0 0
35 1 1 1 11.6913 13.041 0 0 -1 0
36 1 1 1 11.4068 12.2933 0 0 -1 0
37 1 1 1 11.222 0.827207 0 0 0 0
38 1 1 1 11.4061 2.41658 0 0 0 0
39 1 1 1 11.314 1.62189 0 0 0 0
40 1 1 1 11.1299 0.0325207 0 0 0 0
41 1 1 1 11.0379 -0.762166 0 0 0 0
42 1 1 1 9.6326 1.01131 0 0 0 0
43 1 1 1 10.4273 0.919258 0 0 0 0
44 1 1 1 12.0167 0.735157 0 0 0 0
45 1 1 1 12.8113 0.643107 0 0 0 0
46 1 1 1 -0.554263 -10.1185 0 0 0 0
47 1 1 1 -1.61026 -8.91649 0 0 0 0
48 1 1 1 -1.08226 -9.5175 0 0 0 0
49 1 1 1 -0.0262649 -10.7195 0 0 0 0
50 1 1 1 0.501733 -11.3205 0 0 0 0
51 1 1 1 -1.75629 -11.1745 0 0 0 0
52 1 1 1 -1.15528 -10.6465 0 0 0 0
53 1 1 1 0.0467508 -9.59052 0 0 0 0
54 1 1 1 0.647765 -9.06252 0 0 0 0
55 1 1 1 -5.47715 -10.9308 0 0 0 0
56 1 1 1 -6.45589 -12.1966 0 0 0 0
57 1 1 1 -5.96652 -11.5637 0 0 0 0
58 1 1 1 -4.98778 -10.298 0 0 0 0
59 1 1 1 -4.49841 -9.6651 0 0 0 0
60 1 1 1 -4.21142 -11.9096 0 0 0 0
61 1 1 1 -4.84429 -11.4202 0 0 0 0
62 1 1 1 -6.11001 -10.4415 0 0 0 0
63 1 1 1 -6.74288 -9.95209 0 0 0 0
64 1 1 1 11.7879 -5.528 0 0 0 0
65 1 1 1 10.627 -6.62904 0 0 0 0
66 1 1 1 11.2075 -6.07852 0 0 0 0
67 1 1 1 12.3684 -4.97748 0 0 0 0
68 1 1 1 12.9488 -4.42696 0 0 0 0
69 1 1 1 12.8889 -6.68891 0 0 0 0
70 1 1 1 12.3384 -6.10846 0 0 0 0
71 1 1 1 11.2374 -4.94755 0 0 0 0
72 1 1 1 10.6869 -4.36709 0 0 0 0
73 1 1 1 -7.98832 3.62673 0 0 0 0
74 1 1 1 -9.58568 3.71861 0 0 0 0
75 1 1 1 -8.787 3.67267 0 0 0 0
76 1 1 1 -7.18964 3.58078 0 0 0 0
77 1 1 1 -6.39096 3.53484 0 0 0 0
78 1 1 1 -8.08021 2.02937 0 0 0 0
79 1 1 1 -8.03427 2.82805 0 0 0 0
80 1 1 1 -7.94238 4.42541 0 0 0 0
81 1 1 1 -7.89644 5.22409 0 0 0 0
82 1 1 1 5.10949 -0.142019 0 0 0 0
83 1 1 1 4.9846 1.4531 0 0 0 0
84 1 1 1 5.04705 0.65554 0 0 0 0
85 1 1 1 5.17194 -0.939578 0 0 0 0
86 1 1 1 5.23439 -1.73714 0 0 0 0
87 1 1 1 3.51437 -0.266913 0 0 0 0
88 1 1 1 4.31193 -0.204466 0 0 0 0
89 1 1 1 5.90705 -0.0795721 0 0 0 0
90 1 1 1 6.70461 -0.0171252 0 0 0 0
91 1 1 1 -8.66384 2.7372 0 0 0 0
92 1 1 1 -8.49225 1.14643 0 0 0 0
93 1 1 1 -8.57805 1.94182 0 0 0 0
94 1 1 1 -8.74964 3.53259 0 0 0 0
95 1 1 1 -8.83543 4.32798 0 0 0 0
96 1 1 1 -7.07307 2.90879 0 0 0 0
97 1 1 1 -7.86846 2.823 0 0 0 0
98 1 1 1 -9.45923 2.65141 0 0 0 0
99 1 1 1 -10.2546 2.56561 0 0 0 0
100 1 1 1 11.5851 -10.359 0 0 0 0
101 1 1 1 9.99223 -10.5095 0 0 0 0
102 1 1 1 10.7887 -10.4343 0 0 0 0
103 1 1 1 12.3816 -10.2838 0 0 0 0
104 1 1 1 13.178 -10.2086 0 0 0 0
105 1 1 1 11.7356 -11.9519 0 0 0 0
106 1 1 1 11.6604 -11.1555 0 0 0 0
107 1 1 1 11.5099 -9.56258 0 0 0 0
108 1 1 1 11.4347 -8.76613 0 0 0 0
109 1 1 1 12.2327 -1.17301 0 0 0 0
110 1 1 1 -12.9416 -0.421424 0 1 0 0
111 1 1 1 12.9389 -0.797218 0 0 0 0
112 1 1 1 11.5264 -1.54881 0 0 0 0
113 1 1 1 10.8202 -1.9246 0 0 0 0
114 1 1 1 11.4811 0.239474 0 0 0 0
115 1 1 1 11.8569 -0.466769 0 0 0 0
116 1 1 1 12.6085 -1.87925 0 0 0 0
117 1 1 1 12.9843 -2.5855 0 0 0 0
118 1 1 1 13.2863 -0.20095 0 0 0 0
119 1 1 1 11.8698 -0.94506 0 0 0 0
120 1 1 1 12.5781 -0.573005 0 0 0 0
121 1 1 1 -12.5923 0.171106 0 1 0 0
122 1 1 1 -11.8841 0.543161 0 1 0 0
123 1 1 1 -12.5564 -1.61739 0 1 0 0
124 1 1 1 -12.9285 -0.909169 0 1 0 0
125 1 1 1 12.9142 0.50727 0 0 0 0
126 1 1 1 12.5422 1.21549 0 0 0 0
127 1 1 1 9.23705 6.72763 0 0 0 0
128 1 1 1 10.7155 6.11582 0 0 0 0
129 1 1 1 9.97625 6.42173 0 0 0 0
130 1 1 1 8.49785 7.03354 0 0 0 0
131 1 1 1 7.75864 7.33944 0 0 0 0
132 1 1 1 9.84886 8.20604 0 0 0 0
133 1 1 1 9.54295 7.46684 0 0 0 0
134 1 1 1 8.93114 5.98843 0 0 0 0
135 1 1 1 8.62524 5.24922 0 0 0 0
136 1 1 1 11.4096 -9.51055 0 0 0 0
137 1 1 1 11.5248 -7.9147 0 0 0 0
138 1 1 1 11.4672 -8.71262 0 0 0 0
139 1 1 1 11.352 -10.3085 0 0 0 0
140 1 1 1 11.2944 -11.1064 0 0 0 0
141 1 1 1 9.81375 -9.39538 0 0 0 0
142 1 1 1 10.6117 -9.45297 0 0 0 0
143 1 1 1 12.2075 -9.56813 0 0 0 0
144 1 1 1 13.0054 -9.62572 0 0 0 0
145 1 1 1 11.1414 2.36295 0 0 0 0
146 1 1 1 11.582 0.824812 0 0 0 0
147 1 1 1 11.3617 1.59388 0 0 0 0
148 1 1 1 10.9211 3.13202 0 0 0 0
149 1 1 1 10.7008 3.90109 0 0 0 0
150 1 1 1 12.6795 2.80355 0 0 0 0
151 1 1 1 11.9105 2.58325 0 0 0 0
152 1 1 1 10.3723 2.14265 0 0 0 0
153 1 1 1 9.60325 1.92235 0 0 0 0
154 1 1 1 -0.718141 0.610732 0 0 0 0
155 1 1 1 0.797274 0.0973944 0 0 0 0
156 1 1 1 0.0395666 0.354063 0 0 0 0
157 1 1 1 -1.47585 0.867401 0 0 0 0
158 1 1 1 -2.23356 1.12407 0 0 0 0
159 1 1 1 -0.204804 2.12615 0 0 0 0
160 1 1 1 -0.461473 1.36844 0 0 0 0
161 1 1 1 -0.97481 -0.146976 0 0 0 0
162 1 1 1 -1.23148 -0.904684 0 0 0 0
163 1 1 1 -8.64345 -0.12308 0 0 0 0
164 1 1 1 -7.52017 1.01632 0 0 0 0
165 1 1 1 -8.08181 0.446621 0 0 0 0
166 1 1 1 -9.20509 -0.692781 0 0 0 0
167 1 1 1 -9.76673 -1.26248 0 0 0 0
168 1 1 1 -9.78285 1.0002 0 0 0 0
169 1 1 1 -9.21315 0.438561 0 0 0 0
170 1 1 1 -8.07375 -0.684721 0 0 0 0
171 1 1 1 -7.50405 -1.24636 0 0 0 0
172 1 1 1 -10.5175 7.98447 0 0 0 0
173 1 1 1 -10.8363 6.41655 0 0 0 0
174 1 1 1 -10.6769 7.20051 0 0 0 0
175 1 1 1 -10.3581 8.76843 0 0 0 0
176 1 1 1 -10.1987 9.55239 0 0 0 0
177 1 1 1 -8.94958 7.66568 0 0 0 0
178 1 1 1 -9.73354 7.82507 0 0 0 0
179 1 1 1 -11.3015 8.14386 0 0 0 0
180 1 1 1 -12.0854 8.30326 0 0 0 0
181 1 1 1 7.4048 -0.393969 0 0 0 0
182 1 1 1 6.13529 0.579859 0 0 0 0
183 1 1 1 6.77004 0.0929451 0 0 0 0
184 1 1 1 8.03955 -0.880882 0 0 0 0
185 1 1 1 8.67431 -1.3678 0 0 0 0
186 1 1 1 6.43097 -1.66348 0 0 0 0
187 1 1 1 6.91789 -1.02872 0 0 0 0
188 1 1 1 7.89171 0.240787 0 0 0 0
189 1 1 1 8.37863 0.875543 0 0 0 0
190 1 1 1 7.64402 5.65726 0 0 0 0
191 1 1 1 6.07165 5.95329 0 0 0 0
192 1 1 1 6.85784 5.80527 0 0 0 0
193 1 1 1 8.43021 5.50925 0 0 0 0
194 1 1 1 9.2164 5.36124 0 0 0 0
195 1 1 1 7.348 4.08488 0 0 0 0
196 1 1 1 7.49601 4.87107 0 0 0 0
197 1 1 1 7.79204 6.44345 0 0 0 0
198 1 1 1 7.94005 7.22964 0 0 0 0
199 1 1 1 -4.4824 11.3315 0 0 0 0
200 1 1 1 -4.43005 9.73232 0 0 0 0
201 1 1 1 -4.45622 10.5319 0 0 0 0
202 1 1 1 -4.50857 12.131 0 0 0 0
203 1 1 1 -4.53475 12.9306 0 0 0 0
204 1 1 1 -2.88326 11.3838 0 0 0 0
205 1 1 1 -3.68283 11.3576 0 0 0 0
206 1 1 1 -5.28197 11.3053 0 0 0 0
207 1 1 1 -6.08154 11.2791 0 0 0 0
208 1 1 1 -5.55606 -7.81186 0 0 0 0
209 1 1 1 -3.99015 -7.48332 0 0 0 0
210 1 1 1 -4.77311 -7.64759 0 0 0 0
211 1 1 1 -6.33901 -7.97613 0 0 0 0
212 1 1 1 -7.12196 -8.1404 0 0 0 0
213 1 1 1 -5.8846 -6.24595 0 0 0 0
214 1 1 1 -5.72033 -7.0289 0 0 0 0
215 1 1 1 -5.39179 -8.59481 0 0 0 0
216 1 1 1 -5.22752 -9.37776 0 0 0 0
217 1 1 1 7.26016 -11.9863 0 0 0 0
218 1 1 1 8.3079 -13.1956 0 0 0 0
219 1 1 1 7.78403 -12.591 0 0 0 0
220 1 1 1 6.73629 -11.3817 0 0 0 0
221 1 1 1 6.21242 -10.7771 0 0 0 0
222 1 1 1 8.46939 -10.9386 0 0 0 0
223 1 1 1 7.86477 -11.4625 0 0 0 0
224 1 1 1 6.65554 -12.5102 0 0 0 0
225 1 1 1 6.05093 -13.0341 0 0 0 0
226 1 1 1 -1.57791 -12.9126 0 0 0 0
227 1 1 1 -0.216128 12.8343 0 0 -1 0
228 1 1 1 -0.89702 13.2543 0 0 -1 0
229 1 1 1 -2.2588 -12.4926 0 0 0 0
230 1 1 1 -2.9397 -12.0726 0 0 0 0
231 1 1 1 -0.737944 -11.5508 0 0 0 0
232 1 1 1 -1.15793 -12.2317 0 0 0 0
233 1 1 1 -1.9979 12.9934 0 0 -1 0
234 1 1 1 -2.41788 12.3125 0 0 -1 0
235 1 1 1 -11.3551 -5.31209 0 0 0 0
236 1 1 1 -11.6961 -6.87533 0 0 0 0
237 1 1 1 -11.5256 -6.09371 0 0 0 0
238 1 1 1 -11.1846 -4.53047 0 0 0 0
239 1 1 1 -11.0141 -3.74885 0 0 0 0
240 1 1 1 -9.79187 -5.65308 0 0 0 0
241 1 1 1 -10.5735 -5.48258 0 0 0 0
242 1 1 1 -12.1367 -5.14159 0 0 0 0
243 1 1 1 -12.9184 -4.9711 0 0 0 0
244 1 1 1 -7.57077 2.60641 0 0 0 0
245 1 1 1 -6.41133 1.50381 0 0 0 0
246 1 1 1 -6.99105 2.05511 0 0 0 0
247 1 1 1 -8.15048 3.1577 0 0 0 0
248 1 1 1 -8.7302 3.709 0 0 0 0
249 1 1 1 -6.46817 3.76584 0 0 0 0
250 1 1 1 -7.01947 3.18612 0 0 0 0
251 1 1 1 -8.12206 2.02669 0 0 0 0
252 1 1 1 -8.67336 1.44697 0 0 0 0
253 1 1 1 -3.24788 -4.3784 0 0 0 0
254 1 1 1 -4.74604 -4.94009 0 0 0 0
255 1 1 1 -3.99696 -4.65924 0 0 0 0
256 1 1 1 -2.4988 -4.09755 0 0 0 0
257 1 1 1 -1.74971 -3.8167 0 0 0 0
258 1 1 1 -2.68619 -5.87656 0 0 0 0
259 1 1 1 -2.96703 -5.12748 0 0 0 0
260 1 1 1 -3.52873 -3.62931 0 0 0 0
261 1 1 1 -3.80957 -2.88023 0 0 0 0
262 1 1 1 -1.84958 -5.88762 0 0 0 0
263 1 1 1 -0.343461 -5.34761 0 0 0 0
264 1 1 1 -1.09652 -5.61762 0 0 0 0
265 1 1 1 -2.60264 -6.15763 0 0 0 0
266 1 1 1 -3.3557 -6.42763 0 0 0 0
267 1 1 1 -2.38959 -4.38151 0 0 0 0
268 1 1 1 -2.11958 -5.13456 0 0 0 0
269 1 1 1 -1.57957 -6.64068 0 0 0 0
270 1 1 1 -1.30957 -7.39374 0 0 0 0

Molecules

1 1
2 1
3 1
4 1
5 1
6 1
7 1
8 1
9 1
10 2
11 2
12 2
13 2
14 2
15 2
16 2
17 2
18 2
19 3
20 3
21 3
22 3
23 3
24 3
25 3
26 3
27 3
28 4
29 4
30 4
31 4
32 4
33 4
34 4
35 4
36 4
37 5
38 5
39 5
40 5
41 5
42 5
43 5
44 5
45 5
46 6
47 6
48 6
49 6
50 6
51 6
52 6
53 6
54 6
55 7
56 7
57 7
58 7
59 7
60 7
61 7
62 7
63 7
64 8
65 8
66 8
67 8
68 8
69 8
70 8
71 8
72 8
73 9
74 9
75 9
76 9
77 9
78 9
79 9
80 9
81 9
82 10
83 10
84 10
85 10
86 10
87 10
88 10
89 10
90 10
91 11
92 11
93 11
94 11
95 11
96 11
97 11
98 11
99 11
100 12
101 12
102 12
103 12
104 12
105 12
106 12
107 12
108 12
109 13
110 13
111 13
112 13
113 13
114 13
115 13
116 13
117 13
118 14
119 14
120 14
121 14
122 14
123 14
124 14
125 14
126 14
127 15
128 15
129 15
130 15
131 15
132 15
133 15
134 15
135 15
136 16
137 16
138 16
139 16
140 16
141 16
142 16
143 16
144 16
145 17
146 17
147 17
148 17
149 17
150 17
151 17
152 17
153 17
154 18
155 18
156 18
157 18
158 18
159 18
160 18
161 18
162 18
163 19
164 19
165 19
166 19
167 19
168 19
169 19
170 19
171 19
172 20
173 20
174 20
175 20
176 20
177 20
178 20
179 20
180 20
181 21
182 21
183 21
184 21
185 21
186 21
187 21
188 21
189 21
190 22
191 22
192 22
193 22
194 22
195 22
196 22
197 22
198 22
199 23
200 23
201 23
202 23
203 23
204 23
205 23
206 23
207 23
208 24
209 24
210 24
211 24
212 24
213 24
214 24
215 24
216 24
217 25
218 25
219 25
220 25
221 25
222 25
223 25
224 25
225 25
226 26
227 26
228 26
229 26
230 26
231 26
232 26
233 26
234 26
235 27
236 27
237 27
238 27
239 27
240 27
241 27
242 27
243 27
244 28
245 28
246 28
247 28
248 28
249 28
250 28
251 28
252 28
253 29
254 29
255 29
256 29
257 29
258 29
259 29
260 29
261 29
262 30
263 30
264 30
265 30
266 30
267 30
268 30
269 30
270 30
