print           "This is replica: ${rep}"
This is replica: 1

read_data       ${rep}/lj.data
read_data       1/lj.data
  orthogonal box = (1.26181 1.26181 1.26181) to (23.7382 23.7382 23.7382)
  1 by 1 by 1 MPI processor grid
  reading atoms ...
  500 atoms
  reading velocities ...
  500 velocities
  0 = max # of 1-2 neighbors
  0 = max # of 1-3 neighbors
  0 = max # of 1-4 neighbors
  1 = max # of special neighbors

#dump            dump all xyz 1000 ${rep}/dump.xyz

fix             fxnpt all npt temp ${T0} ${T0} 1000.0 iso ${press} ${press} 10000.0
fix             fxnpt all npt temp 300 ${T0} 1000.0 iso ${press} ${press} 10000.0
fix             fxnpt all npt temp 300 300 1000.0 iso ${press} ${press} 10000.0
fix             fxnpt all npt temp 300 300 1000.0 iso 0 ${press} 10000.0
fix             fxnpt all npt temp 300 300 1000.0 iso 0 0 10000.0
fix             fxgREM all grem ${lambda} -.03 -30000 fxnpt
fix             fxgREM all grem 910 -.03 -30000 fxnpt

thermo          10
thermo_style    custom step temp f_fxgREM pe etotal press vol
thermo_modify   press fxgREM_press
timestep        1.0

temper/grem     10000 100 ${lambda} fxgREM fxnpt 10294 98392 #${walker}
temper/grem     10000 100 910 fxgREM fxnpt 10294 98392 
Neighbor list info ...
  update every 1 steps, delay 10 steps, check yes
  max neighbors/atom: 2000, page size: 100000
  master list distance cutoff = 7
  ghost atom cutoff = 7
  binsize = 3.5, bins = 7 7 7
  1 neighbor lists, perpetual/occasional/extra = 1 0 0
  (1) pair lj/cut, perpetual
      attributes: half, newton on
      pair build: half/bin/newton
      stencil: half/bin/3d/newton
      bin: standard
Per MPI rank memory allocation (min/avg/max) = 5.729 | 5.729 | 5.729 Mbytes
Step Temp f_fxgREM PotEng TotEng Press Volume 
       0    288.55656    112.20301   -3406.7669   -2977.5609      178.123    11354.789 
      10    288.31142    112.19886   -3406.6287   -2977.7873    169.48583    11354.791 
      20     289.8223     112.2004   -3406.6801   -2975.5914     143.0151    11354.796 
      30    291.70551    112.20808   -3406.9361   -2973.0463     110.8113    11354.804 
      40     292.3991    112.19188   -3406.3961   -2971.4746      97.5904    11354.814 
      50     292.5823    112.21058   -3407.0192   -2971.8253    77.444998    11354.825 
      60     293.9295    112.21708   -3407.2359    -2970.038     57.79557    11354.839 
      70    296.04201     112.2877   -3409.5899   -2969.2498    13.811528    11354.853 
      80    296.75736    112.29156   -3409.7185   -2968.3144     11.76625    11354.868 
      90    295.13392    112.24842   -3408.2806   -2969.2912    48.889984    11354.884 
     100    292.15244    112.19841   -3406.6138   -2972.0592    101.11822      11354.9 
     110    289.12916    112.15164   -3405.0545   -2974.9968    152.31767    11354.918 
     120    287.27612    112.08096   -3402.6986   -2975.3971    202.34047     11354.94 
     130    287.42354     112.0831   -3402.7701   -2975.2494      207.659    11354.965 
     140    289.21301    112.14415    -3404.805   -2974.6226    176.72962    11354.993 
     150    291.22691    112.22079   -3407.3598   -2974.1819    138.20681    11355.026 
     160     291.8086    112.23001    -3407.667   -2973.6239    136.41994    11355.061 
     170    290.14945    112.24531   -3408.1771   -2976.6018    147.28873    11355.098 
     180    287.06496    112.19729   -3406.5762   -2979.5889    189.13996    11355.139 
     190    284.67717    112.11349   -3403.7829   -2980.3472    235.97079    11355.183 
     200    284.76856    112.11444   -3403.8146    -2980.243    229.78409    11355.232 
     210    287.30412    112.19165   -3406.3882   -2979.0451     178.2025    11355.285 
     220    290.24387     112.2716   -3409.0532   -2977.3375     128.2392    11355.341 
     230    291.75312    112.26846   -3408.9488   -2974.9881     127.5165      11355.4 
     240    291.56602    112.24089   -3408.0298   -2974.3475    156.54095    11355.461 
     250    289.54014    112.18263   -3406.0876   -2975.4186    212.94237    11355.526 
     260    286.70194    112.15809   -3405.2696   -2978.8222    257.79759    11355.594 
     270      285.294    112.15348   -3405.1159   -2980.7627    275.81206    11355.668 
     280    286.55908    112.15001   -3405.0003   -2978.7654    263.50914    11355.747 
     290    289.68555    112.21705    -3407.235   -2976.3497    203.07914     11355.83 
     300    292.70849     112.2666   -3408.8867    -2973.505    148.33374    11355.918 
     310    294.49815    112.29546   -3409.8488   -2971.8051    116.25484    11356.008 
     320    295.01917    112.26366   -3408.7887     -2969.97    128.97587    11356.101 
     330    293.62796    112.22757   -3407.5857   -2970.8364    172.03075    11356.196 
     340    289.75335    112.17364   -3405.7881    -2974.802    251.12304    11356.295 
     350    284.97643    112.09285   -3403.0949    -2979.214    349.19648    11356.399 
     360     281.8078    112.02317   -3400.7724   -2981.6047    424.30214    11356.509 
     370    281.86417    111.99526    -3399.842   -2980.5904    446.31739    11356.627 
     380    285.76759    112.05907    -3401.969   -2976.9114    388.90905    11356.754 
     390    292.89931    112.11358   -3403.7861   -2968.1206    299.89217    11356.888 
     400    300.34739    112.22464    -3407.488    -2960.744    182.63695    11357.028 
     410    304.41494    112.31486   -3410.4953   -2957.7011    100.39899    11357.171 
     420    303.85492    112.30406   -3410.1355   -2958.1743    95.619711    11357.317 
     430    300.81739    112.25584    -3408.528   -2961.0849     126.6436    11357.464 
     440    298.33667    112.26429   -3408.8098   -2965.0566    131.90634    11357.614 
     450    297.59531     112.2703   -3409.0098   -2966.3594     123.7656    11357.766 
     460    297.63297    112.29317   -3409.7725    -2967.066    102.31468    11357.921 
     470    297.08461    112.30627   -3410.2092   -2968.3183    91.899247    11358.078 
     480    294.93467    112.27288    -3409.096    -2970.403    117.26815    11358.237 
     490    290.85555    112.17178    -3405.726   -2973.1004    189.72375    11358.398 
     500    285.96923    112.05724   -3401.9081   -2976.5506     276.3915    11358.563 
     510    282.89047    111.98875   -3399.6252    -2978.847     332.0296    11358.733 
     520    282.00698    111.95278   -3398.4259   -2978.9619    356.61549    11358.909 
     530    281.59566    111.97984   -3399.3281   -2980.4759     347.9844    11359.092 
     540    282.13143    112.00287   -3400.0957   -2980.4466    327.18332    11359.282 
     550    285.29816    112.05396   -3401.7988   -2977.4394    270.12617    11359.477 
     560    290.61836    112.13691   -3404.5637   -2972.2909    180.78896    11359.678 
     570    296.03555    112.19783   -3406.5945    -2966.264    98.242808    11359.883 
     580    300.53871    112.26318   -3408.7725    -2961.744    23.345649    11360.089 
     590    304.57492    112.35224   -3411.7414   -2958.7093   -51.135366    11360.296 
     600    307.70286    112.41436   -3413.8121   -2956.1274    -99.74504    11360.502 
     610     307.4453    112.41196   -3413.7319   -2956.4303   -89.528722    11360.707 
     620    302.60338    112.36055   -3412.0183   -2961.9187    -20.95705    11360.909 
     630    295.45279    112.24699   -3408.2329   -2968.7692     88.92139    11361.112 
     640    288.99864    112.14528   -3404.8425   -2974.9789      184.507    11361.316 
     650    284.34769    112.06977   -3402.3256   -2979.3799    248.31274    11361.524 
     660    281.61709    111.99077   -3399.6924   -2980.8083    291.11773    11361.737 
     670    280.81464    112.02279   -3400.7596   -2983.0691    272.78278    11361.955 
     680    281.12808    112.05752   -3401.9172   -2983.7605    245.57676    11362.178 
     690    281.62922    112.06372   -3402.1239   -2983.2218    230.96812    11362.406 
     700    282.68114    112.07109   -3402.3696   -2981.9028    215.37371    11362.639 
     710    285.68075    112.10301   -3403.4336   -2978.5051    179.25783    11362.875 
     720    291.09563    112.17909   -3405.9695   -2972.9868    110.88608    11363.115 
     730    296.71165    112.25454   -3408.4848   -2967.1487    43.449083    11363.358 
     740    298.95953    112.34075   -3411.3584   -2966.6788  -0.16353109    11363.601 
     750    296.12026    112.26709    -3408.903   -2968.4466    55.376662    11363.845 
     760    290.41552    112.14957   -3404.9858   -2973.0147    143.51434    11364.089 
     770    286.15427    112.06806   -3402.2686   -2976.6358    197.31982    11364.337 
     780    286.44173    112.09388   -3403.1293   -2977.0689    166.80088    11364.588 
     790    291.05969    112.11693   -3403.8977   -2970.9685    101.12001    11364.842 
     800    296.16373    112.19144   -3406.3812   -2965.8601    17.480161    11365.099 
     810    297.57076    112.16867   -3405.6224   -2963.0084    10.893497    11365.356 
     820    295.03676    112.10776   -3403.5921   -2964.7473    62.199066    11365.613 
     830    291.33925    112.06297   -3402.0989   -2968.7538    126.16879    11365.871 
     840    288.62338    112.02665   -3400.8882   -2971.5828    181.67525    11366.132 
     850    287.67016    111.98421   -3399.4736   -2971.5861    220.14947    11366.397 
     860    288.98767    112.00317   -3400.1058   -2970.2585    209.25845    11366.666 
     870    292.17389    112.03349   -3401.1163   -2966.5298    174.42425    11366.939 
     880    295.40208    112.08024   -3402.6746   -2963.2864     133.4123    11367.215 
     890    296.65783    112.12162   -3404.0539   -2962.7979    113.59974    11367.494 
     900     295.1242    112.10467    -3403.489   -2964.5141    139.94644    11367.775 
     910    291.92281    112.00467   -3400.1557   -2965.9426    209.05038    11368.059 
     920    289.32856    111.97002   -3399.0008   -2968.6465    240.69528    11368.347 
     930    289.67692    111.96061   -3398.6872   -2967.8147    228.61897    11368.639 
     940     294.3022     112.0659   -3402.1968   -2964.4446    130.39654    11368.936 
     950    301.51105    112.13134    -3404.378   -2955.9032     25.61018    11369.235 
     960    306.83743    112.27981    -3409.327   -2952.9296   -91.059043    11369.535 
     970     307.4444    112.29416   -3409.8054   -2952.5051   -109.84508    11369.833 
     980    304.50616    112.27686   -3409.2287   -2956.2989   -78.391305     11370.13 
     990    301.06082    112.21176   -3407.0587   -2959.2536   -15.295458    11370.425 
    1000    298.65751    112.14831   -3404.9437   -2960.7133    43.569751    11370.721 
    1010    297.03945    112.14146   -3404.7155   -2962.8918     73.28153    11371.017 
    1020    295.59833    112.09804    -3403.268   -2963.5879    110.62196    11371.314 
    1030    293.93194    112.05872   -3401.9573   -2964.7558      139.816    11371.614 
    1040    292.24705    112.00732   -3400.2439   -2965.5486    164.01425    11371.917 
    1050    291.34252    111.98463   -3399.4876   -2966.1376    163.57877    11372.222 
    1060    291.75453    112.00753   -3400.2511   -2966.2883    132.24681    11372.531 
    1070    293.50063    112.03285   -3401.0949    -2964.535    90.509052    11372.842 
    1080    296.32578     112.0879     -3402.93   -2962.1679     34.42726    11373.156 
    1090    298.98455    112.08885   -3402.9618   -2958.2449    8.5704615     11373.47 
    1100     299.9828    112.09758   -3403.2527    -2957.051    1.5561287    11373.784 
    1110    298.93539     112.0604   -3402.0133   -2957.3696    34.967375    11374.099 
    1120     296.7305    112.04723   -3401.5744   -2960.2103    69.990098    11374.414 
    1130    295.27674    112.02291   -3400.7635   -2961.5617    100.03863    11374.731 
    1140    296.45601    112.02269   -3400.7563   -2959.8005    95.241061     11375.05 
    1150    299.73047     112.0732     -3402.44   -2956.6136    50.324323     11375.37 
    1160    302.03965    112.15096   -3405.0321    -2955.771     0.470984    11375.692 
    1170    300.54713    112.07455    -3402.485   -2955.4439    40.510086    11376.014 
    1180     294.8817    111.98784   -3399.5948   -2960.9806     118.6072    11376.337 
    1190    287.72897    111.90408   -3396.8027   -2968.8277    206.40841    11376.662 
    1200    283.05677    111.79866   -3393.2885    -2972.263    279.02297    11376.992 
    1210    282.91094    111.79618    -3393.206   -2972.3975    272.12528    11377.326 
    1220    285.66291    111.85359   -3395.1197   -2970.2178    215.47532    11377.666 
    1230    288.36949    111.92597   -3397.5325   -2968.6047    152.40126     11378.01 
    1240    289.67758    111.95124   -3398.3748   -2967.5013    118.13181    11378.357 
    1250    291.00888    111.94924    -3398.308   -2965.4544    96.526587    11378.707 
    1260    293.84005    111.99979   -3399.9931   -2962.9283    46.221913    11379.058 
    1270    297.63013    112.03864    -3401.288   -2958.5858   -4.0302383     11379.41 
    1280    300.44491    112.06113   -3402.0378   -2955.1488    -38.37951    11379.762 
    1290    300.95481    112.06094   -3402.0312   -2954.3838   -48.631626    11380.114 
    1300    301.24616    112.05705   -3401.9018    -2953.821   -61.001277    11380.464 
    1310    305.01154    112.12689   -3404.2298   -2950.5482   -131.36483    11380.814 
    1320    311.60599    112.19261   -3406.4203     -2942.93   -220.63077    11381.161 
    1330    316.32472    112.31781   -3410.5936   -2940.0846   -310.56676    11381.504 
    1340    315.12652    112.28889   -3409.6296   -2940.9028   -285.69651    11381.842 
    1350    308.72437      112.185   -3406.1667   -2946.9626   -182.76942    11382.174 
    1360    300.42386    112.07734   -3402.5779   -2955.7202   -57.265006    11382.503 
    1370    291.86699    111.91447    -3397.149    -2963.019    88.315244    11382.831 
    1380    285.09338    111.81702   -3393.9007   -2969.8459    183.43851    11383.161 
    1390    283.26305    111.79401   -3393.1335   -2971.8012    194.92821    11383.494 
    1400    289.04947    111.87392   -3395.7975   -2965.8583    92.997624    11383.831 
    1410    298.69036    122.03915    -3401.305   -2957.0257   -21.917871     11384.17 
    1420    305.72142    122.18925   -3406.3083   -2951.5709   -158.60828    11384.508 
    1430    306.18416    122.18438   -3406.1461   -2950.7203   -168.54358    11384.845 
    1440    300.22148    122.07081   -3402.3602   -2955.8035   -71.469632    11385.178 
    1450    291.42314    121.93755   -3397.9182   -2964.4484    66.749781     11385.51 
    1460     283.4744    121.77675   -3392.5582   -2970.9115    214.18411    11385.843 
    1470    277.92785    121.69509   -3389.8362   -2976.4396    312.70165    11386.181 
    1480    274.55484    121.59371    -3386.457   -2978.0775    399.10464    11386.525 
    1490    273.23059    121.55309    -3385.103   -2978.6932    441.31809    11386.876 
    1500    274.01283    121.53082   -3384.3607   -2976.7874    455.32787    11387.235 
    1510    275.76419    121.54172   -3384.7239   -2974.5456    445.30959    11387.604 
    1520    277.35277    121.55749   -3385.2497   -2972.7084     430.6344    11387.981 
    1530    279.24904    121.57869   -3385.9563   -2970.5945    407.78618    11388.366 
    1540     282.0952    121.64066    -3388.022   -2968.4268    357.15314    11388.759 
    1550    285.68636    121.69629   -3389.8764   -2964.9396    297.54558    11389.159 
    1560    289.73011    121.77973   -3392.6576    -2961.706    217.83566    11389.565 
    1570    294.53429    121.84139   -3394.7129   -2956.6154    138.00068    11389.976 
    1580    299.54983    121.91472   -3397.1573   -2951.5997    54.361106    11390.389 
    1590    302.73665    121.94695   -3398.2315   -2947.9337    6.7766333    11390.803 
    1600    302.26525    121.93259   -3397.7531   -2948.1564    12.134543    11391.218 
    1610    299.58012    111.87448   -3395.8158   -2950.2131   -8.8182286    11391.632 
    1620    298.30785    111.86386    -3395.462   -2951.7517   -4.1802827    11392.047 
    1630    299.96638    111.89816   -3396.6052   -2950.4279   -44.628518    11392.461 
    1640    304.39437    111.97855    -3399.285   -2946.5214   -126.01637    11392.875 
    1650    309.41084    112.08456   -3402.8186   -2942.5934   -218.22304    11393.287 
    1660    311.88453    112.09696   -3403.2319   -2939.3273   -244.85935    11393.695 
    1670     309.3293    112.06489   -3402.1629    -2942.059   -205.20034    11394.098 
    1680    302.67297    111.94894   -3398.2981    -2948.095   -95.057083    11394.497 
    1690    296.14217    111.83547   -3394.5157   -2954.0266      13.5455    11394.896 
    1700    293.79228    111.79567   -3393.1889   -2956.1952    57.363507    11395.294 
    1710     295.7862    111.80846   -3393.6152   -2953.6556    41.473788    11395.694 
    1720    298.77061    111.83771   -3394.5904   -2950.1918    7.2109878    11396.094 
    1730    299.47475     111.8605     -3395.35    -2949.904   -7.6906478    11396.495 
    1740    297.37447    111.82886   -3394.2953   -2951.9733    20.940471    11396.896 
    1750    294.56326    111.74995   -3391.6648   -2953.5243    74.927297    11397.297 
    1760     293.2422    111.71562   -3390.5206    -2954.345    98.812622      11397.7 
    1770    294.28814      111.697   -3389.9001   -2952.1688    91.747187    11398.105 
    1780    297.53099    111.75044   -3391.6812   -2949.1264    32.671888    11398.512 
    1790    301.97003     111.8238   -3394.1267   -2944.9692   -50.514508    11398.919 
    1800    306.98845    111.88312   -3396.1039   -2939.4818    -135.9312    11399.326 
    1810    311.96833    111.99708   -3399.9027   -2935.8735   -239.01551     11399.73 
    1820    315.20101    112.03074   -3401.0247   -2932.1871   -291.50322    11400.129 
    1830    315.71772    112.04293    -3401.431   -2931.8248   -304.51268    11400.524 
    1840     314.4024    112.00492   -3400.1641   -2932.5143   -272.21999    11400.913 
    1850    312.76857    111.95783   -3398.5945   -2933.3749   -221.95593    11401.296 
    1860    310.42516    111.93857   -3397.9522   -2936.2183   -171.45063    11401.676 
    1870    306.27985    111.86967   -3395.6558   -2940.0877   -89.686333    11402.052 
    1880    300.77741    111.79815   -3393.2717   -2945.8881   -3.1165245    11402.427 
    1890    295.78471     111.6485   -3388.2835   -2948.3262    98.501625    11402.802 
    1900    293.15719    111.59748   -3386.5828   -2950.5337    132.42643    11403.179 
    1910    293.23718    111.56387   -3385.4623   -2949.2942     128.6136    11403.558 
    1920     295.7208     111.6254   -3387.5134   -2947.6511    63.786379     11403.94 
    1930    300.35286    111.72266   -3390.7552   -2944.0031   -31.396452    11404.323 
    1940    305.69582     111.8239   -3394.1299   -2939.4306   -129.74185    11404.706 
    1950     309.6976    111.91076   -3397.0253   -2936.3736   -206.25068    11405.087 
    1960     311.1315    111.93134   -3397.7114   -2934.9268   -229.05583    11405.463 
    1970    309.68047    111.86844   -3395.6148   -2934.9886   -191.25444    11405.836 
    1980    306.80624    111.84112   -3394.7041   -2938.3531   -153.85545    11406.205 
    1990    305.41903    111.81899   -3393.9663   -2939.6786   -131.34084    11406.572 
    2000    307.19197    111.86529   -3395.5097    -2938.585    -161.2466    11406.936 
    2010    310.43882    111.94413   -3398.1378   -2936.3836   -215.82109    11407.296 
    2020    312.07892    111.94103   -3398.0344   -2933.8407   -225.84464    11407.654 
    2030    310.71069    111.91952   -3397.3173   -2935.1587   -205.54292    11408.007 
    2040    307.40377    111.87766    -3395.922   -2938.6822   -164.12641    11408.356 
    2050    304.30365    111.78807   -3392.9356    -2940.307   -109.59091    11408.702 
    2060    303.15019    111.75068   -3391.6895   -2940.7765   -94.333282    11409.047 
    2070    304.14735    111.76888   -3392.2961   -2939.8999     -118.906    11409.389 
    2080    305.81644    111.77067   -3392.3558    -2937.477   -140.82484     11409.73 
    2090    306.81107    111.74544   -3391.5147   -2935.1565   -142.32093    11410.068 
    2100    307.45189    111.77758   -3392.5861   -2935.2747   -157.46524    11410.403 
    2110    308.74871    111.79708   -3393.2359   -2933.9956   -169.22025    11410.736 
    2120    310.79003    111.79358   -3393.1193   -2930.8427    -177.2892    11411.065 
    2130     312.5027    111.80031   -3393.3438   -2928.5197   -188.73968    11411.392 
    2140    312.85497    111.81614   -3393.8713   -2928.5233   -194.35187    11411.715 
    2150    311.65069    111.83764   -3394.5881   -2931.0313   -189.40791    11412.034 
    2160    309.04678    111.79649   -3393.2164   -2933.5327   -148.18309     11412.35 
    2170    305.18266    111.71088   -3390.3628   -2936.4267   -79.718603    11412.663 
    2180    301.21656    111.63946   -3387.9822   -2939.9454   -17.844582    11412.975 
    2190    299.32602    111.61843    -3387.281   -2942.0563    4.3619189    11413.286 
    2200    300.88603    111.65474   -3388.4914   -2940.9462   -28.501997    11413.598 
    2210    303.76461     121.7445   -3391.4833   -2939.6564   -37.623171     11413.91 
    2220    305.30342    121.78666   -3392.8885   -2938.7728   -76.274224    11414.221 
    2230    304.88731    121.77372   -3392.4575   -2938.9607    -74.35779    11414.531 
    2240    302.34675    121.71839   -3390.6132   -2940.8953    -34.97964     11414.84 
    2250    297.88305    121.62829   -3387.6096   -2944.5311    35.668522    11415.149 
    2260    292.66199    121.54826    -3384.942   -2949.6294    108.43938    11415.458 
    2270    288.78505     121.4887   -3382.9567   -2953.4108    160.29761     11415.77 
    2280    287.75561    121.48855   -3382.9518   -2954.9371    164.14686    11416.084 
    2290    288.94866     121.5206     -3384.02   -2954.2308    138.14089    11416.402 
    2300    289.88236    121.54009   -3384.6698   -2953.4918    122.58753    11416.723 
    2310    288.68545    121.52101   -3384.0336   -2954.6358    143.38342    11417.046 
    2320    286.25612    121.45596   -3381.8654   -2956.0811    194.24971    11417.373 
    2330    285.14493    121.41872    -3380.624   -2956.4925    223.33975    11417.703 
    2340    286.87399    121.45251   -3381.7504   -2955.0471    197.40401    11418.037 
    2350    291.06298    121.53866   -3384.6219   -2951.6877    124.05566    11418.375 
    2360    295.86539    121.62405   -3387.4682   -2947.3909    38.195254    11418.716 
    2370    299.44663    121.70312   -3390.1039   -2944.6997   -40.176145    11419.057 
    2380    300.98476    121.73741   -3391.2471   -2943.5551   -84.646371    11419.398 
    2390     300.1448    121.71291   -3390.4303   -2943.9877    -81.47692    11419.738 
    2400    296.43305    121.64039   -3388.0129   -2947.0912   -25.774318    11420.076 
    2410     289.6685    121.51271   -3383.7572   -2952.8972    85.456317    11420.414 
    2420     281.3448    121.35314   -3378.4379   -2959.9588    224.77811    11420.754 
    2430    274.65414    121.20745   -3373.5816   -2965.0544    340.41959    11421.098 
    2440    272.91796    121.15509   -3371.8364   -2965.8917    367.03173    11421.448 
    2450    278.02901    121.25771   -3375.2568   -2961.7098    262.99585    11421.806 
    2460    289.21861    121.45828   -3381.9427    -2951.752    59.555643    11422.169 
    2470     302.7222    121.74044   -3391.3479   -2941.0716   -200.80466    11422.533 
    2480    313.76557    121.90733   -3396.9111   -2930.2086   -394.16203    11422.893 
    2490    318.93328    121.97571   -3399.1903   -2924.8012   -488.60654    11423.246 
    2500    317.23755    121.91571   -3397.1902   -2925.3234    -459.4925     11423.59 
    2510    310.32712    121.82445   -3394.1482   -2932.5601   -356.98884    11423.926 
    2520    301.48415    121.67082   -3389.0273   -2940.5925    -203.1254    11424.255 
    2530    294.52902    121.54369   -3384.7897   -2946.7001   -70.901724     11424.58 
    2540    291.84747    121.48223   -3382.7409   -2948.6399   0.95112369    11424.903 
    2550     292.8544    121.49927    -3383.309   -2947.7103    8.9958029    11425.227 
    2560    295.32516    121.53481   -3384.4938     -2945.22   -4.4652777    11425.551 
    2570    296.70748    121.53885   -3384.6282   -2943.2983    2.2055059    11425.875 
    2580    295.40417    121.50616   -3383.5388   -2944.1475    43.528038      11426.2 
    2590    291.72518    121.43843   -3381.2809   -2947.3618    113.16074    11426.525 
    2600    287.60187    121.35096   -3378.3654   -2950.5794    184.57759    11426.853 
    2610    285.75661    121.38349   -3379.4498   -2954.4085    181.52836    11427.184 
    2620    287.43585    121.38894   -3379.6313   -2952.0923    152.50846    11427.519 
    2630    291.37945    121.45503   -3381.8343   -2948.4294    80.249921    11427.857 
    2640    294.74827    121.53041   -3384.3469   -2945.9312    11.896562    11428.197 
    2650    295.64551    121.50583   -3383.5276   -2943.7773    6.4682246    11428.537 
    2660    294.74104    121.47628   -3382.5428   -2944.1379    21.935775    11428.877 
    2670    294.33031    121.46756   -3382.2519   -2944.4578    25.890763    11429.218 
    2680    296.11878     121.4512   -3381.7068   -2941.2525    10.893357     11429.56 
    2690    299.83398    121.51703   -3383.9011   -2937.9208   -57.854278    11429.902 
    2700    303.64909    121.58866   -3386.2885   -2934.6335   -135.08152    11430.242 
    2710    305.14074    121.62617   -3387.5389   -2933.6652   -182.08029    11430.581 
    2720    302.94886    121.62862   -3387.6207   -2937.0072    -185.1792    11430.916 
    2730    298.14993    121.59589   -3386.5297   -2943.0543   -150.34737    11431.248 
    2740    292.67914     121.5115   -3383.7166   -2948.3786   -87.831473    11431.577 
    2750     288.2257    121.43775   -3381.2584   -2952.5445    -39.60642    11431.905 
    2760     286.9577    121.43735   -3381.2449    -2954.417   -47.633663    11432.232 
    2770    289.68172    121.48535   -3382.8451   -2951.9655   -108.76492    11432.558 
    2780    294.68316    121.58242   -3386.0806   -2947.7617   -207.11325    11432.882 
    2790    299.51755     121.6252   -3387.5066    -2941.997   -277.61993    11433.202 
    2800    302.47742    121.66958   -3388.9859   -2939.0737   -323.13721    11433.517 
    2810    302.72635    121.66873   -3388.9576   -2938.6751   -317.30645    11433.826 
    2820     300.3436    121.58487   -3386.1625   -2939.4241   -250.22549     11434.13 
    2830    297.08273    121.51277   -3383.7591   -2941.8711   -178.83831    11434.428 
    2840    295.57979    121.46067   -3382.0223   -2942.3697   -135.17705    11434.724 
    2850    297.39057    121.48034   -3382.6781   -2940.3322     -155.107    11435.016 
    2860    301.45166    121.52493   -3384.1642   -2935.7777   -210.88302    11435.306 
    2870    304.91672    121.62195   -3387.3984   -2933.8579   -283.51201    11435.592 
    2880    304.72225    121.58958   -3386.3193    -2933.068   -271.90273    11435.873 
    2890    299.62705    121.51597   -3383.8655    -2938.193   -197.43931    11436.149 
    2900    291.98004     121.3175     -3377.25   -2942.9518   -47.677493    11436.421 
    2910    285.64674    121.22979   -3374.3263   -2949.4485     50.88047    11436.692 
    2920    282.86712    121.21804   -3373.9348   -2953.1914    87.233096    11436.964 
    2930    283.67958    121.21576   -3373.8587   -2951.9068    82.604585    11437.238 
    2940    287.21352     121.3099   -3376.9966   -2949.7883    10.623844    11437.514 
    2950    292.14611    121.40553   -3380.1844   -2945.6392      -79.265     11437.79 
    2960    296.89016    121.51751   -3383.9171   -2942.3155   -175.19536    11438.064 
    2970    300.12916    121.57467   -3385.8225   -2939.4031   -236.77422    11438.336 
    2980    302.20838    121.63464   -3387.8214   -2938.3093   -287.40904    11438.603 
    2990    304.64073    121.70098   -3390.0326   -2936.9026   -339.84237    11438.864 
    3000     307.8161    121.72954   -3390.9845   -2933.1314   -381.60025    11439.119 
    3010    310.72947    121.77316   -3392.4387   -2930.2521   -426.58264    11439.367 
    3020    312.53958     121.7889   -3392.9633   -2928.0844   -450.04935    11439.608 
    3030    312.49094    121.79073   -3393.0242   -2928.2176   -449.02983    11439.839 
    3040    309.73908     121.7397   -3391.3234     -2930.61    -400.9218    11440.062 
    3050    304.05498    121.64761   -3388.2537   -2935.9949   -307.99255    11440.278 
    3060    296.18807    121.53195   -3384.3984   -2943.8411   -185.36974    11440.488 
    3070    287.85771    121.39226   -3379.7422   -2951.5756   -51.099571    11440.695 
    3080    281.51145    121.24122   -3374.7073   -2955.9804    68.773795      11440.9 
    3090    278.68968    121.22085   -3374.0283   -2959.4986    105.01282    11441.107 
    3100    279.57067    121.18041   -3372.6802   -2956.8401    112.35716    11441.316 
    3110    283.23891    121.24147   -3374.7155   -2953.4191    55.294964    11441.528 
    3120     287.0302    121.32051   -3377.3502   -2950.4146   -10.351676     11441.74 
    3130    288.75914    121.35045   -3378.3482   -2948.8409   -39.087682    11441.952 
    3140    288.86822    121.37873    -3379.291   -2949.6214   -51.515881    11442.164 
    3150    289.15543    121.36284   -3378.7615   -2948.6647   -45.538755    11442.375 
    3160    290.01869    121.39289   -3379.7629   -2948.3821   -60.140383    11442.586 
    3170     290.3588    121.38183   -3379.3944   -2947.5077   -55.744768    11442.795 
    3180     289.4469    121.36003   -3378.6676   -2948.1372    -41.38054    11443.003 
    3190    288.17301    121.32373   -3377.4578   -2948.8223   -26.918463    11443.211 
    3200    288.77945    121.33719   -3377.9064   -2948.3688   -56.270381    11443.418 
    3210    292.61319    121.37731   -3379.2438   -2944.0038   -130.93347    11443.625 
    3220    298.72162    121.46642   -3382.2139   -2937.8881   -247.75665    11443.829 
    3230    304.29801    121.56165   -3385.3882    -2932.768   -363.76171    11444.028 
    3240    307.30603    121.58676   -3386.2253   -2929.1309   -430.08567     11444.22 
    3250    308.46328    121.64558   -3388.1861   -2929.3704   -489.21976    11444.405 
    3260    309.45149    121.68162   -3389.3873   -2929.1017   -531.49647     11444.58 
    3270    310.53561    121.68778   -3389.5928   -2927.6946    -555.3418    11444.746 
    3280    310.86344    121.68443   -3389.4811   -2927.0953   -559.37189      11444.9 
    3290    309.20309    121.65295   -3388.4315   -2928.5154    -526.9055    11445.045 
    3300    304.79453    121.57176   -3385.7254   -2932.3667   -445.46244    11445.179 
    3310    298.22424    121.47929    -3382.643    -2939.057   -337.28653    11445.305 
    3320    291.59323    121.38969   -3379.6564   -2945.9335   -229.85854    11445.424 
    3330    287.05779    121.35392   -3378.4639   -2951.4871   -163.36345    11445.539 
    3340    284.87461    121.28566   -3376.1887   -2952.4593   -108.38359    11445.651 
    3350    283.95926    121.27571    -3375.857   -2953.4891   -91.349874    11445.761 
    3360    283.69509    121.23795   -3374.5984   -2952.6235   -74.997711    11445.869 
    3370    284.68525     121.2386   -3374.6199   -2951.1721   -85.999729    11445.975 
    3380    287.19722    121.24684   -3374.8948   -2947.7107    -112.9909    11446.081 
    3390    290.57885    121.30632   -3376.8773   -2944.6633   -165.26284    11446.184 
    3400    292.93209    121.33537   -3377.8456   -2942.1313    -194.7257    11446.284 
    3410    291.76142    121.31269   -3377.0898   -2943.1168    -172.6622     11446.38 
    3420    286.88546    121.25064   -3375.0212   -2948.3008   -105.31015    11446.473 
    3430    282.35446    121.16335   -3372.1116   -2952.1307   -34.843492    11446.565 
    3440    282.89328    121.17145   -3372.3818   -2951.5995   -46.727521    11446.655 
    3450    288.98985    121.20861   -3373.6204   -2943.7699   -119.26274    11446.745 
    3460    297.07668     121.3646     -3378.82    -2936.941   -257.29499    11446.833 
    3470    303.62926    121.49689   -3383.2298   -2931.6043   -374.65079    11446.915 
    3480    307.53501    121.57346    -3385.782    -2928.347   -444.57094    11446.991 
    3490    308.82784     121.6384   -3387.9465   -2928.5885   -478.59915    11447.058 
    3500    306.76065    121.58336   -3386.1118   -2929.8286   -428.54219    11447.116 
    3510    301.59019    121.46045   -3382.0149   -2933.4223   -320.67255    11447.166 
    3520     296.6128    121.39244    -3379.748   -2938.5589   -231.82779     11447.21 
    3530    294.04622    121.35625   -3378.5416   -2941.1701   -174.62678     11447.25 
    3540    292.92581    121.33429   -3377.8097   -2942.1048   -139.27627    11447.286 
    3550    292.55142    121.34157   -3378.0522   -2942.9042   -127.55412     11447.32 
    3560    293.27364    121.32125   -3377.3749   -2941.1526   -121.96709    11447.351 
    3570    295.91725    121.34354   -3378.1182   -2937.9637    -156.7775     11447.38 
    3580    300.81071    121.43009   -3381.0031   -2933.5699   -240.11843    11447.406 
    3590    306.25194    121.53849   -3384.6164   -2929.0899   -338.32794    11447.427 
    3600    309.27383    121.59528   -3386.5092   -2926.4878   -396.29387    11447.442 
    3610    308.14806    121.52966   -3384.3219    -2925.975   -370.94221     11447.45 
    3620    303.70915     121.5107   -3383.6899   -2931.9455   -332.81969     11447.45 
    3630    298.10851    121.41167    -3380.389   -2936.9752   -250.53854    11447.445 
    3640    292.91537    121.32403   -3377.4675   -2941.7781   -174.96568    11447.434 
    3650    289.83094    121.28248   -3376.0825    -2944.981   -136.01651     11447.42 
    3660    290.33941    121.31757   -3377.2523   -2945.3944   -158.30815    11447.404 
    3670    293.74139    121.38911   -3379.6371   -2942.7191   -217.62554    11447.384 
    3680      296.888    121.43234   -3381.0781   -2939.4797   -260.39443     11447.36 
    3690    297.61413    121.43968   -3381.3225    -2938.644   -262.15069    11447.332 
    3700    295.73613     121.4197   -3380.6566   -2940.7715   -224.46949    11447.298 
    3710    292.15784    121.32961   -3377.6536    -2943.091   -142.08819     11447.26 
    3720    288.70489    121.26152    -3375.384   -2945.9574   -68.863176     11447.22 
    3730    287.02462    121.21756   -3373.9187   -2946.9913   -23.511213    11447.178 
    3740    287.33794    121.17794   -3372.5979   -2945.2045  -0.76652367    11447.136 
    3750    288.41045    121.21903   -3373.9676   -2944.9789   -20.664794    11447.094 
    3760    289.32124    121.25713   -3375.2377   -2944.8943   -43.830154    11447.052 
    3770    289.74427    121.23914   -3374.6381   -2943.6655   -44.839405    11447.009 
    3780    289.16352    121.22661   -3374.2202   -2944.1114   -43.361367    11446.965 
    3790    287.63185    121.23242   -3374.4141   -2946.5835    -44.84352    11446.921 
    3800    286.51576     121.1944   -3373.1466   -2946.9762   -38.200592    11446.876 
    3810    288.60461    121.22991   -3374.3304   -2945.0529   -89.234348    11446.829 
    3820    295.02935    121.36335   -3378.7782   -2939.9444   -213.80273    11446.781 
    3830    302.96572    121.48477   -3382.8257   -2932.1871   -342.25226     11446.73 
    3840     307.8583    121.57087   -3385.6957   -2927.7798   -424.41413    11446.671 
    3850    307.82912    121.57589   -3385.8629   -2927.9904   -425.63611    11446.605 
    3860    304.82856    121.55478   -3385.1595   -2931.7501   -384.43244     11446.53 
    3870    302.13834    121.51176   -3383.7252   -2934.3173   -332.70406    11446.448 
    3880    300.98997    121.45725   -3381.9085   -2934.2087   -287.91701     11446.36 
    3890    299.84578    121.41474   -3380.4914   -2934.4935    -249.7476    11446.267 
    3900    297.11081    121.39476   -3379.8253   -2937.8955   -209.71089    11446.168 
    3910    293.23391    121.32658   -3377.5525   -2941.3893   -143.37072    11446.066 
    3920     289.7596    121.24199    -3374.733   -2943.7375   -76.199915    11445.961 
    3930    288.21644    121.18826   -3372.9421    -2944.242   -36.754134    11445.854 
    3940      288.999    121.16072   -3372.0241     -2942.16   -25.308345    11445.746 
    3950    291.24154    121.21076   -3373.6921   -2940.4924   -55.387764    11445.638 
    3960    293.71042    121.25295   -3375.0984   -2938.2265   -84.359934     11445.53 
    3970    295.34442    121.28792    -3376.264   -2936.9616   -105.24072    11445.419 
    3980    295.93386    121.29223   -3376.4078   -2936.2286    -108.7094    11445.307 
    3990    296.45686    121.29136   -3376.3788   -2935.4216    -114.1245    11445.192 
    4000     298.6827    121.35677   -3378.5589    -2934.291   -161.67235    11445.075 
    4010     303.1746    121.46699    -3382.233   -2931.2838   -244.93297    11444.955 
    4020    308.48148    121.53283   -3384.4277   -2925.5848   -314.33597    11444.831 
    4030    312.42541    121.58582   -3386.1939   -2921.4848   -359.69109      11444.7 
    4040    313.52134    121.57954   -3385.9845   -2919.6453   -349.93551    11444.563 
    4050    311.68092    121.53592   -3384.5305   -2920.9288   -295.48459    11444.419 
    4060    308.20934    121.44718   -3381.5727   -2923.1347   -208.57588    11444.269 
    4070    304.77563      121.375   -3379.1665   -2925.8359   -131.16799    11444.115 
    4080    302.05526    121.35918   -3378.6393    -2929.355   -87.273655    11443.959 
    4090    299.63707    121.31729   -3377.2431   -2931.5557   -43.491299    11443.801 
    4100    296.79632    121.27564   -3375.8545   -2934.3925   -3.2770185    11443.642 
    4110     293.2432    121.17384   -3372.4614   -2936.2844    61.177737    11443.483 
    4120    289.78281    121.10529   -3370.1765   -2939.1465    108.30347    11443.326 
    4130    288.60354     121.0897   -3369.6567   -2940.3808    115.47491     11443.17 
    4140    291.02012    121.13095   -3371.0318   -2938.1614    72.630448    11443.016 
    4150    295.58835    121.30186   -3376.7286   -2937.0633   -32.088689    11442.864 
    4160    298.35127    121.32968   -3377.6561   -2933.8812   -59.581582    11442.711 
    4170    296.65089     121.3084   -3376.9468   -2935.7011    -26.59023    11442.557 
    4180    292.60517    121.22909   -3374.3029   -2939.0749    49.147273    11442.402 
    4190    290.72236    121.18097   -3372.6989   -2940.2714     92.84254    11442.249 
    4200    293.39337     121.2149   -3373.8298   -2937.4294    61.151041    11442.097 
    4210    299.35417    121.35549   -3378.5162   -2933.2496   -46.284045    11441.947 
    4220    305.09367    121.44871   -3381.6238   -2927.8201   -140.05291    11441.795 
    4230     308.0747    121.47239   -3382.4132   -2924.1754   -186.36253    11441.641 
    4240    308.90737    121.46118   -3382.0393    -2922.563   -198.50555    11441.484 
    4250    309.77103    121.47822   -3382.6075   -2921.8465    -214.7363    11441.323 
    4260    311.30404    121.49167   -3383.0557   -2920.0145   -226.04473    11441.158 
    4270     312.2144    121.50966   -3383.6553     -2919.26   -227.49904    11440.988 
    4280     311.5543    121.47564   -3382.5215   -2919.1081   -191.54355    11440.814 
    4290    309.15349    121.42597   -3380.8656   -2921.0232   -132.12913    11440.636 
    4300    305.32078    121.30711   -3376.9036   -2922.7621   -35.097493    11440.456 
    4310    301.83829    121.24986   -3374.9955   -2926.0339    30.953582    11440.275 
    4320    301.49874    121.22969    -3374.323   -2925.8664    52.573117    11440.095 
    4330    304.60655    121.29935   -3376.6451    -2923.566    8.3635111    11439.915 
    4340    308.27454    121.36723   -3378.9076   -2920.3726    -39.64981    11439.736 
    4350    308.68128    121.41579   -3380.5262   -2921.3862   -48.546743    11439.556 
    4360    303.46646    121.29968   -3376.6561   -2925.2728    58.560156    11439.375 
    4370    293.69001    121.10941   -3370.3137   -2933.4721    234.60284    11439.195 
    4380    284.38997    120.96747   -3365.5822   -2942.5736    383.84733     11439.02 
    4390    281.82066    120.90729   -3363.5763   -2944.3895    435.13504    11438.852 
    4400    288.33476    121.03813   -3367.9377   -2939.0616    323.25684    11438.693 
    4410    300.64159    121.26555   -3375.5182   -2928.3366    112.53463    11438.539 
    4420    313.30705    121.51947   -3383.9825    -2917.962   -117.28122    11438.388 
    4430    321.64199    121.66393   -3388.7976   -2910.3795   -265.89993    11438.234 
    4440    323.27558    121.67928   -3389.3095   -2908.4616    -298.8234    11438.076 
    4450    318.82205    121.61215   -3387.0718   -2912.8481   -238.21166    11437.912 
    4460    311.57096    121.48283   -3382.7609   -2919.3227   -121.94167    11437.743 
    4470    305.29805    121.37931   -3379.3104   -2925.2027   -19.249637    11437.572 
    4480    302.20701    121.34516   -3378.1721   -2928.6621    31.608536    11437.401 
    4490    301.86539    121.37251   -3379.0838   -2930.0819      36.6133    11437.231 
    4500    301.83114    121.38573   -3379.5242   -2930.5732    44.950393    11437.061 
    4510    300.69354    121.37501   -3379.1671   -2931.9083     74.35439    11436.891 
    4520    299.07515    121.31618   -3377.2061   -2932.3544    130.20148    11436.724 
    4530    297.77448    121.26315   -3375.4383   -2932.5213    183.17993    11436.559 
    4540    296.70489    121.22611   -3374.2037   -2932.8777    224.84418    11436.397 
    4550     296.0746    121.19692   -3373.2307   -2932.8421    251.41148     11436.24 
    4560    296.75595    121.17951   -3372.6504   -2931.2484    254.39696    11436.087 
    4570    298.20494    121.20362   -3373.4541   -2929.8968    228.97573     11435.94 
    4580     298.6187    121.18925    -3372.975   -2928.8023    223.85684    11435.796 
    4590    297.36567    121.13694   -3371.2312   -2928.9223    245.45204    11435.657 
    4600    296.53718    121.12381   -3370.7936    -2929.717    247.99542    11435.523 
    4610    298.85806    121.17928   -3372.6428   -2928.1141    200.35424    11435.394 
    4620     304.1064    121.27181   -3375.7272   -2923.3919    116.86048    11435.268 
    4630    309.59172    121.37659   -3379.2198   -2918.7256    29.790192    11435.145 
    4640    312.59335    121.44841   -3381.6138   -2916.6549   -19.674381    11435.022 
    4650    311.95155    121.44647   -3381.5489   -2917.5446   -8.4711918    11434.899 
    4660    309.72085    121.40013   -3380.0043    -2919.318     32.49946    11434.776 
    4670     309.6271    121.38064   -3379.3547   -2918.8078    45.684052    11434.654 
    4680    311.87712     121.3996   -3379.9867   -2916.0931    24.664385    11434.532 
    4690    313.69797    121.48573   -3382.8577   -2916.2557   -16.083599    11434.411 
    4700    313.14834    121.42257   -3380.7524   -2914.9679     24.50122     11434.29 
    4710     310.1134     121.3699   -3378.9965   -2917.7263    88.005351     11434.17 
    4720    305.06916    121.29286   -3376.4286   -2922.6613    180.46822    11434.051 
    4730    299.24301    121.18206   -3372.7352   -2927.6339    289.16437    11433.935 
    4740    294.66495    121.09388   -3369.7962   -2931.5044    369.81124    11433.825 
    4750    293.24652    121.04681   -3368.2268   -2932.0449    397.00251    11433.722 
    4760    295.42269    121.03296   -3367.7655   -2928.3466    370.60416    11433.627 
    4770    300.18593    121.13662   -3371.2205   -2924.7167    269.94247    11433.539 
    4780    306.46538    121.27952   -3375.9839   -2920.1399    139.09706    11433.456 
    4790    312.83484    121.41628   -3380.5426   -2915.2245    12.858572    11433.375 
    4800    316.57471    121.56483   -3385.4942   -2914.6133   -89.103894    11433.295 
    4810     315.4019    121.53381   -3384.4602   -2915.3238   -75.973052    11433.214 
    4820    310.38842    121.45712   -3381.9041   -2920.2248   -9.5670482    11433.131 
    4830    304.99978    121.40535   -3380.1784   -2926.5144    52.039039    11433.048 
    4840    301.97087    121.32927   -3377.6424   -2928.4837    100.58872    11432.965 
    4850    302.07526    121.37683   -3379.2276   -2929.9136    71.968838    11432.885 
    4860    304.24312    121.39066   -3379.6888   -2927.1503     38.71679    11432.806 
    4870    306.25878    121.39389   -3379.7963   -2924.2596    14.992947    11432.728 
    4880    305.61864    121.39646    -3379.882   -2925.2974    20.445466     11432.65 
    4890    301.38718    121.29476   -3376.4919   -2928.2013    99.826783    11432.573 
    4900     295.8169    121.20441   -3373.4805   -2933.4753    186.45389    11432.498 
    4910     292.7373    121.11172   -3370.3906    -2934.966    250.13371    11432.426 
    4920    294.73813    121.14607   -3371.5356    -2933.135       218.42    11432.359 
    4930    301.33504    121.22391   -3374.1305   -2925.9174    128.39026    11432.296 
    4940    309.57915    121.40646   -3380.2152   -2919.7397   -15.005956    11432.235 
    4950    316.02716     121.5054   -3383.5134    -2913.447   -106.73682    11432.175 
    4960    318.58788    121.52234   -3384.0782   -2910.2028   -126.86261    11432.112 
    4970    316.77858    121.51162   -3383.7208   -2912.5366   -94.346249    11432.047 
    4980    311.71707    121.45409   -3381.8029   -2918.1474   -15.927158     11431.98 
    4990    305.94637    121.31673   -3377.2242   -2922.1522    92.455269    11431.913 
    5000    302.82001    121.29431   -3376.4769   -2926.0551     126.1166    11431.848 
    5010    303.96795    121.34904   -3378.3014   -2926.1721    87.846907    11431.785 
    5020    308.04191    121.43693   -3381.2309   -2923.0419    11.191027    11431.724 
    5030    311.80602    121.49557   -3383.1858   -2919.3979   -48.531152    11431.663 
    5040    313.15103    121.50266    -3383.422   -2917.6336   -58.634435    11431.602 
    5050    311.39813    121.44984   -3381.6613   -2918.4802   -6.1522599    11431.539 
    5060    306.37406    121.32618   -3377.5395   -2921.8313    112.49768    11431.476 
    5070     299.0361    121.18456   -3372.8185    -2928.025     261.3789    11431.416 
    5080    292.26711    121.07308   -3369.1028   -2934.3776    388.69845    11431.361 
    5090    289.84189     121.0202   -3367.3401   -2936.2222    445.54983    11431.313 
    5100    293.31592    121.07356   -3369.1186   -2932.8334    398.18962    11431.273 
    5110    298.03568    131.14395   -3371.4649   -2928.1594    380.41194    11431.242 
    5120     298.8909     131.1512   -3371.7066   -2927.1291     359.0829    11431.218 
    5130    295.86625    131.09052   -3369.6841   -2929.6055    396.21627    11431.201 
    5140    292.57084    131.08778   -3369.5926   -2934.4156    414.31492    11431.192 
    5150      291.935    131.06196   -3368.7319   -2934.5007    420.62522    11431.191 
    5160    293.76964    131.10398   -3370.1327   -2933.1727     382.1961    11431.198 
    5170    296.45636    131.13495    -3371.165   -2930.2087    346.19977    11431.212 
    5180    298.56648    131.17442   -3372.4806   -2928.3856    318.06614    11431.233 
    5190    299.91367    131.17522   -3372.5074   -2926.4086    315.88913     11431.26 
    5200     300.8404    131.15994   -3371.9981   -2924.5208    325.82663    11431.294 
    5210    301.33431    131.19142   -3373.0472   -2924.8352    321.12915    11431.333 
    5220    301.37267    131.21398   -3373.7992   -2925.5302    323.17565    11431.379 
    5230    300.47162    131.24585   -3374.8616   -2927.9328    330.30384    11431.431 
    5240    297.78262    131.18355   -3372.7851    -2929.856    390.12177     11431.49 
    5250    293.37938    131.09184   -3369.7279   -2933.3483    476.89365    11431.557 
    5260     288.5776    131.00823    -3366.941   -2937.7037    563.36303    11431.632 
    5270    284.85195    130.92195   -3364.0651   -2940.3694    638.59201    11431.719 
    5280     283.2497    130.88487   -3362.8289   -2941.5165    669.97431    11431.818 
    5290    284.60451    130.92108    -3364.036   -2940.7084    639.87555    11431.929 
    5300    288.65507    131.00579   -3366.8598   -2937.5072    560.98385    11432.053 
    5310    293.64397    131.09686   -3369.8954   -2933.1222    468.06919    11432.188 
    5320    297.23935    131.18843   -3372.9477   -2930.8267    389.23781    11432.332 
    5330    297.92189    131.16784   -3372.2613   -2929.1251    383.78723    11432.484 
    5340    295.88364    131.12963   -3370.9878   -2930.8833    414.06812    11432.643 
    5350      292.652    131.06027   -3368.6755   -2933.3779    469.72267     11432.81 
    5360    289.96002    131.00939   -3366.9796   -2935.6861    512.24248    11432.987 
    5370    288.82334     130.9809   -3366.0299    -2936.427    526.52852    11433.174 
    5380      289.919     130.9997   -3366.6568   -2935.4242    496.25641     11433.37 
    5390    293.90776    131.02352   -3367.4506   -2930.2851      434.654    11433.577 
    5400    300.15414    131.11099   -3370.3662   -2923.9097    331.21385    11433.792 
    5410    305.95085    131.20156   -3373.3855   -2918.3068    238.80358    11434.013 
    5420    308.54184     131.2532   -3375.1067   -2916.1741    199.18497    11434.239 
    5430    307.50215      131.234   -3374.4665   -2917.0804    225.68274     11434.47 
    5440    304.76698    131.15408   -3371.8028    -2918.485    291.69611    11434.705 
    5450    302.82614    131.15682   -3371.8941   -2921.4631    316.57324    11434.945 
    5460    302.32493    131.19557   -3373.1858   -2923.5003    312.63356    11435.192 
    5470    301.65321    131.14414   -3371.4714   -2922.7851    343.08644    11435.446 
    5480    299.35845    131.08072   -3369.3573   -2924.0843    392.21574    11435.706 
    5490    296.00745    131.00849   -3366.9496    -2926.661    454.06321    11435.974 
    5500    293.62342    130.92359   -3364.1197   -2927.3771    510.06055    11436.251 
    5510    293.90877    130.91837   -3363.9458   -2926.7787    508.66227    11436.538 
    5520     296.3502    130.97873   -3365.9576   -2925.1592    459.09636    11436.834 
    5530    298.51077    131.01379   -3367.1262   -2923.1141    417.98617     11437.14 
    5540    298.65249    130.99768   -3366.5894   -2922.3664    413.06782    11437.454 
    5550    297.06517      130.999   -3366.6334   -2924.7715    416.90716    11437.777 
    5560    295.08318      130.969   -3365.6334   -2926.7195    436.38677    11438.107 
    5570    293.80199    130.96447   -3365.4822    -2928.474    441.75621    11438.447 
    5580    293.22853    130.93024   -3364.3413    -2928.186    453.43962    11438.794 
    5590    293.18573    130.95367   -3365.1223   -2929.0308    442.42097    11439.151 
    5600    293.52337    130.95292   -3365.0972   -2928.5034    443.00006    11439.517 
    5610    295.33417    121.00992   -3366.9973   -2927.7101     351.5285    11439.891 
    5620    299.87371    121.08043   -3369.3477   -2923.3083    285.46544    11440.271 
    5630    306.58927    121.17036   -3372.3453    -2916.317    188.69256    11440.658 
    5640    314.42614    121.31992   -3377.3307   -2909.6456    57.183028    11441.048 
    5650    321.43602    121.40726   -3380.2419   -2902.1302   -42.548803     11441.44 
    5660     325.3986    121.46329   -3382.1097   -2898.1039   -99.841592    11441.831 
    5670    325.18238    121.40038   -3380.0127   -2896.3286   -71.006159    11442.221 
    5680     321.9195    121.31804   -3377.2681   -2898.4372   -5.1476385     11442.61 
    5690    317.90338     121.2499   -3374.9967   -2902.1395    62.122047    11442.999 
    5700    314.46913    121.19238   -3373.0792   -2905.3302     116.1735     11443.39 
    5710     312.0068    121.13668   -3371.2227   -2907.1362    153.84412    11443.783 
    5720    310.45453    121.08952   -3369.6506    -2907.873    176.39037    11444.179 
    5730    308.36253    121.03267   -3367.7558   -2909.0899    206.22332    11444.579 
    5740    304.60008    120.99709   -3366.5696   -2913.5001    242.78863    11444.984 
    5750    300.25164    120.94314   -3364.7714   -2918.1698    293.49781    11445.393 
    5760    297.60365    120.88426   -3362.8087   -2920.1458     333.2608    11445.809 
    5770    298.53552    120.92527   -3364.1757   -2920.1267    304.19324    11446.231 
    5780    303.73079    120.97188   -3365.7295    -2913.953    237.62234    11446.659 
    5790     310.9535    121.10237   -3370.0789   -2907.5592    123.84955    11447.091 
    5800    316.07035    121.15139   -3371.7131   -2901.5824    59.579025    11447.527 
    5810     316.2165    131.20522   -3373.5073   -2903.1592    102.78686    11447.964 
    5820    312.18519    131.11861   -3370.6203   -2906.2684    181.38185    11448.405 
    5830    307.10624    131.01565   -3367.1882   -2910.3909    276.69732    11448.849 
    5840    303.60071    130.95136   -3365.0452   -2913.4622    339.92983    11449.298 
    5850     302.2033    130.91633   -3363.8776   -2914.3731    366.28048    11449.755 
    5860    301.96551    130.92749   -3364.2498    -2915.099    357.45155    11450.219 
    5870    301.95773    130.91949   -3363.9829   -2914.8437    347.80746     11450.69 
    5880    302.06817     130.9215   -3364.0499   -2914.7464    329.56923    11451.168 
    5890    302.31056    130.91423   -3363.8075   -2914.1435    312.64449    11451.653 
    5900    302.07546    130.92914   -3364.3048   -2914.9904    292.07764    11452.145 
    5910    300.74146    130.89503   -3363.1676   -2915.8375    302.13817    11452.642 
    5920    298.65522     130.8226   -3360.7534   -2916.5264    338.91993    11453.146 
    5930    296.73447    130.79282   -3359.7605   -2918.3905    364.39998    11453.656 
    5940     295.5406    130.76927   -3358.9757   -2919.3814    386.55917    11454.175 
    5950    294.99299     130.7504   -3358.3465   -2919.5668    404.75575    11454.701 
    5960    294.86662    130.73956   -3357.9854   -2919.3936    417.11766    11455.235 
    5970    295.22448     130.7815   -3359.3833   -2920.2593    402.47864    11455.778 
    5980    296.24485    130.84017    -3361.339   -2920.6973    371.68362    11456.328 
    5990     297.4302    130.88615   -3362.8716   -2920.4667    340.05175    11456.887 
    6000    298.16549    130.89171   -3363.0572   -2919.5586    322.85603    11457.452 
    6010    299.06272    130.92006   -3364.0021   -2919.1689    292.49092    11458.024 
    6020    300.89808     130.9232   -3364.1067   -2916.5437    264.07987    11458.602 
    6030    302.77522    130.95465   -3365.1548   -2914.7996    226.55047    11459.186 
    6040     303.5262    130.91672   -3363.8908   -2912.4185    228.98333    11459.775 
    6050    303.30873    130.90327   -3363.4423   -2912.2936    233.22005    11460.368 
    6060    303.26058    130.89702    -3363.234   -2912.1568    234.71794    11460.967 
    6070    303.60235    130.93774   -3364.5913   -2913.0059    214.97622     11461.57 
    6080    303.31006    130.94245   -3364.7485   -2913.5978    213.25763    11462.178 
    6090    301.69962    130.94114   -3364.7045   -2915.9492    223.86866     11462.79 
    6100    299.62417    130.85578   -3361.8594   -2916.1912    270.01732    11463.408 
    6110    298.48832    130.84396   -3361.4655   -2917.4867    282.50313    11464.031 
    6120    298.08727    130.81875   -3360.6249   -2917.2427    295.05061     11464.66 
    6130    297.74282    130.83008   -3361.0028   -2918.1329    292.15838    11465.295 
    6140    297.96892    130.84061   -3361.3538   -2918.1476    281.25591    11465.936 
    6150    299.67332    130.89951   -3363.3169   -2917.5756    233.93496    11466.583 
    6160    302.55507    130.93786   -3364.5954   -2914.5677    177.32388    11467.235 
    6170    305.59573    130.98704   -3366.2347   -2911.6842    110.30761    11467.891 
    6180    307.58081    130.99982   -3366.6608   -2909.1576    65.120245    11468.549 
    6190    307.86772    131.01886   -3367.2954   -2909.3655    34.468656     11469.21 
    6200    307.26123    131.00077   -3366.6924   -2909.6646    33.334477    11469.872 
    6210    306.16434     130.9416   -3364.7199   -2909.3236    62.148082    11470.535 
    6220    304.20525    130.86167   -3362.0558   -2909.5736    114.04889    11471.199 
    6230    301.49671    130.85003   -3361.6677   -2913.2142    150.58908    11471.867 
    6240    298.81254     130.8113   -3360.3767   -2915.9157     196.6026    11472.538 
    6250    297.52315    130.76808   -3358.9361   -2916.3929     228.1392    11473.213 
    6260    298.38488    130.79824   -3359.9415   -2916.1166    208.20037    11473.893 
    6270    300.41135    130.79182   -3359.7274   -2912.8883      189.438    11474.578 
    6280    301.78229    130.79227   -3359.7424   -2910.8641    172.11102    11475.267 
    6290    301.97901    130.78161   -3359.3868   -2910.2159    167.30802     11475.96 
    6300    301.85984     130.8003     -3360.01   -2911.0164    152.48267    11476.656 
    6310    302.31117    130.83004   -3361.0015   -2911.3365     126.9104    11477.356 
    6320    303.23471    130.81364   -3360.4545   -2909.4159    113.54785     11478.06 
    6330    303.79528    130.78622   -3359.5408   -2907.6683    107.41234    11478.765 
    6340    303.42145    130.76428   -3358.8092   -2907.4928    108.86921    11479.474 
    6350    302.25307    130.74659   -3358.2196   -2908.6411    118.18869    11480.185 
    6360    300.99721    130.72327   -3357.4424   -2909.7319      132.727      11480.9 
    6370    300.52902    130.72315   -3357.4383   -2910.4241     133.3151    11481.617 
    6380    301.36639    130.70502   -3356.8341   -2908.5744     131.9067    11482.337 
    6390    302.92162    130.75993   -3358.6645   -2908.0915    98.083321    11483.061 
    6400    304.04037    130.77086   -3359.0287   -2906.7917    85.558236    11483.787 
    6410    304.08127     130.7884   -3359.6132   -2907.3153    79.763619    11484.516 
    6420    303.50603    130.76237   -3358.7457   -2907.3035     95.71087    11485.247 
    6430    303.07158    130.67992   -3355.9975   -2905.2015    132.28109     11485.98 
    6440    302.84297    130.69628   -3356.5426   -2906.0866    130.08786    11486.716 
    6450    302.71585    130.65926   -3355.3087   -2905.0418    145.92658    11487.456 
    6460    304.01534       130.65   -3355.0001   -2902.8003    136.47269    11488.199 
    6470      308.426    130.72489   -3357.4963    -2898.736    68.173149    11488.945 
    6480    314.43141    130.85052    -3361.684   -2893.9911   -30.856651    11489.693 
    6490    317.62943    130.90173    -3363.391   -2890.9413   -74.928409     11490.44 
    6500    315.39938    130.83941   -3361.3137    -2892.181   -27.949849    11491.188 
    6510    309.65119    130.73642   -3357.8807    -2897.298     62.20165    11491.935 
    6520    304.82403    130.62405   -3354.1351   -2900.7324    140.94596    11492.685 
    6530    303.59714    130.60156   -3353.3853   -2901.8075    145.91118    11493.438 
    6540    305.17559    130.61386   -3353.7952   -2899.8696    106.99363    11494.194 
    6550     307.5524    130.62985   -3354.3284   -2896.8675    57.293813    11494.952 
    6560    310.03758    130.67155   -3355.7184    -2894.561  -0.40912979    11495.713 
    6570    312.78351    130.71833   -3357.2778    -2892.036   -53.357835    11496.474 
    6580    314.83451    130.73194   -3357.7314   -2889.4389   -75.958118    11497.235 
    6590    314.91084    130.69925   -3356.6415   -2888.2355   -53.152164    11497.995 
    6600    312.50182    130.62232   -3354.0774   -2889.2547    14.380903    11498.754 
    6610    308.03746     130.5294     -3350.98   -2892.7977    106.90623    11499.515 
    6620      302.905    130.41978    -3347.326   -2896.7778    206.54809    11500.279 
    6630    299.05706    130.31171   -3343.7237   -2898.8989    285.55706    11501.047 
    6640    297.83331    130.29019   -3343.0063   -2900.0018    299.61584    11501.821 
    6650    299.39366    130.32655   -3344.2183    -2898.893    261.07875    11502.602 
    6660    302.64071    130.39169   -3346.3898   -2896.2347    195.22353    11503.388 
    6670    305.77268    130.48224   -3349.4081   -2894.5944      122.675    11504.178 
    6680     307.8656    130.52095   -3350.6984   -2892.7717    82.138825    11504.972 
    6690    309.66859    130.58564   -3352.8547   -2892.2462    36.760951    11505.768 
    6700    312.24745    130.64181    -3354.727   -2890.2826   -11.564949    11506.565 
    6710    315.24083    130.69825   -3356.6084   -2887.7116   -64.274848    11507.363 
    6720    317.12359    130.78052   -3359.3507   -2887.6534   -118.49441     11508.16 
    6730    316.51973    130.75926    -3358.642   -2887.8429   -111.57791    11508.955 
    6740    312.69603    130.67552   -3355.8508   -2890.7392   -49.633088    11509.749 
    6750    305.61898    130.49734   -3349.9113   -2895.3262    80.049765    11510.543 
    6760    296.65404    130.31845   -3343.9484    -2902.698    227.37851    11511.339 
    6770    289.18044    130.18068    -3339.356    -2909.222    342.98042     11512.14 
    6780    287.04575    130.09535   -3336.5115   -2909.5527    384.56708    11512.948 
    6790     291.4753    130.20012   -3340.0039   -2906.4565    288.55085    11513.765 
    6800     299.5486    130.34002   -3344.6674   -2899.1115    140.00843    11514.587 
    6810    306.68526    130.46176   -3348.7252   -2892.5541    1.8985385    11515.413 
    6820    310.02442    130.52558   -3350.8525   -2889.7147   -82.459263     11516.24 
    6830    309.76295    130.46826    -3348.942   -2888.1931   -87.190244    11517.066 
    6840     307.6045    130.40975   -3346.9918   -2889.4535   -72.124057    11517.891 
    6850    305.64839     130.3829   -3346.0966   -2891.4678   -68.676332    11518.715 
    6860    305.58845    130.36139   -3345.3796     -2890.84   -83.222792    11519.539 
    6870    308.26421    130.42857   -3347.6192   -2889.0995   -152.89628    11520.362 
    6880    312.55597    130.50343   -3350.1142   -2885.2109   -238.35853    11521.182 
    6890    316.50496    130.56773   -3352.2575   -2881.4804   -316.44062    11521.998 
    6900    319.34442    130.59076   -3353.0254   -2878.0248   -369.57931    11522.809 
    6910    322.21292    130.65794   -3355.2646   -2875.9973   -439.12634    11523.613 
    6920    325.64667    130.72438   -3357.4792   -2873.1045   -510.42908     11524.41 
    6930    327.67586    130.80306   -3360.1019   -2872.7089   -570.05967    11525.197 
    6940    326.76948    130.82873   -3360.9575   -2874.9127   -580.81931    11525.974 
    6950    323.93928    130.77369   -3359.1229   -2877.2878   -539.25831     11526.74 
    6960    320.32953    130.70775    -3356.925   -2880.4591   -483.49198    11527.497 
    6970    316.67419    130.64904    -3354.968   -2883.9391   -428.29681    11528.244 
    6980     313.8414    130.56316   -3352.1054   -2885.2901   -368.45433    11528.984 
    6990    312.43265     130.5603   -3352.0099     -2887.29   -350.29486    11529.717 
    7000     312.5114    130.54694   -3351.5646   -2886.7275    -338.9529    11530.444 
    7010    313.46202     130.5506   -3351.6868   -2885.4358   -338.41678    11531.165 
    7020    314.03111    130.54297   -3351.4324    -2884.335   -326.21454     11531.88 
    7030    313.18298    130.49221   -3349.7403   -2883.9043   -280.83129     11532.59 
    7040    310.27018    130.44489    -3348.163   -2886.6596   -217.53981    11533.294 
    7050    305.91733    130.29877   -3343.2923   -2888.2634   -105.39533    11533.995 
    7060    301.41959    130.20536   -3340.1788     -2891.84   -18.186143    11534.694 
    7070    298.17424    130.14022   -3338.0073   -2894.4957    37.787659    11535.394 
    7080     297.3149    130.12531   -3337.5102   -2895.2769    43.794726    11536.094 
    7090    298.92601    130.11484   -3337.1613   -2892.5315    17.967238    11536.796 
    7100    301.83696    130.19266   -3339.7552   -2890.7956   -59.056671    11537.499 
    7110    304.94913    130.28629   -3342.8764   -2889.2877   -149.01523    11538.202 
    7120    308.32311    130.29424   -3343.1414   -2884.5341   -210.51803    11538.902 
    7130    311.92637    130.40139   -3346.7129   -2882.7461   -311.70753    11539.599 
    7140    315.22631    130.47904   -3349.3013   -2880.4261   -395.76191     11540.29 
    7150    316.96261    130.49882   -3349.9608   -2878.5029   -438.31945    11540.974 
    7160      316.255    130.51463   -3350.4878   -2880.0825   -451.94916     11541.65 
    7170    314.91375     130.4985   -3349.9498   -2881.5395   -440.25631    11542.318 
    7180     315.3125    130.52019   -3350.6731   -2881.6696   -449.95947    11542.978 
    7190    316.90732    130.53757   -3351.2524   -2879.8768   -464.87528    11543.629 
    7200    317.79602    130.56106   -3352.0354   -2879.3379   -476.34779    11544.273 
    7210    316.72825    130.51898   -3350.6328   -2879.5235    -448.7442    11544.907 
    7220    313.92107    130.46301   -3348.7669   -2881.8331   -404.76929    11545.533 
    7230    310.84006    130.41375   -3347.1249   -2884.7739   -365.75674    11546.152 
    7240    308.94947    130.37186   -3345.7285   -2886.1896   -343.12739    11546.764 
    7250    308.23359    130.34101   -3344.7004   -2886.2263   -335.82281     11547.37 
    7260    307.27195    130.30143   -3343.3811   -2886.3374   -321.96815    11547.969 
    7270    305.65792    130.29665   -3343.2216   -2888.5787   -312.81782    11548.563 
    7280    304.63707     130.2955   -3343.1834   -2890.0589   -305.12823    11549.152 
    7290    304.68904    130.28363   -3342.7876   -2889.5857   -298.36076    11549.735 
    7300    305.24957    130.25408   -3341.8025   -2887.7669   -284.85596    11550.312 
    7310    305.35736    130.24731    -3341.577   -2887.3811    -272.5344    11550.885 
    7320    304.37179    130.18394   -3339.4646   -2886.7346   -229.05924    11551.453 
    7330    302.70991    130.09167    -3336.389    -2886.131   -173.14556    11552.017 
    7340    301.99132    130.08086   -3336.0286   -2886.8394   -165.51696    11552.578 
    7350    303.95302    130.11797   -3337.2655   -2885.1584    -211.1136    11553.136 
    7360    308.76582     130.2301   -3341.0035   -2881.7377    -319.1359     11553.69 
    7370    315.16088    130.35319   -3345.1064   -2876.3285   -448.97789    11554.238 
    7380    321.65556    130.44287   -3348.0956   -2869.6573   -563.21693    11554.779 
    7390     326.3254    130.58012   -3352.6705   -2867.2862   -670.10763    11555.308 
    7400    327.39994     130.6122     -3353.74   -2866.7574   -694.54924    11555.826 
    7410    324.96103    130.54057   -3351.3523   -2867.9974   -641.31404     11556.33 
    7420    320.96628    130.51789   -3350.5963   -2873.1832   -590.89118    11556.822 
    7430    316.84671    130.39818    -3346.606   -2875.3205   -506.20367    11557.303 
    7440    313.61331    130.33135   -3344.3783   -2877.9023   -456.35222    11557.774 
    7450    312.42365    130.31607   -3343.8691   -2879.1625   -452.42033    11558.237 
    7460    314.07546    130.39147   -3346.3822   -2879.2187   -515.04212    11558.691 
    7470    318.30062    130.43001    -3347.667    -2874.219    -588.1756    11559.135 
    7480    322.43835    130.55779   -3351.9264   -2872.3238   -690.09045    11559.569 
    7490    323.35732    130.57178   -3352.3926   -2871.4231   -711.87875    11559.989 
    7500    320.25094    130.53134   -3351.0448   -2874.6958   -667.61837    11560.396 
    7510    314.77472    130.44114    -3348.038   -2879.8345   -575.69874     11560.79 
    7520    309.35457    130.32059   -3344.0195    -2883.878   -468.18012    11561.173 
    7530     305.1503    130.19224   -3339.7412   -2885.8532   -368.21665    11561.547 
    7540    302.05466    130.12086   -3337.3621   -2888.0787    -302.0951    11561.914 
    7550    299.70449    130.08373   -3336.1243   -2890.3366   -259.17708    11562.276 
    7560    297.68595    130.02149   -3334.0498   -2891.2645   -214.88896    11562.633 
    7570    295.82581    129.99779   -3333.2597   -2893.2412   -192.72147    11562.986 
    7580    294.63186    129.96719   -3332.2398   -2893.9972   -180.71733    11563.336 
    7590    295.15347    129.92637   -3330.8791   -2891.8607   -187.07967    11563.682 
    7600    298.07438    129.97532   -3332.5105   -2889.1475   -256.85225    11564.025 
    7610     303.3963    130.12594   -3337.5312   -2886.2522   -394.11561    11564.363 
    7620    309.94279    130.23333    -3341.111   -2880.0945   -530.72625    11564.694 
    7630    315.59703    130.37882   -3345.9606    -2876.534   -672.72532    11565.015 
    7640     318.5323    130.44006   -3348.0021   -2874.2094   -753.99589    11565.322 
    7650    318.96609    130.46077   -3348.6923   -2874.2545   -789.44796    11565.616 
    7660    318.56818    130.50096   -3350.0321   -2876.1861   -814.38809    11565.894 
    7670    318.11745    130.48498   -3349.4995   -2876.3239   -806.42398    11566.157 
    7680    316.38913    130.43636   -3347.8788    -2877.274    -768.3224    11566.404 
    7690    313.23025    130.36794    -3345.598   -2879.6917   -705.11799    11566.636 
    7700    310.50497    130.34349   -3344.7831   -2882.9305   -657.61332    11566.855 
    7710    308.74458    130.36547   -3345.5158   -2886.2816   -632.48628     11567.06 
    7720    306.31874    130.35879    -3345.293   -2889.6671   -590.15026    11567.254 
    7730    302.63455    130.28037   -3342.6791   -2892.5331   -512.50689    11567.437 
    7740    299.13612    130.21348   -3340.4493    -2895.507   -446.77052    11567.609 
    7750     298.0468    130.20509   -3340.1695   -2896.8475   -430.64475    11567.773 
    7760    300.33257    130.25021   -3341.6737   -2894.9518   -469.03026    11567.928 
    7770      304.852    130.33469   -3344.4896   -2891.0453   -545.78208    11568.075 
    7780    309.54234    130.39893    -3346.631   -2886.2103   -618.02309    11568.211 
    7790    312.65589    130.41687   -3347.2289   -2882.1769   -659.79078    11568.335 
    7800    314.16294    130.43524   -3347.8412   -2880.5476   -688.03112    11568.446 
    7810    315.31829    130.40739    -3346.913    -2877.901   -696.55138    11568.543 
    7820    316.96488    130.45619   -3348.5397   -2877.0785   -738.84359    11568.627 
    7830    318.75398    130.49994    -3349.998   -2875.8756   -779.52285    11568.697 
    7840    319.77663    130.51707    -3350.569   -2874.9255   -800.40544    11568.752 
    7850    319.36777    130.51828   -3350.6093    -2875.574   -797.67564     11568.79 
    7860    317.17471    130.47308   -3349.1027   -2877.3293   -756.66704    11568.814 
    7870    313.21321    130.38576   -3346.1919    -2880.311   -681.40229    11568.822 
    7880    308.13711    130.26908   -3342.3028   -2883.9722   -586.08726    11568.818 
    7890    303.26337    130.18398    -3339.466   -2888.3847   -509.27844    11568.801 
    7900    300.40053    130.15361   -3338.4536   -2891.6306    -476.3332    11568.775 
    7910    300.64546    130.14793   -3338.2644    -2891.077    -485.4729    11568.739 
    7920    303.73549    130.18944   -3339.6479   -2887.8644   -540.37616    11568.694 
    7930    307.94525    130.23687   -3341.2292   -2883.1839   -605.56118    11568.638 
    7940     310.9357    130.30814   -3343.6047   -2881.1114   -664.04694    11568.571 
    7950    311.35198    130.32947   -3344.3158   -2881.2033   -674.05514     11568.49 
    7960    309.49123    130.28308   -3342.7692   -2882.4244   -633.58486    11568.397 
    7970    307.38871     130.2833   -3342.7767   -2885.5593   -608.17997    11568.291 
    7980    307.87615    130.29429   -3343.1429   -2885.2005   -612.32774    11568.172 
    7990    311.79629    130.37188   -3345.7293    -2881.956   -675.13747    11568.042 
    8000    316.35903    130.46209   -3348.7364   -2878.1763   -751.21864    11567.899 
    8010     317.9114    130.49792   -3349.9307   -2877.0616    -780.5499    11567.741 
    8020    315.36125    130.45414   -3348.4714   -2879.3955   -742.08936    11567.567 
    8030    310.51292    130.35005   -3345.0018   -2883.1374   -660.84883    11567.379 
    8040    306.37305    130.27949   -3342.6495   -2886.9428   -599.45224    11567.178 
    8050    304.74821    130.24194   -3341.3979   -2888.1081   -575.44349    11566.964 
    8060     305.6885    130.29752   -3343.2506   -2888.5621   -611.33998     11566.74 
    8070    307.90181    130.36203   -3345.4011   -2887.4205   -660.38956    11566.503 
    8080    309.65264    130.39791   -3346.5969   -2886.0121   -690.62735    11566.253 
    8090     309.8876    130.41229   -3347.0762   -2886.1419   -695.41724    11565.989 
    8100      308.957    130.43171   -3347.7238   -2888.1737   -689.04336    11565.712 
    8110    308.17928    130.44619   -3348.2065   -2889.8132   -681.96117    11565.421 
    8120    308.66692    130.43005   -3347.6683   -2888.5496   -676.92772    11565.116 
    8130     310.5806    130.46136   -3348.7119   -2886.7468   -702.60591    11564.798 
    8140     312.3917    130.50256   -3350.0855   -2885.4265   -729.06767    11564.466 
    8150    311.95117    130.45664   -3348.5548   -2884.5511   -698.65466    11564.119 
    8160    308.49527    130.38383   -3346.1278   -2887.2644    -625.7147    11563.759 
    8170    303.23966     130.2564   -3341.8801   -2890.8341   -511.54152    11563.386 
    8180    298.44017    130.18909   -3339.6364   -2895.7293   -422.77463    11563.003 
    8190    296.06366    130.13721    -3337.907   -2897.5347   -364.70418    11562.611 
    8200    296.70594    130.11996   -3337.3321   -2896.0045   -354.23246    11562.212 
    8210    299.69536     130.1719   -3339.0634   -2893.2893   -403.55102    11561.806 
    8220    304.36492     130.2643   -3342.1435   -2889.4237   -495.06191    11561.391 
    8230    309.55745    130.37095   -3345.6982    -2885.255   -605.95716    11560.966 
    8240    314.20872    130.47906   -3349.3019   -2881.9402   -718.41638     11560.53 
    8250    318.15091    130.56168   -3352.0561   -2878.8307   -814.77273    11560.078 
    8260    321.12312    130.65728   -3355.2425   -2877.5962   -898.93263    11559.611 
    8270    321.66982     130.7098   -3356.9934   -2878.5339   -931.02404    11559.125 
    8280    318.46085    130.66568   -3355.5227   -2881.8363   -878.99875    11558.622 
    8290    312.43135    130.57858   -3352.6192   -2887.9013   -773.41314      11558.1 
    8300    306.40458    130.45998    -3348.666   -2892.9124   -647.83868    11557.563 
    8310    302.94328    130.34785   -3344.9282    -2894.323    -544.0133    11557.013 
    8320    302.59511    130.30796   -3343.5987   -2893.5114   -495.86026    11556.452 
    8330    304.23133    130.36573   -3345.5244   -2893.0034   -505.02584     11555.88 
    8340    305.90809    130.38089   -3346.0296   -2891.0145   -502.39341    11555.299 
    8350    305.72955    130.41531   -3347.1769   -2892.4274   -494.91942    11554.706 
    8360    303.28357    130.40573   -3346.8576   -2895.7463    -456.8076    11554.104 
    8370    300.74663     130.3509   -3345.0301   -2897.6922   -410.54356    11553.492 
    8380    301.57655     130.3338     -3344.46   -2895.8877   -417.58525    11552.872 
    8390    306.90576    130.45142   -3348.3805   -2891.8815   -522.19474    11552.243 
    8400    314.95559    130.62201   -3354.0671   -2885.5945   -672.95129    11551.603 
    8410    322.52915    130.76789   -3358.9298   -2879.1921   -806.15989    11550.949 
    8420    326.70356    130.79669   -3359.8898    -2873.943   -853.49719     11550.28 
    8430    325.86539    130.81875   -3360.6249   -2875.9248   -839.39056    11549.593 
    8440    320.36955    130.75811   -3358.6037   -2882.0783   -740.50095    11548.889 
    8450    312.13374    130.59697   -3353.2322   -2888.9569   -572.02982    11548.171 
    8460    303.56932    130.39801   -3346.6004   -2895.0641   -385.89579    11547.441 
    8470    296.90512    130.24783   -3341.5942   -2899.9703   -240.46004    11546.702 
    8480    293.77692    130.19769    -3339.923   -2902.9521   -172.82377    11545.959 
    8490    294.80777    130.21627   -3340.5423   -2902.0381   -177.25707    11545.211 
    8500    299.19386    130.30773   -3343.5909   -2898.5628   -244.49812    11544.459 
    8510    304.30835    130.39369   -3346.4562   -2893.8206   -318.42171    11543.701 
    8520    307.44288    130.47292   -3349.0974   -2891.7994   -370.93937    11542.937 
    8530    307.57632    130.46633   -3348.8776   -2891.3812   -360.54989    11542.166 
    8540    305.42692    130.44697   -3348.2324    -2893.933   -322.52787    11541.386 
    8550    302.58852    130.39844   -3346.6146   -2896.5371   -267.69373      11540.6 
    8560    300.77806    130.31852   -3343.9505   -2896.5659   -212.86111    11539.808 
    8570    301.03811    130.33004   -3344.3346   -2896.5632   -216.39366    11539.011 
    8580    303.74041    130.36923   -3345.6411   -2893.8503   -257.65203    11538.209 
    8590    308.53908    130.44132   -3348.0439   -2889.1153   -332.98252    11537.402 
    8600    313.97242    130.52583    -3350.861   -2883.8508   -417.72283    11536.587 
    8610    317.91608    130.60918   -3353.6393   -2880.7632    -485.1295    11535.764 
    8620    318.94261    130.65175   -3355.0582   -2880.6552    -507.0389    11534.931 
    8630    316.96263    130.62808   -3354.2692   -2882.8113   -474.65877    11534.087 
    8640    313.01031    130.54241   -3351.4137   -2885.8346   -402.50149    11533.233 
    8650    309.27854    130.48076   -3349.3586   -2889.3302   -343.10319    11532.371 
    8660    307.82276     130.4515   -3348.3833   -2890.5203   -315.42206    11531.502 
    8670    308.79112    130.46928   -3348.9759   -2889.6725   -322.48383    11530.625 
    8680    310.39282    130.47181   -3349.0602   -2887.3744   -320.37632    11529.742 
    8690    310.51329    130.47322   -3349.1073   -2887.2423   -294.76763    11528.852 
    8700    308.40661    130.45109   -3348.3697   -2889.6382   -234.46379    11527.955 
    8710    305.34501    130.38279    -3346.093   -2891.9154   -147.52575    11527.053 
    8720    303.75649    130.38645   -3346.2149   -2894.4002   -105.73896    11526.148 
    8730    305.48254    130.39122   -3346.3741    -2891.992   -103.59347     11525.24 
    8740    310.23218    130.47843   -3349.2808    -2887.834   -169.89042    11524.329 
    8750    315.31584    130.57627   -3352.5422   -2883.5338   -250.22326    11523.414 
    8760    317.62432    130.64399   -3354.7998   -2882.3577     -296.937    11522.494 
    8770    316.12584    130.64965   -3354.9884   -2884.7752   -281.13412    11521.567 
    8780    311.60466    130.58471   -3352.8236   -2889.3352   -205.06342    11520.634 
    8790    305.83974    130.50355   -3350.1183   -2895.2049   -103.51352    11519.696 
    8800    299.75365      130.353   -3345.1001   -2899.2392    30.349293    11518.756 
    8810     294.5909    130.29133   -3343.0443   -2904.8627    119.59174    11517.816 
    8820    292.39763    130.27921   -3342.6403    -2907.721    156.76383    11516.877 
    8830    294.31309    130.27958   -3342.6527   -2904.8843    144.14266     11515.94 
    8840    299.30815    130.37132   -3345.7106   -2900.5124    62.774833    11515.006 
    8850    304.94374    130.49928    -3349.976   -2896.3953    -39.87108    11514.072 
    8860    308.98179    130.60825   -3353.6085   -2894.0215   -119.67316    11513.136 
    8870    310.89466    130.63651   -3354.5503    -2892.118   -145.94636    11512.198 
    8880    311.51979    130.64374   -3354.7913   -2891.4292    -146.9069    11511.256 
    8890    311.52356    130.63495   -3354.4982   -2891.1305   -131.34067     11510.31 
    8900    310.85222    130.63686    -3354.562   -2892.1929   -112.13993    11509.361 
    8910    309.45345    130.63643   -3354.5478   -2894.2592   -86.671073    11508.409 
    8920    307.76632    130.63035    -3354.345   -2896.5659   -61.229289    11507.455 
    8930    306.95469    130.61368   -3353.7892   -2897.2174   -44.389424    11506.499 
    8940    307.76662    130.58913   -3352.9709   -2895.1914   -42.374302    11505.541 
    8950    309.75038    130.64256   -3354.7522   -2894.0219   -80.043519    11504.582 
    8960    311.46723    130.70274    -3356.758   -2893.4741      -115.31     11503.62 
    8970    311.77421    130.73161   -3357.7203   -2893.9798   -123.03851    11502.656 
    8980    310.72758     130.7262   -3357.5401   -2895.3564   -102.69928    11501.688 
    8990    309.06656     130.6734     -3355.78   -2896.0669   -57.569398    11500.718 
    9000    307.93603    130.63485   -3354.4949   -2896.4634   -24.119632    11499.746 
    9010    308.95031    130.64193   -3354.7311    -2895.191   -27.855513    11498.772 
    9020    312.36284    130.73119   -3357.7062   -2893.0902   -81.512018    11497.797 
    9030    316.09258    130.81497   -3360.4991   -2890.3353   -128.53279     11496.82 
    9040     317.1486    130.81922   -3360.6407   -2888.9062   -112.32697    11495.839 
    9050    314.06577    130.80206   -3360.0688   -2892.9197   -42.754526    11494.856 
    9060    307.68843    130.64981   -3354.9936   -2897.3304    109.97315    11493.871 
    9070    300.83128    130.52372   -3350.7906   -2903.3269    253.81005    11492.887 
    9080    296.16719    130.41261   -3347.0871   -2906.5609    363.63538    11491.908 
    9090    294.36767    130.39249   -3346.4163   -2908.5667     399.0105    11490.934 
    9100    294.88785    130.47649   -3349.2164    -2910.593    357.76086    11489.968 
    9110    297.55158    130.55085    -3351.695   -2909.1096    287.80721    11489.008 
    9120    302.41681    130.63249   -3354.4165   -2904.5944    187.27654    11488.052 
    9130      309.065    130.78054   -3359.3513   -2899.6405    45.535304      11487.1 
    9140    316.30304    130.89293   -3363.0978    -2892.621   -82.363239    11486.147 
    9150    323.12981    131.02922   -3367.6405   -2887.0094   -202.05958    11485.193 
    9160    327.69033    131.10975   -3370.3251   -2882.9106   -261.18639    11484.233 
    9170    327.16158    131.07938   -3369.3127   -2882.6846   -213.10207    11483.269 
    9180    320.24169    130.94414   -3364.8046   -2888.4694   -53.230871    11482.299 
    9190     308.7206    130.71555    -3357.185   -2897.9865    188.94769    11481.328 
    9200    296.56133    130.52588   -3350.8626   -2909.7501    415.59418     11480.36 
    9210    288.90861    130.36453   -3345.4844   -2915.7547    574.98237    11479.399 
    9220    289.45484    130.37013   -3345.6708   -2915.1287    578.71512    11478.448 
    9230     296.6305    130.50834   -3350.2781   -2909.0627    456.85323    11477.508 
    9240    305.44198    130.67462   -3355.8208    -2901.499    300.24673    11476.575 
    9250    312.41829    130.80159   -3360.0531   -2895.3546    175.12559    11475.647 
    9260    316.48615     130.8722   -3362.4068   -2891.6576    105.50438    11474.723 
    9270    317.77572    130.88484   -3362.8281   -2890.1608    96.183546      11473.8 
    9280    316.31209    130.89129   -3363.0431   -2892.5529    128.03009    11472.877 
    9290    311.79107     130.8224   -3360.7468   -2896.9812    226.66872    11471.957 
    9300     304.6863    130.71505   -3357.1682   -2903.9704    367.05129    11471.041 
    9310    297.51311    130.55893   -3351.9643   -2909.4361    523.27623    11470.131 
    9320    293.64692    130.49073    -3349.691   -2912.9135    608.78374     11469.23 
    9330    294.26987    130.50569   -3350.1896   -2912.4855    612.94872     11468.34 
    9340    297.79784    130.55732   -3351.9108   -2908.9591    568.23655    11467.462 
    9350    302.06161    130.67461   -3355.8205   -2906.5267    487.27345    11466.593 
    9360    305.65979    130.75139   -3358.3797    -2903.734    426.52958    11465.733 
    9370    308.13529    130.75508   -3358.5027   -2900.1748    404.16449    11464.881 
    9380    309.79498    130.79821   -3359.9404   -2899.1439    371.59399    11464.036 
    9390    311.83462    130.83297   -3361.0991   -2897.2688    334.00848    11463.197 
    9400    314.87579    130.91114   -3363.7046   -2895.3507    267.77411    11462.364 
    9410    317.77773     130.9827     -3366.09   -2893.4197    202.58548    11461.536 
    9420     319.5121    130.99995    -3366.665    -2891.415    169.30437    11460.711 
    9430    319.78186    131.02436   -3367.4788   -2891.8275    152.44783    11459.888 
    9440     318.0284      131.033   -3367.7667   -2894.7236    168.17497    11459.068 
    9450    314.07956    130.99487   -3366.4958   -2899.3263    230.89701    11458.251 
    9460    308.88675    130.89308   -3363.1027   -2903.6571    337.65267    11457.437 
    9470    303.86886     130.8065   -3360.2168   -2908.2349    442.66844     11456.63 
    9480    300.09247    130.73217   -3357.7389    -2911.374    534.21071     11455.83 
    9490    297.63992    130.67176   -3355.7255   -2913.0086    608.38651     11455.04 
    9500    295.39002    130.61124   -3353.7081   -2914.3378    677.18586    11454.261 
    9510     292.9949     130.5596   -3351.9868   -2916.1791    737.41686    11453.495 
    9520    292.11259    130.51759   -3350.5864    -2916.091     773.3085    11452.742 
    9530     294.4661    130.57388   -3352.4626   -2914.4666    738.24886    11452.003 
    9540    299.38922    130.71571   -3357.1904   -2911.8716    644.91949    11451.278 
    9550    304.61534    130.80826   -3360.2752    -2907.183    567.12796    11450.564 
    9560     308.2118    130.86129   -3362.0431   -2903.6014    519.63194    11449.861 
    9570    309.67974     130.9321   -3364.4033   -2903.7782     485.4507    11449.167 
    9580    309.61632     130.9455     -3364.85   -2904.3192    487.11561    11448.482 
    9590      309.328      130.919   -3363.9668   -2903.8648    505.27085    11447.806 
    9600    310.14825    130.94573   -3364.8576   -2903.5356    492.49166     11447.14 
    9610    311.91025    130.97111   -3365.7037   -2901.7609     472.4479    11446.481 
    9620    312.52224    130.98603   -3366.2011    -2901.348    466.68927    11445.832 
    9630    310.61312     130.9715   -3365.7167   -2903.7032    494.10973    11445.191 
    9640    307.17584    130.94291   -3364.7637   -2907.8629    539.71782    11444.559 
    9650    304.09736    130.88185   -3362.7285   -2910.4067    592.50642    11443.937 
    9660     302.4362    130.79714   -3359.9048   -2910.0539    639.90038    11443.326 
    9670    301.86504    130.76119   -3358.7064    -2909.705    656.77165    11442.727 
    9680    301.77435    130.77397   -3359.1325    -2910.266    650.22315     11442.14 
    9690    301.90553    130.76734   -3358.9114   -2909.8498    648.64441    11441.564 
    9700    302.90439    130.80918    -3360.306   -2909.7587    620.88798    11441.001 
    9710    305.54876    130.85542   -3361.8473   -2907.3667    578.03014    11440.449 
    9720    309.28161    130.91899   -3363.9664   -2903.9334    523.63499    11439.908 
    9730    311.72538    130.97724   -3365.9079   -2902.2401    490.08238    11439.377 
    9740    310.48175    130.94398   -3364.7994   -2902.9814    532.58841    11438.854 
    9750    305.27899    130.86509   -3362.1697   -2908.0903    634.12318    11438.342 
    9760     298.8736     130.7234   -3357.4467   -2912.8949    771.70021    11437.842 
    9770    295.63662    130.65505   -3355.1682   -2915.4311    849.35391    11437.355 
    9780    298.18574    130.69524   -3356.5078   -2912.9792    829.70901    11436.885 
    9790    304.03087    130.84699   -3361.5664   -2909.3435    732.38636     11436.43 
    9800    308.43227    130.90364   -3363.4547   -2904.6851    678.75194    11435.989 
    9810      309.389    130.94449   -3364.8163   -2904.6236    655.73171     11435.56 
    9820    309.20478    130.94735   -3364.9117    -2904.993    650.04196    11435.144 
    9830    311.58621     130.9963   -3366.5432   -2903.0824    597.89887     11434.74 
    9840    316.80613    131.07312    -3369.104   -2897.8789    507.30369    11434.347 
    9850    320.92896    131.18393   -3372.7976   -2895.4401    414.42821    11433.963 
    9860    320.01362    131.12947   -3370.9825   -2894.9865     433.4292    11433.587 
    9870    313.81089    131.05079   -3368.3598   -2901.5899    515.78327     11433.22 
    9880    305.53941    130.90419   -3363.4731   -2909.0064    649.28439    11432.862 
    9890    299.21519     130.7995   -3359.9832   -2914.9233    753.05794    11432.516 
    9900    297.04137    130.74006   -3358.0021   -2916.1755    801.45219    11432.184 
    9910    298.82519    130.76151   -3358.7171   -2914.2373    781.78912    11431.867 
    9920    302.18487    130.79397   -3359.7989   -2910.3219    743.67238    11431.564 
    9930     304.1639    130.83896   -3361.2986   -2908.8779    716.25452    11431.276 
    9940    303.39638    130.86995   -3362.3318   -2911.0527    726.22258    11431.001 
    9950     300.5113    130.78869    -3359.623   -2912.6352    804.30803    11430.741 
    9960    297.71143    130.74853   -3358.2844   -2915.4612     867.5875    11430.495 
    9970     297.2169    130.70973    -3356.991   -2914.9034    908.28216    11430.266 
    9980    299.38293    130.71469   -3357.1564    -2911.847    904.21977    11430.054 
    9990    303.00811     130.7639   -3358.7965   -2908.0949    865.72383    11429.859 
   10000    306.41271     130.8167   -3360.5568   -2904.7911    825.76031     11429.68 
Loop time of 2.50278 on 1 procs for 10000 steps with 500 atoms

Performance: 345.216 ns/day, 0.070 hours/ns, 3995.560 timesteps/s
100.0% CPU use with 1 MPI tasks x 1 OpenMP threads

MPI task timing breakdown:
Section |  min time  |  avg time  |  max time  |%varavg| %total
---------------------------------------------------------------
Pair    | 2.0969     | 2.0969     | 2.0969     |   0.0 | 83.78
Bond    | 0.0007844  | 0.0007844  | 0.0007844  |   0.0 |  0.03
Neigh   | 0.026091   | 0.026091   | 0.026091   |   0.0 |  1.04
Comm    | 0.076576   | 0.076576   | 0.076576   |   0.0 |  3.06
Output  | 0.0075617  | 0.0075617  | 0.0075617  |   0.0 |  0.30
Modify  | 0.2441     | 0.2441     | 0.2441     |   0.0 |  9.75
Other   |            | 0.05081    |            |       |  2.03

Nlocal:    500 ave 500 max 500 min
Histogram: 1 0 0 0 0 0 0 0 0 0
Nghost:    1644 ave 1644 max 1644 min
Histogram: 1 0 0 0 0 0 0 0 0 0
Neighs:    14910 ave 14910 max 14910 min
Histogram: 1 0 0 0 0 0 0 0 0 0

Total # of neighbors = 14910
Ave neighs/atom = 29.82
Ave special neighs/atom = 0
Neighbor list builds = 32
Dangerous builds = 0

#write_data      ${rep}/lj-out.data
Total wall time: 0:00:02
