24
Lattice="5.8629 0.0 0.0 -2.93145 5.07742034 0.0 0.0 0.0 6.52490004" Properties=species:S:1:pos:R:3:forces:R:3 energy=-49989.86786319216 stress="0.00195115 -0.0 0.0 0.0 0.00195115 -0.0 0.0 -0.0 0.00170371" pbc="T T T"
Hf  0.0  0.0  0.0  0.0  0.0  -0.0
B  0.0  1.69247345  1.63122501  0.0  -0.00016249036  -0.00010284199999999999
B  1.465725  0.84623672  1.63122501  -0.00014089354  -8.124518e-5  -0.00010284199999999999
Hf  2.93145  0.0  0.0  0.0  0.0  0.0
B  2.93145  1.69247345  1.63122501  -0.0  -0.0  -4.062259e-5
B  4.397175  0.84623672  1.63122501  0.00014089354  -8.124518e-5  -0.00010284199999999999
Hf  -1.465725  2.53871017  0.0  0.0  -0.0  0.0
B  -1.465725  4.23118362  1.63122501  -0.00014089354  8.124518e-5  -0.00010284199999999999
B  -0.0  3.38494689  1.63122501  -0.0  -0.0  -4.062259e-5
Hf  1.465725  2.53871017  0.0  -0.0  -0.0  0.0
B  1.465725  4.23118362  1.63122501  0.00014089354  8.124518e-5  -0.00010284199999999999
B  2.93145  3.38494689  1.63122501  0.0  0.00016249036  -0.00010284199999999999
Hf  0.0  0.0  3.26245002  0.0  0.0  0.0
B  0.0  1.69247345  4.89367503  -0.0  -0.00016249036  0.00010284199999999999
B  1.465725  0.84623672  4.89367503  -0.00014089354  -8.124518e-5  0.00010284199999999999
Hf  2.93145  0.0  3.26245002  0.0  -0.0  0.0
B  2.93145  1.69247345  4.89367503  0.0  0.0  4.062259e-5
B  4.397175  0.84623672  4.89367503  0.00014089354  -8.124518e-5  0.00010284199999999999
Hf  -1.465725  2.53871017  3.26245002  -0.0  -0.0  0.0
B  -1.465725  4.23118362  4.89367503  -0.00014089354  8.124518e-5  0.00010284199999999999
B  -0.0  3.38494689  4.89367503  0.0  0.0  4.062259e-5
Hf  1.465725  2.53871017  3.26245002  -0.0  0.0  -0.0
B  1.465725  4.23118362  4.89367503  0.00014089354  8.124518e-5  0.00010284199999999999
B  2.93145  3.38494689  4.89367503  0.0  0.00016249036  0.00010284199999999999
24
Lattice="7.298 0.0 0.0 -2.649 4.58820259 0.0 0.0 0.0 6.81053981" Properties=species:S:1:pos:R:3:forces:R:3 energy=-49971.139249083615 stress="-0.001373025 -0.000975185 0.0 -0.000975185 0.003533355 0.0 0.0 0.0 0.000535445" pbc="T T T"
Hf  0.0  0.0  0.0  0.0  0.0  0.0
B  0.33333333  1.52940086  1.70263495  0.99146629835  -0.59828076395  0.00020465558
B  1.99116667  0.76470043  1.70263495  -0.99166684025  0.59748271003  -0.00016300457
Hf  3.649  0.0  0.0  0.0  0.0  0.0
B  3.98233333  1.52940086  1.70263495  0.9914755541300001  -0.59826482344  -8.22736e-6
B  5.64016667  0.76470043  1.70263495  -0.99147195466  0.59734952964  0.00024270711999999997
Hf  -1.3245  2.29410129  0.0  0.0  0.0  0.0
B  -0.99116667  3.82350216  1.70263495  0.99147195466  -0.59734952964  0.00024270711999999997
B  0.66666667  3.05880173  1.70263495  -0.9914755541300001  0.59826482344  -8.22736e-6
Hf  2.3245  2.29410129  0.0  0.0  0.0  0.0
B  2.65783333  3.82350216  1.70263495  0.99166684025  -0.59748271003  -0.00016300457
B  4.31566667  3.05880173  1.70263495  -0.99146629835  0.59828076395  0.00020465558
Hf  0.0  0.0  3.40526991  0.0  0.0  0.0
B  0.33333333  1.52940086  5.10790486  0.99146629835  -0.59828076395  -0.00020465558
B  1.99116667  0.76470043  5.10790486  -0.99166684025  0.59748271003  0.00016300457
Hf  3.649  0.0  3.40526991  0.0  0.0  0.0
B  3.98233333  1.52940086  5.10790486  0.9914755541300001  -0.59826482344  8.22736e-6
B  5.64016667  0.76470043  5.10790486  -0.99147195466  0.59734952964  -0.00024270711999999997
Hf  -1.3245  2.29410129  3.40526991  0.0  0.0  0.0
B  -0.99116667  3.82350216  5.10790486  0.99147195466  -0.59734952964  -0.00024270711999999997
B  0.66666667  3.05880173  5.10790486  -0.9914755541300001  0.59826482344  8.22736e-6
Hf  2.3245  2.29410129  3.40526991  0.0  0.0  0.0
B  2.65783333  3.82350216  5.10790486  0.99166684025  -0.59748271003  0.00016300457
B  4.31566667  3.05880173  5.10790486  -0.99146629835  0.59828076395  -0.00020465558
24
Lattice="6.298 0.0 0.0 -3.149 5.45422799 0.0 0.0 0.0 6.96" Properties=species:S:1:pos:R:3:forces:R:3 energy=-49993.5707662857 stress="-0.000241995 3.47e-6 2.172e-5 3.47e-6 -0.00024936 6.245e-6 2.172e-5 6.245e-6 -0.000180065" pbc="T T T"
Hf  3.10616678  5.37774317  6.91664787  0.45749366542000003  0.9135182328699999  0.7634732974999999
B  -0.04229656  1.79868448  1.65196673  1.3185835609  0.0035115400899999997  0.9829648644200001
B  1.54256188  0.92803469  1.67104544  0.7028407395599999  -0.7220999609000001  0.48386646790000004
Hf  -0.06727538  5.42407646  6.85952343  1.78033642775  0.56949117447  1.8414950225200002
B  3.18267319  1.8879004  1.77549608  -0.51272239047  -0.9938620027399999  -0.81930981877
B  4.72979707  0.96850671  1.66419434  -0.5639341069999999  -1.10259222145  0.8303257396000001
Hf  -1.54400097  2.75616813  0.0971688  -0.65442066912  -0.44794272888  -2.49982625869
B  -1.51355105  4.53991668  1.72978197  -0.8206760747399999  0.5699812166  0.18012570615999998
B  0.04646759  3.62608574  1.82057942  -0.48562609452  0.3732239022  -1.50144126479
Hf  1.57504571  2.64730509  6.91158724  0.20693147346  1.3273523840299999  0.62158578957
B  1.52621793  4.60763947  1.78889723  1.18525199316  -0.68169796699  -0.7983470197
B  3.13674258  3.66803311  1.80144668  0.3765816935  0.08117010534  -0.82847766886
Hf  -3.06316767  5.43528431  3.55925044  -1.2325294889799998  0.03412091876  -1.83810586441
B  0.05564027  1.75789739  5.23679425  -0.69270977414  0.72238894692  -0.41684176544999996
B  1.57817659  0.89442297  5.21673108  0.57007274598  -0.36701790171  -0.33857797503
Hf  0.05656207  5.4202727  3.49352243  -0.55631300059  0.9606579204100001  -0.56146795584
B  3.14881133  1.78596383  5.13519618  0.44897269151  0.6542118998600001  0.69578217889
B  4.77841511  0.92960473  5.16868551  -0.82902633093  -0.37265775699  0.39638494902
Hf  -1.51597404  2.76762402  3.40501824  -0.6814208077999999  -0.9759037327000001  1.59068241029
B  -1.50154566  4.5154376  5.25523603  -1.20817598917  -0.39446848835000003  -0.78390491764
B  0.03402015  3.57627033  5.14706034  -0.06960757928  0.44028614198  0.70334260852
Hf  1.60449565  2.68711995  3.37786863  -0.12520756395  0.39389257315  1.8285256178999998
B  1.5457253  4.5559556  5.21442747  0.80181588036  -0.64839721318  -0.21414738239
B  3.12466813  3.61699455  5.22763527  0.58348899909  -0.33716544016  -0.31810727493
24
Lattice="6.298 0.0 0.0 -3.149 5.45422799 0.0 0.0 0.0 6.96" Properties=species:S:1:pos:R:3:forces:R:3 energy=-49992.39020329734 stress="-0.0001803 -3.0e-5 9.975e-6 -3.0e-5 -0.000196135 2.357e-5 9.975e-6 2.357e-5 -0.00010677" pbc="T T T"
Hf  -3.02890115  5.39894387  0.08779053  -2.24008696086  1.41831407619  -1.48455203734
B  -0.01954253  1.78172244  1.82921317  -0.40911678862  0.6138469290699999  -1.0844138695299999
B  1.52999203  0.91246153  1.72091769  0.53817578547  -0.26181824886  0.37706453669
Hf  0.11702428  5.40878753  0.07918223  -2.31458364882  0.83594811174  -2.1137903001300002
B  3.06008729  1.86010344  1.81954773  1.4149778817099998  -1.01681479451  -1.5522446985799998
B  4.5978313  0.97806212  1.6364306  2.1727789287  -0.55314546699  1.4919216950599998
Hf  4.59816084  2.79585678  6.91853048  2.73654591745  -1.4954625451199999  1.09633479996
B  -1.505355  4.55603836  1.76020785  -0.9100668553500001  -0.61472108607  -0.211391731
B  0.03073922  3.58779565  1.68357994  -0.3795589694  0.11462306531  0.70523850079
Hf  1.58109269  2.76415024  6.88160556  -0.58018571405  -0.95739937164  1.68309828833
B  1.53644851  4.54658399  1.73040453  1.24192719094  -0.37670561811  0.11275956827
B  3.14996709  3.5787297  1.73932124  -0.23294175789  1.61187300439  0.14686197547
Hf  6.22079498  0.07810354  3.54845415  0.9802498356199999  -1.1051267625399999  -1.17412860244
B  -0.03641618  1.76769666  5.28756665  0.01850538948  0.89853363926  -0.25159369722
B  1.63034657  0.87568594  5.24502328  -1.30931029776  0.88706315679  -0.33994474520999995
Hf  0.04799299  5.39039307  3.37826532  -0.80184519033  0.81849993802  1.90274977456
B  3.07191509  1.86043065  5.2559285  1.5133220868400001  -0.81472409399  -0.45586876182
B  4.61171269  0.96141501  5.16498361  1.40854254356  -0.88972162249  0.66525301698
Hf  4.66153494  2.77170164  3.53160411  1.3657947236299999  -0.7098864449800001  -1.07853284976
B  -1.56050475  4.62213795  5.11732373  0.43291545583999996  -1.18297507128  1.32339862334
B  -0.01383027  3.68736224  5.32432906  0.18656155852  -0.92461437046  -1.49834263533
Hf  1.66256681  2.6475307  3.40688488  -2.59240616972  1.58945756207  2.08280811921
B  1.57634774  4.48719967  5.19711904  -0.06755433875  1.10653209847  0.16091842002999998
B  3.24160444  3.63114224  5.23500437  -2.1726411204200002  1.0084254583599999  -0.5036044187500001
24
Lattice="6.298 0.0 0.0 -3.149 5.45422799 0.0 0.0 0.0 6.96" Properties=species:S:1:pos:R:3:forces:R:3 energy=-49993.030294009084 stress="-0.000173095 -8.405e-6 3.03e-6 -8.405e-6 -0.000227425 1.88e-6 3.03e-6 1.88e-6 -0.000159985" pbc="T T T"
Hf  0.07315985  0.00039021  0.07936321  -2.01250687064  0.37094492347999997  -0.93113712431
B  0.03464038  1.81548562  1.66033632  -0.36478520188999997  -0.29945379297  1.10329823178
B  1.63632451  0.85185465  1.76746083  -1.1658107414799999  1.0194912575600001  -0.44980982539
Hf  3.10081241  0.00782027  0.01592049  1.16246014912  0.45693626178  -0.36153385206
B  3.1295525  1.89653907  1.79829575  0.30135688418  -0.75090034879  -0.78227230089
B  4.6084998  0.97718285  1.835641  1.80783997802  -0.65612064738  -1.1425026306000001
Hf  -1.53072731  2.80664527  0.00570791  -1.01945114918  -1.6810620167299999  -0.01811613251
B  -1.63300369  4.48409187  1.79251596  1.62859717043  0.63999193652  -0.58886197938
B  0.12406735  3.57240395  1.6859109  -2.25846585468  0.33864585075  0.8239557061200001
Hf  1.55400892  2.8031742  6.93675782  0.81252841729  -1.4056701665  0.45809477691
B  1.48926199  4.55360274  1.73706793  1.68802647697  0.68458062825  0.14544686955
B  3.14524652  3.70887319  1.82984283  -0.5727080722300001  -1.36773226691  -0.86538766266
Hf  -3.07037237  5.40744793  3.44281876  -2.1136427218600002  1.05043281589  1.1434127823
B  0.00921083  1.83361524  5.12893964  -0.28089492565  -0.9269046618000001  1.27318344579
B  1.4885529  0.89794596  5.29608107  1.58057047064  0.39222139065  -0.9065563436799999
Hf  -0.07020227  5.42741879  3.37807769  1.60602592248  0.03156375243  2.4484777623
B  3.13307072  1.83304201  5.17852845  0.21535217641999999  -0.34173573864  0.64808765876
B  4.73026415  0.89172657  5.14938739  -0.47326397191  -0.056971896949999996  0.9534615514600001
Hf  -1.52832696  2.69791509  3.56755514  -1.07030086187  0.3754350052  -1.75716663936
B  -1.57385707  4.58758112  5.23608524  -0.34356581203000003  -0.62399537763  -0.07914771741
B  0.02746911  3.58266753  5.17827304  -0.3366995659  1.21477947399  0.37486783157000003
Hf  1.5954774  2.65273769  3.47815976  -0.28553361406  1.38041628498  0.013623479740000001
B  1.55652987  4.49810624  5.23383017  -0.05141688632  1.3632473272899999  -0.46975757391999995
B  3.07710032  3.71094604  5.31527745  1.54628963257  -1.2081405086800001  -1.03366185674
24
Lattice="6.56595 0.0 0.0 -3.18295107 6.56731601 0.0 0.57495842 2.43990102 7.55499314" Properties=species:S:1:pos:R:3:forces:R:3 energy=-49971.21068713529 stress="-0.00087183 4.7345e-5 -0.000248115 4.7345e-5 -0.001458035 -0.000556395 -0.000248115 -0.000556395 -0.000669545" pbc="T T T"
Hf  0.0  0.0  0.0  0.0  0.0  0.0
B  0.17708092  2.79908059  1.88874829  -0.13783296207999998  -0.83080601174  -0.19417649440999998
B  1.80189776  1.70452792  1.88874829  0.13847469616  0.83108317093  0.19015640063
Hf  3.282975  0.0  0.0  0.0  0.0  0.0
B  3.46005592  2.79908059  1.88874829  -0.13891640255  -0.8309376495  -0.1937337596
B  5.08487276  1.70452792  1.88874829  0.13835385681  0.83049697153  0.19075905475
Hf  -1.59147553  3.28365801  0.0  0.0  0.0  0.0
B  -1.41439462  6.0827386  1.88874829  -0.13833997314  -0.8308497195900001  -0.19392453151
B  0.21042223  4.98818593  1.88874829  0.13894262726  0.83051908256  0.19059245071
Hf  1.69149947  3.28365801  0.0  0.0  0.0  0.0
B  1.86858038  6.0827386  1.88874829  -0.13836208416999998  -0.83114127666  -0.19369725069000002
B  3.49339723  4.98818593  1.88874829  0.1379059799  0.8306085551  0.19069837797
Hf  0.28747921  1.21995051  3.77749657  0.0  0.0  0.0
B  0.46456013  4.0190311  5.66624486  -0.1379059799  -0.8306085551  -0.19069837797
B  2.08937697  2.92447843  5.66624486  0.13836208416999998  0.83114127666  0.19369725069000002
Hf  3.57045421  1.21995051  3.77749657  0.0  0.0  0.0
B  3.74753513  4.0190311  5.66624486  -0.13894262726  -0.83051908256  -0.19059245071
B  5.37235197  2.92447843  5.66624486  0.13833997314  0.8308497195900001  0.19392453151
Hf  -1.30399632  4.50360852  3.77749657  0.0  0.0  0.0
B  -1.12691541  7.30268911  5.66624486  -0.13835385681  -0.83049697153  -0.19075905475
B  0.49790144  6.20813644  5.66624486  0.13891640255  0.8309376495  0.1937337596
Hf  1.97897868  4.50360852  3.77749657  0.0  0.0  0.0
B  2.15605959  7.30268911  5.66624486  -0.13847469616  -0.83108317093  -0.19015640063
B  3.78087644  6.20813644  5.66624486  0.13783296207999998  0.83080601174  0.19417649440999998
24
Lattice="7.08202 0.0 0.0 -3.54101 6.13320923 0.0 0.0 0.0 6.09154298" Properties=species:S:1:pos:R:3:forces:R:3 energy=-49982.22862766775 stress="-0.00160281 -0.0 0.0 0.0 -0.00160281 0.0 0.0 0.0 0.00078162" pbc="T T T"
Hf  0.0  0.0  0.0  0.0  0.0  0.0
B  0.0  2.04440308  1.52288574  -0.0  -0.00022728082  8.741569999999999e-6
B  1.770505  1.02220154  1.52288574  -0.00019694243  -0.00011364041  8.741569999999999e-6
Hf  3.54101  0.0  0.0  0.0  0.0  -0.0
B  3.54101  2.04440308  1.52288574  -0.0  0.0  4.833574e-5
B  5.311515  1.02220154  1.52288574  0.00019694243  -0.00011364041  8.741569999999999e-6
Hf  -1.770505  3.06660462  0.0  0.0  0.0  0.0
B  -1.770505  5.11100769  1.52288574  -0.00019694243  0.00011364041  8.741569999999999e-6
B  -0.0  4.08880615  1.52288574  0.0  -0.0  4.833574e-5
Hf  1.770505  3.06660462  0.0  -0.0  0.0  -0.0
B  1.770505  5.11100769  1.52288574  0.00019694243  0.00011364041  8.741569999999999e-6
B  3.54101  4.08880615  1.52288574  -0.0  0.00022728082  8.741569999999999e-6
Hf  0.0  0.0  3.04577149  0.0  0.0  -0.0
B  0.0  2.04440308  4.56865723  0.0  -0.00022728082  -8.741569999999999e-6
B  1.770505  1.02220154  4.56865723  -0.00019694243  -0.00011364041  -8.741569999999999e-6
Hf  3.54101  0.0  3.04577149  0.0  0.0  0.0
B  3.54101  2.04440308  4.56865723  0.0  0.0  -4.833574e-5
B  5.311515  1.02220154  4.56865723  0.00019694243  -0.00011364041  -8.741569999999999e-6
Hf  -1.770505  3.06660462  3.04577149  -0.0  -0.0  -0.0
B  -1.770505  5.11100769  4.56865723  -0.00019694243  0.00011364041  -8.741569999999999e-6
B  -0.0  4.08880615  4.56865723  0.0  0.0  -4.833574e-5
Hf  1.770505  3.06660462  3.04577149  -0.0  -0.0  -0.0
B  1.770505  5.11100769  4.56865723  0.00019694243  0.00011364041  -8.741569999999999e-6
B  3.54101  4.08880615  4.56865723  -0.0  0.00022728082  -8.741569999999999e-6
24
Lattice="6.298 0.0 0.0 -3.149 5.45422799 0.0 0.0 0.0 6.96" Properties=species:S:1:pos:R:3:forces:R:3 energy=-49992.97465107853 stress="-0.000194725 -5.62e-6 -2.617e-5 -5.62e-6 -0.000205395 1.87e-6 -2.617e-5 1.87e-6 -0.000143355" pbc="T T T"
Hf  -3.04908787  5.38754276  6.85898722  -1.5906813818699999  1.2293357306700001  2.08636028189
B  0.0186407  1.85846654  1.70446021  0.13163827421000002  -0.9641740883900001  0.47446053858
B  1.60202866  0.84247586  1.79041792  -0.05248901417  1.45821934324  -0.65100991419
Hf  3.16490724  0.05881616  0.10045629  0.46342250672  -1.01724004618  -1.6427250901800001
B  3.1750286  1.88297694  1.73768618  -0.02852785659  -0.96119989775  0.49417020788000005
B  4.73767655  0.85364257  1.80211718  -0.24297399499  1.44837427858  -0.6529145480299999
Hf  -1.52804248  2.68310893  0.00816104  0.01665320506  0.99486316961  0.02525696678
B  -1.46463192  4.49748333  1.76787403  -1.75730856132  0.84808809563  -0.08339303517
B  0.02873845  3.66290277  1.7537601  0.33481292941  -1.0796877654200001  0.11099325692
Hf  1.65205049  2.71757336  6.86480967  -0.9616174362700001  0.23222649178  2.0998588086
B  1.55658579  4.51531588  1.74920429  0.8273546342200001  0.47390210652  0.05189870109
B  3.18391338  3.67461228  1.69793483  -0.10376500695  -0.71331262621  0.40785543149
Hf  -0.03168264  0.07345619  3.40323937  0.29696913025  -1.1270547337799999  1.5616814805
B  0.09557628  1.77645609  5.27668903  -1.79146701741  1.00048348491  -0.8064365714199999
B  1.57606537  0.9131781  5.13426932  0.20798200449  -0.15613678124  1.3447578783199998
Hf  -0.07633025  5.45183456  3.57757762  2.23263502954  0.22509388486999998  -1.75821459934
B  3.13518524  1.8089726  5.20423829  0.8658586790199999  0.37691952947  0.60698839609
B  4.73282159  0.98308481  5.31110709  0.13473998893  -1.2493194739  -0.9339416256499999
Hf  4.67378542  2.79850951  3.58149212  1.3156931864899999  -1.24240643466  -1.60001635021
B  -1.57169646  4.62642302  5.2031989  0.0003548049  -1.41412120785  0.25964468319
B  0.05631562  3.69450021  5.18933863  -1.2439290104699998  -1.20949802308  0.87254957954
Hf  1.62385743  2.67678086  3.58390094  -1.15643103687  1.41604075378  -2.69952845376
B  1.52193057  4.49621423  5.26294311  1.2602258679999998  1.77330614863  -0.44210284591
B  3.09635322  3.68997075  5.13106224  0.8408490472499999  -0.34270193923000003  0.87380579457
24
Lattice="6.298 0.0 0.0 -3.149 5.45422799 0.0 0.0 0.0 6.96" Properties=species:S:1:pos:R:3:forces:R:3 energy=-49993.37524812347 stress="-0.00021284 7.13e-6 -7.875e-6 7.13e-6 -0.000224125 -4.98e-6 -7.875e-6 -4.98e-6 -0.0001869" pbc="T T T"
Hf  0.02045078  0.00215357  0.02604026  -0.04592820878  -0.33175903621999997  -0.83732619454
B  0.05442908  1.78993957  1.699566  -0.84027518889  0.21223349277  0.34178561701000004
B  1.57183749  0.8540188  1.8121693  0.67013235567  0.97340518631  -1.19283504803
Hf  3.17727957  0.01096269  0.03186462  -0.91967589762  -0.02347471492  -1.13478536692
B  3.12978278  1.76829835  1.77898362  -0.04416858216  1.00535408203  -0.31310401162999996
B  4.66552922  0.89190666  1.65881124  0.9955979757  0.242655699  0.9295595280299999
Hf  4.72205913  2.71707375  0.01113748  -0.48131290104  -0.03966513098  -0.03503981203
B  -1.53679224  4.52346645  1.7718752  -0.85043443586  -0.10041441459  -0.76308506895
B  -0.06140071  3.59576878  1.78424763  1.52567289683  0.40909879127  -0.8760698612
Hf  1.52511494  2.77300253  6.86377646  0.8837742696299999  -1.1873499699599999  2.61336331248
B  1.55332009  4.57426372  1.66421779  0.12928113557  -0.62304871702  0.80986378107
B  3.10504995  3.68738621  1.7688431  0.4855602756399999  -1.26520084975  -0.46057069806
Hf  -3.06703562  5.43954456  3.38502467  -1.63049769059  -0.09648225072  1.94134997663
B  -0.08366546  1.80518016  5.27827029  1.83770118114  0.05312200668  -0.88511172984
B  1.53962726  0.9441192  5.21622378  0.5964887421  -0.75116465273  0.07058097881
Hf  -0.03910593  5.40309345  3.46369082  1.0785832423400001  1.09086874766  0.62020513572
B  3.14124784  1.84752671  5.2570806  -0.01508280772  -0.92303934523  -0.54488931123
B  4.82482549  0.83129247  5.12335133  -1.81057917469  0.7861910953  0.8048795435399999
Hf  -1.48034217  2.70058722  3.41510381  -2.16610602553  -0.42520179163  1.3880327635
B  -1.53676  4.47948265  5.22023034  -0.71624362321  1.08836403075  -0.02694408979
B  0.05630189  3.66495041  5.28247744  -1.70789915084  -0.52249752257  -0.79089560259
Hf  1.54502844  2.7740257  3.52614386  0.8313587874899999  -1.29728446849  -1.21565671625
B  1.58941062  4.48717676  5.15490627  0.22646476873  1.40432550735  0.58949085821
B  3.07637545  3.60051912  5.29542707  1.9675880560899999  0.32096473989999996  -1.0327990123600002
24
Lattice="7.16645 0.0 0.0 -3.583225 6.20632775 0.0 0.0 0.0 7.8934798" Properties=species:S:1:pos:R:3:forces:R:3 energy=-49971.8759470185 stress="-0.001583435 0.0 0.0 0.0 -0.001583435 -0.0 0.0 0.0 -0.001417865" pbc="T T T"
Hf  0.0  0.0  0.0  -0.0  0.0  0.0
B  0.0  2.06877592  1.97336995  -0.0  -0.00042268061999999995  -0.00076257343
B  1.7916125  1.03438796  1.97336995  -0.00036611752  -0.00021134030999999997  -0.00076257343
Hf  3.583225  0.0  0.0  0.0  0.0  -0.0
B  3.583225  2.06877592  1.97336995  -0.0  -0.0  -0.0007610308
B  5.3748375  1.03438796  1.97336995  0.00036611752  -0.00021134030999999997  -0.00076257343
Hf  -1.7916125  3.10316388  0.0  0.0  -0.0  0.0
B  -1.7916125  5.1719398  1.97336995  -0.00036611752  0.00021134030999999997  -0.00076257343
B  -0.0  4.13755184  1.97336995  0.0  -0.0  -0.0007610308
Hf  1.7916125  3.10316388  0.0  0.0  -0.0  0.0
B  1.7916125  5.1719398  1.97336995  0.00036611752  0.00021134030999999997  -0.00076257343
B  3.583225  4.13755184  1.97336995  0.0  0.00042268061999999995  -0.00076257343
Hf  0.0  0.0  3.9467399  0.0  -0.0  0.0
B  0.0  2.06877592  5.92010985  0.0  -0.00042268061999999995  0.00076257343
B  1.7916125  1.03438796  5.92010985  -0.00036611752  -0.00021134030999999997  0.00076257343
Hf  3.583225  0.0  3.9467399  0.0  -0.0  0.0
B  3.583225  2.06877592  5.92010985  0.0  -0.0  0.0007610308
B  5.3748375  1.03438796  5.92010985  0.00036611752  -0.00021134030999999997  0.00076257343
Hf  -1.7916125  3.10316388  3.9467399  0.0  -0.0  0.0
B  -1.7916125  5.1719398  5.92010985  -0.00036611752  0.00021134030999999997  0.00076257343
B  -0.0  4.13755184  5.92010985  0.0  0.0  0.0007610308
Hf  1.7916125  3.10316388  3.9467399  0.0  0.0  0.0
B  1.7916125  5.1719398  5.92010985  0.00036611752  0.00021134030999999997  0.00076257343
B  3.583225  4.13755184  5.92010985  -0.0  0.00042268061999999995  0.00076257343
24
Lattice="6.56595 0.0 0.0 -3.68512501 5.43429416 0.0 1.08147216 3.30703249 5.16539589" Properties=species:S:1:pos:R:3:forces:R:3 energy=-49880.19452542824 stress="0.004658225 -0.001192165 -0.001353475 -0.001192165 0.003919485 -0.005288575 -0.001353475 -0.005288575 0.011054085" pbc="T T T"
Hf  0.0  0.0  0.0  0.0  0.0  0.0
B  0.13631804  2.63818951  1.29134897  -8.96994557309  8.48693423642  -3.88431200161
B  1.84483054  1.73247382  1.29134897  8.96969823808  -8.48727052976  3.88471617067
Hf  3.282975  0.0  0.0  0.0  0.0  0.0
B  3.41929304  2.63818951  1.29134897  -8.96921642331  8.48729521184  -3.8844827193300002
B  5.12780554  1.73247382  1.29134897  8.96948638356  -8.48699028531  3.88399884772
Hf  -1.84256251  2.71714708  0.0  0.0  0.0  0.0
B  -1.70624447  5.35533659  1.29134897  -8.96933469161  8.486644221979999  -3.88447654881
B  0.00226803  4.4496209  1.29134897  8.96933674845  -8.48630690022  3.88390680413
Hf  1.44041249  2.71714708  0.0  0.0  0.0  0.0
B  1.57673053  5.35533659  1.29134897  -8.969635504460001  8.48701753844  -3.88419424752
B  3.28524303  4.4496209  1.29134897  8.96963653288  -8.48716563092  3.8844878614300002
Hf  0.54073608  1.65351625  2.58269795  0.0  0.0  0.0
B  0.67705412  4.29170576  3.87404692  -8.96963653288  8.48716563092  -3.8844878614300002
B  2.38556662  3.38599006  3.87404692  8.969635504460001  -8.48701753844  3.88419424752
Hf  3.82371108  1.65351625  2.58269795  0.0  0.0  0.0
B  3.96002912  4.29170576  3.87404692  -8.96933674845  8.48630690022  -3.88390680413
B  5.66854162  3.38599006  3.87404692  8.96933469161  -8.486644221979999  3.88447654881
Hf  -1.30182643  4.37066333  2.58269795  0.0  0.0  0.0
B  -1.16550839  7.00885284  3.87404692  -8.96948638356  8.48699028531  -3.88399884772
B  0.54300411  6.10313714  3.87404692  8.96921642331  -8.48729521184  3.8844827193300002
Hf  1.98114857  4.37066333  2.58269795  0.0  0.0  0.0
B  2.11746661  7.00885284  3.87404692  -8.96969823808  8.48727052976  -3.88471617067
B  3.82597911  6.10313714  3.87404692  8.96994557309  -8.48693423642  3.88431200161
24
Lattice="6.298 0.0 0.0 -3.149 5.45422799 0.0 0.0 0.0 6.96" Properties=species:S:1:pos:R:3:forces:R:3 energy=-49992.897609930376 stress="-0.00020582 -1.385e-5 3.464e-5 -1.385e-5 -0.000197795 5.91e-6 3.464e-5 5.91e-6 -0.000144485" pbc="T T T"
Hf  0.06187548  0.04839651  0.1036394  -1.3699366851800001  -1.1781132157299998  -1.8266235551099999
B  -0.05714215  1.89088943  1.6706626  0.20307284162  -0.54905492644  1.154607134
B  1.4907914  0.92086108  1.75039295  1.23989554723  0.055289916040000005  0.37758028932
Hf  3.11186726  0.06614821  0.07254012  0.79937184023  -1.44265523496  -2.00844615427
B  3.17363162  1.78178002  1.6391182  -0.47717916684999995  1.04141768617  1.3265023949
B  4.70316466  0.9865359  1.64567021  0.50765690776  -1.32986635672  1.09671531536
Hf  -1.52484306  2.74604299  6.9315643  -1.36835240417  0.32511132934  -0.030612978139999997
B  -1.56073322  4.55832789  1.83559305  -0.8912503688200001  0.51417297688  -1.11271136004
B  -0.1183816  3.70421444  1.64298988  2.39178199612  -0.87465012739  1.02057007014
Hf  1.57423934  2.68516387  0.10299516  0.25112782296  1.42533818479  -1.80183451943
B  1.5877506  4.53973042  1.70788681  0.02677131523  0.3197460622  0.52680660237
B  3.23573737  3.61130616  1.84415017  -2.06971478998  0.67244578646  -1.68033132432
Hf  -3.08596616  5.45057996  3.53918066  -1.8623914885  0.06628475426000001  -0.76240939701
B  -0.02165319  1.89358698  5.27093263  0.03266467604  -1.7565696415499998  -0.53453055078
B  1.47925179  0.97846859  5.16498401  1.6710848001  -1.21422772666  1.12170952083
Hf  0.05247793  5.42994748  3.40999901  -0.30499594835  0.24244898657999997  1.383636268
B  3.12240197  1.75332452  5.17268146  0.1460973452  0.78262607737  0.40645009555999995
B  4.7173262  0.90476916  5.30871954  0.07125305128000001  -0.40694168032  -0.89652719184
Hf  4.61653022  2.76016061  3.40344971  2.35270923506  -1.23117248879  2.0140546427399997
B  -1.55187526  4.56280278  5.1893592  -0.06720981805  -0.2770923427  0.49209177105999996
B  0.08297746  3.55537721  5.21389995  -0.77070771799  2.3658483289800003  -0.03966050309
Hf  1.55484368  2.6647127  3.45817181  0.18565654892  1.4385333276  -0.09392868386
B  1.66100791  4.48898316  5.28599073  -0.9457890240500001  0.5578386616600001  -0.34119530392999997
B  3.15692005  3.58560268  5.22886016  0.24838245576999998  0.45324269135  0.20808741754
24
Lattice="6.8629 0.0 0.0 -3.43145 5.94344574 0.0 0.0 0.0 6.96000037" Properties=species:S:1:pos:R:3:forces:R:3 energy=-49987.46127950667 stress="-0.001377325 -0.0 0.0 -0.0 -0.001377325 -0.0 0.0 -0.0 -0.000556075" pbc="T T T"
Hf  0.0  0.0  0.0  -0.0  -0.0  -0.0
B  0.0  1.98114858  1.74000009  0.0  0.00023550818  -0.00023190871
B  1.715725  0.99057429  1.74000009  0.00020414137  0.00011775409  -0.00023190871
Hf  3.43145  0.0  0.0  0.0  0.0  -0.0
B  3.43145  1.98114858  1.74000009  -0.0  -0.0  -0.00036406068
B  5.147175  0.99057429  1.74000009  -0.00020414137  0.00011775409  -0.00023190871
Hf  -1.715725  2.97172287  0.0  0.0  0.0  0.0
B  -1.715725  4.95287145  1.74000009  0.00020414137  -0.00011775409  -0.00023190871
B  -0.0  3.96229716  1.74000009  -0.0  -0.0  -0.00036406068
Hf  1.715725  2.97172287  0.0  0.0  0.0  0.0
B  1.715725  4.95287145  1.74000009  -0.00020414137  -0.00011775409  -0.00023190871
B  3.43145  3.96229716  1.74000009  0.0  -0.00023550818  -0.00023190871
Hf  0.0  0.0  3.48000019  0.0  0.0  0.0
B  0.0  1.98114858  5.22000028  0.0  0.00023550818  0.00023190871
B  1.715725  0.99057429  5.22000028  0.00020414137  0.00011775409  0.00023190871
Hf  3.43145  0.0  3.48000019  0.0  0.0  0.0
B  3.43145  1.98114858  5.22000028  -0.0  0.0  0.00036406068
B  5.147175  0.99057429  5.22000028  -0.00020414137  0.00011775409  0.00023190871
Hf  -1.715725  2.97172287  3.48000019  0.0  0.0  0.0
B  -1.715725  4.95287145  5.22000028  0.00020414137  -0.00011775409  0.00023190871
B  -0.0  3.96229716  5.22000028  -0.0  -0.0  0.00036406068
Hf  1.715725  2.97172287  3.48000019  -0.0  -0.0  -0.0
B  1.715725  4.95287145  5.22000028  -0.00020414137  -0.00011775409  0.00023190871
B  3.43145  3.96229716  5.22000028  -0.0  -0.00023550818  0.00023190871
24
Lattice="5.298 0.0 0.0 -2.649 4.58820259 0.0 0.0 0.0 5.96" Properties=species:S:1:pos:R:3:forces:R:3 energy=-49945.67398697437 stress="0.0097325 -0.0 0.0 -0.0 0.0097325 0.0 0.0 0.0 0.00890696" pbc="T T T"
Hf  0.0  0.0  0.0  0.0  0.0  -0.0
B  0.0  1.52940086  1.49  -0.0  -2.879576e-5  -4.679311e-5
B  1.3245  0.76470043  1.49  -2.5196289999999997e-5  -1.4912089999999998e-5  -4.679311e-5
Hf  2.649  0.0  0.0  0.0  -0.0  0.0
B  2.649  1.52940086  1.49  -0.0  -0.0  4.1136799999999996e-5
B  3.9735  0.76470043  1.49  2.5196289999999997e-5  -1.4912089999999998e-5  -4.679311e-5
Hf  -1.3245  2.29410129  0.0  -0.0  -0.0  0.0
B  -1.3245  3.82350216  1.49  -2.5196289999999997e-5  1.4912089999999998e-5  -4.679311e-5
B  -0.0  3.05880173  1.49  -0.0  -0.0  4.1136799999999996e-5
Hf  1.3245  2.29410129  0.0  0.0  -0.0  -0.0
B  1.3245  3.82350216  1.49  2.5196289999999997e-5  1.4912089999999998e-5  -4.679311e-5
B  2.649  3.05880173  1.49  0.0  2.879576e-5  -4.679311e-5
Hf  0.0  0.0  2.98  0.0  0.0  -0.0
B  0.0  1.52940086  4.47  0.0  -2.879576e-5  4.679311e-5
B  1.3245  0.76470043  4.47  -2.5196289999999997e-5  -1.4912089999999998e-5  4.679311e-5
Hf  2.649  0.0  2.98  -0.0  0.0  0.0
B  2.649  1.52940086  4.47  0.0  0.0  -4.1136799999999996e-5
B  3.9735  0.76470043  4.47  2.5196289999999997e-5  -1.4912089999999998e-5  4.679311e-5
Hf  -1.3245  2.29410129  2.98  -0.0  0.0  0.0
B  -1.3245  3.82350216  4.47  -2.5196289999999997e-5  1.4912089999999998e-5  4.679311e-5
B  -0.0  3.05880173  4.47  0.0  0.0  -4.1136799999999996e-5
Hf  1.3245  2.29410129  2.98  0.0  -0.0  0.0
B  1.3245  3.82350216  4.47  2.5196289999999997e-5  1.4912089999999998e-5  4.679311e-5
B  2.649  3.05880173  4.47  0.0  2.879576e-5  4.679311e-5
24
Lattice="6.298 0.0 0.0 -3.149 5.45422799 0.0 0.0 0.0 6.96" Properties=species:S:1:pos:R:3:forces:R:3 energy=-49993.496136066344 stress="-0.00022643 -1.2215e-5 -2.0825e-5 -1.2215e-5 -0.000232265 -6.5e-7 -2.0825e-5 -6.5e-7 -0.00017249" pbc="T T T"
Hf  6.18921542  0.03607294  0.06091904  1.71515568236  -0.58897767663  -1.22904571623
B  -0.03906429  1.8195208  1.67868968  -0.13685493466  0.30896410692  0.8623615368099999
B  1.52553502  0.97897142  1.80766971  0.042547278029999996  -0.52542851957  -1.2373013577799998
Hf  0.05861246  5.39457935  0.07305525  -1.9366022756999999  1.46238135898  -1.1425849042