3
Lattice="3.649 0.0 0.0 -2.04799323 3.02008687 0.0 0.54073601 1.65351604 2.58269763" Properties=species:S:1:pos:R:3:forces:R:3 energy=-6239.394046541342 stress="0.001618795 -0.00054426 -0.00082911 -0.00054426 0.00189617 -0.00318593 -0.00082911 -0.00318593 0.005113965" pbc="T T T"
Hf  0.0  0.0  0.0  0.0  0.0  0.0
B  0.12137252  2.84014927  1.29134881  -6.86857344446  6.40226981911  -2.63879871013
B  2.02037026  1.83345365  1.29134881  6.86857344446  -6.40226981911  2.63879871013
3
Lattice="3.01503 0.0 0.0 -1.69217896 2.49538299 0.0 -0.6911208 -0.46866557 3.89142042" Properties=species:S:1:pos:R:3:forces:R:3 energy=-6247.576546502684 stress="0.000477085 0.00071272 0.001163865 0.00071272 0.00128499 0.000968585 0.001163865 0.000968585 -0.00051904" pbc="T T T"
Hf  0.0  0.0  0.0  0.0  0.0  0.0
B  -0.46866971  1.42925588  1.94571021  0.31626897418  -0.24703059768  -0.44313640801
B  1.10039995  0.59746155  1.94571021  -0.31626897418  0.24703059768  0.44313640801
3
Lattice="2.78297 0.0 0.0 -2.04798985 3.02008188 0.0 0.62755907 0.42556283 3.53353012" Properties=species:S:1:pos:R:3:forces:R:3 energy=-6245.759067827106 stress="0.00193493 0.00175821 -0.001573735 0.00175821 -0.000503495 -0.0009671 -0.001573735 -0.0009671 0.000978865" pbc="T T T"
Hf  0.0  0.0  0.0  0.0  0.0  0.0
B  -0.12389037  2.22616934  1.76676506  1.21478153083  0.08895010264  1.95289142008
B  1.48642958  1.21947538  1.76676506  -1.21478153083  -0.08895010264  -1.95289142008
3
Lattice="3.149 0.0 0.0 -1.5745 2.727114 0.0 0.0 0.0 3.48" Properties=species:S:1:pos:R:3:forces:R:3 energy=-6248.733175716487 stress="-0.000159705 -0.00012024 -4.715e-6 -0.00012024 -0.000142675 -4.475e-5 -4.715e-6 -4.475e-5 0.00026578" pbc="T T T"
Hf  1.62879446  2.61442766  3.4390164  -2.64614779945  2.9602740605599998  -0.31818543485
B  -0.15548333  1.9457976  1.72768166  1.97330607129  -1.64016329596  -0.41932951343
B  1.44217955  1.01494578  1.63141077  0.67284172816  -1.3201107646  0.7375159767
3
Lattice="3.149 0.0 0.0 -1.5745 2.727114 0.0 0.0 0.0 3.48" Properties=species:S:1:pos:R:3:forces:R:3 energy=-6249.203325064037 stress="-0.00022028 7.85e-7 2.944e-5 7.85e-7 -0.00021514 6.3875e-5 2.944e-5 6.3875e-5 -0.00012071" pbc="T T T"
Hf  1.47438623  2.64151161  0.02130773  0.31755912707  0.6948504303699999  2.22325429651
B  -0.08044198  1.78451328  1.89736615  -0.07198991420999999  -0.35165896322  -1.07478323044
B  1.50251055  0.87403601  1.90382535  -0.24556921286  -0.34319198136  -1.14847106607
3
Lattice="3.28297 0.0 0.0 -1.78885908 2.13187924 0.0 0.51747084 1.76470499 2.34487001" Properties=species:S:1:pos:R:3:forces:R:3 energy=-6213.718563685893 stress="0.013470895 -0.004766495 0.004709125 -0.004766495 0.013257175 -0.01512614 0.004709125 -0.01512614 0.041210315" pbc="T T T"
Hf  0.0  0.0  0.0  0.0  0.0  0.0
B  0.16048603  2.30360532  1.17243501  -20.3673798847  15.77902697739  -35.83784229634
B  1.85109573  1.59297891  1.17243501  20.3673798847  -15.77902697739  35.83784229634
3
Lattice="2.649 0.0 0.0 -1.93802097 2.30964346 0.0 0.51747157 1.76470746 2.3448733" Properties=species:S:1:pos:R:3:forces:R:3 energy=-6211.011951340081 stress="0.0262235 -0.00374086 -0.00450988 -0.00374086 0.01519134 -0.00787441 -0.00450988 -0.00787441 0.042677835" pbc="T T T"
Hf  0.0  0.0  0.0  0.0  0.0  0.0
B  -0.1502782  2.42211603  1.17243665  -21.58579482339  16.700044963110003  5.30303847422
B  1.37872879  1.65223488  1.17243665  21.58579482339  -16.700044963110003  -5.30303847422
3
Lattice="3.149 0.0 0.0 -1.5745 2.727114 0.0 0.0 0.0 3.48" Properties=species:S:1:pos:R:3:forces:R:3 energy=-6248.427432937212 stress="-1.1485e-5 -0.000140315 -5.3505e-5 -0.000140315 -0.000142385 1.568e-5 -5.3505e-5 1.568e-5 0.00049062" pbc="T T T"
Hf  2.98610183  0.13091749  0.02755132  3.9761442513  -2.57220388724  0.17066269953
B  0.12892374  1.75835162  1.86437837  -1.23745304973  0.93082551305  -1.13458585344
B  1.72484756  0.83660581  1.70050055  -2.73869068736  1.6413783741899999  0.9639231539099999
3
Lattice="3.29679 0.0 0.0 -1.648395 2.85510389 0.0 0.0 0.0 2.97999924" Properties=species:S:1:pos:R:3:forces:R:3 energy=-6248.528798615428 stress="-0.000599355 -0.0 0.0 -0.0 -0.000599355 0.0 0.0 0.0 0.00188447" pbc="T T T"
Hf  0.0  0.0  0.0  -0.0  0.0  0.0
B  -0.0  1.90340259  1.48999962  0.0  0.0  -0.0
B  1.648395  0.9517013  1.48999962  0.0  0.0  0.0
3
Lattice="2.75699 0.0 0.0 -1.378495 2.38762338 0.0 0.0 0.0 3.94674468" Properties=species:S:1:pos:R:3:forces:R:3 energy=-6247.433651895611 stress="0.00278671 0.0 0.0 0.0 0.00278671 0.0 -0.0 -0.0 -0.00160547" pbc="T T T"
Hf  0.0  0.0  0.0  0.0  0.0  0.0
B  -0.0  1.59174892  1.97337234  0.0  0.0  -0.0
B  1.378495  0.79587446  1.97337234  0.0  0.0  0.0
3
Lattice="3.63783 0.0 0.0 -1.82449959 3.16012598 0.0 0.0 0.0 3.9799991" Properties=species:S:1:pos:R:3:forces:R:3 energy=-6245.943904159763 stress="-0.001646955 5.09e-6 0.0 5.09e-6 -0.0016647 0.0 0.0 0.0 -0.001391175" pbc="T T T"
Hf  0.0  0.0  0.0  0.0  0.0  0.0
B  -0.00372306  2.10675065  1.98999955  -0.00935193727  -0.01660435511  0.0
B  1.81705347  1.05337533  1.98999955  0.00935193727  0.01660435511  0.0
3
Lattice="3.649 0.0 0.0 -1.2480315 3.42893837 0.0 0.28747917 0.10463386 3.96822473" Properties=species:S:1:pos:R:3:forces:R:3 energy=-6244.490342397134 stress="-0.001468835 -0.00016927 -1.4845e-5 -0.00016927 -0.001610545 7.9675e-5 -1.4845e-5 7.9675e-5 -0.0012486" pbc="T T T"
Hf  0.0  0.0  0.0  0.0  0.0  0.0
B  0.52805192  2.33827585  1.98411236  0.57825845497  -0.37964998457  0.07750944435
B  2.16039575  1.19529639  1.98411236  -0.57825845497  0.37964998457  -0.07750944435
3
Lattice="3.29679 0.0 0.0 -1.648395 2.85510389 0.0 0.0 0.0 3.01325725" Properties=species:S:1:pos:R:3:forces:R:3 energy=-6248.631565680023 stress="-0.000644885 0.0 -0.0 0.0 -0.000644885 -0.0 0.0 0.0 0.00164125" pbc="T T T"
Hf  0.0  0.0  0.0  0.0  -0.0  0.0
B  -0.0  1.90340259  1.50662863  -0.0  -0.0  0.0
B  1.648395  0.9517013  1.50662863  0.0  0.0  -0.0
3
Lattice="3.29679 0.0 0.0 -1.648395 2.85510389 0.0 0.0 0.0 3.04577234" Properties=species:S:1:pos:R:3:forces:R:3 energy=-6248.720104999335 stress="-0.000673425 -0.0 0.0 0.0 -0.000673425 0.0 0.0 0.0 0.001458075" pbc="T T T"
Hf  0.0  0.0  0.0  0.0  -0.0  0.0
B  -0.0  1.90340259  1.52288617  0.0  -0.0  0.0
B  1.648395  0.9517013  1.52288617  -0.0  0.0  0.0
3
Lattice="3.149 0.0 0.0 -1.5745 2.727114 0.0 0.0 0.0 3.48" Properties=species:S:1:pos:R:3:forces:R:3 energy=-6249.1226550054425 stress="-0.000269045 4.682e-5 5.86e-6 4.682e-5 -0.00020419 4.785e-6 5.86e-6 4.785e-6 -3.4765e-5" pbc="T T T"
Hf  1.57047061  2.59214873  0.09478628  1.18523605265  2.28499806226  0.06911290926
B  0.09530882  1.84816933  1.84755011  -0.9591949929599999  -0.8908045487499999  -0.13392496608
B  1.64945849  0.95273372  1.83004972  -0.22604157390000001  -1.39419351351  0.06481205681999999
3
Lattice="2.649 0.0 0.0 -1.15533521 2.38377884 0.0 -0.21524823 1.0282959 2.78866917" Properties=species:S:1:pos:R:3:forces:R:3 energy=-6235.154014362064 stress="0.01119411 -0.00031437 0.00208316 -0.00031437 0.00916185 -0.008302355 0.00208316 -0.008302355 0.017047095" pbc="T T T"
Hf  0.0  0.0  0.0  0.0  0.0  0.0
B  0.00515242  2.10333384  1.39433459  2.1609968349699997  4.17925822972  0.014431303650000001
B  1.27326415  1.30874089  1.39433459  -2.1609968349699997  -4.17925822972  -0.014431303650000001
3
Lattice="3.01503 0.0 0.0 -1.56194076 2.30332635 0.0 -0.22492568 1.13430447 2.89130233" Properties=species:S:1:pos:R:3:forces:R:3 energy=-6238.400143320618 stress="0.00501948 0.00020993 0.0008458 0.00020993 0.00668809 -0.00671955 0.0008458 -0.00671955 0.0123752" pbc="T T T"
Hf  0.0  0.0  0.0  0.0  0.0  0.0
B  -0.14874668  2.10270314  1.44565116  1.56937097684  2.78918096726  -3.99403567404
B  1.37691024  1.33492769  1.44565116  -1.56937097684  -2.78918096726  3.99403567404
3
Lattice="3.149 0.0 0.0 -1.5745 2.727114 0.0 -0.26401498 0.340361 3.45323768" Properties=species:S:1:pos:R:3:forces:R:3 energy=-6249.028235849844 stress="-0.000238345 -4.5405e-5 0.000631185 -4.5405e-5 -0.000214755 -0.00081213 0.000631185 -0.00081213 0.000164595" pbc="T T T"
Hf  0.0  0.0  0.0  0.0  0.0  0.0
B  -0.13200749  1.9882565  1.72661884  0.08520819647  0.02525902362  0.01190036203
B  1.44249251  1.0792185  1.72661884  -0.08520819647  -0.02525902362  -0.01190036203
3
Lattice="2.86655 0.0 0.0 -1.433275 2.48250512 0.0 0.0 0.0 3.62779061" Properties=species:S:1:pos:R:3:forces:R:3 energy=-6248.67661576223 stress="0.00192251 0.0 0.0 0.0 0.00192251 -0.0 0.0 -0.0 -0.00026683" pbc="T T T"
Hf  0.0  0.0  0.0  -0.0  -0.0  -0.0
B  -0.0  1.65500341  1.8138953  -0.0  -0.0  -0.0
B  1.433275  0.82750171  1.8138953  -0.0  -0.0  -0.0
3
Lattice="2.66017 0.0 0.0 -1.330085 2.3037748 0.0 0.0 0.0 3.94674321" Properties=species:S:1:pos:R:3:forces:R:3 energy=-6246.274437600139 stress="0.00429597 0.0 0.0 0.0 0.00429597 0.0 0.0 0.0 -0.001402215" pbc="T T T"
Hf  0.0  0.0  0.0  0.0  0.0  0.0
B  -0.0  1.53584987  1.9733716  -0.0  0.0  0.0
B  1.330085  0.76792493  1.9733716  0.0  0.0  0.0
3
Lattice="2.93145 0.0 0.0 -1.465725 2.53871017 0.0 0.0 0.0 3.01325821" Properties=species:S:1:pos:R:3:forces:R:3 energy=-6247.79230639862 stress="0.00285486 -0.0 0.0 0.0 0.00285486 0.0 0.0 0.0 0.00395843" pbc="T T T"
Hf  0.0  0.0  0.0  0.0  -0.0  0.0
B  -0.0  1.69247345  1.5066291  -0.0  -0.0  0.0
B  1.465725  0.84623672  1.5066291  -0.0  0.0  -0.0
3
Lattice="2.66017 0.0 0.0 -1.330085 2.3037748 0.0 0.0 0.0 2.98000093" Properties=species:S:1:pos:R:3:forces:R:3 energy=-6243.478025231503 stress="0.009384945 -0.0 0.0 0.0 0.009384945 0.0 0.0 0.0 0.008675305" pbc="T T T"
Hf  0.0  0.0  0.0  -0.0  -0.0  0.0
B  -0.0  1.53584987  1.49000046  0.0  0.0  0.0
B  1.330085  0.76792493  1.49000046  0.0  0.0  0.0
3
Lattice="2.93145 0.0 0.0 -1.465725 2.53871017 0.0 0.0 0.0 2.98000019" Properties=species:S:1:pos:R:3:forces:R:3 energy=-6247.604508922938 stress="0.002999375 0.0 0.0 0.0 0.002999375 0.0 0.0 0.0 0.00435087" pbc="T T T"
Hf  0.0  0.0  0.0  0.0  0.0  0.0
B  -0.0  1.69247345  1.49000009  0.0  -0.0  0.0
B  1.465725  0.84623672  1.49000009  -0.0  -0.0  0.0
3
Lattice="3.649 0.0 0.0 -1.43183697 2.95427912 0.0 -0.21524823 1.0282959 2.78866917" Properties=species:S:1:pos:R:3:forces:R:3 energy=-6244.356064819664 stress="-0.000276855 -8.36e-6 0.000582585 -8.36e-6 0.000378595 -0.002217725 0.000582585 -0.002217725 0.002834195" pbc="T T T"
Hf  0.0  0.0  0.0  0.0  0.0  0.0
B  0.15415124  2.48366736  1.39433459  3.4368845111499997  2.59597015923  -0.63872800834
B  1.84776356  1.49890765  1.39433459  -3.4368845111499997  -2.59597015923  0.63872800834
3
Lattice="2.86655 0.0 0.0 -1.433275 2.48250512 0.0 0.0 0.0 3.19754998" Properties=species:S:1:pos:R:3:forces:R:3 energy=-6248.060962779915 stress="0.003083735 0.0 0.0 0.0 0.003083735 -0.0 0.0 0.0 0.002693845" pbc="T T T"
Hf  0.0  0.0  0.0  -0.0  -0.0  0.0
B  -0.0  1.65500341  1.59877499  0.0  0.0  0.0
B  1.433275  0.82750171  1.59877499  -0.0  -0.0  -0.0
3
Lattice="2.66017 0.0 0.0 -1.330085 2.3037748 0.0 0.0 0.0 3.98000124" Properties=species:S:1:pos:R:3:forces:R:3 energy=-6246.219844484863 stress="0.004238665 0.0 0.0 0.0 0.004238665 -0.0 0.0 0.0 -0.00153298" pbc="T T T"
Hf  0.0  0.0  0.0  0.0  -0.0  0.0
B  -0.0  1.53584987  1.99000062  0.0  0.0  0.0
B  1.330085  0.76792493  1.99000062  -0.0  -0.0  0.0
3
Lattice="3.149 0.0 0.0 -1.5745 2.727114 0.0 0.0 0.49279012 3.44493221" Properties=species:S:1:pos:R:3:forces:R:3 energy=-6248.916779101244 stress="-0.0002616 -0.0 0.0 0.0 -0.00013466 -0.00117836 0.0 -0.00117836 0.00029188" pbc="T T T"
Hf  0.0  0.0  0.0  0.0  0.0  0.0
B  -0.0  2.06447106  1.7224661  0.0  0.12231924638  -0.0620445786
B  1.5745  1.15543306  1.7224661  0.0  -0.12231924638  0.0620445786
3
Lattice="3.149 0.0 0.0 -1.5745 2.727114 0.0 0.0 0.0 3.48" Properties=species:S:1:pos:R:3:forces:R:3 energy=-6248.632394810955 stress="-4.2365e-5 -0.000117405 1.4765e-5 -0.000117405 -0.00021836 -1.406e-5 1.4765e-5 -1.406e-5 0.00032841" pbc="T T T"
Hf  2.95287864  0.12251057  3.38742971  3.90126036321  -1.83181810453  0.025188062639999998
B  0.07007616  1.83652279  1.62258022  -1.2813336742900001  -0.36884746089  0.27278737658
B  1.67920939  0.84727703  1.67024446  -2.61992720313  2.20066556542  -0.29797543921999997
3
Lattice="2.66017 0.0 0.0 -1.330085 2.3037748 0.0 0.0 0.0 2.9911701" Properties=species:S:1:pos:R:3:forces:R:3 energy=-6243.585449524812 stress="0.00926814 0.0 0.0 0.0 0.00926814 0.0 0.0 0.0 0.008457955" pbc="T T T"
Hf  0.0  0.0  0.0  0.0  0.0  -0.0
B  -0.0  1.53584987  1.49558505  0.0  0.0  -0.0
B  1.330085  0.76792493  1.49558505  0.0  -0.0  0.0
3
Lattice="3.01503 0.0 0.0 -1.15533697 2.38378247 0.0 0.51747236 1.38342196 2.58820268" Properties=species:S:1:pos:R:3:forces:R:3 energy=-6230.795583809617 stress="0.00809196 -0.001109905 -0.00239261 -0.001109905 0.009079315 -0.0084505 -0.00239261 -0.0084505 0.01894481" pbc="T T T"
Hf  0.0  0.0  0.0  0.0  0.0  0.0
B  0.49352153  2.2808993  1.29410134  -3.57025001675  9.25263509164  -8.08457673825
B  1.88364386  1.48630514  1.29410134  3.57025001675  -9.25263509164  8.08457673825
3
Lattice="3.149 0.0 0.0 -1.5745 2.727114 0.0 0.0 0.0 3.48" Properties=species:S:1:pos:R:3:forces:R:3 energy=-6247.159090099326 stress="0.00122742 -0.000381715 8.96e-6 -0.000381715 0.000758165 0.00020208 8.96e-6 0.00020208 7.321e-5" pbc="T T T"
Hf  1.59346836  2.62342457  3.38989204  0.06237418721  1.28544529745  4.2597480352299995
B  0.18448367  1.69663654  1.90878775  -8.803497852929999  4.42479196209  -2.01516276529
B  1.38380438  0.98481486  1.90068717  8.74112366572  -5.71023725954  -2.24458475573
3
Lattice="2.86655 0.0 0.0 -1.433275 2.48250512 0.0 0.0 0.0 3.91422664" Properties=species:S:1:pos:R:3:forces:R:3 energy=-6248.313597641361 stress="0.00150579 0.0 0.0 0.0 0.00150579 0.0 -0.0 -0.0 -0.001567635" pbc="T T T"
Hf  0.0  0.0  0.0  -0.0  -0.0  -0.0
B  -0.0  1.65500341  1.95711332  0.0  -0.0  0.0
B  1.433275  0.82750171  1.95711332  0.0  0.0  0.0
3
Lattice="2.86655 0.0 0.0 -1.433275 2.48250512 0.0 0.0 0.0 3.94674173" Properties=species:S:1:pos:R:3:forces:R:3 energy=-6248.245301960551 stress="0.001472725 -0.0 0.0 -0.0 0.001472725 0.0 0.0 0.0 -0.001670725" pbc="T T T"
Hf  0.0  0.0  0.0  -0.0  -0.0  0.0
B  -0.0  1.65500341  1.97337086  -0.0  0.0  -0.0
B  1.433275  0.82750171  1.97337086  -0.0  0.0  -0.0
3
Lattice="3.43145 0.0 0.0 -1.715725 2.97172287 0.0 0.0 0.0 2.99116933" Properties=species:S:1:pos:R:3:forces:R:3 energy=-6248.179136931263 stress="-0.00119617 0.0 -0.0 0.0 -0.00119617 -0.0 -0.0 -0.0 0.0013092" pbc="T T T"
Hf  0.0  0.0  0.0  0.0  -0.0  -0.0
B  -0.0  1.98114858  1.49558467  0.0  -0.0  0.0
B  1.715725  0.99057429  1.49558467  0.0  0.0  -0.0
3
Lattice="3.01503 0.0 0.0 -1.21376875 2.50434355 0.0 -0.51747236 0.55830706 2.88113565" Properties=species:S:1:pos:R:3:forces:R:3 energy=-6243.565250512985 stress="0.003508585 -0.00140932 0.00362745 -0.00140932 0.004245445 -0.004111745 0.00362745 -0.004111745 0.00784019" pbc="T T T"
Hf  0.0  0.0  0.0  0.0  0.0  0.0
B  -0.06290535  1.9487159  1.44056783  2.55672668045  0.42659170125999996  1.02546123566
B  1.34669424  1.11393472  1.44056783  -2.55672668045  -0.42659170125999996  -1.02546123566
3
Lattice="3.22373 0.0 0.0 -1.611865 2.79183207 0.0 0.0 0.0 2.97999991" Properties=species:S:1:pos:R:3:forces:R:3 energy=-6248.612051578782 stress="-0.000176455 0.0 0.0 0.0 -0.000176455 0.0 0.0 0.0 0.002174215" pbc="T T T"
Hf  0.0  0.0  0.0  0.0  -0.0  0.0
B  -0.0  1.86122138  1.48999996  0.0  0.0  -0.0
B  1.611865  0.93061069  1.48999996  -0.0  -0.0  0.0
3
Lattice="3.649 0.0 0.0 -1.97280029 2.90920309 0.0 -0.21524823 1.08550088 2.76690369" Properties=species:S:1:pos:R:3:forces:R:3 energy=-6243.959679280941 stress="-0.000392075 -5.695e-5 0.000245655 -5.695e-5 0.00088758 -0.00260543 0.000245655 -0.00260543 0.00337602" pbc="T T T"
Hf  0.0  0.0  0.0  0.0  0.0  0.0
B  -0.20649097  2.48221917  1.38345185  -0.01972766665  3.55970356965  -1.50782518194
B  1.66744246  1.51248481  1.38345185  0.01972766665  -3.55970356965  1.50782518194
3
Lattice="3.22373 0.0 0.0 -1.611865 2.79183207 0.0 0.0 0.0 3.69755008" Properties=species:S:1:pos:R:3:forces:R:3 energy=-6248.979917680179 stress="-0.00077429 -0.0 -0.0 -0.0 -0.00077429 -0.0 0.0 0.0 -0.001081975" pbc="T T T"
Hf  0.0  0.0  0.0  0.0  0.0  0.0
B  -0.0  1.86122138  1.84877504  -0.0  -0.0  -0.0
B  1.611865  0.93061069  1.84877504  0.0  0.0  0.0
3
Lattice="3.28297 0.0 0.0 -1.48674335 2.19243599 0.0 -0.51747084 -0.35090937 2.91366808" Properties=species:S:1:pos:R:3:forces:R:3 energy=-6242.806114341316 stress="0.00163018 -0.000744235 0.002079045 -0.000744235 0.00901685 0.002837205 0.002079045 0.002837205 0.007591475" pbc="T T T"
Hf  0.0  0.0  0.0  0.0  0.0  0.0
B  -0.15557432  1.28616931  1.45683404  -0.55673362437  -1.1905092762  1.90774018261
B  1.43433013  0.55535731  1.45683404  0.55673362437  1.1905092762  -1.90774018261
3
Lattice="2.86655 0.0 0.0 -1.433275 2.48250512 0.0 0.0 0.0 2.99116898" Properties=species:S:1:pos:R:3:forces:R:3 energy=-6247.046556324068 stress="0.004061215 0.0 -0.0 0.0 0.004061215 -0.0 0.0 0.0 0.004953625" pbc="T T T"
Hf  0.0  0.0  0.0  -0.0  -0.0  -0.0
B  -0.0  1.65500341  1.49558449  0.0  -0.0  0.0
B  1.433275  0.82750171  1.49558449  0.0  -0.0  0.0
3
Lattice="2.86655 0.0 0.0 -1.433275 2.48250512 0.0 0.0 0.0 3.55472987" Properties=species:S:1:pos:R:3:forces:R:3 energy=-6248.684499717095 stress="0.002079705 -0.0 0.0 -0.0 0.002079705 0.0 0.0 0.0 0.00013289" pbc="T T T"
Hf  0.0  0.0  0.0  0.0  0.0  0.0
B  -0.0  1.65500341  1.77736493  0.0  0.0  0.0
B  1.433275  0.82750171  1.77736493  -0.0  -0.0  0.0
3
Lattice="3.149 0.0 0.0 -1.5745 2.727114 0.0 0.0 0.0 3.48" Properties=species:S:1:pos:R:3:forces:R:3 energy=-6248.671249949024 stress="0.000176835 0.00011579 -0.000182635 0.00011579 -6.9585e-5 0.000121805 -0.000182635 0.000121805 5.947e-5" pbc="T T T"
Hf  -1.42778383  2.61019775  3.35004067  -1.6364815523599998  0.72256840621  3.1584850466299996
B  0.10122796  1.81193103  1.90800564  -0.3968518517  -1.55236193846  -2.6210888035199997
B  1.52214569  0.7990876  1.70227897  2.03333340406  0.82979353225  -0.53739624311
3
Lattice="3.649 0.0 0.0 -1.59147534 3.2836576 0.0 -0.6275601 1.06941958 3.39460196" Properties=species:S:1:pos:R:3:forces:R:3 energy=-6245.373018533354 stress="-0.0012533 -0.000309015 0.00062367 -0.000309015 -0.00137199 -0.00061816 0.00062367 -0.00061816 0.00023502" pbc="T T T"
Hf  0.0  0.0  0.0  0.0  0.0  0.0
B  -0.15843028  2.72381486  1.69730098  1.25391239762  -0.13385349089  0.31322022309
B  1.58839484  1.62926232  1.69730098  -1.25391239762  0.13385349089  -0.31322022309
3
Lattice="2.86655 0.0 0.0 -1.433275 2.48250512 0.0 0.0 0.0 3.87201164" Properties=species:S:1:pos:R:3:forces:R:3 energy=-6248.395489491187 stress="0.0015478 -0.0 0.0 0.0 0.0015478 0.0 0.0 0.0 -0.0014149" pbc="T T T"
Hf  0.0  0.0  0.0  -0.0  -0.0  0.0
B  -0.0  1.65500341  1.93600582  0.0  0.0  -0.0
B  1.433275  0.82750171  1.93600582  0.0  0.0  -0.0
3
Lattice="3.149 0.0 0.0 -1.5745 2.727114 0.0 0.0 0.0 3.48" Properties=species:S:1:pos:R:3:forces:R:3 energy=-6247.8979818161515 stress="0.00052636 -0.00042586 0.00053383 -0.00042586 0.00012226 -0.00027504 0.00053383 -0.00027504 0.00031487" pbc="T T T"
Hf  -1.43712913  2.64064662  0.11747162  -3.8220031190699997  1.8740676549699997  -3.0524163788800003
B  -0.19210722  1.94495259  1.57904194  4.01922836457  -3.6671554623  3.52723840709
B  1.65121576  0.8040296  1.89713341  -0.19722473129  1.79308729312  -0.47482151399999994
3
Lattice="2.66017 0.0 0.0 -1.330085 2.3037748 0.0 0.0 0.0 3.69755133" Properties=species:S:1:pos:R:3:forces:R:3 energy=-6246.486448039198 stress="0.004943265 0.0 0.0 0.0 0.004943265 0.0 0.0 0.0 6.928e-5" pbc="T T T"
Hf  0.0  0.0  0.0  0.0  0.0  0.0
B  -0.0  1.53584987  1.84877567  0.0  0.0  0.0
B  1.330085  0.76792493  1.84877567  0.0  0.0  -0.0
3
Lattice="2.93145 0.0 0.0 -1.465725 2.53871017 0.0 0.0 0.0 3.91422713" Properties=species:S:1:pos:R:3:forces:R:3 energy=-6248.593309736673 stress="0.000877535 -0.0 0.0 0.0 0.000877535 0.0 0.0 0.0 -0.001577715" pbc="T T T"
Hf  0.0  0.0  0.0  -0.0  -0.0  0.0
B  -0.0  1.69247345  1.95711357  0.0  0.0  0.0
B  1.465725  0.84623672  1.95711357  0.0  0.0  -0.0
3
Lattice="3.28297 0.0 0.0 -1.59147311 3.28365301 0.0 -0.51747084 -0.25080023 2.92398671" Properties=species:S:1:pos:R:3:forces:R:3 energy=-6246.646342143334 stress="-0.00046649 8.451e-5 0.001119555 8.451e-5 -0.001521415 0.000324115 0.001119555 0.000324115 0.00155939" pbc="T T T"
Hf  0.0  0.0  0.0  0.0  0.0  0.0
B  -0.22539416  2.06370189  1.46199336  -0.23055119559999998  -2.1485899760900002  -0.11014275357999999
B  1.39942021  0.96915089  1.46199336  0.23055119559999998  2.1485899760900002  0.11014275357999999
3
Lattice="2.78297 0.0 0.0 -1.3149714 2.71315285 0.0 0.51747071 1.38341757 2.58819446" Properties=species:S:1:pos:R:3:forces:R:3 energy=-6233.346741861033 stress="0.009028055 -0.0007484 -0.00302342 -0.0007484 0.006161895 -0.00692402 -0.00302342 -0.00692402 0.01560929" pbc="T T T"
Hf  0.0  0.0  0.0  0.0  0.0  0.0
B  0.30974442  2.50047735  1.29409723  -5.80970707036  6.36004597917  0.86397152832
B  1.67572489  1.59609307  1.29409723  5.80970707036  -6.36004597917  -0.86397152832
3
Lattice="2.649 0.0 0.0 -1.48674543 2.19243906 0.0 0.6275601 1.49243748 3.2310387" Properties=species:S:1:pos:R:3:forces:R:3 energy=-6235.815955272534 stress="0.007811875 0.00063146 -0.001633915 0.00063146 0.00807636 -0.00333564 -0.001633915 -0.00333564 0.0147238" pbc="T T T"
Hf  0.0  0.0  0.0  0.0  0.0  0.0
B  0.20561643  2.20784478  1.61551935  -3.61253350505  2.16495008145  -1.32105639679
B  1.58419824  1.47703176  1.61551935  3.61253350505  -2.16495008145  1.32105639679
3
Lattice="2.649 0.0 0.0 -2.11025539 2.51490445 0.0 -0.69111975 -0.57991832 3.87639629" Properties=species:S:1:pos:R:3:forces:R:3 energy=-6243.237483654224 stress="0.003850495 0.003119285 0.0010974 0.003119285 0.002889085 0.00107427 0.0010974 0.00107427 0.00067412" pbc="T T T"
Hf  0.0  0.0  0.0  0.0  0.0  0.0
B  -0.8693968  1.3866438  1.93819815  6.24349256952  4.17339212204  -2.50501875127
B  0.71702166  0.54834232  1.93819815  -6.24349256952  -4.17339212204  2.50501875127
3
Lattice="2.71477 0.0 0.0 -1.357385 2.35105979 0.0 0.0 0.0 3.69754595" Properties=species:S:1:pos:R:3:forces:R:3 energy=-6247.2517543926415 stress="0.00392855 -0.0 0.0 -0.0 0.00392855 0.0 0.0 0.0 -0.000175465" pbc="T T T"
Hf  0.0  0.0  0.0  0.0  0.0  -0.0
B  -0.0  1.56737319  1.84877297  -0.0  0.0  0.0
B  1.357385  0.7836866  1.84877297  0.0  -0.0  -0.0
3
Lattice="2.86655 0.0 0.0 -1.433275 2.48250512 0.0 0.0 0.0 3.04577292" Properties=species:S:1:pos:R:3:forces:R:3 energy=-6247.374775163949 stress="0.00377541 -0.0 0.0 -0.0 0.00377541 0.0 0.0 0.0 0.00428396" pbc="T T T"
Hf  0.0  0.0  0.0  0.0  0.0  0.0
B  -0.0  1.65500341  1.52288646  0.0  0.0  -0.0
B  1.433275  0.82750171  1.52288646  0.0  0.0  -0.0
3
Lattice="2.93145 0.0 0.0 -1.465725 2.53871017 0.0 0.0 0.0 3.94674223" Properties=species:S:1:pos:R:3:forces:R:3 energy=-6248.521601748058 stress="0.000859215 -0.0 0.0 -0.0 0.000859215 0.0 0.0 0.0 -0.00167518" pbc="T T T"
Hf  0.0  0.0  0.0  0.0  0.0  0.0
B  -0.0  1.69247345  1.97337111  0.0  -0.0  0.0
B  1.465725  0.84623672  1.97337111  -0.0  -0.0  0.0
3
Lattice="2.66017 0.0 0.0 -1.330085 2.3037748 0.0 0.0 0.0 3.87201309" Properties=species:S:1:pos:R:3:forces:R:3 energy=-6246.380093425472 stress="0.00448785 -0.0 0.0 -0.0 0.00448785 0.0 0.0 -0.0 -0.00110582" pbc="T T T"
Hf  0.0  0.0  0.0  -0.0  0.0  0.0
B  -0.0  1.53584987  1.93600654  0.0  0.0  0.0
B  1.330085  0.76792493  1.93600654  0.0  -0.0  -0.0
3
Lattice="3.51503 0.0 0.0 -1.59147742 3.2836619 0.0 0.69112065 1.41558285 3.65498548" Properties=species:S:1:pos:R:3:forces:R:3 energy=-6245.502757795867 stress="-0.001167015 0.00010472 -0.00042341 0.00010472 -0.00118915 -0.000693575 -0.00042341 -0.000693575 -0.000178065" pbc="T T T"
Hf  0.0  0.0  0.0  0.0  0.0  0.0
B  0.45625205  2.89689935  1.82749274  -0.34141075792000003  -0.09503937746  -0.11426414673
B  2.15842119  1.80234539  1.82749274  0.34141075792000003  0.09503937746  0.11426414673
3
Lattice="2.66017 0.0 0.0 -1.330085 2.3037748 0.0 0.0 0.0 3.96883206" Properties=species:S:1:pos:R:3:forces:R:3 energy=-6246.238798847895 stress="0.004253065 -0.0 0.0 0.0 0.004253065 0.0 0.0 0.0 -0.00148087" pbc="T T T"
Hf  0.0  0.0  0.0  -0.0  -0.0  0.0
B  -0.0  1.53584987  1.98441603  -0.0  0.0  0.0
B  1.330085  0.76792493  1.98441603  0.0  -0.0  0.0
3
Lattice="2.93145 0.0 0.0 -1.465725 2.53871017 0.0 0.0 0.0 3.08798831" Properties=species:S:1:pos:R:3:forces:R:3 energy=-6248.156461139082 stress="0.002521305 -0.0 0.0 0.0 0.002521305 0.0 0.0 0.0 0.003186055" pbc="T T T"
Hf  0.0  0.0  0.0  0.0  -0.0  -0.0
B  -0.0  1.69247345  1.54399415  0.0  0.0  -0.0
B  1.465725  0.84623672  1.54399415  0.0  0.0  0.0
3
Lattice="2.93145 0.0 0.0 -1.465725 2.53871017 0.0 0.0 0.0 3.0457733" Properties=species:S:1:pos:R:3:forces:R:3 energy=-6247.960144322671 stress="0.002711245 -0.0 0.0 -0.0 0.002711245 0.0 0.0 0.0 0.003621915" pbc="T T T"
Hf  0.0  0.0  0.0  0.0  0.0  0.0
B  -0.0  1.69247345  1.52288665  0.0  0.0  -0.0
B  1.465725  0.84623672  1.52288665  0.0  -0.0  0.0
3
Lattice="2.66017 0.0 0.0 -1.330085 2.3037748 0.0 0.0 0.0 3.13896099" Properties=species:S:1:pos:R:3:forces:R:3 energy=-6244.772900531308 stress="0.007910715 -0.0 0.0 -0.0 0.007910715 0.0 0.0 0.0 0.00598248" pbc="T T T"
Hf  0.0  0.0  0.0  0.0  0.0  -0.0
B  -0.0  1.53584987  1.56948049  0.0  0.0  -0.0
B  1.330085  0.76792493  1.56948049  0.0  -0.0  -0.0
3
Lattice="2.86655 0.0 0.0 -1.433275 2.48250512 0.0 0.0 0.0 3.40526969" Properties=species:S:1:pos:R:3:forces:R:3 energy=-6248.567913622234 stress="0.0024101 -0.0 0.0 -0.0 0.0024101 0.0 0.0 -0.0 0.001091885" pbc="T T T"
Hf  0.0  0.0  0.0  -0.0  -0.0  -0.0
B  -0.0  1.65500341  1.70263484  -0.0  -0.0  -0.0
B  1.433275  0.82750171  1.70263484  0.0  0.0  -0.0
3
Lattice="2.78297 0.0 0.0 -1.69217359 2.49537506 0.0 -0.21524787 1.08549909 2.76689912" Properties=species:S:1:pos:R:3:forces:R:3 energy=-6237.60128913783 stress="0.008212135 0.00099079 0.000957275 0.00099079 0.00692195 -0.00717251 0.000957275 -0.00717251 0.013728885" pbc="T T T"
Hf  0.0  0.0  0.0  0.0  0.0  0.0
B  -0.30808299  2.20633292  1.38344956  0.57160406336  4.56449047805  -1.01663173575
B  1.18363154  1.37454123  1.38344956  -0.57160406336  -4.56449047805  1.01663173575
3
Lattice="3.649 0.0 0.0 -1.31497357 2.71315733 0.0 -0.51747157 -0.25080058 2.92399081" Properties=species:S:1:pos:R:3:forces:R:3 energy=-6246.752147903404 stress="-0.001086045 -0.000825485 0.00083135 -0.000825485 0.000758935 0.00053249 0.00083135 0.00053249 0.002129115" pbc="T T T"
Hf  0.0  0.0  0.0  0.0  0.0  0.0
B  0.0809485  1.68337126  1.4619954  2.19186794653  1.2111414382399999  0.48674295864
B  1.73560636  0.77898548  1.4619954  -2.19186794653  -1.2111414382399999  -0.48674295864
3
Lattice="3.29679 0.0 0.0 -1.648395 2.85510389 0.0 0.0 0.0 2.99116841" Properties=species:S:1:pos:R:3:forces:R:3 energy=-6248.564874654646 stress="-0.00061754 0.0 0.0 0.0 -0.00061754 0.0 0.0 0.0 0.00180529" pbc="T T T"
Hf  0.0  0.0  0.0  0.0  -0.0  0.0
B  -0.0  1.90340259  1.49558421  -0.0  0.0  0.0
B  1.648395  0.9517013  1.49558421  0.0  -0.0  -0.0
3
Lattice="3.28297 0.0 0.0 -1.53304149 3.16309228 0.0 -0.51747084 0.88181745 2.79910647" Properties=species:S:1:pos:R:3:forces:R:3 energy=-6244.787196849285 stress="0.00047184 -0.000454265 0.001648075 -0.000454265 -0.000202055 -0.001856405 0.001648075 -0.001856405 0.00334188" pbc="T T T"
Hf  0.0  0.0  0.0  0.0  0.0  0.0
B  -0.18643975  2.54963691  1.39955324  2.34701693036  -0.71463003223  0.86090992198
B  1.41889741  1.49527282  1.39955324  -2.34701693036  0.71463003223  -0.86090992198
3
Lattice="3.649 0.0 0.0 -1.43183697 2.95427912 0.0 0.28747917 1.21995036 3.77749611" Properties=species:S:1:pos:R:3:forces:R:3 energy=-6246.056950869648 stress="-0.001581195 -0.00017496 1.769e-5 -0.00017496 -0.00068373 -0.00083888 1.769e-5 -0.00083888 -0.000479355" pbc="T T T"
Hf  0.0  0.0  0.0  0.0  0.0  0.0
B  0.40551494  2.57949459  1.88874805  0.8198409977000001  0.65552416378  -0.47893570821
B  2.09912726  1.59473489  1.88874805  -0.8198409977000001  -0.65552416378  0.47893570821
3
Lattice="3.649 0.0 0.0 -1.48674543 2.19243906 0.0 0.69111975 2.11337429 3.30096995" Properties=species:S:1:pos:R:3:forces:R:3 energy=-6238.975965092446 stress="-0.00014413 -0.00075257 7.385e-6 -0.00075257 0.003118225 -0.00212515 7.385e-6 -0.00212515 0.008180855" pbc="T T T"
Hf  0.0  0.0  0.0  0.0  0.0  0.0
B  0.57072959  2.51831318  1.65048497  -2.97589061826  -0.63343215955  -11.87604658173
B  2.28264473  1.78750016  1.65048497  2.97589061826  0.63343215955  11.87604658173
3
Lattice="2.66017 0.0 0.0 -1.330085 2.3037748 0.0 0.0 0.0 3.82104117" Properties=species:S:1:pos:R:3:forces:R:3 energy=-6246.43469579262 stress="0.004617485 0.0 -0.0 0.0 0.004617485 0.0 -0.0 0.0 -0.00081367" pbc="T T T"
Hf  0.0  0.0  0.0  0.0  0.0  -0.0
B  -0.0  1.53584987  1.91052059  -0.0  -0.0  -0.0
B  1.330085  0.76792493  1.91052059  0.0  0.0  0.0
3
Lattice="2.93145 0.0 0.0 -1.465725 2.53871017 0.0 0.0 0.0 3.87201213" Properties=species:S:1:pos:R:3:forces:R:3 energy=-6248.680251747627 stress="0.00091528 -0.0 -0.0 -0.0 0.00091528 0.0 0.0 0.0 -0.001465345" pbc="T T T"
Hf  0.0  0.0  0.0  0.0  0.0  0.0
B  -0.0  1.69247345  1.93600606  -0.0  -0.0  0.0
B  1.465725  0.84623672  1.93600606  0.0  -0.0  -0.0
3
Lattice="3.07427 0.0 0.0 -1.537135 2.66239592 0.0 0.0 0.0 2.99116926" Properties=species:S:1:pos:R:3:forces:R:3 energy=-6248.463868983065 stress="0.001088415 0.0 0.0 0.0 0.001088415 0.0 0.0 0.0 0.002957485" pbc="T T T"
Hf  0.0  0.0  0.0  0.0  0.0  0.0
B  -0.0  1.77493061  1.49558463  0.0  0.0  0.0
B  1.537135  0.88746531  1.49558463  0.0  -0.0  -0.0
3
Lattice="3.28297 0.0 0.0 -1.93801826 2.30964022 0.0 0.51747084 0.4342096 2.90242331" Properties=species:S:1:pos:R:3:forces:R:3 energy=-6243.614811970876 stress="0.00174245 0.001081025 -0.002345415 0.001081025 0.00645604 -0.00332898 -0.002345415 -0.00332898 0.0067764" pbc="T T T"
Hf  0.0  0.0  0.0  0.0  0.0  0.0