48
Lattice="5.36452 0.0 0.0 0.0 9.81713528 0.0 0.0 0.0 6.17598079" Properties=species:S:1:pos:R:3:forces:R:3 energy=-99937.5849400761 stress="0.006902425 0.0 0.0 0.0 0.00464758 0.0 0.0 0.0 0.005161675" pbc="T T T"
Hf  0.0  0.0  0.0  0.0  0.0  0.0
Hf  1.34113  2.45428382  0.0  -0.00156011314  0.0011929672000000001  0.0
B  1.34113  0.81809461  1.5439952  2.211103e-5  -0.24655392501  3.342365e-5
B  0.0  1.63618921  1.5439952  0.0  0.24707122027  -0.00028230128999999997
B  0.0  3.27237843  1.5439952  0.0  -0.24714629493  -0.00037280225
B  1.34113  4.09047303  1.5439952  6.890414e-5  0.24662025810000002  -0.00010027095
Hf  2.68226  0.0  0.0  0.0  0.0  0.0
Hf  4.02339  2.45428382  0.0  0.00156011314  0.0011929672000000001  0.0
B  4.02339  0.81809461  1.5439952  -2.211103e-5  -0.24655392501  3.342365e-5
B  2.68226  1.63618921  1.5439952  0.0  0.24720697171  0.0002725313
B  2.68226  3.27237843  1.5439952  0.0  -0.24721417065  0.00016814667
B  4.02339  4.09047303  1.5439952  -6.890414e-5  0.24662025810000002  -0.00010027095
Hf  0.0  4.90856764  0.0  0.0  0.0  0.0
Hf  1.34113  7.36285146  0.0  -0.00156011314  -0.0011929672000000001  0.0
B  1.34113  5.72666224  1.5439952  6.890414e-5  -0.24662025810000002  -0.00010027095
B  0.0  6.54475685  1.5439952  0.0  0.24714629493  -0.00037280225
B  0.0  8.18094606  1.5439952  0.0  -0.24707122027  -0.00028230128999999997
B  1.34113  8.99904067  1.5439952  2.211103e-5  0.24655392501  3.342365e-5
Hf  2.68226  4.90856764  0.0  0.0  0.0  0.0
Hf  4.02339  7.36285146  0.0  0.00156011314  -0.0011929672000000001  0.0
B  4.02339  5.72666224  1.5439952  -6.890414e-5  -0.24662025810000002  -0.00010027095
B  2.68226  6.54475685  1.5439952  0.0  0.24721417065  0.00016814667
B  2.68226  8.18094606  1.5439952  0.0  -0.24720697171  0.0002725313
B  4.02339  8.99904067  1.5439952  -2.211103e-5  0.24655392501  3.342365e-5
Hf  0.0  0.0  3.08799039  0.0  0.0  0.0
Hf  1.34113  2.45428382  3.08799039  0.00408334161  0.0005959693900000001  0.0
B  1.34113  0.81809461  4.63198559  2.211103e-5  -0.24655392501  -3.342365e-5
B  0.0  1.63618921  4.63198559  0.0  0.24707122027  0.00028230128999999997
B  0.0  3.27237843  4.63198559  0.0  -0.24714629493  0.00037280225
B  1.34113  4.09047303  4.63198559  6.890414e-5  0.24662025810000002  0.00010027095
Hf  2.68226  0.0  3.08799039  0.0  0.0  0.0
Hf  4.02339  2.45428382  3.08799039  -0.00408334161  0.0005959693900000001  -0.0
B  4.02339  0.81809461  4.63198559  -2.211103e-5  -0.24655392501  -3.342365e-5
B  2.68226  1.63618921  4.63198559  0.0  0.24720697171  -0.0002725313
B  2.68226  3.27237843  4.63198559  0.0  -0.24721417065  -0.00016814667
B  4.02339  4.09047303  4.63198559  -6.890414e-5  0.24662025810000002  0.00010027095
Hf  0.0  4.90856764  3.08799039  0.0  0.0  0.0
Hf  1.34113  7.36285146  3.08799039  0.00408334161  -0.0005959693900000001  -0.0
B  1.34113  5.72666224  4.63198559  6.890414e-5  -0.24662025810000002  0.00010027095
B  0.0  6.54475685  4.63198559  0.0  0.24714629493  0.00037280225
B  0.0  8.18094606  4.63198559  0.0  -0.24707122027  0.00028230128999999997
B  1.34113  8.99904067  4.63198559  2.211103e-5  0.24655392501  -3.342365e-5
Hf  2.68226  4.90856764  3.08799039  0.0  0.0  0.0
Hf  4.02339  7.36285146  3.08799039  -0.00408334161  -0.0005959693900000001  0.0
B  4.02339  5.72666224  4.63198559  -6.890414e-5  -0.24662025810000002  0.00010027095
B  2.68226  6.54475685  4.63198559  0.0  0.24721417065  -0.00016814667
B  2.68226  8.18094606  4.63198559  0.0  -0.24720697171  -0.0002725313
B  4.02339  8.99904067  4.63198559  -2.211103e-5  0.24655392501  -3.342365e-5
48
Lattice="6.44746 0.0 0.0 0.0 12.50845562 0.0 0.0 0.0 6.39510018" Properties=species:S:1:pos:R:3:forces:R:3 energy=-99973.88098770297 stress="-0.00056219 0.0 0.0 0.0 -0.00180103 0.0 0.0 0.0 0.00040254" pbc="T T T"
Hf  0.0  0.0  0.0  0.0  0.0  0.0
Hf  1.611865  3.12711391  0.0  0.00277981926  -0.00556683746  0.0
B  1.611865  1.0423713  1.59877505  9.76999e-5  1.05717925109  -4.319364e-5
B  0.0  2.0847426  1.59877505  0.0  -1.05665784215  -0.00015837668
B  0.0  4.16948521  1.59877505  0.0  1.0567622267799999  -0.00032858019
B  1.611865  5.21185651  1.59877505  -8.895833e-5  -1.05725895364  -0.00034400649
Hf  3.22373  0.0  0.0  0.0  0.0  0.0
Hf  4.835595  3.12711391  0.0  -0.00277981926  -0.00556683746  0.0
B  4.835595  1.0423713  1.59877505  -9.76999e-5  1.05717925109  -4.319364e-5
B  3.22373  2.0847426  1.59877505  0.0  -1.05675862731  -0.00014037933
B  3.22373  4.16948521  1.59877505  0.0  1.05667789634  -0.00031006862999999996
B  4.835595  5.21185651  1.59877505  8.895833e-5  -1.05725895364  -0.00034400649
Hf  0.0  6.25422781  0.0  0.0  0.0  0.0
Hf  1.611865  9.38134172  0.0  0.00277981926  0.00556683746  0.0
B  1.611865  7.29659911  1.59877505  -8.895833e-5  1.05725895364  -0.00034400649
B  0.0  8.33897042  1.59877505  0.0  -1.0567622267799999  -0.00032858019
B  0.0  10.42371302  1.59877505  0.0  1.05665784215  -0.00015837668
B  1.611865  11.46608432  1.59877505  9.76999e-5  -1.05717925109  -4.319364e-5
Hf  3.22373  6.25422781  0.0  0.0  0.0  0.0
Hf  4.835595  9.38134172  0.0  -0.00277981926  0.00556683746  0.0
B  4.835595  7.29659911  1.59877505  8.895833e-5  1.05725895364  -0.00034400649
B  3.22373  8.33897042  1.59877505  0.0  -1.05667789634  -0.00031006862999999996
B  3.22373  10.42371302  1.59877505  0.0  1.05675862731  -0.00014037933
B  4.835595  11.46608432  1.59877505  -9.76999e-5  -1.05717925109  -4.319364e-5
Hf  0.0  0.0  3.19755009  0.0  0.0  0.0
Hf  1.611865  3.12711391  3.19755009  0.00409105476  -0.00510404846  0.0
B  1.611865  1.0423713  4.79632514  9.76999e-5  1.05717925109  4.319364e-5
B  0.0  2.0847426  4.79632514  0.0  -1.05665784215  0.00015837668
B  0.0  4.16948521  4.79632514  0.0  1.0567622267799999  0.00032858019
B  1.611865  5.21185651  4.79632514  -8.895833e-5  -1.05725895364  0.00034400649
Hf  3.22373  0.0  3.19755009  0.0  0.0  0.0
Hf  4.835595  3.12711391  3.19755009  -0.00409105476  -0.00510404846  0.0
B  4.835595  1.0423713  4.79632514  -9.76999e-5  1.05717925109  4.319364e-5
B  3.22373  2.0847426  4.79632514  0.0  -1.05675862731  0.00014037933
B  3.22373  4.16948521  4.79632514  0.0  1.05667789634  0.00031006862999999996
B  4.835595  5.21185651  4.79632514  8.895833e-5  -1.05725895364  0.00034400649
Hf  0.0  6.25422781  3.19755009  0.0  0.0  0.0
Hf  1.611865  9.38134172  3.19755009  0.00409105476  0.00510404846  0.0
B  1.611865  7.29659911  4.79632514  -8.895833e-5  1.05725895364  0.00034400649
B  0.0  8.33897042  4.79632514  0.0  -1.0567622267799999  0.00032858019
B  0.0  10.42371302  4.79632514  0.0  1.05665784215  0.00015837668
B  1.611865  11.46608432  4.79632514  9.76999e-5  -1.05717925109  4.319364e-5
Hf  3.22373  6.25422781  3.19755009  0.0  0.0  0.0
Hf  4.835595  9.38134172  3.19755009  -0.00409105476  0.00510404846  0.0
B  4.835595  7.29659911  4.79632514  8.895833e-5  1.05725895364  0.00034400649
B  3.22373  8.33897042  4.79632514  0.0  -1.05667789634  0.00031006862999999996
B  3.22373  10.42371302  4.79632514  0.0  1.05675862731  0.00014037933
B  4.835595  11.46608432  4.79632514  -9.76999e-5  -1.05717925109  4.319364e-5
48
Lattice="6.298 0.0 0.0 0.0 10.90845599 0.0 0.0 0.0 6.39510037" Properties=species:S:1:pos:R:3:forces:R:3 energy=-99987.19103008254 stress="-1.314e-5 0.0 0.0 0.0 1.085e-6 0.0 0.0 0.0 0.00110228" pbc="T T T"
Hf  0.0  0.0  0.0  0.0  0.0  0.0
Hf  1.5745  2.727114  0.0  0.0002519629  -0.0022522398  -0.0
B  1.5745  0.909038  1.59877509  0.00019591400999999998  0.01210501761  9.821411e-5
B  0.0  1.818076  1.59877509  0.0  -0.01213587021  -4.062259e-5
B  0.0  3.636152  1.59877509  0.0  0.01223357011  1.439788e-5
B  1.5745  4.54518999  1.59877509  -2.005419e-5  -0.01219346173  0.00016660404
Hf  3.149  0.0  0.0  0.0  0.0  0.0
Hf  4.7235  2.727114  0.0  -0.0002519629  -0.0022522398  0.0
B  4.7235  0.909038  1.59877509  -0.00019591400999999998  0.01210501761  9.821411e-5
B  3.149  1.818076  1.59877509  0.0  -0.01226082324  0.00026636078
B  3.149  3.636152  1.59877509  0.0  0.01211633023  0.00033217966
B  4.7235  4.54518999  1.59877509  2.005419e-5  -0.01219346173  0.00016660404
Hf  0.0  5.45422799  0.0  0.0  0.0  0.0
Hf  1.5745  8.18134199  0.0  0.0002519629  0.0022522398  0.0
B  1.5745  6.36326599  1.59877509  -2.005419e-5  0.01219346173  0.00016660404
B  0.0  7.27230399  1.59877509  -0.0  -0.01223357011  1.439788e-5
B  0.0  9.09037999  1.59877509  0.0  0.01213587021  -4.062259e-5
B  1.5745  9.99941799  1.59877509  0.00019591400999999998  -0.01210501761  9.821411e-5
Hf  3.149  5.45422799  0.0  0.0  0.0  0.0
Hf  4.7235  8.18134199  0.0  -0.0002519629  0.0022522398  -0.0
B  4.7235  6.36326599  1.59877509  2.005419e-5  0.01219346173  0.00016660404
B  3.149  7.27230399  1.59877509  0.0  -0.01211633023  0.00033217966
B  3.149  9.09037999  1.59877509  0.0  0.01226082324  0.00026636078
B  4.7235  9.99941799  1.59877509  -0.00019591400999999998  -0.01210501761  9.821411e-5
Hf  0.0  0.0  3.19755018  0.0  0.0  0.0
Hf  1.5745  2.727114  3.19755018  0.0030389811  -0.00540383289  0.0
B  1.5745  0.909038  4.79632528  0.00019591400999999998  0.01210501761  -9.821411e-5
B  0.0  1.818076  4.79632528  0.0  -0.01213587021  4.062259e-5
B  0.0  3.636152  4.79632528  0.0  0.01223357011  -1.439788e-5
B  1.5745  4.54518999  4.79632528  -2.005419e-5  -0.01219346173  -0.00016660404
Hf  3.149  0.0  3.19755018  0.0  0.0  0.0
Hf  4.7235  2.727114  3.19755018  -0.0030389811  -0.00540383289  -0.0
B  4.7235  0.909038  4.79632528  -0.00019591400999999998  0.01210501761  -9.821411e-5
B  3.149  1.818076  4.79632528  0.0  -0.01226082324  -0.00026636078
B  3.149  3.636152  4.79632528  0.0  0.01211633023  -0.00033217966
B  4.7235  4.54518999  4.79632528  2.005419e-5  -0.01219346173  -0.00016660404
Hf  0.0  5.45422799  3.19755018  0.0  0.0  0.0
Hf  1.5745  8.18134199  3.19755018  0.0030389811  0.00540383289  -0.0
B  1.5745  6.36326599  4.79632528  -2.005419e-5  0.01219346173  -0.00016660404
B  0.0  7.27230399  4.79632528  0.0  -0.01223357011  -1.439788e-5
B  0.0  9.09037999  4.79632528  0.0  0.01213587021  4.062259e-5
B  1.5745  9.99941799  4.79632528  0.00019591400999999998  -0.01210501761  -9.821411e-5
Hf  3.149  5.45422799  3.19755018  0.0  0.0  0.0
Hf  4.7235  8.18134199  3.19755018  -0.0030389811  0.00540383289  0.0
B  4.7235  6.36326599  4.79632528  2.005419e-5  0.01219346173  -0.00016660404
B  3.149  7.27230399  4.79632528  0.0  -0.01211633023  -0.00033217966
B  3.149  9.09037999  4.79632528  0.0  0.01226082324  -0.00026636078
B  4.7235  9.99941799  4.79632528  -0.00019591400999999998  -0.01210501761  -9.821411e-5
48
Lattice="6.14854 0.0 0.0 0.0 9.41488194 0.0 0.0 0.0 7.96000024" Properties=species:S:1:pos:R:3:forces:R:3 energy=-99965.79255206075 stress="5.846e-5 0.0 0.0 0.0 0.002585605 0.0 0.0 0.0 -0.001661505" pbc="T T T"
Hf  0.0  0.0  0.0  0.0  0.0  0.0
Hf  1.537135  2.35372048  0.0  -0.0030646916  0.0029927022  0.0
B  1.537135  0.78457349  1.99000006  0.00029052865  1.23036157962  -0.00113331884
B  0.0  1.56914699  1.99000006  0.0  -1.2302165723999998  -0.00062527936
B  0.0  3.13829398  1.99000006  0.0  1.23052972629  -0.00064584776
B  1.537135  3.92286747  1.99000006  -3.0852599999999997e-6  -1.23011835829  -0.0011878251
Hf  3.07427  0.0  0.0  0.0  0.0  0.0
Hf  4.611405  2.35372048  0.0  0.0030646916  0.0029927022  0.0
B  4.611405  0.78457349  1.99000006  -0.00029052865  1.23036157962  -0.00113331884
B  3.07427  1.56914699  1.99000006  0.0  -1.2301857198  -0.00026687499
B  3.07427  3.13829398  1.99000006  0.0  1.2301517819399999  -0.00028075866
B  4.611405  3.92286747  1.99000006  3.0852599999999997e-6  -1.23011835829  -0.0011878251
Hf  0.0  4.70744097  0.0  0.0  0.0  0.0
Hf  1.537135  7.06116145  0.0  -0.0030646916  -0.0029927022  0.0
B  1.537135  5.49201446  1.99000006  -3.0852599999999997e-6  1.23011835829  -0.0011878251
B  0.0  6.27658796  1.99000006  0.0  -1.23052972629  -0.00064584776
B  0.0  7.84573495  1.99000006  0.0  1.2302165723999998  -0.00062527936
B  1.537135  8.63030844  1.99000006  0.00029052865  -1.23036157962  -0.00113331884
Hf  3.07427  4.70744097  0.0  0.0  0.0  0.0
Hf  4.611405  7.06116145  0.0  0.0030646916  -0.0029927022  0.0
B  4.611405  5.49201446  1.99000006  3.0852599999999997e-6  1.23011835829  -0.0011878251
B  3.07427  6.27658796  1.99000006  0.0  -1.2301517819399999  -0.00028075866
B  3.07427  7.84573495  1.99000006  0.0  1.2301857198  -0.00026687499
B  4.611405  8.63030844  1.99000006  -0.00029052865  -1.23036157962  -0.00113331884
Hf  0.0  0.0  3.98000012  0.0  0.0  0.0
Hf  1.537135  2.35372048  3.98000012  0.00912774171  0.00133334653  -0.0
B  1.537135  0.78457349  5.97000018  0.00029052865  1.23036157962  0.00113331884
B  0.0  1.56914699  5.97000018  0.0  -1.2302165723999998  0.00062527936
B  0.0  3.13829398  5.97000018  0.0  1.23052972629  0.00064584776
B  1.537135  3.92286747  5.97000018  -3.0852599999999997e-6  -1.23011835829  0.0011878251
Hf  3.07427  0.0  3.98000012  0.0  0.0  0.0
Hf  4.611405  2.35372048  3.98000012  -0.00912774171  0.00133334653  -0.0
B  4.611405  0.78457349  5.97000018  -0.00029052865  1.23036157962  0.00113331884
B  3.07427  1.56914699  5.97000018  0.0  -1.2301857198  0.00026687499
B  3.07427  3.13829398  5.97000018  0.0  1.2301517819399999  0.00028075866
B  4.611405  3.92286747  5.97000018  3.0852599999999997e-6  -1.23011835829  0.0011878251
Hf  0.0  4.70744097  3.98000012  0.0  0.0  0.0
Hf  1.537135  7.06116145  3.98000012  0.00912774171  -0.00133334653  0.0
B  1.537135  5.49201446  5.97000018  -3.0852599999999997e-6  1.23011835829  0.0011878251
B  0.0  6.27658796  5.97000018  0.0  -1.23052972629  0.00064584776
B  0.0  7.84573495  5.97000018  0.0  1.2302165723999998  0.00062527936
B  1.537135  8.63030844  5.97000018  0.00029052865  -1.23036157962  0.00113331884
Hf  3.07427  4.70744097  3.98000012  0.0  0.0  0.0
Hf  4.611405  7.06116145  3.98000012  -0.00912774171  -0.00133334653  -0.0
B  4.611405  5.49201446  5.97000018  3.0852599999999997e-6  1.23011835829  0.0011878251
B  3.07427  6.27658796  5.97000018  0.0  -1.2301517819399999  0.00028075866
B  3.07427  7.84573495  5.97000018  0.0  1.2301857198  0.00026687499
B  4.611405  8.63030844  5.97000018  -0.00029052865  -1.23036157962  0.00113331884
48
Lattice="6.298 0.0 0.0 0.0 10.90845599 0.0 0.0 0.0 7.52489963" Properties=species:S:1:pos:R:3:forces:R:3 energy=-99984.64326529094 stress="-0.0004706 0.0 0.0 0.0 -0.000461065 0.0 0.0 0.0 -0.001269565" pbc="T T T"
Hf  0.0  0.0  0.0  0.0  0.0  0.0
Hf  1.5745  2.727114  0.0  -0.00935193727  -0.00146858376  -0.0
B  1.5745  0.909038  1.88122491  -5.707731e-5  -0.00152668949  -0.00013009513
B  0.0  1.818076  1.88122491  0.0  0.00165884146  -0.00020774084000000002
B  0.0  3.636152  1.88122491  0.0  -0.0016650119799999999  -0.00013729406999999998
B  1.5745  4.54518999  1.88122491  -8.175939e-5  0.0016506141  -5.759152e-5
Hf  3.149  0.0  0.0  0.0  0.0  0.0
Hf  4.7235  2.727114  0.0  0.00935193727  -0.00146858376  -0.0
B  4.7235  0.909038  1.88122491  5.707731e-5  -0.00152668949  -0.00013009513
B  3.149  1.818076  1.88122491  0.0  0.0015817099599999998  -4.833574e-5
B  3.149  3.636152  1.88122491  0.0  -0.0016357020100000001  1.4912089999999998e-5
B  4.7235  4.54518999  1.88122491  8.175939e-5  0.0016506141  -5.759152e-5
Hf  0.0  5.45422799  0.0  0.0  0.0  0.0
Hf  1.5745  8.18134199  0.0  -0.00935193727  0.00146858376  -0.0
B  1.5745  6.36326599  1.88122491  -8.175939e-5  -0.0016506141  -5.759152e-5
B  0.0  7.27230399  1.88122491  0.0  0.0016650119799999999  -0.00013729406999999998
B  0.0  9.09037999  1.88122491  0.0  -0.00165884146  -0.00020774084000000002
B  1.5745  9.99941799  1.88122491  -5.707731e-5  0.00152668949  -0.00013009513
Hf  3.149  5.45422799  0.0  0.0  0.0  0.0
Hf  4.7235  8.18134199  0.0  0.00935193727  0.00146858376  -0.0
B  4.7235  6.36326599  1.88122491  8.175939e-5  -0.0016506141  -5.759152e-5
B  3.149  7.27230399  1.88122491  0.0  0.0016357020100000001  1.4912089999999998e-5
B  3.149  9.09037999  1.88122491  -0.0  -0.0015817099599999998  -4.833574e-5
B  4.7235  9.99941799  1.88122491  5.707731e-5  0.00152668949  -0.00013009513
Hf  0.0  0.0  3.76244982  0.0  0.0  0.0
Hf  1.5745  2.727114  3.76244982  0.00525676883  -0.0036349504900000003  0.0
B  1.5745  0.909038  5.64367472  -5.707731e-5  -0.00152668949  0.00013009513
B  0.0  1.818076  5.64367472  0.0  0.00165884146  0.00020774084000000002
B  0.0  3.636152  5.64367472  0.0  -0.0016650119799999999  0.00013729406999999998
B  1.5745  4.54518999  5.64367472  -8.175939e-5  0.0016506141  5.759152e-5
Hf  3.149  0.0  3.76244982  0.0  0.0  0.0
Hf  4.7235  2.727114  3.76244982  -0.00525676883  -0.0036349504900000003  0.0
B  4.7235  0.909038  5.64367472  5.707731e-5  -0.00152668949  0.00013009513
B  3.149  1.818076  5.64367472  0.0  0.0015817099599999998  4.833574e-5
B  3.149  3.636152  5.64367472  0.0  -0.0016357020100000001  -1.4912089999999998e-5
B  4.7235  4.54518999  5.64367472  8.175939e-5  0.0016506141  5.759152e-5
Hf  0.0  5.45422799  3.76244982  0.0  0.0  0.0
Hf  1.5745  8.18134199  3.76244982  0.00525676883  0.0036349504900000003  -0.0
B  1.5745  6.36326599  5.64367472  -8.175939e-5  -0.0016506141  5.759152e-5
B  0.0  7.27230399  5.64367472  0.0  0.0016650119799999999  0.00013729406999999998
B  0.0  9.09037999  5.64367472  0.0  -0.00165884146  0.00020774084000000002
B  1.5745  9.99941799  5.64367472  -5.707731e-5  0.00152668949  0.00013009513
Hf  3.149  5.45422799  3.76244982  0.0  0.0  0.0
Hf  4.7235  8.18134199  3.76244982  -0.00525676883  0.0036349504900000003  0.0
B  4.7235  6.36326599  5.64367472  8.175939e-5  -0.0016506141  5.759152e-5
B  3.149  7.27230399  5.64367472  -0.0  0.0016357020100000001  -1.4912089999999998e-5
B  3.149  9.09037999  5.64367472  0.0  -0.0015817099599999998  4.833574e-5
B  4.7235  9.99941799  5.64367472  5.707731e-5  0.00152668949  0.00013009513
48
Lattice="7.298 0.0 0.0 0.0 12.50845599 0.0 0.0 0.0 7.96" Properties=species:S:1:pos:R:3:forces:R:3 energy=-99936.77925828447 stress="-0.00167596 0.0 0.0 0.0 -0.00160914 0.0 0.0 0.0 -0.001396835" pbc="T T T"
Hf  0.0  0.0  0.0  0.0  0.0  0.0
Hf  1.8245  3.127114  0.0  -0.00158685206  -0.00010695568  0.0
B  1.8245  1.04237133  1.99  -8.175939e-5  -0.062011154949999994  -0.0009106659100000001
B  0.0  2.08474266  1.99  0.0  0.0621319943  -0.00082479284
B  0.0  4.16948533  1.99  0.0  -0.062101655910000005  -0.0008736427900000001
B  1.8245  5.21185666  1.99  -0.00011878251  0.06200087075  -0.0009260922099999999
Hf  3.649  0.0  0.0  0.0  0.0  0.0
Hf  5.4735  3.127114  0.0  0.00158685206  -0.00010695568  0.0
B  5.4735  1.04237133  1.99  8.175939e-5  -0.062011154949999994  -0.0009106659100000001
B  3.649  2.08474266  1.99  0.0  0.062191128449999994  -0.00095385955
B  3.649  4.16948533  1.99  0.0  -0.06211708221  -0.00094923166
B  5.4735  5.21185666  1.99  0.00011878251  0.06200087075  -0.0009260922099999999
Hf  0.0  6.25422799  0.0  0.0  0.0  0.0
Hf  1.8245  9.38134199  0.0  -0.00158685206  0.00010695568  0.0
B  1.8245  7.29659933  1.99  -0.00011878251  -0.06200087075  -0.0009260922099999999
B  0.0  8.33897066  1.99  0.0  0.062101655910000005  -0.0008736427900000001
B  0.0  10.42371332  1.99  0.0  -0.0621319943  -0.00082479284
B  1.8245  11.46608465  1.99  -8.175939e-5  0.062011154949999994  -0.0009106659100000001
Hf  3.649  6.25422799  0.0  0.0  0.0  0.0
Hf  5.4735  9.38134199  0.0  0.00158685206  0.00010695568  0.0
B  5.4735  7.29659933  1.99  0.00011878251  -0.06200087075  -0.0009260922099999999
B  3.649  8.33897066  1.99  0.0  0.06211708221  -0.00094923166
B  3.649  10.42371332  1.99  0.0  -0.062191128449999994  -0.00095385955
B  5.4735  11.46608465  1.99  8.175939e-5  0.062011154949999994  -0.0009106659100000001
Hf  0.0  0.0  3.98  0.0  0.0  0.0
Hf  1.8245  3.127114  3.98  -0.00059339834  -0.00203370055  -0.0
B  1.8245  1.04237133  5.97  -8.175939e-5  -0.062011154949999994  0.0009106659100000001
B  0.0  2.08474266  5.97  0.0  0.0621319943  0.00082479284
B  0.0  4.16948533  5.97  0.0  -0.062101655910000005  0.0008736427900000001
B  1.8245  5.21185666  5.97  -0.00011878251  0.06200087075  0.0009260922099999999
Hf  3.649  0.0  3.98  0.0  0.0  0.0
Hf  5.4735  3.127114  3.98  0.00059339834  -0.00203370055  0.0
B  5.4735  1.04237133  5.97  8.175939e-5  -0.062011154949999994  0.0009106659100000001
B  3.649  2.08474266  5.97  0.0  0.062191128449999994  0.00095385955
B  3.649  4.16948533  5.97  0.0  -0.06211708221  0.00094923166
B  5.4735  5.21185666  5.97  0.00011878251  0.06200087075  0.0009260922099999999
Hf  0.0  6.25422799  3.98  0.0  0.0  0.0
Hf  1.8245  9.38134199  3.98  -0.00059339834  0.00203370055  0.0
B  1.8245  7.29659933  5.97  -0.00011878251  -0.06200087075  0.0009260922099999999
B  0.0  8.33897066  5.97  0.0  0.062101655910000005  0.0008736427900000001
B  0.0  10.42371332  5.97  0.0  -0.0621319943  0.00082479284
B  1.8245  11.46608465  5.97  -8.175939e-5  0.062011154949999994  0.0009106659100000001
Hf  3.649  6.25422799  3.98  0.0  0.0  0.0
Hf  5.4735  9.38134199  3.98  0.00059339834  0.00203370055  -0.0
B  5.4735  7.29659933  5.97  0.00011878251  -0.06200087075  0.0009260922099999999
B  3.649  8.33897066  5.97  0.0  0.06211708221  0.00094923166
B  3.649  10.42371332  5.97  0.0  -0.062191128449999994  0.00095385955
B  5.4735  11.46608465  5.97  8.175939e-5  0.062011154949999994  0.0009106659100000001
48
Lattice="5.51398 0.0 0.0 0.0 10.90846345 0.0 0.0 0.0 6.02652016" Properties=species:S:1:pos:R:3:forces:R:3 energy=-99957.60720633266 stress="0.00477002 0.0 0.0 0.0 0.00084465 0.0 0.0 0.0 0.00387886" pbc="T T T"
Hf  0.0  0.0  0.0  0.0  0.0  0.0
Hf  1.378495  2.72711586  0.0  -0.00100476634  0.00047564425  0.0
B  1.378495  0.90903862  1.50663004  -1.7997349999999998e-5  0.77413904132  0.00030955442
B  0.0  1.81807724  1.50663004  0.0  -0.7730067509  -0.00031469652
B  0.0  3.63615448  1.50663004  0.0  0.77317335494  -0.0012119929699999999
B  1.378495  4.5451931  1.50663004  0.00010232779  -0.77373950015  -0.00108138363
Hf  2.75699  0.0  0.0  0.0  0.0  0.0
Hf  4.135485  2.72711586  0.0  0.00100476634  0.00047564425  0.0
B  4.135485  0.90903862  1.50663004  1.7997349999999998e-5  0.77413904132  0.00030955442
B  2.75699  1.81807724  1.50663004  0.0  -0.77308799608  0.00028950023
B  2.75699  3.63615448  1.50663004  0.0  0.77336618369  -0.00056151732
B  4.135485  4.5451931  1.50663004  -0.00010232779  -0.77373950015  -0.00108138363
Hf  0.0  5.45423172  0.0  0.0  0.0  0.0
Hf  1.378495  8.18134759  0.0  -0.00100476634  -0.00047564425  0.0
B  1.378495  6.36327034  1.50663004  0.00010232779  0.77373950015  -0.00108138363
B  0.0  7.27230897  1.50663004  0.0  -0.77317335494  -0.0012119929699999999
B  0.0  9.09038621  1.50663004  0.0  0.7730067509  -0.00031469652
B  1.378495  9.99942483  1.50663004  -1.7997349999999998e-5  -0.77413904132  0.00030955442
Hf  2.75699  5.45423172  0.0  0.0  0.0  0.0
Hf  4.135485  8.18134759  0.0  0.00100476634  -0.00047564425  0.0
B  4.135485  6.36327034  1.50663004  -0.00010232779  0.77373950015  -0.00108138363
B  2.75699  7.27230897  1.50663004  0.0  -0.77336618369  -0.00056151732
B  2.75699  9.09038621  1.50663004  0.0  0.77308799608  0.00028950023
B  4.135485  9.99942483  1.50663004  1.7997349999999998e-5  -0.77413904132  0.00030955442
Hf  0.0  0.0  3.01326008  0.0  0.0  0.0
Hf  1.378495  2.72711586  3.01326008  0.00024784921999999995  -0.0009672290100000001  0.0
B  1.378495  0.90903862  4.51989012  -1.7997349999999998e-5  0.77413904132  -0.00030955442
B  0.0  1.81807724  4.51989012  0.0  -0.7730067509  0.00031469652
B  0.0  3.63615448  4.51989012  0.0  0.77317335494  0.0012119929699999999
B  1.378495  4.5451931  4.51989012  0.00010232779  -0.77373950015  0.00108138363
Hf  2.75699  0.0  3.01326008  0.0  0.0  0.0
Hf  4.135485  2.72711586  3.01326008  -0.00024784921999999995  -0.0009672290100000001  0.0
B  4.135485  0.90903862  4.51989012  1.7997349999999998e-5  0.77413904132  -0.00030955442
B  2.75699  1.81807724  4.51989012  0.0  -0.77308799608  -0.00028950023
B  2.75699  3.63615448  4.51989012  0.0  0.77336618369  0.00056151732
B  4.135485  4.5451931  4.51989012  -0.00010232779  -0.77373950015  0.00108138363
Hf  0.0  5.45423172  3.01326008  0.0  0.0  0.0
Hf  1.378495  8.18134759  3.01326008  0.00024784921999999995  0.0009672290100000001  0.0
B  1.378495  6.36327034  4.51989012  0.00010232779  0.77373950015  0.00108138363
B  0.0  7.27230897  4.51989012  0.0  -0.77317335494  0.0012119929699999999
B  0.0  9.09038621  4.51989012  0.0  0.7730067509  0.00031469652
B  1.378495  9.99942483  4.51989012  -1.7997349999999998e-5  -0.77413904132  -0.00030955442
Hf  2.75699  5.45423172  3.01326008  0.0  0.0  0.0
Hf  4.135485  8.18134759  3.01326008  -0.00024784921999999995  0.0009672290100000001  0.0
B  4.135485  6.36327034  4.51989012  -0.00010232779  0.77373950015  0.00108138363
B  2.75699  7.27230897  4.51989012  0.0  -0.77336618369  0.00056151732
B  2.75699  9.09038621  4.51989012  0.0  0.77308799608  -0.00028950023
B  4.135485  9.99942483  4.51989012  1.7997349999999998e-5  -0.77413904132  -0.00030955442
48
Lattice="5.298 0.0 0.0 0.0 9.30845599 0.0 0.0 0.0 7.89348396" Properties=species:S:1:pos:R:3:forces:R:3 energy=-99942.00732282795 stress="0.00437377 0.0 0.0 0.0 0.0039819 0.0 0.0 0.0 -0.001460535" pbc="T T T"
Hf  0.0  0.0  0.0  0.0  0.0  0.0
Hf  1.3245  2.327114  0.0  -0.0038252081899999998  -0.00038822855  0.0
B  1.3245  0.77570467  1.97337099  2.0568399999999998e-5  -0.30669849766  -0.00080988075
B  0.0  1.55140933  1.97337099  0.0  0.30728161179999997  -0.00077234342
B  0.0  3.10281866  1.97337099  0.0  -0.30754951521  -0.00077799973
B  1.3245  3.87852333  1.97337099  -9.667148e-5  0.30671700922  -0.00083147757
Hf  2.649  0.0  0.0  0.0  0.0  0.0
Hf  3.9735  2.327114  0.0  0.0038252081899999998  -0.00038822855  0.0
B  3.9735  0.77570467  1.97337099  -2.0568399999999998e-5  -0.30669849766  -0.00080988075
B  2.649  1.55140933  1.97337099  0.0  0.30714586035999997  -0.00022728082
B  2.649  3.10281866  1.97337099  0.0  -0.30755311467999996  -0.00019642822
B  3.9735  3.87852333  1.97337099  9.667148e-5  0.30671700922  -0.00083147757
Hf  0.0  4.65422799  0.0  0.0  0.0  0.0
Hf  1.3245  6.98134199  0.0  -0.0038252081899999998  0.00038822855  0.0
B  1.3245  5.42993266  1.97337099  -9.667148e-5  -0.30671700922  -0.00083147757
B  0.0  6.20563732  1.97337099  0.0  0.30754951521  -0.00077799973
B  0.0  7.75704666  1.97337099  0.0  -0.30728161179999997  -0.00077234342
B  1.3245  8.53275132  1.97337099  2.0568399999999998e-5  0.30669849766  -0.00080988075
Hf  2.649  4.65422799  0.0  0.0  0.0  0.0
Hf  3.9735  6.98134199  0.0  0.0038252081899999998  0.00038822855  0.0
B  3.9735  5.42993266  1.97337099  9.667148e-5  -0.30671700922  -0.00083147757
B  2.649  6.20563732  1.97337099  0.0  0.30755311467999996  -0.00019642822
B  2.649  7.75704666  1.97337099  0.0  -0.30714586035999997  -0.00022728082
B  3.9735  8.53275132  1.97337099  -2.0568399999999998e-5  0.30669849766  -0.00080988075
Hf  0.0  0.0  3.94674198  0.0  0.0  0.0
Hf  1.3245  2.327114  3.94674198  0.00132357654  0.00097802742  0.0
B  1.3245  0.77570467  5.92011297  2.0568399999999998e-5  -0.30669849766  0.00080988075
B  0.0  1.55140933  5.92011297  0.0  0.30728161179999997  0.00077234342
B  0.0  3.10281866  5.92011297  0.0  -0.30754951521  0.00077799973
B  1.3245  3.87852333  5.92011297  -9.667148e-5  0.30671700922  0.00083147757
Hf  2.649  0.0  3.94674198  0.0  0.0  0.0
Hf  3.9735  2.327114  3.94674198  -0.00132357654  0.00097802742  0.0
B  3.9735  0.77570467  5.92011297  -2.0568399999999998e-5  -0.30669849766  0.00080988075
B  2.649  1.55140933  5.92011297  0.0  0.30714586035999997  0.00022728082
B  2.649  3.10281866  5.92011297  0.0  -0.30755311467999996  0.00019642822
B  3.9735  3.87852333  5.92011297  9.667148e-5  0.30671700922  0.00083147757
Hf  0.0  4.65422799  3.94674198  0.0  0.0  0.0
Hf  1.3245  6.98134199  3.94674198  0.00132357654  -0.00097802742  0.0
B  1.3245  5.42993266  5.92011297  -9.667148e-5  -0.30671700922  0.00083147757
B  0.0  6.20563732  5.92011297  0.0  0.30754951521  0.00077799973
B  0.0  7.75704666  5.92011297  0.0  -0.30728161179999997  0.00077234342
B  1.3245  8.53275132  5.92011297  2.0568399999999998e-5  0.30669849766  0.00080988075
Hf  2.649  4.65422799  3.94674198  0.0  0.0  0.0
Hf  3.9735  6.98134199  3.94674198  -0.00132357654  -0.00097802742  0.0
B  3.9735  5.42993266  5.92011297  9.667148e-5  -0.30671700922  0.00083147757
B  2.649  6.20563732  5.92011297  0.0  0.30755311467999996  0.00019642822
B  2.649  7.75704666  5.92011297  0.0  -0.30714586035999997  0.00022728082
B  3.9735  8.53275132  5.92011297  -2.0568399999999998e-5  0.30669849766  0.00080988075
48
Lattice="6.298 0.0 0.0 0.0 10.90845599 0.0 0.0 0.0 7.64207997" Properties=species:S:1:pos:R:3:forces:R:3 energy=-99982.65061957663 stress="-0.000485065 0.0 0.0 0.0 -0.000476305 0.0 0.0 0.0 -0.00143651" pbc="T T T"
Hf  0.0  0.0  0.0  0.0  0.0  0.0
Hf  1.5745  2.727114  0.0  0.00566196631  0.00406997215  -0.0
B  1.5745  0.909038  1.91051999  -0.00011106936  -0.0011065799200000001  3.342365e-5
B  0.0  1.818076  1.91051999  0.0  0.0008181081099999999  1.953998e-5
B  0.0  3.636152  1.91051999  0.0  -0.00094820324  -7.71315e-5
B  1.5745  4.54518999  1.91051999  6.273362e-5  0.0011790835299999999  -9.924253e-5
Hf  3.149  0.0  0.0  0.0  0.0  0.0
Hf  4.7235  2.727114  0.0  -0.00566196631  0.00406997215  0.0
B  4.7235  0.909038  1.91051999  0.00011106936  -0.0011065799200000001  3.342365e-5
B  3.149  1.818076  1.91051999  0.0  0.0009554021800000001  3.445207e-5
B  3.149  3.636152  1.91051999  0.0  -0.0008834127800000001  -6.376203999999999e-5
B  4.7235  4.54518999  1.91051999  -6.273362e-5  0.0011790835299999999  -9.924253e-5
Hf  0.0  5.45422799  0.0  0.0  0.0  0.0
Hf  1.5745  8.18134199  0.0  0.00566196631  -0.00406997215  0.0
B  1.5745  6.36326599  1.91051999  6.273362e-5  -0.0011790835299999999  -9.924253e-5
B  0.0  7.27230399  1.91051999  0.0  0.00094820324  -7.71315e-5
B  0.0  9.09037999  1.91051999  0.0  -0.0008181081099999999  1.953998e-5
B  1.5745  9.99941799  1.91051999  -0.00011106936  0.0011065799200000001  3.342365e-5