6
Lattice="3.149 0.0 0.0 0.0 5.45422799 0.0 0.0 0.0 3.48" Properties=species:S:1:pos:R:3:forces:R:3 energy=-12495.98733423508 stress="0.00033533 0.000140215 -0.000171255 0.000140215 0.00014695 -0.000141425 -0.000171255 -0.000141425 0.000474605" pbc="T T T"
Hf  3.10917765  0.21371045  3.33184956  -0.89155066746  -3.9273837738399995  4.66060815388
Hf  1.61531137  2.9099882  0.16165391  0.63499073006  -3.6823040889  -2.71232611224
B  1.43202906  0.6964361  1.90457303  2.05219462686  3.52868950771  -3.5224346572700003
B  0.09019446  1.8278315  1.67787177  -0.64281752047  -0.36156316203  0.54016577817
B  0.14587262  3.54731689  1.73723386  -2.69146461254  0.97582711541  1.4244964230200001
B  1.53541509  4.38348688  1.87879583  1.53864744355  3.4667344016499997  -0.39050958556
6
Lattice="3.149 0.0 0.0 0.0 5.45422799 0.0 0.0 0.0 3.48" Properties=species:S:1:pos:R:3:forces:R:3 energy=-12496.107676045436 stress="0.000127485 -8.004e-5 -4.79e-5 -8.004e-5 0.00034625 0.000143725 -4.79e-5 0.000143725 0.000186585" pbc="T T T"
Hf  0.02781523  5.21587573  0.01447426  0.61990689392  6.3849712805  0.56935490882
Hf  1.50647405  2.96675094  0.14804138  2.4599446453000002  -5.9691034287899996  -1.1789709180099999
B  1.61593528  0.98535007  1.81215582  -0.98709345651  -0.56500623485  0.07681423243
B  3.13012465  1.66585504  1.90873773  1.28192501579  2.9199342860599997  -0.6948262625
B  0.14660366  3.58209814  1.82284341  -2.10107028736  1.00885071003  0.31511354431
B  1.706976  4.78162507  1.72415968  -1.2736133253500002  -3.7796466129499997  0.9125139807400001
6
Lattice="3.149 0.0 0.0 0.0 5.45422799 0.0 0.0 0.0 3.48" Properties=species:S:1:pos:R:3:forces:R:3 energy=-12497.58808347304 stress="-0.000114245 -6.4685e-5 -1.8375e-5 -6.4685e-5 7.12e-6 3.5375e-5 -1.8375e-5 3.5375e-5 -3.807e-5" pbc="T T T"
Hf  0.04563516  5.40813852  3.40296001  -1.95438931381  1.02186022303  0.17319724062
Hf  1.46081211  2.73135172  3.39956284  0.62476874947  0.72734233185  1.0724379186300002
B  1.42390002  1.07131936  1.6223795  0.9774736158299999  -2.33046810993  0.6228980534899999
B  3.02808602  1.94071401  1.90411468  0.14967470417  -3.264565027  -2.3993393404899996
B  3.10203028  3.51259739  1.5995965  -0.45741293445  4.10606609253  0.6558285761
B  1.49173315  4.5650692  1.68402038  0.6598851787900001  -0.26023602469  -0.12502296256
6
Lattice="2.78297 0.0 0.0 0.33617875 4.64206317 0.0 -0.51747071 0.76747892 2.83259083" Properties=species:S:1:pos:R:3:forces:R:3 energy=-12475.515545677918 stress="0.00843281 -0.000457675 0.00455803 -0.000457675 0.008878925 -0.0067696 0.00455803 -0.0067696 0.01440255" pbc="T T T"
Hf  0.0  0.0  0.0  0.0  0.0  0.0
Hf  1.55957437  2.32103159  0.0  0.0  0.0  0.0
B  1.18877943  1.15741666  1.41629542  -3.25061142444  -1.09844563201  -0.56586907923
B  -0.14667578  1.93109385  1.41629542  3.2505651455400004  1.0996401418400001  0.5659035313
B  -0.03461619  3.47844824  1.41629542  -3.2505651455400004  -1.0996401418400001  -0.5659035313
B  1.4128986  4.25212544  1.41629542  3.25061142444  1.09844563201  0.56586907923
6
Lattice="3.149 0.0 0.0 0.0 5.45422799 0.0 0.17944918 0.93870692 3.34619595" Properties=species:S:1:pos:R:3:forces:R:3 energy=-12494.852413176573 stress="-3.916e-5 3.423e-5 -0.00045655 3.423e-5 0.000364465 -0.0024341 -0.00045655 -0.0024341 0.001966295" pbc="T T T"
Hf  0.0  0.0  0.0  0.0  0.0  0.0
Hf  1.5745  2.727114  0.0  0.0  0.0  0.0
B  1.66422459  1.37839146  1.67309797  0.32864240941  -0.72526080977  0.45348539847
B  0.08972459  2.28742946  1.67309797  -0.3286367531  0.72618124567  -0.45382014917999997
B  0.08972459  4.10550546  1.67309797  0.3286367531  -0.72618124567  0.45382014917999997
B  1.66422459  5.01454345  1.67309797  -0.32864240941  0.72526080977  -0.45348539847
6
Lattice="3.649 0.0 0.0 0.43626544 6.0240921 0.0 -0.69111975 1.4148561 3.65526137" Properties=species:S:1:pos:R:3:forces:R:3 energy=-12490.733989225559 stress="-0.00115246 -0.00016864 0.000444005 -0.00016864 -0.00082983 -0.00093627 0.000444005 -0.00093627 0.000247205" pbc="T T T"
Hf  0.0  0.0  0.0  0.0  0.0  0.0
Hf  2.04263272  3.01204605  0.0  0.0  0.0  0.0
B  1.55165103  1.7114434  1.82763069  -1.4106549182399999  -0.8168071587000001  0.12852576108
B  -0.20013806  2.71545875  1.82763069  1.4107289644799998  0.81603430107  -0.12802800579999998
B  -0.05471625  4.72348945  1.82763069  -1.4107289644799998  -0.81603430107  0.12802800579999998
B  1.84249466  5.7275048  1.82763069  1.4106549182399999  0.8168071587000001  -0.12852576108
6
Lattice="3.149 0.0 0.0 0.0 5.45422799 0.0 0.0 0.0 3.48" Properties=species:S:1:pos:R:3:forces:R:3 energy=-12496.466503612863 stress="-5.5e-7 8.398e-5 4.255e-6 8.398e-5 0.00024845 -9.995e-5 4.255e-6 -9.995e-5 0.00010655" pbc="T T T"
Hf  0.10492004  0.1544755  3.37390734  -0.8291173461  -4.58523165261  1.7482589795299999
Hf  1.59852409  2.5936474  0.03612015  0.11160105314  5.35282171537  -0.88104947084
B  1.66384142  1.17076485  1.77394567  -1.35086463628  -5.69554833668  -0.74779349197
B  0.0281335  1.70950322  1.78204148  1.27726473056  4.093696770979999  -1.26620047399
B  3.13137573  3.51527919  1.61208347  0.62197504654  3.1215837944  1.12125290235
B  1.62520203  4.67578405  1.67714218  0.16914063793  -2.28732229146  0.02553104071
6
Lattice="3.149 0.0 0.0 0.0 5.45422799 0.0 0.0 0.0 3.48" Properties=species:S:1:pos:R:3:forces:R:3 energy=-12497.29089568141 stress="-0.00013285 -7.405e-5 -4.096e-5 -7.405e-5 6.548e-5 0.00020754 -4.096e-5 0.00020754 0.00018531" pbc="T T T"
Hf  0.11773025  0.10109942  0.09475961  -1.27949023144  0.59276431907  -1.8320001348700001
Hf  1.42326813  2.99924119  0.07539329  2.6678042678100002  -4.81392397906  -3.1190487390999997
B  1.69184244  0.9802344  1.77181527  -0.55162289118  0.14010422765  0.09703708331
B  0.12811743  1.87835102  1.69405787  -1.31735202795  -0.38642932921  0.9396791808299999
B  3.08461569  3.59960224  1.67900363  0.02124612878  1.9806289359  1.47392383085
B  1.5542177  4.52338797  1.62817271  0.45941475398000003  2.48685633986  2.4404092931899997
6
Lattice="3.149 0.0 0.0 0.0 5.45422799 0.0 0.0 0.0 2.99116917" Properties=species:S:1:pos:R:3:forces:R:3 energy=-12497.24963805007 stress="0.00039741 0.0 0.0 0.0 0.000407795 0.0 0.0 0.0 0.00250783" pbc="T T T"
Hf  0.0  0.0  0.0  0.0  0.0  0.0
Hf  1.5745  2.727114  0.0  0.0  0.0  0.0
B  1.5745  0.909038  1.49558459  0.0  -0.013881098949999999  -0.0
B  0.0  1.818076  1.49558459  0.0  0.01523552809  0.0
B  0.0  3.636152  1.49558459  0.0  -0.01523552809  0.0
B  1.5745  4.54518999  1.49558459  0.0  0.013881098949999999  -0.0
6
Lattice="3.149 0.0 0.0 0.0 5.45422799 0.0 0.0 0.0 3.48" Properties=species:S:1:pos:R:3:forces:R:3 energy=-12497.614215383357 stress="-0.00019163 5.9065e-5 1.668e-5 5.9065e-5 -9.6765e-5 6.738e-5 1.668e-5 6.738e-5 8.332e-5" pbc="T T T"
Hf  3.02438896  5.27357876  3.43646089  1.27894465463  2.16479119056  1.3804270833899999
Hf  1.53721616  2.55732206  0.0349964  0.9262639561399999  2.72681295057  0.18418745095
B  1.65575996  1.00765128  1.7664152  -0.43058762717000004  -3.16250514041  -0.0690892556
B  0.14103364  1.80899581  1.75959944  -2.52437207304  -0.71123367518  0.15264118165999999
B  3.06115078  3.54378569  1.89995836  0.64582513476  0.65177814393  -1.6782683138
B  1.48848084  4.58342204  1.72672407  0.10392646889  -1.6696439836799999  0.030102367609999996
6
Lattice="3.149 0.0 0.0 0.0 5.45422799 0.0 0.0 0.0 3.48" Properties=species:S:1:pos:R:3:forces:R:3 energy=-12496.065275808 stress="1.4835e-5 -3.18e-6 0.00016754 -3.18e-6 0.000355425 3.357e-5 0.00016754 3.357e-5 0.000300355" pbc="T T T"
Hf  3.02533146  5.25652693  3.37149811  2.43682524949  5.540549502169999  0.92624338774
Hf  1.68497757  2.77596248  0.11762756  -1.56125571462  -3.55366468741  -1.62783305437
B  1.64301205  0.81427603  1.89148098  -1.1580759946599999  2.4846524358  -1.5796747168199998
B  0.06184873  1.8808145  1.89454833  -0.11359567373  -1.7929032059399999  -0.8328006323299999
B  3.10824001  3.90734337  1.56990912  0.99360129827  -5.89273707327  2.04980663562
B  1.55237621  4.42193552  1.68053054  -0.59749916475  3.21410251444  1.06425940858
6
Lattice="3.649 0.0 0.0 -0.43626544 6.0240921 0.0 -0.54073601 0.72366418 2.98005915" Properties=species:S:1:pos:R:3:forces:R:3 energy=-12492.464248061933 stress="-0.00125185 1.297e-5 0.00063081 1.297e-5 -0.000626615 -0.001216935 0.00063081 -0.001216935 0.001595" pbc="T T T"
Hf  0.0  0.0  0.0  0.0  0.0  0.0
Hf  1.60636728  3.01204605  0.0  0.0  0.0  0.0
B  1.48142109  1.36584744  1.49002957  -0.07326824026999999  -1.0042701273499999  0.18639392606
B  -0.41578982  2.36986279  1.49002957  0.07337828121000001  1.0054522961399999  -0.18653944748999998
B  -0.56121163  4.37789349  1.49002957  -0.07337828121000001  -1.0054522961399999  0.18653944748999998
B  1.19057746  5.38190884  1.49002957  0.07326824026999999  1.0042701273499999  -0.18639392606
6
Lattice="2.78297 0.0 0.0 0.3516621 4.85586225 0.0 0.26104038 1.22038259 3.39165055" Properties=species:S:1:pos:R:3:forces:R:3 energy=-12487.361227456318 stress="0.00386998 -0.000776595 -0.000638115 -0.000776595 0.003602215 -0.0042275 -0.000638115 -0.0042275 0.006189375" pbc="T T T"
Hf  0.0  0.0  0.0  0.0  0.0  0.0
Hf  1.56731605  2.42793113  0.0  0.0  0.0  0.0
B  1.58061554  1.41950167  1.69582528  1.37108131664  -1.5594858038  1.4533220072
B  0.24774089  2.22881205  1.69582528  -1.37615091303  1.5654712082  -1.45456742382
B  0.36496159  3.8474328  1.69582528  1.37615091303  -1.5654712082  1.45456742382
B  1.81505694  4.65674318  1.69582528  -1.37108131664  1.5594858038  -1.4533220072
6
Lattice="3.149 0.0 0.0 0.0 5.45422799 0.0 0.0 0.0 3.48" Properties=species:S:1:pos:R:3:forces:R:3 energy=-12497.18423276268 stress="-5.7165e-5 9.635e-6 -3.122e-5 9.635e-6 7.7675e-5 9.7715e-5 -3.122e-5 9.7715e-5 8.2625e-5" pbc="T T T"
Hf  0.07301233  5.39713943  3.37498425  -1.00409992384  2.29715192982  1.3322995984400001
Hf  1.59171046  2.64532983  3.38169862  0.13337476137999998  2.36841320846  1.5921679629799999
B  1.5846036  0.83782121  1.88992497  0.50199699829  3.5913418825299996  -2.30432155985
B  0.04234896  1.97526862  1.76695334  -0.43338030167999997  -1.9218130818899999  -1.16824604004
B  3.08539431  3.87699237  1.62992449  1.53604862621  -3.8806693379699997  0.41639183169999994
B  1.61094047  4.69998023  1.63926956  -0.73394118878  -2.45442460095  0.13170872098
6
Lattice="3.149 0.0 0.0 0.0 5.45422799 0.0 0.0 0.0 3.48" Properties=species:S:1:pos:R:3:forces:R:3 energy=-12496.115574422338 stress="-0.00012583 0.00012878 -0.000162055 0.00012878 0.000277645 -0.00035189 -0.000162055 -0.00035189 0.000562885" pbc="T T T"
Hf  0.14451396  0.23047702  3.39688017  -3.8264320098  -8.19042378149  4.5473755124099995
Hf  1.5416119  2.74070527  3.46010242  0.35975879914000003  -0.19698665206000002  0.5168155020699999
B  1.4409551  0.74025004  1.82023955  3.1124827916099997  2.31111941605  -2.2555410282
B  3.01071258  1.5504244  1.8342321  0.94687246452  5.31678279331  -2.70112404739
B  0.01913363  3.62048054  1.79435129  -0.51096636332  -0.25093293737  -0.51760995652
B  1.58665311  4.43416619  1.69116174  -0.08171568215  1.01044116156  0.41008401762999996
6
Lattice="3.149 0.0 0.0 0.0 5.45422799 0.0 0.0 0.0 3.48" Properties=species:S:1:pos:R:3:forces:R:3 energy=-12497.78994406512 stress="-0.000213105 -2.362e-5 -3.3345e-5 -2.362e-5 -3.34e-5 -2.805e-5 -3.3345e-5 -2.805e-5 -3.844e-5" pbc="T T T"
Hf  0.0479167  5.38065205  0.01402852  -1.15940677014  -1.22565810075  -0.10930459128
Hf  1.62673695  2.49712594  0.06816532  -0.7519380245699999  2.64461751049  -0.60315444633
B  1.62656446  0.74302034  1.57978141  -0.18836026509999998  0.6674533215699999  2.43278304468
B  0.09113859  1.66597328  1.79053685  -0.9924319847299999  0.6681135672099999  -0.0851428918
B  2.99431612  3.60663229  1.89582039  1.61447953488  -1.24345902253  -1.22500556826
B  1.43303746  4.48611864  1.80212582  1.47765648124  -1.51106727599  -0.41017503279999995
6
Lattice="3.149 0.0 0.0 0.0 5.45422799 0.0 0.0 0.0 3.13896001" Properties=species:S:1:pos:R:3:forces:R:3 energy=-12498.161261386605 stress="8.0975e-5 0.0 0.0 0.0 0.000100355 0.0 0.0 0.0 0.001458105" pbc="T T T"
Hf  0.0  0.0  0.0  0.0  0.0  0.0
Hf  1.5745  2.727114  0.0  0.0  0.0  0.0
B  1.5745  0.909038  1.56948001  0.0  0.008895833  0.0
B  0.0  1.818076  1.56948001  0.0  -0.01009137125  -0.0
B  0.0  3.636152  1.56948001  0.0  0.01009137125  -0.0
B  1.5745  4.54518999  1.56948001  0.0  -0.008895833  -0.0
6
Lattice="3.149 0.0 0.0 0.0 5.45422799 0.0 0.0 0.0 3.48" Properties=species:S:1:pos:R:3:forces:R:3 energy=-12495.731162981909 stress="0.00028687 0.00015548 -0.00016463 0.00015548 0.000611015 3.907e-5 -0.00016463 3.907e-5 0.00011649" pbc="T T T"
Hf  0.0871712  0.01609667  3.32841082  -0.9647268641400001  0.13072555146  1.07579313888
Hf  1.69383755  2.70701989  3.37358425  -3.9668308797800003  1.4266201103199998  1.77307166887
B  1.53541922  0.99070063  1.73154453  1.01380820864  0.01776492708  -1.01005447564
B  3.02279987  2.04073958  1.58326095  2.0150321559499997  -8.94528303307  -0.28797662577
B  3.02588596  3.42172841  1.86714603  2.04811745577  10.53971814794  -1.56630525682
B  1.68714662  4.78256778  1.60645207  -0.14539956223  -3.16954518952  0.01547103627
6
Lattice="3.149 0.0 0.0 0.0 5.45422799 0.0 0.0 0.0 3.48" Properties=species:S:1:pos:R:3:forces:R:3 energy=-12495.625285111668 stress="0.000139995 7.739e-5 3.3745e-5 7.739e-5 0.00016238 0.000267455 3.3745e-5 0.000267455 0.000290815" pbc="T T T"
Hf  0.15296875  0.18975182  0.01647046  -0.9962803323699999  -0.37576924170000003  -0.8486403571700001
Hf  1.67474705  2.99108444  0.03455322  0.02244783755  -5.54906019188  -1.2809793835999999
B  1.65571876  0.75961011  1.60318076  0.68972067141  3.89530735404  1.7368224349199999
B  0.11868223  2.05699167  1.86101372  -0.09124450766  -2.5482468433400003  -1.04361747655
B  0.08083288  3.86396716  1.8813219  -0.46751510410999997  -2.98606580574  -0.99997338859
B  1.62417333  4.31388194  1.60677824  0.84287092097  7.56383472862  2.43638817099
6
Lattice="3.149 0.0 0.0 0.0 5.45422799 0.0 0.0 0.0 3.48" Properties=species:S:1:pos:R:3:forces:R:3 energy=-12496.503222112902 stress="-0.00011921 -6.0255e-5 2.7605e-5 -6.0255e-5 0.000203165 -0.000265425 2.7605e-5 -0.000265425 0.000455045" pbc="T T T"
Hf  0.01373106  5.2163309  0.05894647  -1.3989355581299998  7.72962837366  -2.87338131213
Hf  1.53964694  2.71863993  0.00818576  0.27537025341  1.03593106547  -0.46539038839
B  1.59629035  1.12772857  1.80161131  -1.06682171701  -2.72819360442  -0.66687483532
B  3.10681297  1.90690716  1.64602809  0.9912626711899999  0.12633831174  0.8299585936599999
B  0.04183188  3.8506579  1.65040419  -1.33311050761  -4.19260197922  2.19759573172
B  1.46357226  4.77452572  1.71335832  2.53223434394  -1.97110216723  0.97809221046
6
Lattice="3.149 0.0 0.0 0.0 5.45422799 0.0 0.0 0.0 3.48" Properties=species:S:1:pos:R:3:forces:R:3 energy=-12497.73041453231 stress="-0.00023937 -3.716e-5 -3.421e-5 -3.716e-5 3.064e-5 -0.000140875 -3.421e-5 -0.000140875 3.1595e-5" pbc="T T T"
Hf  3.0457987  5.40236714  3.43241025  1.8162853630599998  -0.21497320365  0.11832589151999999
Hf  1.56381318  2.53987196  0.12148538  0.04536514883  3.39811102031  -2.93940227666
B  1.56304494  0.97456431  1.69047228  -0.36908811117  -2.54404523343  1.18555691969
B  3.09392466  1.88099889  1.77771047  0.8335086995000001  -2.19853365076  0.34680379240000003
B  0.10000658  3.58255919  1.74418442  -0.96016325039  0.56906695122  0.17205620862999998
B  1.67963821  4.42319257  1.6234187  -1.36590733562  0.99037411631  1.11665895021
6
Lattice="3.01503 0.0 0.0 -0.35166322 4.85587768 0.0 -0.21524855 1.0063025 2.79668561" Properties=species:S:1:pos:R:3:forces:R:3 energy=-12479.688870777098 stress="0.004637915 0.0004627 0.00092867 0.0004627 0.006134245 -0.006673725 0.00092867 -0.006673725 0.011247015" pbc="T T T"
Hf  0.0  0.0  0.0  0.0  0.0  0.0
Hf  1.33168339  2.42793884  0.0  0.0  0.0  0.0
B  1.34128019  1.3124642  1.39834281  -0.50526017495  -3.49936051194  2.38813881827
B  -0.22484535  2.12177714  1.39834281  0.50523395024  3.4995651675199997  -2.38825657236
B  -0.34206642  3.74040304  1.39834281  -0.50523395024  -3.4995651675199997  2.38825657236
B  1.10683804  4.54971598  1.39834281  0.50526017495  3.49936051194  -2.38813881827
6
Lattice="3.149 0.0 0.0 0.0 5.45422799 0.0 0.0 0.0 3.48" Properties=species:S:1:pos:R:3:forces:R:3 energy=-12497.208362459216 stress="-2.8815e-5 -6.578e-5 -0.00015322 -6.578e-5 1.898e-5 0.00011676 -0.00015322 0.00011676 0.00016146" pbc="T T T"
Hf  3.00479911  0.11427124  0.14800378  3.40200616106  -3.278191592  -3.8677328427899997
Hf  1.53674789  2.60833898  3.40843823  1.09913004552  3.4515528656099996  1.36854626134
B  1.71184233  0.89181393  1.68292043  -2.78600777735  1.35036328153  1.7715526925299998
B  0.10576531  1.77159669  1.83591092  -1.1789920006199999  1.04383241633  -1.2770796149599999
B  0.0301808  3.6547343  1.65761625  -0.73640476889  -0.00476055618  0.67001614421
B  1.52118039  4.65038318  1.65900774  0.20026782607  -2.56279590108  1.3346978738800002
6
Lattice="3.149 0.0 0.0 0.0 5.45422799 0.0 0.0 0.0 3.26244982" Properties=species:S:1:pos:R:3:forces:R:3 energy=-12498.590088339719 stress="-9.244e-5 0.0 0.0 0.0 -8.549e-5 0.0 0.0 0.0 0.00076294" pbc="T T T"
Hf  0.0  0.0  0.0  0.0  0.0  0.0
Hf  1.5745  2.727114  0.0  0.0  0.0  0.0
B  1.5745  0.909038  1.63122491  0.0  -0.0007965112899999999  -0.0
B  0.0  1.818076  1.63122491  0.0  9.667148e-5  0.0
B  0.0  3.636152  1.63122491  0.0  -9.667148e-5  0.0
B  1.5745  4.54518999  1.63122491  0.0  0.0007965112899999999  0.0
6
Lattice="3.149 0.0 0.0 0.0 5.45422799 0.0 0.0 0.0 3.01325802" Properties=species:S:1:pos:R:3:forces:R:3 energy=-12497.417480872171 stress="0.00034187 0.0 0.0 0.0 0.000351275 0.0 0.0 0.0 0.002320985" pbc="T T T"
Hf  0.0  0.0  0.0  0.0  0.0  0.0
Hf  1.5745  2.727114  0.0  0.0  0.0  0.0
B  1.5745  0.909038  1.50662901  0.0  -0.01486838215  0.0
B  0.0  1.818076  1.50662901  0.0  0.01564843872  -0.0
B  0.0  3.636152  1.50662901  0.0  -0.01564843872  0.0
B  1.5745  4.54518999  1.50662901  0.0  0.01486838215  -0.0
6
Lattice="3.149 0.0 0.0 0.0 5.45422799 0.0 0.0 0.0 3.48" Properties=species:S:1:pos:R:3:forces:R:3 energy=-12497.379888070298 stress="-0.00016906 -2.326e-5 4.994e-5 -2.326e-5 0.000147835 -0.00012148 4.994e-5 -0.00012148 5.504e-5" pbc="T T T"
Hf  3.05428756  0.23242512  3.31479771  1.61082298757  -3.3095712572499996  2.60118167758
Hf  1.67915802  2.81503209  3.39557975  -1.60959813935  1.1484767223799999  1.5330836913499999
B  1.69791815  1.15784312  1.73317471  -1.63874407636  -2.1686909592  -1.28538410646
B  0.12668308  1.91888724  1.76106651  -0.76471922833  0.66351961507  -1.35672457344
B  3.09799637  3.62110234  1.70052123  0.58064284674  2.68589623245  -0.27293186959
B  1.4196435  4.5701227  1.78422113  1.82159560973  0.9803701607599999  -1.21922533365
6
Lattice="3.149 0.0 0.0 0.0 5.45422799 0.0 0.0 0.0 3.55473009" Properties=species:S:1:pos:R:3:forces:R:3 energy=-12498.674933169152 stress="-0.000377975 0.0 0.0 0.0 -0.0003652 0.0 0.0 0.0 -0.000526375" pbc="T T T"
Hf  0.0  0.0  0.0  0.0  0.0  0.0
Hf  1.5745  2.727114  0.0  0.0  0.0  0.0
B  1.5745  0.909038  1.77736505  0.0  0.0017020350999999998  -0.0
B  0.0  1.818076  1.77736505  0.0  -0.00088032752  0.0
B  0.0  3.636152  1.77736505  0.0  0.00088032752  0.0
B  1.5745  4.54518999  1.77736505  0.0  -0.0017020350999999998  -0.0
6
Lattice="3.149 0.0 0.0 0.0 5.45422799 0.0 0.0 0.0 3.04577311" Properties=species:S:1:pos:R:3:forces:R:3 energy=-12497.643066799592 stress="0.000273585 0.0 0.0 0.0 0.00028189 0.0 0.0 0.0 0.002061735" pbc="T T T"
Hf  0.0  0.0  0.0  0.0  0.0  0.0
Hf  1.5745  2.727114  0.0  0.0  0.0  0.0
B  1.5745  0.909038  1.52288656  0.0  -0.01835832542  0.0
B  0.0  1.818076  1.52288656  0.0  0.01876609395  0.0
B  0.0  3.636152  1.52288656  0.0  -0.01876609395  0.0
B  1.5745  4.54518999  1.52288656  0.0  0.01835832542  0.0
6
Lattice="3.149 0.0 0.0 0.0 5.45422799 0.0 0.0 0.0 3.48" Properties=species:S:1:pos:R:3:forces:R:3 energy=-12496.72372713033 stress="1.4845e-5 -9.0825e-5 5.545e-6 -9.0825e-5 0.000319125 0.000137565 5.545e-6 0.000137565 0.00012017" pbc="T T T"
Hf  0.10415461  0.15892264  0.08236034  -2.71600117111  -2.94611168874  -1.95549743636
Hf  1.57995866  2.81229071  0.14243903  0.12936186653999998  0.54464197622  -1.81468771259
B  1.48866962  0.97680821  1.72648838  3.0011650681799997  -0.02922358272  1.13040069825
B  0.01929242  1.59463742  1.68953193  -1.80190650883  5.85989705162  1.8159058760800002
B  0.037052  3.79023115  1.66705816  -0.9319629455699999  -0.32646678690000003  1.47361016275
B  1.44846124  4.76440816  1.86242684  2.31934369079  -3.10273696948  -0.64973158813
6
Lattice="3.649 0.0 0.0 -0.35166268 4.85587027 0.0 -0.28747917 -0.02081927 3.96954938" Properties=species:S:1:pos:R:3:forces:R:3 energy=-12494.125312969645 stress="-0.00168771 0.00036621 7.733e-5 0.00036621 0.00113143 5.811e-5 7.733e-5 5.811e-5 -0.00145892" pbc="T T T"
Hf  0.0  0.0  0.0  0.0  0.0  0.0
Hf  1.64866866  2.42793514  0.0  0.0  0.0  0.0
B  1.62214997  0.79890207  1.98477469  0.24684445366000002  0.56822673208  0.03356660038
B  -0.26096048  1.60821379  1.98477469  -0.24590242093999998  -0.58048395585  -0.03375480124
B  -0.37818137  3.22683721  1.98477469  0.24590242093999998  0.58048395585  0.03375480124
B  1.38770818  4.03614892  1.98477469  -0.24684445366000002  -0.56822673208  -0.03356660038
6
Lattice="3.649 0.0 0.0 -0.98433986 5.58246877 0.0 0.51747157 1.12618734 2.71004156" Properties=species:S:1:pos:R:3:forces:R:3 energy=-12484.460687453788 stress="0.00129219 -6.553e-5 -0.00123541 -6.553e-5 0.001277415 -0.00280764 -0.00123541 -0.00280764 0.00419672" pbc="T T T"
Hf  0.0  0.0  0.0  0.0  0.0  0.0
Hf  1.33233007  2.79123438  0.0  0.0  0.0  0.0
B  1.91917914  1.49350513  1.35502078  6.378830584679999  -3.18726743717  0.20930352419
B  -0.0693775  2.42391659  1.35502078  -6.3792532653  3.1867599119  -0.20914771856
B  -0.39749079  4.28473951  1.35502078  6.3792532653  -3.1867599119  0.20914771856
B  1.26295257  5.21515098  1.35502078  -6.378830584679999  3.18726743717  -0.20930352419
6
Lattice="3.149 0.0 0.0 0.0 5.45422799 0.0 0.0 0.0 3.48" Properties=species:S:1:pos:R:3:forces:R:3 energy=-12496.067731635585 stress="0.00023469 -9.145e-6 -1.3e-5 -9.145e-6 0.000189185 0.00019857 -1.3e-5 0.00019857 0.00012034" pbc="T T T"
Hf  3.11967853  0.07932847  0.1615277  -0.16065051662  -2.9536993715  -3.78078918757
Hf  1.64538282  2.7784738  3.42418915  -1.86909781532  -0.3808702049  1.7263346077600001
B  1.43527299  1.1257325  1.81648775  4.14952763594  -4.8315942915  -0.20540375555
B  3.14634068  1.59875993  1.64235558  -3.3366367006  6.0091197651999995  1.9227535719800002
B  3.08737227  3.42824391  1.84056799  1.32899888445  3.72703213154  -1.76840829838
B  1.55391277  4.5721124  1.59416074  -0.11214148784999999  -1.56998854305  2.10551254755
6
Lattice="3.149 0.0 0.0 0.0 5.45422799 0.0 0.0 0.0 3.48" Properties=species:S:1:pos:R:3:forces:R:3 energy=-12496.996929989997 stress="-3.749e-5 0.00013855 2.819e-5 0.00013855 0.00014374 0.000181945 2.819e-5 0.000181945 0.00011654" pbc="T T T"
Hf  2.99992824  5.38244938  3.4387749  2.78685725227  5.120143232999999  1.0974223541099999
Hf  1.56591784  2.9366586  0.14546014  0.49980543527  -3.77842330736  -1.53008790389
B  1.4896211  0.85886643  1.60555048  0.51134944977  2.58702496207  1.27950668616
B  0.1076435  1.96058732  1.87537402  -1.39163994665  -1.06436430742  -0.68310484555
B  0.06890358  3.8500103  1.75129281  -0.41994553701  -3.15647551395  0.33598429979
B  1.65888847  4.61735299  1.79644497  -1.9864266536500002  0.29209493366  -0.49972007641
6
Lattice="3.149 0.0 0.0 0.0 5.45422799 0.0 0.0 0.0 3.48" Properties=species:S:1:pos:R:3:forces:R:3 energy=-12497.013588256279 stress="-5.8215e-5 -3.5145e-5 0.000134525 -3.5145e-5 -3.9e-6 -0.00016706 0.000134525 -0.00016706 0.00025104" pbc="T T T"
Hf  3.10481249  0.0895659  3.3305279  1.41036901748  -5.13464652605  3.43036998466
Hf  1.58077666  2.68554864  3.42946469  -0.72018607128  -1.53244967042  -0.44402496289
B  1.64042587  0.64544229  1.86850147  -1.63069926091  2.6642505625  -3.28970732495
B  0.05084012  1.60803675  1.61633019  -0.6209106318400001  1.88048808103  0.36983937198
B  3.03012961  3.49262202  1.56672398  1.8360063449800001  0.20742511506  1.29468102326
B  1.52840454  4.31169458  1.80762599  -0.27457991264000003  1.91493295209  -1.36115860627
6
Lattice="3.149 0.0 0.0 0.0 5.45422799 0.0 0.0 0.0 3.48" Properties=species:S:1:pos:R:3:forces:R:3 energy=-12495.765746204492 stress="0.00020724 0.00014595 -3.0865e-5 0.00014595 0.00078711 0.000114885 -3.0865e-5 0.000114885 0.00010525" pbc="T T T"
Hf  0.0441357  5.30446001  3.43324315  -2.3448644473  3.13344301963  2.35454907844
Hf  1.48793393  2.63389019  3.39785684  1.12827341148  -0.10180432422  0.8896408915199999
B  1.51643573  0.68220734  1.71429066  1.08941713283  5.53947326064  -0.2625864786
B  0.01157637  1.58510219  1.71223593  -0.68681435649  1.47088330712  -0.1240428783
B  0.14433816  3.89704314  1.75941623  -5.3036442136  -6.859486325340001  -1.15076032899
B  1.42015189  4.62761687  1.87191206  6.11763195887  -3.18250945204  -1.70680028407
6
Lattice="3.149 0.0 0.0 0.0 5.45422799 0.0 0.0 0.0 3.87201189" Properties=species:S:1:pos:R:3:forces:R:3 energy=-12497.591330335617 stress="-0.000495785 0.0 0.0 0.0 -0.000487775 0.0 0.0 0.0 -0.001560485" pbc="T T T"
Hf  0.0  0.0  0.0  0.0  0.0  0.0
Hf  1.5745  2.727114  0.0  0.0  0.0  0.0
B  1.5745  0.909038  1.93600594  0.0  0.00042525167  -0.0
B  0.0  1.818076  1.93600594  0.0  -5.553468e-5  0.0
B  0.0  3.636152  1.93600594  0.0  5.553468e-5  0.0
B  1.5745  4.54518999  1.93600594  0.0  -0.00042525167  -0.0
6
Lattice="3.149 0.0 0.0 0.0 5.45422799 0.0 0.0 0.0 3.48" Properties=species:S:1:pos:R:3:forces:R:3 energy=-12494.913423280897 stress="0.000208925 0.00016368 4.0165e-5 0.00016368 0.001144095 -3.1775e-5 4.0165e-5 -3.1775e-5 -5.435e-6" pbc="T T T"
Hf  3.02099207  5.39669994  3.45282279  2.55535733922  1.84760023785  0.82133374933
Hf  1.5450818  2.92871969  0.04805269  -0.78748124819  -4.04731400056  0.31100912009
B  1.47470968  0.6422322  1.67822055  -0.8957656468299999  14.382867124839999  -0.05005731508
B  0.10589279  1.7425611  1.83831565  -1.58246687712  1.0944759308099998  -0.67214240256
B  3.0142975  3.50429185  1.82617528  1.21335356966  1.51740440003  -0.6507584655
B  1.65116772  4.79396674  1.76887429  -0.5029976509499999  -14.795033178759999  0.24061582793
6
Lattice="3.149 0.0 0.0 0.0 5.45422799 0.0 0.0 0.0 3.48" Properties=species:S:1:pos:R:3:forces:R:3 energy=-12495.866874055195 stress="0.000182875 -0.00013415 1.303e-5 -0.00013415 0.000208335 -3.677e-5 1.303e-5 -3.677e-5 0.00020269" pbc="T T T"
Hf  0.14395368  5.25872564  3.46225955  -3.1670630978500003  4.22554484287  0.18558558794
Hf  1.53469132  2.8178559  0.15177036  0.09986883778  -1.2699022717800001  -2.5501982702899997
B  1.65334695  1.17128161  1.58304624  -0.08958463778  -5.59415897993  2.02599871262
B  0.08844706  1.62093948  1.73016066  -0.7491787737100001  3.6156624729  0.5782959923000001
B  3.02295564  3.49597923  1.87429505  1.3549484921000001  1.8564317946  -0.8181466757500001
B  1.462932  4.69611483  1.70409019  2.5510096936699997  -2.83357888708  0.5784646531800001
6
Lattice="3.149 0.0 0.0 0.0 5.45422799 0.0 0.0 0.0 3.48" Properties=species:S:1:pos:R:3:forces:R:3 energy=-12495.522566211224 stress="5.6495e-5 7.3335e-5 -2.461e-5 7.3335e-5 0.00061821 0.00028193 -2.461e-5 0.00028193 0.00037994" pbc="T T T"
Hf  3.08500976  5.2089855  3.38746281  0.99948386067  9.868919890319999  4.34325676765
Hf  1.63062258  2.9961205  3.46001244  -0.9925651651199999  -6.09918930301  1.13233412785
B  1.69148394  1.04483942  1.70673501  -0.57546115257  -0.9619881816799999  0.05337191274
B  0.1228764  1.71187404  1.59883325  -0.7567587433199999  2.11052506663  0.8006517089199999
B  3.12278254  3.80033961  1.88280433  0.5355198908200001  -3.0090088275199998  -4.00879452946
B  1.49987697  4.75351929  1.82627839  0.78978079531  -1.90925915895  -2.32082050191
6
Lattice="2.649 0.0 0.0 -0.35166268 4.85587027 0.0 -0.69111975 1.31475416 3.69244837" Properties=species:S:1:pos:R:3:forces:R:3 energy=-12487.427876031934 stress="0.00434802 0.00080206 0.001238725 0.00080206 0.00318934 -0.00240847 0.001238725 -0.00240847 0.004207915" pbc="T T T"
Hf  0.0  0.0  0.0  0.0  0.0  0.0
Hf  1.14866866  2.42793514  0.0  0.0  0.0  0.0
B  0.92032968  1.46668879  1.84622419  -2.83278289  -2.15662502155  0.22637529619
B  -0.46278077  2.2760005  1.84622419  2.8431467925500002  2.16514033915  -0.22601174972000002
B  -0.58000166  3.89462393  1.84622419  -2.8431467925500002  -2.16514033915  0.22601174972000002
B  0.68588789  4.70393564  1.84622419  2.83278289  2.15662502155  -0.22637529619
6
Lattice="3.149 0.0 0.0 0.0 5.45422799 0.0 0.0 0.0 3.48" Properties=species:S:1:pos:R:3:forces:R:3 energy=-12494.224535751215 stress="0.00046844 0.000127485 5.0025e-5 0.000127485 0.000973145 0.00035378 5.0025e-5 0.00035378 0.000443215" pbc="T T T"
Hf  0.05355705  5.26155526  0.12839947  -0.15875462434999998  4.03561983674  -1.8373905983
Hf  1.54899251  2.96648162  0.09747561  1.56377071573  -9.020606570710001  -3.95254304072
B  1.70943099  1.1716585  1.6098133  -6.81076235679  -5.1942717466  0.7323939308899999
B  3.04998758  1.66132379  1.70393917  7.07725374613  3.63821160982  0.94531955032
B  0.08413128  3.42729608  1.87344236  -1.2834974699700001  2.1973118878  -1.04942445008
B  1.66647735  4.2810827  1.58430925  -0.38800949654  4.34373549716  5.1616451221
6
Lattice="3.149 0.0 0.0 0.0 5.45422799 0.0 0.0 0.0 3.48" Properties=species:S:1:pos:R:3:forces:R:3 energy=-12495.52407018453 stress="0.00012451 0.000103515 0.00030447 0.000103515 0.00058145 0.00021327 0.00030447 0.00021327 0.00044794" pbc="T T T"
Hf  2.99579064  5.18599045  3.31206767  3.47589351017  6.44283584601  1.9876494450299997
Hf  1.72541021  2.8735144  0.07583979  -3.91377829145  -7.221874280210001  -3.6078305403899997
B  1.63765188  0.8204979  1.7451452  -0.85931021467  1.66121865283  -0.79988090813