81
Lattice="8.59965 0.0 0.0 -4.299825 7.44751536 0.0 0.0 0.0 8.93999943" Properties=species:S:1:pos:R:3:forces:R:3 energy=-168667.9504370031 stress="0.004107635 -0.0 0.0 -0.0 0.004107635 0.0 0.0 0.0 0.00506561" pbc="T T T"
Hf  0.0  0.0  0.0  0.0  0.0  -0.0
B  0.0  1.65500341  1.4899999  0.0  -0.00016557562000000002  -0.00021905345999999998
B  1.433275  0.82750171  1.4899999  -0.00014346459  -8.278781000000001e-5  -0.00021905345999999998
Hf  2.86655  0.0  0.0  0.0017791666  0.0  -0.0
B  2.86655  1.65500341  1.4899999  -4.833574e-5  -2.776734e-5  -0.0002262524
B  4.299825  0.82750171  1.4899999  0.0  -0.00011055515000000001  -0.00016197615
Hf  5.7331  0.0  0.0  -0.0017791666  -0.0  0.0
B  5.7331  1.65500341  1.4899999  4.833574e-5  -2.776734e-5  -0.0002262524
B  7.166375  0.82750171  1.4899999  0.00014346459  -8.278781000000001e-5  -0.00021905345999999998
Hf  -1.433275  2.48250512  0.0  -0.0008900975099999999  0.00154108737  0.0
B  -1.433275  4.13750854  1.4899999  -9.564306e-5  -5.553468e-5  -0.00016197615
B  0.0  3.31000683  1.4899999  0.0  -5.553468e-5  -0.0002262524
Hf  1.433275  2.48250512  0.0  0.0008900975099999999  0.00154108737  0.0
B  1.433275  4.13750854  1.4899999  9.564306e-5  -5.553468e-5  -0.00016197615
B  2.86655  3.31000683  1.4899999  -9.564306e-5  5.553468e-5  -0.00016197615
Hf  4.299825  2.48250512  0.0  -0.0  -0.0  -0.0
B  4.299825  4.13750854  1.4899999  -0.0  5.553468e-5  -0.0002262524
B  5.7331  3.31000683  1.4899999  9.564306e-5  5.553468e-5  -0.00016197615
Hf  -2.86655  4.96501024  0.0  0.0008900975099999999  -0.00154108737  0.0
B  -2.86655  6.62001366  1.4899999  -0.00014346459  8.278781000000001e-5  -0.00021905345999999998
B  -1.433275  5.79251195  1.4899999  -4.833574e-5  2.776734e-5  -0.0002262524
Hf  -0.0  4.96501024  0.0  0.0  0.0  0.0
B  -0.0  6.62001366  1.4899999  0.0  0.00011055515000000001  -0.00016197615
B  1.433275  5.79251195  1.4899999  4.833574e-5  2.776734e-5  -0.0002262524
Hf  2.86655  4.96501024  0.0  -0.0008900975099999999  -0.00154108737  -0.0
B  2.86655  6.62001366  1.4899999  0.00014346459  8.278781000000001e-5  -0.00021905345999999998
B  4.299825  5.79251195  1.4899999  0.0  0.00016557562000000002  -0.00021905345999999998
Hf  0.0  0.0  2.97999981  0.0  0.0  -0.0006581887999999999
B  0.0  1.65500341  4.46999971  -0.0  -0.000154263  0.0
B  1.433275  0.82750171  4.46999971  -0.0001336946  -7.71315e-5  0.0
Hf  2.86655  0.0  2.97999981  -0.0002776734  -0.0  0.00027664498000000003
B  2.86655  1.65500341  4.46999971  2.0568399999999998e-5  1.182683e-5  0.0
B  4.299825  0.82750171  4.46999971  -0.0  -0.00015169195  -0.0
Hf  5.7331  0.0  2.97999981  0.0002776734  -0.0  0.00027664498000000003
B  5.7331  1.65500341  4.46999971  -2.0568399999999998e-5  1.182683e-5  0.0
B  7.166375  0.82750171  4.46999971  0.0001336946  -7.71315e-5  0.0
Hf  -1.433275  2.48250512  2.97999981  0.0001388367  -0.00024065028000000001  0.00027664498000000003
B  -1.433275  4.13750854  4.46999971  -0.00013112355  -7.558886999999999e-5  0.0
B  0.0  3.31000683  4.46999971  -0.0  2.365366e-5  0.0
Hf  1.433275  2.48250512  2.97999981  -0.0001388367  -0.00024065028000000001  0.00027664498000000003
B  1.433275  4.13750854  4.46999971  0.00013112355  -7.558886999999999e-5  -0.0
B  2.86655  3.31000683  4.46999971  -0.00013112355  7.558886999999999e-5  0.0
Hf  4.299825  2.48250512  2.97999981  -0.0  -0.0  0.00159559363
B  4.299825  4.13750854  4.46999971  0.0  -2.365366e-5  -0.0
B  5.7331  3.31000683  4.46999971  0.00013112355  7.558886999999999e-5  0.0
Hf  -2.86655  4.96501024  2.97999981  -0.0001388367  0.00024065028000000001  0.00027664498000000003
B  -2.86655  6.62001366  4.46999971  -0.0001336946  7.71315e-5  -0.0
B  -1.433275  5.79251195  4.46999971  2.0568399999999998e-5  -1.182683e-5  -0.0
Hf  -0.0  4.96501024  2.97999981  -0.0  0.0  0.00159559363
B  -0.0  6.62001366  4.46999971  0.0  0.00015169195  -0.0
B  1.433275  5.79251195  4.46999971  -2.0568399999999998e-5  -1.182683e-5  0.0
Hf  2.86655  4.96501024  2.97999981  0.0001388367  0.00024065028000000001  0.00027664498000000003
B  2.86655  6.62001366  4.46999971  0.0001336946  7.71315e-5  -0.0
B  4.299825  5.79251195  4.46999971  0.0  0.000154263  -0.0
Hf  0.0  0.0  5.95999962  -0.0  -0.0  0.0006581887999999999
B  0.0  1.65500341  7.44999952  0.0  -0.00016557562000000002  0.00021905345999999998
B  1.433275  0.82750171  7.44999952  -0.00014346459  -8.278781000000001e-5  0.00021905345999999998
Hf  2.86655  0.0  5.95999962  -0.0002776734  0.0  -0.00027664498000000003
B  2.86655  1.65500341  7.44999952  -4.833574e-5  -2.776734e-5  0.0002262524
B  4.299825  0.82750171  7.44999952  0.0  -0.00011055515000000001  0.00016197615
Hf  5.7331  0.0  5.95999962  0.0002776734  0.0  -0.00027664498000000003
B  5.7331  1.65500341  7.44999952  4.833574e-5  -2.776734e-5  0.0002262524
B  7.166375  0.82750171  7.44999952  0.00014346459  -8.278781000000001e-5  0.00021905345999999998
Hf  -1.433275  2.48250512  5.95999962  0.0001388367  -0.00024065028000000001  -0.00027664498000000003
B  -1.433275  4.13750854  7.44999952  -9.564306e-5  -5.553468e-5  0.00016197615
B  0.0  3.31000683  7.44999952  0.0  -5.553468e-5  0.0002262524
Hf  1.433275  2.48250512  5.95999962  -0.0001388367  -0.00024065028000000001  -0.00027664498000000003
B  1.433275  4.13750854  7.44999952  9.564306e-5  -5.553468e-5  0.00016197615
B  2.86655  3.31000683  7.44999952  -9.564306e-5  5.553468e-5  0.00016197615
Hf  4.299825  2.48250512  5.95999962  0.0  -0.0  -0.00159559363
B  4.299825  4.13750854  7.44999952  0.0  5.553468e-5  0.0002262524
B  5.7331  3.31000683  7.44999952  9.564306e-5  5.553468e-5  0.00016197615
Hf  -2.86655  4.96501024  5.95999962  -0.0001388367  0.00024065028000000001  -0.00027664498000000003
B  -2.86655  6.62001366  7.44999952  -0.00014346459  8.278781000000001e-5  0.00021905345999999998
B  -1.433275  5.79251195  7.44999952  -4.833574e-5  2.776734e-5  0.0002262524
Hf  -0.0  4.96501024  5.95999962  0.0  0.0  -0.00159559363
B  -0.0  6.62001366  7.44999952  -0.0  0.00011055515000000001  0.00016197615
B  1.433275  5.79251195  7.44999952  4.833574e-5  2.776734e-5  0.0002262524
Hf  2.86655  4.96501024  5.95999962  0.0001388367  0.00024065028000000001  -0.00027664498000000003
B  2.86655  6.62001366  7.44999952  0.00014346459  8.278781000000001e-5  0.00021905345999999998
B  4.299825  5.79251195  7.44999952  -0.0  0.00016557562000000002  0.00021905345999999998
81
Lattice="10.947 0.0 0.0 -5.4735 9.4803801 0.0 0.0 0.0 11.94" Properties=species:S:1:pos:R:3:forces:R:3 energy=-168639.26251983742 stress="-0.001668575 -0.0 -0.0 -0.0 -0.001668575 0.0 -0.0 0.0 -0.001379195" pbc="T T T"
Hf  0.0  0.0  0.0  0.0  0.0  -0.0
B  0.0  2.10675113  1.99  -0.0  -0.00022213872  -1.131262e-5
B  1.8245  1.05337557  1.99  -0.00019180032999999998  -0.00011106936  -1.131262e-5
Hf  3.649  0.0  0.0  -0.00226355242  0.0  0.0
B  3.649  2.10675113  1.99  3.59947e-6  2.05684e-6  1.0284199999999999e-5
B  5.4735  1.05337557  1.99  -0.0  3.907996e-5  7.19894e-6
Hf  7.298  0.0  0.0  0.00226355242  0.0  -0.0
B  7.298  2.10675113  1.99  -3.59947e-6  2.05684e-6  1.0284199999999999e-5
B  9.1225  1.05337557  1.99  0.00019180032999999998  -0.00011106936  -1.131262e-5
Hf  -1.8245  3.1601267  0.0  0.00113177621  -0.00196016852  0.0
B  -1.8245  5.26687783  1.99  3.393786e-5  1.953998e-5  7.19894e-6
B  0.0  4.21350226  1.99  0.0  4.6278899999999995e-6  1.0284199999999999e-5
Hf  1.8245  3.1601267  0.0  -0.00113177621  -0.00196016852  0.0
B  1.8245  5.26687783  1.99  -3.393786e-5  1.953998e-5  7.19894e-6
B  3.649  4.21350226  1.99  3.393786e-5  -1.953998e-5  7.19894e-6
Hf  5.4735  3.1601267  0.0  -0.0  0.0  0.0
B  5.4735  5.26687783  1.99  -0.0  -4.6278899999999995e-6  1.0284199999999999e-5
B  7.298  4.21350226  1.99  -3.393786e-5  -1.953998e-5  7.19894e-6
Hf  -3.649  6.3202534  0.0  -0.00113177621  0.00196016852  -0.0
B  -3.649  8.42700453  1.99  -0.00019180032999999998  0.00011106936  -1.131262e-5
B  -1.8245  7.37362896  1.99  3.59947e-6  -2.05684e-6  1.0284199999999999e-5
Hf  -0.0  6.3202534  0.0  -0.0  -0.0  -0.0
B  -0.0  8.42700453  1.99  -0.0  -3.907996e-5  7.19894e-6
B  1.8245  7.37362896  1.99  -3.59947e-6  -2.05684e-6  1.0284199999999999e-5
Hf  3.649  6.3202534  0.0  0.00113177621  0.00196016852  -0.0
B  3.649  8.42700453  1.99  0.00019180032999999998  0.00011106936  -1.131262e-5
B  5.4735  7.37362896  1.99  -0.0  0.00022213872  -1.131262e-5
Hf  0.0  0.0  3.98  0.0  -0.0  0.00345343436
B  0.0  2.10675113  5.97  -0.0  -1.696893e-5  -0.0
B  1.8245  1.05337557  5.97  -1.439788e-5  -8.22736e-6  0.0
Hf  3.649  0.0  3.98  0.00044016376  -0.0  0.00286620654
B  3.649  2.10675113  5.97  -5.502047e-5  -3.1881019999999997e-5  0.0
B  5.4735  1.05337557  5.97  0.0  -0.00020465558  0.0
Hf  7.298  0.0  3.98  -0.00044016376  0.0  0.00286620654
B  7.298  2.10675113  5.97  5.502047e-5  -3.1881019999999997e-5  0.0
B  9.1225  1.05337557  5.97  1.439788e-5  -8.22736e-6  -0.0
Hf  -1.8245  3.1601267  3.98  -0.00022008188  0.00038154382  0.00286620654
B  -1.8245  5.26687783  5.97  -0.00017740245  -0.00010232779  -0.0
B  0.0  4.21350226  5.97  0.0  -6.376203999999999e-5  -0.0
Hf  1.8245  3.1601267  3.98  0.00022008188  0.00038154382  0.00286620654
B  1.8245  5.26687783  5.97  0.00017740245  -0.00010232779  0.0
B  3.649  4.21350226  5.97  -0.00017740245  0.00010232779  0.0
Hf  5.4735  3.1601267  3.98  -0.0  -0.0  0.00292996858
B  5.4735  5.26687783  5.97  -0.0  6.376203999999999e-5  -0.0
B  7.298  4.21350226  5.97  0.00017740245  0.00010232779  0.0
Hf  -3.649  6.3202534  3.98  0.00022008188  -0.00038154382  0.00286620654
B  -3.649  8.42700453  5.97  -1.439788e-5  8.22736e-6  0.0
B  -1.8245  7.37362896  5.97  -5.502047e-5  3.1881019999999997e-5  -0.0
Hf  -0.0  6.3202534  3.98  -0.0  0.0  0.00292996858
B  -0.0  8.42700453  5.97  0.0  0.00020465558  -0.0
B  1.8245  7.37362896  5.97  5.502047e-5  3.1881019999999997e-5  0.0
Hf  3.649  6.3202534  3.98  -0.00022008188  -0.00038154382  0.00286620654
B  3.649  8.42700453  5.97  1.439788e-5  8.22736e-6  -0.0
B  5.4735  7.37362896  5.97  -0.0  1.696893e-5  0.0
Hf  0.0  0.0  7.96  0.0  -0.0  -0.00345343436
B  0.0  2.10675113  9.95  -0.0  -0.00022213872  1.131262e-5
B  1.8245  1.05337557  9.95  -0.00019180032999999998  -0.00011106936  1.131262e-5
Hf  3.649  0.0  7.96  0.00044016376  -0.0  -0.00286620654
B  3.649  2.10675113  9.95  3.59947e-6  2.05684e-6  -1.0284199999999999e-5
B  5.4735  1.05337557  9.95  0.0  3.907996e-5  -7.19894e-6
Hf  7.298  0.0  7.96  -0.00044016376  0.0  -0.00286620654
B  7.298  2.10675113  9.95  -3.59947e-6  2.05684e-6  -1.0284199999999999e-5
B  9.1225  1.05337557  9.95  0.00019180032999999998  -0.00011106936  1.131262e-5
Hf  -1.8245  3.1601267  7.96  -0.00022008188  0.00038154382  -0.00286620654
B  -1.8245  5.26687783  9.95  3.393786e-5  1.953998e-5  -7.19894e-6
B  0.0  4.21350226  9.95  0.0  4.6278899999999995e-6  -1.0284199999999999e-5
Hf  1.8245  3.1601267  7.96  0.00022008188  0.00038154382  -0.00286620654
B  1.8245  5.26687783  9.95  -3.393786e-5  1.953998e-5  -7.19894e-6
B  3.649  4.21350226  9.95  3.393786e-5  -1.953998e-5  -7.19894e-6
Hf  5.4735  3.1601267  7.96  0.0  -0.0  -0.00292996858
B  5.4735  5.26687783  9.95  -0.0  -4.6278899999999995e-6  -1.0284199999999999e-5
B  7.298  4.21350226  9.95  -3.393786e-5  -1.953998e-5  -7.19894e-6
Hf  -3.649  6.3202534  7.96  0.00022008188  -0.00038154382  -0.00286620654
B  -3.649  8.42700453  9.95  -0.00019180032999999998  0.00011106936  1.131262e-5
B  -1.8245  7.37362896  9.95  3.59947e-6  -2.05684e-6  -1.0284199999999999e-5
Hf  -0.0  6.3202534  7.96  0.0  0.0  -0.00292996858
B  -0.0  8.42700453  9.95  0.0  -3.907996e-5  -7.19894e-6
B  1.8245  7.37362896  9.95  -3.59947e-6  -2.05684e-6  -1.0284199999999999e-5
Hf  3.649  6.3202534  7.96  -0.00022008188  -0.00038154382  -0.00286620654
B  3.649  8.42700453  9.95  0.00019180032999999998  0.00011106936  1.131262e-5
B  5.4735  7.37362896  9.95  0.0  0.00022213872  1.131262e-5
81
Lattice="7.947 0.0 0.0 -3.9735 6.88230388 0.0 0.0 0.0 11.84022594" Properties=species:S:1:pos:R:3:forces:R:3 energy=-168644.70052512194 stress="0.00452513 -0.0 0.0 -0.0 0.00452513 0.0 0.0 0.0 -0.001437935" pbc="T T T"
Hf  0.0  0.0  0.0  -0.0  -0.0  -0.0
B  -0.0  1.52940086  1.97337099  -0.0  -0.00061499516  -0.0003445207
B  1.3245  0.76470043  1.97337099  -0.0005322073499999999  -0.00030749758  -0.0003445207
Hf  2.649  0.0  0.0  -0.00682665196  -0.0  -0.0
B  2.649  1.52940086  1.97337099  -8.638728e-5  -4.987837e-5  -4.782153e-5
B  3.9735  0.76470043  1.97337099  0.0  6.221941e-5  8.895833e-5
Hf  5.298  0.0  0.0  0.00682665196  0.0  0.0
B  5.298  1.52940086  1.97337099  8.638728e-5  -4.987837e-5  -4.782153e-5
B  6.6225  0.76470043  1.97337099  0.0005322073499999999  -0.00030749758  -0.0003445207
Hf  -1.3245  2.29410129  0.0  0.00341332598  -0.00591238658  0.0
B  -1.3245  3.82350216  1.97337099  5.347784e-5  3.136681e-5  8.895833e-5
B  -0.0  3.05880173  1.97337099  -0.0  -9.975674e-5  -4.782153e-5
Hf  1.3245  2.29410129  0.0  -0.00341332598  -0.00591238658  0.0
B  1.3245  3.82350216  1.97337099  -5.347784e-5  3.136681e-5  8.895833e-5
B  2.649  3.05880173  1.97337099  5.347784e-5  -3.136681e-5  8.895833e-5
Hf  3.9735  2.29410129  0.0  -0.0  -0.0  0.0
B  3.9735  3.82350216  1.97337099  0.0  9.975674e-5  -4.782153e-5
B  5.298  3.05880173  1.97337099  -5.347784e-5  -3.136681e-5  8.895833e-5
Hf  -2.649  4.58820259  0.0  -0.00341332598  0.00591238658  0.0
B  -2.649  6.11760345  1.97337099  -0.0005322073499999999  0.00030749758  -0.0003445207
B  -1.3245  5.35290302  1.97337099  -8.638728e-5  4.987837e-5  -4.782153e-5
Hf  -0.0  4.58820259  0.0  0.0  0.0  0.0
B  -0.0  6.11760345  1.97337099  0.0  -6.221941e-5  8.895833e-5
B  1.3245  5.35290302  1.97337099  8.638728e-5  4.987837e-5  -4.782153e-5
Hf  2.649  4.58820259  0.0  0.00341332598  0.00591238658  0.0
B  2.649  6.11760345  1.97337099  0.0005322073499999999  0.00030749758  -0.0003445207
B  3.9735  5.35290302  1.97337099  -0.0  0.00061499516  -0.0003445207
Hf  0.0  0.0  3.94674198  0.0  0.0  -0.011758440069999999
B  -0.0  1.52940086  5.92011297  0.0  -8.998675e-5  0.0
B  1.3245  0.76470043  5.92011297  -7.764571e-5  -4.473627e-5  0.0
Hf  2.649  0.0  3.94674198  0.007851986699999999  0.0  -0.00406020216
B  2.649  1.52940086  5.92011297  0.00019180032999999998  0.00011106936  0.0
B  3.9735  0.76470043  5.92011297  0.0  8.638728e-5  0.0
Hf  5.298  0.0  3.94674198  -0.007851986699999999  0.0  -0.00406020216
B  5.298  1.52940086  5.92011297  -0.00019180032999999998  0.00011106936  -0.0
B  6.6225  0.76470043  5.92011297  7.764571e-5  -4.473627e-5  -0.0
Hf  -1.3245  2.29410129  3.94674198  -0.0039259933499999995  0.006799913039999999  -0.00406020216
B  -1.3245  3.82350216  5.92011297  7.507466e-5  4.319364e-5  -0.0
B  -0.0  3.05880173  5.92011297  0.0  0.00022162451  -0.0
Hf  1.3245  2.29410129  3.94674198  0.0039259933499999995  0.006799913039999999  -0.00406020216
B  1.3245  3.82350216  5.92011297  -7.507466e-5  4.319364e-5  -0.0
B  2.649  3.05880173  5.92011297  7.507466e-5  -4.319364e-5  0.0
Hf  3.9735  2.29410129  3.94674198  -0.0  0.0  -0.00152566107
B  3.9735  3.82350216  5.92011297  0.0  -0.00022162451  0.0
B  5.298  3.05880173  5.92011297  -7.507466e-5  -4.319364e-5  0.0
Hf  -2.649  4.58820259  3.94674198  0.0039259933499999995  -0.006799913039999999  -0.00406020216
B  -2.649  6.11760345  5.92011297  -7.764571e-5  4.473627e-5  0.0
B  -1.3245  5.35290302  5.92011297  0.00019180032999999998  -0.00011106936  0.0
Hf  -0.0  4.58820259  3.94674198  0.0  0.0  -0.00152566107
B  -0.0  6.11760345  5.92011297  -0.0  -8.638728e-5  -0.0
B  1.3245  5.35290302  5.92011297  -0.00019180032999999998  -0.00011106936  -0.0
Hf  2.649  4.58820259  3.94674198  -0.0039259933499999995  -0.006799913039999999  -0.00406020216
B  2.649  6.11760345  5.92011297  7.764571e-5  4.473627e-5  -0.0
B  3.9735  5.35290302  5.92011297  0.0  8.998675e-5  -0.0
Hf  0.0  0.0  7.89348396  0.0  0.0  0.011758440069999999
B  -0.0  1.52940086  9.86685495  -0.0  -0.00061499516  0.0003445207
B  1.3245  0.76470043  9.86685495  -0.0005322073499999999  -0.00030749758  0.0003445207
Hf  2.649  0.0  7.89348396  0.007851986699999999  0.0  0.00406020216
B  2.649  1.52940086  9.86685495  -8.638728e-5  -4.987837e-5  4.782153e-5
B  3.9735  0.76470043  9.86685495  -0.0  6.221941e-5  -8.895833e-5
Hf  5.298  0.0  7.89348396  -0.007851986699999999  0.0  0.00406020216
B  5.298  1.52940086  9.86685495  8.638728e-5  -4.987837e-5  4.782153e-5
B  6.6225  0.76470043  9.86685495  0.0005322073499999999  -0.00030749758  0.0003445207
Hf  -1.3245  2.29410129  7.89348396  -0.0039259933499999995  0.006799913039999999  0.00406020216
B  -1.3245  3.82350216  9.86685495  5.347784e-5  3.136681e-5  -8.895833e-5
B  -0.0  3.05880173  9.86685495  0.0  -9.975674e-5  4.782153e-5
Hf  1.3245  2.29410129  7.89348396  0.0039259933499999995  0.006799913039999999  0.00406020216
B  1.3245  3.82350216  9.86685495  -5.347784e-5  3.136681e-5  -8.895833e-5
B  2.649  3.05880173  9.86685495  5.347784e-5  -3.136681e-5  -8.895833e-5
Hf  3.9735  2.29410129  7.89348396  -0.0  0.0  0.00152566107
B  3.9735  3.82350216  9.86685495  -0.0  9.975674e-5  4.782153e-5
B  5.298  3.05880173  9.86685495  -5.347784e-5  -3.136681e-5  -8.895833e-5
Hf  -2.649  4.58820259  7.89348396  0.0039259933499999995  -0.006799913039999999  0.00406020216
B  -2.649  6.11760345  9.86685495  -0.0005322073499999999  0.00030749758  0.0003445207
B  -1.3245  5.35290302  9.86685495  -8.638728e-5  4.987837e-5  4.782153e-5
Hf  -0.0  4.58820259  7.89348396  0.0  0.0  0.00152566107
B  -0.0  6.11760345  9.86685495  0.0  -6.221941e-5  -8.895833e-5
B  1.3245  5.35290302  9.86685495  8.638728e-5  4.987837e-5  4.782153e-5
Hf  2.649  4.58820259  7.89348396  -0.0039259933499999995  -0.006799913039999999  0.00406020216
B  2.649  6.11760345  9.86685495  0.0005322073499999999  0.00030749758  0.0003445207
B  3.9735  5.35290302  9.86685495  -0.0  0.00061499516  0.0003445207
81
Lattice="10.947 0.0 0.0 -5.4735 9.4803801 0.0 0.0 0.0 8.94" Properties=species:S:1:pos:R:3:forces:R:3 energy=-168669.7908910682 stress="-0.0018328 0.0 0.0 0.0 -0.0018328 0.0 0.0 0.0 0.00074965" pbc="T T T"
Hf  0.0  0.0  0.0  0.0  0.0  -0.0
B  0.0  2.10675113  1.49  0.0  0.00020465558  3.650891e-5
B  1.8245  1.05337557  1.49  0.00017740245  0.00010232779  3.650891e-5
Hf  3.649  0.0  0.0  -0.0009533453399999999  -0.0  0.0
B  3.649  2.10675113  1.49  -0.00012392460999999998  -7.147519e-5  5.502047e-5
B  5.4735  1.05337557  1.49  0.0  -0.00011158356999999999  7.353203e-5
Hf  7.298  0.0  0.0  0.0009533453399999999  0.0  0.0
B  7.298  2.10675113  1.49  0.00012392460999999998  -7.147519e-5  5.502047e-5
B  9.1225  1.05337557  1.49  -0.00017740245  0.00010232779  3.650891e-5
Hf  -1.8245  3.1601267  0.0  0.00047667266999999996  -0.00082582126  -0.0
B  -1.8245  5.26687783  1.49  -9.667148e-5  -5.553468e-5  7.353203e-5
B  0.0  4.21350226  1.49  0.0  -0.00014346459  5.502047e-5
Hf  1.8245  3.1601267  0.0  -0.00047667266999999996  -0.00082582126  0.0
B  1.8245  5.26687783  1.49  9.667148e-5  -5.553468e-5  7.353203e-5
B  3.649  4.21350226  1.49  -9.667148e-5  5.553468e-5  7.353203e-5
Hf  5.4735  3.1601267  0.0  -0.0  -0.0  0.0
B  5.4735  5.26687783  1.49  0.0  0.00014346459  5.502047e-5
B  7.298  4.21350226  1.49  9.667148e-5  5.553468e-5  7.353203e-5
Hf  -3.649  6.3202534  0.0  -0.00047667266999999996  0.00082582126  0.0
B  -3.649  8.42700453  1.49  0.00017740245  -0.00010232779  3.650891e-5
B  -1.8245  7.37362896  1.49  -0.00012392460999999998  7.147519e-5  5.502047e-5
Hf  -0.0  6.3202534  0.0  -0.0  -0.0  -0.0
B  -0.0  8.42700453  1.49  0.0  0.00011158356999999999  7.353203e-5
B  1.8245  7.37362896  1.49  0.00012392460999999998  7.147519e-5  5.502047e-5
Hf  3.649  6.3202534  0.0  0.00047667266999999996  0.00082582126  -0.0
B  3.649  8.42700453  1.49  -0.00017740245  -0.00010232779  3.650891e-5
B  5.4735  7.37362896  1.49  -0.0  -0.00020465558  3.650891e-5
Hf  0.0  0.0  2.98  0.0  0.0  -0.0005496904899999999
B  0.0  2.10675113  4.47  0.0  9.255779999999999e-5  -0.0
B  1.8245  1.05337557  4.47  7.970255e-5  4.6278899999999995e-5  -0.0
Hf  3.649  0.0  2.98  0.00073172083  -0.0  -0.0005219231499999999
B  3.649  2.10675113  4.47  -0.00021391136  -0.0001234104  -0.0
B  5.4735  1.05337557  4.47  -0.0  -0.0003033839  -0.0
Hf  7.298  0.0  2.98  -0.00073172083  0.0  -0.0005219231499999999
B  7.298  2.10675113  4.47  0.00021391136  -0.0001234104  -0.0
B  9.1225  1.05337557  4.47  -7.970255e-5  4.6278899999999995e-5  -0.0
Hf  -1.8245  3.1601267  2.98  -0.00036560331  0.00063350672  -0.0005219231499999999
B  -1.8245  5.26687783  4.47  -0.00026276131  -0.00015169195  -0.0
B  0.0  4.21350226  4.47  0.0  -0.00024733500999999996  0.0
Hf  1.8245  3.1601267  2.98  0.00036560331  0.00063350672  -0.0005219231499999999
B  1.8245  5.26687783  4.47  0.00026276131  -0.00015169195  0.0
B  3.649  4.21350226  4.47  -0.00026276131  0.00015169195  -0.0
Hf  5.4735  3.1601267  2.98  0.0  0.0  -0.0008289065200000001
B  5.4735  5.26687783  4.47  0.0  0.00024733500999999996  -0.0
B  7.298  4.21350226  4.47  0.00026276131  0.00015169195  0.0
Hf  -3.649  6.3202534  2.98  0.00036560331  -0.00063350672  -0.0005219231499999999
B  -3.649  8.42700453  4.47  7.970255e-5  -4.6278899999999995e-5  -0.0
B  -1.8245  7.37362896  4.47  -0.00021391136  0.0001234104  0.0
Hf  -0.0  6.3202534  2.98  -0.0  -0.0  -0.0008289065200000001
B  -0.0  8.42700453  4.47  0.0  0.0003033839  -0.0
B  1.8245  7.37362896  4.47  0.00021391136  0.0001234104  0.0
Hf  3.649  6.3202534  2.98  -0.00036560331  -0.00063350672  -0.0005219231499999999
B  3.649  8.42700453  4.47  -7.970255e-5  -4.6278899999999995e-5  0.0
B  5.4735  7.37362896  4.47  -0.0  -9.255779999999999e-5  0.0
Hf  0.0  0.0  5.96  0.0  0.0  0.0005496904899999999
B  0.0  2.10675113  7.45  0.0  0.00020465558  -3.650891e-5
B  1.8245  1.05337557  7.45  0.00017740245  0.00010232779  -3.650891e-5
Hf  3.649  0.0  5.96  0.00073172083  -0.0  0.0005219231499999999
B  3.649  2.10675113  7.45  -0.00012392460999999998  -7.147519e-5  -5.502047e-5
B  5.4735  1.05337557  7.45  0.0  -0.00011158356999999999  -7.353203e-5
Hf  7.298  0.0  5.96  -0.00073172083  0.0  0.0005219231499999999
B  7.298  2.10675113  7.45  0.00012392460999999998  -7.147519e-5  -5.502047e-5
B  9.1225  1.05337557  7.45  -0.00017740245  0.00010232779  -3.650891e-5
Hf  -1.8245  3.1601267  5.96  -0.00036560331  0.00063350672  0.0005219231499999999
B  -1.8245  5.26687783  7.45  -9.667148e-5  -5.553468e-5  -7.353203e-5
B  0.0  4.21350226  7.45  0.0  -0.00014346459  -5.502047e-5
Hf  1.8245  3.1601267  5.96  0.00036560331  0.00063350672  0.0005219231499999999
B  1.8245  5.26687783  7.45  9.667148e-5  -5.553468e-5  -7.353203e-5
B  3.649  4.21350226  7.45  -9.667148e-5  5.553468e-5  -7.353203e-5
Hf  5.4735  3.1601267  5.96  0.0  0.0  0.0008289065200000001
B  5.4735  5.26687783  7.45  0.0  0.00014346459  -5.502047e-5
B  7.298  4.21350226  7.45  9.667148e-5  5.553468e-5  -7.353203e-5
Hf  -3.649  6.3202534  5.96  0.00036560331  -0.00063350672  0.0005219231499999999
B  -3.649  8.42700453  7.45  0.00017740245  -0.00010232779  -3.650891e-5
B  -1.8245  7.37362896  7.45  -0.00012392460999999998  7.147519e-5  -5.502047e-5
Hf  -0.0  6.3202534  5.96  -0.0  -0.0  0.0008289065200000001
B  -0.0  8.42700453  7.45  0.0  0.00011158356999999999  -7.353203e-5
B  1.8245  7.37362896  7.45  0.00012392460999999998  7.147519e-5  -5.502047e-5
Hf  3.649  6.3202534  5.96  -0.00036560331  -0.00063350672  0.0005219231499999999
B  3.649  8.42700453  7.45  -0.00017740245  -0.00010232779  -3.650891e-5
B  5.4735  7.37362896  7.45  -0.0  -0.00020465558  -3.650891e-5
81
Lattice="9.89037 0.0 0.0 -5.04982399 8.74655172 0.0 0.0 0.0 11.09264772" Properties=species:S:1:pos:R:3:forces:R:3 energy=-168711.37189217843 stress="-0.001027695 5.75e-5 0.0 5.75e-5 -0.00123209 0.0 0.0 0.0 -0.001108565" pbc="T T T"
Hf  0.0  0.0  0.0  0.0  0.0  0.0
B  -0.02325311  1.94367816  1.84877462  -0.04089769235  -0.08499428511  6.838993e-5
B  1.63676845  0.97183908  1.84877462  0.04101236118  0.08505444768  9.307201e-5
Hf  3.29679  0.0  0.0  -0.006581887999999999  -0.00019334296  0.0
B  3.27353689  1.94367816  1.84877462  -0.04105966849999999  -0.08503233665  8.998675e-5
B  4.93355845  0.97183908  1.84877462  0.04096453965  0.08488424417  0.00024836343
Hf  6.59358  0.0  0.0  0.006581887999999999  0.00019334296  0.0
B  6.57032689  1.94367816  1.84877462  -0.04077839563  -0.08500714036  0.00022316713999999998
B  8.23034845  0.97183908  1.84877462  0.04079999245  0.08504776295  0.00017791666
Hf  -1.68327466  2.91551724  0.0  0.0024373554  -0.0077954235999999994  0.0
B  -1.70652777  4.8591954  1.84877462  -0.04113422895  -0.08507604449999999  0.00026841762
B  -0.04650622  3.88735632  1.84877462  0.04087815237  0.08500868299  0.00016454719999999998
Hf  1.61351534  2.91551724  0.0  -0.0011929672000000001  -0.00645384971  0.0
B  1.59026223  4.8591954  1.84877462  -0.04070434939  -0.08509918395  -3.239523e-5
B  3.25028378  3.88735632  1.84877462  0.04070434939  0.08509918395  -3.239523e-5
Hf  4.91030534  2.91551724  0.0  0.00177248187  0.00200130532  0.0
B  4.88705223  4.8591954  1.84877462  -0.04087815237  -0.08500868299  0.00016454719999999998
B  6.54707378  3.88735632  1.84877462  0.04113422895  0.08507604449999999  0.00026841762
Hf  -3.36654933  5.83103448  0.0  -0.0024373554  0.0077954235999999994  0.0
B  -3.38980243  7.77471264  1.84877462  -0.04079999245  -0.08504776295  0.00017791666
B  -1.72978088  6.80287356  1.84877462  0.04077839563  0.08500714036  0.00022316713999999998
Hf  -0.06975933  5.83103448  0.0  -0.00177248187  -0.00200130532  0.0
B  -0.09301243  7.77471264  1.84877462  -0.04096453965  -0.08488424417  0.00024836343
B  1.56700912  6.80287356  1.84877462  0.04105966849999999  0.08503233665  8.998675e-5
Hf  3.22703067  5.83103448  0.0  0.0011929672000000001  0.00645384971  0.0
B  3.20377757  7.77471264  1.84877462  -0.04101236118  -0.08505444768  9.307201e-5
B  4.86379912  6.80287356  1.84877462  0.04089769235  0.08499428511  6.838993e-5
Hf  0.0  0.0  3.69754924  0.0  0.0  -0.01371140965
B  -0.02325311  1.94367816  5.54632386  -0.04083084505  -0.08492640939  0.0
B  1.63676845  0.97183908  5.54632386  0.041116231600000004  0.08509815553  -0.0
Hf  3.29679  0.0  3.69754924  0.00024065028000000001  0.00287597653  -0.00564036949
B  3.27353689  1.94367816  5.54632386  -0.04097173859  -0.08504416347999999  -0.0
B  4.93355845  0.97183908  5.54632386  0.0408077056  0.08502102403  0.0
Hf  6.59358  0.0  3.69754924  -0.00024065028000000001  -0.00287597653  -0.00564036949
B  6.57032689  1.94367816  5.54632386  -0.04093163021  -0.08498862880000001  -0.0
B  8.23034845  0.97183908  5.54632386  0.04087712395  0.08491201151  0.0
Hf  -1.68327466  2.91551724  3.69754924  0.00047461583  -0.002622471  -0.00919253217
B  -1.70652777  4.8591954  5.54632386  -0.04091260444  -0.08513003655  0.0
B  -0.04650622  3.88735632  5.54632386  0.0409568265  0.08514494864  -0.0
Hf  1.61351534  2.91551724  3.69754924  0.00130763603  -0.0008463896600000001  -0.00908146281
B  1.59026223  4.8591954  5.54632386  -0.0409362581  -0.08506421767  0.0
B  3.25028378  3.88735632  5.54632386  0.0409362581  0.08506421767  0.0
Hf  4.91030534  2.91551724  3.69754924  -0.00277056348  -0.00346731803  -0.00275410876
B  4.88705223  4.8591954  5.54632386  -0.0409568265  -0.08514494864  -0.0
B  6.54707378  3.88735632  5.54632386  0.04091260444  0.08513003655  0.0
Hf  -3.36654933  5.83103448  3.69754924  -0.00047461583  0.002622471  -0.00919253217
B  -3.38980243  7.77471264  5.54632386  -0.04087712395  -0.08491201151  0.0
B  -1.72978088  6.80287356  5.54632386  0.04093163021  0.08498862880000001  -0.0
Hf  -0.06975933  5.83103448  3.69754924  0.00277056348  0.00346731803  -0.00275410876
B  -0.09301243  7.77471264  5.54632386  -0.0408077056  -0.08502102403  0.0
B  1.56700912  6.80287356  5.54632386  0.04097173859  0.08504416347999999  -0.0
Hf  3.22703067  5.83103448  3.69754924  -0.00130763603  0.0008463896600000001  -0.00908146281
B  3.20377757  7.77471264  5.54632386  -0.041116231600000004  -0.08509815553  -0.0
B  4.86379912  6.80287356  5.54632386  0.04083084505  0.08492640939  0.0
Hf  0.0  0.0  7.39509848  0.0  0.0  0.01371140965
B  -0.02325311  1.94367816  9.2438731  -0.04089769235  -0.08499428511  -6.838993e-5
B  1.63676845  0.97183908  9.2438731  0.04101236118  0.08505444768  -9.307201e-5
Hf  3.29679  0.0  7.39509848  0.00024065028000000001  0.00287597653  0.00564036949
B  3.27353689  1.94367816  9.2438731  -0.04105966849999999  -0.08503233665  -8.998675e-5
B  4.93355845  0.97183908  9.2438731  0.04096453965  0.08488424417  -0.00024836343
Hf  6.59358  0.0  7.39509848  -0.00024065028000000001  -0.00287597653  0.00564036949
B  6.57032689  1.94367816  9.2438731  -0.04077839563  -0.08500714036  -0.00022316713999999998
B  8.23034845  0.97183908  9.2438731  0.04079999245  0.08504776295  -0.00017791666
Hf  -1.68327466  2.91551724  7.39509848  0.00047461583  -0.002622471  0.00919253217
B  -1.70652777  4.8591954  9.2438731  -0.04113422895  -0.08507604449999999  -0.00026841762
B  -0.04650622  3.88735632  9.2438731  0.04087815237  0.08500868299  -0.00016454719999999998
Hf  1.61351534  2.91551724  7.39509848  0.00130763603  -0.0008463896600000001  0.00908146281
B  1.59026223  4.8591954  9.2438731  -0.04070434939  -0.08509918395  3.239523e-5
B  3.25028378  3.88735632  9.2438731  0.04070434939  0.08509918395  3.239523e-5
Hf  4.91030534  2.91551724  7.39509848  -0.00277056348  -0.00346731803  0.00275410876
B  4.88705223  4.8591954  9.2438731  -0.04087815237  -0.08500868299  -0.00016454719999999998
B  6.54707378  3.88735632  9.2438731  0.04113422895  0.08507604449999999  -0.00026841762
Hf  -3.36654933  5.83103448  7.39509848  -0.00047461583  0.002622471  0.00919253217
B  -3.38980243  7.77471264  9.2438731  -0.04079999245  -0.08504776295  -0.00017791666
B  -1.72978088  6.80287356  9.2438731  0.04077839563  0.08500714036  -0.00022316713999999998
Hf  -0.06975933  5.83103448  7.39509848  0.00277056348  0.00346731803  0.00275410876