LAMMPS (17 Apr 2024)
  using 1 OpenMP thread(s) per MPI task
WARNING: Atom style hybrid defines both, per-type and per-atom masses; both must be set, but only per-atom masses will be used (src/atom_vec_hybrid.cpp:132)
Reading data file ...
  orthogonal box = (-170 -170 -170) to (170 170 170)
  1 by 1 by 1 MPI processor grid
  reading atoms ...
  10 atoms
  reading velocities ...
  10 velocities
  scanning bonds ...
  1 = max bonds/atom
  10 ellipsoids
  orthogonal box = (-170 -170 -170) to (170 170 170)
  1 by 1 by 1 MPI processor grid
  reading bonds ...
  8 bonds
Finding 1-2 1-3 1-4 neighbors ...
  special bond factors lj:    0        0        0       
  special bond factors coul:  0        0        0       
     2 = max # of 1-2 neighbors
     2 = max # of 1-3 neighbors
     2 = max # of 1-4 neighbors
     4 = max # of special neighbors
  special bonds CPU = 0.000 seconds
  read_data CPU = 0.005 seconds
Setting atom values ...
  10 settings made for mass
10 atoms in group all
Reading oxdna potential (fene) file oxdna.real with DATE: 2024-04-26
Finding 1-2 1-3 1-4 neighbors ...
  special bond factors lj:    0        1        1       
  special bond factors coul:  0        0        0       
     2 = max # of 1-2 neighbors
     2 = max # of 1-3 neighbors
     2 = max # of 1-4 neighbors
     4 = max # of special neighbors
  special bonds CPU = 0.000 seconds
Reading oxdna potential (excv) file oxdna.real with DATE: 2024-04-26
Reading oxdna potential (stk) file oxdna.real with DATE: 2024-04-26
Reading oxdna potential (hbond) file oxdna.real with DATE: 2024-04-26
Reading oxdna potential (hbond) file oxdna.real with DATE: 2024-04-26
Reading oxdna potential (hbond) file oxdna.real with DATE: 2024-04-26
Reading oxdna potential (xstk) file oxdna.real with DATE: 2024-04-26
Reading oxdna potential (coaxstk) file oxdna.real with DATE: 2024-04-26
Generated 0 of 6 mixed pair_coeff terms from geometric mixing rule
Neighbor list info ...
  update: every = 1 steps, delay = 0 steps, check = yes
  max neighbors/atom: 2000, page size: 100000
  master list distance cutoff = 25.179212
  ghost atom cutoff = 32.4
  binsize = 12.589606, bins = 28 28 28
  4 neighbor lists, perpetual/occasional/extra = 4 0 0
  (1) pair oxdna/excv, perpetual
      attributes: half, newton on
      pair build: half/bin/newton
      stencil: half/bin/3d
      bin: standard
  (2) pair oxdna/hbond, perpetual, copy from (1)
      attributes: half, newton on
      pair build: copy
      stencil: none
      bin: none
  (3) pair oxdna/xstk, perpetual, copy from (1)
      attributes: half, newton on
      pair build: copy
      stencil: none
      bin: none
  (4) pair oxdna/coaxstk, perpetual, copy from (1)
      attributes: half, newton on
      pair build: copy
      stencil: none
      bin: none
Setting up Verlet run ...
  Unit style    : real
  Current step  : 0
  Time step     : 0.01706
0  ekin = 6.60687273927977 |  erot = 16.7817849122513 | epot = -77.8452930576477 | etot = -54.4566354061166
Per MPI rank memory allocation (min/avg/max) = 7.196 | 7.196 | 7.196 Mbytes
   Step          Temp          E_pair         E_mol          TotEng         Press          Volume    
         0   246.27432     -80.414328      2.5690347     -71.23842      -0.031164648    39304000     
1000  ekin = 6.43820748574479 |  erot = 17.3362209220524 | epot = -78.2310638156466 | etot = -54.4566354078494
2000  ekin = 6.25962687713456 |  erot = 17.7614973153003 | epot = -78.4777596014537 | etot = -54.4566354090188
3000  ekin = 6.07700448778501 |  erot = 18.0349390575316 | epot = -78.5685789546716 | etot = -54.456635409355
4000  ekin = 5.8974424369014 |  erot = 18.1444655563221 | epot = -78.4985434019985 | etot = -54.456635408775
5000  ekin = 5.72921495795424 |  erot = 18.0898135345449 | epot = -78.2756638999 | etot = -54.4566354074009
6000  ekin = 5.58102962967708 |  erot = 17.881890737865 | epot = -77.9195557730913 | etot = -54.4566354055493
7000  ekin = 5.46083564262923 |  erot = 17.5394365844241 | epot = -77.4569076305333 | etot = -54.45663540348
8000  ekin = 5.37466374419903 |  erot = 17.0860544650629 | epot = -76.9173536106644 | etot = -54.4566354014025
9000  ekin = 5.32595754281569 |  erot = 16.5482852541262 | epot = -76.3308781963659 | etot = -54.456635399424
10000  ekin = 5.31554676342217 |  erot = 15.954413846903 | epot = -75.7265960077926 | etot = -54.4566353974674
11000  ekin = 5.34211698054867 |  erot = 15.3332614944559 | epot = -75.132013870846 | etot = -54.4566353958413
12000  ekin = 5.4028703847121 |  erot = 14.711083423083 | epot = -74.5705892022628 | etot = -54.4566353944677
13000  ekin = 5.49411526233304 |  erot = 14.1110915850693 | epot = -74.0618422408422 | etot = -54.4566353934398
14000  ekin = 5.61166305682735 |  erot = 13.5517399019593 | epot = -73.6200383516251 | etot = -54.4566353928384
15000  ekin = 5.75104953856985 |  erot = 13.0453199784599 | epot = -73.2530049096301 | etot = -54.4566353926003
16000  ekin = 5.90767197595959 |  erot = 12.5986167018215 | epot = -72.9629240705716 | etot = -54.4566353927906
17000  ekin = 6.07693584949005 |  erot = 12.2121424091128 | epot = -72.7457136520755 | etot = -54.4566353934727
18000  ekin = 6.25447802454937 |  erot = 11.8809715590397 | epot = -72.5920849774634 | etot = -54.4566353938743
19000  ekin = 6.43644156574384 |  erot = 11.5970868983705 | epot = -72.4901638588709 | etot = -54.4566353947565
20000  ekin = 6.61975078718414 |  erot = 11.3493268347887 | epot = -72.425713017461 | etot = -54.4566353954882
21000  ekin = 6.80231654537078 |  erot = 11.1279852357805 | epot = -72.386937177108 | etot = -54.4566353959567
22000  ekin = 6.9831066603949 |  erot = 10.9264899080746 | epot = -72.3662319645787 | etot = -54.4566353961091
23000  ekin = 7.16204136914421 |  erot = 10.7423471683524 | epot = -72.3610239334525 | etot = -54.4566353959559
24000  ekin = 7.33971202276034 |  erot = 10.5772893708791 | epot = -72.3736367892022 | etot = -54.4566353955627
25000  ekin = 7.51694389098066 |  erot = 10.4366021288186 | epot = -72.4101814148955 | etot = -54.4566353950963
26000  ekin = 7.69428547961004 |  erot = 10.3277743414164 | epot = -72.4786952155962 | etot = -54.4566353945698
27000  ekin = 7.87150355456813 |  erot = 10.2597385959261 | epot = -72.5878775446635 | etot = -54.4566353941693
28000  ekin = 8.04704621231786 |  erot = 10.2410408314318 | epot = -72.7447224377789 | etot = -54.4566353940292
29000  ekin = 8.21759311371839 |  erot = 10.2782069424415 | epot = -72.9524354504287 | etot = -54.4566353942689
30000  ekin = 8.37773815926491 |  erot = 10.3742402092555 | epot = -73.2086137634984 | etot = -54.456635394978
31000  ekin = 8.5199063606362 |  erot = 10.5273635253434 | epot = -73.5039052821707 | etot = -54.4566353961911
32000  ekin = 8.63465075757977 |  erot = 10.7302372452279 | epot = -73.8215234006618 | etot = -54.4566353978541
33000  ekin = 8.71148242170727 |  erot = 10.9699568578568 | epot = -74.1380746793619 | etot = -54.4566353997978
34000  ekin = 8.74030401673698 |  erot = 11.2291118958906 | epot = -74.4260513143637 | etot = -54.4566354017361
35000  ekin = 8.71331738120299 |  erot = 11.4879439611373 | epot = -74.6578967456838 | etot = -54.4566354033435
36000  ekin = 8.62700768065711 |  erot = 11.7272655611848 | epot = -74.8109086460864 | etot = -54.4566354042445
37000  ekin = 8.48360459165237 |  erot = 11.9311379268697 | epot = -74.8713779230666 | etot = -54.4566354045445
38000  ekin = 8.29146113848086 |  erot = 12.0877506878432 | epot = -74.8358472300852 | etot = -54.4566354037611
39000  ekin = 8.06413250091548 |  erot = 12.1939343847315 | epot = -74.7147022878414 | etot = -54.4566354021944
40000  ekin = 7.81835387769382 |  erot = 12.2536662217391 | epot = -74.5286554998782 | etot = -54.4566354004452
41000  ekin = 7.57154460494701 |  erot = 12.2737017000962 | epot = -74.3018817037925 | etot = -54.4566353987493
42000  ekin = 7.33953370634719 |  erot = 12.2616149193725 | epot = -74.0577840229955 | etot = -54.4566353972758
43000  ekin = 7.13480148719636 |  erot = 12.225151124624 | epot = -73.8165880080345 | etot = -54.4566353962141
44000  ekin = 6.96550034046731 |  erot = 12.1705709864264 | epot = -73.5927067224915 | etot = -54.4566353955978
45000  ekin = 6.83524619732669 |  erot = 12.1023709627624 | epot = -73.3942525554551 | etot = -54.456635395366
46000  ekin = 6.74354326448599 |  erot = 12.0237258448777 | epot = -73.2239045047616 | etot = -54.456635395398
47000  ekin = 6.68665553239008 |  erot = 11.9373578617833 | epot = -73.0806487897222 | etot = -54.4566353955488
48000  ekin = 6.6587160612366 |  erot = 11.846339390239 | epot = -72.9616908473448 | etot = -54.4566353958692
49000  ekin = 6.65288529208964 |  erot = 11.7537905708822 | epot = -72.8633112588598 | etot = -54.456635395888
50000  ekin = 6.66236602673449 |  erot = 11.665645731731 | epot = -72.7846471541946 | etot = -54.4566353957291
51000  ekin = 6.68111338468324 |  erot = 11.5899588724776 | epot = -72.7277076525689 | etot = -54.4566353954081
52000  ekin = 6.70418283073615 |  erot = 11.5360342718571 | epot = -72.6968524975893 | etot = -54.456635394996
53000  ekin = 6.72772596002091 |  erot = 11.5133896479182 | epot = -72.6977510025407 | etot = -54.4566353946016
54000  ekin = 6.74871529529379 |  erot = 11.5307308739651 | epot = -72.7360815636092 | etot = -54.4566353943504
55000  ekin = 6.76452000506484 |  erot = 11.5943437358561 | epot = -72.8154991352817 | etot = -54.4566353943608
56000  ekin = 6.77244089755462 |  erot = 11.7063368897022 | epot = -72.9354131819766 | etot = -54.4566353947198
57000  ekin = 6.76933125218943 |  erot = 11.8641785052103 | epot = -73.0901451528759 | etot = -54.4566353954762
58000  ekin = 6.75138787630661 |  erot = 12.0602581117046 | epot = -73.2682813846362 | etot = -54.456635396625
59000  ekin = 6.71417211137041 |  erot = 12.2820346405452 | epot = -73.4528421500119 | etot = -54.4566353980963
60000  ekin = 6.65291138937908 |  erot = 12.5128606065824 | epot = -73.6224073957182 | etot = -54.4566353997567
61000  ekin = 6.56310936735918 |  erot = 12.7334757971162 | epot = -73.7532205658841 | etot = -54.4566354014088
62000  ekin = 6.4414673896219 |  erot = 12.9241153784064 | epot = -73.8222181708359 | etot = -54.4566354028076
63000  ekin = 6.28706349170015 |  erot = 13.0670025811129 | epot = -73.810701476737 | etot = -54.456635403924
64000  ekin = 6.10266894647869 |  erot = 13.1477550766291 | epot = -73.7070594271612 | etot = -54.4566354040534
65000  ekin = 5.89591961177536 |  erot = 13.159243189225 | epot = -73.5117982043027 | etot = -54.4566354033024
66000  ekin = 5.67987986272269 |  erot = 13.1031941166757 | epot = -73.2397093810288 | etot = -54.4566354016304
67000  ekin = 5.47247153600003 |  erot = 12.989279234259 | epot = -72.9183861696828 | etot = -54.4566353994238
68000  ekin = 5.29472138366934 |  erot = 12.8325717552519 | epot = -72.5839285358223 | etot = -54.4566353969011
69000  ekin = 5.16838664772545 |  erot = 12.6515520795185 | epot = -72.2765741217863 | etot = -54.4566353945424
70000  ekin = 5.11229587755514 |  erot = 12.4645483617671 | epot = -72.0334796321543 | etot = -54.456635392832
71000  ekin = 5.13861822273185 |  erot = 12.2861550396877 | epot = -71.8814086546626 | etot = -54.456635392243
72000  ekin = 5.2491977626994 |  erot = 12.1240996085004 | epot = -71.8299327640264 | etot = -54.4566353928266
73000  ekin = 5.43492595011745 |  erot = 11.9780482590895 | epot = -71.8696096036143 | etot = -54.4566353944073
74000  ekin = 5.67784516722635 |  erot = 11.8411405072589 | epot = -71.9756210710801 | etot = -54.4566353965948
75000  ekin = 5.95413179780696 |  erot = 11.7025554045187 | epot = -72.1133226012198 | etot = -54.4566353988942
76000  ekin = 6.23821902238384 |  erot = 11.550835238765 | epot = -72.2456896619949 | etot = -54.456635400846
77000  ekin = 6.50672473640332 |  erot = 11.3769509006249 | epot = -72.3403110391631 | etot = -54.4566354021349
78000  ekin = 6.74134494190867 |  erot = 11.1763190057829 | epot = -72.3742993503321 | etot = -54.4566354026406
79000  ekin = 6.93029998725147 |  erot = 10.9493831098248 | epot = -72.3363184995039 | etot = -54.4566354024276
80000  ekin = 7.06837455802669 |  erot = 10.7008607206279 | epot = -72.2258706803373 | etot = -54.4566354016827
81000  ekin = 7.15592612862585 |  erot = 10.4381578436614 | epot = -72.05071937292 | etot = -54.4566354006327
82000  ekin = 7.19737523755897 |  erot = 10.1696204752438 | epot = -71.8236311122793 | etot = -54.4566353994766
83000  ekin = 7.19964138072357 |  erot = 9.90319185133895 | epot = -71.559468630406 | etot = -54.4566353983435
84000  ekin = 7.17082378076055 |  erot = 9.64576283606949 | epot = -71.2732220141216 | etot = -54.4566353972916
85000  ekin = 7.11924100547637 |  erot = 9.40319183444012 | epot = -70.9790682362424 | etot = -54.4566353963259
86000  ekin = 7.05280646949636 |  erot = 9.18075710620515 | epot = -70.6901989711303 | etot = -54.4566353954288
87000  ekin = 6.97865213852011 |  erot = 8.98373783121374 | epot = -70.4190253643139 | etot = -54.45663539458
88000  ekin = 6.9029074524998 |  erot = 8.8178750532503 | epot = -70.1774178995232 | etot = -54.4566353937731
89000  ekin = 6.83056643684682 |  erot = 8.68957621789659 | epot = -69.9767780477612 | etot = -54.4566353930177
90000  ekin = 6.76540803039367 |  erot = 8.6058366061046 | epot = -69.8278800288353 | etot = -54.456635392337
91000  ekin = 6.70995822419681 |  erot = 8.57392290473256 | epot = -69.7405165206917 | etot = -54.4566353917624
92000  ekin = 6.66549387606452 |  erot = 8.60089293174941 | epot = -69.7230221991425 | etot = -54.4566353913285
93000  ekin = 6.63209392240901 |  erot = 8.69302362042091 | epot = -69.7817529338986 | etot = -54.4566353910687
94000  ekin = 6.6087387957867 |  erot = 8.85520324232614 | epot = -69.9205774291257 | etot = -54.4566353910128
95000  ekin = 6.5934554231299 |  erot = 9.08998001249973 | epot = -70.1400708268608 | etot = -54.4566353912311
96000  ekin = 6.58349816402809 |  erot = 9.39670336712944 | epot = -70.4368369228354 | etot = -54.4566353916779
97000  ekin = 6.57557086190993 |  erot = 9.7723203542983 | epot = -70.8045266085995 | etot = -54.4566353923912
98000  ekin = 6.56607746070853 |  erot = 10.2103280886839 | epot = -71.233040942761 | etot = -54.4566353933686
99000  ekin = 6.55139785883141 |  erot = 10.700518875157 | epot = -71.7085521285789 | etot = -54.4566353945905
100000  ekin = 6.52819744721324 |  erot = 11.2290265012434 | epot = -72.2138593444663 | etot = -54.4566353960097
101000  ekin = 6.49377694354442 |  erot = 11.778744418072 | epot = -72.7291567591596 | etot = -54.4566353975432
102000  ekin = 6.44645975182924 |  erot = 12.3302092947474 | epot = -73.2333044456467 | etot = -54.4566353990701
103000  ekin = 6.38599188040475 |  erot = 12.8629861678417 | epot = -73.7056134486881 | etot = -54.4566354004416
104000  ekin = 6.31389917689188 |  erot = 13.3574827218747 | epot = -74.1280173002654 | etot = -54.4566354014988
105000  ekin = 6.23372050746404 |  erot = 13.7969365030789 | epot = -74.4872924127827 | etot = -54.4566354022397
106000  ekin = 6.15161195850931 |  erot = 14.1683082609505 | epot = -74.7765556218299 | etot = -54.45663540237
107000  ekin = 6.07599644252674 |  erot = 14.4651582362835 | epot = -74.9977900809679 | etot = -54.4566354021577
108000  ekin = 6.01224980359744 |  erot = 14.6879762973639 | epot = -75.1568615023395 | etot = -54.4566354013782
109000  ekin = 5.96718055298343 |  erot = 14.8435302087046 | epot = -75.2673461618523 | etot = -54.4566354001642
110000  ekin = 5.94906585806739 |  erot = 14.9433946245219 | epot = -75.3490958813021 | etot = -54.4566353987129
111000  ekin = 5.96692254396596 |  erot = 15.0017732632798 | epot = -75.4253312044835 | etot = -54.4566353972378
112000  ekin = 6.02963894580686 |  erot = 15.0332002745137 | epot = -75.5194746162464 | etot = -54.4566353959258
113000  ekin = 6.14472749189881 |  erot = 15.0506190089295 | epot = -75.6519818961823 | etot = -54.456635395354
114000  ekin = 6.31294119125893 |  erot = 15.0641400294536 | epot = -75.8337166157274 | etot = -54.4566353950148
115000  ekin = 6.53170723497726 |  erot = 15.0810976270015 | epot = -76.0694402570575 | etot = -54.4566353950787
116000  ekin = 6.79565473868378 |  erot = 15.1058873747025 | epot = -76.3581775089288 | etot = -54.4566353955425
117000  ekin = 7.09589353296915 |  erot = 15.1399747310401 | epot = -76.6925036604113 | etot = -54.4566353964021
118000  ekin = 7.42010913176814 |  erot = 15.1818878453243 | epot = -77.0586323747378 | etot = -54.4566353976454
119000  ekin = 7.75291308545885 |  erot = 15.2271156041089 | epot = -77.436664088802 | etot = -54.4566353992342
120000  ekin = 8.07655694001114 |  erot = 15.2680755527864 | epot = -77.8012678938754 | etot = -54.4566354010778
121000  ekin = 8.37209283452514 |  erot = 15.2944252034468 | epot = -78.1231534409902 | etot = -54.4566354030182
122000  ekin = 8.62097203571359 |  erot = 15.2939565964172 | epot = -78.3715640369608 | etot = -54.45663540483
123000  ekin = 8.80691805373849 |  erot = 15.2541302313802 | epot = -78.5176836913811 | etot = -54.4566354062624
124000  ekin = 8.91774775140848 |  erot = 15.1640393169121 | epot = -78.5384224754137 | etot = -54.4566354070931
125000  ekin = 8.94673865107599 |  erot = 15.0163758445777 | epot = -78.4197499028408 | etot = -54.4566354071871
126000  ekin = 8.89353504113546 |  erot = 14.8103810343862 | epot = -78.1605514820978 | etot = -54.4566354065761
127000  ekin = 8.76295715660914 |  erot = 14.5505246086874 | epot = -77.7701171706756 | etot = -54.4566354053791
128000  ekin = 8.56412338279211 |  erot = 14.2447148868085 | epot = -77.2654736732317 | etot = -54.456635403631
129000  ekin = 8.30999977775241 |  erot = 13.9056008475438 | epot = -76.6722360268308 | etot = -54.4566354015347
130000  ekin = 8.01598983357869 |  erot = 13.5489784634635 | epot = -76.0216036963406 | etot = -54.4566353992984
131000  ekin = 7.69860752663267 |  erot = 13.191973628217 | epot = -75.3472165519593 | etot = -54.4566353971097
132000  ekin = 7.37433696937952 |  erot = 12.8512990204963 | epot = -74.682271384997 | etot = -54.4566353951211
133000  ekin = 7.05872362614925 |  erot = 12.5417941515422 | epot = -74.0571531711344 | etot = -54.4566353934429
134000  ekin = 6.76570888198983 |  erot = 12.2753542959273 | epot = -73.4976985700582 | etot = -54.4566353921411
135000  ekin = 6.50719363731297 |  erot = 12.0602549647526 | epot = -73.0240839933233 | etot = -54.4566353912577
136000  ekin = 6.29279008475018 |  erot = 11.9007669358432 | epot = -72.6501924113932 | etot = -54.4566353907998
137000  ekin = 6.1297097827656 |  erot = 11.797057630299 | epot = -72.3834028038282 | etot = -54.4566353907636
138000  ekin = 6.02274351233274 |  erot = 11.7455123962494 | epot = -72.2248912997163 | etot = -54.4566353911342
139000  ekin = 5.97430404723505 |  erot = 11.7390412107215 | epot = -72.1699806498505 | etot = -54.456635391894
140000  ekin = 5.98449840319398 |  erot = 11.7661921151461 | epot = -72.2073259113408 | etot = -54.4566353930008
141000  ekin = 6.05122402382853 |  erot = 11.8123445028326 | epot = -72.3202039210611 | etot = -54.4566353944
142000  ekin = 6.17031735772835 |  erot = 11.860441511122 | epot = -72.4873942648628 | etot = -54.4566353960124
143000  ekin = 6.33577810129533 |  erot = 11.8919671618459 | epot = -72.6843806606519 | etot = -54.4566353975106
144000  ekin = 6.5400911832184 |  erot = 11.8891339130634 | epot = -72.8858604955073 | etot = -54.4566353992254
145000  ekin = 6.7746586664194 |  erot = 11.8352952468181 | epot = -73.0665893139994 | etot = -54.4566354007619
146000  ekin = 7.03032727827686 |  erot = 11.7160091899344 | epot = -73.2029718703323 | etot = -54.456635402121
147000  ekin = 7.29660189209642 |  erot = 11.5221059419086 | epot = -73.2753432368926 | etot = -54.4566354028876
148000  ekin = 7.56407690493304 |  erot = 11.2503448019254 | epot = -73.2710571099655 | etot = -54.4566354031071
149000  ekin = 7.82544292003207 |  erot = 10.9039979828621 | epot = -73.1860763056619 | etot = -54.4566354027677
150000  ekin = 8.07517324147418 |  erot = 10.4929858681079 | epot = -73.0247945114893 | etot = -54.4566354019072
151000  ekin = 8.30975251519227 |  erot = 10.0330103746793 | epot = -72.7993982905126 | etot = -54.4566354006411
152000  ekin = 8.52766332329262 |  erot = 9.54393934171969 | epot = -72.5282380641322 | etot = -54.4566353991199
153000  ekin = 8.72913641124913 |  erot = 9.04783809538959 | epot = -72.2336099041494 | etot = -54.4566353975106
154000  ekin = 8.91570927168975 |  erot = 8.56693447900063 | epot = -71.9392791466627 | etot = -54.4566353959723
155000  ekin = 9.08966068414512 |  erot = 8.12178607637931 | epot = -71.6680821551646 | etot = -54.4566353946402
156000  ekin = 9.25339893961253 |  erot = 7.72982624258095 | epot = -71.4398605758094 | etot = -54.4566353936159
157000  ekin = 9.40888952795375 |  erot = 7.40436483126651 | epot = -71.2698897521795 | etot = -54.4566353929592
158000  ekin = 9.5571792388578 |  erot = 7.15403664791566 | epot = -71.1678512794925 | etot = -54.456635392719
159000  ekin = 9.69792111012153 |  erot = 6.98265633604475 | epot = -71.1372128390505 | etot = -54.4566353928842
160000  ekin = 9.82919776336752 |  erot = 6.88943769583961 | epot = -71.1752708526347 | etot = -54.4566353934276
161000  ekin = 9.94745815557448 |  erot = 6.8695239744895 | epot = -71.2736175243542 | etot = -54.4566353942902
162000  ekin = 10.0476105552154 |  erot = 6.9148102338052 | epot = -71.4190561844078 | etot = -54.4566353953872
163000  ekin = 10.1232836123728 |  erot = 7.01503930069488 | epot = -71.5949583096737 | etot = -54.4566353966061
164000  ekin = 10.1672576282715 |  erot = 7.15913239145111 | epot = -71.7830254175365 | etot = -54.4566353978139
165000  ekin = 10.1720616886924 |  erot = 7.33667115267699 | epot = -71.9653682402348 | etot = -54.4566353988654
166000  ekin = 10.130718189882 |  erot = 7.53939136045688 | epot = -72.1267449499592 | etot = -54.4566353996203
167000  ekin = 10.0375906740833 |  erot = 7.76248640952837 | epot = -72.2567124835719 | etot = -54.4566353999602
168000  ekin = 9.88925393885932 |  erot = 8.00550722627944 | epot = -72.3513965649499 | etot = -54.4566353998111
169000  ekin = 9.68526445659958 |  erot = 8.27264999921095 | epot = -72.4145498549766 | etot = -54.4566353991661
170000  ekin = 9.42867794111905 |  erot = 8.57229328100177 | epot = -72.4576066202142 | etot = -54.4566353980934
171000  ekin = 9.12616910816985 |  erot = 8.91577619747958 | epot = -72.4985807023847 | etot = -54.4566353967353
172000  ekin = 8.78767440912354 |  erot = 9.31557620898523 | epot = -72.5598860133921 | etot = -54.4566353952833
173000  ekin = 8.4308902629603 |  erot = 9.78404466318918 | epot = -72.6715703175844 | etot = -54.4566353914349
174000  ekin = 8.08808636305844 |  erot = 10.330351924278 | epot = -72.8750736787358 | etot = -54.4566353913993
175000  ekin = 7.76683289792752 |  erot = 10.9528766887196 | epot = -73.1763449782723 | etot = -54.4566353916252
176000  ekin = 7.47165533673879 |  erot = 11.6455953906608 | epot = -73.5738861195206 | etot = -54.456635392121
177000  ekin = 7.20644207982112 |  erot = 12.3989755240462 | epot = -74.0620529967131 | etot = -54.4566353928457
178000  ekin = 6.974264785072 |  erot = 13.2002588275757 | epot = -74.6311590065932 | etot = -54.4566353939455
179000  ekin = 6.77739061781459 |  erot = 14.034248956954 | epot = -75.2682749696791 | etot = -54.4566353949105
180000  ekin = 6.61743414637729 |  erot = 14.8862774181217 | epot = -75.9603469603612 | etot = -54.4566353958622
181000  ekin = 6.49561144162321 |  erot = 15.7407037445572 | epot = -76.6929505832098 | etot = -54.4566353970295
182000  ekin = 6.41305807095974 |  erot = 16.5823414720904 | epot = -77.4520349408826 | etot = -54.4566353978324
183000  ekin = 6.37104675400492 |  erot = 17.3988622631936 | epot = -78.2265444157012 | etot = -54.4566353985027
184000  ekin = 6.37106698283056 |  erot = 18.1794275278873 | epot = -79.0071299097852 | etot = -54.4566353990674
185000  ekin = 6.41462378113363 |  erot = 18.9143606927346 | epot = -79.7856198734752 | etot = -54.456635399607
186000  ekin = 6.50261133383222 |  erot = 19.594459796067 | epot = -80.5537065301622 | etot = -54.456635400263
187000  ekin = 6.63422049770368 |  erot = 20.2099561332676 | epot = -81.3008120321885 | etot = -54.4566354012172
188000  ekin = 6.80553106495261 |  erot = 20.7492823612707 | epot = -82.0114488288671 | etot = -54.4566354026438
189000  ekin = 7.00817768191868 |  erot = 21.1980708186845 | epot = -82.6628839052196 | etot = -54.4566354046164
190000  ekin = 7.22864796075227 |  erot = 21.5390297894768 | epot = -83.2243131572579 | etot = -54.4566354070288
191000  ekin = 7.44767622618309 |  erot = 21.7493732842278 | epot = -83.6536849211036 | etot = -54.4566354106927
192000  ekin = 7.64121438364656 |  erot = 21.8048177890285 | epot = -83.9026675850786 | etot = -54.4566354124035
193000  ekin = 7.78824892260135 |  erot = 21.6992058928577 | epot = -83.9440902285495 | etot = -54.4566354130904
194000  ekin = 7.87254337485893 |  erot = 21.4376021938463 | epot = -83.7667809811825 | etot = -54.4566354124772
195000  ekin = 7.88497345911822 |  erot = 21.0375935324407 | epot = -83.3792024018217 | etot = -54.4566354102629
196000  ekin = 7.82453658225029 |  erot = 20.5298119321328 | epot = -82.8109839217733 | etot = -54.4566354073902
197000  ekin = 7.69767210841892 |  erot = 19.9508117348117 | epot = -82.1051192473244 | etot = -54.4566354040938
198000  ekin = 7.51634139122171 |  erot = 19.3371432855414 | epot = -81.3101200775114 | etot = -54.4566354007483
199000  ekin = 7.29564803023476 |  erot = 18.7233240020312 | epot = -80.4756074302768 | etot = -54.4566353980108
200000  ekin = 7.05166010690528 |  erot = 18.1350524779765 | epot = -79.6433479808066 | etot = -54.4566353959248
201000  ekin = 6.79981173468669 |  erot = 17.5880304600562 | epot = -78.8444775892921 | etot = -54.4566353945492
202000  ekin = 6.55389933641572 |  erot = 17.0888778993458 | epot = -78.0994126296097 | etot = -54.4566353938482
203000  ekin = 6.32553919621666 |  erot = 16.6360378263834 | epot = -77.4182124163434 | etot = -54.4566353937433
204000  ekin = 6.12389632660999 |  erot = 16.221171795851 | epot = -76.8017035165982 | etot = -54.4566353941373
205000  ekin = 5.95555200640865 |  erot = 15.8307416505747 | epot = -76.2429290519105 | etot = -54.4566353949271
206000  ekin = 5.82446904491665 |  erot = 15.4476864597757 | epot = -75.7287909006854 | etot = -54.456635395993
207000  ekin = 5.73208912867472 |  erot = 15.0532400346064 | epot = -75.2419645604691 | etot = -54.4566353971881
208000  ekin = 5.67762302906586 |  erot = 14.6289641823334 | epot = -74.7632226097333 | etot = -54.4566353983341
209000  ekin = 5.65855387682243 |  erot = 14.1589879691225 | epot = -74.2741772451824 | etot = -54.4566353992374
210000  ekin = 5.67127672991725 |  erot = 13.6322671582814 | epot = -73.7601792879283 | etot = -54.4566353997296
211000  ekin = 5.71170069345446 |  erot = 13.0444908839479 | epot = -73.2128269771113 | etot = -54.456635399709
212000  ekin = 5.77562712092918 |  erot = 12.3991887587334 | epot = -72.6314512788358 | etot = -54.4566353991733
213000  ekin = 5.85883014811268 |  erot = 11.7077170437804 | epot = -72.0231825901061 | etot = -54.456635398213
214000  ekin = 5.95693715945621 |  erot = 10.9880856586527 | epot = -71.4016582150861 | etot = -54.4566353969771
215000  ekin = 6.06530009270273 |  erot = 10.2628764798217 | epot = -70.7848119681606 | etot = -54.4566353956361
216000  ekin = 6.17899119913878 |  erot = 9.55666412395529 | epot = -70.1922907174477 | etot = -54.4566353943536
217000  ekin = 6.29291855291586 |  erot = 8.89336715125219 | epot = -69.64292109744 | etot = -54.4566353932719
218000  ekin = 6.40196857726006 |  erot = 8.29389599676029 | epot = -69.1524999665188 | etot = -54.4566353924985
219000  ekin = 6.50110173408261 |  erot = 7.77437623954087 | epot = -68.7321133657201 | etot = -54.4566353920966
220000  ekin = 6.58540342133091 |  erot = 7.34511996775883 | epot = -68.3871587811671 | etot = -54.4566353920774
221000  ekin = 6.65014690325897 |  erot = 7.01039395844385 | epot = -68.1171762541011 | etot = -54.4566353923982
222000  ekin = 6.69092576193417 |  erot = 6.76891043700557 | epot = -67.9164715919184 | etot = -54.4566353929786
223000  ekin = 6.70387621884996 |  erot = 6.61487073126029 | epot = -67.77538234382 | etot = -54.4566353937098
224000  ekin = 6.6859658221945 |  erot = 6.53933741261809 | epot = -67.6819386292908 | etot = -54.4566353944782
225000  ekin = 6.63529509868518 |  erot = 6.53169516027476 | epot = -67.6236256540922 | etot = -54.4566353951323
226000  ekin = 6.55134622983674 |  erot = 6.58124861354781 | epot = -67.5892302390912 | etot = -54.4566353957066
227000  ekin = 6.43512582373462 |  erot = 6.6778633909886 | epot = -67.5696246108205 | etot = -54.4566353960973
228000  ekin = 6.28919825971956 |  erot = 6.81242105498751 | epot = -67.5582547110045 | etot = -54.4566353962974
229000  ekin = 6.11758034386912 |  erot = 6.97737322344776 | epot = -67.5515889636427 | etot = -54.4566353963259
230000  ekin = 5.92553219663261 |  erot = 7.1666772772129 | epot = -67.5488448700593 | etot = -54.4566353962138
231000  ekin = 5.71928874368776 |  erot = 7.37558258297039 | epot = -67.5515067226485 | etot = -54.4566353959904
232000  ekin = 5.50576904745089 |  erot = 7.60029005185252 | epot = -67.5626944950135 | etot = -54.4566353957101
233000  ekin = 5.29228522016845 |  erot = 7.83763848257108 | epot = -67.5865590981304 | etot = -54.4566353953909
234000  ekin = 5.08626778915082 |  erot = 8.0849723575554 | epot = -67.627875541769 | etot = -54.4566353950628
235000  ekin = 4.89496149390685 |  erot = 8.33993380345756 | epot = -67.6915306921237 | etot = -54.4566353947593
236000  ekin = 4.725107662887 |  erot = 8.60023942152078 | epot = -67.7819824789196 | etot = -54.4566353945118
237000  ekin = 4.58266891059204 |  erot = 8.863520450285 | epot = -67.9028247552286 | etot = -54.4566353943516
238000  ekin = 4.47254352856373 |  erot = 9.12714914792354 | epot = -68.0563280707913 | etot = -54.456635394304
239000  ekin = 4.39832589608058 |  erot = 9.38815494537381 | epot = -68.2431162358326 | etot = -54.4566353943782
240000  ekin = 4.36214482372772 |  erot = 9.64329675760556 | epot = -68.4620769758964 | etot = -54.4566353945632
241000  ekin = 4.36460414736016 |  erot = 9.88932905774899 | epot = -68.7105685999353 | etot = -54.4566353948261
242000  ekin = 4.40483557566032 |  erot = 10.123401279054 | epot = -68.9848722498437 | etot = -54.4566353951294
243000  ekin = 4.48065587113318 |  erot = 10.3436288280301 | epot = -69.2809200945657 | etot = -54.4566353954024
244000  ekin = 4.58880538052794 |  erot = 10.5497091929702 | epot = -69.5951499691048 | etot = -54.4566353956067
245000  ekin = 4.72523059106075 |  erot = 10.7433050692471 | epot = -69.925171056014 | etot = -54.4566353957062
246000  ekin = 4.88536596035895 |  erot = 10.9281953102942 | epot = -70.2701966663515 | etot = -54.4566353956983
247000  ekin = 5.06437032892622 |  erot = 11.1100753168529 | epot = -70.6310810413878 | etot = -54.4566353956087
248000  ekin = 5.2572803931489 |  erot = 11.2959779038021 | epot = -71.0098936924448 | etot = -54.4566353954938
249000  ekin = 5.4590578306858 |  erot = 11.4933498885016 | epot = -71.4090431146237 | etot = -54.4566353954363
250000  ekin = 5.6645272689396 |  erot = 11.7088807610481 | epot = -71.8300434255194 | etot = -54.4566353955318
251000  ekin = 5.86822964772049 |  erot = 11.9472357725875 | epot = -72.2721008161787 | etot = -54.4566353958707
252000  ekin = 6.06424926084265 |  erot = 12.2098996244356 | epot = -72.7307842817964 | etot = -54.4566353965181
253000  ekin = 6.24611969949079 |  erot = 12.4943889560454 | epot = -73.1971440530269 | etot = -54.4566353974907
254000  ekin = 6.4068657770421 |  erot = 12.7940520504516 | epot = -73.6575532262015 | etot = -54.4566353987078
255000  ekin = 6.53934545678292 |  erot = 13.0988013252432 | epot = -74.0947821820346 | etot = -54.4566354000085
256000  ekin = 6.63702718994521 |  erot = 13.3967890648194 | epot = -74.4904516559583 | etot = -54.4566354011937
257000  ekin = 6.69481406277413 |  erot = 13.676395236133 | epot = -74.8278447009719 | etot = -54.4566354020648
258000  ekin = 6.70987363015967 |  erot = 13.9283274305685 | epot = -75.0948364631916 | etot = -54.4566354024634
259000  ekin = 6.68224111902895 |  erot = 14.1473011903233 | epot = -75.2861777117026 | etot = -54.4566354023504
260000  ekin = 6.6149121085381 |  erot = 14.3326259136799 | epot = -75.4041734240351 | etot = -54.4566354018171
261000  ekin = 6.51341628163524 |  erot = 14.4874368525599 | epot = -75.4574885351826 | etot = -54.4566354009875
262000  ekin = 6.38501100285347 |  erot = 14.6175606151456 | epot = -75.459207018044 | etot = -54.4566354000449
263000  ekin = 6.23771961613877 |  erot = 14.7299444235434 | epot = -75.4242994388567 | etot = -54.4566353991745
264000  ekin = 6.07941608333398 |  erot = 14.8311371615597 | epot = -75.3671886433855 | etot = -54.4566353984918
265000  ekin = 5.91710326790405 |  erot = 14.926199726942 | epot = -75.2999383929275 | etot = -54.4566353980815
266000  ekin = 5.75646622878407 |  erot = 15.017979690906 | epot = -75.231081317672 | etot = -54.4566353979818
267000  ekin = 5.60176709254115 |  erot = 15.106656765002 | epot = -75.1650592557273 | etot = -54.4566353981841
268000  ekin = 5.45614222906146 |  erot = 15.189616158016 | epot = -75.1023937856933 | etot = -54.4566353986158
269000  ekin = 5.32233940193201 |  erot = 15.2616013239986 | epot = -75.0405761254131 | etot = -54.4566353994824
270000  ekin = 5.20386526321306 |  erot = 15.313412678491 | epot = -74.9739133416087 | etot = -54.4566353999047
271000  ekin = 5.10636511575734 |  erot = 15.3371670926589 | epot = -74.9001676083476 | etot = -54.4566353999314
272000  ekin = 5.03883267753818 |  erot = 15.3275595144062 | epot = -74.8230275914628 | etot = -54.4566353995184
273000  ekin = 5.01408540358722 |  erot = 15.2821242951832 | epot = -74.7528450973462 | etot = -54.4566353985758
274000  ekin = 5.04781979148557 |  erot = 15.2024861316973 | epot = -74.7069413204901 | etot = -54.4566353973072
275000  ekin = 5.15587366097677 |  erot = 15.0944379866221 | epot = -74.70694704358 | etot = -54.4566353959811
276000  ekin = 5.35005421474681 |  erot = 14.9659067954328 | epot = -74.7725964054904 | etot = -54.4566353953107
277000  ekin = 5.63375697520957 |  erot = 14.823836281555 | epot = -74.9142286522973 | etot = -54.4566353955328
278000  ekin = 5.99906841359137 |  erot = 14.6726954109903 | epot = -75.1283992213119 | etot = -54.4566353967302
279000  ekin = 6.42677541448493 |  erot = 14.5136733620313 | epot = -75.3970841751191 | etot = -54.4566353986028
280000  ekin = 6.88949881397351 |  erot = 14.3457690850598 | epot = -75.6919032996898 | etot = -54.4566354006565
281000  ekin = 7.35667779023817 |  erot = 14.1678579049843 | epot = -75.9811710982574 | etot = -54.4566354030349
282000  ekin = 7.79883836993533 |  erot = 13.9783154933866 | epot = -76.2337892675062 | etot = -54.4566354041843
283000  ekin = 8.19321965983707 |  erot = 13.7803017892201 | epot = -76.4301568535012 | etot = -54.456635404444
284000  ekin = 8.52580258151993 |  erot = 13.5821927274771 | epot = -76.5646307128671 | etot = -54.4566354038701
285000  ekin = 8.79108509960225 |  erot = 13.3960919484842 | epot = -76.6438124507659 | etot = -54.4566354026794
286000  ekin = 8.99063008546271 |  erot = 13.2361528285313 | epot = -76.6834183151731 | etot = -54.4566354011791
287000  ekin = 9.13077921529744 |  erot = 13.1164348721714 | epot = -76.7038494871523 | etot = -54.4566353996835
288000  ekin = 9.22018153921085 |  erot = 13.0487287839798 | epot = -76.7255457216523 | etot = -54.4566353984616
289000  ekin = 9.26763004982218 |  erot = 13.0407273170634 | epot = -76.7649927645828 | etot = -54.4566353976972
290000  ekin = 9.28050533355007 |  erot = 13.094833692554 | epot = -76.8319744235714 | etot = -54.4566353974674
291000  ekin = 9.26393617617635 |  erot = 13.2077741770249 | epot = -76.9283457509549 | etot = -54.4566353977536
292000  ekin = 9.22062696895226 |  erot = 13.3710137562639 | epot = -77.0482761236745 | etot = -54.4566353984584
293000  ekin = 9.15118773751663 |  erot = 13.5717951426594 | epot = -77.1796182796241 | etot = -54.4566353994481
294000  ekin = 9.05474970264756 |  erot = 13.7942987417177 | epot = -77.3056838449919 | etot = -54.4566354006267
295000  ekin = 8.92966682643982 |  erot = 14.0208093015831 | epot = -77.4071115298357 | etot = -54.4566354018128
296000  ekin = 8.7741774127974 |  erot = 14.233571023826 | epot = -77.4643838395654 | etot = -54.4566354029419
297000  ekin = 8.58698226598697 |  erot = 14.4154370340303 | epot = -77.4590547039531 | etot = -54.4566354039359
298000  ekin = 8.36775865344638 |  erot = 14.5506208496152 | epot = -77.3750149077777 | etot = -54.456635404716
299000  ekin = 8.11762616774706 |  erot = 14.6254987182126 | epot = -77.1997602911624 | etot = -54.4566354052028
300000  ekin = 7.83954023620354 |  erot = 14.6294629242916 | epot = -76.9256385658176 | etot = -54.4566354053225
301000  ekin = 7.53854212204199 |  erot = 14.5557510868048 | epot = -76.5509286138768 | etot = -54.45663540503
302000  ekin = 7.22177736042479 |  erot = 14.4020878566552 | epot = -76.0805006213996 | etot = -54.4566354043196
303000  ekin = 6.89822321248548 |  erot = 14.1709638782383 | epot = -75.5258224939627 | etot = -54.4566354032389
304000  ekin = 6.57813083858624 |  erot = 13.869444626723 | epot = -74.9042108671878 | etot = -54.4566354018786
305000  ekin = 6.27226349854785 |  erot = 13.5085175341593 | epot = -74.2374164330628 | etot = -54.4566354003557
306000  ekin = 5.99106804508633 |  erot = 13.1021011111619 | epot = -73.5498045550381 | etot = -54.4566353987898
307000  ekin = 5.74393176217476 |  erot = 12.6659083209143 | epot = -72.8664754803728 | etot = -54.4566353972837
308000  ekin = 5.53864569893524 |  erot = 12.2163535665821 | epot = -72.2116346614262 | etot = -54.4566353959089
309000  ekin = 5.38113513069927 |  erot = 11.7694200620306 | epot = -71.6071905875238 | etot = -54.4566353947939
310000  ekin = 5.27545873877789 |  erot = 11.3397497111436 | epot = -71.0718438437192 | etot = -54.4566353937978
311000  ekin = 5.22395041073499 |  erot = 10.9408344797135 | epot = -70.6214202834639 | etot = -54.4566353930154
312000  ekin = 5.22743903848066 |  erot = 10.5841016939956 | epot = -70.2681761249448 | etot = -54.4566353924685
313000  ekin = 5.28546710256986 |  erot = 10.2783241765307 | epot = -70.0204266712923 | etot = -54.4566353921918
314000  ekin = 5.39643142780609 |  erot = 10.0290048888872 | epot = -69.8820717089236 | etot = -54.4566353922303
315000  ekin = 5.55762409515259 |  erot = 9.83776650484665 | epot = -69.8520259926243 | etot = -54.4566353926251
316000  ekin = 5.76519532362118 |  erot = 9.70186120840598 | epot = -69.9236919254295 | etot = -54.4566353934023
317000  ekin = 6.01409543293347 |  erot = 9.61396213871344 | epot = -70.0846929662005 | etot = -54.4566353945536
318000  ekin = 6.29807297065393 |  erot = 9.562417609845 | epot = -70.3171259765173 | etot = -54.4566353960184
319000  ekin = 6.60980622314066 |  erot = 9.53213013021435 | epot = -70.5985717510309 | etot = -54.4566353976759
320000  ekin = 6.94122281960071 |  erot = 9.50614507367243 | epot = -70.9040032926193 | etot = -54.4566353993461
321000  ekin = 7.28401648903376 |  erot = 9.46788297195031 | epot = -71.208534861796 | etot = -54.4566354008119
322000  ekin = 7.63030660902787 |  erot = 9.40373715745484 | epot = -71.4906791683421 | etot = -54.4566354018594
323000  ekin = 7.97332122461268 |  erot = 9.30554772849007 | epot = -71.7355043554331 | etot = -54.4566354023304
324000  ekin = 8.30794457963839 |  erot = 9.17235846962826 | epot = -71.936938451434 | etot = -54.4566354021673
325000  ekin = 8.63098140949704 |  erot = 9.0109566441418 | epot = -72.0985734550708 | etot = -54.456635401432
326000  ekin = 8.94105719146754 |  erot = 8.83498929956515 | epot = -72.232681891326 | etot = -54.4566354002933
327000  ekin = 9.2381710054864 |  erot = 8.66283136635324 | epot = -72.3576377708286 | etot = -54.4566353989889
328000  ekin = 9.52300348811516 |  erot = 8.5146834839797 | epot = -72.4943223698687 | etot = -54.4566353977739
329000  ekin = 9.79612481313629 |  erot = 8.40948710595072 | epot = -72.6622473159659 | etot = -54.4566353968789
330000  ekin = 10.0572432527195 |  erot = 8.362163518333 | epot = -72.876042167532 | etot = -54.4566353964795
331000  ekin = 10.3046041371655 |  erot = 8.38150606119571 | epot = -73.1427455950476 | etot = -54.4566353966864
332000  ekin = 10.5346182384524 |  erot = 8.46889046679764 | epot = -73.4601441027809 | etot = -54.4566353975309
333000  ekin = 10.7417838215593 |  erot = 8.61787963653054 | epot = -73.8162988570504 | etot = -54.4566353989605
334000  ekin = 10.9189661695317 |  erot = 8.81478419867269 | epot = -74.1903857690307 | etot = -54.4566354008263
335000  ekin = 11.0580923139754 |  erot = 9.0402445035637 | epot = -74.5549722204231 | etot = -54.456635402884
336000  ekin = 11.1512758054914 |  erot = 9.27184425622304 | epot = -74.8797554665151 | etot = -54.4566354048006
337000  ekin = 11.192283410668 |  erot = 9.48758788095734 | epot = -75.1365066978345 | etot = -54.4566354062091
338000  ekin = 11.1781049966217 |  erot = 9.66977867524164 | epot = -75.3045190786432 | etot = -54.4566354067799
339000  ekin = 11.110253074136 |  erot = 9.80853289682954 | epot = -75.3754213772802 | etot = -54.4566354063147
340000  ekin = 10.9953916139861 |  erot = 9.90404205087864 | epot = -75.3560690696778 | etot = -54.4566354048131
341000  ekin = 10.8450335653197 |  erot = 9.96690251907776 | epot = -75.2685714868785 | etot = -54.456635402481
342000  ekin = 10.6743190321388 |  erot = 10.0163513349014 | epot = -75.1473057667194 | etot = -54.4566353996792
343000  ekin = 10.5001667181513 |  erot = 10.0768603504225 | epot = -75.0336624654006 | etot = -54.4566353968268
344000  ekin = 10.3392423699624 |  erot = 10.1739542078182 | epot = -74.9698319720972 | etot = -54.4566353943167
345000  ekin = 10.2061520845065 |  erot = 10.3301605013023 | epot = -74.9929479782598 | etot = -54.4566353924511
346000  ekin = 10.112097481429 |  erot = 10.5617272299193 | epot = -75.1304601027765 | etot = -54.4566353914282
347000  ekin = 10.0640336630298 |  erot = 10.8763584969767 | epot = -75.3970275513628 | etot = -54.4566353913564
348000  ekin = 10.0642411405127 |  erot = 11.2719278614799 | epot = -75.7928043942644 | etot = -54.4566353922718
349000  ekin = 10.1101933212636 |  erot = 11.7360295300956 | epot = -76.3028582455116 | etot = -54.4566353941525
350000  ekin = 10.1946552474004 |  erot = 12.2463088365559 | epot = -76.8975994808581 | etot = -54.4566353969019
351000  ekin = 10.306045543854 |  erot = 12.7716910290039 | epot = -77.5343719731872 | etot = -54.4566354003293
352000  ekin = 10.4291816280409 |  erot = 13.2747779707954 | epot = -78.1605950029443 | etot = -54.456635404108
353000  ekin = 10.5465535663497 |  erot = 13.7156648337578 | epot = -78.718853807879 | etot = -54.4566354077714
354000  ekin = 10.6401856668561 |  erot = 14.0571283974516 | epot = -79.1539494750733 | etot = -54.4566354107656
355000  ekin = 10.6939351373282 |  erot = 14.2705585631452 | epot = -79.421129113035 | etot = -54.4566354125615
356000  ekin = 10.6958108467941 |  erot = 14.3413604466876 | epot = -79.4938067062911 | etot = -54.4566354128094
357000  ekin = 10.639721828255 |  erot = 14.2722433045623 | epot = -79.3686005442783 | etot = -54.456635411461
358000  ekin = 10.5263737986249 |  erot = 14.0832351439808 | epot = -79.0662443502861 | etot = -54.4566354076805
359000  ekin = 10.3671285162277 |  erot = 13.8092183812893 | epot = -78.6329823019411 | etot = -54.4566354044241
360000  ekin = 10.17316577932 |  erot = 13.4915210097222 | epot = -78.1213221900177 | etot = -54.4566354009755
361000  ekin = 9.95567993138924 |  erot = 13.1714056563713 | epot = -77.5837209856608 | etot = -54.4566353979003
362000  ekin = 9.72639985071429 |  erot = 12.8842804433114 | epot = -77.067315689619 | etot = -54.4566353955933
363000  ekin = 9.49607796369749 |  erot = 12.6551764253519 | epot = -76.6078897832975 | etot = -54.456635394248
364000  ekin = 9.27360822633292 |  erot = 12.4965538445838 | epot = -76.2267974647912 | etot = -54.4566353938744
365000  ekin = 9.0656878434669 |  erot = 12.4083291366445 | epot = -75.9306523744536 | etot = -54.4566353943422
366000  ekin = 8.87683460603669 |  erot = 12.3796974185334 | epot = -75.7131674199994 | etot = -54.4566353954294
367000  ekin = 8.7096167114834 |  erot = 12.3921806495176 | epot = -75.5584327578787 | etot = -54.4566353968777
368000  ekin = 8.56493490850766 |  erot = 12.4232160321889 | epot = -75.4447863391428 | etot = -54.4566353984462
369000  ekin = 8.44226817634377 |  erot = 12.4495921416358 | epot = -75.348495717927 | etot = -54.4566353999474
370000  ekin = 8.33986053924033 |  erot = 12.450192287463 | epot = -75.2466882279602 | etot = -54.4566354012569
371000  ekin = 8.25489807014457 |  erot = 12.4078154254081 | epot = -75.119348897848 | etot = -54.4566354022953
372000  ekin = 8.1837680247658 |  erot = 12.310190867959 | epot = -74.9505942957263 | etot = -54.4566354030015
373000  ekin = 8.1224708952436 |  erot = 12.1505028141942 | epot = -74.7296091127515 | etot = -54.4566354033137
374000  ekin = 8.06687702985106 |  erot = 11.927429705507 | epot = -74.4509421386789 | etot = -54.4566354033209
375000  ekin = 8.0136053899695 |  erot = 11.645430301628 | epot = -74.1156710942693 | etot = -54.4566354026719
376000  ekin = 7.96102274026665 |  erot = 11.3151262124852 | epot = -73.7327843543635 | etot = -54.4566354016116
377000  ekin = 7.90863816659117 |  erot = 10.9518631003599 | epot = -73.3171366672237 | etot = -54.4566354002726
378000  ekin = 7.85683990183276 |  erot = 10.5740091031991 | epot = -72.8874844038712 | etot = -54.4566353988393
379000  ekin = 7.80642061178599 |  erot = 10.2007165018144 | epot = -72.4637725111139 | etot = -54.4566353975135
380000  ekin = 7.75811152743384 |  erot = 9.8496139866053 | epot = -72.0643609104786 | etot = -54.4566353964394
381000  ekin = 7.71654925828114 |  erot = 9.53814492422012 | epot = -71.7113295774989 | etot = -54.4566353949976
382000  ekin = 7.68451239863347 |  erot = 9.27843266615603 | epot = -71.4195804598395 | etot = -54.45663539505
383000  ekin = 7.65796830190889 |  erot = 9.07311806362129 | epot = -71.1877217606714 | etot = -54.4566353951412
384000  ekin = 7.63469818489458 |  erot = 8.92246566923042 | epot = -71.0137992492274 | etot = -54.4566353951024
385000  ekin = 7.61503891044967 |  erot = 8.82614106516799 | epot = -70.8978153704589 | etot = -54.4566353948413
386000  ekin = 7.60197533238529 |  erot = 8.78441775442624 | epot = -70.8430284811966 | etot = -54.4566353943851
387000  ekin = 7.60049226510599 |  erot = 8.79836488560014 | epot = -70.8554925445896 | etot = -54.4566353938834
388000  ekin = 7.61629032899055 |  erot = 8.8689023697532 | epot = -70.9418280923105 | etot = -54.4566353935667
389000  ekin = 7.65416483434698 |  erot = 8.9950195746858 | epot = -71.1058198027103 | etot = -54.4566353936776
390000  ekin = 7.71643785888504 |  erot = 9.17173992639597 | epot = -71.3448131796954 | etot = -54.4566353944143
391000  ekin = 7.80181238366649 |  erot = 9.38839302764267 | epot = -71.6468408071618 | etot = -54.4566353958526
392000  ekin = 7.90489923332247 |  erot = 9.62796379831632 | epot = -71.9894984295676 | etot = -54.4566353979288
393000  ekin = 8.01655002691858 |  erot = 9.86772713454984 | epot = -72.3409125619011 | etot = -54.4566354004327
394000  ekin = 8.12497584792011 |  erot = 10.0812703662914 | epot = -72.662881617248 | etot = -54.4566354030366
395000  ekin = 8.2174716208145 |  erot = 10.2416533823477 | epot = -72.9157604085161 | etot = -54.4566354053539
396000  ekin = 8.2824383224774 |  erot = 10.3253672880818 | epot = -73.0644410175194 | etot = -54.4566354069602
397000  ekin = 8.31132698802442 |  erot = 10.3159962168273 | epot = -73.0839586125428 | etot = -54.456635407691
398000  ekin = 8.30014555011519 |  erot = 10.206120512026 | epot = -72.9629014694186 | etot = -54.4566354072774
399000  ekin = 8.2502366708628 |  erot = 9.99952429134871 | epot = -72.7063963681449 | etot = -54.4566354059334
400000  ekin = 8.1681866367312 |  erot = 9.70984792287219 | epot = -72.3346699633647 | etot = -54.4566354037613
401000  ekin = 8.06443767762594 |  erot = 9.35851558615808 | epot = -71.8795886650977 | etot = -54.4566354013137
402000  ekin = 7.95182608081662 |  erot = 8.97220739200882 | epot = -71.3806688712322 | etot = -54.4566353984067
403000  ekin = 7.84544588741641 |  erot = 8.57990607062258 | epot = -70.8819873536886 | etot = -54.4566353956496
404000  ekin = 7.75991092033335 |  erot = 8.20916918182752 | epot = -70.4257154955327 | etot = -54.4566353933718
405000  ekin = 7.70721158904269 |  erot = 7.88394698602643 | epot = -70.047793966617 | etot = -54.4566353915479
406000  ekin = 7.69666260474901 |  erot = 7.62282033660503 | epot = -69.7761183316813 | etot = -54.4566353903273
407000  ekin = 7.7350040209002 |  erot = 7.43821712170258 | epot = -69.6298565323385 | etot = -54.4566353897357
408000  ekin = 7.82558122097257 |  erot = 7.33626935411989 | epot = -69.6184859648542 | etot = -54.4566353897618
409000  ekin = 7.96830915348111 |  erot = 7.31687210469156 | epot = -69.7418166485681 | etot = -54.4566353903955
410000  ekin = 8.15969424373301 |  erot = 7.37386951086162 | epot = -69.9901991462101 | etot = -54.4566353916155
411000  ekin = 8.39287612484659 |  erot = 7.49540270153548 | epot = -70.3449142197616 | etot = -54.4566353933795
412000  ekin = 8.65774455619527 |  erot = 7.66457893931484 | epot = -70.7789588911044 | etot = -54.4566353955943
413000  ekin = 8.94129116530325 |  erot = 7.86068273350687 | epot = -71.258609296898 | etot = -54.4566353980879
414000  ekin = 9.22842184777222 |  erot = 8.06113294632612 | epot = -71.7461901946816 | etot = -54.4566354005832
415000  ekin = 9.50339868561016 |  erot = 8.24420492650161 | epot = -72.2042390148415 | etot = -54.4566354027298
416000  ekin = 9.75183806738326 |  erot = 8.39218393331151 | epot = -72.6006574048789 | etot = -54.4566354041842
417000  ekin = 9.9628320827581 |  erot = 8.49422554923714 | epot = -72.9136930367169 | etot = -54.4566354047217
418000  ekin = 10.1305167323595 |  erot = 8.54790138251185 | epot = -73.1350535191826 | etot = -54.4566354043112
419000  ekin = 10.2545191073023 |  erot = 8.55932055564976 | epot = -73.270475066081 | etot = -54.4566354031289
420000  ekin = 10.3391601305845 |  erot = 8.54147699792933 | epot = -73.3372725299946 | etot = -54.4566354014807
421000  ekin = 10.3917847643115 |  erot = 8.51147867525398 | epot = -73.3598988392543 | etot = -54.4566353996888
422000  ekin = 10.4208099208918 |  erot = 8.4877596621653 | epot = -73.3652049810802 | etot = -54.4566353980231
423000  ekin = 10.4339704342082 |  erot = 8.48766818012622 | epot = -73.3782740110689 | etot = -54.4566353967345
424000  ekin = 10.4369827822117 |  erot = 8.52566990469129 | epot = -73.4192880827333 | etot = -54.4566353958303
425000  ekin = 10.4323601115191 |  erot = 8.61251346626977 | epot = -73.5015091924224 | etot = -54.4566356146335
426000  ekin = 10.1026717198751 |  erot = 8.31096137628217 | epot = -72.8702682878912 | etot = -54.4566351917339
427000  ekin = 10.5734553943682 |  erot = 8.79632347543578 | epot = -73.8264144771792 | etot = -54.4566356073752
428000  ekin = 10.6072422295385 |  erot = 9.02803563913991 | epot = -74.0919131525333 | etot = -54.4566352838549
429000  ekin = 10.5962603681844 |  erot = 9.29488255867862 | epot = -74.3477782125074 | etot = -54.4566352856444
430000  ekin = 10.5389594927131 |  erot = 9.58934591829317 | epot = -74.5849406986421 | etot = -54.4566352876359
431000  ekin = 10.4245953942776 |  erot = 9.89238704681948 | epot = -74.7736177306457 | etot = -54.4566352895486
432000  ekin = 10.245696886456 |  erot = 10.1829761184383 | epot = -74.8853082959497 | etot = -54.4566352910554
433000  ekin = 10.0003056146292 |  erot = 10.4407089711134 | epot = -74.8976498775905 | etot = -54.456635291848
434000  ekin = 9.69371342948773 |  erot = 10.6486269472888 | epot = -74.7989756684881 | etot = -54.4566352917115
435000  ekin = 9.33916315685611 |  erot = 10.7956251646109 | epot = -74.5914236120697 | etot = -54.4566352906027
436000  ekin = 8.95712875742735 |  erot = 10.8778397412534 | epot = -74.2916037873504 | etot = -54.4566352886697
437000  ekin = 8.57313769393175 |  erot = 10.8986617406356 | epot = -73.9284347207896 | etot = -54.4566352862222
438000  ekin = 8.21453260376657 |  erot = 10.8674634356771 | epot = -73.5386313230875 | etot = -54.4566352836438
439000  ekin = 7.90690315351327 |  erot = 10.7975428309107 | epot = -73.1610812657124 | etot = -54.4566352812884
440000  ekin = 7.6709950562787 |  erot = 10.7039809990724 | epot = -72.8316113347451 | etot = -54.4566352793941
441000  ekin = 7.52069557968595 |  erot = 10.6019760377327 | epot = -72.5793068954817 | etot = -54.4566352780631
442000  ekin = 7.46231680922547 |  erot = 10.5058607974097 | epot = -72.4248128839192 | etot = -54.4566352772841
443000  ekin = 7.49502555660675 |  erot = 10.4286364553075 | epot = -72.3802972888998 | etot = -54.4566352769855
444000  ekin = 7.61203666089189 |  erot = 10.3816439307591 | epot = -72.4503158687455 | etot = -54.4566352770945
445000  ekin = 7.80213707906526 |  erot = 10.3740191034624 | epot = -72.6327914600963 | etot = -54.4566352775686
446000  ekin = 8.05120889605329 |  erot = 10.411793260142 | epot = -72.9196374345791 | etot = -54.4566352783837
447000  ekin = 8.34362619155195 |  erot = 10.4967971423188 | epot = -73.2970586134515 | etot = -54.4566352795808
448000  ekin = 8.66322518430969 |  erot = 10.6255592268213 | epot = -73.745419692246 | etot = -54.4566352811151
449000  ekin = 8.99429132589985 |  erot = 10.788857275459 | epot = -74.2397838842748 | etot = -54.456635282916
450000  ekin = 9.32243048437278 |  erot = 10.9721164674744 | epot = -74.7511822366959 | etot = -54.4566352848487
451000  ekin = 9.63533692189911 |  erot = 11.156756002054 | epot = -75.2487282106873 | etot = -54.4566352867343
452000  ekin = 9.92346130381757 |  erot = 11.3223196777254 | epot = -75.7024162699076 | etot = -54.4566352883646
453000  ekin = 10.1805259141491 |  erot = 11.4490169495349 | epot = -76.08617815326 | etot = -54.456635289576
454000  ekin = 10.4037354722937 |  erot = 11.5200589234786 | epot = -76.3804296860442 | etot = -54.4566352902719
455000  ekin = 10.5935831355321 |  erot = 11.5233067080518 | epot = -76.573525134034 | etot = -54.4566352904502
456000  ekin = 10.7532212609292 |  erot = 11.4519763299573 | epot = -76.661832881081 | etot = -54.4566352901944
457000  ekin = 10.8874570866201 |  erot = 11.304441066212 | epot = -76.6485334424715 | etot = -54.4566352896394
458000  ekin = 11.0015355382719 |  erot = 11.0834241212114 | epot = -76.541594948426 | etot = -54.4566352889428
459000  ekin = 11.0999318012795 |  erot = 10.7949138906133 | epot = -76.3514809801242 | etot = -54.4566352882314
460000  ekin = 11.185377739659 |  erot = 10.4471286620219 | epot = -76.0891416892845 | etot = -54.4566352876037
461000  ekin = 11.258231340308 |  erot = 10.0496701056143 | epot = -75.7645367330242 | etot = -54.4566352871019
462000  ekin = 11.3163274976769 |  erot = 9.61299797023347 | epot = -75.385960754631 | etot = -54.4566352867206
463000  ekin = 11.3552632497945 |  erot = 9.14812026271252 | epot = -74.9600187989452 | etot = -54.4566352864381
464000  ekin = 11.3690273085563 |  erot = 8.66637468807761 | epot = -74.4920372828284 | etot = -54.4566352861945
465000  ekin = 11.3509265610548 |  erot = 8.17938417024519 | epot = -73.9869460172089 | etot = -54.4566352859089
466000  ekin = 11.2946971057441 |  erot = 7.69907577472872 | epot = -73.4504081660039 | etot = -54.4566352855311
467000  ekin = 11.1955035374656 |  erot = 7.23752069346309 | epot = -72.8896595159555 | etot = -54.4566352850269
468000  ekin = 11.050822539511 |  erot = 6.80654240242827 | epot = -72.3140002263333 | etot = -54.4566352843941
469000  ekin = 10.86114406671 |  erot = 6.41707429380281 | epot = -71.7348536441655 | etot = -54.4566352836527
470000  ekin = 10.6304433621366 |  erot = 6.07835039051584 | epot = -71.1654290354893 | etot = -54.4566352828368
471000  ekin = 10.3664443931402 |  erot = 5.79710085709561 | epot = -70.6201805322111 | etot = -54.4566352819752
472000  ekin = 10.0806478860474 |  erot = 5.57696288908532 | epot = -70.1142460562275 | etot = -54.4566352810949
473000  ekin = 9.78800246195651 |  erot = 5.41826188422999 | epot = -69.6628996264136 | etot = -54.4566352802271
474000  ekin = 9.50601286877946 |  erot = 5.31820281474071 | epot = -69.2808509629562 | etot = -54.456635279436
475000  ekin = 9.25312250159259 |  erot = 5.27140899122385 | epot = -68.981166771632 | etot = -54.4566352788155
476000  ekin = 9.04645385403574 |  erot = 5.27070679329708 | epot = -68.7737959257985 | etot = -54.4566352784657
477000  ekin = 8.89934302897966 |  erot = 5.30806431670584 | epot = -68.664042624141 | etot = -54.4566352784555
478000  ekin = 8.81931824251968 |  erot = 5.37557918610962 | epot = -68.6515327074266 | etot = -54.4566352787973
479000  ekin = 8.80699076959439 |  erot = 5.46633303732314 | epot = -68.7299590863708 | etot = -54.4566352794532
480000  ekin = 8.85601818726949 |  erot = 5.57490002076701 | epot = -68.8875534883974 | etot = -54.4566352803609
481000  ekin = 8.95429342118332 |  erot = 5.69751011508116 | epot = -69.1084388177255 | etot = -54.456635281461
482000  ekin = 9.08517946645072 |  erot = 5.83167729002761 | epot = -69.3734920391816 | etot = -54.4566352827033
483000  ekin = 9.22909607276365 |  erot = 5.97557873339551 | epot = -69.6613100901915 | etot = -54.4566352840323
484000  ekin = 9.36521899372269 |  erot = 6.12745864218488 | epot = -69.9493129212799 | etot = -54.4566352853723
485000  ekin = 9.47322485683509 |  erot = 6.28523994694603 | epot = -70.215100090408 | etot = -54.4566352866269
486000  ekin = 9.53500494319618 |  erot = 6.44644593217249 | epot = -70.4380861630537 | etot = -54.456635287685
487000  ekin = 9.53619997079524 |  erot = 6.60840812030772 | epot = -70.60124337955 | etot = -54.456635288447
488000  ekin = 9.46736165753982 |  erot = 6.76862588122827 | epot = -70.6926228276161 | etot = -54.456635288848
489000  ekin = 9.32457274797106 |  erot = 6.92507571371354 | epot = -70.7062837505591 | etot = -54.4566352888745
490000  ekin = 9.10946474824588 |  erot = 7.07632195430853 | epot = -70.6424219911205 | etot = -54.4566352885661
491000  ekin = 8.82888029926538 |  erot = 7.22128416903702 | epot = -70.5067997559143 | etot = -54.4566352876119
492000  ekin = 8.49626753098065 |  erot = 7.35784727800537 | epot = -70.310750096053 | etot = -54.456635287067
493000  ekin = 8.1248527430003 |  erot = 7.48341898212076 | epot = -70.0649070115298 | etot = -54.4566352864087
494000  ekin = 7.72891988561606 |  erot = 7.594896974988 | epot = -69.7804521462887 | etot = -54.4566352856847
495000  ekin = 7.32464765069171 |  erot = 7.68832902470749 | epot = -69.4696119585252 | etot = -54.456635283126
496000  ekin = 6.87909737983938 |  erot = 7.73460610289615 | epot = -69.0703390393874 | etot = -54.4566355566519
497000  ekin = 6.10749796783306 |  erot = 7.42289860775864 | epot = -67.9870318122161 | etot = -54.4566352366244
498000  ekin = 6.8223384553338 |  erot = 7.45240806496291 | epot = -68.7313820537625 | etot = -54.4566355334658
499000  ekin = 6.94585811355033 |  erot = 7.49819185265535 | epot = -68.9006852433609 | etot = -54.4566352771552
500000  ekin = 6.96877722036869 |  erot = 7.49002786304807 | epot = -68.9154403630746 | etot = -54.4566352796579
501000  ekin = 7.01880112773725 |  erot = 7.44438420076744 | epot = -68.9198206071064 | etot = -54.4566352786017
502000  ekin = 7.10331622209194 |  erot = 7.3681739431656 | epot = -68.9281254425242 | etot = -54.4566352772666
503000  ekin = 7.22893470364811 |  erot = 7.27368415101028 | epot = -68.9592541304816 | etot = -54.4566352758232
504000  ekin = 7.40053482834623 |  erot = 7.17754137262058 | epot = -69.0347114753891 | etot = -54.4566352744222
505000  ekin = 7.620702806129 |  erot = 7.09829571792874 | epot = -69.1756337972824 | etot = -54.4566352732246
506000  ekin = 7.8891584943945 |  erot = 7.05445199996171 | epot = -69.4002457667284 | etot = -54.4566352723722
507000  ekin = 8.20246554171515 |  erot = 7.06247440845856 | epot = -69.7215752221428 | etot = -54.4566352719691
508000  ekin = 8.55413799383062 |  erot = 7.13504955838413 | epot = -70.1458228242684 | etot = -54.4566352720537
509000  ekin = 8.93516686126007 |  erot = 7.27981823673083 | epot = -70.6716203706044 | etot = -54.4566352726135
510000  ekin = 9.33485927282882 |  erot = 7.49868525981083 | epot = -71.2901798062273 | etot = -54.4566352735876
511000  ekin = 9.74175973587721 |  erot = 7.78771907258941 | epot = -71.9861140833685 | etot = -54.4566352749019
512000  ekin = 10.1443557396928 |  erot = 8.13756756500318 | epot = -72.7385585811883 | etot = -54.4566352764922
513000  ekin = 10.5313126056699 |  erot = 8.53426169204685 | epot = -73.5222095760326 | etot = -54.4566352783158
514000  ekin = 10.8911780109873 |  erot = 8.96028799858001 | epot = -74.3081012899077 | etot = -54.4566352803403
515000  ekin = 11.2118156252179 |  erot = 9.39590120044802 | epot = -75.0643521081583 | etot = -54.4566352824925
516000  ekin = 11.4801179010227 |  erot = 9.82075584956387 | epot = -75.7575090351961 | etot = -54.4566352846096
517000  ekin = 11.6825443563144 |  erot = 10.2159440472245 | epot = -76.3551236899727 | etot = -54.4566352864338
518000  ekin = 11.8066489253373 |  erot = 10.5663121117384 | epot = -76.8295963247492 | etot = -54.4566352876736
519000  ekin = 11.8431629051622 |  erot = 10.8625994980096 | epot = -77.1623976912762 | etot = -54.4566352881044
520000  ekin = 11.7878575690797 |  erot = 11.1027449902058 | epot = -77.3472378469657 | etot = -54.4566352876802
521000  ekin = 11.6423174236629 |  erot = 11.29193106552 | epot = -77.3908837756855 | etot = -54.4566352865025
522000  ekin = 11.4136719884741 |  erot = 11.4412637557161 | epot = -77.3115710289993 | etot = -54.4566352848091
523000  ekin = 11.1134246219281 |  erot = 11.5654340582746 | epot = -77.1354939631016 | etot = -54.456635282899
524000  ekin = 10.7557913149077 |  erot = 11.6798454532603 | epot = -76.8922720492505 | etot = -54.4566352810825
525000  ekin = 10.3559612263718 |  erot = 11.7976117586443 | epot = -76.6102082646594 | etot = -54.4566352796433
526000  ekin = 9.92854976444486 |  erot = 11.9267667903689 | epot = -76.3119518336127 | etot = -54.4566352787989
527000  ekin = 9.48645866346676 |  erot = 12.0680840250121 | epot = -76.0111779671406 | etot = -54.4566352786618
528000  ekin = 9.04033350014003 |  erot = 12.2139583839317 | epot = -75.7109271632676 | etot = -54.4566352791959
529000  ekin = 8.59873443632333 |  erot = 12.3488338467362 | epot = -75.4042035632559 | etot = -54.4566352801964
530000  ekin = 8.16898173779832 |  erot = 12.4514660033289 | epot = -75.0770830224439 | etot = -54.4566352813166
531000  ekin = 7.75842341266217 |  erot = 12.4988592010136 | epot = -74.7139178958228 | etot = -54.4566352821471
532000  ekin = 7.37569471991213 |  erot = 12.4711371154282 | epot = -74.3034671176647 | etot = -54.4566352823243
533000  ekin = 7.03150209878443 |  erot = 12.3561420075346 | epot = -73.8442793879667 | etot = -54.4566352816476
534000  ekin = 6.73861037988931 |  erot = 12.1525081131711 | epot = -73.3477537731904 | etot = -54.45663528013
535000  ekin = 6.51098179615119 |  erot = 11.8704212665668 | epot = -72.8380383407013 | etot = -54.4566352779833
536000  ekin = 6.36227279688875 |  erot = 11.5300349542147 | epot = -72.3489430266505 | etot = -54.456635275547
537000  ekin = 6.30402397008893 |  erot = 11.1595690920527 | epot = -71.9202283348878 | etot = -54.4566352727462
538000  ekin = 6.34384912539326 |  erot = 10.7903690893075 | epot = -71.5908534856437 | etot = -54.456635270943
539000  ekin = 6.48387052849282 |  erot = 10.449318947169 | epot = -71.3898247455974 | etot = -54.4566352699356
540000  ekin = 6.71957140286 |  erot = 10.1578313306127 | epot = -71.3340380034084 | etot = -54.4566352699357
541000  ekin = 7.03922441471471 |  erot = 9.92917206920205 | epot = -71.425031754947 | etot = -54.4566352710303
542000  ekin = 7.42406000054681 |  erot = 9.7668871120603 | epot = -71.6475823857676 | etot = -54.4566352731605
543000  ekin = 7.8493023531804 |  erot = 9.66461535275778 | epot = -71.9705529820422 | etot = -54.4566352761041
544000  ekin = 8.28608775689842 |  erot = 9.60744188180074 | epot = -72.3501649181947 | etot = -54.4566352794955
545000  ekin = 8.70408689278687 |  erot = 9.57468499690642 | epot = -72.7354071725678 | etot = -54.4566352828746
546000  ekin = 9.07450055253648 |  erot = 9.54373584492586 | epot = -73.07487168323 | etot = -54.4566352857677
547000  ekin = 9.37295630422306 |  erot = 9.49419334511057 | epot = -73.3237849371211 | etot = -54.4566352877874
548000  ekin = 9.58182570226534 |  erot = 9.41137262818507 | epot = -73.4498336191623 | etot = -54.4566352887119
549000  ekin = 9.69160120899948 |  erot = 9.288405596616 | epot = -73.4366420941315 | etot = -54.4566352885161
550000  ekin = 9.70118406830511 |  erot = 9.12701779123922 | epot = -73.2848371467454 | etot = -54.4566352872011
551000  ekin = 9.61716955377869 |  erot = 8.93605057969941 | epot = -73.0098554188361 | etot = -54.456635285358
552000  ekin = 9.45239020385166 |  erot = 8.72803660183396 | epot = -72.6370620888035 | etot = -54.4566352831179
553000  ekin = 9.2240812648701 |  erot = 8.51766004434715 | epot = -72.1983765899684 | etot = -54.4566352807511
554000  ekin = 8.95200493899196 |  erot = 8.31967116939608 | epot = -71.7283113868479 | etot = -54.4566352784598
555000  ekin = 8.65679189107807 |  erot = 8.14750332104929 | epot = -71.2609304884951 | etot = -54.4566352763678
556000  ekin = 8.35857893219484 |  erot = 8.01260395508868 | epot = -70.8278181618281 | etot = -54.4566352745446
557000  ekin = 8.07596711126812 |  erot = 7.92430276672875 | epot = -70.4569051510142 | etot = -54.4566352730173
558000  ekin = 7.82526545931107 |  erot = 7.88998546795382 | epot = -70.1718861990647 | etot = -54.4566352717999
559000  ekin = 7.61992228153161 |  erot = 7.91527958484657 | epot = -69.9918371372954 | etot = -54.4566352709172
560000  ekin = 7.47007181068654 |  erot = 8.00405379786488 | epot = -69.9307608789601 | etot = -54.4566352704086
561000  ekin = 7.38215855425466 |  erot = 8.15814566484878 | epot = -69.9969394894308 | etot = -54.4566352703273
562000  ekin = 7.35865871746505 |  erot = 8.37688060997226 | epot = -70.192174598151 | etot = -54.4566352707137
563000  ekin = 7.39798626084945 |  erot = 8.65660065502576 | epot = -70.5112221874459 | etot = -54.4566352715707
564000  ekin = 7.49472571183601 |  erot = 8.99052373941851 | epot = -70.9418847240798 | etot = -54.4566352728253
565000  ekin = 7.64032956783369 |  erot = 9.36943411102764 | epot = -71.4663989531132 | etot = -54.4566352742518
566000  ekin = 7.82430710587938 |  erot = 9.78260719502216 | epot = -72.0635495767252 | etot = -54.4566352758236
567000  ekin = 8.03571605971452 |  erot = 10.2184542007834 | epot = -72.7108055377923 | etot = -54.4566352772944
568000  ekin = 8.26456312039748 |  erot = 10.665997223562 | epot = -73.3871956225684 | etot = -54.4566352786089
569000  ekin = 8.50272301774751 |  erot = 11.1149437632744 | epot = -74.0743020608117 | etot = -54.4566352797898
570000  ekin = 8.74355516144858 |  erot = 11.554502920604 | epot = -74.7546933635585 | etot = -54.456635281506
571000  ekin = 8.98090334155492 |  erot = 11.9725583583672 | epot = -75.4100969832648 | etot = -54.4566352833427
572000  ekin = 9.2082873836897 |  erot = 12.356036477509 | epot = -76.0209591455829 | etot = -54.4566352843841
573000  ekin = 9.42081793455992 |  erot = 12.6951950119417 | epot = -76.5726482312271 | etot = -54.4566352847255
574000  ekin = 9.61839098683161 |  erot = 12.987675719223 | epot = -77.0627019900489 | etot = -54.4566352839943
575000  ekin = 9.8053207114464 |  erot = 13.2416249343119 | epot = -77.5035809281287 | etot = -54.4566352823704
576000  ekin = 9.99002522865977 |  erot = 13.4728181322991 | epot = -77.9194786412667 | etot = -54.4566352803078
577000  ekin = 10.1832012886898 |  erot = 13.6997981601504 | epot = -78.3396347273587 | etot = -54.4566352785186
578000  ekin = 10.3950145220004 |  erot = 13.9374358143628 | epot = -78.7890856136916 | etot = -54.4566352773284
579000  ekin = 10.6321657048067 |  erot = 14.1940413546622 | epot = -79.2828423366299 | etot = -54.456635277161
580000  ekin = 10.8955063623585 |  erot = 14.4691297491996 | epot = -79.8212713896975 | etot = -54.4566352781394
581000  ekin = 11.1784960138876 |  erot = 14.7531280290353 | epot = -80.3882593231847 | etot = -54.4566352802618
582000  ekin = 11.466649890903 |  erot = 15.0284667683102 | epot = -80.9517519424562 | etot = -54.456635283243
583000  ekin = 11.7382109395759 |  erot = 15.2729975156372 | epot = -81.46784374194 | etot = -54.4566352867269
584000  ekin = 11.9663900039709 |  erot = 15.4635948123567 | epot = -81.8866201064609 | etot = -54.4566352901333
585000  ekin = 12.1233421755881 |  erot = 15.5804670946604 | epot = -82.160444563015 | etot = -54.4566352927665
586000  ekin = 12.1853975661735 |  erot = 15.6117625736168 | epot = -82.2537954337851 | etot = -54.4566352939948
587000  ekin = 12.1382713601941 |  erot = 15.5570038313302 | epot = -82.1519104850123 | etot = -54.456635293488
588000  ekin = 11.9805642896439 |  erot = 15.4278527969017 | epot = -81.8650523779254 | etot = -54.4566352913799
589000  ekin = 11.7242102225958 |  erot = 15.2454372701353 | epot = -81.4262827809805 | etot = -54.4566352882494
590000  ekin = 11.3915725976128 |  erot = 15.0348737081542 | epot = -80.8830815906766 | etot = -54.4566352849096
591000  ekin = 11.0102189263756 |  erot = 14.8189389013234 | epot = -80.2857931097779 | etot = -54.4566352820789
592000  ekin = 10.607391880722 |  erot = 14.6132844347576 | epot = -79.6773115955935 | etot = -54.456635280114
593000  ekin = 10.2062007299119 |  erot = 14.4247656797278 | epot = -79.0876016885973 | etot = -54.4566352789576
594000  ekin = 9.8244107941942 |  erot = 14.2527059307027 | epot = -78.5337520032326 | etot = -54.4566352783357
595000  ekin = 9.4751657623942 |  erot = 14.0913483028674 | epot = -78.0231493432885 | etot = -54.4566352780269
596000  ekin = 9.16820839960829 |  erot = 13.9315742319822 | epot = -77.556417909575 | etot = -54.4566352779845
597000  ekin = 8.91058714548235 |  erot = 13.7613090155275 | epot = -77.1285314392662 | etot = -54.4566352782563
598000  ekin = 8.7067575239535 |  erot = 13.565617791176 | epot = -76.7290105939553 | etot = -54.4566352788258
599000  ekin = 8.55850888714088 |  erot = 13.3279192983947 | epot = -76.3430634650727 | etot = -54.4566352795371
600000  ekin = 8.46506040530667 |  erot = 13.0357131362851 | epot = -75.9574088200021 | etot = -54.4566352784104
601000  ekin = 8.42304118578906 |  erot = 12.6867916099869 | epot = -75.566468075072 | etot = -54.4566352792961
602000  ekin = 8.42687753936552 |  erot = 12.2731929910378 | epot = -75.1567058099478 | etot = -54.4566352795445
603000  ekin = 8.4695384899465 |  erot = 11.797098713486 | epot = -74.7232724826155 | etot = -54.456635279183
604000  ekin = 8.54275438847601 |  erot = 11.2715335231716 | epot = -74.2709231900193 | etot = -54.4566352783717
605000  ekin = 8.63734562583982 |  erot = 10.7175531247483 | epot = -73.8115340279045 | etot = -54.4566352773163
606000  ekin = 8.7438013028547 |  erot = 10.1605162228263 | epot = -73.3609528018798 | etot = -54.4566352761988
607000  ekin = 8.85309694757045 |  erot = 9.62647077148101 | epot = -72.9362029941963 | etot = -54.4566352751448
608000  ekin = 8.95762756595134 |  erot = 9.13922005193509 | epot = -72.5534828920879 | etot = -54.4566352742015
609000  ekin = 9.05200869449805 |  erot = 8.71853436573584 | epot = -72.2271783337178 | etot = -54.4566352734839
610000  ekin = 9.13354825725741 |  erot = 8.37878256427127 | epot = -71.9689660943683 | etot = -54.4566352728396
611000  ekin = 9.20214054253594 |  erot = 8.1292053216989 | epot = -71.7879811366928 | etot = -54.4566352724579
612000  ekin = 9.25952066990905 |  erot = 7.97330837182916 | epot = -71.6894643141582 | etot = -54.45663527242
613000  ekin = 9.30803502782429 |  erot = 7.90865833531061 | epot = -71.6733286359623 | etot = -54.4566352728274
614000  ekin = 9.34916711094965 |  erot = 7.92697148192955 | epot = -71.732773866643 | etot = -54.4566352737638
615000  ekin = 9.38224690750502 |  erot = 8.01444322716698 | epot = -71.8533254097658 | etot = -54.4566352750938
616000  ekin = 9.40371294252271 |  erot = 8.15314542837713 | epot = -72.0134936479267 | etot = -54.4566352770269
617000  ekin = 9.40764668982314 |  erot = 8.32057787067663 | epot = -72.1848598396912 | etot = -54.4566352791914
618000  ekin = 9.38714075160868 |  erot = 8.49215030180821 | epot = -72.3359263346812 | etot = -54.4566352812643
619000  ekin = 9.33636921849528 |  erot = 8.64420325442949 | epot = -72.437207755803 | etot = -54.4566352828783
620000  ekin = 9.25285403025117 |  erot = 8.75716147301268 | epot = -72.4666507869722 | etot = -54.4566352837083
621000  ekin = 9.13928884697163 |  erot = 8.81846717425121 | epot = -72.4143913047736 | etot = -54.4566352835508
622000  ekin = 9.00442091794227 |  erot = 8.82459164771617 | epot = -72.2856478480408 | etot = -54.4566352823824
623000  ekin = 8.86274189508419 |  erot = 8.78159561803589 | epot = -72.1009727932407 | etot = -54.4566352801206
624000  ekin = 8.73276401800715 |  erot = 8.70595407666082 | epot = -71.8953533724822 | etot = -54.4566352778143
625000  ekin = 8.63399867890784 |  erot = 8.618212469755 | epot = -71.7088464239378 | etot = -54.4566352752749
626000  ekin = 8.58565910354917 |  erot = 8.53996947435426 | epot = -71.5822638507735 | etot = -54.4566352728701
627000  ekin = 8.60437912917914 |  erot = 8.49303514267052 | epot = -71.5540495427944 | etot = -54.4566352709448
628000  ekin = 8.70176554878871 |  erot = 8.49648522566346 | epot = -71.6548860443256 | etot = -54.4566352698734
629000  ekin = 8.88261620993874 |  erot = 8.5635071725507 | epot = -71.9027586522013 | etot = -54.4566352697118
630000  ekin = 9.14296246573492 |  erot = 8.70076359816389 | epot = -72.3003613345725 | etot = -54.4566352706737
631000  ekin = 9.46887704354127 |  erot = 8.90689930706844 | epot = -72.8324116238796 | etot = -54.4566352732699
632000  ekin = 9.83363185826934 |  erot = 9.17168072088574 | epot = -73.4619478556477 | etot = -54.4566352764926
633000  ekin = 10.2053124154562 |  erot = 9.47717112296441 | epot = -74.1391188185588 | etot = -54.4566352801382
634000  ekin = 10.5495376010831 |  erot = 9.80182933657188 | epot = -74.8080022212184 | etot = -54.4566352835635
635000  ekin = 10.8340816739443 |  erot = 10.1250818406842 | epot = -75.4157988007395 | etot = -54.456635286111
636000  ekin = 11.0341363466738 |  erot = 10.4317241828331 | epot = -75.9224958167892 | etot = -54.4566352872823
637000  ekin = 11.1362536303687 |  erot = 10.7150791019426 | epot = -76.3079680193872 | etot = -54.4566352870759
638000  ekin = 11.1393407345868 |  erot = 10.9767172064 | epot = -76.5726932267163 | etot = -54.4566352857295
639000  ekin = 11.0528857655549 |  erot = 11.224562529706 | epot = -76.7340835789804 | etot = -54.4566352837195
640000  ekin = 10.893283375067 |  erot = 11.4701066828315 | epot = -76.8200253394105 | etot = -54.456635281512
641000  ekin = 10.6798604052081 |  erot = 11.7256640733954 | epot = -76.862159758033 | etot = -54.4566352794294
642000  ekin = 10.4319158115154 |  erot = 12.0024358075463 | epot = -76.8909868967299 | etot = -54.4566352776682
643000  ekin = 10.166953187212 |  erot = 12.3092359597876 | epot = -76.9328244231824 | etot = -54.4566352761827
644000  ekin = 9.90018316847719 |  erot = 12.6520525446443 | epot = -77.0088709883795 | etot = -54.4566352752581
645000  ekin = 9.64412813643454 |  erot = 13.0323474006439 | epot = -77.1331108120166 | etot = -54.4566352749382
646000  ekin = 9.40844464391873 |  erot = 13.4458998080393 | epot = -77.3109797269726 | etot = -54.4566352750145
647000  ekin = 9.1999884291585 |  erot = 13.8831906422816 | epot = -77.5398143472699 | etot = -54.4566352758298
648000  ekin = 9.02196759880059 |  erot = 14.327906247855 | epot = -77.8065091239739 | etot = -54.4566352773183
649000  ekin = 8.87356627779062 |  erot = 14.7574673823316 | epot = -78.0876689395909 | etot = -54.4566352794687
650000  ekin = 8.74956009132211 |  erot = 15.1439160026326 | epot = -78.3501113761364 | etot = -54.4566352821817
651000  ekin = 8.64036637406831 |  erot = 15.4556053528726 | epot = -78.552607012193 | etot = -54.456635285252
652000  ekin = 8.53277201870684 |  erot = 15.6598310256854 | epot = -78.6492383327263 | etot = -54.456635288334
653000  ekin = 8.41160402390922 |  erot = 15.7264979165626 | epot = -78.5947372314111 | etot = -54.4566352909393
654000  ekin = 8.26240952718729 |  erot = 15.6326986256784 | epot = -78.3517434454054 | etot = -54.4566352925398
655000  ekin = 8.07475580658865 |  erot = 15.3674488766353 | epot = -77.8988399757855 | etot = -54.4566352925616
656000  ekin = 7.8558568329232 |  erot = 14.9355978465144 | epot = -77.2480902330833 | etot = -54.4566355536457
657000  ekin = 6.26754941237541 |  erot = 14.5622178162966 | epot = -75.2864023129602 | etot = -54.4566350842882
658000  ekin = 6.04146739777421 |  erot = 14.8336076395965 | epot = -75.3317103840911 | etot = -54.4566353467204
659000  ekin = 6.38604373424062 |  erot = 14.3792060567779 | epot = -75.2218852652085 | etot = -54.4566354741899
660000  ekin = 6.5180692366814 |  erot = 13.6089213615818 | epot = -74.5836260719848 | etot = -54.4566354737216
661000  ekin = 6.66094978027865 |  erot = 12.8243584228285 | epot = -73.9419436733274 | etot = -54.4566354702202
662000  ekin = 6.81847461883994 |  erot = 12.0687190077668 | epot = -73.3438290942705 | etot = -54.4566354676637
663000  ekin = 6.99157703856223 |  erot = 11.3763942501093 | epot = -72.824606754809 | etot = -54.4566354661374
664000  ekin = 7.17716154109503 |  erot = 10.7708280861964 | epot = -72.4046250929334 | etot = -54.4566354656419
665000  ekin = 7.36751346457915 |  erot = 10.2651942829233 | epot = -72.0893432136831 | etot = -54.4566354661807
666000  ekin = 7.55097379427906 |  erot = 9.86605911513187 | epot = -71.8736683769829 | etot = -54.456635467572
667000  ekin = 7.71560064024578 |  erot = 9.56451333310551 | epot = -71.7367494426919 | etot = -54.4566354693406
668000  ekin = 7.84958438765827 |  erot = 9.3436894719049 | epot = -71.6499093309659 | etot = -54.4566354714027
669000  ekin = 7.94295016385616 |  erot = 9.1818139048154 | epot = -71.5813995419857 | etot = -54.4566354733142
670000  ekin = 7.9891684211374 |  erot = 9.05573401739516 | epot = -71.5015379133415 | etot = -54.4566354748089
671000  ekin = 7.98640376800962 |  erot = 8.94389368817567 | epot = -71.3869329318708 | etot = -54.4566354756855
672000  ekin = 7.9381494549713 |  erot = 8.8287029853038 | epot = -71.2234879161209 | etot = -54.4566354758458
673000  ekin = 7.85378610279984 |  erot = 8.6986877436715 | epot = -71.0091093212467 | etot = -54.4566354747754
674000  ekin = 7.74799942744435 |  erot = 8.54952007570365 | epot = -70.754154976773 | etot = -54.456635473625
675000  ekin = 7.63655278417633 |  erot = 8.38180900834835 | epot = -70.4749972646932 | etot = -54.4566354721686
676000  ekin = 7.53535852001204 |  erot = 8.20065006866992 | epot = -70.1926440593593 | etot = -54.4566354706773
677000  ekin = 7.45814475127725 |  erot = 8.01383837145264 | epot = -69.9286185924865 | etot = -54.4566354697567
678000  ekin = 7.41094295256099 |  erot = 7.82760230140382 | epot = -69.6951807229993 | etot = -54.4566354690345
679000  ekin = 7.39592235492869 |  erot = 7.64827405779127 | epot = -69.5008318814407 | etot = -54.4566354687208
680000  ekin = 7.41177806097664 |  erot = 7.48365592355626 | epot = -69.3520694527969 | etot = -54.456635468264
681000  ekin = 7.45331527396897 |  erot = 7.34392547755961 | epot = -69.2538762205284 | etot = -54.4566354689998
682000  ekin = 7.50955937697697 |  erot = 7.23029783103104 | epot = -69.1964926779914 | etot = -54.4566354699834
[...]
837000  ekin = 10.5209501551182 |  erot = 10.4011161497682 | epot = -75.3787017637168 | etot = -54.4566354588304
838000  ekin = 10.2298721897682 |  erot = 10.4412405801822 | epot = -75.1277482274376 | etot = -54.4566354574871
839000  ekin = 9.9169698633829 |  erot = 10.5315530525306 | epot = -74.9051583728937 | etot = -54.4566354569802
840000  ekin = 9.58610156141702 |  erot = 10.6755294545289 | epot = -74.7182664730354 | etot = -54.4566354570895
841000  ekin = 9.23901842927408 |  erot = 10.868774358744 | epot = -74.5644282456714 | etot = -54.4566354576533
842000  ekin = 8.87685056107778 |  erot = 11.1001329244142 | epot = -74.4336189440919 | etot = -54.4566354585999
843000  ekin = 8.50173060234696 |  erot = 11.3524188663457 | epot = -74.3107849279275 | etot = -54.4566354592348
844000  ekin = 8.11795575231061 |  erot = 11.6095427521259 | epot = -74.1841339640053 | etot = -54.4566354595688
845000  ekin = 7.73236361560105 |  erot = 11.8578438185536 | epot = -74.0468428936599 | etot = -54.4566354595052
846000  ekin = 7.35399612874066 |  erot = 12.0875238819158 | epot = -73.8981554696971 | etot = -54.4566354590406
847000  ekin = 6.99323530265824 |  erot = 12.2936929401837 | epot = -73.7435637010834 | etot = -54.4566354582415
848000  ekin = 6.66076569760595 |  erot = 12.476513505272 | epot = -73.5939146600918 | etot = -54.4566354572138
849000  ekin = 6.36668003284545 |  erot = 12.6405664289168 | epot = -73.4638819178322 | etot = -54.45663545607
850000  ekin = 6.11988143343135 |  erot = 12.7936422801385 | epot = -73.3701591685048 | etot = -54.4566354549349
851000  ekin = 5.9277602422565 |  erot = 12.9452003506214 | epot = -73.3295960467989 | etot = -54.4566354539209
852000  ekin = 5.79602796366905 |  erot = 13.1047455614325 | epot = -73.3574089782281 | etot = -54.4566354531266
853000  ekin = 5.72859704152406 |  erot = 13.2803568755571 | epot = -73.4655893697262 | etot = -54.4566354526451
854000  ekin = 5.72746205359738 |  erot = 13.4775571123792 | epot = -73.6616546184891 | etot = -54.4566354525126
855000  ekin = 5.79260154210359 |  erot = 13.6986462729226 | epot = -73.9478832677686 | etot = -54.4566354527424
856000  ekin = 5.92195007057475 |  erot = 13.9425386772173 | epot = -74.3211242010997 | etot = -54.4566354533076
857000  ekin = 6.11148060846784 |  erot = 14.2050613164122 | epot = -74.7731773790288 | etot = -54.4566354541488
858000  ekin = 6.35540247729863 |  erot = 14.4795962341537 | epot = -75.2916341666453 | etot = -54.456635455193
859000  ekin = 6.6464375003053 |  erot = 14.7578922330101 | epot = -75.8609651896848 | etot = -54.4566354563695
860000  ekin = 6.97610349830149 |  erot = 15.0308449598478 | epot = -76.4635839157752 | etot = -54.4566354576259
861000  ekin = 7.3349249363496 |  erot = 15.2890679300596 | epot = -77.0806283253549 | etot = -54.4566354589457
862000  ekin = 7.71251467470176 |  erot = 15.5231591806792 | epot = -77.6923093157189 | etot = -54.4566354603379
863000  ekin = 8.09752575484634 |  erot = 15.7236923479157 | epot = -78.2778535645897 | etot = -54.4566354618277
864000  ekin = 8.47754136486205 |  erot = 15.8810831527475 | epot = -78.8152599810381 | etot = -54.4566354634286
865000  ekin = 8.83903083982985 |  erot = 15.9855505169334 | epot = -79.2812168218813 | etot = -54.456635465118
866000  ekin = 9.16752990645287 |  erot = 16.0273731150022 | epot = -79.6515384882752 | etot = -54.4566354668201
867000  ekin = 9.44819483540946 |  erot = 15.997539865398 | epot = -79.9023701692061 | etot = -54.4566354683986
868000  ekin = 9.66683066873641 |  erot = 15.8887400708614 | epot = -80.0122062092691 | etot = -54.4566354696714
869000  ekin = 9.81140211470355 |  erot = 15.6964846394016 | epot = -79.9645222245439 | etot = -54.4566354704387
870000  ekin = 9.87390363906791 |  erot = 15.4200471696184 | epot = -79.7505862792118 | etot = -54.4566354705255
871000  ekin = 9.8523095259315 |  erot = 15.0629113172219 | epot = -79.3718563129752 | etot = -54.4566354698218
872000  ekin = 9.752187308027 |  erot = 14.6325332986052 | epot = -78.841356074952 | etot = -54.4566354683198
873000  ekin = 9.58749579142185 |  erot = 14.1394452329319 | epot = -78.1835764904824 | etot = -54.4566354661287
874000  ekin = 9.38014472395005 |  erot = 13.5959424947095 | epot = -77.4327226821286 | etot = -54.4566354634691
875000  ekin = 9.15807680471866 |  erot = 13.014707802176 | epot = -76.6294200675408 | etot = -54.4566354606461
876000  ekin = 8.95192933213213 |  erot = 12.4076841945948 | epot = -75.816248984735 | etot = -54.4566354580081
877000  ekin = 8.79071144345444 |  erot = 11.7853760071662 | epot = -75.0327229065074 | etot = -54.4566354558868
878000  ekin = 8.69731943591344 |  erot = 11.1566317214223 | epot = -74.3105866118547 | etot = -54.456635454519
879000  ekin = 8.68495451684523 |  erot = 10.5288962872203 | epot = -73.6704862580452 | etot = -54.4566354539797
880000  ekin = 8.75541640190843 |  erot = 9.90888240825742 | epot = -73.1209342643213 | etot = -54.4566354541554
881000  ekin = 8.8997445293349 |  erot = 9.30353954409839 | epot = -72.6599195282146 | etot = -54.4566354547813
882000  ekin = 9.10092859929824 |  erot = 8.72108289024305 | epot = -72.2786469450737 | etot = -54.4566354555324
883000  ekin = 9.33776725236621 |  erot = 8.17174677407215 | epot = -71.9661494825623 | etot = -54.456635456124
884000  ekin = 9.58873539183595 |  erot = 7.66794414586939 | epot = -71.7133149940986 | etot = -54.4566354563932
885000  ekin = 9.83498174992465 |  erot = 7.22368667480856 | epot = -71.5153038810381 | etot = -54.4566354563048
886000  ekin = 10.0620936934736 |  erot = 6.85337791012132 | epot = -71.3721070595231 | etot = -54.4566354559282
887000  ekin = 10.2607225025527 |  erot = 6.57029245231516 | epot = -71.2876504102503 | etot = -54.4566354553824
888000  ekin = 10.4263755446124 |  erot = 6.38509300456668 | epot = -71.2681040039826 | etot = -54.4566354548035
889000  ekin = 10.5586710814385 |  erot = 6.30462943885317 | epot = -71.319935974615 | etot = -54.4566354543233
890000  ekin = 10.6602540894462 |  erot = 6.3311170754918 | epot = -71.4480066190011 | etot = -54.4566354540632
891000  ekin = 10.7355099946819 |  erot = 6.46170576302369 | epot = -71.6538512118289 | etot = -54.4566354541233
892000  ekin = 10.7892241406154 |  erot = 6.68844891426448 | epot = -71.9343085094461 | etot = -54.4566354545662
893000  ekin = 10.8253819948177 |  erot = 6.99871565289404 | epot = -72.280733103109 | etot = -54.4566354553972
894000  ekin = 10.8463299662712 |  erot = 7.37610035056202 | epot = -72.6790657733836 | etot = -54.4566354565504
895000  ekin = 10.852475486525 |  erot = 7.80183940289732 | epot = -73.1109503473091 | etot = -54.4566354578867
896000  ekin = 10.8425858689659 |  erot = 8.25664380954496 | epot = -73.5558651377289 | etot = -54.456635459218
897000  ekin = 10.8145780999263 |  erot = 8.72272211941494 | epot = -73.9939356796854 | etot = -54.4566354603442
898000  ekin = 10.7665424605736 |  erot = 9.18564804398081 | epot = -74.4088259656637 | etot = -54.4566354611092
899000  ekin = 10.6976805034733 |  erot = 9.63567769333504 | epot = -74.7899936582461 | etot = -54.4566354614378
900000  ekin = 10.6088887087272 |  erot = 10.0681851806236 | epot = -75.1337093507081 | etot = -54.4566354613573
901000  ekin = 10.502853007353 |  erot = 10.4830654351765 | epot = -75.4425539035197 | etot = -54.4566354609902
902000  ekin = 10.3836771774535 |  erot = 10.8832063665621 | epot = -75.7235190045351 | etot = -54.4566354605195
903000  ekin = 10.2561979891383 |  erot = 11.2723815658634 | epot = -75.9852150151384 | etot = -54.4566354601367
904000  ekin = 10.1252127005282 |  erot = 11.6530755864755 | epot = -76.2349237469979 | etot = -54.4566354599942
905000  ekin = 9.99485047044705 |  erot = 12.0247708238103 | epot = -76.4762567544226 | etot = -54.4566354601653
906000  ekin = 9.86826182519167 |  erot = 12.3830923597808 | epot = -76.7079896456003 | etot = -54.4566354606279
907000  ekin = 9.74769326327752 |  erot = 12.7199654418464 | epot = -76.9242941664046 | etot = -54.4566354612807
908000  ekin = 9.63488321935044 |  erot = 13.024659583975 | epot = -77.1161782653058 | etot = -54.4566354619803
909000  ekin = 9.53160068472383 |  erot = 13.2853599353513 | epot = -77.2735960826646 | etot = -54.4566354625895
910000  ekin = 9.44009501998067 |  erot = 13.4908067507586 | epot = -77.3875372337547 | etot = -54.4566354630154
911000  ekin = 9.36326455556512 |  erot = 13.6316252373525 | epot = -77.4515252561402 | etot = -54.4566354632226
912000  ekin = 9.30446941107284 |  erot = 13.7011923330111 | epot = -77.4622972073039 | etot = -54.45663546322
913000  ekin = 9.26705259278318 |  erot = 13.6961250397271 | epot = -77.419813095547 | etot = -54.4566354630367
914000  ekin = 9.25372341949208 |  erot = 13.6165806074811 | epot = -77.3269394896719 | etot = -54.4566354626987
915000  ekin = 9.26596340708621 |  erot = 13.4664769842073 | epot = -77.1890758535215 | etot = -54.4566354622281
916000  ekin = 9.30355576102913 |  erot = 13.2535559655594 | epot = -77.0137471882459 | etot = -54.4566354616573
917000  ekin = 9.36426903858459 |  erot = 12.9890809272589 | epot = -76.809985426892 | etot = -54.4566354610485
918000  ekin = 9.44369101175022 |  erot = 12.6869990269965 | epot = -76.587325499227 | etot = -54.4566354604803
919000  ekin = 9.53522052882113 |  erot = 12.3625891360067 | epot = -76.3544451248775 | etot = -54.4566354600497
920000  ekin = 9.63025415658243 |  erot = 12.0308380430302 | epot = -76.1177276594349 | etot = -54.4566354598223
921000  ekin = 9.71861106511874 |  erot = 11.7049052779173 | epot = -75.8801518028705 | etot = -54.4566354598345
922000  ekin = 9.78920770644036 |  erot = 11.3950002816103 | epot = -75.6408434481097 | etot = -54.4566354600591
923000  ekin = 9.83093885317139 |  erot = 11.1078500466024 | epot = -75.3954243602039 | etot = -54.4566354604301
924000  ekin = 9.83367208378622 |  erot = 10.8467682564577 | epot = -75.1370758010956 | etot = -54.4566354608517
925000  ekin = 9.78923699199639 |  erot = 10.6122146417245 | epot = -74.8580870949345 | etot = -54.4566354612136
926000  ekin = 9.69228799630493 |  erot = 10.4026778523962 | epot = -74.5516013101181 | etot = -54.456635461417
927000  ekin = 9.54094420680802 |  erot = 10.2157130838007 | epot = -74.2132927519865 | etot = -54.4566354613778
928000  ekin = 9.3371459859503 |  erot = 10.0489976142885 | epot = -73.8427790612753 | etot = -54.4566354610365
929000  ekin = 9.08668869599518 |  erot = 9.90129105968912 | epot = -73.4446152160518 | etot = -54.4566354603675
930000  ekin = 8.79893949160058 |  erot = 9.77317491044661 | epot = -73.0287498614319 | etot = -54.4566354593847
931000  ekin = 8.48625276384768 |  erot = 9.66741161204924 | epot = -72.6102998340512 | etot = -54.4566354581543
932000  ekin = 8.16311074513819 |  erot = 9.58874585509042 | epot = -72.2084920570281 | etot = -54.4566354567995
933000  ekin = 7.84503269780539 |  erot = 9.54303556689035 | epot = -71.8447037201951 | etot = -54.4566354554993
934000  ekin = 7.54732721404963 |  erot = 9.53576382282306 | epot = -71.5397264913334 | etot = -54.4566354544607
935000  ekin = 7.28379852832834 |  erot = 9.57018935591102 | epot = -71.3106233381242 | etot = -54.4566354538848
936000  ekin = 7.06554340229853 |  erot = 9.64555160732505 | epot = -71.167730463548 | etot = -54.4566354539244
937000  ekin = 6.89998137838447 |  erot = 9.75579580002511 | epot = -71.112412633057 | etot = -54.4566354546474
938000  ekin = 6.79024863688773 |  erot = 9.88921936738739 | epot = -71.1361034602903 | etot = -54.4566354560152
939000  ekin = 6.73505698751703 |  erot = 10.0294464266678 | epot = -71.2211388720031 | etot = -54.4566354578183
940000  ekin = 6.72907691272921 |  erot = 10.1573224430157 | epot = -71.3430348156531 | etot = -54.4566354599082
941000  ekin = 6.7638392322072 |  erot = 10.2535241006084 | epot = -71.473998794711 | etot = -54.4566354618954
942000  ekin = 6.82912409655559 |  erot = 10.3022923171274 | epot = -71.5880518771063 | etot = -54.4566354634233
943000  ekin = 6.91476596974007 |  erot = 10.2946315405203 | epot = -71.6660329744438 | etot = -54.4566354641834
944000  ekin = 7.01269053560795 |  erot = 10.2304790515295 | epot = -71.6998050511278 | etot = -54.4566354639903
945000  ekin = 7.11873167357596 |  erot = 10.1191217606592 | epot = -71.6944888971226 | etot = -54.4566354628875
946000  ekin = 7.23341535201951 |  erot = 9.97742521428816 | epot = -71.6674760275169 | etot = -54.4566354612092
947000  ekin = 7.36083754475568 |  erot = 9.82603454656194 | epot = -71.6435075508528 | etot = -54.4566354595352
948000  ekin = 7.50549771867048 |  erot = 9.68450715332286 | epot = -71.646640330475 | etot = -54.4566354584817
949000  ekin = 7.66836590288662 |  erot = 9.56693750756918 | epot = -71.6919388688627 | etot = -54.4566354584069
950000  ekin = 7.8444636655597 |  erot = 9.47955332201817 | epot = -71.7806524468177 | etot = -54.4566354592398
951000  ekin = 8.02362258957402 |  erot = 9.42089965829233 | epot = -71.9011577084041 | etot = -54.4566354605377
952000  ekin = 8.19401979343905 |  erot = 9.38404388099782 | epot = -72.0346991362141 | etot = -54.4566354617773
953000  ekin = 8.34627037919898 |  erot = 9.35945524415897 | epot = -72.1623610859837 | etot = -54.4566354626257
954000  ekin = 8.47579105972131 |  erot = 9.3373146667663 | epot = -72.2697411895169 | etot = -54.4566354630293
955000  ekin = 8.58263553139959 |  erot = 9.308823031816 | epot = -72.3480940263229 | etot = -54.4566354631073
956000  ekin = 8.66958271584179 |  erot = 9.26689225473929 | epot = -72.393110433665 | etot = -54.4566354630839
957000  ekin = 8.73983792556415 |  erot = 9.20645883858331 | epot = -72.402932227037 | etot = -54.4566354628896
958000  ekin = 8.79532848877231 |  erot = 9.12577516410996 | epot = -72.3777391154678 | etot = -54.4566354625855
959000  ekin = 8.83590266111342 |  erot = 9.02777800336421 | epot = -72.3203161266023 | etot = -54.4566354621246
960000  ekin = 8.85930075562178 |  erot = 8.92058787880297 | epot = -72.2365240958907 | etot = -54.456635461466
961000  ekin = 8.86161651519074 |  erot = 8.8176620297481 | epot = -72.1359140055372 | etot = -54.4566354605984
962000  ekin = 8.83799666717614 |  erot = 8.73718807970271 | epot = -72.0318202064324 | etot = -54.4566354595536
963000  ekin = 8.7834038645067 |  erot = 8.70071313770526 | epot = -71.9407524606206 | etot = -54.4566354584087
964000  ekin = 8.6933315650967 |  erot = 8.73109905622396 | epot = -71.8810660786001 | etot = -54.4566354572794
965000  ekin = 8.56440365903402 |  erot = 8.84996493880067 | epot = -71.8710040541396 | etot = -54.4566354563049
966000  ekin = 8.39482523796214 |  erot = 9.07485296714587 | epot = -71.9263136607553 | etot = -54.4566354556473
967000  ekin = 8.18467818887415 |  erot = 9.41644113229026 | epot = -72.0577547766049 | etot = -54.4566354554405
968000  ekin = 7.93626974430701 |  erot = 9.8761337464021 | epot = -72.2690389465259 | etot = -54.4566354558168
969000  ekin = 7.65431026894464 |  erot = 10.4442911838587 | epot = -72.5552369095504 | etot = -54.4566354567471
970000  ekin = 7.34450165167553 |  erot = 11.1010614724236 | epot = -72.9021985821619 | etot = -54.4566354580628
971000  ekin = 7.01497831136109 |  erot = 11.8180138555475 | epot = -73.2896276264753 | etot = -54.4566354595667
972000  ekin = 6.67661988307432 |  erot = 12.561002201264 | epot = -73.6942575453412 | etot = -54.4566354610029
973000  ekin = 6.34325563533771 |  erot = 13.2935365140162 | epot = -74.093427611541 | etot = -54.4566354621871
974000  ekin = 6.03126679101612 |  erot = 13.9800756161257 | epot = -74.467977870057 | etot = -54.4566354629151
975000  ekin = 5.75832704440613 |  erot = 14.5910245181588 | epot = -74.8059870256856 | etot = -54.4566354631207
976000  ekin = 5.54248690291485 |  erot = 15.1042545810727 | epot = -75.103376946877 | etot = -54.4566354628895
977000  ekin = 5.4003503184872 |  erot = 15.5056612502236 | epot = -75.3626470311159 | etot = -54.4566354624051
978000  ekin = 5.34501003153766 |  erot = 15.7884985247711 | epot = -75.5901440181963 | etot = -54.4566354618875
979000  ekin = 5.38417633217786 |  erot = 15.9518932070818 | epot = -75.7927050007967 | etot = -54.456635461537
980000  ekin = 5.51889158471155 |  erot = 15.999058478668 | epot = -75.9745855248649 | etot = -54.4566354614853
981000  ekin = 5.74308889432032 |  erot = 15.9356762595534 | epot = -76.1354006156442 | etot = -54.4566354617704
982000  ekin = 6.04407260764492 |  erot = 15.7687916692872 | epot = -76.2694997392642 | etot = -54.456635462332
983000  ekin = 6.4038298993232 |  erot = 15.5063975907864 | epot = -76.3668629531362 | etot = -54.4566354630267
984000  ekin = 6.80095841871057 |  erot = 15.1576983609449 | epot = -76.4152922433134 | etot = -54.456635463658
985000  ekin = 7.21291844142515 |  erot = 14.7338425283028 | epot = -76.4033964337531 | etot = -54.4566354640251
986000  ekin = 7.61828265636069 |  erot = 14.2487453064303 | epot = -76.3236634267622 | etot = -54.4566354639712
987000  ekin = 7.99866441020991 |  erot = 13.7195510825214 | epot = -76.17485095616 | etot = -54.4566354634287
988000  ekin = 8.34006634563207 |  erot = 13.1663738041721 | epot = -75.9630756122385 | etot = -54.4566354624343
989000  ekin = 8.63350862200756 |  erot = 12.6111857672338 | epot = -75.7013298503602 | etot = -54.4566354611189
990000  ekin = 8.87494555503115 |  erot = 12.0760163566083 | epot = -75.4075973713094 | etot = -54.45663545967
991000  ekin = 9.06461955877742 |  erot = 11.5808385824354 | epot = -75.1020935994994 | etot = -54.4566354582866
992000  ekin = 9.20608865934225 |  erot = 11.1415830196626 | epot = -74.8043071361417 | etot = -54.4566354571369
993000  ekin = 9.3051781291951 |  erot = 10.7686313368412 | epot = -74.5304449223712 | etot = -54.4566354563349
994000  ekin = 9.36905574676181 |  erot = 10.4659766382208 | epot = -74.2916678409143 | etot = -54.4566354559316
995000  ekin = 9.4055413677824 |  erot = 10.2310751484372 | epot = -74.0932519721414 | etot = -54.4566354559218
996000  ekin = 9.42266810575618 |  erot = 10.055304234773 | epot = -73.934607796785 | etot = -54.4566354562558
997000  ekin = 9.42843932276535 |  erot = 9.92490942423686 | epot = -73.8099842038573 | etot = -54.4566354568551
998000  ekin = 9.43069348804015 |  erot = 9.82234985059454 | epot = -73.7096787962489 | etot = -54.4566354576142
999000  ekin = 9.43700002885815 |  erot = 9.72798019148381 | epot = -73.6216156787693 | etot = -54.4566354584274
1000000  ekin = 9.45454475437508 |  erot = 9.62197027192603 | epot = -73.5331504854538 | etot = -54.4566354591527
   1000000   352.42265     -75.546285      2.0131342     -64.078606     -0.0098335381   39304000     
Loop time of 9.84056 on 1 procs for 1000000 steps with 10 atoms

Performance: 149.787 ns/day, 0.160 hours/ns, 101620.202 timesteps/s, 1.016 Matom-step/s
99.8% CPU use with 1 MPI tasks x 1 OpenMP threads

MPI task timing breakdown:
Section |  min time  |  avg time  |  max time  |%varavg| %total
---------------------------------------------------------------
Pair    | 7.6388     | 7.6388     | 7.6388     |   0.0 | 77.63
Bond    | 0.4116     | 0.4116     | 0.4116     |   0.0 |  4.18
Neigh   | 0.012626   | 0.012626   | 0.012626   |   0.0 |  0.13
Comm    | 0.25713    | 0.25713    | 0.25713    |   0.0 |  2.61
Output  | 0.11932    | 0.11932    | 0.11932    |   0.0 |  1.21
Modify  | 1.1253     | 1.1253     | 1.1253     |   0.0 | 11.44
Other   |            | 0.2758     |            |       |  2.80

Nlocal:             10 ave          10 max          10 min
Histogram: 1 0 0 0 0 0 0 0 0 0
Nghost:              0 ave           0 max           0 min
Histogram: 1 0 0 0 0 0 0 0 0 0
Neighs:             37 ave          37 max          37 min
Histogram: 1 0 0 0 0 0 0 0 0 0

Total # of neighbors = 37
Ave neighs/atom = 3.7
Ave special neighs/atom = 3.6
Neighbor list builds = 1000
Dangerous builds = 0
System init for write_data ...
Generated 0 of 6 mixed pair_coeff terms from geometric mixing rule
Total wall time: 0:00:09
