created by fftool

1090 atoms
729 bonds
377 angles
16 dihedrals

8 atom types
5 bond types
6 angle types
4 dihedral types

-13.443762 13.443762 xlo xhi
-13.443762 13.443762 ylo yhi
-13.443762 13.443762 zlo zhi

Masses

   1   12.011  # C-CO
   2   12.011  # C-D
   3    1.008  # H-D
   4    1.008  # H-H1
   5   15.999  # OHD-
   6    1.008  # HOD-
   7    1.008  # Hw
   8   15.999  # Ow

Bond Coeffs

   1   268.0  1.529  # CT-CT
   2   340.0  1.090  # HC-CT
   3   320.0  1.410  # CT-OH
   4   553.0  0.945  # HO-OH
   5   517.6  1.000  # Ow-Hw

Angle Coeffs

   1   37.50  110.70  # HC-CT-CT
   2   50.00    0.00  # CT-CT-OH
   3   33.00  107.80  # HC-CT-HC
   4   35.00  109.50  # HC-CT-OH
   5   55.00  108.50  # CT-OH-HO
   6   37.95  109.47  # Hw-Ow-Hw

Dihedral Coeffs

   1    0.0000    0.0000    0.3180    0.0000  # HC-CT-CT-HC
   2    0.0000    0.0000    0.0000    0.0000  # HC-CT-CT-OH
   3    0.0000    0.0000    0.0000    0.0000  # CT-CT-OH-HO
   4    0.0000    0.0000    0.4500    0.0000  # HC-CT-OH-HO

Atoms

      1       1    1 -0.180  8.159277e+00 -8.121609e+00 -1.075121e+01  # C-CO   CC->CO
      2       1    2 -0.180  8.201609e+00 -9.516874e+00 -1.012729e+01  # C-D    CC->CO
      3       1    3  0.060  7.269180e+00 -9.706048e+00 -9.595411e+00  # H-D    CC->CO
      4       1    3  0.060  8.329458e+00 -1.026259e+01 -1.091193e+01  # H-D    CC->CO
      5       1    3  0.060  9.036410e+00 -9.578061e+00 -9.429099e+00  # H-D    CC->CO
      6       1    4  0.060  9.091706e+00 -7.932435e+00 -1.128308e+01  # H-H1   CC->CO
      7       1    4  0.060  8.031428e+00 -7.375893e+00 -9.966567e+00  # H-H1   CC->CO
      8       1    4  0.060  7.324476e+00 -8.060422e+00 -1.144940e+01  # H-H1   CC->CO
      9       1    5  0.000  8.175736e+00 -9.404665e+00 -1.016675e+01  # OHD-   CC->CO
     10       1    6  0.000  7.361988e+00 -9.553697e+00 -9.709989e+00  # HOD-   CC->CO
     11       2    7  0.424 -4.872986e+00  9.157593e+00  1.141906e+01  # Hw     SPCE
     12       2    8 -0.848 -5.720765e+00  9.687926e+00  1.141462e+01  # Ow     SPCE
     13       2    7  0.424 -6.503120e+00  9.065564e+00  1.139041e+01  # Hw     SPCE
     14       3    7  0.424  9.673693e+00  7.487003e+00  8.594682e+00  # Hw     SPCE
     15       3    8 -0.848  1.015518e+01  8.361404e+00  8.654610e+00  # Ow     SPCE
     16       3    7  0.424  9.601899e+00  9.076537e+00  8.227458e+00  # Hw     SPCE
     17       4    7  0.424 -1.520270e+00  1.884702e+00  2.641621e+00  # Hw     SPCE
     18       4    8 -0.848 -1.987250e+00  2.092154e+00  1.782033e+00  # Ow     SPCE
     19       4    7  0.424 -2.975897e+00  2.095794e+00  1.932245e+00  # Hw     SPCE
     20       5    7  0.424  1.125252e+01  7.285555e+00  1.139511e+01  # Hw     SPCE
     21       5    8 -0.848  1.106015e+01  6.304232e+00  1.139452e+01  # Ow     SPCE
     22       5    7  0.424  1.007084e+01  6.158501e+00  1.140000e+01  # Hw     SPCE
     23       6    7  0.424  7.247656e+00 -4.900914e+00  8.495419e+00  # Hw     SPCE
     24       6    8 -0.848  7.532208e+00 -5.859035e+00  8.527602e+00  # Ow     SPCE
     25       6    7  0.424  6.723284e+00 -6.446894e+00  8.535490e+00  # Hw     SPCE
     26       7    7  0.424  1.136260e+01  1.889066e+00  1.139662e+01  # Hw     SPCE
     27       7    8 -0.848  1.139079e+01  2.887233e+00  1.134306e+01  # Ow     SPCE
     28       7    7  0.424  1.110409e+01  3.180307e+00  1.043096e+01  # Hw     SPCE
     29       8    7  0.424 -1.015598e+01 -1.139692e+01  1.112429e+01  # Hw     SPCE
     30       8    8 -0.848 -9.179512e+00 -1.141638e+01  1.133908e+01  # Ow     SPCE
     31       8    7  0.424 -8.841779e+00 -1.048060e+01  1.144030e+01  # Hw     SPCE
     32       9    7  0.424  6.077890e+00  1.039195e+01 -4.561198e+00  # Hw     SPCE
     33       9    8 -0.848  5.813886e+00  1.128495e+01 -4.925685e+00  # Ow     SPCE
     34       9    7  0.424  4.824419e+00  1.140100e+01 -4.839158e+00  # Hw     SPCE
     35      10    7  0.424 -9.295744e+00  6.199774e+00  1.042502e+01  # Hw     SPCE
     36      10    8 -0.848 -9.521061e+00  6.606010e+00  1.131058e+01  # Ow     SPCE
     37      10    7  0.424 -9.051689e+00  7.484098e+00  1.140358e+01  # Hw     SPCE
     38      11    7  0.424 -1.140469e+01 -6.557267e+00  3.001760e+00  # Hw     SPCE
     39      11    8 -0.848 -1.104366e+01 -7.040092e+00  2.203924e+00  # Ow     SPCE
     40      11    7  0.424 -1.140276e+01 -7.973260e+00  2.188381e+00  # Hw     SPCE
     41      12    7  0.424 -8.171279e+00  9.630388e+00  6.130270e-01  # Hw     SPCE
     42      12    8 -0.848 -7.467745e+00  9.909738e+00 -4.042800e-02  # Ow     SPCE
     43      12    7  0.424 -7.634997e+00  9.465392e+00 -9.205320e-01  # Hw     SPCE
     44      13    7  0.424 -7.753893e+00 -4.536483e+00  1.135585e+01  # Hw     SPCE
     45      13    8 -0.848 -7.322808e+00 -3.650743e+00  1.118371e+01  # Ow     SPCE
     46      13    7  0.424 -7.968757e+00 -2.918268e+00  1.139872e+01  # Hw     SPCE
     47      14    7  0.424 -1.139340e+01  2.901519e+00  3.944157e+00  # Hw     SPCE
     48      14    8 -0.848 -1.140883e+01  3.580952e+00  4.677732e+00  # Ow     SPCE
     49      14    7  0.424 -1.095432e+01  4.416149e+00  4.368101e+00  # Hw     SPCE
     50      15    7  0.424 -1.060172e+00 -8.663487e+00  1.140143e+01  # Hw     SPCE
     51      15    8 -0.848 -1.277170e-01 -8.302859e+00  1.137963e+01  # Ow     SPCE
     52      15    7  0.424  1.292730e-01 -8.100196e+00  1.043471e+01  # Hw     SPCE
     53      16    7  0.424 -1.039741e+01 -9.514386e+00  8.140909e+00  # Hw     SPCE
     54      16    8 -0.848 -9.559531e+00 -9.536869e+00  8.686301e+00  # Ow     SPCE
     55      16    7  0.424 -8.881333e+00 -1.011429e+01  8.231735e+00  # Hw     SPCE
     56      17    7  0.424 -1.082045e+01  5.194641e+00 -3.280468e+00  # Hw     SPCE
     57      17    8 -0.848 -1.140033e+01  5.493481e+00 -4.038380e+00  # Ow     SPCE
     58      17    7  0.424 -1.140042e+01  4.794630e+00 -4.753647e+00  # Hw     SPCE
     59      18    7  0.424 -2.464201e+00 -8.615110e+00 -8.501261e+00  # Hw     SPCE
     60      18    8 -0.848 -2.314540e+00 -7.641744e+00 -8.674932e+00  # Ow     SPCE
     61      18    7  0.424 -1.336026e+00 -7.470162e+00 -8.789255e+00  # Hw     SPCE
     62      19    7  0.424 -7.285092e+00  8.231895e+00  3.382335e+00  # Hw     SPCE
     63      19    8 -0.848 -6.719114e+00  8.591390e+00  4.124246e+00  # Ow     SPCE
     64      19    7  0.424 -7.251933e+00  8.611495e+00  4.970236e+00  # Hw     SPCE
     65      20    7  0.424 -2.314652e+00  8.682530e-01  8.807110e+00  # Hw     SPCE
     66      20    8 -0.848 -1.678283e+00  1.638618e+00  8.767445e+00  # Ow     SPCE
     67      20    7  0.424 -8.159090e-01  1.381364e+00  9.203485e+00  # Hw     SPCE
     68      21    7  0.424  8.780793e+00 -7.190200e-02 -8.139448e+00  # Hw     SPCE
     69      21    8 -0.848  8.926126e+00 -6.487440e-01 -8.943271e+00  # Ow     SPCE
     70      21    7  0.424  8.050211e+00 -1.023041e+00 -9.247695e+00  # Hw     SPCE
     71      22    7  0.424 -6.329076e+00 -1.130284e+01  1.002305e+01  # Hw     SPCE
     72      22    8 -0.848 -5.782074e+00 -1.046909e+01  9.947868e+00  # Ow     SPCE
     73      22    7  0.424 -6.388401e+00 -9.674621e+00  9.913471e+00  # Hw     SPCE
     74      23    7  0.424  6.674662e+00  7.369265e+00 -7.360173e+00  # Hw     SPCE
     75      23    8 -0.848  6.960104e+00  6.850787e+00 -6.554132e+00  # Ow     SPCE
     76      23    7  0.424  7.306048e+00  5.956600e+00 -6.838299e+00  # Hw     SPCE
     77      24    7  0.424  1.092709e+01 -4.811875e+00  1.140017e+01  # Hw     SPCE
     78      24    8 -0.848  9.992008e+00 -4.726897e+00  1.105609e+01  # Ow     SPCE
     79      24    7  0.424  9.440930e+00 -5.488583e+00  1.139689e+01  # Hw     SPCE
     80      25    7  0.424  1.051569e+01 -1.146856e+01 -3.224726e+00  # Hw     SPCE
     81      25    8 -0.848  1.142616e+01 -1.128896e+01 -2.852194e+00  # Ow     SPCE
     82      25    7  0.424  1.140881e+01 -1.140503e+01 -1.859105e+00  # Hw     SPCE
     83      26    7  0.424  5.013307e+00  1.370324e+00  9.728877e+00  # Hw     SPCE
     84      26    8 -0.848  5.290696e+00  4.095700e-01  9.726119e+00  # Ow     SPCE
     85      26    7  0.424  6.288671e+00  3.508470e-01  9.701674e+00  # Hw     SPCE
     86      27    7  0.424 -1.405146e+00 -9.760930e-01  6.362424e+00  # Hw     SPCE
     87      27    8 -0.848 -1.159065e+00 -1.711439e+00  6.993859e+00  # Ow     SPCE
     88      27    7  0.424 -1.965653e+00 -1.984414e+00  7.518169e+00  # Hw     SPCE
     89      28    7  0.424 -1.795257e+00  8.732087e+00  6.384418e+00  # Hw     SPCE
     90      28    8 -0.848 -1.552382e+00  8.418233e+00  5.466536e+00  # Ow     SPCE
     91      28    7  0.424 -2.271621e+00  8.680814e+00  4.823305e+00  # Hw     SPCE
     92      29    7  0.424 -4.486562e+00  8.872671e+00 -4.119516e+00  # Hw     SPCE
     93      29    8 -0.848 -5.482064e+00  8.818732e+00 -4.197400e+00  # Ow     SPCE
     94      29    7  0.424 -5.853896e+00  8.347230e+00 -3.397758e+00  # Hw     SPCE
     95      30    7  0.424  8.438139e+00 -7.475445e+00  3.182280e+00  # Hw     SPCE
     96      30    8 -0.848  8.011997e+00 -8.155102e+00  2.585230e+00  # Ow     SPCE
     97      30    7  0.424  8.576514e+00 -8.980233e+00  2.563336e+00  # Hw     SPCE
     98      31    7  0.424  1.740308e+00 -1.077866e+01 -1.140295e+01  # Hw     SPCE
     99      31    8 -0.848  1.305169e+00 -9.878395e+00 -1.141643e+01  # Ow     SPCE
    100      31    7  0.424  2.007449e+00 -9.168013e+00 -1.136994e+01  # Hw     SPCE
    101      32    7  0.424 -5.331565e+00  6.966858e+00  1.490354e+00  # Hw     SPCE
    102      32    8 -0.848 -5.759340e+00  7.456487e+00  7.305690e-01  # Ow     SPCE
    103      32    7  0.424 -5.817183e+00  6.852829e+00 -6.457300e-02  # Hw     SPCE
    104      33    7  0.424 -1.139751e+01 -1.876761e+00 -2.426850e-01  # Hw     SPCE
    105      33    8 -0.848 -1.082253e+01 -1.370631e+00  4.001490e-01  # Ow     SPCE
    106      33    7  0.424 -1.140074e+01 -9.138340e-01  1.076173e+00  # Hw     SPCE
    107      34    7  0.424 -4.475513e+00  5.456767e+00  1.138509e+01  # Hw     SPCE
    108      34    8 -0.848 -5.172396e+00  6.173782e+00  1.140072e+01  # Ow     SPCE
    109      34    7  0.424 -5.596201e+00  6.246421e+00  1.049789e+01  # Hw     SPCE
    110      35    7  0.424  4.880282e+00 -5.157470e-01 -3.577670e-01  # Hw     SPCE
    111      35    8 -0.848  5.323972e+00 -1.630660e-01 -1.181633e+00  # Ow     SPCE
    112      35    7  0.424  5.966166e+00 -8.447610e-01 -1.532174e+00  # Hw     SPCE
    113      36    7  0.424  1.822236e+00 -5.522966e+00 -5.230312e+00  # Hw     SPCE
    114      36    8 -0.848  1.335604e+00 -6.395615e+00 -5.271195e+00  # Ow     SPCE
    115      36    7  0.424  1.969849e+00 -7.140892e+00 -5.065536e+00  # Hw     SPCE
    116      37    7  0.424  5.918430e+00 -1.333435e+00  7.247587e+00  # Hw     SPCE
    117      37    8 -0.848  6.392487e+00 -1.358371e+00  6.367445e+00  # Ow     SPCE
    118      37    7  0.424  6.513981e+00 -4.257130e-01  6.027757e+00  # Hw     SPCE
    119      38    7  0.424  2.622830e-01  2.966051e+00  5.043658e+00  # Hw     SPCE
    120      38    8 -0.848  4.483850e-01  2.172986e+00  5.623670e+00  # Ow     SPCE
    121      38    7  0.424  1.410884e+00  2.176946e+00  5.894926e+00  # Hw     SPCE
    122      39    7  0.424 -2.061820e-01  1.134935e+01  8.296572e+00  # Hw     SPCE
    123      39    8 -0.848 -3.037270e-01  1.036110e+01  8.414233e+00  # Ow     SPCE
    124      39    7  0.424  6.015880e-01  9.944037e+00  8.494625e+00  # Hw     SPCE
    125      40    7  0.424  6.605634e+00  3.283242e+00  1.140311e+01  # Hw     SPCE
    126      40    8 -0.848  7.327993e+00  2.591724e+00  1.140333e+01  # Ow     SPCE
    127      40    7  0.424  8.220739e+00  3.042284e+00  1.140376e+01  # Hw     SPCE
    128      41    7  0.424 -1.130930e+01  8.870904e+00  9.997015e+00  # Hw     SPCE
    129      41    8 -0.848 -1.140688e+01  9.755098e+00  1.045383e+01  # Ow     SPCE
    130      41    7  0.424 -1.109940e+01  9.676084e+00  1.140210e+01  # Hw     SPCE
    131      42    7  0.424 -1.115272e+01  1.100712e+01 -4.864632e+00  # Hw     SPCE
    132      42    8 -0.848 -1.141559e+01  1.134117e+01 -5.769786e+00  # Ow     SPCE
    133      42    7  0.424 -1.060104e+01  1.142436e+01 -6.343887e+00  # Hw     SPCE
    134      43    7  0.424 -2.932548e+00  8.308430e+00  2.003450e-01  # Hw     SPCE
    135      43    8 -0.848 -3.248567e+00  8.656108e+00 -6.824080e-01  # Ow     SPCE
    136      43    7  0.424 -3.310091e+00  7.901165e+00 -1.335306e+00  # Hw     SPCE
    137      44    7  0.424  1.681016e+00 -5.562530e-01 -1.084690e-01  # Hw     SPCE
    138      44    8 -0.848  1.088702e+00  2.410750e-01  7.433000e-03  # Ow     SPCE
    139      44    7  0.424  5.643790e-01  1.465910e-01  8.536940e-01  # Hw     SPCE
    140      45    7  0.424  9.329970e-01 -1.451344e+00 -3.324401e+00  # Hw     SPCE
    141      45    8 -0.848  6.172180e-01 -2.398890e+00 -3.275000e+00  # Ow     SPCE
    142      45    7  0.424  8.237760e-01 -2.864361e+00 -4.135622e+00  # Hw     SPCE
    143      46    7  0.424  9.203513e+00 -7.976756e+00  7.198379e+00  # Hw     SPCE
    144      46    8 -0.848  9.373471e+00 -8.787157e+00  6.637697e+00  # Ow     SPCE
    145      46    7  0.424  1.003975e+01 -8.566009e+00  5.925544e+00  # Hw     SPCE
    146      47    7  0.424  1.140101e+01 -8.508140e-01  2.059205e+00  # Hw     SPCE
    147      47    8 -0.848  1.084309e+01 -4.282700e-02  1.869781e+00  # Ow     SPCE
    148      47    7  0.424  1.140125e+01  6.470310e-01  1.408754e+00  # Hw     SPCE
    149      48    7  0.424 -1.522496e+00  3.411953e+00 -1.050807e+01  # Hw     SPCE
    150      48    8 -0.848 -2.110269e+00  3.657653e+00 -9.737260e+00  # Ow     SPCE
    151      48    7  0.424 -2.445209e+00  2.825635e+00 -9.295038e+00  # Hw     SPCE
    152      49    7  0.424  1.123609e+01  9.913666e+00 -1.119003e+01  # Hw     SPCE
    153      49    8 -0.848  1.140162e+01  8.946238e+00 -1.138157e+01  # Ow     SPCE
    154      49    7  0.424  1.052985e+01  8.456790e+00 -1.140301e+01  # Hw     SPCE
    155      50    7  0.424  8.253592e+00 -4.211863e+00 -3.738542e+00  # Hw     SPCE
    156      50    8 -0.848  8.344063e+00 -3.904052e+00 -4.685678e+00  # Ow     SPCE
    157      50    7  0.424  8.498441e+00 -2.916172e+00 -4.701796e+00  # Hw     SPCE
    158      51    7  0.424 -1.687400e+00  1.140322e+01  3.709497e+00  # Hw     SPCE
    159      51    8 -0.848 -8.525190e-01  1.131492e+01  4.252799e+00  # Ow     SPCE
    160      51    7  0.424 -1.075753e+00  1.140272e+01  5.223602e+00  # Hw     SPCE
    161      52    7  0.424 -2.522647e+00 -1.055825e+01  3.686360e+00  # Hw     SPCE
    162      52    8 -0.848 -2.841774e+00 -9.630947e+00  3.490760e+00  # Ow     SPCE
    163      52    7  0.424 -2.871980e+00 -9.490650e+00  2.501112e+00  # Hw     SPCE
    164      53    7  0.424  8.628265e+00 -3.491343e+00 -7.643446e+00  # Hw     SPCE
    165      53    8 -0.848  9.272438e+00 -4.067126e+00 -8.146948e+00  # Ow     SPCE
    166      53    7  0.424  8.781191e+00 -4.833290e+00 -8.561278e+00  # Hw     SPCE
    167      54    7  0.424  5.885819e+00 -6.066228e+00  2.247745e+00  # Hw     SPCE
    168      54    8 -0.848  5.111465e+00 -5.567125e+00  2.636683e+00  # Ow     SPCE
    169      54    7  0.424  4.332811e+00 -6.186341e+00  2.738015e+00  # Hw     SPCE
    170      55    7  0.424  1.011345e+01  8.909319e+00 -8.844580e-01  # Hw     SPCE
    171      55    8 -0.848  9.365055e+00  8.929655e+00 -2.215100e-01  # Ow     SPCE
    172      55    7  0.424  9.044076e+00  7.997771e+00 -5.249800e-02  # Hw     SPCE
    173      56    7  0.424 -5.480493e+00  9.095182e+00  8.482681e+00  # Hw     SPCE
    174      56    8 -0.848 -4.841425e+00  8.326103e+00  8.472243e+00  # Ow     SPCE
    175      56    7  0.424 -3.903889e+00  8.671156e+00  8.516575e+00  # Hw     SPCE
    176      57    7  0.424 -1.128323e+01 -6.560067e+00 -1.165832e+00  # Hw     SPCE
    177      57    8 -0.848 -1.142291e+01 -5.819706e+00 -5.082950e-01  # Ow     SPCE
    178      57    7  0.424 -1.073411e+01 -5.109660e+00 -6.545480e-01  # Hw     SPCE
    179      58    7  0.424 -5.626520e+00 -1.062609e+01  3.994191e+00  # Hw     SPCE
    180      58    8 -0.848 -6.136604e+00 -1.140745e+01  4.353758e+00  # Ow     SPCE
    181      58    7  0.424 -6.966622e+00 -1.108332e+01  4.807637e+00  # Hw     SPCE
    182      59    7  0.424  9.268992e+00  4.327242e+00 -8.603075e+00  # Hw     SPCE
    183      59    8 -0.848  9.101045e+00  3.701130e+00 -9.364507e+00  # Ow     SPCE
    184      59    7  0.424  8.859947e+00  2.798827e+00 -9.007126e+00  # Hw     SPCE
    185      60    7  0.424  2.127626e+00  5.194270e-01 -1.140003e+01  # Hw     SPCE
    186      60    8 -0.848  1.407401e+00  1.211074e+00 -1.134617e+01  # Ow     SPCE
    187      60    7  0.424  5.584640e-01  7.846580e-01 -1.103396e+01  # Hw     SPCE
    188      61    7  0.424 -4.029687e+00  1.143868e+01  9.664183e+00  # Hw     SPCE
    189      61    8 -0.848 -3.042501e+00  1.136324e+01  9.523566e+00  # Ow     SPCE
    190      61    7  0.424 -2.647565e+00  1.078392e+01  1.023660e+01  # Hw     SPCE
    191      62    7  0.424  4.304507e+00  8.034891e+00  8.643466e+00  # Hw     SPCE
    192      62    8 -0.848  3.972813e+00  8.975847e+00  8.575783e+00  # Ow     SPCE
    193      62    7  0.424  4.751680e+00  9.601802e+00  8.536455e+00  # Hw     SPCE
    194      63    7  0.424  6.885458e+00 -3.917752e+00  1.139871e+01  # Hw     SPCE
    195      63    8 -0.848  6.414800e+00 -3.035533e+00  1.138563e+01  # Ow     SPCE
    196      63    7  0.424  6.362237e+00 -2.699703e+00  1.044518e+01  # Hw     SPCE
    197      64    7  0.424  8.867224e+00  1.625983e+00  1.367050e-01  # Hw     SPCE
    198      64    8 -0.848  7.952155e+00  1.226596e+00  1.927230e-01  # Ow     SPCE
    199      64    7  0.424  7.982003e+00  4.031120e-01  7.592760e-01  # Hw     SPCE
    200      65    7  0.424  2.324743e+00  4.021936e+00 -3.029916e+00  # Hw     SPCE
    201      65    8 -0.848  1.656121e+00  4.764557e+00 -3.068098e+00  # Ow     SPCE
    202      65    7  0.424  2.075386e+00  5.569268e+00 -3.488402e+00  # Hw     SPCE
    203      66    7  0.424 -1.402256e+00  5.640411e+00  8.590696e+00  # Hw     SPCE
    204      66    8 -0.848 -7.926830e-01  4.946308e+00  8.207758e+00  # Ow     SPCE
    205      66    7  0.424 -9.475130e-01  4.873703e+00  7.222488e+00  # Hw     SPCE
    206      67    7  0.424 -8.597534e+00 -7.929908e+00 -5.625810e-01  # Hw     SPCE
    207      67    8 -0.848 -8.372057e+00 -6.955660e+00 -5.625730e-01  # Ow     SPCE
    208      67    7  0.424 -7.454531e+00 -6.825890e+00 -1.866650e-01  # Hw     SPCE
    209      68    7  0.424  4.567280e+00  6.844150e+00 -1.139738e+01  # Hw     SPCE
    210      68    8 -0.848  5.256024e+00  7.569011e+00 -1.141175e+01  # Ow     SPCE
    211      68    7  0.424  4.836267e+00  8.433183e+00 -1.113424e+01  # Hw     SPCE
    212      69    7  0.424 -8.667572e+00 -6.681391e+00  8.899998e+00  # Hw     SPCE
    213      69    8 -0.848 -8.530187e+00 -6.506196e+00  7.925097e+00  # Ow     SPCE
    214      69    7  0.424 -7.999981e+00 -7.253035e+00  7.523708e+00  # Hw     SPCE
    215      70    7  0.424  7.712053e+00  1.048791e+00 -3.069743e+00  # Hw     SPCE
    216      70    8 -0.848  7.563298e+00  2.037511e+00 -3.052328e+00  # Ow     SPCE
    217      70    7  0.424  8.445827e+00  2.506902e+00 -3.023749e+00  # Hw     SPCE
    218      71    7  0.424  4.614923e+00  4.784169e+00  4.245230e+00  # Hw     SPCE
    219      71    8 -0.848  3.857855e+00  4.234323e+00  4.598101e+00  # Ow     SPCE
    220      71    7  0.424  3.038032e+00  4.802515e+00  4.669145e+00  # Hw     SPCE
    221      72    7  0.424  2.759807e+00  3.839930e+00  1.140708e+01  # Hw     SPCE
    222      72    8 -0.848  2.282866e+00  4.717707e+00  1.136198e+01  # Ow     SPCE
    223      72    7  0.424  1.295319e+00  4.560515e+00  1.135554e+01  # Hw     SPCE
    224      73    7  0.424  8.833846e+00 -1.672900e+00 -1.231694e+00  # Hw     SPCE
    225      73    8 -0.848  9.396582e+00 -9.057420e-01 -1.539582e+00  # Ow     SPCE
    226      73    7  0.424  1.020332e+01 -8.279420e-01 -9.538140e-01  # Hw     SPCE
    227      74    7  0.424 -8.809018e+00  6.782993e+00 -2.694100e-01  # Hw     SPCE
    228      74    8 -0.848 -8.673015e+00  5.964389e+00  2.886140e-01  # Ow     SPCE
    229      74    7  0.424 -8.453168e+00  6.233030e+00  1.226430e+00  # Hw     SPCE
    230      75    7  0.424  6.665777e+00 -1.140461e+01 -1.564886e+00  # Hw     SPCE
    231      75    8 -0.848  6.705476e+00 -1.126958e+01 -2.554933e+00  # Ow     SPCE
    232      75    7  0.424  5.791796e+00 -1.138652e+01 -2.944181e+00  # Hw     SPCE
    233      76    7  0.424  3.582879e+00 -4.117618e+00  6.727900e-02  # Hw     SPCE
    234      76    8 -0.848  3.393551e+00 -3.484526e+00 -6.832870e-01  # Ow     SPCE
    235      76    7  0.424  2.433213e+00 -3.562594e+00 -9.509750e-01  # Hw     SPCE
    236      77    7  0.424 -4.729555e+00  1.048442e+01  5.514249e+00  # Hw     SPCE
    237      77    8 -0.848 -4.260954e+00  1.134497e+01  5.713904e+00  # Ow     SPCE
    238      77    7  0.424 -3.959848e+00  1.134709e+01  6.667492e+00  # Hw     SPCE
    239      78    7  0.424  2.521543e+00 -2.393932e+00  2.528460e+00  # Hw     SPCE
    240      78    8 -0.848  1.526142e+00 -2.484391e+00  2.559965e+00  # Ow     SPCE
    241      78    7  0.424  1.237752e+00 -3.212317e+00  1.937909e+00  # Hw     SPCE
    242      79    7  0.424  1.140097e+01  1.860399e+00 -7.243372e+00  # Hw     SPCE
    243      79    8 -0.848  1.084741e+01  2.548720e+00 -6.774552e+00  # Ow     SPCE
    244      79    7  0.424  1.140019e+01  3.000624e+00 -6.074393e+00  # Hw     SPCE
    245      80    7  0.424 -1.139928e+01  5.142933e+00  1.309217e+00  # Hw     SPCE
    246      80    8 -0.848 -1.138251e+01  5.984825e+00  1.848603e+00  # Ow     SPCE
    247      80    7  0.424 -1.140353e+01  6.774225e+00  1.235083e+00  # Hw     SPCE
    248      81    7  0.424  2.205056e+00  1.140821e+01  5.162945e+00  # Hw     SPCE
    249      81    8 -0.848  1.857558e+00  1.120005e+01  6.077228e+00  # Ow     SPCE
    250      81    7  0.424  2.563632e+00  1.140167e+01  6.756057e+00  # Hw     SPCE
    251      82    7  0.424 -1.007522e+01  7.389570e-01  1.140391e+01  # Hw     SPCE
    252      82    8 -0.848 -9.347609e+00  5.309000e-02  1.139111e+01  # Ow     SPCE
    253      82    7  0.424 -8.458402e+00  5.105570e-01  1.138520e+01  # Hw     SPCE
    254      83    7  0.424 -4.811108e+00  1.137182e+01 -7.142792e+00  # Hw     SPCE
    255      83    8 -0.848 -4.635756e+00  1.055720e+01 -7.695654e+00  # Ow     SPCE
    256      83    7  0.424 -4.418556e+00  9.787429e+00 -7.095429e+00  # Hw     SPCE
    257      84    7  0.424  5.821749e+00 -8.213888e+00 -3.627594e+00  # Hw     SPCE
    258      84    8 -0.848  6.219210e+00 -7.370034e+00 -3.267129e+00  # Ow     SPCE
    259      84    7  0.424  6.486292e+00 -6.776530e+00 -4.026352e+00  # Hw     SPCE
    260      85    7  0.424  5.845073e+00 -1.330315e+00  3.059232e+00  # Hw     SPCE
    261      85    8 -0.848  6.241015e+00 -1.811623e+00  2.277201e+00  # Ow     SPCE
    262      85    7  0.424  5.721905e+00 -2.648427e+00  2.103180e+00  # Hw     SPCE
    263      86    7  0.424 -1.140428e+01  1.072535e+01  6.264295e+00  # Hw     SPCE
    264      86    8 -0.848 -1.134871e+01  1.027187e+01  7.153832e+00  # Ow     SPCE
    265      86    7  0.424 -1.140064e+01  9.281335e+00  7.026820e+00  # Hw     SPCE
    266      87    7  0.424 -8.963015e+00  1.140073e+01 -9.124340e+00  # Hw     SPCE
    267      87    8 -0.848 -8.355510e+00  1.135698e+01 -8.331230e+00  # Ow     SPCE
    268      87    7  0.424 -7.407534e+00  1.128411e+01 -8.641118e+00  # Hw     SPCE
    269      88    7  0.424  8.656283e+00  1.140107e+01 -3.406851e+00  # Hw     SPCE
    270      88    8 -0.848  8.556863e+00  1.084631e+01 -2.580803e+00  # Ow     SPCE
    271      88    7  0.424  8.724941e+00  1.141467e+01 -1.775371e+00  # Hw     SPCE
    272      89    7  0.424 -3.040238e+00 -8.700325e+00  8.907008e+00  # Hw     SPCE
    273      89    8 -0.848 -2.482889e+00 -7.870406e+00  8.882605e+00  # Ow     SPCE
    274      89    7  0.424 -3.079790e+00 -7.068118e+00  8.876030e+00  # Hw     SPCE
    275      90    7  0.424 -1.566746e+00 -1.140712e+01 -4.791644e+00  # Hw     SPCE
    276      90    8 -0.848 -1.005382e+00 -1.137747e+01 -5.618681e+00  # Ow     SPCE
    277      90    7  0.424 -3.806400e-02 -1.139573e+01 -5.365774e+00  # Hw     SPCE
    278      91    7  0.424 -3.797317e+00  4.732039e+00 -1.368283e+00  # Hw     SPCE
    279      91    8 -0.848 -3.907260e+00  4.563005e+00 -3.888240e-01  # Ow     SPCE
    280      91    7  0.424 -3.141308e+00  4.971155e+00  1.078950e-01  # Hw     SPCE
    281      92    7  0.424 -1.835789e+00 -8.223190e+00 -2.467070e-01  # Hw     SPCE
    282      92    8 -0.848 -1.623631e+00 -7.339584e+00  1.707010e-01  # Ow     SPCE
    283      92    7  0.424 -2.295669e+00 -6.660981e+00 -1.257170e-01  # Hw     SPCE
    284      93    7  0.424 -1.140073e+01 -7.908500e+00  5.815195e+00  # Hw     SPCE
    285      93    8 -0.848 -1.044465e+01 -7.710900e+00  5.598681e+00  # Ow     SPCE
    286      93    7  0.424 -1.004938e+01 -8.482566e+00  5.100394e+00  # Hw     SPCE
    287      94    7  0.424  2.881389e+00  8.545725e+00  4.574339e+00  # Hw     SPCE
    288      94    8 -0.848  3.850588e+00  8.782446e+00  4.642277e+00  # Ow     SPCE
    289      94    7  0.424  4.055764e+00  9.083140e+00  5.573666e+00  # Hw     SPCE
    290      95    7  0.424 -9.178860e-01 -1.148766e+01 -1.020884e+01  # Hw     SPCE
    291      95    8 -0.848 -5.486310e-01 -1.115568e+01 -9.340828e+00  # Ow     SPCE
    292      95    7  0.424 -1.205316e+00 -1.133595e+01 -8.608526e+00  # Hw     SPCE
    293      96    7  0.424  1.103847e+01  1.140077e+01 -8.510043e+00  # Hw     SPCE
    294      96    8 -0.848  1.140134e+01  1.085673e+01 -7.753505e+00  # Ow     SPCE
    295      96    7  0.424  1.138455e+01  1.140006e+01 -6.914156e+00  # Hw     SPCE
    296      97    7  0.424 -1.139547e+01  4.502368e+00  7.532421e+00  # Hw     SPCE
    297      97    8 -0.848 -1.113358e+01  5.465440e+00  7.469939e+00  # Ow     SPCE
    298      97    7  0.424 -1.140353e+01  5.939324e+00  8.308126e+00  # Hw     SPCE
    299      98    7  0.424 -2.183756e+00 -5.940906e+00  3.018787e+00  # Hw     SPCE
    300      98    8 -0.848 -1.349890e+00 -5.389021e+00  3.028333e+00  # Ow     SPCE
    301      98    7  0.424 -1.592355e+00 -4.418983e+00  3.043747e+00  # Hw     SPCE
    302      99    7  0.424  9.774563e+00 -1.140180e+01  3.867108e+00  # Hw     SPCE
    303      99    8 -0.848  1.058926e+01 -1.082407e+01  3.817166e+00  # Ow     SPCE
    304      99    7  0.424  1.140559e+01 -1.140088e+01  3.787381e+00  # Hw     SPCE
    305     100    7  0.424  8.791055e+00  1.372933e+00  8.289670e+00  # Hw     SPCE
    306     100    8 -0.848  9.287917e+00  1.657169e+00  7.469707e+00  # Ow     SPCE
    307     100    7  0.424  8.713140e+00  1.511580e+00  6.664453e+00  # Hw     SPCE
    308     101    7  0.424  5.758939e+00  1.026390e+01  1.104060e+00  # Hw     SPCE
    309     101    8 -0.848  6.746519e+00  1.019001e+01  9.654050e-01  # Ow     SPCE
    310     101    7  0.424  7.139818e+00  1.110498e+01  8.752020e-01  # Hw     SPCE
    311     102    7  0.424  7.185604e+00  2.069223e+00 -1.138678e+01  # Hw     SPCE
    312     102    8 -0.848  7.449024e+00  1.104568e+00 -1.139390e+01  # Ow     SPCE
    313     102    7  0.424  8.446336e+00  1.031409e+00 -1.139777e+01  # Hw     SPCE
    314     103    7  0.424 -6.759130e-01 -8.544124e+00 -4.691232e+00  # Hw     SPCE
    315     103    8 -0.848 -1.417256e+00 -7.880582e+00 -4.791848e+00  # Ow     SPCE
    316     103    7  0.424 -1.597149e+00 -7.726565e+00 -5.763401e+00  # Hw     SPCE
    317     104    7  0.424 -1.140036e+01  1.140069e+01  1.540258e+00  # Hw     SPCE
    318     104    8 -0.848 -1.083534e+01  1.057893e+01  1.614184e+00  # Ow     SPCE
    319     104    7  0.424 -1.140026e+01  9.770179e+00  1.450516e+00  # Hw     SPCE
    320     105    7  0.424 -5.237003e+00  1.140109e+01 -2.690652e+00  # Hw     SPCE
    321     105    8 -0.848 -5.432184e+00  1.134505e+01 -1.711487e+00  # Ow     SPCE
    322     105    7  0.424 -4.576238e+00  1.139979e+01 -1.197329e+00  # Hw     SPCE
    323     106    7  0.424 -3.841830e-01  1.127716e+01 -7.042278e+00  # Hw     SPCE
    324     106    8 -0.848 -1.026907e+00  1.141237e+01 -7.796348e+00  # Ow     SPCE
    325     106    7  0.424 -1.640860e+00  1.062530e+01 -7.856204e+00  # Hw     SPCE
    326     107    7  0.424  1.117275e+01  1.173540e+00 -1.015432e+01  # Hw     SPCE
    327     107    8 -0.848  1.140663e+01  2.105447e+00 -1.043153e+01  # Ow     SPCE
    328     107    7  0.424  1.119753e+01  2.226965e+00 -1.140184e+01  # Hw     SPCE
    329     108    7  0.424 -2.646819e+00  1.116672e+01 -5.076054e+00  # Hw     SPCE
    330     108    8 -0.848 -2.442868e+00  1.140035e+01 -4.125359e+00  # Ow     SPCE
    331     108    7  0.424 -1.452436e+00  1.140086e+01 -3.987361e+00  # Hw     SPCE
    332     109    7  0.424 -6.071565e+00 -8.368939e+00 -8.734051e+00  # Hw     SPCE
    333     109    8 -0.848 -5.360898e+00 -7.895971e+00 -8.213232e+00  # Ow     SPCE
    334     109    7  0.424 -5.350459e+00 -6.928517e+00 -8.466064e+00  # Hw     SPCE
    335     110    7  0.424  2.584912e+00 -4.964300e-02  8.360231e+00  # Hw     SPCE
    336     110    8 -0.848  1.603511e+00 -2.254820e-01  8.283202e+00  # Ow     SPCE
    337     110    7  0.424  1.355566e+00 -9.950070e-01  8.871720e+00  # Hw     SPCE
    338     111    7  0.424  3.019196e+00  4.265140e+00  8.449083e+00  # Hw     SPCE
    339     111    8 -0.848  2.676485e+00  3.325702e+00  8.451286e+00  # Ow     SPCE
    340     111    7  0.424  1.696369e+00  3.328917e+00  8.649686e+00  # Hw     SPCE