Created by AJB

2000 atoms
2 atom types

0.000000 41.760000 xlo xhi
0.000000 41.760000 ylo yhi
0.000000 41.760000 zlo zhi

Masses

1 6.941000
2 1.000000

Atoms

1 1 3.000000 0 0.000000 4.176000 4.176000 4.176000
2 1 3.000000 0 0.000000 8.352000 8.352000 4.176000
3 1 3.000000 0 0.000000 4.176000 8.352000 8.352000
4 1 3.000000 0 0.000000 8.352000 4.176000 8.352000
5 1 3.000000 0 0.000000 4.176000 4.176000 12.528000
6 1 3.000000 0 0.000000 8.352000 8.352000 12.528000
7 1 3.000000 0 0.000000 4.176000 8.352000 16.704000
8 1 3.000000 0 0.000000 8.352000 4.176000 16.704000
9 1 3.000000 0 0.000000 4.176000 4.176000 20.880000
10 1 3.000000 0 0.000000 8.352000 8.352000 20.880000
11 1 3.000000 0 0.000000 4.176000 8.352000 25.056000
12 1 3.000000 0 0.000000 8.352000 4.176000 25.056000
13 1 3.000000 0 0.000000 4.176000 4.176000 29.232000
14 1 3.000000 0 0.000000 8.352000 8.352000 29.232000
15 1 3.000000 0 0.000000 4.176000 8.352000 33.408000
16 1 3.000000 0 0.000000 8.352000 4.176000 33.408000
17 1 3.000000 0 0.000000 4.176000 4.176000 37.584000
18 1 3.000000 0 0.000000 8.352000 8.352000 37.584000
19 1 3.000000 0 0.000000 4.176000 8.352000 41.760000
20 1 3.000000 0 0.000000 8.352000 4.176000 41.760000
21 1 3.000000 0 0.000000 4.176000 12.528000 4.176000
22 1 3.000000 0 0.000000 8.352000 16.704000 4.176000
23 1 3.000000 0 0.000000 4.176000 16.704000 8.352000
24 1 3.000000 0 0.000000 8.352000 12.528000 8.352000
25 1 3.000000 0 0.000000 4.176000 12.528000 12.528000
26 1 3.000000 0 0.000000 8.352000 16.704000 12.528000
27 1 3.000000 0 0.000000 4.176000 16.704000 16.704000
28 1 3.000000 0 0.000000 8.352000 12.528000 16.704000
29 1 3.000000 0 0.000000 4.176000 12.528000 20.880000
30 1 3.000000 0 0.000000 8.352000 16.704000 20.880000
31 1 3.000000 0 0.000000 4.176000 16.704000 25.056000
32 1 3.000000 0 0.000000 8.352000 12.528000 25.056000
33 1 3.000000 0 0.000000 4.176000 12.528000 29.232000
34 1 3.000000 0 0.000000 8.352000 16.704000 29.232000
35 1 3.000000 0 0.000000 4.176000 16.704000 33.408000
36 1 3.000000 0 0.000000 8.352000 12.528000 33.408000
37 1 3.000000 0 0.000000 4.176000 12.528000 37.584000
38 1 3.000000 0 0.000000 8.352000 16.704000 37.584000
39 1 3.000000 0 0.000000 4.176000 16.704000 41.760000
40 1 3.000000 0 0.000000 8.352000 12.528000 41.760000
41 1 3.000000 0 0.000000 4.176000 20.880000 4.176000
42 1 3.000000 0 0.000000 8.352000 25.056000 4.176000
43 1 3.000000 0 0.000000 4.176000 25.056000 8.352000
44 1 3.000000 0 0.000000 8.352000 20.880000 8.352000
45 1 3.000000 0 0.000000 4.176000 20.880000 12.528000
46 1 3.000000 0 0.000000 8.352000 25.056000 12.528000
47 1 3.000000 0 0.000000 4.176000 25.056000 16.704000
48 1 3.000000 0 0.000000 8.352000 20.880000 16.704000
49 1 3.000000 0 0.000000 4.176000 20.880000 20.880000
50 1 3.000000 0 0.000000 8.352000 25.056000 20.880000
51 1 3.000000 0 0.000000 4.176000 25.056000 25.056000
52 1 3.000000 0 0.000000 8.352000 20.880000 25.056000
53 1 3.000000 0 0.000000 4.176000 20.880000 29.232000
54 1 3.000000 0 0.000000 8.352000 25.056000 29.232000
55 1 3.000000 0 0.000000 4.176000 25.056000 33.408000
56 1 3.000000 0 0.000000 8.352000 20.880000 33.408000
57 1 3.000000 0 0.000000 4.176000 20.880000 37.584000
58 1 3.000000 0 0.000000 8.352000 25.056000 37.584000
59 1 3.000000 0 0.000000 4.176000 25.056000 41.760000
60 1 3.000000 0 0.000000 8.352000 20.880000 41.760000
61 1 3.000000 0 0.000000 4.176000 29.232000 4.176000
62 1 3.000000 0 0.000000 8.352000 33.408000 4.176000
63 1 3.000000 0 0.000000 4.176000 33.408000 8.352000
64 1 3.000000 0 0.000000 8.352000 29.232000 8.352000
65 1 3.000000 0 0.000000 4.176000 29.232000 12.528000
66 1 3.000000 0 0.000000 8.352000 33.408000 12.528000
67 1 3.000000 0 0.000000 4.176000 33.408000 16.704000
68 1 3.000000 0 0.000000 8.352000 29.232000 16.704000
69 1 3.000000 0 0.000000 4.176000 29.232000 20.880000
70 1 3.000000 0 0.000000 8.352000 33.408000 20.880000
71 1 3.000000 0 0.000000 4.176000 33.408000 25.056000
72 1 3.000000 0 0.000000 8.352000 29.232000 25.056000
73 1 3.000000 0 0.000000 4.176000 29.232000 29.232000
74 1 3.000000 0 0.000000 8.352000 33.408000 29.232000
75 1 3.000000 0 0.000000 4.176000 33.408000 33.408000
76 1 3.000000 0 0.000000 8.352000 29.232000 33.408000
77 1 3.000000 0 0.000000 4.176000 29.232000 37.584000
78 1 3.000000 0 0.000000 8.352000 33.408000 37.584000
79 1 3.000000 0 0.000000 4.176000 33.408000 41.760000
80 1 3.000000 0 0.000000 8.352000 29.232000 41.760000
81 1 3.000000 0 0.000000 4.176000 37.584000 4.176000
82 1 3.000000 0 0.000000 8.352000 41.760000 4.176000
83 1 3.000000 0 0.000000 4.176000 41.760000 8.352000
84 1 3.000000 0 0.000000 8.352000 37.584000 8.352000
85 1 3.000000 0 0.000000 4.176000 37.584000 12.528000
86 1 3.000000 0 0.000000 8.352000 41.760000 12.528000
87 1 3.000000 0 0.000000 4.176000 41.760000 16.704000
88 1 3.000000 0 0.000000 8.352000 37.584000 16.704000
89 1 3.000000 0 0.000000 4.176000 37.584000 20.880000
90 1 3.000000 0 0.000000 8.352000 41.760000 20.880000
91 1 3.000000 0 0.000000 4.176000 41.760000 25.056000
92 1 3.000000 0 0.000000 8.352000 37.584000 25.056000
93 1 3.000000 0 0.000000 4.176000 37.584000 29.232000
94 1 3.000000 0 0.000000 8.352000 41.760000 29.232000
95 1 3.000000 0 0.000000 4.176000 41.760000 33.408000
96 1 3.000000 0 0.000000 8.352000 37.584000 33.408000
97 1 3.000000 0 0.000000 4.176000 37.584000 37.584000
98 1 3.000000 0 0.000000 8.352000 41.760000 37.584000
99 1 3.000000 0 0.000000 4.176000 41.760000 41.760000
100 1 3.000000 0 0.000000 8.352000 37.584000 41.760000
101 1 3.000000 0 0.000000 12.528000 4.176000 4.176000
102 1 3.000000 0 0.000000 16.704000 8.352000 4.176000
103 1 3.000000 0 0.000000 12.528000 8.352000 8.352000
104 1 3.000000 0 0.000000 16.704000 4.176000 8.352000
105 1 3.000000 0 0.000000 12.528000 4.176000 12.528000
106 1 3.000000 0 0.000000 16.704000 8.352000 12.528000
107 1 3.000000 0 0.000000 12.528000 8.352000 16.704000
108 1 3.000000 0 0.000000 16.704000 4.176000 16.704000
109 1 3.000000 0 0.000000 12.528000 4.176000 20.880000
110 1 3.000000 0 0.000000 16.704000 8.352000 20.880000
111 1 3.000000 0 0.000000 12.528000 8.352000 25.056000
112 1 3.000000 0 0.000000 16.704000 4.176000 25.056000
113 1 3.000000 0 0.000000 12.528000 4.176000 29.232000
114 1 3.000000 0 0.000000 16.704000 8.352000 29.232000
115 1 3.000000 0 0.000000 12.528000 8.352000 33.408000
116 1 3.000000 0 0.000000 16.704000 4.176000 33.408000
117 1 3.000000 0 0.000000 12.528000 4.176000 37.584000
118 1 3.000000 0 0.000000 16.704000 8.352000 37.584000
119 1 3.000000 0 0.000000 12.528000 8.352000 41.760000
120 1 3.000000 0 0.000000 16.704000 4.176000 41.760000
121 1 3.000000 0 0.000000 12.528000 12.528000 4.176000
122 1 3.000000 0 0.000000 16.704000 16.704000 4.176000
123 1 3.000000 0 0.000000 12.528000 16.704000 8.352000
124 1 3.000000 0 0.000000 16.704000 12.528000 8.352000
125 1 3.000000 0 0.000000 12.528000 12.528000 12.528000
126 1 3.000000 0 0.000000 16.704000 16.704000 12.528000
127 1 3.000000 0 0.000000 12.528000 16.704000 16.704000
128 1 3.000000 0 0.000000 16.704000 12.528000 16.704000
129 1 3.000000 0 0.000000 12.528000 12.528000 20.880000
130 1 3.000000 0 0.000000 16.704000 16.704000 20.880000
131 1 3.000000 0 0.000000 12.528000 16.704000 25.056000
132 1 3.000000 0 0.000000 16.704000 12.528000 25.056000
133 1 3.000000 0 0.000000 12.528000 12.528000 29.232000
134 1 3.000000 0 0.000000 16.704000 16.704000 29.232000
135 1 3.000000 0 0.000000 12.528000 16.704000 33.408000
136 1 3.000000 0 0.000000 16.704000 12.528000 33.408000
137 1 3.000000 0 0.000000 12.528000 12.528000 37.584000
138 1 3.000000 0 0.000000 16.704000 16.704000 37.584000
139 1 3.000000 0 0.000000 12.528000 16.704000 41.760000
140 1 3.000000 0 0.000000 16.704000 12.528000 41.760000
141 1 3.000000 0 0.000000 12.528000 20.880000 4.176000
142 1 3.000000 0 0.000000 16.704000 25.056000 4.176000
143 1 3.000000 0 0.000000 12.528000 25.056000 8.352000
144 1 3.000000 0 0.000000 16.704000 20.880000 8.352000
145 1 3.000000 0 0.000000 12.528000 20.880000 12.528000
146 1 3.000000 0 0.000000 16.704000 25.056000 12.528000
147 1 3.000000 0 0.000000 12.528000 25.056000 16.704000
148 1 3.000000 0 0.000000 16.704000 20.880000 16.704000
149 1 3.000000 0 0.000000 12.528000 20.880000 20.880000
150 1 3.000000 0 0.000000 16.704000 25.056000 20.880000
151 1 3.000000 0 0.000000 12.528000 25.056000 25.056000
152 1 3.000000 0 0.000000 16.704000 20.880000 25.056000
153 1 3.000000 0 0.000000 12.528000 20.880000 29.232000
154 1 3.000000 0 0.000000 16.704000 25.056000 29.232000
155 1 3.000000 0 0.000000 12.528000 25.056000 33.408000
156 1 3.000000 0 0.000000 16.704000 20.880000 33.408000
157 1 3.000000 0 0.000000 12.528000 20.880000 37.584000
158 1 3.000000 0 0.000000 16.704000 25.056000 37.584000
159 1 3.000000 0 0.000000 12.528000 25.056000 41.760000
160 1 3.000000 0 0.000000 16.704000 20.880000 41.760000
161 1 3.000000 0 0.000000 12.528000 29.232000 4.176000
162 1 3.000000 0 0.000000 16.704000 33.408000 4.176000
163 1 3.000000 0 0.000000 12.528000 33.408000 8.352000
164 1 3.000000 0 0.000000 16.704000 29.232000 8.352000
165 1 3.000000 0 0.000000 12.528000 29.232000 12.528000
166 1 3.000000 0 0.000000 16.704000 33.408000 12.528000
167 1 3.000000 0 0.000000 12.528000 33.408000 16.704000
168 1 3.000000 0 0.000000 16.704000 29.232000 16.704000
169 1 3.000000 0 0.000000 12.528000 29.232000 20.880000
170 1 3.000000 0 0.000000 16.704000 33.408000 20.880000
171 1 3.000000 0 0.000000 12.528000 33.408000 25.056000
172 1 3.000000 0 0.000000 16.704000 29.232000 25.056000
173 1 3.000000 0 0.000000 12.528000 29.232000 29.232000
174 1 3.000000 0 0.000000 16.704000 33.408000 29.232000
175 1 3.000000 0 0.000000 12.528000 33.408000 33.408000
176 1 3.000000 0 0.000000 16.704000 29.232000 33.408000
177 1 3.000000 0 0.000000 12.528000 29.232000 37.584000
178 1 3.000000 0 0.000000 16.704000 33.408000 37.584000
179 1 3.000000 0 0.000000 12.528000 33.408000 41.760000
180 1 3.000000 0 0.000000 16.704000 29.232000 41.760000
181 1 3.000000 0 0.000000 12.528000 37.584000 4.176000
182 1 3.000000 0 0.000000 16.704000 41.760000 4.176000
183 1 3.000000 0 0.000000 12.528000 41.760000 8.352000
184 1 3.000000 0 0.000000 16.704000 37.584000 8.352000
185 1 3.000000 0 0.000000 12.528000 37.584000 12.528000
186 1 3.000000 0 0.000000 16.704000 41.760000 12.528000
187 1 3.000000 0 0.000000 12.528000 41.760000 16.704000
188 1 3.000000 0 0.000000 16.704000 37.584000 16.704000
189 1 3.000000 0 0.000000 12.528000 37.584000 20.880000
190 1 3.000000 0 0.000000 16.704000 41.760000 20.880000
191 1 3.000000 0 0.000000 12.528000 41.760000 25.056000
192 1 3.000000 0 0.000000 16.704000 37.584000 25.056000
193 1 3.000000 0 0.000000 12.528000 37.584000 29.232000
194 1 3.000000 0 0.000000 16.704000 41.760000 29.232000
195 1 3.000000 0 0.000000 12.528000 41.760000 33.408000
196 1 3.000000 0 0.000000 16.704000 37.584000 33.408000
197 1 3.000000 0 0.000000 12.528000 37.584000 37.584000
198 1 3.000000 0 0.000000 16.704000 41.760000 37.584000
199 1 3.000000 0 0.000000 12.528000 41.760000 41.760000
200 1 3.000000 0 0.000000 16.704000 37.584000 41.760000
201 1 3.000000 0 0.000000 20.880000 4.176000 4.176000
202 1 3.000000 0 0.000000 25.056000 8.352000 4.176000
203 1 3.000000 0 0.000000 20.880000 8.352000 8.352000
204 1 3.000000 0 0.000000 25.056000 4.176000 8.352000
205 1 3.000000 0 0.000000 20.880000 4.176000 12.528000
206 1 3.000000 0 0.000000 25.056000 8.352000 12.528000
207 1 3.000000 0 0.000000 20.880000 8.352000 16.704000
208 1 3.000000 0 0.000000 25.056000 4.176000 16.704000
209 1 3.000000 0 0.000000 20.880000 4.176000 20.880000
210 1 3.000000 0 0.000000 25.056000 8.352000 20.880000
211 1 3.000000 0 0.000000 20.880000 8.352000 25.056000
212 1 3.000000 0 0.000000 25.056000 4.176000 25.056000
213 1 3.000000 0 0.000000 20.880000 4.176000 29.232000
214 1 3.000000 0 0.000000 25.056000 8.352000 29.232000
215 1 3.000000 0 0.000000 20.880000 8.352000 33.408000
216 1 3.000000 0 0.000000 25.056000 4.176000 33.408000
217 1 3.000000 0 0.000000 20.880000 4.176000 37.584000
218 1 3.000000 0 0.000000 25.056000 8.352000 37.584000
219 1 3.000000 0 0.000000 20.880000 8.352000 41.760000
220 1 3.000000 0 0.000000 25.056000 4.176000 41.760000
221 1 3.000000 0 0.000000 20.880000 12.528000 4.176000
222 1 3.000000 0 0.000000 25.056000 16.704000 4.176000
223 1 3.000000 0 0.000000 20.880000 16.704000 8.352000
224 1 3.000000 0 0.000000 25.056000 12.528000 8.352000
225 1 3.000000 0 0.000000 20.880000 12.528000 12.528000
226 1 3.000000 0 0.000000 25.056000 16.704000 12.528000
227 1 3.000000 0 0.000000 20.880000 16.704000 16.704000
228 1 3.000000 0 0.000000 25.056000 12.528000 16.704000
229 1 3.000000 0 0.000000 20.880000 12.528000 20.880000
230 1 3.000000 0 0.000000 25.056000 16.704000 20.880000
231 1 3.000000 0 0.000000 20.880000 16.704000 25.056000
232 1 3.000000 0 0.000000 25.056000 12.528000 25.056000
233 1 3.000000 0 0.000000 20.880000 12.528000 29.232000
234 1 3.000000 0 0.000000 25.056000 16.704000 29.232000
235 1 3.000000 0 0.000000 20.880000 16.704000 33.408000
236 1 3.000000 0 0.000000 25.056000 12.528000 33.408000
237 1 3.000000 0 0.000000 20.880000 12.528000 37.584000
238 1 3.000000 0 0.000000 25.056000 16.704000 37.584000
239 1 3.000000 0 0.000000 20.880000 16.704000 41.760000
240 1 3.000000 0 0.000000 25.056000 12.528000 41.760000
241 1 3.000000 0 0.000000 20.880000 20.880000 4.176000
242 1 3.000000 0 0.000000 25.056000 25.056000 4.176000
243 1 3.000000 0 0.000000 20.880000 25.056000 8.352000
244 1 3.000000 0 0.000000 25.056000 20.880000 8.352000
245 1 3.000000 0 0.000000 20.880000 20.880000 12.528000
246 1 3.000000 0 0.000000 25.056000 25.056000 12.528000
247 1 3.000000 0 0.000000 20.880000 25.056000 16.704000
248 1 3.000000 0 0.000000 25.056000 20.880000 16.704000
249 1 3.000000 0 0.000000 20.880000 20.880000 20.880000
250 1 3.000000 0 0.000000 25.056000 25.056000 20.880000
251 1 3.000000 0 0.000000 20.880000 25.056000 25.056000
252 1 3.000000 0 0.000000 25.056000 20.880000 25.056000
253 1 3.000000 0 0.000000 20.880000 20.880000 29.232000
254 1 3.000000 0 0.000000 25.056000 25.056000 29.232000
255 1 3.000000 0 0.000000 20.880000 25.056000 33.408000
256 1 3.000000 0 0.000000 25.056000 20.880000 33.408000
257 1 3.000000 0 0.000000 20.880000 20.880000 37.584000
258 1 3.000000 0 0.000000 25.056000 25.056000 37.584000
259 1 3.000000 0 0.000000 20.880000 25.056000 41.760000
260 1 3.000000 0 0.000000 25.056000 20.880000 41.760000
261 1 3.000000 0 0.000000 20.880000 29.232000 4.176000
262 1 3.000000 0 0.000000 25.056000 33.408000 4.176000
263 1 3.000000 0 0.000000 20.880000 33.408000 8.352000
264 1 3.000000 0 0.000000 25.056000 29.232000 8.352000
265 1 3.000000 0 0.000000 20.880000 29.232000 12.528000
266 1 3.000000 0 0.000000 25.056000 33.408000 12.528000
267 1 3.000000 0 0.000000 20.880000 33.408000 16.704000
268 1 3.000000 0 0.000000 25.056000 29.232000 16.704000
269 1 3.000000 0 0.000000 20.880000 29.232000 20.880000
270 1 3.000000 0 0.000000 25.056000 33.408000 20.880000
271 1 3.000000 0 0.000000 20.880000 33.408000 25.056000
272 1 3.000000 0 0.000000 25.056000 29.232000 25.056000
273 1 3.000000 0 0.000000 20.880000 29.232000 29.232000
274 1 3.000000 0 0.000000 25.056000 33.408000 29.232000
275 1 3.000000 0 0.000000 20.880000 33.408000 33.408000
276 1 3.000000 0 0.000000 25.056000 29.232000 33.408000
277 1 3.000000 0 0.000000 20.880000 29.232000 37.584000
278 1 3.000000 0 0.000000 25.056000 33.408000 37.584000
279 1 3.000000 0 0.000000 20.880000 33.408000 41.760000
280 1 3.000000 0 0.000000 25.056000 29.232000 41.760000
281 1 3.000000 0 0.000000 20.880000 37.584000 4.176000
282 1 3.000000 0 0.000000 25.056000 41.760000 4.176000
283 1 3.000000 0 0.000000 20.880000 41.760000 8.352000
284 1 3.000000 0 0.000000 25.056000 37.584000 8.352000
285 1 3.000000 0 0.000000 20.880000 37.584000 12.528000
286 1 3.000000 0 0.000000 25.056000 41.760000 12.528000
287 1 3.000000 0 0.000000 20.880000 41.760000 16.704000
288 1 3.000000 0 0.000000 25.056000 37.584000 16.704000
289 1 3.000000 0 0.000000 20.880000 37.584000 20.880000
290 1 3.000000 0 0.000000 25.056000 41.760000 20.880000
291 1 3.000000 0 0.000000 20.880000 41.760000 25.056000
292 1 3.000000 0 0.000000 25.056000 37.584000 25.056000
293 1 3.000000 0 0.000000 20.880000 37.584000 29.232000
294 1 3.000000 0 0.000000 25.056000 41.760000 29.232000
295 1 3.000000 0 0.000000 20.880000 41.760000 33.408000
296 1 3.000000 0 0.000000 25.056000 37.584000 33.408000
297 1 3.000000 0 0.000000 20.880000 37.584000 37.584000
298 1 3.000000 0 0.000000 25.056000 41.760000 37.584000
299 1 3.000000 0 0.000000 20.880000 41.760000 41.760000
300 1 3.000000 0 0.000000 25.056000 37.584000 41.760000
301 1 3.000000 0 0.000000 29.232000 4.176000 4.176000
302 1 3.000000 0 0.000000 33.408000 8.352000 4.176000
303 1 3.000000 0 0.000000 29.232000 8.352000 8.352000
304 1 3.000000 0 0.000000 33.408000 4.176000 8.352000
305 1 3.000000 0 0.000000 29.232000 4.176000 12.528000
306 1 3.000000 0 0.000000 33.408000 8.352000 12.528000
307 1 3.000000 0 0.000000 29.232000 8.352000 16.704000
308 1 3.000000 0 0.000000 33.408000 4.176000 16.704000
309 1 3.000000 0 0.000000 29.232000 4.176000 20.880000
310 1 3.000000 0 0.000000 33.408000 8.352000 20.880000
311 1 3.000000 0 0.000000 29.232000 8.352000 25.056000
312 1 3.000000 0 0.000000 33.408000 4.176000 25.056000
313 1 3.000000 0 0.000000 29.232000 4.176000 29.232000
314 1 3.000000 0 0.000000 33.408000 8.352000 29.232000
315 1 3.000000 0 0.000000 29.232000 8.352000 33.408000
316 1 3.000000 0 0.000000 33.408000 4.176000 33.408000
317 1 3.000000 0 0.000000 29.232000 4.176000 37.584000
318 1 3.000000 0 0.000000 33.408000 8.352000 37.584000
319 1 3.000000 0 0.000000 29.232000 8.352000 41.760000
320 1 3.000000 0 0.000000 33.408000 4.176000 41.760000
321 1 3.000000 0 0.000000 29.232000 12.528000 4.176000
322 1 3.000000 0 0.000000 33.408000 16.704000 4.176000
323 1 3.000000 0 0.000000 29.232000 16.704000 8.352000
324 1 3.000000 0 0.000000 33.408000 12.528000 8.352000
325 1 3.000000 0 0.000000 29.232000 12.528000 12.528000
326 1 3.000000 0 0.000000 33.408000 16.704000 12.528000
327 1 3.000000 0 0.000000 29.232000 16.704000 16.704000
328 1 3.000000 0 0.000000 33.408000 12.528000 16.704000
329 1 3.000000 0 0.000000 29.232000 12.528000 20.880000
330 1 3.000000 0 0.000000 33.408000 16.704000 20.880000
331 1 3.000000 0 0.000000 29.232000 16.704000 25.056000
332 1 3.000000 0 0.000000 33.408000 12.528000 25.056000
333 1 3.000000 0 0.000000 29.232000 12.528000 29.232000
334 1 3.000000 0 0.000000 33.408000 16.704000 29.232000
335 1 3.000000 0 0.000000 29.232000 16.704000 33.408000
336 1 3.000000 0 0.000000 33.408000 12.528000 33.408000
337 1 3.000000 0 0.000000 29.232000 12.528000 37.584000
338 1 3.000000 0 0.000000 33.408000 16.704000 37.584000
339 1 3.000000 0 0.000000 29.232000 16.704000 41.760000
340 1 3.000000 0 0.000000 33.408000 12.528000 41.760000
341 1 3.000000 0 0.000000 29.232000 20.880000 4.176000
342 1 3.000000 0 0.000000 33.408000 25.056000 4.176000
343 1 3.000000 0 0.000000 29.232000 25.056000 8.352000
344 1 3.000000 0 0.000000 33.408000 20.880000 8.352000
345 1 3.000000 0 0.000000 29.232000 20.880000 12.528000
346 1 3.000000 0 0.000000 33.408000 25.056000 12.528000
347 1 3.000000 0 0.000000 29.232000 25.056000 16.704000
348 1 3.000000 0 0.000000 33.408000 20.880000 16.704000
349 1 3.000000 0 0.000000 29.232000 20.880000 20.880000
350 1 3.000000 0 0.000000 33.408000 25.056000 20.880000
351 1 3.000000 0 0.000000 29.232000 25.056000 25.056000
352 1 3.000000 0 0.000000 33.408000 20.880000 25.056000
353 1 3.000000 0 0.000000 29.232000 20.880000 29.232000
354 1 3.000000 0 0.000000 33.408000 25.056000 29.232000
355 1 3.000000 0 0.000000 29.232000 25.056000 33.408000
356 1 3.000000 0 0.000000 33.408000 20.880000 33.408000
357 1 3.000000 0 0.000000 29.232000 20.880000 37.584000
358 1 3.000000 0 0.000000 33.408000 25.056000 37.584000
359 1 3.000000 0 0.000000 29.232000 25.056000 41.760000
360 1 3.000000 0 0.000000 33.408000 20.880000 41.760000
361 1 3.000000 0 0.000000 29.232000 29.232000 4.176000
362 1 3.000000 0 0.000000 33.408000 33.408000 4.176000
363 1 3.000000 0 0.000000 29.232000 33.408000 8.352000
364 1 3.000000 0 0.000000 33.408000 29.232000 8.352000
365 1 3.000000 0 0.000000 29.232000 29.232000 12.528000
366 1 3.000000 0 0.000000 33.408000 33.408000 12.528000
367 1 3.000000 0 0.000000 29.232000 33.408000 16.704000
368 1 3.000000 0 0.000000 33.408000 29.232000 16.704000
369 1 3.000000 0 0.000000 29.232000 29.232000 20.880000
370 1 3.000000 0 0.000000 33.408000 33.408000 20.880000
371 1 3.000000 0 0.000000 29.232000 33.408000 25.056000
372 1 3.000000 0 0.000000 33.408000 29.232000 25.056000
373 1 3.000000 0 0.000000 29.232000 29.232000 29.232000
374 1 3.000000 0 0.000000 33.408000 33.408000 29.232000
375 1 3.000000 0 0.000000 29.232000 33.408000 33.408000
376 1 3.000000 0 0.000000 33.408000 29.232000 33.408000
377 1 3.000000 0 0.000000 29.232000 29.232000 37.584000
378 1 3.000000 0 0.000000 33.408000 33.408000 37.584000
379 1 3.000000 0 0.000000 29.232000 33.408000 41.760000
380 1 3.000000 0 0.000000 33.408000 29.232000 41.760000
381 1 3.000000 0 0.000000 29.232000 37.584000 4.176000
382 1 3.000000 0 0.000000 33.408000 41.760000 4.176000
383 1 3.000000 0 0.000000 29.232000 41.760000 8.352000
384 1 3.000000 0 0.000000 33.408000 37.584000 8.352000
385 1 3.000000 0 0.000000 29.232000 37.584000 12.528000
386 1 3.000000 0 0.000000 33.408000 41.760000 12.528000
387 1 3.000000 0 0.000000 29.232000 41.760000 16.704000
388 1 3.000000 0 0.000000 33.408000 37.584000 16.704000
389 1 3.000000 0 0.000000 29.232000 37.584000 20.880000
390 1 3.000000 0 0.000000 33.408000 41.760000 20.880000
391 1 3.000000 0 0.000000 29.232000 41.760000 25.056000
392 1 3.000000 0 0.000000 33.408000 37.584000 25.056000
393 1 3.000000 0 0.000000 29.232000 37.584000 29.232000
394 1 3.000000 0 0.000000 33.408000 41.760000 29.232000
395 1 3.000000 0 0.000000 29.232000 41.760000 33.408000
396 1 3.000000 0 0.000000 33.408000 37.584000 33.408000
397 1 3.000000 0 0.000000 29.232000 37.584000 37.584000
398 1 3.000000 0 0.000000 33.408000 41.760000 37.584000
399 1 3.000000 0 0.000000 29.232000 41.760000 41.760000
400 1 3.000000 0 0.000000 33.408000 37.584000 41.760000
401 1 3.000000 0 0.000000 37.584000 4.176000 4.176000
402 1 3.000000 0 0.000000 41.760000 8.352000 4.176000
403 1 3.000000 0 0.000000 37.584000 8.352000 8.352000
404 1 3.000000 0 0.000000 41.760000 4.176000 8.352000
405 1 3.000000 0 0.000000 37.584000 4.176000 12.528000
406 1 3.000000 0 0.000000 41.760000 8.352000 12.528000
407 1 3.000000 0 0.000000 37.584000 8.352000 16.704000
408 1 3.000000 0 0.000000 41.760000 4.176000 16.704000
409 1 3.000000 0 0.000000 37.584000 4.176000 20.880000
410 1 3.000000 0 0.000000 41.760000 8.352000 20.880000
411 1 3.000000 0 0.000000 37.584000 8.352000 25.056000
412 1 3.000000 0 0.000000 41.760000 4.176000 25.056000
413 1 3.000000 0 0.000000 37.584000 4.176000 29.232000
414 1 3.000000 0 0.000000 41.760000 8.352000 29.232000
415 1 3.000000 0 0.000000 37.584000 8.352000 33.408000
416 1 3.000000 0 0.000000 41.760000 4.176000 33.408000
417 1 3.000000 0 0.000000 37.584000 4.176000 37.584000
418 1 3.000000 0 0.000000 41.760000 8.352000 37.584000
419 1 3.000000 0 0.000000 37.584000 8.352000 41.760000
420 1 3.000000 0 0.000000 41.760000 4.176000 41.760000
421 1 3.000000 0 0.000000 37.584000 12.528000 4.176000
422 1 3.000000 0 0.000000 41.760000 16.704000 4.176000
423 1 3.000000 0 0.000000 37.584000 16.704000 8.352000
424 1 3.000000 0 0.000000 41.760000 12.528000 8.352000
425 1 3.000000 0 0.000000 37.584000 12.528000 12.528000
426 1 3.000000 0 0.000000 41.760000 16.704000 12.528000
427 1 3.000000 0 0.000000 37.584000 16.704000 16.704000
428 1 3.000000 0 0.000000 41.760000 12.528000 16.704000
429 1 3.000000 0 0.000000 37.584000 12.528000 20.880000
430 1 3.000000 0 0.000000 41.760000 16.704000 20.880000
431 1 3.000000 0 0.000000 37.584000 16.704000 25.056000
432 1 3.000000 0 0.000000 41.760000 12.528000 25.056000
433 1 3.000000 0 0.000000 37.584000 12.528000 29.232000
434 1 3.000000 0 0.000000 41.760000 16.704000 29.232000
435 1 3.000000 0 0.000000 37.584000 16.704000 33.408000
436 1 3.000000 0 0.000000 41.760000 12.528000 33.408000
437 1 3.000000 0 0.000000 37.584000 12.528000 37.584000
438 1 3.000000 0 0.000000 41.760000 16.704000 37.584000
439 1 3.000000 0 0.000000 37.584000 16.704000 41.760000
440 1 3.000000 0 0.000000 41.760000 12.528000 41.760000
441 1 3.000000 0 0.000000 37.584000 20.880000 4.176000
442 1 3.000000 0 0.000000 41.760000 25.056000 4.176000
443 1 3.000000 0 0.000000 37.584000 25.056000 8.352000
444 1 3.000000 0 0.000000 41.760000 20.880000 8.352000
445 1 3.000000 0 0.000000 37.584000 20.880000 12.528000
446 1 3.000000 0 0.000000 41.760000 25.056000 12.528000
447 1 3.000000 0 0.000000 37.584000 25.056000 16.704000
448 1 3.000000 0 0.000000 41.760000 20.880000 16.704000
449 1 3.000000 0 0.000000 37.584000 20.880000 20.880000
450 1 3.000000 0 0.000000 41.760000 25.056000 20.880000
451 1 3.000000 0 0.000000 37.584000 25.056000 25.056000
452 1 3.000000 0 0.000000 41.760000 20.880000 25.056000
453 1 3.000000 0 0.000000 37.584000 20.880000 29.232000
454 1 3.000000 0 0.000000 41.760000 25.056000 29.232000
455 1 3.000000 0 0.000000 37.584000 25.056000 33.408000
456 1 3.000000 0 0.000000 41.760000 20.880000 33.408000
457 1 3.000000 0 0.000000 37.584000 20.880000 37.584000
458 1 3.000000 0 0.000000 41.760000 25.056000 37.584000
459 1 3.000000 0 0.000000 37.584000 25.056000 41.760000
460 1 3.000000 0 0.000000 41.760000 20.880000 41.760000
461 1 3.000000 0 0.000000 37.584000 29.232000 4.176000
462 1 3.000000 0 0.000000 41.760000 33.408000 4.176000
463 1 3.000000 0 0.000000 37.584000 33.408000 8.352000
464 1 3.000000 0 0.000000 41.760000 29.232000 8.352000
465 1 3.000000 0 0.000000 37.584000 29.232000 12.528000
466 1 3.000000 0 0.000000 41.760000 33.408000 12.528000
467 1 3.000000 0 0.000000 37.584000 33.408000 16.704000
468 1 3.000000 0 0.000000 41.760000 29.232000 16.704000
469 1 3.000000 0 0.000000 37.584000 29.232000 20.880000
470 1 3.000000 0 0.000000 41.760000 33.408000 20.880000
471 1 3.000000 0 0.000000 37.584000 33.408000 25.056000
472 1 3.000000 0 0.000000 41.760000 29.232000 25.056000
473 1 3.000000 0 0.000000 37.584000 29.232000 29.232000
474 1 3.000000 0 0.000000 41.760000 33.408000 29.232000
475 1 3.000000 0 0.000000 37.584000 33.408000 33.408000
476 1 3.000000 0 0.000000 41.760000 29.232000 33.408000
477 1 3.000000 0 0.000000 37.584000 29.232000 37.584000
478 1 3.000000 0 0.000000 41.760000 33.408000 37.584000
479 1 3.000000 0 0.000000 37.584000 33.408000 41.760000
480 1 3.000000 0 0.000000 41.760000 29.232000 41.760000
481 1 3.000000 0 0.000000 37.584000 37.584000 4.176000
482 1 3.000000 0 0.000000 41.760000 41.760000 4.176000
483 1 3.000000 0 0.000000 37.584000 41.760000 8.352000
484 1 3.000000 0 0.000000 41.760000 37.584000 8.352000
485 1 3.000000 0 0.000000 37.584000 37.584000 12.528000
486 1 3.000000 0 0.000000 41.760000 41.760000 12.528000
487 1 3.000000 0 0.000000 37.584000 41.760000 16.704000
488 1 3.000000 0 0.000000 41.760000 37.584000 16.704000
489 1 3.000000 0 0.000000 37.584000 37.584000 20.880000
490 1 3.000000 0 0.000000 41.760000 41.760000 20.880000
491 1 3.000000 0 0.000000 37.584000 41.760000 25.056000
492 1 3.000000 0 0.000000 41.760000 37.584000 25.056000
493 1 3.000000 0 0.000000 37.584000 37.584000 29.232000
494 1 3.000000 0 0.000000 41.760000 41.760000 29.232000
495 1 3.000000 0 0.000000 37.584000 41.760000 33.408000
496 1 3.000000 0 0.000000 41.760000 37.584000 33.408000
497 1 3.000000 0 0.000000 37.584000 37.584000 37.584000
498 1 3.000000 0 0.000000 41.760000 41.760000 37.584000
499 1 3.000000 0 0.000000 37.584000 41.760000 41.760000
500 1 3.000000 0 0.000000 41.760000 37.584000 41.760000
501 2 0.000000 1 0.700000 4.176000 4.176000 4.176000
502 2 0.000000 -1 0.700000 4.176000 4.176000 4.176000
503 2 0.000000 1 0.700000 8.352000 8.352000 4.176000
504 2 0.000000 -1 0.700000 8.352000 8.352000 4.176000
505 2 0.000000 1 0.700000 4.176000 8.352000 8.352000
506 2 0.000000 -1 0.700000 4.176000 8.352000 8.352000
507 2 0.000000 1 0.700000 8.352000 4.176000 8.352000
508 2 0.000000 -1 0.700000 8.352000 4.176000 8.352000
509 2 0.000000 1 0.700000 4.176000 4.176000 12.528000
510 2 0.000000 -1 0.700000 4.176000 4.176000 12.528000
511 2 0.000000 1 0.700000 8.352000 8.352000 12.528000
512 2 0.000000 -1 0.700000 8.352000 8.352000 12.528000
513 2 0.000000 1 0.700000 4.176000 8.352000 16.704000
514 2 0.000000 -1 0.700000 4.176000 8.352000 16.704000
515 2 0.000000 1 0.700000 8.352000 4.176000 16.704000
516 2 0.000000 -1 0.700000 8.352000 4.176000 16.704000
517 2 0.000000 1 0.700000 4.176000 4.176000 20.880000
518 2 0.000000 -1 0.700000 4.176000 4.176000 20.880000
519 2 0.000000 1 0.700000 8.352000 8.352000 20.880000
520 2 0.000000 -1 0.700000 8.352000 8.352000 20.880000
521 2 0.000000 1 0.700000 4.176000 8.352000 25.056000
522 2 0.000000 -1 0.700000 4.176000 8.352000 25.056000
523 2 0.000000 1 0.700000 8.352000 4.176000 25.056000
524 2 0.000000 -1 0.700000 8.352000 4.176000 25.056000
525 2 0.000000 1 0.700000 4.176000 4.176000 29.232000
526 2 0.000000 -1 0.700000 4.176000 4.176000 29.232000
527 2 0.000000 1 0.700000 8.352000 8.352000 29.232000
528 2 0.000000 -1 0.700000 8.352000 8.352000 29.232000
529 2 0.000000 1 0.700000 4.176000 8.352000 33.408000
530 2 0.000000 -1 0.700000 4.176000 8.352000 33.408000
531 2 0.000000 1 0.700000 8.352000 4.176000 33.408000
532 2 0.000000 -1 0.700000 8.352000 4.176000 33.408000
533 2 0.000000 1 0.700000 4.176000 4.176000 37.584000
534 2 0.000000 -1 0.700000 4.176000 4.176000 37.584000
535 2 0.000000 1 0.700000 8.352000 8.352000 37.584000
536 2 0.000000 -1 0.700000 8.352000 8.352000 37.584000
537 2 0.000000 1 0.700000 4.176000 8.352000 41.760000
538 2 0.000000 -1 0.700000 4.176000 8.352000 41.760000
539 2 0.000000 1 0.700000 8.352000 4.176000 41.760000
540 2 0.000000 -1 0.700000 8.352000 4.176000 41.760000
541 2 0.000000 1 0.700000 4.176000 12.528000 4.176000