Created by AJB

2000 atoms
2 atom types

0.000000 22.098442 xlo xhi
0.000000 22.098442 ylo yhi
0.000000 22.098442 zlo zhi

Masses

1 6.941000
2 1.000000

Atoms

1 1 3.000000 0 0.000000 2.209844 2.209844 2.209844 
2 1 3.000000 0 0.000000 4.419688 4.419688 2.209844 
3 1 3.000000 0 0.000000 2.209844 4.419688 4.419688 
4 1 3.000000 0 0.000000 4.419688 2.209844 4.419688 
5 1 3.000000 0 0.000000 2.209844 2.209844 6.629533 
6 1 3.000000 0 0.000000 4.419688 4.419688 6.629533 
7 1 3.000000 0 0.000000 2.209844 4.419688 8.839377 
8 1 3.000000 0 0.000000 4.419688 2.209844 8.839377 
9 1 3.000000 0 0.000000 2.209844 2.209844 11.049221 
10 1 3.000000 0 0.000000 4.419688 4.419688 11.049221 
11 1 3.000000 0 0.000000 2.209844 4.419688 13.259065 
12 1 3.000000 0 0.000000 4.419688 2.209844 13.259065 
13 1 3.000000 0 0.000000 2.209844 2.209844 15.468909 
14 1 3.000000 0 0.000000 4.419688 4.419688 15.468909 
15 1 3.000000 0 0.000000 2.209844 4.419688 17.678754 
16 1 3.000000 0 0.000000 4.419688 2.209844 17.678754 
17 1 3.000000 0 0.000000 2.209844 2.209844 19.888598 
18 1 3.000000 0 0.000000 4.419688 4.419688 19.888598 
19 1 3.000000 0 0.000000 2.209844 4.419688 22.098442 
20 1 3.000000 0 0.000000 4.419688 2.209844 22.098442 
21 1 3.000000 0 0.000000 2.209844 6.629533 2.209844 
22 1 3.000000 0 0.000000 4.419688 8.839377 2.209844 
23 1 3.000000 0 0.000000 2.209844 8.839377 4.419688 
24 1 3.000000 0 0.000000 4.419688 6.629533 4.419688 
25 1 3.000000 0 0.000000 2.209844 6.629533 6.629533 
26 1 3.000000 0 0.000000 4.419688 8.839377 6.629533 
27 1 3.000000 0 0.000000 2.209844 8.839377 8.839377 
28 1 3.000000 0 0.000000 4.419688 6.629533 8.839377 
29 1 3.000000 0 0.000000 2.209844 6.629533 11.049221 
30 1 3.000000 0 0.000000 4.419688 8.839377 11.049221 
31 1 3.000000 0 0.000000 2.209844 8.839377 13.259065 
32 1 3.000000 0 0.000000 4.419688 6.629533 13.259065 
33 1 3.000000 0 0.000000 2.209844 6.629533 15.468909 
34 1 3.000000 0 0.000000 4.419688 8.839377 15.468909 
35 1 3.000000 0 0.000000 2.209844 8.839377 17.678754 
36 1 3.000000 0 0.000000 4.419688 6.629533 17.678754 
37 1 3.000000 0 0.000000 2.209844 6.629533 19.888598 
38 1 3.000000 0 0.000000 4.419688 8.839377 19.888598 
39 1 3.000000 0 0.000000 2.209844 8.839377 22.098442 
40 1 3.000000 0 0.000000 4.419688 6.629533 22.098442 
41 1 3.000000 0 0.000000 2.209844 11.049221 2.209844 
42 1 3.000000 0 0.000000 4.419688 13.259065 2.209844 
43 1 3.000000 0 0.000000 2.209844 13.259065 4.419688 
44 1 3.000000 0 0.000000 4.419688 11.049221 4.419688 
45 1 3.000000 0 0.000000 2.209844 11.049221 6.629533 
46 1 3.000000 0 0.000000 4.419688 13.259065 6.629533 
47 1 3.000000 0 0.000000 2.209844 13.259065 8.839377 
48 1 3.000000 0 0.000000 4.419688 11.049221 8.839377 
49 1 3.000000 0 0.000000 2.209844 11.049221 11.049221 
50 1 3.000000 0 0.000000 4.419688 13.259065 11.049221 
51 1 3.000000 0 0.000000 2.209844 13.259065 13.259065 
52 1 3.000000 0 0.000000 4.419688 11.049221 13.259065 
53 1 3.000000 0 0.000000 2.209844 11.049221 15.468909 
54 1 3.000000 0 0.000000 4.419688 13.259065 15.468909 
55 1 3.000000 0 0.000000 2.209844 13.259065 17.678754 
56 1 3.000000 0 0.000000 4.419688 11.049221 17.678754 
57 1 3.000000 0 0.000000 2.209844 11.049221 19.888598 
58 1 3.000000 0 0.000000 4.419688 13.259065 19.888598 
59 1 3.000000 0 0.000000 2.209844 13.259065 22.098442 
60 1 3.000000 0 0.000000 4.419688 11.049221 22.098442 
61 1 3.000000 0 0.000000 2.209844 15.468909 2.209844 
62 1 3.000000 0 0.000000 4.419688 17.678754 2.209844 
63 1 3.000000 0 0.000000 2.209844 17.678754 4.419688 
64 1 3.000000 0 0.000000 4.419688 15.468909 4.419688 
65 1 3.000000 0 0.000000 2.209844 15.468909 6.629533 
66 1 3.000000 0 0.000000 4.419688 17.678754 6.629533 
67 1 3.000000 0 0.000000 2.209844 17.678754 8.839377 
68 1 3.000000 0 0.000000 4.419688 15.468909 8.839377 
69 1 3.000000 0 0.000000 2.209844 15.468909 11.049221 
70 1 3.000000 0 0.000000 4.419688 17.678754 11.049221 
71 1 3.000000 0 0.000000 2.209844 17.678754 13.259065 
72 1 3.000000 0 0.000000 4.419688 15.468909 13.259065 
73 1 3.000000 0 0.000000 2.209844 15.468909 15.468909 
74 1 3.000000 0 0.000000 4.419688 17.678754 15.468909 
75 1 3.000000 0 0.000000 2.209844 17.678754 17.678754 
76 1 3.000000 0 0.000000 4.419688 15.468909 17.678754 
77 1 3.000000 0 0.000000 2.209844 15.468909 19.888598 
78 1 3.000000 0 0.000000 4.419688 17.678754 19.888598 
79 1 3.000000 0 0.000000 2.209844 17.678754 22.098442 
80 1 3.000000 0 0.000000 4.419688 15.468909 22.098442 
81 1 3.000000 0 0.000000 2.209844 19.888598 2.209844 
82 1 3.000000 0 0.000000 4.419688 22.098442 2.209844 
83 1 3.000000 0 0.000000 2.209844 22.098442 4.419688 
84 1 3.000000 0 0.000000 4.419688 19.888598 4.419688 
85 1 3.000000 0 0.000000 2.209844 19.888598 6.629533 
86 1 3.000000 0 0.000000 4.419688 22.098442 6.629533 
87 1 3.000000 0 0.000000 2.209844 22.098442 8.839377 
88 1 3.000000 0 0.000000 4.419688 19.888598 8.839377 
89 1 3.000000 0 0.000000 2.209844 19.888598 11.049221 
90 1 3.000000 0 0.000000 4.419688 22.098442 11.049221 
91 1 3.000000 0 0.000000 2.209844 22.098442 13.259065 
92 1 3.000000 0 0.000000 4.419688 19.888598 13.259065 
93 1 3.000000 0 0.000000 2.209844 19.888598 15.468909 
94 1 3.000000 0 0.000000 4.419688 22.098442 15.468909 
95 1 3.000000 0 0.000000 2.209844 22.098442 17.678754 
96 1 3.000000 0 0.000000 4.419688 19.888598 17.678754 
97 1 3.000000 0 0.000000 2.209844 19.888598 19.888598 
98 1 3.000000 0 0.000000 4.419688 22.098442 19.888598 
99 1 3.000000 0 0.000000 2.209844 22.098442 22.098442 
100 1 3.000000 0 0.000000 4.419688 19.888598 22.098442 
101 1 3.000000 0 0.000000 6.629533 2.209844 2.209844 
102 1 3.000000 0 0.000000 8.839377 4.419688 2.209844 
103 1 3.000000 0 0.000000 6.629533 4.419688 4.419688 
104 1 3.000000 0 0.000000 8.839377 2.209844 4.419688 
105 1 3.000000 0 0.000000 6.629533 2.209844 6.629533 
106 1 3.000000 0 0.000000 8.839377 4.419688 6.629533 
107 1 3.000000 0 0.000000 6.629533 4.419688 8.839377 
108 1 3.000000 0 0.000000 8.839377 2.209844 8.839377 
109 1 3.000000 0 0.000000 6.629533 2.209844 11.049221 
110 1 3.000000 0 0.000000 8.839377 4.419688 11.049221 
111 1 3.000000 0 0.000000 6.629533 4.419688 13.259065 
112 1 3.000000 0 0.000000 8.839377 2.209844 13.259065 
113 1 3.000000 0 0.000000 6.629533 2.209844 15.468909 
114 1 3.000000 0 0.000000 8.839377 4.419688 15.468909 
115 1 3.000000 0 0.000000 6.629533 4.419688 17.678754 
116 1 3.000000 0 0.000000 8.839377 2.209844 17.678754 
117 1 3.000000 0 0.000000 6.629533 2.209844 19.888598 
118 1 3.000000 0 0.000000 8.839377 4.419688 19.888598 
119 1 3.000000 0 0.000000 6.629533 4.419688 22.098442 
120 1 3.000000 0 0.000000 8.839377 2.209844 22.098442 
121 1 3.000000 0 0.000000 6.629533 6.629533 2.209844 
122 1 3.000000 0 0.000000 8.839377 8.839377 2.209844 
123 1 3.000000 0 0.000000 6.629533 8.839377 4.419688 
124 1 3.000000 0 0.000000 8.839377 6.629533 4.419688 
125 1 3.000000 0 0.000000 6.629533 6.629533 6.629533 
126 1 3.000000 0 0.000000 8.839377 8.839377 6.629533 
127 1 3.000000 0 0.000000 6.629533 8.839377 8.839377 
128 1 3.000000 0 0.000000 8.839377 6.629533 8.839377 
129 1 3.000000 0 0.000000 6.629533 6.629533 11.049221 
130 1 3.000000 0 0.000000 8.839377 8.839377 11.049221 
131 1 3.000000 0 0.000000 6.629533 8.839377 13.259065 
132 1 3.000000 0 0.000000 8.839377 6.629533 13.259065 
133 1 3.000000 0 0.000000 6.629533 6.629533 15.468909 
134 1 3.000000 0 0.000000 8.839377 8.839377 15.468909 
135 1 3.000000 0 0.000000 6.629533 8.839377 17.678754 
136 1 3.000000 0 0.000000 8.839377 6.629533 17.678754 
137 1 3.000000 0 0.000000 6.629533 6.629533 19.888598 
138 1 3.000000 0 0.000000 8.839377 8.839377 19.888598 
139 1 3.000000 0 0.000000 6.629533 8.839377 22.098442 
140 1 3.000000 0 0.000000 8.839377 6.629533 22.098442 
141 1 3.000000 0 0.000000 6.629533 11.049221 2.209844 
142 1 3.000000 0 0.000000 8.839377 13.259065 2.209844 
143 1 3.000000 0 0.000000 6.629533 13.259065 4.419688 
144 1 3.000000 0 0.000000 8.839377 11.049221 4.419688 
145 1 3.000000 0 0.000000 6.629533 11.049221 6.629533 
146 1 3.000000 0 0.000000 8.839377 13.259065 6.629533 
147 1 3.000000 0 0.000000 6.629533 13.259065 8.839377 
148 1 3.000000 0 0.000000 8.839377 11.049221 8.839377 
149 1 3.000000 0 0.000000 6.629533 11.049221 11.049221 
150 1 3.000000 0 0.000000 8.839377 13.259065 11.049221 
151 1 3.000000 0 0.000000 6.629533 13.259065 13.259065 
152 1 3.000000 0 0.000000 8.839377 11.049221 13.259065 
153 1 3.000000 0 0.000000 6.629533 11.049221 15.468909 
154 1 3.000000 0 0.000000 8.839377 13.259065 15.468909 
155 1 3.000000 0 0.000000 6.629533 13.259065 17.678754 
156 1 3.000000 0 0.000000 8.839377 11.049221 17.678754 
157 1 3.000000 0 0.000000 6.629533 11.049221 19.888598 
158 1 3.000000 0 0.000000 8.839377 13.259065 19.888598 
159 1 3.000000 0 0.000000 6.629533 13.259065 22.098442 
160 1 3.000000 0 0.000000 8.839377 11.049221 22.098442 
161 1 3.000000 0 0.000000 6.629533 15.468909 2.209844 
162 1 3.000000 0 0.000000 8.839377 17.678754 2.209844 
163 1 3.000000 0 0.000000 6.629533 17.678754 4.419688 
164 1 3.000000 0 0.000000 8.839377 15.468909 4.419688 
165 1 3.000000 0 0.000000 6.629533 15.468909 6.629533 
166 1 3.000000 0 0.000000 8.839377 17.678754 6.629533 
167 1 3.000000 0 0.000000 6.629533 17.678754 8.839377 
168 1 3.000000 0 0.000000 8.839377 15.468909 8.839377 
169 1 3.000000 0 0.000000 6.629533 15.468909 11.049221 
170 1 3.000000 0 0.000000 8.839377 17.678754 11.049221 
171 1 3.000000 0 0.000000 6.629533 17.678754 13.259065 
172 1 3.000000 0 0.000000 8.839377 15.468909 13.259065 
173 1 3.000000 0 0.000000 6.629533 15.468909 15.468909 
174 1 3.000000 0 0.000000 8.839377 17.678754 15.468909 
175 1 3.000000 0 0.000000 6.629533 17.678754 17.678754 
176 1 3.000000 0 0.000000 8.839377 15.468909 17.678754 
177 1 3.000000 0 0.000000 6.629533 15.468909 19.888598 
178 1 3.000000 0 0.000000 8.839377 17.678754 19.888598 
179 1 3.000000 0 0.000000 6.629533 17.678754 22.098442 
180 1 3.000000 0 0.000000 8.839377 15.468909 22.098442 
181 1 3.000000 0 0.000000 6.629533 19.888598 2.209844 
182 1 3.000000 0 0.000000 8.839377 22.098442 2.209844 
183 1 3.000000 0 0.000000 6.629533 22.098442 4.419688 
184 1 3.000000 0 0.000000 8.839377 19.888598 4.419688 
185 1 3.000000 0 0.000000 6.629533 19.888598 6.629533 
186 1 3.000000 0 0.000000 8.839377 22.098442 6.629533 
187 1 3.000000 0 0.000000 6.629533 22.098442 8.839377 
188 1 3.000000 0 0.000000 8.839377 19.888598 8.839377 
189 1 3.000000 0 0.000000 6.629533 19.888598 11.049221 
190 1 3.000000 0 0.000000 8.839377 22.098442 11.049221 
191 1 3.000000 0 0.000000 6.629533 22.098442 13.259065 
192 1 3.000000 0 0.000000 8.839377 19.888598 13.259065 
193 1 3.000000 0 0.000000 6.629533 19.888598 15.468909 
194 1 3.000000 0 0.000000 8.839377 22.098442 15.468909 
195 1 3.000000 0 0.000000 6.629533 22.098442 17.678754 
196 1 3.000000 0 0.000000 8.839377 19.888598 17.678754 
197 1 3.000000 0 0.000000 6.629533 19.888598 19.888598 
198 1 3.000000 0 0.000000 8.839377 22.098442 19.888598 
199 1 3.000000 0 0.000000 6.629533 22.098442 22.098442 
200 1 3.000000 0 0.000000 8.839377 19.888598 22.098442 
201 1 3.000000 0 0.000000 11.049221 2.209844 2.209844 
202 1 3.000000 0 0.000000 13.259065 4.419688 2.209844 
203 1 3.000000 0 0.000000 11.049221 4.419688 4.419688 
204 1 3.000000 0 0.000000 13.259065 2.209844 4.419688 
205 1 3.000000 0 0.000000 11.049221 2.209844 6.629533 
206 1 3.000000 0 0.000000 13.259065 4.419688 6.629533 
207 1 3.000000 0 0.000000 11.049221 4.419688 8.839377 
208 1 3.000000 0 0.000000 13.259065 2.209844 8.839377 
209 1 3.000000 0 0.000000 11.049221 2.209844 11.049221 
210 1 3.000000 0 0.000000 13.259065 4.419688 11.049221 
211 1 3.000000 0 0.000000 11.049221 4.419688 13.259065 
212 1 3.000000 0 0.000000 13.259065 2.209844 13.259065 
213 1 3.000000 0 0.000000 11.049221 2.209844 15.468909 
214 1 3.000000 0 0.000000 13.259065 4.419688 15.468909 
215 1 3.000000 0 0.000000 11.049221 4.419688 17.678754 
216 1 3.000000 0 0.000000 13.259065 2.209844 17.678754 
217 1 3.000000 0 0.000000 11.049221 2.209844 19.888598 
218 1 3.000000 0 0.000000 13.259065 4.419688 19.888598 
219 1 3.000000 0 0.000000 11.049221 4.419688 22.098442 
220 1 3.000000 0 0.000000 13.259065 2.209844 22.098442 
221 1 3.000000 0 0.000000 11.049221 6.629533 2.209844 
222 1 3.000000 0 0.000000 13.259065 8.839377 2.209844 
223 1 3.000000 0 0.000000 11.049221 8.839377 4.419688 
224 1 3.000000 0 0.000000 13.259065 6.629533 4.419688 
225 1 3.000000 0 0.000000 11.049221 6.629533 6.629533 
226 1 3.000000 0 0.000000 13.259065 8.839377 6.629533 
227 1 3.000000 0 0.000000 11.049221 8.839377 8.839377 
228 1 3.000000 0 0.000000 13.259065 6.629533 8.839377 
229 1 3.000000 0 0.000000 11.049221 6.629533 11.049221 
230 1 3.000000 0 0.000000 13.259065 8.839377 11.049221 
231 1 3.000000 0 0.000000 11.049221 8.839377 13.259065 
232 1 3.000000 0 0.000000 13.259065 6.629533 13.259065 
233 1 3.000000 0 0.000000 11.049221 6.629533 15.468909 
234 1 3.000000 0 0.000000 13.259065 8.839377 15.468909 
235 1 3.000000 0 0.000000 11.049221 8.839377 17.678754 
236 1 3.000000 0 0.000000 13.259065 6.629533 17.678754 
237 1 3.000000 0 0.000000 11.049221 6.629533 19.888598 
238 1 3.000000 0 0.000000 13.259065 8.839377 19.888598 
239 1 3.000000 0 0.000000 11.049221 8.839377 22.098442 
240 1 3.000000 0 0.000000 13.259065 6.629533 22.098442 
241 1 3.000000 0 0.000000 11.049221 11.049221 2.209844 
242 1 3.000000 0 0.000000 13.259065 13.259065 2.209844 
243 1 3.000000 0 0.000000 11.049221 13.259065 4.419688 
244 1 3.000000 0 0.000000 13.259065 11.049221 4.419688 
245 1 3.000000 0 0.000000 11.049221 11.049221 6.629533 
246 1 3.000000 0 0.000000 13.259065 13.259065 6.629533 
247 1 3.000000 0 0.000000 11.049221 13.259065 8.839377 
248 1 3.000000 0 0.000000 13.259065 11.049221 8.839377 
249 1 3.000000 0 0.000000 11.049221 11.049221 11.049221 
250 1 3.000000 0 0.000000 13.259065 13.259065 11.049221 
251 1 3.000000 0 0.000000 11.049221 13.259065 13.259065 
252 1 3.000000 0 0.000000 13.259065 11.049221 13.259065 
253 1 3.000000 0 0.000000 11.049221 11.049221 15.468909 
254 1 3.000000 0 0.000000 13.259065 13.259065 15.468909 
255 1 3.000000 0 0.000000 11.049221 13.259065 17.678754 
256 1 3.000000 0 0.000000 13.259065 11.049221 17.678754 
257 1 3.000000 0 0.000000 11.049221 11.049221 19.888598 
258 1 3.000000 0 0.000000 13.259065 13.259065 19.888598 
259 1 3.000000 0 0.000000 11.049221 13.259065 22.098442 
260 1 3.000000 0 0.000000 13.259065 11.049221 22.098442 
261 1 3.000000 0 0.000000 11.049221 15.468909 2.209844 
262 1 3.000000 0 0.000000 13.259065 17.678754 2.209844 
263 1 3.000000 0 0.000000 11.049221 17.678754 4.419688 
264 1 3.000000 0 0.000000 13.259065 15.468909 4.419688 
265 1 3.000000 0 0.000000 11.049221 15.468909 6.629533 
266 1 3.000000 0 0.000000 13.259065 17.678754 6.629533 
267 1 3.000000 0 0.000000 11.049221 17.678754 8.839377 
268 1 3.000000 0 0.000000 13.259065 15.468909 8.839377 
269 1 3.000000 0 0.000000 11.049221 15.468909 11.049221 
270 1 3.000000 0 0.000000 13.259065 17.678754 11.049221 
271 1 3.000000 0 0.000000 11.049221 17.678754 13.259065 
272 1 3.000000 0 0.000000 13.259065 15.468909 13.259065 
273 1 3.000000 0 0.000000 11.049221 15.468909 15.468909 
274 1 3.000000 0 0.000000 13.259065 17.678754 15.468909 
275 1 3.000000 0 0.000000 11.049221 17.678754 17.678754 
276 1 3.000000 0 0.000000 13.259065 15.468909 17.678754 
277 1 3.000000 0 0.000000 11.049221 15.468909 19.888598 
278 1 3.000000 0 0.000000 13.259065 17.678754 19.888598 
279 1 3.000000 0 0.000000 11.049221 17.678754 22.098442 
280 1 3.000000 0 0.000000 13.259065 15.468909 22.098442 
281 1 3.000000 0 0.000000 11.049221 19.888598 2.209844 
282 1 3.000000 0 0.000000 13.259065 22.098442 2.209844 
283 1 3.000000 0 0.000000 11.049221 22.098442 4.419688 
284 1 3.000000 0 0.000000 13.259065 19.888598 4.419688 
285 1 3.000000 0 0.000000 11.049221 19.888598 6.629533 
286 1 3.000000 0 0.000000 13.259065 22.098442 6.629533 
287 1 3.000000 0 0.000000 11.049221 22.098442 8.839377 
288 1 3.000000 0 0.000000 13.259065 19.888598 8.839377 
289 1 3.000000 0 0.000000 11.049221 19.888598 11.049221 
290 1 3.000000 0 0.000000 13.259065 22.098442 11.049221 
291 1 3.000000 0 0.000000 11.049221 22.098442 13.259065 
292 1 3.000000 0 0.000000 13.259065 19.888598 13.259065 
293 1 3.000000 0 0.000000 11.049221 19.888598 15.468909 
294 1 3.000000 0 0.000000 13.259065 22.098442 15.468909 
295 1 3.000000 0 0.000000 11.049221 22.098442 17.678754 
296 1 3.000000 0 0.000000 13.259065 19.888598 17.678754 
297 1 3.000000 0 0.000000 11.049221 19.888598 19.888598 
298 1 3.000000 0 0.000000 13.259065 22.098442 19.888598 
299 1 3.000000 0 0.000000 11.049221 22.098442 22.098442 
300 1 3.000000 0 0.000000 13.259065 19.888598 22.098442 
301 1 3.000000 0 0.000000 15.468909 2.209844 2.209844 
302 1 3.000000 0 0.000000 17.678754 4.419688 2.209844 
303 1 3.000000 0 0.000000 15.468909 4.419688 4.419688 
304 1 3.000000 0 0.000000 17.678754 2.209844 4.419688 
305 1 3.000000 0 0.000000 15.468909 2.209844 6.629533 
306 1 3.000000 0 0.000000 17.678754 4.419688 6.629533 
307 1 3.000000 0 0.000000 15.468909 4.419688 8.839377 
308 1 3.000000 0 0.000000 17.678754 2.209844 8.839377 
309 1 3.000000 0 0.000000 15.468909 2.209844 11.049221 
310 1 3.000000 0 0.000000 17.678754 4.419688 11.049221 
311 1 3.000000 0 0.000000 15.468909 4.419688 13.259065 
312 1 3.000000 0 0.000000 17.678754 2.209844 13.259065 
313 1 3.000000 0 0.000000 15.468909 2.209844 15.468909 
314 1 3.000000 0 0.000000 17.678754 4.419688 15.468909 
315 1 3.000000 0 0.000000 15.468909 4.419688 17.678754 
316 1 3.000000 0 0.000000 17.678754 2.209844 17.678754 
317 1 3.000000 0 0.000000 15.468909 2.209844 19.888598 
318 1 3.000000 0 0.000000 17.678754 4.419688 19.888598 
319 1 3.000000 0 0.000000 15.468909 4.419688 22.098442 
320 1 3.000000 0 0.000000 17.678754 2.209844 22.098442 
321 1 3.000000 0 0.000000 15.468909 6.629533 2.209844 
322 1 3.000000 0 0.000000 17.678754 8.839377 2.209844 
323 1 3.000000 0 0.000000 15.468909 8.839377 4.419688 
324 1 3.000000 0 0.000000 17.678754 6.629533 4.419688 
325 1 3.000000 0 0.000000 15.468909 6.629533 6.629533 
326 1 3.000000 0 0.000000 17.678754 8.839377 6.629533 
327 1 3.000000 0 0.000000 15.468909 8.839377 8.839377 
328 1 3.000000 0 0.000000 17.678754 6.629533 8.839377 
329 1 3.000000 0 0.000000 15.468909 6.629533 11.049221 
330 1 3.000000 0 0.000000 17.678754 8.839377 11.049221 
331 1 3.000000 0 0.000000 15.468909 8.839377 13.259065 
332 1 3.000000 0 0.000000 17.678754 6.629533 13.259065 
333 1 3.000000 0 0.000000 15.468909 6.629533 15.468909 
334 1 3.000000 0 0.000000 17.678754 8.839377 15.468909 
335 1 3.000000 0 0.000000 15.468909 8.839377 17.678754 
336 1 3.000000 0 0.000000 17.678754 6.629533 17.678754 
337 1 3.000000 0 0.000000 15.468909 6.629533 19.888598 
338 1 3.000000 0 0.000000 17.678754 8.839377 19.888598 
339 1 3.000000 0 0.000000 15.468909 8.839377 22.098442 
340 1 3.000000 0 0.000000 17.678754 6.629533 22.098442 
341 1 3.000000 0 0.000000 15.468909 11.049221 2.209844 
342 1 3.000000 0 0.000000 17.678754 13.259065 2.209844 
343 1 3.000000 0 0.000000 15.468909 13.259065 4.419688 
344 1 3.000000 0 0.000000 17.678754 11.049221 4.419688 
345 1 3.000000 0 0.000000 15.468909 11.049221 6.629533 
346 1 3.000000 0 0.000000 17.678754 13.259065 6.629533 
347 1 3.000000 0 0.000000 15.468909 13.259065 8.839377 
348 1 3.000000 0 0.000000 17.678754 11.049221 8.839377 
349 1 3.000000 0 0.000000 15.468909 11.049221 11.049221 
350 1 3.000000 0 0.000000 17.678754 13.259065 11.049221 
351 1 3.000000 0 0.000000 15.468909 13.259065 13.259065 
352 1 3.000000 0 0.000000 17.678754 11.049221 13.259065 
353 1 3.000000 0 0.000000 15.468909 11.049221 15.468909 
354 1 3.000000 0 0.000000 17.678754 13.259065 15.468909 
355 1 3.000000 0 0.000000 15.468909 13.259065 17.678754 
356 1 3.000000 0 0.000000 17.678754 11.049221 17.678754 
357 1 3.000000 0 0.000000 15.468909 11.049221 19.888598 
358 1 3.000000 0 0.000000 17.678754 13.259065 19.888598 
359 1 3.000000 0 0.000000 15.468909 13.259065 22.098442 
360 1 3.000000 0 0.000000 17.678754 11.049221 22.098442 
361 1 3.000000 0 0.000000 15.468909 15.468909 2.209844 
362 1 3.000000 0 0.000000 17.678754 17.678754 2.209844 
363 1 3.000000 0 0.000000 15.468909 17.678754 4.419688 
364 1 3.000000 0 0.000000 17.678754 15.468909 4.419688 
365 1 3.000000 0 0.000000 15.468909 15.468909 6.629533 
366 1 3.000000 0 0.000000 17.678754 17.678754 6.629533 
367 1 3.000000 0 0.000000 15.468909 17.678754 8.839377 
368 1 3.000000 0 0.000000 17.678754 15.468909 8.839377 
369 1 3.000000 0 0.000000 15.468909 15.468909 11.049221 
370 1 3.000000 0 0.000000 17.678754 17.678754 11.049221 
371 1 3.000000 0 0.000000 15.468909 17.678754 13.259065 
372 1 3.000000 0 0.000000 17.678754 15.468909 13.259065 
373 1 3.000000 0 0.000000 15.468909 15.468909 15.468909 
374 1 3.000000 0 0.000000 17.678754 17.678754 15.468909 
375 1 3.000000 0 0.000000 15.468909 17.678754 17.678754 
376 1 3.000000 0 0.000000 17.678754 15.468909 17.678754 
377 1 3.000000 0 0.000000 15.468909 15.468909 19.888598 
378 1 3.000000 0 0.000000 17.678754 17.678754 19.888598 
379 1 3.000000 0 0.000000 15.468909 17.678754 22.098442 
380 1 3.000000 0 0.000000 17.678754 15.468909 22.098442 
381 1 3.000000 0 0.000000 15.468909 19.888598 2.209844 
382 1 3.000000 0 0.000000 17.678754 22.098442 2.209844 
383 1 3.000000 0 0.000000 15.468909 22.098442 4.419688 
384 1 3.000000 0 0.000000 17.678754 19.888598 4.419688 
385 1 3.000000 0 0.000000 15.468909 19.888598 6.629533 
386 1 3.000000 0 0.000000 17.678754 22.098442 6.629533 
387 1 3.000000 0 0.000000 15.468909 22.098442 8.839377 
388 1 3.000000 0 0.000000 17.678754 19.888598 8.839377 
389 1 3.000000 0 0.000000 15.468909 19.888598 11.049221 
390 1 3.000000 0 0.000000 17.678754 22.098442 11.049221 
391 1 3.000000 0 0.000000 15.468909 22.098442 13.259065 
392 1 3.000000 0 0.000000 17.678754 19.888598 13.259065 
393 1 3.000000 0 0.000000 15.468909 19.888598 15.468909 
394 1 3.000000 0 0.000000 17.678754 22.098442 15.468909 
395 1 3.000000 0 0.000000 15.468909 22.098442 17.678754 
396 1 3.000000 0 0.000000 17.678754 19.888598 17.678754 
397 1 3.000000 0 0.000000 15.468909 19.888598 19.888598 
398 1 3.000000 0 0.000000 17.678754 22.098442 19.888598 
399 1 3.000000 0 0.000000 15.468909 22.098442 22.098442 
400 1 3.000000 0 0.000000 17.678754 19.888598 22.098442 
401 1 3.000000 0 0.000000 19.888598 2.209844 2.209844 
402 1 3.000000 0 0.000000 22.098442 4.419688 2.209844 
403 1 3.000000 0 0.000000 19.888598 4.419688 4.419688 
404 1 3.000000 0 0.000000 22.098442 2.209844 4.419688 
405 1 3.000000 0 0.000000 19.888598 2.209844 6.629533 
406 1 3.000000 0 0.000000 22.098442 4.419688 6.629533 
407 1 3.000000 0 0.000000 19.888598 4.419688 8.839377 
408 1 3.000000 0 0.000000 22.098442 2.209844 8.839377 
409 1 3.000000 0 0.000000 19.888598 2.209844 11.049221 
410 1 3.000000 0 0.000000 22.098442 4.419688 11.049221 
411 1 3.000000 0 0.000000 19.888598 4.419688 13.259065 
412 1 3.000000 0 0.000000 22.098442 2.209844 13.259065 
413 1 3.000000 0 0.000000 19.888598 2.209844 15.468909 
414 1 3.000000 0 0.000000 22.098442 4.419688 15.468909 
415 1 3.000000 0 0.000000 19.888598 4.419688 17.678754 
416 1 3.000000 0 0.000000 22.098442 2.209844 17.678754 
417 1 3.000000 0 0.000000 19.888598 2.209844 19.888598 
418 1 3.000000 0 0.000000 22.098442 4.419688 19.888598 
419 1 3.000000 0 0.000000 19.888598 4.419688 22.098442 
420 1 3.000000 0 0.000000 22.098442 2.209844 22.098442 
421 1 3.000000 0 0.000000 19.888598 6.629533 2.209844 
422 1 3.000000 0 0.000000 22.098442 8.839377 2.209844 
423 1 3.000000 0 0.000000 19.888598 8.839377 4.419688 
424 1 3.000000 0 0.000000 22.098442 6.629533 4.419688 
425 1 3.000000 0 0.000000 19.888598 6.629533 6.629533 
426 1 3.000000 0 0.000000 22.098442 8.839377 6.629533 
427 1 3.000000 0 0.000000 19.888598 8.839377 8.839377 
428 1 3.000000 0 0.000000 22.098442 6.629533 8.839377 
429 1 3.000000 0 0.000000 19.888598 6.629533 11.049221 
430 1 3.000000 0 0.000000 22.098442 8.839377 11.049221 
431 1 3.000000 0 0.000000 19.888598 8.839377 13.259065 
432 1 3.000000 0 0.000000 22.098442 6.629533 13.259065 
433 1 3.000000 0 0.000000 19.888598 6.629533 15.468909 
434 1 3.000000 0 0.000000 22.098442 8.839377 15.468909 
435 1 3.000000 0 0.000000 19.888598 8.839377 17.678754 
436 1 3.000000 0 0.000000 22.098442 6.629533 17.678754 
437 1 3.000000 0 0.000000 19.888598 6.629533 19.888598 
438 1 3.000000 0 0.000000 22.098442 8.839377 19.888598 
439 1 3.000000 0 0.000000 19.888598 8.839377 22.098442 
440 1 3.000000 0 0.000000 22.098442 6.629533 22.098442 
441 1 3.000000 0 0.000000 19.888598 11.049221 2.209844 
442 1 3.000000 0 0.000000 22.098442 13.259065 2.209844 
443 1 3.000000 0 0.000000 19.888598 13.259065 4.419688 
444 1 3.000000 0 0.000000 22.098442 11.049221 4.419688 
445 1 3.000000 0 0.000000 19.888598 11.049221 6.629533 
446 1 3.000000 0 0.000000 22.098442 13.259065 6.629533 
447 1 3.000000 0 0.000000 19.888598 13.259065 8.839377 
448 1 3.000000 0 0.000000 22.098442 11.049221 8.839377 
449 1 3.000000 0 0.000000 19.888598 11.049221 11.049221 
450 1 3.000000 0 0.000000 22.098442 13.259065 11.049221 
451 1 3.000000 0 0.000000 19.888598 13.259065 13.259065 
452 1 3.000000 0 0.000000 22.098442 11.049221 13.259065 
453 1 3.000000 0 0.000000 19.888598 11.049221 15.468909 
454 1 3.000000 0 0.000000 22.098442 13.259065 15.468909 
455 1 3.000000 0 0.000000 19.888598 13.259065 17.678754 
456 1 3.000000 0 0.000000 22.098442 11.049221 17.678754 
457 1 3.000000 0 0.000000 19.888598 11.049221 19.888598 
458 1 3.000000 0 0.000000 22.098442 13.259065 19.888598 
459 1 3.000000 0 0.000000 19.888598 13.259065 22.098442 
460 1 3.000000 0 0.000000 22.098442 11.049221 22.098442 
461 1 3.000000 0 0.000000 19.888598 15.468909 2.209844 
462 1 3.000000 0 0.000000 22.098442 17.678754 2.209844 
463 1 3.000000 0 0.000000 19.888598 17.678754 4.419688 
464 1 3.000000 0 0.000000 22.098442 15.468909 4.419688 
465 1 3.000000 0 0.000000 19.888598 15.468909 6.629533 
466 1 3.000000 0 0.000000 22.098442 17.678754 6.629533 
467 1 3.000000 0 0.000000 19.888598 17.678754 8.839377 
468 1 3.000000 0 0.000000 22.098442 15.468909 8.839377 
469 1 3.000000 0 0.000000 19.888598 15.468909 11.049221 
470 1 3.000000 0 0.000000 22.098442 17.678754 11.049221 
471 1 3.000000 0 0.000000 19.888598 17.678754 13.259065 
472 1 3.000000 0 0.000000 22.098442 15.468909 13.259065 
473 1 3.000000 0 0.000000 19.888598 15.468909 15.468909 
474 1 3.000000 0 0.000000 22.098442 17.678754 15.468909 
475 1 3.000000 0 0.000000 19.888598 17.678754 17.678754 
476 1 3.000000 0 0.000000 22.098442 15.468909 17.678754 
477 1 3.000000 0 0.000000 19.888598 15.468909 19.888598 
478 1 3.000000 0 0.000000 22.098442 17.678754 19.888598 
479 1 3.000000 0 0.000000 19.888598 17.678754 22.098442 
480 1 3.000000 0 0.000000 22.098442 15.468909 22.098442 
481 1 3.000000 0 0.000000 19.888598 19.888598 2.209844 
482 1 3.000000 0 0.000000 22.098442 22.098442 2.209844 
483 1 3.000000 0 0.000000 19.888598 22.098442 4.419688 
484 1 3.000000 0 0.000000 22.098442 19.888598 4.419688 
485 1 3.000000 0 0.000000 19.888598 19.888598 6.629533 
486 1 3.000000 0 0.000000 22.098442 22.098442 6.629533 
487 1 3.000000 0 0.000000 19.888598 22.098442 8.839377 
488 1 3.000000 0 0.000000 22.098442 19.888598 8.839377 
489 1 3.000000 0 0.000000 19.888598 19.888598 11.049221 
490 1 3.000000 0 0.000000 22.098442 22.098442 11.049221 
491 1 3.000000 0 0.000000 19.888598 22.098442 13.259065 
492 1 3.000000 0 0.000000 22.098442 19.888598 13.259065 
493 1 3.000000 0 0.000000 19.888598 19.888598 15.468909 
494 1 3.000000 0 0.000000 22.098442 22.098442 15.468909 
495 1 3.000000 0 0.000000 19.888598 22.098442 17.678754 
496 1 3.000000 0 0.000000 22.098442 19.888598 17.678754 
497 1 3.000000 0 0.000000 19.888598 19.888598 19.888598 
498 1 3.000000 0 0.000000 22.098442 22.098442 19.888598 
499 1 3.000000 0 0.000000 19.888598 22.098442 22.098442 
500 1 3.000000 0 0.000000 22.098442 19.888598 22.098442 
501 2 0.000000 1 0.370424 2.209844 2.209844 2.209844 
502 2 0.000000 -1 0.370424 2.209844 2.209844 2.209844 
503 2 0.000000 1 0.370424 4.419688 4.419688 2.209844 
504 2 0.000000 -1 0.370424 4.419688 4.419688 2.209844 
505 2 0.000000 1 0.370424 2.209844 4.419688 4.419688 
506 2 0.000000 -1 0.370424 2.209844 4.419688 4.419688 
507 2 0.000000 1 0.370424 4.419688 2.209844 4.419688 
508 2 0.000000 -1 0.370424 4.419688 2.209844 4.419688 
509 2 0.000000 1 0.370424 2.209844 2.209844 6.629533 
510 2 0.000000 -1 0.370424 2.209844 2.209844 6.629533 
511 2 0.000000 1 0.370424 4.419688 4.419688 6.629533 
512 2 0.000000 -1 0.370424 4.419688 4.419688 6.629533 
513 2 0.000000 1 0.370424 2.209844 4.419688 8.839377 
514 2 0.000000 -1 0.370424 2.209844 4.419688 8.839377 
515 2 0.000000 1 0.370424 4.419688 2.209844 8.839377 
516 2 0.000000 -1 0.370424 4.419688 2.209844 8.839377 
517 2 0.000000 1 0.370424 2.209844 2.209844 11.049221 
518 2 0.000000 -1 0.370424 2.209844 2.209844 11.049221 
519 2 0.000000 1 0.370424 4.419688 4.419688 11.049221 
520 2 0.000000 -1 0.370424 4.419688 4.419688 11.049221 
521 2 0.000000 1 0.370424 2.209844 4.419688 13.259065 
522 2 0.000000 -1 0.370424 2.209844 4.419688 13.259065 
523 2 0.000000 1 0.370424 4.419688 2.209844 13.259065 
524 2 0.000000 -1 0.370424 4.419688 2.209844 13.259065 
525 2 0.000000 1 0.370424 2.209844 2.209844 15.468909 
526 2 0.000000 -1 0.370424 2.209844 2.209844 15.468909 
527 2 0.000000 1 0.370424 4.419688 4.419688 15.468909 
528 2 0.000000 -1 0.370424 4.419688 4.419688 15.468909 
529 2 0.000000 1 0.370424 2.209844 4.419688 17.678754 
530 2 0.000000 -1 0.370424 2.209844 4.419688 17.678754 
531 2 0.000000 1 0.370424 4.419688 2.209844 17.678754 
532 2 0.000000 -1 0.370424 4.419688 2.209844 17.678754 
533 2 0.000000 1 0.370424 2.209844 2.209844 19.888598 
534 2 0.000000 -1 0.370424 2.209844 2.209844 19.888598 
535 2 0.000000 1 0.370424 4.419688 4.419688 19.888598 
536 2 0.000000 -1 0.370424 4.419688 4.419688 19.888598 
537 2 0.000000 1 0.370424 2.209844 4.419688 22.098442 