print           "This is replica: ${rep}"
This is replica: 0

read_data       ${rep}/lj.data
read_data       0/lj.data
  orthogonal box = (1.27034 1.27034 1.27034) to (23.7297 23.7297 23.7297)
  1 by 1 by 1 MPI processor grid
  reading atoms ...
  500 atoms
  reading velocities ...
  500 velocities
  0 = max # of 1-2 neighbors
  0 = max # of 1-3 neighbors
  0 = max # of 1-4 neighbors
  1 = max # of special neighbors

#dump            dump all xyz 1000 ${rep}/dump.xyz

thermo          100
thermo_style    custom step temp pe etotal press vol
timestep        1.0

fix             fxnpt all npt temp ${T0} ${T0} 1000.0 iso ${press} ${press} 10000.0
fix             fxnpt all npt temp 300 ${T0} 1000.0 iso ${press} ${press} 10000.0
fix             fxnpt all npt temp 300 300 1000.0 iso ${press} ${press} 10000.0
fix             fxnpt all npt temp 300 300 1000.0 iso 0 ${press} 10000.0
fix             fxnpt all npt temp 300 300 1000.0 iso 0 0 10000.0
fix             fxgREM all grem ${lambda} -.03 -30000 fxnpt
fix             fxgREM all grem 900 -.03 -30000 fxnpt
thermo_modify   press fxgREM_press

temper/grem     10000 100 ${lambda} fxgREM fxnpt 10294 98392 #${walker}
temper/grem     10000 100 900 fxgREM fxnpt 10294 98392 
Neighbor list info ...
  1 neighbor list requests
  update every 1 steps, delay 10 steps, check yes
  max neighbors/atom: 2000, page size: 100000
  master list distance cutoff = 7
  ghost atom cutoff = 7
  binsize = 3.5 -> bins = 7 7 7
Memory usage per processor = 5.38195 Mbytes
Step Temp PotEng TotEng Press Volume 
       0    299.42262      -3416.9   -2971.5315    134.01052    11328.967 
     100    294.63941   -3417.2566   -2979.0028    164.62038    11328.996 
     200    302.86941   -3421.7405   -2971.2452    116.35909    11329.199 
     300    297.43413   -3417.6882   -2975.2774    143.60143    11329.666 
     400     300.1465    -3421.466   -2975.0208    108.02406    11330.366 
     500     300.2847   -3419.7205   -2973.0698     51.93802    11331.264 
     600    297.98642   -3416.0758   -2972.8436    102.67264    11332.303 
     700    308.88819   -3423.7386   -2964.2908   -84.991092    11333.461 
     800    300.03002   -3418.2447   -2971.9728    61.530839    11334.623 
     900    294.38296   -3416.7286   -2978.8563      59.4512     11336.02 
    1000    301.55478   -3419.3685   -2970.8287   -70.828164    11337.415 
    1100    304.76191     -3420.01   -2966.6997    -46.02246    11338.757 
    1200    300.87935    -3418.357   -2970.8218   -27.557375    11340.179 
    1300    297.90925   -3416.7586   -2973.6412    27.202549    11341.647 
    1400     304.0426   -3421.0828   -2968.8425   -150.93733    11343.177 
    1500    293.50425   -3416.0019   -2979.4366   -32.703088    11344.538 
    1600    298.70817   -3416.4247   -2972.1189   -111.16189    11345.702 
    1700    293.12426   -3415.1528   -2979.1527   -12.438698    11346.701 
    1800    289.23529   -3413.4211   -2983.2055   -27.234713    11347.494 
    1900    292.62679   -3415.5324   -2980.2722   -121.80014    11347.911 
    2000     295.3705   -3415.4594   -2976.1182   -118.35918     11347.97 
    2100     288.3131   -3411.9071   -2983.0632    11.471141    11347.887 
    2200    312.55009   -3422.4761   -2957.5815   -294.72858    11347.644 
    2300    285.92437   -3414.5956   -2989.3047   -43.986075    11346.986 
    2400    300.19294   -3419.6619   -2973.1476   -153.30034    11346.114 
    2500    295.61459   -3415.1159   -2975.4116     20.33969    11344.962 
    2600    297.71268   -3415.7827   -2972.9577   -52.926913    11343.679 
    2700    298.56462   -3417.9995   -2973.9072   -131.29953    11342.271 
    2800    286.03931   -3410.6373   -2985.1754    164.72078    11340.629 
    2900    290.70577   -3411.5311   -2979.1283    143.13209     11338.97 
    3000      303.332   -3415.7792   -2964.5958   -49.330701    11337.303 
    3100    301.73339   -3417.0188   -2968.2132   -8.5041565    11335.568 
    3200    313.04988    -3423.077    -2957.439   -122.70098    11333.927 
    3300    286.09745   -3408.4061   -2982.8579    353.68123    11332.253 
    3400    303.00349   -3413.2328   -2962.5381    231.93254    11330.816 
    3500    308.79241   -3417.4556   -2958.1503    91.741468    11329.674 
    3600    287.41302   -3407.5431    -2980.038    543.23683    11329.043 
    3700    294.17479   -3407.5416   -2969.9788    449.07447    11329.318 
    3800    289.81831    -3405.492   -2974.4092    576.60121    11330.443 
    3900    295.40157   -3408.4609   -2969.0734    451.50877    11332.572 
    4000    287.71309   -3402.6497   -2974.6982    573.42617    11335.583 
    4100    290.02657   -3403.0786    -2971.686    527.71502    11339.534 
    4200    297.74424   -3409.8018   -2966.9298    277.40905    11344.404 
    4300    292.06583   -3402.1684   -2967.7426    444.89069    11349.944 
    4400    300.74402   -3406.2366   -2958.9027    139.09782    11356.223 
    4500    295.14988   -3402.5929   -2963.5798    173.91619    11362.896 
    4600    299.82229   -3402.1676   -2956.2047    114.51482    11369.919 
    4700    299.72789   -3400.7608   -2954.9383    83.204669     11377.21 
    4800    292.34822   -3393.2268   -2958.3809    161.50646    11384.622 
    4900    298.32652   -3395.3712   -2951.6331    29.917068    11392.178 
    5000     293.0855   -3395.7079   -2959.7654   -67.018003    11399.715 
    5100    302.58088   -3398.1836   -2948.1175   -214.79018    11407.054 
    5200    302.00186   -3395.3231   -2946.1182   -305.62771    11413.967 
    5300    308.44521   -3396.6926   -2937.9037   -455.80177    11420.397 
    5400    305.55347   -3392.9576   -2938.4699   -464.74116    11426.162 
    5500    306.15731   -3393.3834   -2937.9976   -453.93342    11431.122 
    5600    300.86617   -3390.7578   -2943.2421   -413.36436    11435.339 
    5700     311.4673   -3395.9418   -2932.6578   -637.62795    11438.796 
    5800    302.31851   -3388.9636   -2939.2877   -501.87858    11441.318 
    5900    315.93456   -3400.2717    -2930.343   -753.56358    11443.043 
    6000    304.69067   -3391.9711   -2938.7668   -477.72322    11443.646 
    6100    311.80005   -3393.0048   -2929.2259   -633.56098    11443.351 
    6200    307.36579   -3391.6406   -2934.4573   -532.82298    11442.106 
    6300     302.7084   -3389.8455   -2939.5897   -490.38666    11439.901 
    6400    306.78573   -3392.1276    -2935.807   -547.43007      11436.8 
    6500    304.23179     -3388.17   -2935.6483   -348.52993    11432.753 
    6600     296.7094   -3385.8464   -2944.5136    -201.5605     11428.01 
    6700     313.3959     -3395.26   -2929.1073   -415.82786    11422.724 
    6800     316.4072   -3399.1224   -2928.4906   -496.33753    11416.786 
    6900    302.56547   -3389.7698   -2939.7266   -80.175542    11410.218 
    7000    299.36836    -3387.708   -2942.4203    128.86864    11403.334 
    7100    309.39575   -3396.2826   -2936.0798   -53.969342    11396.555 
    7200    324.25215   -3405.3158   -2923.0153   -227.25827    11389.761 
    7300    305.99737   -3393.6219    -2938.474    235.46369    11382.905 
    7400    317.73948   -3402.1318   -2929.5184    21.699572    11376.471 
    7500    315.75908   -3400.7608   -2931.0931    148.23486     11370.37 
    7600    311.46203   -3401.9952   -2938.7191    182.85745     11364.81 
    7700     309.3606   -3403.1221   -2942.9717    257.80591    11359.711 
    7800    300.78232   -3397.6295   -2950.2386    440.63834    11355.144 
    7900    306.59047   -3402.2326   -2946.2025    287.86462    11351.377 
    8000    311.28944   -3406.6966   -2943.6772    268.88617    11348.336 
    8100    299.93421   -3405.6032   -2959.4738    356.79664    11346.007 
    8200    302.26336   -3406.5846   -2956.9908     246.8694    11344.383 
    8300    294.27353   -3406.1343   -2968.4247    428.02411     11343.38 
    8400    273.01304    -3396.291   -2990.2048     712.6039    11343.239 
    8500    294.90301    -3407.461   -2968.8151    259.18716    11344.147 
    8600    295.43347   -3410.2779   -2970.8431    127.32619    11345.636 
    8700     285.2568   -3407.4342   -2983.1364    223.78377    11347.458 
    8800    296.45048   -3413.1605   -2972.2128    61.542232    11349.754 
    8900    306.82798   -3417.5232   -2961.1398   -170.00394    11352.317 
    9000     287.0527   -3408.5483   -2981.5791    46.683648    11354.612 
    9100    296.30539   -3414.6325   -2973.9007   -222.07876     11356.77 
    9200    300.16761   -3415.9641   -2969.4875   -218.94764    11358.601 
    9300    310.01596   -3418.7396   -2957.6143   -409.04518    11360.094 
    9400     293.6059   -3411.4846    -2974.768   -112.34303    11361.015 
    9500     306.2565   -3416.0499   -2960.5165   -230.75414    11361.667 
    9600    298.77172   -3410.0086   -2965.6083    -160.9185    11361.994 
    9700    287.60936   -3408.4236   -2980.6264    -50.45167    11361.936 
    9800    298.13818   -3413.9967   -2970.5387   -252.57086    11361.537 
    9900    292.93826   -3411.9851   -2976.2616   -152.45548    11360.629 
   10000    286.02579   -3405.9303   -2980.4887    67.188883    11359.503 
Loop time of 3.25987 on 1 procs for 10000 steps with 500 atoms

Performance: 265.041 ns/day, 0.091 hours/ns, 3067.606 timesteps/s
100.1% CPU use with 1 MPI tasks x no OpenMP threads

MPI task timing breakdown:
Section |  min time  |  avg time  |  max time  |%varavg| %total
---------------------------------------------------------------
Pair    | 2.5777     | 2.5777     | 2.5777     |   0.0 | 79.07
Bond    | 0.0006814  | 0.0006814  | 0.0006814  |   0.0 |  0.02
Neigh   | 0.019258   | 0.019258   | 0.019258   |   0.0 |  0.59
Comm    | 0.088224   | 0.088224   | 0.088224   |   0.0 |  2.71
Output  | 0.0010309  | 0.0010309  | 0.0010309  |   0.0 |  0.03
Modify  | 0.33808    | 0.33808    | 0.33808    |   0.0 | 10.37
Other   |            | 0.2349     |            |       |  7.20

Nlocal:    500 ave 500 max 500 min
Histogram: 1 0 0 0 0 0 0 0 0 0
Nghost:    1636 ave 1636 max 1636 min
Histogram: 1 0 0 0 0 0 0 0 0 0
Neighs:    14936 ave 14936 max 14936 min
Histogram: 1 0 0 0 0 0 0 0 0 0

Total # of neighbors = 14936
Ave neighs/atom = 29.872
Ave special neighs/atom = 0
Neighbor list builds = 20
Dangerous builds = 0

#write_data      ${rep}/lj-out.data
Total wall time: 0:00:03
