print           "This is replica: ${rep}"
This is replica: 0

read_data       ${rep}/lj.data
read_data       0/lj.data
  orthogonal box = (1.27034 1.27034 1.27034) to (23.7297 23.7297 23.7297)
  1 by 1 by 1 MPI processor grid
  reading atoms ...
  500 atoms
  reading velocities ...
  500 velocities
  0 = max # of 1-2 neighbors
  0 = max # of 1-3 neighbors
  0 = max # of 1-4 neighbors
  1 = max # of special neighbors

#dump            dump all xyz 1000 ${rep}/dump.xyz

thermo          10
thermo_style    custom step temp pe etotal press vol
timestep        1.0

fix             fxnpt all npt temp ${T0} ${T0} 1000.0 iso ${press} ${press} 10000.0
fix             fxnpt all npt temp 300 ${T0} 1000.0 iso ${press} ${press} 10000.0
fix             fxnpt all npt temp 300 300 1000.0 iso ${press} ${press} 10000.0
fix             fxnpt all npt temp 300 300 1000.0 iso 0 ${press} 10000.0
fix             fxnpt all npt temp 300 300 1000.0 iso 0 0 10000.0
fix             fxgREM all grem ${lambda} -.03 -30000 fxnpt
fix             fxgREM all grem 900 -.03 -30000 fxnpt
thermo_modify   press fxgREM_press

temper/grem            10000 100 ${lambda} fxgREM fxnpt 10294 98392 #${walker}
temper/grem            10000 100 900 fxgREM fxnpt 10294 98392 
Neighbor list info ...
  1 neighbor list requests
  update every 1 steps, delay 10 steps, check yes
  max neighbors/atom: 2000, page size: 100000
  master list distance cutoff = 7
  ghost atom cutoff = 7
  binsize = 3.5 -> bins = 7 7 7
Memory usage per processor = 5.38195 Mbytes
Step Temp PotEng TotEng Press Volume 
       0    299.42262      -3416.9   -2971.5315    134.01052    11328.967 
      10    305.01315   -3419.0863   -2965.4023    52.103984    11328.968 
      20    309.92197    -3421.585   -2960.5996   -26.370593     11328.97 
      30    311.99962   -3423.9618    -2959.886   -76.248163    11328.972 
      40    310.18839   -3423.1727    -2961.791   -52.274449    11328.972 
      50    305.15121   -3421.0067   -2967.1174    16.259045    11328.972 
      60    299.39836   -3419.7932   -2974.4609    80.723613    11328.972 
      70     295.2947   -3418.3682   -2979.1397    134.53808    11328.974 
      80    293.51832   -3416.8126   -2980.2263    170.69406    11328.978 
      90     293.4313   -3417.1659   -2980.7091    170.93297    11328.985 
     100    294.63941   -3417.2566   -2979.0028    164.62038    11328.996 
     110    297.25348   -3418.8518   -2976.7098    131.78524     11329.01 
     120    300.50388   -3420.1147    -2973.138    98.057487    11329.026 
     130    302.95328   -3421.3632   -2970.7432    69.182017    11329.044 
     140    304.05933   -3423.5076   -2971.2424    38.480693    11329.064 
     150    304.21872   -3423.9853    -2971.483    33.117628    11329.084 
     160    304.38371   -3423.5475   -2970.7998    39.859883    11329.105 
     170    304.80117   -3423.3687   -2970.0001    43.810288    11329.127 
     180    305.13983   -3423.6759   -2969.8035    46.007676     11329.15 
     190    304.94578   -3422.9246   -2969.3408    69.449779    11329.173 
     200    302.86941   -3421.7405   -2971.2452    116.35909    11329.199 
     210      297.662     -3418.57   -2975.8203    210.54052    11329.226 
     220    290.84972   -3416.2934   -2983.6765    300.40584    11329.257 
     230    286.66935   -3413.5161   -2987.1171    365.46428    11329.294 
     240    288.43119   -3414.2821   -2985.2626    333.78695    11329.338 
     250     295.9831   -3417.8591   -2977.6067    218.31479    11329.388 
     260    305.50936   -3422.3128   -2967.8908    75.635176    11329.443 
     270    311.52891   -3425.6438   -2962.2682   -26.093631    11329.498 
     280    311.04895   -3425.0078    -2962.346   -28.116138    11329.554 
     290    305.15136   -3421.6115    -2967.722    47.657742    11329.609 
     300    297.43413   -3417.6882   -2975.2774    143.60143    11329.666 
     310    292.00918   -3415.3303   -2980.9888    202.75098    11329.725 
     320    291.38867   -3415.1495    -2981.731    200.97437    11329.788 
     330    294.86583    -3417.316   -2978.7254    144.54327    11329.854 
     340    299.07345   -3420.9058   -2976.0567    71.367848    11329.924 
     350    301.19767   -3421.4636   -2973.4549    53.019075    11329.994 
     360    301.40218   -3421.5686   -2973.2557    57.550459    11330.066 
     370    301.60343   -3421.1465   -2972.5342    71.264067    11330.139 
     380     302.3767   -3422.2013   -2972.4389    65.704342    11330.213 
     390    302.18634   -3422.1079   -2972.6286    79.588346    11330.289 
     400     300.1465    -3421.466   -2975.0208    108.02406    11330.366 
     410    297.66938   -3418.4992   -2975.7385    159.37689    11330.446 
     420    296.70991   -3417.6203   -2976.2868    170.02926    11330.528 
     430    297.60515   -3417.4218   -2974.7567    154.72136    11330.614 
     440    299.48021    -3419.166   -2973.7119    108.67344    11330.703 
     450    301.07427   -3420.2418   -2972.4166    73.295179    11330.793 
     460    302.09454   -3419.8407    -2970.498    61.278464    11330.886 
     470    302.70993   -3420.5493   -2970.2912    41.512266    11330.979 
     480    302.81262   -3420.9993   -2970.5885    29.560402    11331.073 
     490    302.14786   -3420.5338   -2971.1117    34.608836    11331.168 
     500     300.2847   -3419.7205   -2973.0698     51.93802    11331.264 
     510    297.96748    -3418.545   -2975.3409     76.76076    11331.361 
     520    296.76806   -3417.8075   -2976.3875    89.385785    11331.459 
     530    296.70055   -3417.2493   -2975.9297    92.386458    11331.559 
     540    296.45476   -3416.8648   -2975.9109    92.522412    11331.661 
     550    296.25617   -3416.6349   -2975.9763    88.090319    11331.765 
     560    297.43141   -3416.0497    -2973.643    77.975047     11331.87 
     570    299.89275   -3417.4354   -2971.3677     40.26193    11331.977 
     580    301.71033    -3418.492   -2969.7207    18.941485    11332.085 
     590     301.0837    -3418.833   -2970.9938     31.38825    11332.194 
     600    297.98642   -3416.0758   -2972.8436    102.67264    11332.303 
     610    293.64246   -3415.1849    -2978.414    160.19415    11332.414 
     620    290.00186   -3412.9426   -2981.5869    218.76366    11332.528 
     630    289.94928   -3413.9664   -2982.6888    200.08217    11332.646 
     640    295.74572   -3416.2545   -2976.3551    112.68119    11332.768 
     650    306.46178   -3421.9655   -2966.1269   -54.544301    11332.892 
     660    317.10206   -3428.5703    -2956.905   -227.40954    11333.015 
     670    322.23923   -3430.6661   -2951.3597   -299.41158    11333.135 
     680     320.5723   -3431.1325   -2954.3055   -291.13842    11333.248 
     690    314.82311   -3427.6765    -2959.401   -196.15735    11333.357 
     700    308.88819   -3423.7386   -2964.2908   -84.991092    11333.461 
     710     304.9868   -3422.1526   -2968.5078   -11.177461    11333.565 
     720    303.01004   -3420.6298   -2969.9253    49.289549    11333.668 
     730    300.99168   -3420.0074   -2972.3051    98.740194    11333.772 
     740    296.94374   -3418.2214   -2976.5401     171.9416    11333.877 
     750    291.19139   -3414.7802   -2981.6551    269.15521    11333.987 
     760    285.41566   -3412.3799   -2987.8457    343.50487    11334.101 
     770    281.59912   -3410.3161   -2991.4588    384.62499    11334.222 
     780    282.54974   -3410.6705   -2990.3991    347.61696     11334.35 
     790    289.63184   -3414.2713   -2983.4659    218.95403    11334.485 
     800    300.03002   -3418.2447   -2971.9728    61.530839    11334.623 
     810    308.28446   -3421.2641   -2962.7143   -61.683906    11334.763 
     820    310.71517   -3422.3726   -2960.2073   -105.82674    11334.902 
     830    307.51937   -3421.5347   -2964.1229    -72.21706     11335.04 
     840    302.15103   -3417.4936   -2968.0669      22.7566    11335.176 
     850    298.13259   -3415.5869   -2972.1373    83.701724    11335.312 
     860    296.67204   -3414.9826   -2973.7055    105.71932     11335.45 
     870    296.58815   -3416.3914    -2975.239      86.7842     11335.59 
     880    296.07017   -3416.0022   -2975.6203    85.129741    11335.731 
     890    294.71487   -3416.6313   -2978.2652    73.985492    11335.875 
     900    294.38296   -3416.7286   -2978.8563      59.4512     11336.02 
     910    297.14646   -3417.0839   -2975.1011    20.162699    11336.166 
     920    302.00677    -3420.216   -2971.0038   -63.001904    11336.312 
     930    305.93557   -3421.8253   -2966.7693   -118.84051    11336.457 
     940    307.40744   -3421.9192   -2964.6739    -136.4053    11336.601 
     950    306.77038   -3421.3363   -2965.0386   -128.88393    11336.742 
     960    305.29301   -3420.0641   -2965.9639   -105.70523     11336.88 
     970    304.01625   -3420.7347   -2968.5336   -106.83536    11337.017 
     980    303.31176   -3420.3825   -2969.2293    -99.75059    11337.151 
     990    302.52222   -3420.1179    -2970.139   -91.350072    11337.284 
    1000    301.55478   -3419.3685   -2970.8287   -70.828164    11337.415 
    1010    300.80872   -3419.1273   -2971.6971   -51.456861    11337.545 
    1020    300.39394   -3419.1869   -2972.3737    -30.06259    11337.674 
    1030     299.3407   -3418.7917   -2973.5451    8.5095011    11337.802 
    1040    296.64408   -3417.0339   -2975.7983    76.942673    11337.931 
    1050    292.71654   -3415.0454   -2979.6518    150.13917    11338.061 
    1060    290.03112   -3413.9503    -2982.551    191.32381    11338.195 
    1070    291.18322   -3413.4876   -2980.3746    184.12677    11338.331 
    1080    295.92737   -3415.6386   -2975.4691    109.66058    11338.472 
    1090    301.38195   -3418.4174   -2970.1346    17.470646    11338.614 
    1100    304.76191     -3420.01   -2966.6997    -46.02246    11338.757 
    1110    305.67145   -3421.0035   -2966.3404   -77.688687    11338.899 
    1120    304.63891   -3419.6947   -2966.5674   -58.912495     11339.04 
    1130    302.03115   -3418.5064    -2969.258   -22.869742     11339.18 
    1140    298.58726   -3417.0257   -2972.8997    25.472397    11339.319 
    1150    295.27588   -3415.3487   -2976.1482    73.241528    11339.459 
    1160     292.9158   -3415.0775   -2979.3875    92.346457      11339.6 
    1170    292.32496   -3415.4399   -2980.6287    85.260271    11339.743 
    1180    294.10212    -3416.085   -2978.6304    55.687553    11339.888 
    1190    297.62415   -3417.2237   -2974.5303    10.398915    11340.033 
    1200    300.87935    -3418.357   -2970.8218   -27.557375    11340.179 
    1210    302.10425   -3419.2477   -2969.8905   -43.340394    11340.325 
    1220    301.30073   -3418.7116   -2970.5496   -24.958889    11340.469 
    1230    299.19878   -3417.6477   -2972.6122    9.1129556    11340.614 
    1240    296.57738    -3416.582   -2975.4456    44.677497    11340.759 
    1250     294.7463   -3415.5249   -2977.1121    71.138297    11340.904 
    1260    295.03023   -3415.1473   -2976.3122    71.685459    11341.051 
    1270    297.27714     -3416.95   -2974.7728    32.147349      11341.2 
    1280    299.58047   -3418.5205   -2972.9172   -3.9755183    11341.349 
    1290    299.93811   -3418.7063   -2972.5711   -9.1750938    11341.498 
    1300    297.90925   -3416.7586   -2973.6412    27.202549    11341.647 
    1310    294.65437   -3414.3209   -2976.0448    75.461621    11341.797 
    1320    292.32951   -3413.8001   -2978.9821    92.928442    11341.948 
    1330    291.73106   -3413.4999   -2979.5721    91.541739    11342.101 
    1340    292.46822   -3412.9545   -2977.9302     79.39213    11342.255 
    1350    294.51754   -3415.0485   -2976.9759    25.453397    11342.412 
    1360    298.37904   -3417.0121   -2973.1958   -39.401903    11342.568 
    1370    303.20597   -3420.2573   -2969.2614   -123.63065    11342.725 
    1380    306.63864   -3421.4786   -2965.3768   -170.50872    11342.878 
    1390    306.88908   -3422.1346   -2965.6603   -183.28528    11343.029 
    1400     304.0426   -3421.0828   -2968.8425   -150.93733    11343.177 
    1410    299.66949   -3418.9914   -2973.2558     -94.9749    11343.322 
    1420    295.75762   -3417.9258   -2978.0088   -56.871182    11343.465 
    1430    294.21861   -3416.4882   -2978.8603    -36.38455    11343.607 
    1440    296.29159   -3417.4116   -2976.7003   -73.334676    11343.749 
    1450    301.43074    -3419.369   -2971.0136   -145.05567    11343.889 
    1460    306.46756    -3422.067   -2966.2197   -219.74649    11344.026 
    1470    307.07703   -3424.0867   -2967.3329   -247.49745    11344.159 
    1480     302.2323   -3420.8317    -2971.284   -168.81147    11344.288 
    1490    295.91077    -3416.961   -2976.8162   -69.501498    11344.414 
    1500    293.50425   -3416.0019   -2979.4366   -32.703088    11344.538 
    1510    296.38451   -3416.9434   -2976.0939   -58.867745    11344.662 
    1520    300.86865   -3418.8323    -2971.313   -111.47355    11344.785 
    1530    302.55532    -3421.141   -2971.1129   -151.60859    11344.905 
    1540    300.12591   -3419.9051   -2973.4905   -123.34016    11345.023 
    1550    295.72707   -3416.6169   -2976.7453   -60.531918    11345.139 
    1560     293.2099   -3414.2866   -2978.1591   -24.591334    11345.254 
    1570    294.28758   -3415.2297   -2977.4993   -53.252019    11345.368 
    1580    297.21835   -3417.3791   -2975.2893    -106.9868    11345.481 
    1590    298.97978   -3417.2215   -2972.5118   -122.34188    11345.592 
    1600    298.70817   -3416.4247   -2972.1189   -111.16189    11345.702 
    1610    297.71642   -3416.7078   -2973.8772   -103.17121    11345.809 
    1620    297.11447   -3416.6639   -2974.7287   -92.752723    11345.914 
    1630    297.30695   -3415.7074   -2973.4858   -77.698896    11346.018 
    1640    298.78349   -3416.9822   -2972.5644   -98.097519     11346.12 
    1650    301.16284    -3418.193   -2970.2361   -122.32653     11346.22 
    1660    302.06844   -3419.0456   -2969.7417   -128.70176    11346.319 
    1670    299.50439     -3416.69   -2971.1999   -72.217359    11346.415 
    1680    294.73969   -3414.2685   -2975.8655   -2.7377727     11346.51 
    1690    291.74851   -3412.8781   -2978.9243    34.143745    11346.605 
    1700    293.12426   -3415.1528   -2979.1527   -12.438698    11346.701 
    1710    297.66889   -3416.8012   -2974.0413   -84.291158    11346.796 
    1720    303.18954   -3420.7905    -2969.819   -194.16156     11346.89 
    1730    307.99174   -3423.4945   -2965.3802   -281.31997     11346.98 
    1740    310.44287   -3424.8708   -2963.1106   -328.29545    11347.066 
    1750     309.0034   -3422.4258   -2962.8067   -292.43283    11347.145 
    1760    303.32174   -3419.9269   -2968.7588   -216.31399    11347.219 
    1770    295.38441   -3414.8376   -2975.4757   -89.076671    11347.289 
    1780    288.58524   -3411.9108   -2982.6621    3.0132998    11347.357 
    1790       286.12   -3410.7894   -2985.2076    35.206418    11347.425 
    1800    289.23529   -3413.4211   -2983.2055   -27.234713    11347.494 
    1810    297.14401   -3417.0419   -2975.0627   -143.73517    11347.563 
    1820    306.76876   -3423.1173    -2966.822   -303.83015    11347.628 
    1830    313.74855   -3426.5388   -2959.8616   -411.15416    11347.689 
    1840    315.46423   -3428.4633   -2959.2341   -457.59523    11347.741 
    1850    313.12768   -3426.6133   -2960.8595   -424.12945    11347.785 
    1860    309.05655   -3425.1952    -2965.497   -376.68901    11347.822 
    1870    304.34244   -3420.9558   -2968.2695   -287.77517    11347.851 
    1880    299.24405   -3418.3655   -2973.2627   -213.86081    11347.875 
    1890    294.61776    -3416.411   -2978.1894   -151.41806    11347.894 
    1900    292.62679   -3415.5324   -2980.2722   -121.80014    11347.911 
    1910    294.72445   -3415.1512   -2976.7709   -126.45908    11347.926 
    1920    298.52848    -3416.955   -2972.9165   -166.49847    11347.938 
    1930    300.00062   -3417.8341   -2971.6059   -176.48502    11347.948 
    1940    297.49521   -3415.7692   -2973.2676   -123.76195    11347.954 
    1950    292.71263   -3413.4715   -2978.0837   -54.263616    11347.958 
    1960    288.44322     -3411.96   -2982.9226   -3.4208938     11347.96 
    1970    287.06595   -3411.5212   -2984.5323    8.2328493    11347.963 
    1980    289.12422   -3412.2988   -2982.2484   -22.331306    11347.966 
    1990    292.66135   -3414.7468   -2979.4352   -83.979412    11347.969 
    2000     295.3705   -3415.4594   -2976.1182   -118.35918     11347.97 
    2010    296.19204   -3416.5306   -2975.9674   -139.92814    11347.969 
    2020    294.90329   -3415.3424   -2976.6961   -117.84509    11347.965 
    2030     292.6706    -3414.068   -2978.7427   -85.454237     11347.96 
    2040     291.1965   -3413.4421   -2980.3094   -65.359696    11347.953 
    2050    291.49792   -3414.5074   -2980.9263   -74.906718    11347.944 
    2060    292.19872   -3414.5905   -2979.9671   -72.703722    11347.934 
    2070    291.30976   -3414.6532    -2981.352   -57.588834    11347.923 
    2080    289.10508     -3413.39   -2983.3681   -18.360635    11347.911 
    2090    287.50207   -3411.9051   -2984.2676    16.153245    11347.899 
    2100     288.3131   -3411.9071   -2983.0632    11.471141    11347.887 
    2110     292.7849   -3412.9764    -2977.481   -35.718949    11347.876 
    2120    300.57092   -3418.0984    -2971.022   -153.11266    11347.863 
    2130    308.35058    -3421.907   -2963.2588   -250.25017    11347.848 
    2140     311.5324   -3423.2455   -2959.8647   -278.53274    11347.828 
    2150    307.94447   -3422.1891    -2964.145   -226.03646    11347.803 
    2160    300.34725   -3418.3064   -2971.5626   -113.33777    11347.774 
    2170    294.74346   -3414.2591   -2975.8505     -21.9587    11347.743 
    2180    295.93182   -3414.4537   -2974.2776   -40.912863    11347.712 
    2190    303.44883   -3417.7303   -2966.3732   -151.31949    11347.679 
    2200    312.55009   -3422.4761   -2957.5815   -294.72858    11347.644 
    2210    318.70677   -3425.8585   -2951.8063   -399.95463    11347.603 
    2220    320.41031   -3427.2357   -2950.6497   -442.80939    11347.555 
    2230    317.89639   -3425.9407   -2953.0939   -415.74038    11347.499 
    2240    311.79167   -3423.3458   -2959.5794   -339.24833    11347.434 
    2250    302.71984   -3419.1129     -2968.84   -217.78603    11347.364 
    2260    292.68143   -3414.7896   -2979.4482   -88.707316    11347.289 
    2270    285.16359   -3411.4881   -2987.3289    8.1302473    11347.213 
    2280    282.20047   -3411.4188    -2991.667    31.275399    11347.137 
    2290    282.97286   -3412.5859   -2991.6852    8.3448595    11347.061 
    2300    285.92437   -3414.5956   -2989.3047   -43.986075    11346.986 
    2310    290.33396   -3416.2907    -2984.441   -102.13915     11346.91 
    2320    295.06958    -3419.206   -2980.3124   -171.55177    11346.832 
    2330    298.20563   -3419.9941   -2976.4358   -196.58253    11346.751 
    2340    298.24805    -3420.126   -2976.5046   -183.81627    11346.666 
    2350    295.73298   -3418.6941   -2978.8137   -130.56758    11346.578 
    2360    292.97371   -3416.3488   -2980.5726   -65.991294    11346.487 
    2370    292.09981   -3414.8303   -2980.3539   -30.554608    11346.395 
    2380    293.80369   -3415.9363   -2978.9256   -51.800628    11346.303 
    2390    297.03927    -3418.346   -2976.5226    -106.6691    11346.209 
    2400    300.19294   -3419.6619   -2973.1476   -153.30034    11346.114 
    2410    302.52849   -3420.5618   -2970.5736   -190.20449    11346.016 
    2420     304.2705   -3421.2905   -2968.7112   -218.07039    11345.914 
    2430    305.85619   -3422.0724   -2967.1345   -239.56699    11345.808 
    2440    307.32492   -3421.8749   -2964.7524   -241.23506    11345.698 
    2450    308.04007   -3421.6876   -2963.5014   -229.18194    11345.583 
    2460    307.04877   -3421.4201   -2964.7084   -197.70237    11345.464 
    2470    304.24305   -3420.3614   -2967.8229   -141.79187    11345.341 
    2480    300.73751   -3418.8189   -2971.4947   -77.902376    11345.216 
    2490    297.83991    -3416.796   -2973.7818   -19.331564    11345.089 
    2500    295.61459   -3415.1159   -2975.4116     20.33969    11344.962 
    2510    293.90955   -3414.2261   -2977.0579     37.36597    11344.835 
    2520     293.2758   -3413.4831   -2977.2576    38.441637    11344.709 
    2530    294.10044   -3414.2709   -2976.8188    8.2781685    11344.583 
    2540    295.79126   -3415.4982   -2975.5312   -32.653729    11344.458 
    2550    297.46851   -3415.6663   -2973.2045   -58.295967    11344.332 
    2560    299.11686   -3416.6084   -2971.6947   -88.286189    11344.205 
    2570    301.18226   -3416.5779   -2968.5922   -103.49957    11344.077 
    2580    302.63024   -3417.5501   -2967.4106   -120.78148    11343.946 
    2590    301.58639   -3417.9123   -2969.3254   -110.85339    11343.813 
    2600    297.71268   -3415.7827   -2972.9577   -52.926913    11343.679 
    2610    293.37251   -3411.9709   -2975.6016    24.038394    11343.543 
    2620    291.57318   -3411.2903   -2977.5973    39.974952    11343.408 
    2630    293.60911   -3413.4781   -2976.7568   -11.291017    11343.273 
    2640    298.03205   -3417.1404   -2973.8403   -99.838219    11343.138 
    2650    301.82817   -3420.3519   -2971.4054   -177.26862    11343.002 
    2660    303.05948   -3420.1562   -2969.3782   -192.61408    11342.862 
    2670    302.00375   -3418.4021   -2969.1944   -169.04976    11342.719 
    2680    300.12539   -3417.6761   -2971.2624    -146.9902    11342.572 
    2690    298.69819   -3418.6273   -2974.3363   -144.09982    11342.423 
    2700    298.56462   -3417.9995   -2973.9072   -131.29953    11342.271 
    2710    300.36177   -3418.8813   -2972.1159   -148.75542    11342.116 
    2720    303.05628    -3419.297   -2968.5237   -166.08469    11341.959 
    2730    304.31746    -3420.825   -2968.1758   -184.53772    11341.798 
    2740    303.30231    -3419.615   -2968.4758   -152.58699    11341.634 
    2750    300.88876   -3418.4847   -2970.9355   -107.57012    11341.467 
    2760    297.47918   -3417.7708   -2975.2931   -56.252079    11341.298 
    2770    293.03307    -3414.295   -2978.4305    36.263572    11341.129 
    2780    288.40268   -3412.0408   -2983.0636    114.05528     11340.96 
    2790    285.56689   -3410.1707   -2985.4116    168.78308    11340.793 
    2800    286.03931   -3410.6373   -2985.1754    164.72078    11340.629 
    2810    289.36719   -3412.5499   -2982.1381    114.49221    11340.468 
    2820    294.12351   -3415.0553   -2977.5689    38.242625    11340.309 
    2830    299.93982   -3417.1795   -2971.0417   -47.538089    11340.151 
    2840    306.52231   -3420.6155   -2964.6868   -154.04342    11339.993 
    2850     311.8299   -3423.6674   -2959.8441   -239.35759    11339.831 
    2860    313.16451   -3423.3826   -2957.5742   -245.17137    11339.665 
    2870    309.66773   -3422.8725   -2962.2653   -200.14279    11339.495 
    2880    303.04179    -3418.537   -2967.7853   -78.388837     11339.32 
    2890    296.09023   -3415.7518     -2975.34    31.562303    11339.145 
    2900    290.70577   -3411.5311   -2979.1283    143.13209     11338.97 
    2910    287.87699   -3409.2646   -2981.0694    205.23091    11338.797 
    2920     288.5156   -3408.0979   -2978.9528    218.49033    11338.628 
    2930    293.42282   -3410.5423   -2974.0981    149.60588    11338.464 
    2940    301.23155   -3414.8559   -2966.7968    31.452595    11338.302 
    2950    308.28679   -3417.9998   -2959.4465   -71.450294     11338.14 
    2960    311.90297   -3419.7925   -2955.8604   -133.20873    11337.978 
    2970    311.90753   -3420.4055   -2956.4667   -152.07015    11337.812 
    2980    309.52021   -3418.3552   -2957.9674   -119.36033    11337.645 
    2990    306.24786   -3417.6973   -2962.1769    -91.93941    11337.475 
    3000      303.332   -3415.7792   -2964.5958   -49.330701    11337.303 
    3010    301.77545   -3415.0762    -2966.208   -28.857235     11337.13 
    3020    302.30004   -3417.0085   -2967.3601   -51.534897    11336.957 
    3030    304.17544   -3417.9189   -2965.4809   -68.897987    11336.783 
    3040    304.91398   -3419.1732   -2965.6367   -78.661065    11336.607 
    3050    302.17194   -3418.7863   -2969.3285   -40.479311     11336.43 
    3060    295.33808   -3414.8741   -2975.5811    67.550001    11336.253 
    3070    287.67745    -3410.281   -2982.3826    183.72816    11336.076 
    3080    285.34182   -3408.5278   -2984.1035    220.67815    11335.903 
    3090    291.27355   -3410.5705   -2977.3232    147.76789    11335.735 
    3100    301.73339   -3417.0188   -2968.2132   -8.5041565    11335.568 
    3110    309.85683   -3421.6282   -2960.7396   -120.10423    11335.402 
    3120    311.55409   -3422.3115   -2958.8984   -128.86291    11335.233 
    3130     307.3327   -3419.9817   -2962.8476   -47.617285    11335.063 
    3140    299.92758   -3416.1675   -2970.0479    80.605277    11334.891 
    3150    292.93367   -3412.3066     -2976.59    204.67622    11334.721 
    3160    289.72621   -3411.4191   -2980.4733    256.81694    11334.555 
    3170    291.67069   -3411.9647   -2978.1267     239.1892    11334.393 
    3180    297.52865   -3415.5491   -2972.9978    140.31814    11334.236 
    3190    305.25157   -3419.9503   -2965.9117    4.6483503    11334.081 
    3200    313.04988    -3423.077    -2957.439   -122.70098    11333.927 
    3210    318.97432   -3426.0455   -2951.5954   -229.92268     11333.77 
    3220    321.20355   -3426.9992   -2949.2333   -274.19805    11333.609 
    3230    319.32049   -3425.4647   -2950.4997   -244.22576    11333.443 
    3240    314.68691   -3423.1889    -2955.116   -170.83257    11333.273 
    3250    309.49262   -3420.3684   -2960.0216   -76.170797      11333.1 
    3260    304.59025    -3417.569   -2964.5141    23.655499    11332.925 
    3270    298.17868   -3413.6123   -2970.0941     150.0034     11332.75 
    3280    289.89012   -3409.6275   -2978.4379    284.14697    11332.579 
    3290    284.30126   -3407.5368   -2984.6603    366.95736    11332.413 
    3300    286.09745   -3408.4061   -2982.8579    353.68123    11332.253 
    3310    293.33392   -3412.5576   -2976.2457    256.19547      11332.1 
    3320     301.0149   -3416.4103   -2968.6735    155.09674    11331.952 
    3330    307.30122   -3420.3444   -2963.2571    62.440701    11331.807 
    3340    312.53092   -3421.9037   -2957.0377    9.2485959    11331.663 
    3350    315.64491   -3422.2553   -2952.7574   -8.9635528    11331.519 
    3360    315.15776   -3421.4338   -2952.6605    16.901657    11331.376 
    3370    311.24667   -3419.5292   -2956.5734    81.827464    11331.232 
    3380    305.99482   -3418.2579   -2963.1138    145.93822     11331.09 
    3390    302.75439   -3415.3836   -2965.0594    209.37224    11330.951 
    3400    303.00349   -3413.2328   -2962.5381    231.93254    11330.816 
    3410     305.5257   -3414.7334   -2960.2871      190.476    11330.685 
    3420    307.81516   -3415.4565   -2957.6048    157.58587    11330.558 
    3430     308.4995   -3416.0229   -2957.1533    141.19165    11330.434 
    3440    307.28043   -3415.8866   -2958.8302    153.55063    11330.313 
    3450    304.08687   -3413.8274   -2961.5213    207.93895    11330.194 
    3460    299.65439   -3411.1403   -2965.4271     277.2275     11330.08 
    3470    296.32907   -3409.2782   -2968.5112    322.25086     11329.97 
    3480    296.47373   -3411.2843   -2970.3021    287.42311    11329.867 
    3490    301.11216   -3413.9916   -2966.1101    205.21241    11329.769 
    3500    308.79241   -3417.4556   -2958.1503    91.741468    11329.674 
    3510    315.80392   -3421.5058   -2951.7714     -17.4656    11329.582 
    3520    318.11947   -3422.7735   -2949.5948   -50.056055    11329.489 
    3530    314.50141   -3422.2028   -2954.4058   -5.7844915    11329.396 
    3540    307.15403   -3418.8175   -2961.9491    108.00372    11329.302 
    3550    299.80449    -3414.913   -2968.9766    232.90665    11329.211 
    3560    294.87569   -3411.7167   -2973.1115    330.87963    11329.124 
    3570    292.86658   -3409.7389    -2974.122    384.19326    11329.043 
    3580    293.70946    -3410.391   -2973.5204    373.19534     11328.97 
    3590    297.41045   -3412.7535    -2970.378    310.55411    11328.903 
    3600    303.09817   -3415.8648   -2965.0292    218.98875    11328.843 
    3610    308.51967   -3417.9225   -2959.0228    140.15826    11328.787 
    3620    312.38937   -3419.5846   -2954.9291    80.224593    11328.733 
    3630    314.97532   -3420.0713   -2951.5694    48.715141    11328.681 
    3640    316.48737   -3420.6715   -2949.9205    30.230937     11328.63 
    3650    316.40384   -3420.3288   -2949.7021    37.008396     11328.58 
    3660    315.11784   -3418.7159    -2950.002    67.942141     11328.53 
    3670    313.16754   -3418.7394   -2952.9265    83.925168    11328.482 
    3680    310.34539   -3418.1926   -2956.5774    111.93574    11328.435 
    3690    306.77507   -3415.1632   -2958.8585    173.95262    11328.391 
    3700    303.56193   -3413.7633   -2962.2379    216.46236     11328.35 
    3710    301.20261   -3412.0072   -2963.9911     259.5516    11328.313 
    3720     299.4093   -3411.5927   -2966.2441    285.36131    11328.281 
    3730    298.71093   -3411.2058   -2966.8959    304.10485    11328.254 
    3740    300.02371   -3412.4976    -2966.235    290.48382    11328.233 
    3750    302.38844   -3412.3532   -2962.5733    286.90741    11328.218 
    3760    303.67204   -3413.7638   -2962.0747    274.61026    11328.208 
    3770    302.72818    -3413.384   -2963.0987    297.48984    11328.203 
    3780    301.19966   -3412.8388   -2964.8272    321.38479    11328.204 
    3790     301.9004   -3413.1622   -2964.1083    312.33786    11328.211 
    3800     305.6573   -3414.6452   -2960.0031    262.33682    11328.224 
    3810    310.88552   -3416.7433   -2954.3246    195.42011    11328.242 
    3820    314.53691    -3419.226   -2951.3761    141.44841    11328.264 
    3830    314.34084   -3420.0154   -2952.4573    142.50192    11328.289 
    3840     310.4278    -3417.339   -2955.6012    215.56638    11328.317 
    3850    304.96651   -3414.4033   -2960.7887    299.59413    11328.349 
    3860    301.36662   -3412.8107   -2964.5507    343.95023    11328.387 
    3870    301.61341   -3411.5933   -2962.9662    340.70469    11328.431 
    3880    305.29084   -3414.7508   -2960.6538    249.77061    11328.482 
    3890     310.3105   -3417.9348   -2956.3715    145.67741    11328.537 
    3900    313.97192   -3419.2462   -2952.2368    80.812855    11328.595 
    3910     313.6961   -3420.0002    -2953.401    64.622545    11328.655 
    3920    309.20751    -3415.853   -2955.9302    149.31662    11328.717 
    3930    303.40118   -3414.0656   -2962.7794     226.6013    11328.781 
    3940    299.08563   -3411.7233   -2966.8561    303.79973    11328.849 
    3950    296.64882   -3410.8603   -2969.6177    348.19665    11328.924 
    3960    295.54083   -3411.1974   -2971.6029    363.07145    11329.005 
    3970    295.98897   -3410.2204   -2969.9593    374.24368    11329.093 
    3980    298.84373   -3411.1198   -2966.6124    339.88519    11329.187 
    3990    303.83292   -3414.0247   -2962.0962    261.24167    11329.289 
    4000    309.26013   -3417.1557   -2957.1547    175.68298    11329.395 
    4010    312.39478   -3418.3313   -2953.6677    132.71524    11329.505 
    4020    311.35557   -3416.7292   -2953.6114    156.83102    11329.618 
    4030    307.08752   -3414.6715    -2957.902     213.5036    11329.733 
    4040    302.47599   -3412.3094   -2962.3992    280.17191    11329.853 
    4050    299.50017     -3410.78   -2965.2962     326.0538    11329.978 
    4060    299.12264   -3410.8322   -2965.9099     335.0717     11330.11 
    4070     300.6055   -3411.0389    -2963.911    328.94427    11330.248 
    4080    301.75282    -3412.524   -2963.6896    308.22246    11330.392 
    4090    301.71475   -3412.7464   -2963.9686    306.91844    11330.542 
    4100    301.88601     -3413.34   -2964.3075    294.94569    11330.697 
    4110    303.61049   -3414.5902   -2962.9926    258.59927    11330.859 
    4120    306.46229   -3414.8357   -2958.9962    221.20366    11331.025 
    4130    308.72436   -3417.4125   -2958.2084    159.20359    11331.196 
    4140    309.19869   -3416.9768   -2957.0672    145.79404     11331.37 
    4150    308.46121   -3417.6355   -2958.8228    131.88993    11331.547 
    4160    307.74842   -3417.5201   -2959.7677    131.18099    11331.726 
    4170    307.21457   -3418.5481   -2961.5897    118.78252    11331.908 
    4180    306.30265   -3417.6743   -2962.0723    133.17751    11332.093 
    4190    304.76722   -3416.4848   -2963.1667    156.15319     11332.28 
    4200    303.86275   -3416.4053   -2964.4325     163.5837     11332.47 
    4210    304.22126   -3415.5219   -2963.0158    175.27401    11332.663 
    4220     303.9641   -3414.9806    -2962.857    193.13931     11332.86 
    4230    301.85951   -3414.0292   -2965.0361    232.62589    11333.061 
    4240    299.73269   -3412.0177   -2966.1881    286.03008    11333.266 
    4250    299.42015   -3412.2406   -2966.8758    299.22472    11333.477 
    4260    300.69512   -3413.2707   -2966.0095    286.07183    11333.693 
    4270    302.37146   -3415.4242   -2965.6696    248.81168    11333.915 
    4280    303.52831   -3415.9973    -2964.522    224.65032    11334.142 
    4290    304.28242   -3415.1828   -2962.5857    211.08133    11334.373 
    4300    305.44892   -3415.6311    -2961.299    174.30318    11334.608 
    4310    306.84013    -3416.589   -2960.1876    128.90268    11334.847 
    4320    307.28587   -3416.1471   -2959.0826    108.27147    11335.089 
    4330    306.59051   -3416.0445   -2960.0143    95.552758    11335.332 
    4340    305.97749   -3415.4564   -2960.3381    93.144842    11335.578 
    4350    306.38268    -3415.521      -2959.8    79.334977    11335.826 
    4360    307.64059   -3417.0709   -2959.4788     43.12502    11336.075 
    4370    308.97479   -3416.8205    -2957.244    27.651317    11336.326 
    4380    309.61774   -3417.4034   -2956.8704     7.476666    11336.577 
    4390    309.77161   -3417.9971   -2957.2353     -7.93312    11336.828 
    4400    309.92843   -3418.5966   -2957.6015   -19.835049     11337.08 
    4410    309.62777   -3417.2552   -2956.7073   -1.9182285    11337.331 
    4420    308.15546   -3415.4502   -2957.0923    32.342418    11337.582 
    4430    304.94789   -3413.9495   -2960.3627    74.303222    11337.835 
    4440    300.92777   -3413.0888   -2965.4815    109.04869    11338.089 
    4450    299.21657   -3413.6641   -2968.6022    103.45283    11338.345 
    4460    301.85126   -3415.1303   -2966.1494    53.963843    11338.603 
    4470    306.15076   -3417.1813   -2961.8053   -12.622967    11338.862 
    4480    307.75962   -3417.0762   -2959.3071   -27.573024    11339.122 
    4490    305.22365   -3416.5748   -2962.5777    2.5587939    11339.381 
    4500    300.04955    -3414.341   -2968.0401    79.854737     11339.64 
    4510    295.27571   -3411.5217   -2972.3215    162.50211    11339.901 
    4520    293.40153   -3409.9118   -2973.4992    205.79903    11340.166 
    4530    294.60044   -3410.9121   -2972.7162    189.20454    11340.434 
    4540    298.12712   -3412.4374   -2968.9959    143.16014    11340.706 
    4550     302.9988   -3413.5939   -2962.9061    88.891357    11340.981 
    4560    307.82326   -3415.7798    -2957.916    26.057002    11341.258 
    4570    311.48437   -3416.3208   -2953.0115   -3.8684974    11341.535 
    4580    313.97287   -3417.7165   -2950.7057   -31.227422    11341.813 
    4590    315.95218   -3417.9339    -2947.979   -40.055056    11342.091 
    4600    317.42238    -3418.288   -2946.1463   -48.675625    11342.367 
    4610    317.34918   -3418.1226   -2946.0897    -44.92496    11342.643 
    4620    314.95931   -3417.5707   -2949.0926   -26.299603    11342.919 
    4630    311.57049   -3416.1202   -2952.6827    7.2720866    11343.194 
    4640    309.04266   -3415.3708   -2955.6933    27.074238     11343.47 
    4650    307.72339   -3415.1061   -2957.3908    35.816159    11343.746 
    4660    306.85508   -3415.0684   -2958.6447     40.57985    11344.023 
    4670    306.64419   -3414.7107   -2958.6007    44.593885    11344.301 
    4680    306.98704   -3414.7665   -2958.1465    37.642787     11344.58 
    4690    307.38394    -3414.456   -2957.2457    33.361339     11344.86 
    4700    307.02742   -3414.1587   -2957.4786    35.175955    11345.141 
    4710    304.76429   -3411.9734   -2958.6596    76.086836    11345.423 
    4720    300.41525   -3409.3859    -2962.541    139.91048    11345.707 
    4730    296.09749   -3406.2891   -2965.8665    209.20249    11345.993 
    4740     294.8073   -3405.7819   -2967.2784    220.88541    11346.283 
    4750    298.28952    -3407.693   -2964.0099    161.00372    11346.578 
    4760    305.06989   -3411.5421   -2957.7738    48.634535    11346.876 
    4770      310.885   -3415.8254   -2953.4076   -62.866182    11347.175 
    4780    312.78219   -3417.8581   -2952.6183   -113.03798    11347.473 
    4790    310.68385   -3417.8622   -2955.7435   -99.411213    11347.769 
    4800    306.14111   -3414.3911   -2959.0294   -17.308739    11348.064 
    4810    300.72797   -3411.9251    -2964.615    63.080076    11348.359 
    4820    296.24064   -3409.2744   -2968.6389    134.73641    11348.655 
    4830    294.71088   -3407.5969   -2969.2368     162.5542    11348.954 
    4840    297.88899   -3408.1767   -2965.0894    117.93723    11349.256 
    4850    304.81456   -3412.3711   -2958.9826   -5.4430956     11349.56 
    4860    311.52974   -3415.8045   -2952.4276   -120.16856    11349.865 
    4870     313.8988   -3417.0319   -2950.1313   -172.37579    11350.167 
    4880    311.46979   -3417.7931   -2954.5054   -173.25432    11350.467 
    4890    306.50415   -3417.0021   -2961.1004   -125.92562    11350.764 
    4900    301.60649   -3414.7998    -2966.183   -57.129823    11351.059 
    4910    299.20365   -3414.7888   -2969.7461   -31.555274    11351.352 
    4920    299.64241    -3414.644   -2968.9486   -26.232653    11351.646 
    4930    300.37094   -3414.7779   -2967.9989   -30.906272    11351.939 
    4940    299.77226   -3414.3706   -2968.4821   -26.774268    11352.232 
    4950    299.68933    -3412.776   -2967.0109   -19.657533    11352.524 
    4960    302.84896   -3413.7511   -2963.2862   -69.913792    11352.817 
    4970    309.05063   -3416.6651   -2956.9757   -162.87234    11353.108 
    4980    314.82234   -3419.2344     -2950.96   -242.88562    11353.396 
    4990    316.29543   -3419.6203   -2949.1548   -258.24081     11353.68 
    5000     312.6692   -3417.0175   -2951.9458   -194.62683     11353.96 
    5010    306.96552   -3414.4164   -2957.8285   -111.92621    11354.236 
    5020    303.11156   -3413.4133   -2962.5578   -62.172695     11354.51 
    5030     302.6671   -3414.9341   -2964.7398   -69.214188    11354.784 
    5040    303.64765   -3415.7333   -2964.0804   -83.878164    11355.056 
    5050    303.31441   -3414.4169   -2963.2597   -71.974397    11355.326 
    5060    301.06884   -3413.4485   -2965.6314   -56.128119    11355.596 
    5070    298.55722   -3411.9501   -2967.8688   -35.868537    11355.865 
    5080    297.52408   -3411.8591   -2969.3146    -42.62705    11356.133 
    5090    297.95417   -3411.9853   -2968.8011   -60.995315    11356.401 
    5100    299.57566   -3412.7157   -2967.1196   -92.455896    11356.668 
    5110    302.56705   -3414.4073   -2964.3618   -140.92751    11356.933 
    5120    305.72689    -3415.658   -2960.9125   -181.94464    11357.196 
    5130    306.68766   -3414.6117   -2958.4371   -180.39328    11357.455 
    5140    304.85315   -3413.7223   -2960.2764   -163.00172    11357.712 
    5150    301.81509   -3412.2229   -2963.2958   -134.84423    11357.965 
    5160    299.56415   -3411.7814   -2966.2025   -129.13995    11358.217 
    5170    298.75496    -3412.203   -2967.8276   -147.54655    11358.466 
    5180    299.43741   -3412.1994    -2966.809   -172.45981    11358.712 
    5190    301.98377   -3414.8534   -2965.6755   -236.74254    11358.956 
    5200    305.99934   -3416.9413   -2961.7905   -293.24376    11359.195 
    5210    308.65157   -3417.1542   -2958.0583   -304.80232    11359.429 
    5220    307.02497   -3415.9826   -2959.3063   -258.72631    11359.657 
    5230    300.89254   -3413.3104   -2965.7555   -160.52157    11359.881 
    5240    293.77199   -3410.9283   -2973.9647    -65.46284    11360.102 
    5250    290.79626   -3408.5451   -2976.0077   -13.935096    11360.322 
    5260    294.78607   -3408.3813   -2969.9094   -52.412014    11360.541 
    5270     303.7391   -3411.7873   -2959.9984   -176.10562     11360.76 
    5280    312.22168   -3416.0137   -2951.6076   -307.53063    11360.976 
    5290    315.67057   -3418.3477   -2948.8116   -376.35171    11361.186 
    5300    313.36589   -3416.8358   -2950.7278   -352.84977    11361.389 
    5310    308.16985   -3414.3825   -2956.0032   -291.57704    11361.586 
    5320      303.395   -3412.1469   -2960.8698   -233.96846    11361.778 
    5330    301.08861   -3411.4307   -2963.5842   -213.15408    11361.965 
    5340    301.46361   -3412.6021   -2964.1979    -237.3301    11362.149 
    5350    303.64853   -3413.5065   -2961.8523   -274.69668    11362.328 
    5360    306.22549   -3414.0854   -2958.5982   -310.46498    11362.502 
    5370    307.71053   -3414.2447   -2956.5486   -329.99761     11362.67 
    5380    307.61162   -3414.3897   -2956.8407   -330.68455    11362.832 
    5390    305.85885   -3413.1711   -2958.2292   -294.56745    11362.988 
    5400    302.25654    -3411.802   -2962.2183   -235.11179    11363.139 
    5410    296.80959   -3410.5526   -2969.0709   -160.11076    11363.285 
    5420    291.25949   -3407.0128   -2973.7864   -60.647564    11363.429 
    5430    289.00527   -3406.4613   -2976.5879   -29.379949    11363.571 
    5440    292.60342    -3407.561   -2972.3356   -71.464127    11363.713 
    5450    300.40318   -3411.8455   -2965.0186   -190.87083    11363.854 
    5460    307.73404   -3414.5854   -2956.8543    -291.3804    11363.991 
    5470    310.47691   -3417.6288   -2955.8179   -357.68368    11364.123 
    5480    307.70868   -3416.1615   -2958.4682   -322.35085    11364.249 
    5490    300.93304   -3412.9226   -2965.3075   -228.13152    11364.368 
    5500    293.25135   -3409.0958   -2972.9066   -117.98453    11364.484 
    5510    288.60017   -3407.9903   -2978.7194   -67.039191    11364.597 
    5520    289.75249   -3408.2478    -2977.263   -85.392412    11364.708 
    5530    296.36261   -3411.8038   -2970.9869    -194.3933    11364.819 
    5540    305.32286   -3416.1644   -2962.0198   -337.72712    11364.925 
    5550    312.41103   -3419.5794   -2954.8917   -455.29148    11365.026 
    5560    314.12213   -3421.0542   -2953.8213   -502.00098    11365.118 
    5570    310.04686   -3418.5346   -2957.3634   -446.96854    11365.201 
    5580    303.16694   -3415.5117   -2964.5739   -353.04152    11365.275 
    5590    297.10245   -3412.9069   -2970.9895   -261.77745    11365.343 
    5600    293.53773   -3411.8359   -2975.2207   -203.61435    11365.406 
    5610    292.15495   -3410.6864   -2976.1281   -161.98306    11365.465 
    5620    291.84779   -3410.3454   -2976.2439   -142.34151    11365.521 
    5630    291.56677   -3408.5708   -2974.8873   -112.77245    11365.574 
    5640    290.83811   -3407.7528   -2975.1531   -98.292993    11365.626 
    5650     290.4906   -3408.5725   -2976.4897   -113.20971    11365.675 
    5660    291.88667   -3410.4102   -2976.2509   -158.51067    11365.723 
    5670    294.82768    -3412.112   -2973.5781   -213.98917    11365.767 
    5680    297.05547    -3412.664   -2970.8165   -248.90573    11365.808 
    5690    296.97117   -3412.3069   -2970.5848   -251.63967    11365.844 
    5700    295.61021   -3412.3519   -2972.6542   -245.57812    11365.875 
    5710      296.337   -3412.6687   -2971.8898   -253.98271    11365.902 
    5720    300.16895   -3415.2226    -2968.744   -307.76735    11365.923 
    5730    304.16005   -3417.0709   -2964.6559   -354.61774     11365.94 
    5740    305.82358   -3416.6839   -2961.7945   -360.33605    11365.949 
    5750    305.53139   -3416.0936   -2961.6388   -351.61979    11365.952 
    5760    304.58996   -3416.6214   -2963.5669   -354.21217    11365.948 
    5770    303.41604   -3415.7157   -2964.4074   -343.32071    11365.938 
    5780    302.76257   -3414.2878   -2963.9514   -334.09422    11365.921 
    5790    304.19458   -3415.6297   -2963.1634    -369.1176    11365.898 
    5800    306.57878   -3417.8544   -2961.8417   -413.80665    11365.867 
    5810    306.12533   -3416.1387   -2960.8004   -384.19447    11365.829 
    5820    301.02416   -3414.1666   -2966.4159     -311.998    11365.784 
    5830    293.84957   -3411.4036   -2974.3247   -214.76231    11365.733 
    5840    289.00319   -3409.1682   -2979.2979   -143.15962    11365.678 
    5850    288.67941   -3409.4862   -2980.0975   -138.98627     11365.62 
    5860    291.72555   -3410.8572   -2976.9376   -176.39704     11365.56 
    5870    295.18252   -3413.0955   -2974.0339   -228.42802    11365.496 
    5880    296.54546   -3413.6144   -2972.5255   -245.81789    11365.428 
    5890    295.97622   -3413.9421   -2973.6999   -244.65685    11365.355 
    5900    294.77706   -3413.5565   -2975.0979   -230.69796    11365.278 
    5910    294.04803   -3413.0145   -2975.6403   -219.33088    11365.196 
    5920    293.49315   -3414.4023   -2977.8535   -233.45516     11365.11 
    5930    291.86343   -3414.4548     -2980.33   -228.93565    11365.019 
    5940    289.23498   -3413.7377   -2983.5226   -213.09407    11364.925 
    5950    287.77271   -3412.1632   -2984.1231   -200.86315    11364.826 
    5960    290.09943   -3413.5622   -2982.0613   -252.18229    11364.723 
    5970    295.32791   -3416.0434   -2976.7655    -333.6136    11364.615 
    5980    299.08963   -3417.2569   -2972.3837   -383.27189    11364.501 
    5990    298.88671   -3417.1113   -2972.5399   -383.30284     11364.38 
    6000    297.12127   -3416.4347   -2974.4893   -362.83746    11364.252 
    6010    297.77997    -3416.862   -2973.9369   -372.80116    11364.117 
    6020    302.62202   -3419.1563   -2969.0289   -436.42551    11363.974 
    6030    309.71003   -3422.9928   -2962.3226   -534.31371    11363.823 
    6040    314.99112   -3425.7829   -2957.2574   -603.27861    11363.662 
    6050    315.52171   -3425.8946     -2956.58   -599.31648     11363.49 
    6060    310.69337   -3424.4587   -2962.3258   -531.38371    11363.306 
    6070    301.86489   -3419.6726   -2970.6715   -392.86542    11363.112 
    6080    291.81033   -3414.9249   -2980.8792   -248.68234    11362.911 
    6090    283.93746    -3411.552   -2989.2166   -144.40788    11362.705 
    6100    280.53451   -3410.1835   -2992.9097   -104.19098    11362.496 
    6110    280.65418   -3410.3375   -2992.8857   -114.63063    11362.285 
    6120    281.89405   -3411.4536   -2992.1576    -149.5991    11362.072 
    6130    283.35013   -3412.6762   -2991.2143   -188.13946    11361.855 
    6140    285.82871   -3413.7618   -2988.6133   -226.66288    11361.636 
    6150    289.04957   -3414.7005   -2984.7611    -260.8979    11361.411 
    6160    291.21884   -3414.8418   -2981.6758   -271.57461    11361.182 
    6170    291.06662   -3414.7238   -2981.7843   -260.10327    11360.948 
    6180    289.74382   -3414.6669   -2983.6949    -242.2011    11360.708 
    6190    289.43697   -3414.8639   -2984.3484   -239.76229    11360.464 
    6200    291.28882   -3416.6842   -2983.4141   -277.81169    11360.215 
    6210    294.38789   -3416.2444   -2978.3647   -304.22105    11359.961 
    6220    296.77762   -3417.4195   -2975.9853   -346.66321    11359.701 
    6230     296.8651   -3418.2124    -2976.648   -366.66534    11359.435 
    6240    294.36261   -3417.6885   -2979.8464   -349.93072    11359.161 
    6250    291.00355   -3416.7265   -2983.8807   -317.06156    11358.881 
    6260    289.10698    -3415.852   -2985.8273   -290.42254    11358.594 
    6270    289.70718    -3416.508   -2985.5906   -296.42279    11358.302 
    6280    292.31973   -3417.2658   -2982.4623   -317.19064    11358.005 
    6290    295.39495   -3418.2601   -2978.8825   -343.70314    11357.701 
    6300    296.86122   -3419.3586      -2977.8   -360.67537     11357.39 
    6310    295.39334   -3419.4911   -2980.1159   -348.05897    11357.073 
    6320    291.82514    -3417.896   -2983.8282   -304.71167    11356.749 
    6330    288.82688    -3416.063   -2986.4549   -267.73812    11356.419 
    6340    288.42767   -3415.2895   -2986.2752    -265.3748    11356.084 
    6350    290.46357   -3417.0683   -2985.0257   -311.69572    11355.744 
    6360    293.31547   -3418.9966   -2982.7121   -364.23093    11355.397 
    6370    295.34651   -3419.9837   -2980.6782   -394.42715    11355.044 
    6380    295.80141   -3419.9049   -2979.9227   -395.44521    11354.683 
    6390    295.69523   -3421.3836   -2981.5594   -404.85662    11354.314 
    6400    296.14083   -3421.1699   -2980.6828   -396.51659    11353.937 
    6410    297.42025   -3421.6436   -2979.2535   -400.39693    11353.553 
    6420     298.7728   -3421.7601   -2977.3582   -400.92808    11353.161 
    6430    299.61763   -3421.8837   -2976.2251   -400.21455    11352.761 
    6440    299.68528   -3421.7421   -2975.9829   -392.81935    11352.353 
    6450    298.52391   -3420.9757    -2976.944   -372.63659    11351.938 
    6460    296.60117   -3419.8225   -2978.6507   -346.09685    11351.515 
    6470    295.40582   -3418.5122   -2979.1184   -323.90652    11351.086 
    6480    295.78619   -3419.4496   -2979.4901   -337.64151     11350.65 
    6490    297.57341   -3420.8397   -2978.2218   -363.35831    11350.207 
    6500    300.01848   -3421.6448   -2975.3901    -381.1591    11349.758 
    6510    301.70992   -3422.3327    -2973.562   -386.10414      11349.3 
    6520    300.95891   -3422.5684   -2974.9148    -362.6558    11348.836 
    6530    296.27465    -3420.406   -2979.7199   -281.10318    11348.364 
    6540    287.97511   -3416.1398   -2987.7987   -152.23028    11347.887 
    6550    278.94583    -3412.031   -2997.1202    -28.68352    11347.406 
    6560     273.5981   -3410.5779   -3003.6215    28.748301    11346.924 
    6570    274.27251   -3410.7307   -3002.7711    14.447363    11346.443 
    6580     280.6124   -3414.4181   -2997.0284   -87.361991    11345.961 
    6590    289.86552   -3420.1198   -2988.9668    -232.6794    11345.478 
    6600    297.88722   -3424.8074   -2981.7228   -349.39242     11344.99 
    6610    301.28417    -3426.356   -2978.2186   -384.07585    11344.495 
    6620    299.26463   -3425.0128   -2979.8794   -335.02439    11343.993 
    6630    293.62681   -3423.1419   -2986.3943   -247.55249    11343.485 
    6640    287.59746   -3419.3603   -2991.5809   -134.87799    11342.971 
    6650    283.96033   -3417.3209   -2994.9515   -64.319243    11342.455 
    6660    283.52451   -3417.4357   -2995.7145   -46.359794    11341.937 
    6670    284.48627    -3418.389   -2995.2373   -52.674978    11341.418 
    6680    285.32636   -3418.2298   -2993.8285   -47.040832    11340.897 
    6690    286.19365   -3417.4246   -2991.7332   -34.396231    11340.376 
    6700    287.67201   -3417.9802   -2990.0898   -40.915412    11339.853 
    6710    289.15074   -3419.3252   -2989.2354   -58.506922    11339.329 
    6720    290.51527   -3420.6117   -2988.4923   -79.593355    11338.804 
    6730    292.89201   -3422.0198   -2986.3651   -115.25473    11338.277 
    6740    296.68288   -3421.5193    -2980.226   -143.57147    11337.747 
    6750    300.46989   -3423.5152    -2976.589    -201.5613    11337.215 
    6760     302.1202   -3424.2936   -2974.9127   -226.91398    11336.678 
    6770    300.73106    -3425.234   -2977.9194   -224.99882    11336.137 
    6780    297.24018   -3424.5771   -2982.4548   -182.69877    11335.591 
    6790    294.03096    -3424.457   -2987.1083   -143.25411    11335.042 
    6800    292.48519   -3423.8676   -2988.8181   -107.40644    11334.489 
    6810    291.96621   -3424.0632   -2989.7856   -88.847897    11333.934 
    6820    291.71151   -3422.9485   -2989.0497   -59.326875    11333.377 
    6830    291.53161      -3424.5   -2990.8688   -64.196719    11332.818 
    6840    291.52072   -3423.5083   -2989.8933   -43.916793    11332.259 
    6850    292.11609   -3424.0053   -2989.5047   -49.270602    11331.697 
    6860    293.90261   -3423.2682   -2986.1103   -51.700976    11331.135 
    6870    295.76499    -3423.888     -2983.96   -73.232789    11330.571 
    6880    295.91503   -3424.5568   -2984.4056   -85.178499    11330.006 
    6890    294.24898   -3422.8496   -2985.1766   -55.813123    11329.439 
    6900     292.0421     -3421.92   -2987.5295   -28.069876     11328.87 
    6910    290.30025   -3421.3608   -2989.5612   -3.8548608    11328.301 
    6920    289.09461   -3421.3341   -2991.3278    12.959217    11327.731 
    6930    287.89574   -3420.3901    -2992.167    40.424563    11327.161 
    6940    286.53635   -3421.0699   -2994.8688     48.27005    11326.591 
    6950    285.67169   -3419.3706   -2994.4557    76.126855    11326.022 
    6960    287.11653   -3420.6868   -2993.6227    48.272468    11325.454 
    6970    292.18538   -3423.1932   -2988.5896   -20.735545    11324.887 
    6980    298.39508   -3426.1523   -2982.3122   -103.06044    11324.318 
    6990    301.91088   -3428.6614   -2979.5919   -159.29459    11323.748 
    7000    301.36193   -3428.4391   -2980.1861   -150.61285    11323.174 
    7010    298.20871   -3426.6254   -2983.0625    -101.6302    11322.597 
    7020     294.8097   -3426.0045   -2987.4974   -64.364234    11322.018 
    7030    292.37608   -3423.9008   -2989.0135    -18.59073    11321.438 
    7040    291.45927   -3424.8045   -2991.2809   -20.796875    11320.856 
    7050    292.29759   -3425.0245    -2990.254   -28.434169    11320.274 
    7060     293.8746   -3424.0443   -2986.9281   -25.425973    11319.691 
    7070    294.20148   -3422.8198   -2985.2174   -7.3859328    11319.107 
    7080    292.30506   -3421.7769   -2986.9952    28.357367    11318.523 
    7090    289.14746   -3420.0901   -2990.0052     83.68206    11317.938 
    7100    286.54279   -3418.0275   -2991.8168    140.67447    11317.355 
    7110     285.7616   -3417.6831   -2992.6344     165.5534    11316.774 
    7120    286.53344   -3419.7043   -2993.5075     150.4046    11316.196 
    7130    287.88635   -3420.8366   -2992.6275    140.68303     11315.62 
    7140    288.28237   -3422.6638   -2993.8657    129.07254    11315.047 
    7150    286.79471   -3422.3495   -2995.7641    154.21497    11314.475 
    7160    284.07779   -3421.1432   -2998.5991     194.1665    11313.906 
    7170    282.30142    -3420.414    -3000.512    217.03523    11313.341 
    7180    283.30658   -3421.3613   -2999.9643    196.96412    11312.779 
    7190    287.22579   -3423.3988   -2996.1722    141.91176    11312.221 
    7200    292.54768    -3425.363   -2990.2205    78.023004    11311.665 
    7210    297.39629   -3427.3506   -2984.9962    20.828086     11311.11 
    7220    300.02528   -3427.5477   -2981.2828    5.9767951    11310.555 
    7230    299.92604   -3427.8012    -2981.684    14.866143        11310 
    7240    298.56795   -3427.2834   -2983.1862    43.184181    11309.445 
    7250     298.1932   -3426.2135   -2982.6737    67.348131     11308.89 
    7260    300.41609   -3426.6012   -2979.7551    53.139168    11308.337 
    7270    303.83863   -3428.5225   -2976.5855    12.848641    11307.783 
    7280    305.09654    -3428.551    -2974.743     15.60531     11307.23 
    7290    301.73765   -3428.0682   -2979.2564    67.245252    11306.677 
    7300    293.20441   -3424.2897   -2988.1703     202.9694    11306.125 
    7310    280.99842   -3419.5633   -3001.5995    377.68385    11305.577 
    7320    269.71381   -3413.4675   -3012.2886    552.96787    11305.035 
    7330    264.97275    -3412.276   -3018.1491    608.09094    11304.503 
    7340    268.83858   -3414.9268   -3015.0498     538.4717    11303.981 
    7350    278.95918   -3420.1026   -3005.1719    379.69064     11303.47 
    7360    290.55515   -3425.9088     -2993.73    196.70011    11302.965 
    7370    299.05872   -3429.7513   -2984.9242    63.450617    11302.463 
    7380    302.78899   -3431.9507    -2981.575   -3.8081301    11301.963 
    7390    303.36018    -3432.144   -2980.9187   -10.758285    11301.462 
    7400    303.06399   -3432.4217    -2981.637   -1.7819177    11300.961 
    7410    302.40688    -3431.332   -2981.5247    29.537689    11300.459 
    7420    300.78587   -3429.7525   -2982.3563    72.631746    11299.958 
    7430    298.51882   -3428.7613   -2984.7371    109.21815    11299.458 
    7440    297.25593   -3428.0205   -2985.8749    134.19644    11298.959 
    7450    296.89439   -3427.7436   -2986.1357    151.35147    11298.463 
    7460    294.74631   -3427.3411   -2988.9283    189.77757    11297.969 
    7470    289.00373   -3426.5528   -2996.6816    264.21295    11297.478 
    7480    281.06773   -3422.9339    -3004.867    389.17312    11296.993 
    7490    274.37496   -3417.5831   -3009.4711    518.87093    11296.514 
    7500    272.85213   -3416.9658   -3011.1189    545.70019    11296.044 
    7510    277.69605   -3419.9805   -3006.9287    475.26624    11295.585 
    7520    285.63217   -3423.1232    -2998.267    377.78533    11295.133 
    7530    291.61198   -3426.5877   -2992.8369     292.9389    11294.689 
    7540    293.34825   -3428.5467   -2992.2134    262.01992     11294.25 
    7550    291.92668   -3428.1063   -2993.8875    287.11823    11293.816 
    7560    289.70676   -3426.0758   -2995.1589    338.25352    11293.387 
    7570    288.75765   -3425.3504   -2995.8453    362.43985    11292.964 
    7580    289.97828   -3425.7303   -2994.4095    355.73684    11292.547 
    7590    292.05946   -3424.8388   -2990.4225    356.43027    11292.137 
    7600    293.45683   -3426.3586   -2989.8638    334.16993    11291.733 
    7610    294.25112    -3427.967   -2990.2908    315.11914    11291.335 
    7620    294.75727   -3428.9023   -2990.4732    307.32571    11290.943 
    7630    293.43197   -3427.9814   -2991.5236     332.9256    11290.556 
    7640    289.60398   -3426.3131   -2995.5491    382.97681    11290.176 
    7650    284.90875   -3422.4904   -2998.7103    464.08095    11289.802 
    7660    281.06165   -3420.4159    -3002.358    519.17967    11289.437 
    7670    278.97953   -3420.0267   -3005.0658    542.74568    11289.081 
    7680    279.64311   -3420.5047   -3004.5568    539.47517    11288.735 
    7690     283.0552   -3422.1182   -3001.0951    508.07117    11288.398 
    7700    287.33092    -3423.776   -2996.3931    474.93648    11288.071 
    7710    290.39229   -3426.2653   -2994.3287    444.16492    11287.753 
    7720    291.91976   -3425.6052   -2991.3967     461.0225    11287.443 
    7730    292.90817   -3426.2471   -2990.5684    462.35089    11287.141 
    7740    294.69741   -3427.6903   -2989.3503     442.2762    11286.848 
    7750    297.35834   -3429.3156   -2987.0176    407.48458    11286.562 
    7760    299.42132   -3430.3723   -2985.0058    379.57726    11286.285 
    7770    299.51252   -3429.3709   -2983.8687    389.90759    11286.014 
    7780    297.30412   -3427.8563    -2985.639    424.44593     11285.75 
    7790    293.87445    -3427.296     -2990.18    458.54377    11285.494 
    7800    290.98221   -3426.3527   -2993.5387     494.8472    11285.246 
    7810    289.55973   -3425.8938   -2995.1956    517.41398    11285.008 
    7820    288.76371   -3424.3077   -2994.7936    549.71191    11284.779 
    7830    287.55946   -3423.6971   -2995.9742    572.52481     11284.56 
    7840    285.90844   -3423.5139   -2998.2467    590.00201    11284.352 
    7850     284.7871    -3423.467   -2999.8677    597.07369    11284.154 
    7860    285.61318   -3424.0195   -2999.1915    579.65317    11283.968 
    7870    288.70454   -3425.3297   -2995.9036    536.63797    11283.792 
    7880    292.61298   -3427.9754   -2992.7358    475.22276    11283.626 
    7890    295.43832   -3428.7526   -2989.3105    446.96205    11283.469 
    7900     296.8326   -3428.6685   -2987.1525    443.15359     11283.32 
    7910    296.81751   -3428.2596    -2986.766    454.24401     11283.18 
    7920    295.37346    -3427.778   -2988.4324    473.31464    11283.047 
    7930    293.65426   -3427.1561   -2990.3676     489.4321    11282.924 
    7940    293.64657   -3427.4073   -2990.6302    475.72434     11282.81 
    7950     296.1174   -3427.2123   -2986.7601    445.52973    11282.704 
    7960    299.28393   -3430.1356   -2984.9734    375.01745    11282.607 
    7970     300.5723   -3430.6496   -2983.5711    352.06508    11282.517 
    7980     299.2474   -3431.0175   -2985.9096    358.99408    11282.433 
    7990    296.73667   -3429.5955   -2988.2222    402.58817    11282.356 
    8000    294.81768   -3428.8717   -2990.3528      437.494    11282.287 
    8010    293.59041   -3428.3669   -2991.6734    464.25873    11282.225 
    8020    292.00046   -3427.5432   -2993.2147    491.31064    11282.173 
    8030    290.30651   -3426.0095   -2994.2006    521.45857     11282.13 
    8040    289.55601   -3426.7975   -2996.1049    516.44436    11282.096 
    8050    289.77671   -3427.5515   -2996.5306     510.2388    11282.072 
    8060    289.48918   -3427.3897   -2996.7965    527.04971    11282.058 
    8070    287.26355   -3426.6332   -2999.3505    574.71106    11282.054 
    8080    282.47459   -3423.6479   -3003.4884    673.69403     11282.06 
    8090    276.13194   -3418.6908   -3007.9654    806.15991     11282.08 
    8100    271.57451   -3415.5622   -3011.6157    895.60328    11282.114 
    8110    272.27177   -3415.7638   -3010.7802    895.73438    11282.166 
    8120    278.33087   -3418.4241    -3004.428    815.85092    11282.234 
    8130    286.63837   -3422.4913   -2996.1384    694.39734    11282.317 
    8140    293.45608   -3425.6684   -2989.1747    590.47427    11282.413 
    8150    297.15953   -3427.7827   -2985.7804    524.06717    11282.521 
    8160    298.70193   -3429.3223   -2985.0258    485.92607    11282.639 
    8170      300.054   -3431.4225   -2985.1149     447.8404    11282.766 
    8180    302.24887    -3431.583   -2982.0107    428.76032    11282.902 
    8190    304.50701   -3431.9095   -2978.9784     405.6857    11283.046 
    8200    306.05822   -3433.0563   -2977.8179    373.61225    11283.198 
    8210    307.32458   -3433.5323   -2976.4102    348.46047    11283.357 
    8220    307.90025   -3433.6555   -2975.6772    333.22105    11283.523 
    8230    306.49097   -3432.2373   -2976.3552    355.02074    11283.696 
    8240    302.75529   -3430.2898   -2979.9642    407.00244    11283.875 
    8250    297.96689   -3426.7547   -2983.5515    493.91679    11284.062 
    8260    293.45872   -3425.6021   -2989.1045     557.9576    11284.258 
    8270     289.8701   -3423.7354   -2992.5756    626.77908    11284.465 
    8280    286.90652   -3422.0552   -2995.3035    685.47532    11284.685 
    8290    284.79158   -3421.1984   -2997.5925    720.02968    11284.917 
    8300    285.07874   -3419.8547   -2995.8217    731.64129    11285.163 
    8310    288.80146   -3422.3612   -2992.7909     663.8748    11285.422 
    8320    294.43367   -3425.5762   -2987.6284    570.14609    11285.695 
    8330    298.51541   -3427.8686   -2983.8496    501.58366    11285.978 
    8340    298.28493   -3428.4859   -2984.8096     494.6078    11286.272 
    8350    293.48784   -3426.5098   -2989.9689    564.45748    11286.575 
    8360    285.96676   -3420.9138   -2995.5599    704.16208    11286.889 
    8370    278.92604   -3416.3578   -3001.4765     826.2316    11287.216 
    8380    276.33394   -3415.1152   -3004.0894    866.29455     11287.56 
    8390    280.20386   -3416.7611   -2999.9791    808.94435     11287.92 
    8400    288.93442   -3421.4006   -2991.6325    666.97644    11288.295 
    8410    298.63666   -3427.0646   -2982.8652    498.14804    11288.683 
    8420    305.92311   -3430.7073   -2975.6698    370.94338    11289.081 
    8430    308.85543   -3430.2889   -2970.8899    331.56735    11289.486 
    8440    306.72102   -3430.8321   -2974.6079    331.41968    11289.899 
    8450    300.24072   -3426.6626   -2980.0773    429.03777    11290.318 
    8460    291.94914   -3424.0735   -2989.8213    528.31122    11290.745 
    8470    284.71828    -3420.057   -2996.5602    635.95586    11291.183 
    8480     280.3389    -3418.018   -3001.0352    691.56587    11291.634 
    8490    280.16347   -3418.2482   -3001.5262    678.18803    11292.097 
    8500    285.02268   -3420.6428   -2996.6932    592.86277    11292.574 
    8510    293.48997   -3424.7363   -2988.1922    458.52531    11293.062 
    8520    301.93246    -3428.947   -2979.8454     325.9403     11293.56 
    8530     307.0874   -3429.7708   -2973.0016    266.27939    11294.064 
    8540    307.22233   -3429.7422   -2972.7722    263.77874    11294.574 
    8550     303.4199   -3428.6242   -2977.3101    309.75736     11295.09 
    8560    298.48932   -3425.2237   -2981.2435    391.21386    11295.612 
    8570    294.72967   -3423.0798   -2984.6918    445.66757    11296.142 
    8580    292.61418   -3423.0894    -2987.848    458.85993     11296.68 
    8590    291.15761   -3422.5128    -2989.438    467.54571    11297.228 
    8600    290.46271   -3422.4537   -2990.4124    457.65683    11297.786 
    8610    291.48833   -3422.7409   -2989.1741    426.77096    11298.352 
    8620    293.63284   -3423.8604   -2987.1038    376.15147    11298.927 
    8630     295.0347   -3423.6761   -2984.8344    346.04773     11299.51 
    8640    294.80386   -3423.5784     -2985.08    330.58372      11300.1 
    8650    293.01006   -3422.8162   -2986.9859    339.64394    11300.698 
    8660    290.14027   -3421.7682   -2990.2066    365.20134    11301.302 
    8670    287.17208   -3421.0621   -2993.9154    390.13854    11301.914 
    8680    285.60338   -3419.6216   -2994.8082    413.38068    11302.533 
    8690    285.89581   -3420.7056   -2995.4572    393.12391    11303.161 
    8700    286.89882   -3420.1739   -2993.4337    384.62715    11303.798 
    8710     288.2563   -3420.6093   -2991.8499    360.62059    11304.442 
    8720    290.20845    -3421.211    -2989.548    331.95195    11305.094 
    8730    291.65046   -3422.0791   -2988.2711    305.87268    11305.753 
    8740    291.85985   -3420.9977   -2986.8783    311.06459    11306.418 
    8750    292.06507   -3420.1768   -2985.7521    310.61059     11307.09 
    8760    294.63913   -3421.2163   -2982.9629     268.1368    11307.769 
    8770    300.56483   -3423.3019   -2976.2345    186.86226    11308.453 
    8780    308.02563   -3427.6128    -2969.448    71.180605    11309.141 
    8790    312.71509   -3430.9042   -2965.7642   -7.0953975    11309.832 
    8800    311.60772   -3430.5787   -2967.0858    6.8024709    11310.524 
    8810    305.00682    -3428.109   -2974.4345    90.847267    11311.217 
    8820     296.5019   -3422.8371    -2981.813    221.36212    11311.913 
    8830    290.68244   -3420.1246   -2987.7565    298.99842    11312.613 
    8840    289.29344   -3418.4844   -2988.1824    325.98305     11313.32 
    8850    290.55306   -3419.7688   -2987.5932    294.70518    11314.033 
    8860    291.44666   -3420.4714   -2986.9666    268.34023    11314.754 
    8870    291.16866   -3420.7043    -2987.613    252.12065     11315.48 
    8880    292.10476   -3421.0271   -2986.5434    223.67745    11316.212 
    8890    295.49352   -3421.6755   -2982.1513    174.35547    11316.948 
    8900    299.14414   -3422.8499   -2977.8957    121.20406    11317.689 
    8910    300.41706   -3422.2838   -2975.4362    110.66761    11318.433 
    8920    299.31205   -3422.0854   -2976.8814     119.2091    11319.181 
    8930    297.66454   -3422.9267   -2980.1732    123.44397    11319.931 
    8940    296.80678   -3422.3301   -2980.8525    139.62468    11320.684 
    8950    295.98855   -3420.1736    -2979.913    171.67696    11321.442 
    8960    293.56524   -3419.8331   -2983.1771    190.45929    11322.203 
    8970    289.04706   -3418.5582   -2988.6226    229.30342    11322.969 
    8980     284.3664   -3415.8908   -2992.9174    278.26877     11323.74 
    8990    282.73106    -3415.299    -2994.758    274.75542    11324.517 
    9000    285.18117    -3414.806   -2990.6206    237.74744    11325.301 
    9010    288.95106   -3417.0867   -2987.2939    159.95706    11326.089 
    9020    290.82008   -3417.6081   -2985.0353    119.11664    11326.882 
    9030     291.0227   -3417.2804   -2984.4062    104.07466    11327.678 
    9040    292.07667   -3417.6453   -2983.2033    77.743333    11328.477 
    9050    295.62001   -3419.2749   -2979.5625    20.796478    11329.278 
    9060    300.87574   -3422.5637   -2975.0338    -67.69107    11330.081 
    9070     306.1094   -3424.9177   -2969.6031   -145.54897    11330.884 
    9080    310.28326   -3426.4663   -2964.9435   -203.16359    11331.684 
    9090    312.07129    -3426.278   -2962.0956   -217.20312    11332.482 
    9100    309.99533   -3423.8553   -2962.7608   -170.96672    11333.278 
    9110     304.7102   -3422.1712   -2968.9379    -105.3252     11334.07 
    9120    298.91873   -3417.3453   -2972.7263    1.9166122    11334.862 
    9130    294.65313   -3416.0648   -2977.7906    52.882242    11335.655 
    9140    293.28763   -3415.3372   -2979.0941    69.514453     11336.45 
    9150    295.09055   -3417.9325   -2979.0076    16.459038    11337.247 
    9160    299.01595   -3420.1576    -2975.394   -52.860206    11338.045 
    9170    302.98986   -3421.2221   -2970.5476   -111.10921    11338.843 
    9180    305.83891   -3423.5556   -2968.6434   -172.15514     11339.64 
    9190    307.49151   -3423.7017   -2966.3314    -191.2227    11340.435 
    9200    307.35054   -3423.4617    -2966.301   -183.58445    11341.227 
    9210    303.75058   -3421.4633   -2969.6573   -127.06029    11342.017 
    9220    297.49277   -3417.2013   -2974.7034   -29.185958    11342.805 
    9230    293.29491   -3414.7807   -2978.5268      24.8518    11343.594 
    9240    294.95411   -3415.3393   -2976.6174   -5.0155484    11344.384 
    9250    301.12347   -3419.2404   -2971.3421   -109.58143    11345.175 
    9260    307.56243   -3421.1759   -2963.7001   -190.13258    11345.965 
    9270    310.83525     -3421.63   -2959.2861   -223.33489    11346.752 
    9280    310.19015   -3420.2216   -2958.8373   -197.35187    11347.536 
    9290    306.56054   -3417.8263   -2961.8408   -133.66934    11348.317 
    9300    302.22487   -3414.5545   -2965.0179   -56.580447    11349.097 
    9310    299.24042   -3412.2365   -2967.1391   -8.8260966    11349.877 
    9320    298.10066   -3411.3846   -2967.9824   -1.9507866    11350.657 
    9330    298.13282   -3413.2305   -2969.7806   -44.012796    11351.439 
    9340    298.93117   -3412.8373   -2968.1998   -69.385733     11352.22 
    9350    299.85262   -3412.6391    -2966.631    -93.62576    11353.001 
    9360    299.29406   -3412.0847   -2966.9075   -95.404151    11353.781 
    9370    296.98144   -3410.1146   -2968.3773   -60.836513    11354.561 
    9380    294.94134   -3408.5495   -2969.8466    -27.94635     11355.34 
    9390    295.32042   -3408.4769   -2969.2101     -27.8225     11356.12 
    9400    298.35653   -3408.4359   -2964.6532   -49.004761      11356.9 
    9410    303.08618   -3411.6225   -2960.8048   -124.02173    11357.681 
    9420    308.23017   -3414.8865   -2956.4175   -209.06916    11358.459 
    9430    312.50572   -3416.3956    -2951.567   -273.03973    11359.235 
    9440    314.86944   -3417.3306   -2948.9862   -320.84876    11360.007 
    9450    315.68961   -3418.0074   -2948.4431   -358.14563    11360.773 
    9460    316.40991   -3417.5862   -2946.9504   -380.94148    11361.534 
    9470     316.3435   -3417.6876   -2947.1507   -400.36198    11362.288 
    9480    313.56037    -3416.673   -2950.2757   -380.93453    11363.036 
    9490    307.48271   -3415.1735   -2957.8162   -324.17186    11363.778 
    9500    299.64899   -3411.3431   -2965.6379   -222.89991    11364.514 
    9510    292.69589   -3407.9714   -2972.6084   -131.25301    11365.248 
    9520    288.12755   -3406.2072   -2977.6393   -77.946343    11365.979 
    9530    286.81087   -3406.3571   -2979.7476   -76.077006     11366.71 
    9540    288.56493   -3408.1936   -2978.9751   -120.67329     11367.44 
    9550    291.05876    -3408.168   -2975.2401   -154.35769    11368.169 
    9560    292.94791   -3408.3589   -2972.6211   -189.97396    11368.897 
    9570    294.94463   -3409.6578     -2970.95    -241.0342    11369.621 
    9580    297.67393   -3411.8553   -2969.0879   -307.27951    11370.341 
    9590    300.57621   -3412.5607   -2965.4764   -356.45208    11371.057 
    9600    302.98735   -3413.8045   -2963.1337   -406.47383    11371.767 
    9610    304.89884   -3414.0066   -2960.4927   -440.52553     11372.47 
    9620    307.15871   -3414.1222   -2957.2469   -473.22343    11373.166 
    9630    309.46417   -3415.4454   -2955.1409   -516.41882    11373.854 
    9640    310.47586   -3413.8766   -2952.0673   -513.76397    11374.532 
    9650    309.34846    -3414.251   -2954.1186   -514.67086    11375.202 
    9660    306.45383   -3413.9937   -2958.1668    -491.7282    11375.863 
    9670    302.90441    -3412.487   -2961.9396   -446.01859    11376.516 
    9680    299.58026   -3410.7023   -2965.0994   -398.32387     11377.16 
    9690    297.50139   -3409.5536   -2967.0428   -369.31778    11377.799 
    9700    297.54966   -3410.2739   -2967.6913    -381.2778     11378.43 
    9710     299.8608   -3412.5354   -2966.5151   -430.44772    11379.056 
    9720    303.24871    -3412.583   -2961.5235   -460.57971    11379.674 
    9730    305.27402   -3413.6505   -2959.5785   -488.48309    11380.284 
    9740    304.32203   -3412.8102   -2960.1543   -467.82544    11380.885 
    9750    301.59736    -3409.366   -2960.7627   -400.72247    11381.479 
    9760    300.39741    -3409.196   -2962.3776   -381.54138    11382.066 
    9770    302.42615   -3409.4798   -2959.6438   -393.01279    11382.646 
    9780    306.09633   -3411.2557   -2955.9606   -437.56834    11383.219 
    9790     308.7164   -3411.4496   -2952.2573   -460.33668    11383.785 
    9800    308.91216   -3413.8331   -2954.3497   -493.50316    11384.343 
    9810    306.96758   -3412.6317   -2956.0407   -471.38186    11384.893 
    9820    303.74099   -3410.2538   -2958.4621   -428.99687    11385.434 
    9830    300.32782   -3408.9718    -2962.257   -401.59599    11385.967 
    9840    297.84164   -3408.6845   -2965.6676   -396.66884    11386.494 
    9850    297.13169   -3407.9847   -2966.0238   -404.69992    11387.014 
    9860    299.05765   -3408.6229   -2963.7974   -449.87536    11387.527 
    9870    303.31092   -3409.6531   -2958.5011   -513.13615    11388.032 
    9880    306.75242   -3412.5069    -2956.236   -585.95419    11388.527 
    9890    306.49365   -3412.5613   -2956.6752   -595.48092    11389.013 
    9900     303.3467   -3410.7563   -2959.5511   -561.09031    11389.488 
    9910    301.00273   -3410.1514   -2962.4327   -547.17673    11389.952 
    9920     302.2765    -3410.726   -2961.1126   -576.84989    11390.407 
    9930    307.05873   -3412.4242   -2955.6976   -647.83454    11390.851 
    9940    312.60866   -3414.3825   -2949.4008   -724.91715    11391.284 
    9950    315.25818   -3414.6014   -2945.6787   -753.98374    11391.703 
    9960    313.36811   -3413.1774   -2947.0661   -721.71811    11392.109 
    9970    308.31033   -3410.6748   -2952.0866   -645.50482    11392.502 
    9980    302.70858   -3410.1395   -2959.8834   -582.25009    11392.882 
    9990    298.46268   -3407.7945   -2963.8539   -505.54852    11393.252 
   10000    295.87993   -3406.2931   -2966.1941    -451.8508    11393.613 
Loop time of 3.44537 on 1 procs for 10000 steps with 500 atoms

Performance: 250.772 ns/day, 0.096 hours/ns, 2902.449 timesteps/s
99.9% CPU use with 1 MPI tasks x no OpenMP threads

MPI task timing breakdown:
Section |  min time  |  avg time  |  max time  |%varavg| %total
---------------------------------------------------------------
Pair    | 2.8727     | 2.8727     | 2.8727     |   0.0 | 83.38
Bond    | 0.00074196 | 0.00074196 | 0.00074196 |   0.0 |  0.02
Neigh   | 0.021616   | 0.021616   | 0.021616   |   0.0 |  0.63
Comm    | 0.098863   | 0.098863   | 0.098863   |   0.0 |  2.87
Output  | 0.010255   | 0.010255   | 0.010255   |   0.0 |  0.30
Modify  | 0.38274    | 0.38274    | 0.38274    |   0.0 | 11.11
Other   |            | 0.05841    |            |       |  1.70

Nlocal:    500 ave 500 max 500 min
Histogram: 1 0 0 0 0 0 0 0 0 0
Nghost:    1656 ave 1656 max 1656 min
Histogram: 1 0 0 0 0 0 0 0 0 0
Neighs:    14917 ave 14917 max 14917 min
Histogram: 1 0 0 0 0 0 0 0 0 0

Total # of neighbors = 14917
Ave neighs/atom = 29.834
Ave special neighs/atom = 0
Neighbor list builds = 20
Dangerous builds = 0

#write_data      ${rep}/lj-out.data
Total wall time: 0:00:03
