LAMMPS data file via write_data, version 14 May 2016, timestep = 400000

500 atoms
1 atom types

0.0000000000000000e+00 8.3979809569125372e+00 xlo xhi
0.0000000000000000e+00 8.3979809569125372e+00 ylo yhi
0.0000000000000000e+00 8.3979809569125372e+00 zlo zhi

Masses

1 1

Pair Coeffs # lj/cut

1 1 1

Atoms # atomic

7 1 2.4137737201272674e-01 2.0017433398687118e-01 3.6157393311703534e-02 2 1 2
398 1 1.6739594898193126e+00 3.0313452824803544e-01 5.7986723161362197e-01 -3 0 1
173 1 6.1370793327804556e+00 4.4978954867119525e-01 3.6568951377817088e-01 -4 1 0
462 1 7.8754716784931862e+00 5.2908038473333074e-01 7.9185633743762940e-01 1 1 -2
383 1 6.5373096080170212e-01 1.5337525983981986e+00 6.3208419126059423e-01 2 0 1
288 1 1.9354124990672374e+00 1.3318105136786291e+00 3.6211635210084403e-01 -1 1 0
303 1 2.9661308460819318e+00 1.1444058564802859e+00 6.5604777151148241e-01 -2 2 1
491 1 7.1514675802966758e+00 1.3588685826107376e+00 1.2875068928885325e-01 -1 0 0
187 1 3.0670386025081497e-01 2.4850915964494620e+00 7.0944157374329464e-02 0 -1 0
163 1 1.2805212773629451e+00 2.4034621328433090e+00 2.0184086197146742e-01 0 1 -1
345 1 2.5952244948945173e+00 2.3405536448220743e+00 3.0019149048630317e-01 -3 2 1
447 1 3.9059163101716741e+00 1.6849179478858272e+00 6.0306488750926446e-01 -2 3 -4
108 1 4.9215629854759335e+00 2.5174843149522088e+00 6.2779912940916158e-02 1 0 -1
427 1 6.3978861821382305e+00 1.9201774263431104e+00 4.3981049730412797e-01 -1 -2 -3
96 1 7.4061541304605534e+00 2.4828308207907996e+00 2.4705543772216432e-01 0 -3 2
494 1 8.0759482343563711e+00 1.6914241739458744e+00 6.8482420189075921e-01 -3 1 2
360 1 3.1886448226656765e+00 3.1126224743956139e+00 5.4052217066940123e-01 1 1 -2
179 1 4.2399500260508116e+00 2.8640916432630559e+00 7.5278462735962870e-01 -1 1 1
136 1 6.2603021059339365e+00 3.2638426060411403e+00 9.9163685662983045e-02 -2 0 3
311 1 8.0699058291845773e+00 3.1228722160017734e+00 7.5458759573094458e-01 -3 -3 3
242 1 8.1363443818268044e-02 3.8061968817045986e+00 5.4644298839992535e-02 1 1 1
451 1 1.9291602479953753e+00 3.5896469823727863e+00 2.3008537852985023e-01 -1 0 0
118 1 5.3566912079946780e+00 3.5234509548370374e+00 6.7801317822012042e-01 1 -3 -1
200 1 6.7588369512940338e-01 6.1719413314115790e-01 9.9275606042642373e-01 -1 2 3
23 1 2.1873327028525060e+00 4.2754803645009956e-02 1.4143560341384132e+00 -3 -1 0
30 1 3.9592898204338112e+00 6.8093268022015185e-01 1.2987004742604558e+00 -1 -2 -2
26 1 5.1175076813830467e+00 5.1869033157649591e-01 9.5797839381311178e-01 0 1 2
452 1 6.5582763761917411e+00 3.4514602671261341e-01 1.2368598815410630e+00 -2 0 -2
439 1 8.3865135868155445e+00 1.4825845267600596e-01 1.6737363681796917e+00 -2 3 1
492 1 1.6645816560197648e+00 9.7557398318995125e-01 1.3973497820249918e+00 -2 3 1
287 1 2.8845951500519784e+00 9.2974386224238703e-01 1.6104516406361071e+00 2 -1 2
87 1 5.9282888423658395e+00 1.2716232081523247e+00 1.1744299163086194e+00 -1 2 -1
191 1 7.0465887128985001e+00 1.3447129135151838e+00 1.1378718594147066e+00 -1 2 0
316 1 6.6785856436835267e-01 2.4243200282222617e+00 1.1253836626025919e+00 0 1 0
176 1 1.8165460632802826e+00 2.1437252128100086e+00 1.0868234266569741e+00 1 1 1
244 1 3.5041229236927576e+00 2.3924032537771125e+00 1.3551249499971583e+00 -3 1 4
463 1 4.9238071200835165e+00 1.7488964460038467e+00 8.7393010597649756e-01 -2 2 1
101 1 4.7502017837518187e+00 2.5070270251466997e+00 1.6042073679153410e+00 -3 0 -2
456 1 6.7262574842655534e+00 2.1937608587635533e+00 1.5819520420856528e+00 0 2 3
90 1 7.8106680805872131e+00 2.3465270292028992e+00 1.4066520475037838e+00 0 -4 1
457 1 2.2543678933961773e+00 3.1652213402916889e+00 1.1451988834668292e+00 -1 0 0
344 1 5.9751963550424136e+00 2.8740523385222234e+00 1.2530570351392452e+00 0 1 -1
399 1 8.2525481582297566e-01 3.4796551803028120e+00 1.0452539946382762e+00 1 -1 -1
472 1 2.5500022667255768e+00 4.1144011701979659e+00 1.1937493716055980e+00 0 1 2
364 1 3.2074279852156709e+00 3.3909867375667604e+00 1.5492265188845586e+00 -1 0 0
333 1 4.2063776055408209e+00 3.7436012461483292e+00 1.2983951160694676e+00 -1 1 1
223 1 6.0720407506223024e+00 3.9437056464141231e+00 1.5634726007362729e+00 0 0 1
277 1 6.8850289844945918e+00 3.5744109988378070e+00 1.1843729982426427e+00 2 0 0
487 1 8.0236797280148657e+00 4.0759691449476652e+00 1.1816920447826709e+00 -1 0 5
202 1 1.1425010515906946e+00 1.1629395296284512e-02 2.5086432758529211e+00 -1 -2 0
139 1 2.3147555111337756e+00 1.8665688332261610e-01 2.4220734387693037e+00 -5 0 1
218 1 3.5367098631556342e+00 6.2760250051756761e-01 2.4478818232869410e+00 1 0 -2
10 1 4.3729774450168737e+00 1.6632191047636544e-01 2.1079853667170236e+00 -2 -1 -2
64 1 5.7303792911825742e+00 2.9006680684615282e-01 1.9605629224377070e+00 -2 1 2
40 1 6.5824557178778531e-01 8.5028950299011019e-01 2.1496168105059708e+00 2 1 1
328 1 1.5589817713112594e-01 1.6225523918451032e+00 1.7310231111691350e+00 3 0 0
292 1 2.1314993621742819e+00 1.2260233186264009e+00 2.3652294967955245e+00 0 0 -1
245 1 4.6666032401598603e+00 1.5042368206958292e+00 1.9142905720694421e+00 -3 1 -1
148 1 6.7720428171922631e+00 8.7008110148972428e-01 2.0934267451930806e+00 0 0 1
435 1 7.7341388550057273e+00 9.1983544373491155e-01 1.8223856537522831e+00 -2 -1 1
301 1 2.9295611364078922e-01 2.4942786265027763e+00 2.2355337509297120e+00 -2 -3 -2
476 1 1.3648021789963285e+00 1.8605609454926342e+00 2.0851101905225424e+00 1 0 -1
310 1 2.6428836469132526e+00 2.1636738846129742e+00 1.7827293416008847e+00 3 2 0
137 1 3.6368685754799719e+00 1.7198335009724290e+00 2.1014306554853008e+00 1 -1 1
434 1 5.6400362255303138e+00 2.0264029757942144e+00 1.7648993119896872e+00 0 -1 0
184 1 7.6228520959849160e+00 2.1704001606029473e+00 2.4690779972373509e+00 0 1 -1
5 1 1.5547914352159820e+00 3.0246432147284117e+00 1.9341058666944422e+00 5 1 -2
41 1 3.5394530649909939e+00 2.8672493763709368e+00 2.3721754433370239e+00 0 0 0
410 1 5.2622202291807252e+00 3.3532222678989076e+00 2.0249715425869179e+00 2 1 1
418 1 6.2986243250817040e+00 2.9042203242504363e+00 2.3450580832445986e+00 -1 2 0
34 1 6.5845359986575269e-01 3.5330771386953552e+00 2.1708302646106170e+00 -2 3 1
67 1 2.2321109286615104e+00 3.8391986294826608e+00 2.3598318070524229e+00 1 -1 0
390 1 4.4001972293445766e+00 3.7784400898230768e+00 2.3530190506208175e+00 1 2 -1
125 1 6.8584035481270371e+00 3.7859398002695177e+00 2.2262509649550242e+00 -3 1 3
105 1 8.0142836210079444e+00 3.4253500628703644e+00 1.9822510084209746e+00 1 0 -2
274 1 4.5713678557713822e-01 5.4244335571632307e-01 3.0849174937154351e+00 1 -2 1
314 1 1.8447059547300777e+00 1.1692544876557610e-01 3.3199499683474132e+00 2 0 -1
408 1 3.1814603728989130e+00 7.4387930556111925e-02 3.3119410401147560e+00 -1 1 1
142 1 5.0629800765951494e+00 4.5529434814892644e-01 2.8994044435235393e+00 2 -1 -3
25 1 6.1307890615815195e+00 4.8707110399724851e-01 2.9156227033318936e+00 0 2 -4
458 1 7.5149810474983081e+00 4.9072663758191898e-01 2.7754564040841219e+00 2 -4 0
165 1 1.3117326379233891e+00 1.1343392736952256e+00 3.1076574691841947e+00 -2 2 2
421 1 2.7633861789985827e+00 9.5478806243591052e-01 3.1957876340691875e+00 -1 -3 1
151 1 4.7220243778881930e+00 1.4282004346636548e+00 3.2642378377455432e+00 0 0 -1
162 1 5.6468847674841811e+00 1.3364063405496600e+00 2.5903751818453160e+00 4 -4 -2
120 1 8.2129099591176686e+00 1.3575499019485984e+00 2.6634845511723606e+00 0 0 0
448 1 8.8805142887530297e-01 2.2694079305496020e+00 3.1897834611367313e+00 -1 1 3
50 1 2.9687835700409062e+00 1.9135157390691884e+00 2.8548074734572992e+00 -3 0 1
443 1 4.0462687470728396e+00 2.3330394967344139e+00 3.1667340148022216e+00 0 1 -2
482 1 4.9427462157614270e+00 2.1611442624383619e+00 2.6370759110090005e+00 0 3 3
407 1 5.7753726348779013e+00 2.4435329312939671e+00 3.1756094964019836e+00 0 1 -1
100 1 6.6610073695947598e+00 1.9476592422501362e+00 2.6046914024931409e+00 -2 -2 1
99 1 3.5098260053604374e-01 3.2489377905726768e+00 3.1253385231740438e+00 -1 1 -1
107 1 1.3942178307183000e+00 3.1914627339242005e+00 2.9813408440396350e+00 2 0 1
480 1 2.3066257454835091e+00 2.6794898513136354e+00 2.7495660819550110e+00 -1 -2 -1
115 1 3.1214377398204638e+00 2.9223083977660864e+00 3.3233156913824242e+00 1 2 1
278 1 5.0520729931158854e+00 3.1424127338010743e+00 3.1175324674801042e+00 0 0 -1
206 1 7.7081484276756580e+00 3.0580419350207482e+00 3.0362913717240096e+00 0 -1 -4
4 1 1.3000434256419220e+00 4.1733384323360649e+00 2.6659576195319934e+00 1 0 2
214 1 3.2669228431804429e+00 3.8002115979716740e+00 2.6408106015701289e+00 0 0 0
65 1 4.0280349657536760e+00 3.3861374196314542e+00 3.2331032594455227e+00 2 1 2
490 1 5.8571557116011554e+00 3.8735942685941813e+00 2.8613897619661586e+00 -1 -2 0
230 1 2.4828380364158602e+00 5.5335473677805791e-01 4.1950137944148906e+00 2 -1 3
234 1 4.2752320357614213e+00 1.4212800762204394e-01 3.7635975156407624e+00 -2 1 -4
92 1 5.6957646578006917e+00 2.5374658514218495e-02 3.8304068113906884e+00 0 -1 0
103 1 7.0230616578295741e+00 4.6755655210711161e-01 3.8662999072020967e+00 1 -2 1
129 1 8.1671299320274162e+00 5.7067862198193264e-01 4.0702212708530077e+00 -1 -2 0
483 1 3.2862260723228903e-01 1.4557716141563948e+00 3.6577409481728278e+00 -3 4 -1
110 1 1.5047240722693447e+00 1.0396158231062973e+00 4.0843832165787424e+00 -2 -1 0
126 1 3.7388270640303456e+00 1.1962750537841655e+00 3.4335639532998909e+00 3 0 0
276 1 5.6087889039130960e+00 1.1358153696317190e+00 3.7428282467743927e+00 0 2 1
294 1 6.5127919732673050e+00 1.4345197299837358e+00 3.4448769173070444e+00 -2 0 2
417 1 7.5734653423068021e+00 1.3756634588591667e+00 3.5078056411981438e+00 -1 1 0
102 1 1.1107713360470239e+00 2.0167473232388695e+00 4.1576658165713738e+00 -2 0 0
228 1 2.0072330566273600e+00 1.8105875233272237e+00 3.4619908126078429e+00 2 0 -1
2 1 3.2101113937010530e+00 2.0183489554560774e+00 3.8822820800419566e+00 0 1 -1
222 1 4.2730523271288350e+00 1.9092752363315002e+00 4.1553216684001049e+00 1 -1 0
332 1 6.5042309397343736e+00 2.2214607151080448e+00 4.1057034120156182e+00 0 1 3
275 1 7.5099659540449100e+00 2.2790896507455778e+00 4.1566328430638730e+00 -1 0 -1
243 1 8.2736142057938107e+00 2.3393256795577462e+00 3.4990413844829384e+00 0 0 -2
394 1 5.8512440497757878e-01 2.8807282965119669e+00 3.9612614891397042e+00 1 3 1
325 1 2.1875714466797338e+00 2.8726101452768167e+00 3.8147636089102748e+00 0 2 -1
468 1 5.6059790271973755e+00 2.9975764588671621e+00 3.9816014902843078e+00 0 1 0
113 1 6.5849924400139104e+00 3.1808065990344776e+00 3.4367361163256929e+00 0 0 1
47 1 1.0081753047752569e+00 3.9556172416934308e+00 3.8502376136806813e+00 1 -1 0
474 1 1.9694475511677239e+00 3.9381337754040748e+00 3.4201230948176762e+00 4 1 -1
343 1 3.0370114219017328e+00 3.9465351732349148e+00 3.7436387890882474e+00 0 -2 3
257 1 6.0639634839200358e+00 3.9545122043987475e+00 3.7922755780058259e+00 1 3 -3
422 1 7.3939236737263112e+00 3.9358351587357783e+00 3.4932390476416106e+00 -2 -1 -3
317 1 3.5159353631335000e+00 5.3479576975233323e-01 4.4869163379906354e+00 -1 -2 -4
322 1 5.5733359556605757e+00 4.8698103039818835e-01 4.7704783768556309e+00 1 6 -1
453 1 7.3567123647601029e+00 8.3432787155128474e-02 4.8780449077720851e+00 -2 3 2
82 1 5.8224871123849942e-01 1.1896491837492689e+00 4.7267276175254507e+00 3 0 -1
402 1 2.4848673528490579e+00 1.6438582837634208e+00 4.4663750233867230e+00 0 2 3
201 1 3.5370299676438193e+00 1.4874347892452509e+00 4.7752714735806165e+00 0 -2 -1
159 1 4.7745775925936407e+00 9.0511891230699659e-01 4.2787903105333260e+00 0 -2 2
239 1 6.3670232447984816e+00 1.2120460051587267e+00 4.4601763672019308e+00 0 1 -1
340 1 7.6240687426290750e+00 1.3432987598476136e+00 4.6741720105351368e+00 -2 1 1
246 1 6.4819140516389595e-02 2.1918155429312383e+00 4.6033031341679633e+00 0 2 1
268 1 5.2454607296226170e+00 2.0016193334579642e+00 4.2366338410742728e+00 -2 2 0
238 1 1.7670560071066166e+00 3.0774892421151585e+00 4.7759677543328642e+00 0 0 0
183 1 2.7500175098986750e+00 2.8066272725663279e+00 4.6976729622871014e+00 -2 0 0
393 1 3.6570205199594930e+00 3.1994600133365143e+00 4.2220986255821451e+00 1 2 -1
177 1 4.6077861627416805e+00 2.8922144055644265e+00 4.5492372075807843e+00 0 -1 0
97 1 2.5306051464072796e+00 3.9363146816844674e+00 4.9489842130852137e+00 2 0 1
16 1 5.1924745493168265e+00 3.7357318418579575e+00 4.8717896643693246e+00 0 -2 -1
15 1 6.1086100243278070e+00 4.1952083415168335e+00 4.9407045230806066e+00 -1 0 -4
467 1 6.6872865628091098e+00 3.3657369472951393e+00 4.6943068780100674e+00 1 2 2
404 1 8.0052336596808171e+00 3.5358005023997046e+00 4.5274309747477952e+00 2 2 -1
190 1 9.4380374464947103e-01 4.4583992222855645e-01 5.4653306453144710e+00 1 0 1
429 1 1.8525920421435695e+00 3.5762708549602490e-01 5.0946475568663319e+00 3 0 2
356 1 3.9097878727975877e+00 6.1716052733039095e-01 5.4734744838905147e+00 -3 1 -1
459 1 5.0297951477539122e+00 6.4682655744305417e-01 5.6718176557063691e+00 0 1 1
140 1 6.3845220800541655e+00 6.6200714540119532e-01 5.4418985717149972e+00 2 -1 -2
121 1 6.3608122327251349e-01 1.6422337064097718e+00 5.7379184381145940e+00 -2 -1 -1
76 1 2.6863089369401427e+00 9.2826845731889596e-01 5.1620994403726908e+00 -1 -1 -1
24 1 4.4731219011860990e+00 1.5605471103773427e+00 5.2523372789875760e+00 0 -1 -1
215 1 5.5638567276602870e+00 1.5540980050800413e+00 5.2788517723209116e+00 2 1 0
406 1 7.1965017439495353e+00 1.2927814031197866e+00 5.6667263284723859e+00 0 2 -2
495 1 8.1400977173034548e+00 9.1998286287268760e-01 5.5427200454151757e+00 6 1 0
256 1 1.5858394354874155e+00 1.8927406862702940e+00 5.2157829401895270e+00 4 0 1
348 1 2.8144079358075680e+00 2.0457885486401644e+00 5.4765038200952452e+00 1 -1 2
18 1 3.7959072614405218e+00 2.4151932066273840e+00 5.1090004037855792e+00 0 -2 -3
259 1 4.8058181463022738e+00 2.5068639859502841e+00 5.5173228168937900e+00 0 0 1
261 1 5.9067727879570278e+00 2.4818772803689844e+00 5.0470051254431221e+00 0 0 -3
433 1 6.6238775496086628e+00 2.4655070126810084e+00 5.8390299036823690e+00 -4 1 0
119 1 7.4961811313748150e+00 2.2560858298720374e+00 5.2761246161627531e+00 0 -2 0
181 1 8.7803165796510541e-01 2.5368621724963174e+00 5.1009676967579534e+00 3 -4 -2
392 1 1.3563447389359846e+00 3.2004762283973394e+00 5.8237816659365569e+00 0 1 -1
436 1 2.3946011665804514e+00 3.0278168308484168e+00 5.6997814720410966e+00 1 1 2
210 1 5.9632298308600022e+00 3.3253508577291475e+00 5.7908436280268685e+00 0 -1 -2
409 1 8.2954742717592467e+00 2.8784369153928258e+00 5.3508660402584347e+00 0 0 0
437 1 7.8285811502936531e-01 3.5972247646914322e+00 5.1173576054548029e+00 -1 2 1
114 1 3.5350435499222215e+00 3.3621891050940294e+00 5.4926280066777995e+00 0 -1 1
431 1 7.2810459589983303e+00 4.1806346853520422e+00 5.1699487852752508e+00 0 -1 2
296 1 2.7493301442805773e-01 9.8739001637521445e-02 6.5256735912844297e+00 2 0 -1
477 1 2.7650505314326872e+00 5.9323041848923519e-01 6.1880566096904213e+00 -1 0 -2
199 1 3.8449072993955937e+00 6.8021783868606100e-01 6.5252139926754094e+00 1 0 -1
31 1 6.8196091485194961e+00 6.5962784856610523e-01 6.6694400071986637e+00 0 -2 -1
149 1 7.6325509159351759e+00 1.3582393886225264e-01 5.8995743775761014e+00 0 1 -2
216 1 9.7752025904362638e-01 1.4078822836813889e+00 6.6728311339234487e+00 2 0 1
425 1 1.7005586383875275e+00 1.1280428057946255e+00 5.8993957526091192e+00 -2 5 2
224 1 2.8675797989920913e+00 1.6348520503423174e+00 6.4743030869420952e+00 1 0 0
352 1 3.7461129077349202e+00 1.6467836683144792e+00 5.9711819974315681e+00 0 2 1
289 1 5.0071286046398447e+00 1.3773263732616476e+00 6.4710057868740503e+00 2 -1 2
455 1 6.2266605172975309e+00 1.4566180649712972e+00 6.2025029141131824e+00 0 1 2
298 1 7.2166245583854813e+00 1.5995071342823830e+00 6.6916596114412981e+00 -2 2 -2
42 1 8.3616236989495309e+00 1.1193553859054726e+00 6.6834990220304640e+00 1 -1 -1
80 1 1.7994758316879240e+00 2.0602535563487749e+00 6.2756102858385763e+00 1 -1 -2
127 1 4.3098326176630284e+00 2.3959981453352577e+00 6.4129162374884245e+00 -3 2 -4
232 1 5.4258898148163945e+00 2.3715461809208245e+00 6.2879862147301759e+00 1 1 -4
368 1 8.2199446060636472e+00 2.1052670796140989e+00 6.3974575157449376e+00 -1 -1 -2
486 1 6.9787179588597281e-01 2.5321347977480562e+00 6.5634477651369929e+00 1 -2 1
209 1 1.7697882729109665e-01 3.3153947644324067e+00 6.2408024968147000e+00 -1 0 -2
152 1 3.1591516689848946e+00 2.6297173021869003e+00 6.2970081587154914e+00 -1 3 2
353 1 3.7775468094107074e+00 3.3545010039524996e+00 6.5652719772105916e+00 0 -2 1
361 1 7.1568303860427589e+00 3.3402954049017803e+00 6.0487812936573579e+00 1 1 0
391 1 1.8477885811255761e+00 3.9829271272845177e+00 6.5960694610186286e+00 2 0 -1
464 1 2.8125899145281190e+00 3.9218837233739201e+00 6.1411786897515759e+00 -2 2 1
497 1 4.5524588331963729e+00 3.4967999912980696e+00 5.9321819433594642e+00 1 -2 2
498 1 2.0830532473234906e+00 1.1220036849985102e-01 7.1674325217309276e+00 3 3 -1
264 1 3.1008573853993013e+00 7.6076625369238260e-01 7.2316131354301971e+00 1 1 2
265 1 4.6342157774659736e+00 7.4471207241976944e-01 7.1556952519725225e+00 0 -1 1
350 1 5.7838647346068255e+00 5.9645078928256690e-01 6.9763870948006925e+00 2 -2 0
144 1 1.9122165150526358e+00 1.1329756208528616e+00 6.9185463020768152e+00 0 1 1
17 1 3.7256587791934250e+00 1.6333740129131904e+00 7.1341698423474043e+00 0 0 0
441 1 3.6115685474483350e-01 1.9101453221098965e+00 7.5303824824165133e+00 0 1 2
266 1 1.4762191689510862e+00 2.4662450761248356e+00 7.5398542897976331e+00 -3 -2 -2
375 1 2.3309589830172550e+00 2.0436669163885055e+00 7.1892097709618481e+00 0 1 0
351 1 4.7143585284219309e+00 1.8434829864646978e+00 7.2780594229535307e+00 1 0 1
254 1 5.9170265466448875e+00 1.9140788620193201e+00 7.1554204752492074e+00 0 1 0
29 1 1.5191420610560982e-01 2.9876711650320327e+00 7.5404622831951533e+00 1 -2 0
198 1 1.9302038195524280e+00 2.9894398797282253e+00 6.7310853131736357e+00 2 -1 -2
197 1 3.3083005500744571e+00 2.6144599213348498e+00 7.4059907643060248e+00 1 0 2
192 1 4.3810729888763209e+00 2.8557380429470860e+00 7.4007735378272006e+00 1 0 1
220 1 5.1223945377780948e+00 3.3376038243952149e+00 6.7920010375935584e+00 0 0 1
432 1 6.2458841824934863e+00 2.9482647398415351e+00 6.8353911959966540e+00 0 2 -1
20 1 7.5153792083913968e+00 2.5459516140888447e+00 6.9548679851000408e+00 3 -1 -2
63 1 1.0659006163620912e+00 3.4796280956085210e+00 7.1592343773906313e+00 0 1 -2
446 1 7.1139268453604680e+00 4.0629892995134789e+00 7.0800362551664415e+00 1 -3 -2
172 1 8.3244437231535144e+00 4.0795393733923691e+00 7.1857426258997332e+00 2 0 -1
405 1 2.0158180111850474e-01 7.3000938410316307e-01 7.6191994505829879e+00 0 -3 0
323 1 1.4017230037752237e+00 4.6050949606146502e-01 7.9006469000953414e+00 2 1 -1
428 1 2.4287753885012338e+00 4.6438480937363963e-01 8.3560508824421493e+00 3 0 2
280 1 3.6502596381287908e+00 7.8205464112991063e-01 8.2256571665042131e+00 3 1 -1
54 1 5.2270258856938900e+00 5.3851997974995880e-01 8.1047016704593808e+00 -1 0 -5
397 1 7.4044521194737944e+00 1.4880482327788007e-02 8.2278445496777337e+00 1 0 2
279 1 1.2356833818326960e+00 1.5625251472088779e+00 7.9109615213928013e+00 0 4 -2
134 1 2.5628613498785486e+00 1.5781156241932268e+00 7.9994516338459301e+00 0 1 -1
236 1 4.5573192582583912e+00 1.4401963680745278e+00 8.1580516205465621e+00 0 3 -3
493 1 6.1321864263285528e+00 9.9745261592364498e-01 7.9044637123188437e+00 0 3 -3
346 1 7.4631508711766701e+00 8.7980227698742530e-01 7.6161632460447608e+00 2 -1 -1
295 1 3.6674081936683844e+00 2.3602153939048316e+00 8.3119852957626765e+00 0 1 -2
164 1 5.5460188609614756e+00 1.8259166833804881e+00 8.1712445391317772e+00 -2 -2 -1
354 1 6.6872220974400829e+00 2.0300640265600358e+00 7.8561422683464270e+00 1 2 0
449 1 7.9034553200360103e+00 1.8534144914629234e+00 8.0299472682703943e+00 -1 -3 0
185 1 9.5448193278219684e-01 3.3578879558028460e+00 8.1917731250955708e+00 1 1 -1
229 1 2.5099351180061946e+00 3.0097254013180406e+00 7.8296711975898541e+00 -2 2 -1
135 1 5.5895093348111047e+00 2.7786209311728598e+00 7.5930433616327404e+00 -1 0 -2
211 1 7.0529928021063730e+00 3.1919477500830000e+00 7.6370125321552074e+00 -2 2 1
81 1 1.8872269150105381e+00 3.9351057043865243e+00 7.6163648141042426e+00 0 -1 1
37 1 3.6614705509244851e+00 3.4915765263742262e+00 7.7267865376074960e+00 2 0 1
355 1 4.5831332879360058e+00 3.8667909487066860e+00 8.3349240075214972e+00 1 -2 0
141 1 5.4975686789962985e+00 3.7534665361901731e+00 7.8536976598839008e+00 1 3 1
122 1 7.2999342247943373e+00 3.9738648524411286e+00 8.3865006440763370e+00 0 -1 -2
327 1 3.2503689184711210e-01 4.6592524224991747e+00 8.2659471361477532e-01 0 -2 2
386 1 1.1858359917362140e+00 4.2742921253409367e+00 2.8183822072239956e-01 -1 -2 5
59 1 1.8702404230468521e+00 4.9717730076471947e+00 7.6874981917086671e-01 0 2 -3
57 1 2.8167286953460633e+00 4.2569068178507328e+00 1.1953882254793591e-01 1 -1 1
489 1 3.6302378764516323e+00 4.4521177967574310e+00 6.6729235313037527e-01 1 1 5
326 1 4.9856357064009993e+00 4.5330987087989216e+00 5.2454407858907726e-01 -1 2 2
359 1 5.9913033298564331e+00 4.3362327743167306e+00 3.7835915829420080e-01 2 -1 -1
349 1 7.2426723526689933e+00 4.7181533524380885e+00 7.2707643667494415e-01 0 1 -2
247 1 8.6433343008963215e-01 5.6823007167579762e+00 6.5224250416194052e-01 1 -3 2
365 1 3.8233209759419231e+00 5.6939269324333672e+00 5.9607489711922135e-01 -1 -1 0
382 1 5.1137068164970731e+00 5.5805604939667059e+00 1.8276059551769425e-01 -1 -2 1
130 1 8.2482820181805554e+00 5.5968590423898927e+00 4.4653409437071251e-01 -1 -1 2
471 1 1.7119665678072469e+00 5.8953695416344436e+00 4.5930053740843135e-02 -2 0 1
21 1 2.5641267140454049e+00 6.3080369711057624e+00 5.3936073769936865e-01 1 -2 0
499 1 4.7164689695839286e+00 6.6465500795405017e+00 1.6611623106065540e-01 -1 -1 1
253 1 5.9043290983731245e+00 6.1331552003521068e+00 7.5404520106110218e-01 3 -1 0
302 1 6.9564884663410282e+00 6.1640675729464434e+00 5.7033134187391044e-01 0 -1 -1
324 1 8.1992983060509594e+00 6.5972265856779417e+00 7.7494747996129210e-01 1 -3 2
154 1 1.8996589089571863e+00 7.1193783454022102e+00 5.1404963792269565e-01 -3 -1 -1
284 1 3.0007790559640597e+00 7.2198187648711993e+00 2.3642486802169203e-02 0 0 0
161 1 3.8133207311484072e+00 7.3201299304675667e+00 5.0202507839899535e-01 -2 -4 -2
112 1 5.6724794675417822e+00 7.1979165692397187e+00 7.3233205047939343e-01 -1 -3 -2
39 1 6.4178033104766934e+00 6.8891409921259603e+00 1.5315709015991064e-01 0 0 2
269 1 7.4906317471214443e+00 6.7375050108085421e+00 4.8287801879068511e-02 3 1 0
470 1 2.2822847309207428e-01 7.8917014242385868e+00 7.7675485207454809e-01 0 0 1
84 1 1.3672512040847244e+00 7.9379711016796204e+00 1.6230344562139010e-02 1 0 -3
381 1 2.6740213254054948e+00 8.0161072175846630e+00 5.8246256296805565e-01 -1 -1 1
416 1 3.6213693754100857e+00 8.3576521057616233e+00 6.2331560400527297e-01 2 2 -1
182 1 5.1660049409085866e+00 8.0423641799361949e+00 3.0675573970032322e-01 -2 0 -1
347 1 6.5429973279348026e+00 7.8912499362162034e+00 4.9818784876300565e-01 -1 1 -2
380 1 7.4990421428201417e+00 7.6756533739549013e+00 7.5184655726615468e-01 -3 0 0
19 1 1.4643514526638863e+00 4.2228380130315317e+00 1.3843336624933156e+00 0 3 -1
430 1 4.3057981012626918e+00 5.0291601875436083e+00 1.2152759600723888e+00 1 1 -2
212 1 5.0477378389079224e+00 4.2727344176247888e+00 1.5457805058503180e+00 -2 -1 2
479 1 7.9063585867776194e+00 4.9679041912501303e+00 1.6188677256489217e+00 1 3 -1
217 1 2.5218672599222897e-01 5.8414577361250837e+00 1.5087288813722908e+00 2 1 2
147 1 1.1545026869668784e+00 5.3345315151941692e+00 1.5114087897016817e+00 1 2 -1
13 1 2.8751716646412713e+00 5.2058560720828826e+00 1.0454367061984737e+00 -2 1 -1
170 1 5.1473087472466297e+00 5.7979187654554183e+00 1.4646868436401976e+00 1 2 0
204 1 6.2817592200581442e+00 5.1972845711964553e+00 8.9956483663207842e-01 -1 -1 -1
306 1 8.3865328816009488e-01 6.6369969836196416e+00 9.5403861420405511e-01 1 -1 3
414 1 1.6815920771923107e+00 6.1626367729687450e+00 1.1744973520180511e+00 0 2 0
79 1 3.3223472300560521e+00 6.2059256452802716e+00 1.3962300133956274e+00 0 0 0
116 1 7.6213827835593815e+00 5.9109006810695996e+00 1.2032264335528675e+00 -2 -1 3
231 1 2.7502476364406934e+00 7.3933926752228123e+00 1.4247539952768773e+00 3 -1 1
171 1 4.7071880050572981e+00 6.8064285791523735e+00 1.2807974821888473e+00 0 -2 1
273 1 7.0329000376929018e+00 6.8584131720717227e+00 1.6693583798609657e+00 -2 1 -1
260 1 8.0496857982994889e+00 7.4547112671714686e+00 1.6374112984134654e+00 3 -1 -2
43 1 1.0723712760276345e+00 8.0330657119523838e+00 1.4245919245059160e+00 -2 1 0
208 1 4.3910624755767662e+00 7.9590156044378260e+00 1.1638330407357564e+00 -2 -2 -1
226 1 5.5077902922207063e+00 8.0548948337249193e+00 1.2764179622713128e+00 0 0 2
370 1 6.4142184578798505e+00 7.6748965104033502e+00 1.5118878610721513e+00 1 1 1
85 1 4.9493682223295465e-01 4.4925581352788218e+00 1.7962077237252332e+00 2 0 0
213 1 2.1575495906041722e+00 4.9142597626853277e+00 1.8811900528366003e+00 0 3 0
299 1 3.3659976969419567e+00 4.3662606017243588e+00 1.7255850309353928e+00 3 -1 -2
249 1 4.7082373488231886e+00 4.9470082900514569e+00 2.3877787475724284e+00 0 0 1
258 1 5.7775488222451887e+00 4.8696821219175135e+00 2.2927307255193869e+00 -1 0 -1
388 1 6.8398302583746604e+00 4.7642336931962808e+00 1.8670074890749995e+00 1 -4 -3
91 1 7.7108281252011066e+00 4.3462922152329373e+00 2.4115614404022634e+00 2 -2 1
415 1 1.3354264256961873e-01 5.2683808667768846e+00 2.4940378524658144e+00 0 3 0
27 1 2.0564207334277329e+00 5.6999752852325889e+00 2.4901436865643838e+00 0 -2 -1
465 1 3.6077777180133985e+00 5.3106225786683270e+00 2.2984375934854913e+00 1 4 2
72 1 1.2115862831734683e+00 6.3271145377400213e+00 2.3088380865765914e+00 -1 -2 -1
58 1 2.4730215910430200e+00 6.4108021967014599e+00 1.8872921058165837e+00 2 -2 2
88 1 4.2468496124355051e+00 6.0000736368680991e+00 1.9689248186008255e+00 1 0 -1
6 1 5.2824888171486872e+00 6.1177755165021708e+00 2.4648490036232666e+00 0 -3 1
75 1 6.5540148621238368e+00 5.8837981825070473e+00 1.8049347572360399e+00 -3 0 4
22 1 7.8390642986715990e+00 6.6390504342942007e+00 2.2941937725662940e+00 0 1 0
128 1 5.0900588055916374e-01 6.9175984002222233e+00 1.8531623061329514e+00 -1 0 1
193 1 1.7616411201473283e+00 7.3777929885216569e+00 1.8819221158557660e+00 -2 0 0
389 1 3.8054852300865960e+00 7.1908689074118346e+00 1.6897648139570383e+00 1 -1 -1
241 1 3.3304867419800805e+00 6.7201719117843943e+00 2.3881392654044515e+00 0 1 0
14 1 5.6091745306383807e+00 6.8869789388403264e+00 1.7385824045568810e+00 0 -1 0
307 1 2.6028552221612093e+00 7.5983757451277896e+00 2.5134014261731092e+00 -1 1 0
401 1 3.3924470446908370e+00 8.2185878004411617e+00 1.7224400376656741e+00 -3 -2 2
248 1 4.8372436612670020e+00 7.6440956091999794e+00 2.0947200376368853e+00 2 -3 0
335 1 7.0823280457514208e+00 7.5905134700352388e+00 2.4694687185743178e+00 -1 0 0
281 1 7.4000691269637358e+00 8.3890728034516613e+00 1.8965880690997261e+00 -1 -1 0
33 1 2.6215904333511340e+00 4.6944190932346643e+00 2.8031190571610427e+00 1 1 1
221 1 3.7745777664099962e+00 4.5666560881588492e+00 3.0592511133135365e+00 0 -1 1
251 1 6.7715334943605834e+00 4.6401458096684580e+00 2.8510683358464712e+00 1 -2 -2
138 1 1.1922779528936784e+00 5.1973855619084013e+00 2.5689556972218521e+00 0 1 0
73 1 4.3331751132449305e+00 5.7904710852531096e+00 2.9618985356431899e+00 0 -2 2
237 1 6.2300560736724488e+00 5.7475979505901522e+00 2.7248929404434143e+00 3 0 0
77 1 7.3913602469000059e+00 5.6780386160747609e+00 2.6234944353061729e+00 -1 -1 3
339 1 2.9546703425028309e-01 6.2132195219954411e+00 2.7867557714215443e+00 0 0 2
69 1 1.3562182919504069e+00 6.0134582221288868e+00 3.2785943115156346e+00 0 -2 1
150 1 2.9668876558472732e+00 5.9472670316673391e+00 2.8936146954206632e+00 3 -2 -1
219 1 1.1608118939764323e+00 7.3228681938207032e+00 2.7126116817865631e+00 0 -3 -1
9 1 2.0627854045350777e+00 6.7454186793237145e+00 2.9360002216641958e+00 0 -2 -2
3 1 2.9445094497077151e+00 7.1384526732484925e+00 3.3587771406211751e+00 2 -1 -2
93 1 3.8294061315771235e+00 7.5378392781893275e+00 2.8380550678413003e+00 -1 2 0
68 1 4.5306997862577427e+00 6.7390306077267583e+00 2.7235217150491495e+00 1 1 3
35 1 5.4701910601523354e+00 6.9880160912814793e+00 3.3190052755169512e+00 0 0 -2
174 1 6.2873908725084267e+00 6.7805871501360224e+00 2.7219816088319484e+00 -1 0 2
369 1 1.7965435829527715e-01 8.0388194202620209e+00 2.5940286664394834e+00 -3 -2 1
469 1 4.9516921171039039e+00 7.8826764349301754e+00 3.0530014528334970e+00 0 -2 -1
270 1 5.8608285132223106e+00 7.6946678024150144e+00 2.6778659829007898e+00 0 -1 -2
196 1 7.6768577919393455e-01 4.8792664640921366e+00 3.5903070116215088e+00 3 -1 1
235 1 4.2285310787746502e+00 4.2638690385284841e+00 4.1560966227762339e+00 1 1 1
104 1 4.9767847616154004e+00 4.2048445393860883e+00 3.3962447019771562e+00 -1 -2 4
363 1 5.8883238331527643e+00 4.9482373301020921e+00 3.4294316309792547e+00 0 0 3
440 1 8.3695482926311691e+00 4.2129368246316421e+00 3.4018022112738615e+00 -1 2 1
271 1 1.8521235523587734e+00 5.0753345126075313e+00 3.3807703470063983e+00 0 2 1
385 1 3.2904276665596646e+00 5.1796485809465160e+00 3.7980367644038786e+00 -3 -1 0
367 1 4.4116421156217953e+00 5.2602223360914149e+00 3.9453911592241386e+00 1 1 0
8 1 5.3112651984610038e+00 5.7540585999932050e+00 3.4831459566385630e+00 3 1 0
445 1 6.8973470747727381e+00 5.7304789961834581e+00 3.7043310817118127e+00 -2 -1 2
95 1 8.3390772303693836e+00 5.5440620917552232e+00 3.7707087770664116e+00 -2 1 -3
227 1 2.6907357337748437e+00 5.9773212885609901e+00 3.9377639031978284e+00 -1 -2 0
45 1 3.9484717591019058e+00 6.4426795460159951e+00 3.6915638730283460e+00 0 1 -1
62 1 6.2921228111843934e+00 6.5338531152740655e+00 3.8634903896998787e+00 1 0 -3
309 1 7.4708902093515182e+00 6.5908652825436720e+00 3.6007172393059794e+00 0 -2 0
70 1 1.1631280783050528e-01 7.0230287218135894e+00 3.4578008409773004e+00 -1 -2 2
285 1 1.4425208756199777e+00 7.4192404188139784e+00 3.7903676842933867e+00 0 1 -1
387 1 2.1212416378368082e+00 6.7926691438538640e+00 4.1965603113934069e+00 1 -2 -1
484 1 4.6356188966878253e+00 7.3783035166039177e+00 4.0565969174155132e+00 0 -1 -1