LAMMPS data file via write_data, version 23 Jun 2022, timestep = 0

500 atoms
1 atom types

0 8.32159 xlo xhi
0 8.32159 ylo yhi
0 8.32159 zlo zhi

Masses

1 1

Atoms # atomic

19 1 1.790295456200139 0.8837949845487715 0.5247200228607113 0 0 1
291 1 0.8027316333914979 1.2950029795917748 1.1796946749021402 1 0 0
165 1 1.62894438364156 0.31319886378321377 1.5162961405505522 0 1 1
169 1 1.7778249322158404 1.7437046691819715 1.1592177111217767 -1 0 -1
407 1 0.7885443929327947 0.2954548332333821 0.6797483101439791 1 0 0
123 1 1.8063117204842802 1.9654923195273801 0.19244021411707468 1 0 1
47 1 2.719160390938929 2.7294265680915135 3.0194710440601433 -1 -1 0
233 1 3.561844420925813 1.4943461278346846 1.4197170141571682 0 1 1
359 1 3.524933116113532 0.11230979666064922 1.449425860432836 0 1 1
235 1 3.554084143385587 0.6675180589967727 0.5267444851733271 0 1 0
102 1 2.8277421197333816 1.370414081478724 0.2611666135245684 0 0 1
395 1 3.7564456422736576 1.8594822510360618 0.43655405423905125 1 0 0
482 1 2.581079239008307 1.0805550668623196 1.653665674796211 1 1 0
133 1 2.586742183141211 0.2505423192091046 0.935822764584161 0 0 1
475 1 0.8011753006288629 2.1339548871130827 1.878016614428283 1 -1 1
434 1 1.303206580651742 3.713857531821037 0.7395716315610412 1 0 0
16 1 0.9235410036239103 2.1916962023729956 0.6966310943490537 0 0 1
462 1 1.3515260639624194 2.9343639261441212 1.5499410405267662 0 0 0
330 1 0.3558706491502398 3.32132364729077 0.29012999954907875 1 -1 1
295 1 0.40741031139028255 4.139593107911816 1.1918856468083165 1 1 1
497 1 2.459456958455762 3.278450730483312 1.7848057115837062 0 1 0
57 1 4.081699666386907 3.8857952532944324 0.6226467060327917 -1 0 0
313 1 3.0055295981258325 4.152109747612742 1.4095958637937351 0 0 0
77 1 3.566761470603863 2.9002824378367222 0.7974850318543164 0 0 1
90 1 2.1745662233935446 2.9654592685468564 0.8462848922741865 0 0 0
456 1 2.521634784491562 2.238370297382104 1.5380658136804497 1 0 0
53 1 2.810660820235001 2.5176497406834866 0.17492002657210556 0 1 1
282 1 2.394640606259056 2.545277943411903 3.9762712388631374 0 0 1
336 1 0.335334778488155 0.7768517457329273 1.789831789089399 1 0 -1
75 1 2.0025428335438122 0.7853961177909163 4.062366682265231 1 0 0
273 1 1.6831675119944691 1.5417887981835294 2.208828680181626 0 0 0
37 1 0.6786553701255366 1.4400073464122136 2.913068210606938 1 -1 0
201 1 0.21279249891391674 0.37204567627296675 2.8966397191107323 0 1 1
236 1 1.0306263777165805 0.6640240367182139 3.62514962229397 1 1 0
272 1 1.1502649929602795 0.591388432818129 2.347051720677317 0 0 -1
248 1 1.8127080377075375 1.6213765890236833 3.3410640874079234 1 0 0
342 1 0.2465775288203746 2.797953545629302 1.227797819512103 1 0 1
185 1 2.5883355785686675 1.8449574716155082 2.57921336080926 0 1 -1
245 1 3.0474165458239666 0.47913283932547585 3.4750044460984735 0 1 1
307 1 3.3109292274701203 0.9947374310835154 2.5081079935989097 0 0 0
303 1 2.853364197839906 1.6048476126383067 3.7061818626873086 1 1 -1
209 1 2.2770562287403777 0.7380624221206071 2.548003891255813 0 0 0
321 1 3.7383942610581795 1.9735833531770486 2.805118899053911 0 0 0
20 1 3.9474365751786427 1.3421548661361489 3.5862371066137415 -1 1 0
94 1 1.6514083840777005 2.4582044890335 2.7663638775705985 0 0 0
86 1 0.8326317888127223 3.1149624682909964 2.5565029672177575 0 0 1
136 1 3.3141996378152645 2.648343475092022 2.0570035726150473 -1 0 0
454 1 0.6232040215513271 2.3348214037711776 3.430233645984531 1 1 0
93 1 1.5656706564279814 3.417605243683122 3.3421438201370233 0 0 1
469 1 0.30821131565604226 3.339588351248968 3.472449529064378 0 0 0
44 1 4.007711742078081 3.5860134161187283 1.7507760291541272 0 0 0
105 1 0.07927720924386356 3.826019303387302 2.126134324476072 1 0 0
6 1 0.07406564158934234 0.5646186530180909 4.135941495118322 0 0 0
72 1 1.4474335440501558 3.860215615196713 2.176415221269945 0 0 0
177 1 4.086342826556827 4.008297256068308 3.4970363117198815 -1 0 0
45 1 3.4811395295744725 3.839226754497868 2.576529853194619 0 -1 0
98 1 2.3769596121058134 3.7579555270795346 2.7118651691205176 0 0 0
144 1 0.92191267070672 1.2108631184511471 0.052783374169586506 0 0 0
221 1 3.5692426760508735 2.4130984391543984 3.7146165548635888 0 1 0
345 1 3.1594709156215997 3.4649169887939477 3.5079896675366515 1 0 0
356 1 2.9334362220710384 3.829279919815845 0.419160227529483 0 0 1
140 1 1.3916397320742748 2.648826379753737 4.10645126577211 0 0 0
81 1 0.9870251460335315 1.6326031022295853 4.054591891966865 0 0 0
364 1 0.8643550146927799 4.0951129234378305 2.9595286337527433 0 1 0
298 1 0.8589803271559106 0.738255430685653 4.954263919428021 1 0 0
179 1 0.29544973408571534 1.0191627103761027 5.872714058058703 0 0 0
50 1 0.7574640851627253 1.8185514673660965 5.238285200626171 0 -1 -1
360 1 1.7516821609049975 1.7367903261522417 4.744598948831446 0 0 0
470 1 3.6751331505307423 3.368223951867361 8.069792402781205 -1 1 0
317 1 3.9067842793723195 0.08999724081972617 4.3922442259633145 0 1 0
254 1 1.4150242709336498 1.1664277541155255 5.781351691386736 1 0 0
38 1 3.518909925678479 2.4493094875026324 7.638674455055734 0 0 0
252 1 2.2187148941704473 0.5383041787855087 5.239822993842494 0 1 0
95 1 3.0170217488593134 0.7750127272222397 6.042397597271735 0 0 0
24 1 3.6742927738459086 1.5182309364197326 5.674903432156986 0 -1 -1
366 1 3.1242168616975623 0.905392703982071 4.792884909282441 0 1 0
29 1 2.4252783397948696 1.5595953099378548 5.648825553519182 0 1 0
439 1 3.800277559979566 0.33952134869707856 5.386067999566844 0 0 1
385 1 0.007775813475640826 0.9956944716452466 7.117198438898714 1 1 0
302 1 1.5676700186200903 2.2704291570232322 5.845916167818687 0 0 -1
223 1 1.195953038839092 3.0507502414294896 5.201226373385945 0 0 0
3 1 0.3042725189272149 3.9599602245293766 4.7818355867967 0 -1 0
112 1 0.4376971981529586 3.7149504790807653 6.233091186369124 0 0 1
493 1 0.14898316296468705 2.795019549292793 4.512741575969596 1 0 1
227 1 1.7588325756701289 3.447483679994992 5.998362822425402 0 0 0
448 1 0.22869585053879812 2.901773259849395 5.515510906957993 1 1 1
376 1 4.027917367668119 1.9998979987029077 6.439314785580927 -1 0 0
393 1 2.0328343087657346 3.596774601823058 4.901283411424193 1 1 -1
491 1 2.2497839643699065 2.2309590152245242 7.4942862089545335 1 0 0
202 1 2.9769823737855363 1.9579681396374413 4.717190425057829 0 1 0
211 1 2.8678684236482033 3.7408775105115435 5.640941730712084 0 0 0
145 1 2.289658267581564 2.6063141610695006 5.143335623495891 0 0 0
361 1 3.4697369096613815 2.5864330989054864 5.718333958926571 0 0 0
31 1 3.0712148118112546 3.1409979236556866 4.617601574087894 0 0 0
153 1 4.003246184801687 3.7475307893098773 5.221606072740274 0 0 0
352 1 2.4678472566825556 0.2606922958205937 8.219797322879232 1 1 0
247 1 2.1254560506850826 4.0294476280278335 8.164246292115699 0 0 0
399 1 0.9250369252937803 1.7749894778964896 6.50914296380946 1 1 -1
251 1 1.1374422935150896 0.9004413974666414 7.35422515660803 0 1 -1
68 1 2.0818698368265 1.147171201624071 7.810346390849601 0 1 0
171 1 0.40251304347285416 0.25989015146829636 7.979707377184091 0 1 -1
384 1 0.49095627163576117 0.23617313316106905 6.560945246248545 1 0 1
260 1 1.3876674854454132 0.18076257671507842 8.19771479613925 0 1 0
80 1 1.1851107560635816 1.8797998237540348 7.587974355856599 0 0 0
180 1 1.846066213197814 0.023563014477050663 7.315564561756517 0 1 -1
230 1 1.100467606843706 3.7234044431658253 4.239859591242028 0 0 0
219 1 2.4475269527333086 3.816489455826512 6.6146156554755615 0 0 0
13 1 1.9400043937654652 1.5761601371002238 6.7508050863924245 -1 0 -1
496 1 3.332033908983945 1.4852480611900094 7.689489420430092 1 1 0
189 1 3.3661776473630582 4.158113871701373 4.336081905199366 0 0 0
323 1 2.68911746091498 0.7237286159050167 7.113060374284255 1 1 0
312 1 3.4585776644106496 0.5070520559423707 7.847561860626348 0 0 -1
415 1 2.976183888293688 1.7037800029541332 6.72175938751496 1 0 -1
138 1 4.021242511636609 0.7789291258764612 6.759607945979741 0 1 -1
66 1 0.8420697171774298 2.6276400062079137 8.087731333893963 0 0 1
222 1 1.0590616029242885 3.8482714063168033 7.843741413823076 0 1 -1
348 1 0.8097288448261084 2.827875222743117 6.482050705061513 0 0 0
116 1 0.178136422354925 3.515593315116687 7.315814372712831 1 -1 0
218 1 1.6135104649824943 3.2425198134759334 7.127894231028663 -1 1 0
299 1 0.3100410708592788 2.282460836788198 7.160130952111537 1 0 0
213 1 1.6957214413944492 2.9580660700535923 8.256996302081172 0 2 -1
200 1 1.9489451181820685 0.020224830688493557 6.316641160041582 -1 1 1
191 1 3.5176937894389275 3.0258504067350396 6.657137610410535 -1 1 0
498 1 2.3679831393219435 2.681885284938315 6.621271649900363 0 0 -1
383 1 2.653492806776032 3.221063740205207 7.41402924644631 1 0 0
394 1 3.61861565934214 3.9430121274764316 6.891559129952415 0 1 -1
97 1 4.142693605273673 3.2154743243275217 4.293012250368279 0 0 0
297 1 0.018998178388484277 1.6328570047303992 7.886475873817051 1 1 -1
22 1 0.7225728020973713 5.52597862570096 0.8949232930109854 0 0 -1
397 1 0.15290439148807422 4.352944353041475 0.15595680300190748 1 0 1
413 1 1.8223076227913173 5.630008324578175 0.7710778162516684 1 1 0
444 1 1.271379954784583 5.802112445523662 1.6709975935328574 1 -1 -1
286 1 0.3864024800086119 6.012339593209309 0.025941949238625313 0 -1 1
160 1 3.2929520129316714 7.874866878869503 3.8566072448911966 0 0 0
388 1 1.907199238665798 4.271805567691455 1.194535955801952 0 0 1
76 1 1.3282429920225545 4.612692379493754 0.31292622755547617 1 -1 0
139 1 3.7163375564389214 8.222059500047676 2.8914346951298135 0 0 0
487 1 2.668702059844227 5.544183299519596 1.3488825348165532 1 1 0
243 1 3.2587386301903254 4.9051664745244725 0.7976738518167994 0 0 0
443 1 3.105080102911783 5.959404679086438 0.5451668572948231 0 1 0
478 1 3.3883132358066717 6.833934552333729 3.9898038816943746 0 0 0
197 1 2.3285342268965623 5.02712951837394 0.1467848432411064 1 0 0
52 1 1.4743736636877787 6.729077343956222 0.3237011649896956 0 -1 0
380 1 0.6824982263597471 7.591913947810999 1.1929756781776406 0 1 0
73 1 1.524740920173819 6.933730019474509 1.4360861869621484 -1 -1 0
412 1 1.7553371073649813 7.8901449650676785 0.7434555665371657 1 0 0
464 1 0.5312833248435341 8.065175243044079 2.101218863953632 0 -1 0
479 1 1.5783151315694879 7.799831362517458 2.1056935433795028 1 0 0
377 1 0.6557171854237628 6.866995950232492 1.9999767993614332 1 0 0
369 1 0.3589888361609072 6.569288441056965 1.0515144128216671 0 0 1
357 1 3.499843671523721 6.911704994782501 0.518660304880782 1 -1 0
284 1 2.654585365796802 7.5344903885314265 1.311561795477509 0 0 1
301 1 3.2298048325434285 6.397421968108625 1.480288735101945 1 -1 0
207 1 2.483848606771288 6.700958036718877 0.8298668635494213 0 -1 1
125 1 3.7835073732868034 7.483365688616095 1.4159015203815462 0 0 0
62 1 3.448086787904688 8.02923977779227 0.4805365420231247 0 -1 1
2 1 2.560060090790515 7.557959622372691 0.15581751152173254 0 1 0
79 1 2.212149283449693 8.12733683164857 4.014997721373708 0 0 1
234 1 2.0124964270095074 4.975113268807963 2.045060698999635 0 1 1
35 1 2.6366960090721645 8.21792253713459 2.0940093702380884 0 -1 0
488 1 0.8624384961612961 4.710180535034449 2.1035672301678683 0 0 0
368 1 1.1392993121470223 5.15250950414924 3.6813373123218973 -1 0 -1
405 1 1.3666404773231835 5.480913222096417 2.600916934451315 1 0 0
261 1 1.8851707959973807 4.573392747391227 3.015465648136209 0 0 0
340 1 0.15648940514540155 5.520278057387931 4.034120179997884 1 -1 0
490 1 0.2933165784893938 5.667446700091778 2.4386599638582886 1 0 1
425 1 2.059434753519558 6.271028827246619 2.3010294253239527 1 0 0
104 1 2.9042758122130943 4.7227470684719846 2.4227876818148837 0 0 0
172 1 2.1910458323344373 5.456795659219726 3.1185532869599855 1 0 0
339 1 2.935581550659392 5.781262403074533 2.4041579374671267 1 -1 0
242 1 3.728089317971188 4.9854474914502545 3.9420613098250255 0 0 0
338 1 2.010135254968469 4.407756379393611 4.041929145690407 0 0 0
132 1 2.8384302930876837 4.519417425613238 3.417841817797711 0 0 0
316 1 3.1948956390262704 5.830821538066985 3.4394802463021557 1 -1 0
404 1 0.6082677665791855 6.909606646237074 3.7555477852495347 1 0 -1
88 1 3.859327689043589 4.6819600311278995 1.6976420002432642 -1 -1 0
70 1 1.9822450891875165 6.5453411189942186 3.9031688942467513 0 0 0
449 1 0.8874713525082808 6.433725935001176 2.862100817498605 1 0 0
33 1 0.5767948303835824 7.49830296788408 2.948461918746627 0 -1 1
21 1 1.6202072290286302 7.089356622691757 3.076443037639627 0 0 1
84 1 0.5831383603768949 7.913338017085864 3.9940568015879427 0 -1 0
420 1 1.4821919410724962 8.254167760234301 3.0633046035676186 1 0 0
418 1 3.684344619080207 6.455046470167871 2.8074137188350186 0 -1 0
168 1 3.2573838489950653 7.275345865515295 2.2924077337971127 0 0 -1
265 1 2.681433888178686 6.623185508410506 3.1337859179966614 0 -1 1
477 1 3.7860674870992836 5.06612668031307 2.79709203119544 0 0 0
7 1 2.463505413298612 7.662688470639591 2.926321550750144 0 -1 0
163 1 0.12351883928415473 4.383725858322141 3.7987894840184984 0 1 -1
157 1 0.7400912409193536 7.608886377173363 0.02794285322199816 1 -1 0
208 1 0.04814163458542641 5.142834201501061 1.6203977966950682 0 -1 0
365 1 3.947611468325538 5.803485264136559 1.95663057870517 0 -1 1
173 1 1.7755667058242808 5.475682337446439 5.149009180513853 0 0 -1
238 1 0.430645026413827 5.434065986536073 5.1211671013445486 0 0 0
468 1 1.036110314486191 4.765485647809334 4.830881346738467 1 -1 0
484 1 1.2297387167240157 5.970113881201309 4.386087211196223 1 0 0
118 1 1.0510057842538625 5.247609825210382 6.0785727315713425 0 -1 -1
499 1 2.2471858174024817 4.680679452973114 5.978313352477992 0 0 0
341 1 1.9189782961705473 5.498926808091656 6.450702034456817 1 0 0
256 1 0.14280116687681554 5.8442673232947975 6.181141387405751 0 0 0
181 1 3.2138390049934733 7.78097842547396 7.577227972799971 0 0 0
126 1 2.486420890488817 4.6211191470108215 4.919376374299642 0 0 0
130 1 3.571425126299599 4.851325179447894 5.26989256806143 0 0 0
382 1 2.73082882657053 5.640629775569664 5.5571308350135356 0 0 0
459 1 3.425980746834387 5.676022880883283 4.710045916235901 0 -1 0
262 1 2.3016649047233186 5.625632592928095 4.29363170380181 0 0 0
306 1 1.4008781996719373 8.211008527898645 4.7894281933246825 1 0 0
325 1 3.0795363061588312 6.760181208453426 7.88779102949178 1 -1 -1
414 1 3.3357942427939915 8.144736955027467 6.417622570314943 0 0 0
15 1 1.8000039111665587 6.507016350870593 5.00269484892842 0 0 -1
217 1 0.773718221573576 7.13874665554177 5.080024307765473 0 0 0
210 1 1.0098692825411315 6.426078316691139 5.800329663877798 0 0 0
452 1 0.1718195315799637 7.688025303244022 6.126621815660741 0 -1 0
149 1 1.9510249647520395 7.577914421380679 5.301223809523696 0 -1 0
331 1 0.25924178574696827 4.648684897094182 5.688466899942432 0 0 1
315 1 1.6604377262889731 7.333650642375915 7.730403061823885 1 -1 -1
423 1 4.136422537152372 7.180661364602713 7.47930749135078 1 0 -1
435 1 2.9364728591338385 8.125800568391218 4.9359695352542055 0 0 0
69 1 3.3760628663421057 7.019505119336211 6.555370388632169 1 -1 0
184 1 2.7805441644728286 6.424118645461198 4.904229851403961 1 0 0
196 1 2.1908731575498335 6.688632236768626 5.96417798838966 0 0 0
318 1 3.5238489409777554 6.420505686277856 5.71204548775861 1 -1 -1
271 1 3.730098912832661 7.580714475634625 5.211281137321749 0 -1 -1
398 1 2.873924163979695 7.384857755987275 5.668791609509905 1 0 -1
111 1 2.384922704627756 6.103529892295187 7.851606529065447 1 0 -1
353 1 2.39483632433632 7.46104506105229 6.677821839367626 0 0 0
183 1 2.627336097279017 7.3078832205274 4.428083251868781 1 0 0
89 1 0.39631583418907285 8.119264282168354 4.923235836598983 0 -1 0
386 1 1.3444862035468588 5.812079187345922 8.00002664140665 0 0 -1
27 1 1.1062174658078812 8.171702229446208 5.778457113273296 1 -1 0
152 1 0.9901104501232685 5.940345880171731 6.9705776137412565 0 1 0
370 1 0.3348506439596207 4.897292908664267 6.8004967439357245 0 -1 0
114 1 0.8848437032442719 4.910115398635512 7.6844243304388655 1 0 0
122 1 2.0014622572024585 4.901693415205192 7.463482687962634 0 0 0
427 1 1.3070643883915596 4.242576244141721 6.78572662740792 0 0 -1
49 1 3.6478543377022503 5.459985342888037 6.28359919187278 0 0 0
131 1 2.7744433063773593 5.97918827027273 6.720702525458289 0 0 0
215 1 3.0723942699674955 4.287019085273675 7.684049951333083 0 -1 0
11 1 3.707446776153103 6.066162341843288 7.158263455846875 1 0 0
58 1 2.886820916071898 4.843528391797185 6.757539850593223 0 -1 -1
63 1 3.1399126000144038 5.438972547944638 7.814148802978698 0 -1 0
142 1 1.4783643917021814 7.381411444546918 4.160957659472391 1 -1 0
346 1 3.8759429752592274 4.671163639531023 8.245874433250501 0 0 0
246 1 1.2039598474173623 7.283782584315751 6.421398964339363 0 0 1
472 1 0.4097749135311679 6.702319246214131 6.6110782063941125 0 0 0
28 1 1.833071098675091 6.546916257454506 7.047280531725492 0 0 -1
30 1 0.6089536022722464 7.834912717524469 7.234577805650304 0 -1 -1
344 1 0.8608950205745332 6.795828353650342 7.569624384761789 0 -1 0
391 1 4.001022609034284 4.463224731455095 6.080264617820891 1 0 0
241 1 3.937923946794749 4.889912495351775 7.177184255288603 -1 0 -1
296 1 0.14548237689920523 6.3661419517318345 4.62773997599302 1 -1 -1
41 1 1.2563857864605585 4.239460942716257 5.6335224169718785 0 0 0
269 1 5.2877141649168 1.8455527501481244 0.8754050483497821 1 -1 0
300 1 5.344931546594275 0.7425390750376258 2.4836982789142463 0 0 0
264 1 4.876609159725807 0.9786068706458931 1.3807626697349367 -1 1 0
55 1 6.730748602097951 2.83944475472583 3.4243751417343793 0 -1 0
8 1 5.367623278651614 0.4870204285150544 0.42683938360066115 0 0 0
39 1 4.477953502936867 1.0940819025620085 0.29850239845916515 0 0 0
326 1 4.45656947826688 0.11285472229921273 0.8502614975877897 1 0 0
421 1 6.2970514291082 1.8999687067663278 0.6271753215885082 -1 1 0
107 1 5.910606427071404 1.035418188193764 1.2770375602010529 0 0 0
250 1 5.462922388584196 2.005901702599223 1.9889637556693178 -1 1 0
458 1 6.362779043041595 0.7610460635245411 0.2560446478193003 0 1 1
34 1 7.036420160634677 0.7320692166930656 1.0300774531666421 0 0 0
492 1 8.154336784982108 1.825835221344168 1.5896044547399102 0 0 0
78 1 7.529425451368847 3.2410417258737914 2.454592279395419 -1 0 1
372 1 7.279227247554458 1.533223690966939 0.3493064651242422 0 0 1
268 1 8.146863475684992 1.137035144495034 0.8300877610295093 -1 0 0
156 1 6.912171117160458 1.5391172039477445 1.9284308496878635 0 0 0
115 1 7.6230201325715035 0.6258949522742443 1.9866800761981736 -1 0 0
187 1 6.268535669290685 3.5698573872408654 2.8052533151325623 0 1 0
483 1 4.264744381443399 0.33253282877172885 2.0668331119720147 0 1 0
96 1 4.954362698390455 2.9473211335963145 1.1549998696530723 -1 0 0
154 1 6.228427522242679 2.5623730010809953 1.5459724099452605 0 1 0
36 1 4.96154787012399 4.035819330487281 1.2477198224427806 0 0 0
258 1 4.595830121917333 3.148380784919523 0.1738890017965475 0 0 0
446 1 8.030901022422468 2.2848206177261643 0.4939472132296631 0 1 1
263 1 5.547313950261118 2.6234038185734145 0.1801931852352372 -1 0 1
373 1 5.9551026589419145 3.501038596158646 0.7979738552878243 0 1 1
194 1 5.12844178713323 3.9998692634735766 0.1746647326304939 -1 0 0
463 1 8.25389600799664 2.525832523661093 2.3890709919687705 0 0 1
134 1 7.204275308438011 3.0811496419111606 0.3051379693347426 0 1 0
85 1 7.703491943212094 3.915617818345508 0.6544210276738878 -1 0 1
314 1 7.399435121763957 2.426735218158485 1.1907189391926936 0 0 0
229 1 7.0993836727355335 3.5163828699621256 1.5031120411595649 0 0 1
426 1 6.560222629537933 3.966835328274586 3.762698191031197 0 1 0
226 1 5.141673795526684 0.8389617458116427 3.8594428991544163 0 1 0
32 1 5.892814687656343 1.5943581416680068 2.9220107275676037 0 0 0
83 1 5.69975671820205 0.08915213598853514 3.2885340846013853 -1 1 1
358 1 4.62826356453391 0.35185036714818624 3.043275139124892 0 0 1
343 1 4.802036599272234 1.8008772187889275 3.2365629329037717 0 0 1
170 1 4.627479064433498 1.4948471402885777 2.305665341154626 0 0 0
363 1 6.919063671665803 2.4386795520746296 2.4476311048344788 0 -1 1
12 1 6.409411044458293 0.784742961903786 3.567399582114105 -2 0 0
350 1 6.398105620678772 0.7068841387337882 2.323143233734148 0 0 1
59 1 7.944244094549866 1.4434362561137395 2.488505751201578 0 0 0
476 1 7.4756371669268 0.43336398835457063 3.1101673559383167 0 0 0
206 1 7.010958000808805 1.5470788268328777 2.965276972537349 0 1 0
10 1 8.044156740977993 1.4044663877902224 3.485167833153514 -1 0 0
190 1 5.562319118518708 1.929946098278761 3.9807118149797107 -1 1 0
239 1 6.342493931930855 4.0713295099627445 1.868183283121357 0 0 1
220 1 5.585993404811204 2.654113388179288 3.0590090731629322 0 0 0
494 1 4.804646564342589 2.7871609579401655 3.7355718582853834 0 0 0
329 1 5.203932674078214 3.3272080009864062 2.1862990737790433 1 0 1
288 1 5.03311749478608 3.645377496092996 3.247336459997799 0 0 0
164 1 7.744081441710711 2.640092335743493 3.70476147813601 -1 1 -1
267 1 7.590477446693936 3.6535077170298096 3.5349826445450803 0 0 0
175 1 4.28752425222706 2.2811831344591886 1.6863756955586338 0 0 0
460 1 5.830984354191006 3.2658577268324027 4.1060070492852 0 0 0
327 1 6.590256962367297 4.139534697263602 0.46774968553493507 0 0 1
186 1 4.175968445547243 2.9424974320838113 2.995442601127172 0 1 0
347 1 5.456158303953027 0.8177149488137893 5.095739333460848 1 0 0
158 1 5.551659406522078 1.823318342031764 5.4570489972587355 0 1 -1
64 1 6.081128586906676 1.2567811945851066 6.0855073668492246 -1 0 0
290 1 4.6636072252648235 0.8263993068438918 5.854055549996191 0 0 0
162 1 4.543688698246923 1.9776767833169335 5.490741746990412 0 1 -1
255 1 5.006491495225699 1.5540608196495933 6.390317445198295 0 1 0
109 1 5.894623458476596 0.15482432011050393 4.338427245276647 0 1 0
280 1 5.90126257994832 0.18398237713727714 5.798327114770271 0 0 -1
381 1 4.4240411595760465 0.956991008504403 4.824750031843076 0 1 0
319 1 6.5067230773759555 1.1513569870410905 5.076950422011467 1 -1 0
428 1 7.192191410098922 1.6736351133601781 6.078791155013791 0 1 -1
442 1 7.7482553206542395 0.9125270007307592 5.0898319255500395 0 1 0
410 1 6.9671623810428525 0.3297470787804928 5.583653719544031 0 0 0
283 1 5.706104563960574 4.079629757058049 7.58241325141599 0 0 0
60 1 4.218652202881568 2.2182892484033334 4.568229137193421 0 0 0
409 1 7.508336749605748 2.122054083355504 4.8645240674781896 0 0 0
480 1 5.17492081144204 2.5255655898892138 4.802495193857679 0 0 0
433 1 4.5673256924175565 3.031227233743726 5.611775466608785 -1 0 0
199 1 5.72239392846008 3.3538749033879514 5.491080051272175 -1 0 0
192 1 4.976826739088145 3.7841365119811416 4.60018030784341 0 -1 -1
278 1 5.6702555527641145 2.5004274006282547 6.252982156670468 0 -1 -1
389 1 8.317495725473592 1.63432710498691 4.5229386890776855 0 1 -1
198 1 6.371214383512307 2.3701711861211767 5.3343819859896575 -1 1 0
174 1 6.736233351493672 3.01858596012252 4.692877198027917 -1 0 0
362 1 7.5710732437599475 3.5866902644627543 4.5572833195711 -1 0 0
349 1 6.7406325220231755 3.6852721354781934 5.698219531424109 0 0 0
450 1 7.412314578324407 2.848478442040666 5.62258562653205 -1 0 0
257 1 7.949105366424341 3.9168044855957174 5.639345124008045 -1 0 0
161 1 8.155519252120142 2.116024347896017 6.2307561050447005 0 1 -1
277 1 4.767352855868959 0.7788240349027116 7.605151986132264 1 1 0
371 1 5.7920540183795195 0.2907336377598027 7.7623437427553545 0 0 0
310 1 5.737780161075127 1.2324585011177414 7.030863405105701 0 0 -1
135 1 5.511425930165906 1.3578607430464646 8.031271549455546 -1 1 -2
216 1 4.505207804240977 4.007536672036641 7.485493920139436 0 0 0
40 1 5.139704598522462 0.12361975066987815 6.660372009346639 0 0 -1
281 1 7.808546745184831 0.19185260435534565 6.079927649176497 0 1 -1
275 1 6.2714423811398525 0.20795413849947084 6.7853727432800195 0 0 -1
396 1 6.571054730188392 1.686736982625503 7.0487509442878356 0 0 -1
474 1 7.554169669684365 1.8918292378672577 7.095122527052079 -1 1 0
188 1 7.1771864303920605 0.8681952750412055 6.675128225429834 0 1 0
495 1 6.743152222295288 0.8149744556147894 7.642284035662242 0 0 1
279 1 7.803352660397998 0.6513320507448408 8.262218800704733 -1 1 -1
108 1 4.28898474065207 1.634607066067983 7.391103483206761 0 0 -1
401 1 5.737413000916376 3.6999656284961318 6.54108024143218 1 1 0
61 1 4.598051423809581 3.539304539020844 6.507247573508096 0 0 0
337 1 4.382680097120093 2.9067275447514005 7.2959290720678 0 0 0
166 1 5.333291587473196 2.214539032276812 7.298644852896011 0 1 -2
82 1 5.3416089630543055 3.177397364252882 7.535985960832093 -1 0 0
322 1 6.230625756562747 2.7546800263764397 7.176189448102505 0 0 0
65 1 6.269285626175849 3.3342462774014066 8.133879946123598 -1 -1 -1
51 1 6.7742850458937705 3.8755664814820188 6.807301706980994 0 0 1
320 1 6.73073653090481 2.6245971570975746 6.337069488718087 0 0 0
225 1 6.778272323257396 2.3366740804586135 8.025298471365073 0 1 -1
167 1 7.895279577803009 3.1978122642552953 6.515075961585871 -2 0 1
489 1 7.256053696561672 0.8769170128537637 4.1691588537795665 0 1 0
355 1 7.605954357662928 3.787411494344314 7.973640483423383 0 0 0
333 1 7.9408230863083995 2.7656051622486744 7.939479299271357 -1 1 0
305 1 7.216062596550638 3.0369017609323845 7.323487337123763 0 0 0
18 1 6.568949729296216 1.9866543650066373 4.281823535017045 -1 0 0
308 1 4.917542812235499 0.017817599121970673 5.334879438914182 1 1 0
430 1 4.603681442751147 2.13379494546973 8.321561966281827 0 1 0
294 1 5.203183385854098 4.788544420426802 1.8012705388803534 0 -1 -1
403 1 4.298832407638239 5.216514928106851 0.9199432153631297 0 0 0
159 1 5.069964728135545 5.7866562811537765 1.452306931236198 -1 0 0
228 1 5.72155303033009 4.5882911150426064 0.8217532699568544 -1 0 0
106 1 4.356035453772542 6.675604844926292 1.0149058268582727 0 -1 0
121 1 6.010259432526674 5.6013952543185885 0.8381950539829423 -1 -1 1
375 1 7.013074375448942 8.103327306110192 3.8753168441241437 0 0 0
195 1 6.2624903327302555 5.212014535842279 1.9833002992060123 -1 0 0
42 1 7.176167946610796 7.250668959817719 3.2820187812626704 -1 -1 0
324 1 6.800755490368363 4.850644030129135 1.166717442187846 0 0 0
100 1 7.1349501591855224 5.738800839688437 0.9450377765189966 0 0 1
101 1 8.104954201792328 5.2624997070549195 0.58477533208082 -1 0 1
378 1 7.643869632188364 4.354029995241418 1.605670328964509 -1 0 0
311 1 7.266473128719006 5.230878250268925 2.083088548959763 0 -1 0
150 1 6.370992708154029 5.141218072083043 4.157754249729679 -1 1 0
99 1 5.66673180046316 7.107141129749296 1.7730069610855266 0 0 0
453 1 4.860574986359525 7.858361542188235 1.5977314166725725 -1 0 1
249 1 5.244142770921794 7.68585903313334 0.5585768321310235 0 0 1
74 1 5.718549115474956 6.535629291167573 0.9114359472686703 -1 0 0
455 1 4.773214743736295 6.750832550656521 1.9816534021197856 0 1 0
424 1 8.150843924390026 8.316336995490241 1.2754146890676497 0 0 1
113 1 6.267944546978877 8.022999574461902 0.12279539661722502 0 0 1
67 1 8.130755745379538 6.800334666589665 2.6526202292781966 -1 0 -1
54 1 6.427115970094061 7.424823012914608 0.9969423686791726 0 -1 0
253 1 4.290404757445509 7.277014512690291 3.505145209521822 0 0 0
436 1 7.633999644616125 6.169729362271913 1.7711320938690172 -1 0 0
411 1 6.560189261512996 6.496939292383208 1.575478903916064 0 0 0
204 1 7.424670873757235 6.892557646860416 1.1231495408942846 -1 -1 0
1 1 8.244826913810236 7.2214943780815375 0.4363520156199582 -1 -1 1
232 1 8.168441391754325 7.347832874943215 1.6678511231836142 -1 -1 0
119 1 6.923061465157888 7.21026927788645 0.12361687906880303 0 -1 0
23 1 7.14006487609938 8.072574965727092 0.7921129572341357 -1 -1 1
481 1 7.695253799378259 6.097409281121428 0.013359656521081216 1 0 1
120 1 5.493379624056706 5.664068635166155 3.553976472378431 0 -1 1
92 1 4.9985077883406115 4.6178447706032575 3.89071060145053 0 -1 0
309 1 4.884534414021805 5.388704812456733 2.5456714643212415 0 1 1
374 1 5.790830512993154 4.656925238867554 2.8915054011890677 0 -1 1
466 1 4.546658638163194 4.412998129121341 2.5169952204075576 0 1 1
203 1 7.151784877846534 4.206008185427754 2.7624722193860807 0 1 0
457 1 8.154651377012321 4.742747581766426 2.5876808601261083 -1 0 0
270 1 6.7482001998946215 5.220815160516672 2.9341486750206687 0 -1 -1
285 1 7.356406586193476 4.772241195581373 3.7902217849217674 0 -1 0
148 1 7.745298567745997 5.673785118387347 2.9643037656599867 0 0 0
465 1 6.907071648461923 5.973668881583577 3.622300007606297 0 0 0
367 1 5.726005042287909 6.200727492655639 2.296579326369523 0 1 0
473 1 4.252316246731521 7.479931704493917 2.422073039692566 1 0 0
151 1 5.6283882801341045 8.053895586866336 2.227996078356969 0 0 0
335 1 4.247013778048526 5.929715498294991 3.669228041669282 0 -1 0
467 1 5.025837666433193 6.692834754961487 4.085748043331304 0 0 0
445 1 6.0501786494573695 6.591928778668837 3.5502882121047623 0 -1 1
354 1 4.827343097838533 6.430322153528332 3.0081668099277947 0 0 2
500 1 5.19913522342052 7.416181948239961 2.903321331554007 -1 0 0
71 1 4.928963813225429 8.081839567880493 3.956907656422709 0 -1 1
214 1 6.3199751439725045 7.159758550209201 2.6400561209859736 0 0 0
137 1 6.031827000612495 7.566435039488356 3.831167096648284 -1 -1 0
43 1 7.767800031426771 8.001786643802133 2.4593655208440017 -1 -1 0
461 1 6.665388343611068 8.230891612877203 2.8748430715297997 0 -1 0
400 1 7.214780761577703 7.198185947073894 2.1533372633231185 -1 -1 0
379 1 7.935594148056066 6.44075606793976 3.674562316912699 0 0 -1
56 1 8.025818626996177 7.9651347894583875 3.4843368209137413 0 0 0
289 1 5.211555680811169 5.879949370654412 0.29560945051225196 0 0 1
392 1 6.736533762243742 6.192363347416258 2.5736286922597293 -1 0 0
124 1 6.439697510047637 6.305524925124814 0.21000964623472482 0 0 1
5 1 6.987032355615811 5.074116448230569 0.093467062783617 0 -2 1
447 1 6.716628663692724 8.123735595120719 1.8181021909140327 1 0 0
182 1 5.8303307298765485 8.311909850300966 1.283320678127769 -1 0 -1
231 1 4.286088875962551 7.8788922818782865 0.06698289193085039 0 -1 1
351 1 5.63343027486685 5.2698282445625155 5.024087209779193 0 -1 -1
224 1 4.910592808691428 5.760182918615232 4.534666567253453 -1 0 0
117 1 4.201734726314367 5.61864824069742 5.440499866941963 0 0 0