LAMMPS (28 Mar 2023)
Processor partition = 0
Reading data file ...
  orthogonal box = (0 0 0) to (8.0091564 8.0091564 8.0091564)
  2 by 2 by 2 MPI processor grid
  reading atoms ...
  500 atoms
  reading velocities ...
  500 velocities
  read_data CPU = 0.004 seconds
Generated 0 of 0 mixed pair_coeff terms from geometric mixing rule
Neighbor list info ...
  update: every = 1 steps, delay = 0 steps, check = yes
  max neighbors/atom: 2000, page size: 100000
  master list distance cutoff = 4.5
  ghost atom cutoff = 4.5
  binsize = 2.25, bins = 4 4 4
  1 neighbor lists, perpetual/occasional/extra = 1 0 0
  (1) pair lj/cut, perpetual
      attributes: half, newton on
      pair build: half/bin/atomonly/newton
      stencil: half/bin/3d
      bin: standard
Setting up Verlet run ...
  Unit style    : lj
  Current step  : 0
  Time step     : 0.004
Per MPI rank memory allocation (min/avg/max) = 3.045 | 3.045 | 3.045 Mbytes
   Step          Temp          E_pair         E_mol          TotEng         Press          Volume    
         0   0.76450496    -7.2810127      0             -6.1365488      0.59727435     513.76004    
     50000   0.77410201    -7.2483075      0             -6.0894768      0.75988039     514.1938     
Loop time of 15.7967 on 8 procs for 50000 steps with 500 atoms

Performance: 1093899.714 tau/day, 3165.219 timesteps/s, 1.583 Matom-step/s
94.7% CPU use with 8 MPI tasks x no OpenMP threads

MPI task timing breakdown:
Section |  min time  |  avg time  |  max time  |%varavg| %total
---------------------------------------------------------------
Pair    | 7.6503     | 8.5102     | 9.3733     |  19.9 | 53.87
Neigh   | 0.14559    | 0.14974    | 0.15364    |   0.8 |  0.95
Comm    | 4.4604     | 5.305      | 6.1323     |  24.2 | 33.58
Output  | 3.3628e-05 | 3.4509e-05 | 3.6189e-05 |   0.0 |  0.00
Modify  | 1.5575     | 1.5917     | 1.6451     |   2.4 | 10.08
Other   |            | 0.24       |            |       |  1.52

Nlocal:           62.5 ave          65 max          60 min
Histogram: 2 0 1 0 0 0 2 0 2 1
Nghost:         1985.5 ave        1988 max        1983 min
Histogram: 1 0 2 0 2 0 0 0 1 2
Neighs:        11493.5 ave       12825 max       10264 min
Histogram: 2 0 1 1 0 0 2 0 0 2

Total # of neighbors = 91948
Ave neighs/atom = 183.896
Neighbor list builds = 417
Dangerous builds = 0

CITE-CITE-CITE-CITE-CITE-CITE-CITE-CITE-CITE-CITE-CITE-CITE-CITE

Your simulation uses code contributions which should be cited:
- dcci command:
The log file lists these citations in BibTeX format.

CITE-CITE-CITE-CITE-CITE-CITE-CITE-CITE-CITE-CITE-CITE-CITE-CITE

Generated 0 of 0 mixed pair_coeff terms from geometric mixing rule
Setting up Verlet run ...
  Unit style    : lj
  Current step  : 50000
  Time step     : 0.004
Per MPI rank memory allocation (min/avg/max) = 3.045 | 3.045 | 3.045 Mbytes
   Step          Temp          KinEng         PotEng         TotEng         Press          Volume          f_f3     
     50000   0.77410201     579.41536     -3624.1537     -3044.7384      0.75988039     514.1938       1            
     50100   0.75640693     566.17059     -3622.3174     -3056.1468      1.3902481      508.71925      0.96280311   
     50200   0.75225248     563.06098     -3607.9982     -3044.9373      1.9148977      504.33928      0.92879627   
     50300   0.7677956      574.69501     -3610.3397     -3035.6447      1.9103947      504.00532      0.90012594   
     50400   0.70470225     527.46964     -3597.0867     -3069.6171      1.8802085      504.82678      0.87596554   
     50500   0.78648248     588.68214     -3605.0666     -3016.3844      2.2247447      500.65499      0.85278237   
     50600   0.75336581     563.89431     -3559.3752     -2995.4809      3.0504486      495.97113      0.82933478   
     50700   0.77624658     581.02057     -3616.1053     -3035.0847      2.4916874      496.08775      0.80627028   
     50800   0.75293486     563.57174     -3611.1068     -3047.535       2.5221521      495.64698      0.7863159    
     50900   0.77174479     577.65097     -3550.6907     -2973.0397      3.3853356      491.2606       0.76686165   
     51000   0.75342684     563.93999     -3572.44       -3008.5001      3.3735863      488.70537      0.74958738   
     51100   0.7473221      559.37059     -3511.5372     -2952.1666      3.9126732      487.38446      0.73239538   
     51200   0.76673109     573.89822     -3497.8565     -2923.9583      3.8985781      488.09998      0.71554368   
     51300   0.78862994     590.28951     -3491.6943     -2901.4048      3.8340999      488.3873       0.69984677   
     51400   0.76949554     575.96741     -3481.9622     -2905.9948      3.9015604      487.54721      0.68584904   
     51500   0.75665727     566.35796     -3507.0979     -2940.74        4.0809506      483.22077      0.67322517   
     51600   0.74093008     554.58616     -3488.0334     -2933.4473      4.5538867      478.71036      0.6609766    
     51700   0.79820837     597.45896     -3489.2715     -2891.8126      4.679942       476.66494      0.64801661   
     51800   0.78901966     590.58122     -3547.5144     -2956.9331      4.0737913      477.95566      0.63467459   
     51900   0.7454517      557.9706      -3468.7844     -2910.8138      4.6366307      476.7091       0.62356248   
     52000   0.80038579     599.08876     -3488.1072     -2889.0184      4.8737037      472.96394      0.61420563   
     52100   0.74880849     560.48315     -3461.9325     -2901.4493      5.2295282      469.4395       0.60414114   
     52200   0.81085616     606.92584     -3408.5545     -2801.6287      5.4647404      470.18118      0.59288153   
     52300   0.77973619     583.63254     -3369.3942     -2785.7617      5.1141203      475.59206      0.58279591   
     52400   0.78272415     585.86903     -3382.7254     -2796.8564      4.7869429      477.3656       0.57484271   
     52500   0.76121637     569.77045     -3398.4569     -2828.6865      5.1533323      471.22434      0.56707942   
     52600   0.7942171      594.4715      -3409.1892     -2814.7177      5.9067233      461.59798      0.55816369   
     52700   0.7560472      565.90133     -3333.0339     -2767.1326      6.4563991      459.38726      0.54905612   
     52800   0.7004777      524.30756     -3387.9801     -2863.6725      5.4347503      465.21853      0.54071337   
     52900   0.69883443     523.07757     -3375.4284     -2852.3508      5.5342539      464.43297      0.53358077   
     53000   0.77355723     579.00759     -3415.8686     -2836.8611      5.8873076      457.79454      0.52646188   
     53100   0.74043596     554.21632     -3355.0329     -2800.8166      6.3679598      454.8139       0.51886589   
     53200   0.77984683     583.71535     -3322.4087     -2738.6934      6.2658259      457.81747      0.51142201   
     53300   0.74629614     558.60266     -3333.5447     -2774.942       5.6775852      462.44551      0.50494704   
     53400   0.79989558     598.72184     -3261.6082     -2662.8863      6.1787988      460.88024      0.49908437   
     53500   0.83925504     628.1824      -3319.1035     -2690.9211      6.195349       456.84851      0.49289986   
     53600   0.77343379     578.9152      -3223.5272     -2644.612       6.7417828      454.78178      0.48635081   
     53700   0.76382373     571.72206     -3248.2062     -2676.4841      6.5129562      454.99402      0.48013619   
     53800   0.77799053     582.32591     -3202.0097     -2619.6838      6.613879       455.87298      0.47442825   
     53900   0.7075301      529.58628     -3175.5488     -2645.9626      6.7051775      454.69261      0.46943085   
     54000   0.76997717     576.32791     -3135.5882     -2559.2603      7.2997148      450.1203       0.46392398   
     54100   0.82276029     615.83608     -3159.665      -2543.8289      7.2047426      449.34757      0.45781422   
     54200   0.75269433     563.39171     -3100.3506     -2536.9589      6.9732231      453.96799      0.45269668   
     54300   0.78428292     587.03576     -3223.4031     -2636.3674      6.207561       455.42873      0.44865668   
     54400   0.80281975     600.91058     -3127.3062     -2526.3956      7.2816579      447.86142      0.44407315   
     54500   0.75864223     567.84371     -3119.1256     -2551.2819      7.5680911      443.33197      0.4386697    
     54600   0.69775925     522.2728      -3138.3078     -2616.035       7.3906754      442.85572      0.43418369   
     54700   0.72575388     543.22678     -3129.0454     -2585.8186      7.4807609      441.85021      0.42997971   
     54800   0.80874578     605.34622     -3040.3153     -2434.9691      7.882392       442.0191       0.42514532   
     54900   0.73747394     551.99924     -3125.612      -2573.6128      7.0414292      445.63665      0.42059459   
     55000   0.74311479     556.22142     -2994.7862     -2438.5648      7.6536856      444.74075      0.41699376   
     55100   0.7691982      575.74486     -3016.0067     -2440.2619      7.7807739      441.70432      0.41321068   
     55200   0.71823339     537.59769     -3040.5936     -2502.9959      7.7381335      439.16716      0.40900408   
     55300   0.74600317     558.38338     -3010.1765     -2451.7931      8.0632153      436.62043      0.40477735   
     55400   0.76287186     571.00959     -2967.6309     -2396.6213      8.1793603      437.00798      0.40097477   
     55500   0.72888323     545.56909     -3028.4617     -2482.8926      7.6485175      438.71152      0.39764199   
     55600   0.81258637     608.2209      -3019.0124     -2410.7915      7.7482421      438.4513       0.39406144   
     55700   0.84273392     630.78634     -2986.812      -2356.0257      7.8269587      438.65351      0.39005684   
     55800   0.73658145     551.33121     -2949.1981     -2397.8669      7.8281487      438.3504       0.38671216   
     55900   0.78643221     588.64451     -2887.3938     -2298.7493      8.4221358      434.23267      0.38372033   
     56000   0.78280332     585.92829     -2729.1344     -2143.2061      9.1781459      432.47864      0.38020876   
     56100   0.79023501     591.4909      -2926.743      -2335.2521      7.8837258      437.19195      0.37654484   
     56200   0.71966256     538.66742     -2813.6024     -2274.9349      8.1886245      437.37768      0.37334928   
     56300   0.75682996     566.48723     -2757.468      -2190.9808      8.9035704      431.42683      0.37042199   
     56400   0.82520857     617.66862     -2815.0529     -2197.3843      8.7817202      430.10267      0.36743857   
     56500   0.78221897     585.4909      -2872.9499     -2287.459       8.1098123      433.85295      0.36425843   
     56600   0.77254809     578.25225     -2790.4749     -2212.2227      8.4007749      433.52278      0.36130254   
     56700   0.79677185     596.38373     -2686.7181     -2090.3343      9.1101591      429.67643      0.35838705   
     56800   0.79525971     595.25189     -2753.1041     -2157.8522      8.7694491      429.70929      0.35557156   
     56900   0.80853964     605.19192     -2824.703      -2219.5111      8.3256667      430.96849      0.35290562   
     57000   0.82976043     621.07568     -2659.4045     -2038.3288      8.9867069      430.21671      0.34997146   
     57100   0.83275109     623.31419     -2675.149      -2051.8348      8.8834861      430.01378      0.34724275   
     57200   0.79189094     592.73037     -2687.2915     -2094.5611      8.7954223      429.32969      0.3449816    
     57300   0.75030284     561.60167     -2717.0245     -2155.4228      8.7110763      427.59645      0.34252751   
     57400   0.72833515     545.15886     -2666.3835     -2121.2247      9.0972511      424.23407      0.33977806   
     57500   0.75660738     566.32063     -2589.1199     -2022.7993      9.5253199      422.27769      0.33705295   
     57600   0.77673871     581.38893     -2627.6021     -2046.2132      9.1787567      424.30839      0.33466101   
     57700   0.79025655     591.50703     -2681.5405     -2090.0335      8.6523928      427.46196      0.33250252   
     57800   0.78373456     586.62532     -2576.595      -1989.9697      9.0911801      426.06173      0.33017485   
     57900   0.81066462     606.78247     -2567.6575     -1960.875       9.4618467      421.66358      0.32769721   
     58000   0.76208026     570.41708     -2486.4373     -1916.0202      9.7697961      420.14393      0.32525248   
     58100   0.73810772     552.47363     -2715.1231     -2162.6495      8.6363434      422.50579      0.3230632    
     58200   0.74694114     559.08544     -2497.9488     -1938.8634      9.6491096      419.35183      0.32087528   
     58300   0.79261065     593.26907     -2406.7213     -1813.4522      10.098794      417.81579      0.31837787   
     58400   0.79982332     598.66775     -2606.0528     -2007.3851      8.9020829      422.90085      0.31628784   
     58500   0.78664826     588.80622     -2620.4126     -2031.6064      8.7422265      423.51684      0.31470316   
     58600   0.79141106     592.37118     -2420.2234     -1827.8522      9.8644786      417.75788      0.31261365   
     58700   0.81420609     609.43326     -2452.5278     -1843.0945      9.9986801      414.53908      0.31014946   
     58800   0.74262074     555.85163     -2414.1945     -1858.3429      9.783951       416.60291      0.30810242   
     58900   0.73614933     551.00778     -2486.1839     -1935.1761      9.3929294      417.70122      0.30647265   
     59000   0.74406347     556.93151     -2380.195      -1823.2635      9.9847669      414.58731      0.30471515   
     59100   0.75026342     561.57217     -2500.8753     -1939.3032      9.5940911      413.28405      0.30247228   
     59200   0.7512517      562.3119      -2340.6125     -1778.3006      10.087276      413.55779      0.30040133   
     59300   0.73071938     546.94346     -2399.2905     -1852.3471      9.6160674      415.65166      0.29859353   
     59400   0.76288027     571.01588     -2413.3254     -1842.3095      9.6888992      414.11695      0.29702658   
     59500   0.74396001     556.85407     -2322.0768     -1765.2227      10.25195       410.17242      0.29513475   
     59600   0.76993608     576.29716     -2217.9652     -1641.668       10.60366       409.79808      0.29314936   
     59700   0.75942907     568.43266     -2304.96       -1736.5273      9.8539855      414.25672      0.29131174   
     59800   0.73371754     549.18758     -2361.2778     -1812.0902      9.6004414      414.03246      0.28983778   
     59900   0.73652993     551.29265     -2180.9987     -1629.706       10.57431       408.98526      0.28813454   
     60000   0.6950884      520.27367     -2269.6821     -1749.4085      10.298729      407.23855      0.28628146   
     60100   0.71628406     536.13862     -2277.8546     -1741.7159      10.270344      407.0251       0.28455588   
     60200   0.75365491     564.1107      -2129.9129     -1565.8022      10.672302      407.79832      0.28287987   
     60300   0.77734494     581.84269     -2327.3002     -1745.4575      9.7361668      410.90778      0.28135362   
     60400   0.75750836     566.99501     -2141.3395     -1574.3445      10.360472      410.0307       0.279867     
     60500   0.7594751      568.46711     -2032.8147     -1464.3476      10.777854      408.40847      0.27819416   
     60600   0.75461848     564.83193     -2114.0528     -1549.2209      10.426313      408.92109      0.27662529   
     60700   0.78233033     585.57425     -2096.3728     -1510.7986      10.390031      409.61579      0.27516389   
     60800   0.77205044     577.87975     -2024.4886     -1446.6088      10.513983      409.66687      0.27354117   
     60900   0.80887523     605.44311     -2122.1475     -1516.7044      10.302051      408.88612      0.27199255   
     61000   0.78979861     591.16426     -1979.6626     -1388.4983      10.753765      407.66318      0.2705409    
     61100   0.7596991      568.63478     -2100.6607     -1532.026       10.34375       406.98493      0.2691971    
     61200   0.75243763     563.19956     -1988.9668     -1425.7672      10.845278      404.33325      0.26768131   
     61300   0.73966387     553.63841     -1949.353      -1395.7146      10.988415      403.15176      0.26616989   
     61400   0.77443639     579.66564     -2086.5909     -1506.9253      10.519327      403.6031       0.26475323   
     61500   0.72081868     539.53278     -1851.4194     -1311.8866      11.102109      403.77264      0.2634767    
     61600   0.74825445     560.06846     -1983.3804     -1423.3119      10.648117      404.37397      0.26221243   
     61700   0.74028757     554.10524     -2012.1927     -1458.0875      10.651265      402.36488      0.26083086   
     61800   0.73795934     552.36256     -1828.4905     -1276.1279      11.403276      399.31172      0.25923519   
     61900   0.73479726     549.99575     -1880.7524     -1330.7567      11.109697      400.38196      0.25796651   
     62000   0.75958421     568.54878     -2008.8432     -1440.2945      10.427786      403.66211      0.25686519   
     62100   0.69201821     517.97563     -1850.1802     -1332.2045      10.805331      402.93816      0.2555945    
     62200   0.73767554     552.15014     -1807.4974     -1255.3472      11.458251      396.87998      0.2541428    
     62300   0.74865753     560.37016     -1681.9804     -1121.6102      11.978836      394.65285      0.25270442   
     62400   0.76591146     573.28472     -1835.5082     -1262.2235      10.953326      400.91861      0.25161555   
     62500   0.78622519     588.48956     -2019.9921     -1431.5025      10.059735      405.12206      0.25057907   
     62600   0.76575513     573.16772     -1823.7324     -1250.5647      10.951983      400.33343      0.24936843   
     62700   0.80971671     606.07296     -1555.8059     -949.73293      12.155806      395.38739      0.24799067   
     62800   0.75321042     563.778       -1716.7806     -1153.0026      11.304538      398.39084      0.24680002   
     62900   0.79732932     596.801       -1738.6693     -1141.8683      10.943334      402.06601      0.24571155   
     63000   0.75260038     563.32139     -1774.6899     -1211.3685      10.774562      401.5077       0.2445026    
     63100   0.80418213     601.93032     -1758.7867     -1156.8564      11.261148      396.26441      0.24335472   
     63200   0.75655032     566.27791     -1619.0397     -1052.7617      11.79001       393.411        0.2422311    
     63300   0.72478979     542.50516     -1728.2766     -1185.7714      11.181752      395.89407      0.24110309   
     63400   0.74367527     556.64094     -1800.9718     -1244.3309      10.871491      396.9222       0.23999324   
     63500   0.75793631     567.31533     -1673.2216     -1105.9062      11.354821      394.9245       0.23883724   
     63600   0.80330689     601.27521     -1666.0161     -1064.7409      11.432895      394.37724      0.23777095   
     63700   0.76795559     574.81476     -1535.0179     -960.20315      11.652172      394.93592      0.23670707   
     63800   0.78746079     589.4144      -1640.233      -1050.8186      11.213252      396.25122      0.23554992   
     63900   0.75604389     565.89885     -1546.479      -980.58017      11.367578      396.3996       0.23450918   
     64000   0.80004485     598.83357     -1558.6257     -959.79214      11.456873      395.17606      0.23356053   
     64100   0.74908735     560.69188     -1538.7182     -978.02633      11.514583      393.84072      0.23246723   
     64200   0.79452557     594.70239     -1522.0477     -927.34527      11.670642      392.64358      0.23144287   
     64300   0.7345133      549.7832      -1305.5872     -755.80399      12.151175      392.4          0.23049211   
     64400   0.75438444     564.65675     -1359.8375     -795.18079      11.930027      392.94978      0.22943801   
     64500   0.7423416      555.64269     -1259.8461     -704.20346      12.014997      394.22804      0.22834113   
     64600   0.78096321     584.55096     -1396.4646     -811.91359      11.544502      395.58992      0.22741562   
     64700   0.78124153     584.75928     -1624.7576     -1039.9983      10.997371      394.37607      0.22666301   
     64800   0.82231719     615.50442     -1205.3685     -589.86405      12.585996      388.87808      0.22569891   
     64900   0.7964483      596.14155     -1345.5789     -749.43736      12.044496      389.77539      0.22445023   
     65000   0.75523741     565.2952      -1485.0997     -919.8045       11.225314      393.85589      0.22352168   
     65100   0.74968755     561.14113     -1295.0964     -733.95527      11.887036      391.17052      0.22282969   
     65200   0.76152953     570.00486     -1120.9067     -550.9018       12.710155      387.00732      0.22190698   
     65300   0.78701087     589.07764     -1455.3727     -866.29501      11.628288      388.93548      0.22082989   
     65400   0.75064339     561.85658     -1406.5991     -844.74251      11.555201      390.22         0.21989385   
     65500   0.77281049     578.44865     -1335.3969     -756.94824      11.839998      388.72307      0.21911685   
     65600   0.75293493     563.57179     -1115.5247     -551.95295      12.489548      386.97885      0.21825789   
     65700   0.73549309     550.51658     -1267.8783     -717.36175      11.903532      388.28094      0.21719528   
     65800   0.74432437     557.12679     -1182.6478     -625.52101      12.045055      388.72659      0.21631075   
     65900   0.75118404     562.26125     -1189.314      -627.05275      12.206981      386.19969      0.21555447   
     66000   0.75927527     568.31754     -1005.2997     -436.98215      12.727083      385.27755      0.214636     
     66100   0.76013795     568.96325     -1182.9612     -613.99797      11.847151      389.74698      0.21371678   
     66200   0.75267784     563.37937     -1147.7187     -584.33933      11.821664      390.6772       0.21292249   
     66300   0.78206769     585.37767     -973.32235     -387.94468      12.594563      386.445        0.21214097   
     66400   0.79044563     591.64856     -1045.3352     -453.68666      12.557677      384.35912      0.21127335   
     66500   0.73661614     551.35718     -1109.4823     -558.12509      12.163768      385.73203      0.21043186   
     66600   0.75157994     562.55758     -1136.5955     -574.03796      12.059478      385.90306      0.20968758   
     66700   0.71880207     538.02335     -992.65992     -454.63658      12.451446      384.32504      0.20888736   
     66800   0.78524504     587.75591     -1063.7734     -476.01749      12.332169      384.13243      0.20800525   
     66900   0.74136984     554.91533     -1145.2316     -590.31629      11.88425       385.8177       0.20716034   
     67000   0.71552734     535.57221     -1110.4494     -574.87723      12.056802      383.86518      0.20652365   
     67100   0.74423285     557.05829     -902.22525     -345.16696      12.897956      380.07864      0.20576593   
     67200   0.72770657     544.68837     -937.42706     -392.73869      12.554618      382.2085       0.20489754   
     67300   0.7839087      586.75567     -1013.9836     -427.22797      12.059484      386.14021      0.20407705   
     67400   0.74878661     560.46678     -1060.0883     -499.62157      11.911779      385.69252      0.20342967   
     67500   0.81199469     607.77803     -827.01809     -219.24006      13.018064      379.78618      0.20277008   
     67600   0.76909575     575.66817     -749.01792     -173.34975      13.168039      379.13492      0.2019131    
     67700   0.74535374     557.89728     -1124.8324     -566.93509      11.722048      384.24531      0.20107038   
     67800   0.75019344     561.51979     -666.00764     -104.48785      12.838695      383.64144      0.20038997   
     67900   0.79349022     593.92743     -923.70519     -329.77776      12.388445      381.82742      0.19979658   
     68000   0.76442238     572.17015     -755.00599     -182.83584      12.862923      380.45765      0.19909002   
     68100   0.77856064     582.75264     -764.73792     -181.98529      12.780095      380.4763       0.19821281   
     68200   0.72286948     541.06781     -733.04243     -191.97463      12.654258      381.36439      0.1974964    
     68300   0.79028209     591.52614     -813.12148     -221.59534      12.600666      380.4436       0.19697601   
     68400   0.76739269     574.39343     -612.86033     -38.466907      13.063843      379.6244       0.19629323   
     68500   0.77668259     581.34692     -724.36559     -143.01867      12.586366      381.78187      0.19546627   
     68600   0.77155434     577.50843     -702.94127     -125.43285      12.458345      383.36359      0.19478996   
     68700   0.73862557     552.86124     -616.82127     -63.960029      12.767249      381.22819      0.19423305   
     68800   0.7479427      559.83511     -513.88364      45.951469      13.345873      376.779        0.19356829   
     68900   0.78289622     585.99782     -648.2581      -62.260275      13.119293      375.81263      0.19282666   
     69000   0.75845512     567.70366     -686.02198     -118.31832      12.739986      378.29475      0.19211203   
     69100   0.7464754      558.73683     -691.23223     -132.49539      12.536672      379.8586       0.19151794   
     69200   0.74299859     556.13445     -456.56146      99.57299       13.227341      377.51663      0.19090957   
     69300   0.74226736     555.58712     -433.04104      122.54608      13.386215      375.77158      0.19024992   
     69400   0.75083589     562.00066     -509.25562      52.745039      13.101298      376.55525      0.18953385   
     69500   0.74345617     556.47694     -551.68935      4.7875883      12.853219      377.79238      0.18891132   
     69600   0.77638403     581.12345     -714.90711     -133.78367      12.555062      377.11899      0.18832304   
     69700   0.77389548     579.26077     -540.28247      38.978293      13.145704      374.25559      0.18771235   
     69800   0.77215058     577.95471     -566.12595      11.828763      13.009624      374.5872       0.18698015   
     69900   0.70987691     531.34287     -503.78027      27.562602      12.786202      377.58385      0.18637093   
     70000   0.79504803     595.09345     -590.4533       4.6401569      12.627254      377.95815      0.18585417   
     70100   0.75879987     567.9617      -345.40248      222.55922      13.418531      374.24528      0.1853175    
     70200   0.77536301     580.35922     -389.00168      191.35754      13.431391      372.57553      0.18465879   
     70300   0.76143673     569.93539     -436.67502      133.26038      13.045704      375.0963       0.18397003   
     70400   0.76077618     569.44097     -415.63105      153.80992      12.889958      376.92864      0.18341084   
     70500   0.79320162     593.71141     -259.01675      334.69466      13.485987      374.11146      0.18291301   
     70600   0.71491652     535.11501     -254.90341      280.21161      13.44847       372.94137      0.18231763   
     70700   0.76729111     574.3174      -415.59847      158.71893      13.181767      372.42099      0.18166097   
     70800   0.78168189     585.0889      -381.13738      203.95151      13.210834      372.57143      0.18107709   
     70900   0.78910609     590.64591     -115.58685      475.05906      13.649988      373.86633      0.18054473   
     71000   0.81373049     609.07727     -606.20844      2.8688347      12.3059        376.88711      0.17999675   
     71100   0.7910211      592.0793      -163.82068      428.25861      13.424297      374.18932      0.17939171   
     71200   0.80542134     602.85787     -61.447734      541.41014      13.899334      371.17017      0.17878907   
     71300   0.76630973     573.58284     -142.62839      430.95445      13.459418      373.263        0.17827425   
     71400   0.7479365      559.83047     -258.68885      301.14162      12.984178      374.89733      0.17777651   
     71500   0.78824461     590.00109     -158.82167      431.17942      13.477359      371.86338      0.17717663   
     71600   0.77686646     581.48454     -246.02856      335.45599      13.400215      369.85567      0.17660064   
     71700   0.77665987     581.32991     -147.25475      434.07516      13.487798      370.92936      0.17607283   
     71800   0.78172337     585.11994     -128.34322      456.77672      13.187803      374.46212      0.17551772   
     71900   0.76001697     568.8727      -256.68807      312.18463      12.772226      375.57825      0.17500314   
     72000   0.77861041     582.78989     -50.648892      532.141        13.660215      370.02735      0.17453603   
     72100   0.76798628     574.83773      111.5802       686.41793      14.369116      365.3084       0.17398424   
     72200   0.7512901      562.34064     -3.0891875      559.25145      13.764234      368.6522       0.17340622   
     72300   0.72490482     542.59126     -154.62613      387.96513      12.918424      373.95423      0.17287712   
     72400   0.78680658     588.92473      39.722615      628.64734      13.359031      373.98545      0.17240251   
     72500   0.78364193     586.55598      164.0788       750.63478      13.926517      369.97084      0.17194534   
     72600   0.84938825     635.76711      5.9797792      641.74689      13.759987      368.59451      0.17141548   
     72700   0.7862863      588.53529     -127.033        461.50229      13.162374      370.83187      0.17085858   
     72800   0.7768757      581.49146     -32.174475      549.31699      13.386847      370.08669      0.17040598   
     72900   0.8001978      598.94806     -30.521005      568.42705      13.664856      366.76081      0.16994781   
     73000   0.76982425     576.21345      224.43712      800.65057      14.138471      366.60753      0.1693984    
     73100   0.75501763     565.13069      104.097        669.22769      13.449415      370.95056      0.16886082   
     73200   0.75690503     566.54342     -44.448341      522.09508      13.027516      372.00141      0.16844623   
     73300   0.76134156     569.86416      123.15943      693.02359      13.830342      366.23278      0.16802565   
     73400   0.82104946     614.55552      319.09094      933.64647      14.611464      362.67405      0.16749354   
     73500   0.76758893     574.54031      208.50085      783.04116      13.737563      368.26766      0.16691994   
     73600   0.71854615     537.8318      -62.911324      474.92047      12.840734      371.35892      0.16654198   
     73700   0.7856816      588.08268      172.6745       760.75718      13.901931      365.28024      0.16611426   
     73800   0.78194458     585.28552      384.73371      970.01923      14.570083      362.18844      0.1656055    
     73900   0.77414357     579.44646      197.66119      777.10765      13.791909      365.94706      0.16510997   
     74000   0.79333829     593.81371      40.464331      634.27804      13.159534      369.45937      0.16462626   
     74100   0.76284554     570.98989      420.14449      991.13437      13.982726      368.00458      0.16421931   
     74200   0.81708856     611.59079      97.143482      708.73427      13.587438      365.46207      0.16382576   
     74300   0.74848546     560.24137      424.12199      984.36336      14.322316      363.1184       0.16337104   
     74400   0.78230029     585.55177      446.80121      1032.353       14.294766      363.98596      0.1628147    
     74500   0.79971861     598.58938      181.50097      780.09035      13.432933      367.71832      0.16237239   
     74600   0.79071814     591.85253      283.48857      875.3411       13.522503      368.44264      0.16203335   
     74700   0.79792454     597.24652      595.09105      1192.3376      14.306406      366.30254      0.16162072   
     74800   0.7792723      583.28531      523.11082      1106.3961      14.197439      365.05716      0.16111719   
     74900   0.75276266     563.44285      174.33551      737.77836      13.518377      363.96633      0.16070233   
     75000   0.79367119     594.06289      504.8243       1098.8872      14.485496      361.00277      0.16028101   
     75100   0.80613969     603.39556      405.61265      1009.0082      14.035635      363.4548       0.15981533   
     75200   0.73044394     546.73729      382.76829      929.50558      13.573937      366.63104      0.15938633   
     75300   0.79331962     593.79973      527.45666      1121.2564      14.035068      365.1003       0.15897016   
     75400   0.7813107      584.81106      440.66276      1025.4738      14.072337      362.19354      0.15859107   
     75500   0.74720885     559.28582      489.4655       1048.7513      14.125214      361.81445      0.15816135   
     75600   0.75610313     565.94319      571.77704      1137.7202      14.057057      363.91182      0.15768974   
     75700   0.75226027     563.06681      568.93538      1132.0022      13.866818      365.69741      0.15726383   
     75800   0.79297599     593.54253      643.3028       1236.8453      14.146026      364.36826      0.15694084   
     75900   0.78757268     589.49815      636.11584      1225.614       14.300093      362.07991      0.1565773    
     76000   0.79103662     592.09091      685.08086      1277.1718      14.448062      360.90881      0.15609926   
     76100   0.79473001     594.85541      650.44533      1245.3007      14.232822      362.202        0.15561711   
     76200   0.74583557     558.25793      490.33501      1048.5929      13.644963      364.23581      0.15529072   
     76300   0.77180161     577.69351      929.16955      1506.8631      14.705888      362.00766      0.15497679   
     76400   0.76030207     569.0861       603.51725      1172.6033      14.139306      360.73435      0.1545431    
     76500   0.77506519     580.1363       716.84246      1296.9788      14.395404      360.11085      0.15408561   
     76600   0.77204168     577.8732       620.26481      1198.138       14.056253      361.30368      0.15367067   
     76700   0.80288861     600.96212      448.27489      1049.237       13.746727      361.25392      0.15336261   
     76800   0.81215574     607.89857      887.28528      1495.1839      14.756039      358.95268      0.15297401   
     76900   0.7808351      584.45507      1009.3529      1593.808       14.720843      361.04438      0.15253707   
     77000   0.82501068     617.5205       662.1294       1279.6499      13.781649      364.59973      0.15217821   
     77100   0.74968572     561.13976      755.81742      1316.9572      13.936813      363.45855      0.1518114    
     77200   0.77006857     576.39632      1107.153       1683.5493      15.083461      357.92349      0.15143982   
     77300   0.78836125     590.0884       861.84661      1451.935       14.782834      355.78782      0.15103706   
     77400   0.70798355     529.92569      670.87421      1200.7999      14.048229      358.24514      0.15063599   
     77500   0.76014237     568.96656      763.34415      1332.3107      14.263658      358.40603      0.15027917   
     77600   0.78861943     590.28164      981.52375      1571.8054      14.681167      358.24308      0.14989932   
     77700   0.75272287     563.41307      1027.5042      1590.9173      14.539275      359.84369      0.14951738   
     77800   0.78770668     589.59845      759.91608      1349.5145      13.882635      361.8784       0.14915216   
     77900   0.77864957     582.81921      998.98619      1581.8054      14.4413        360.16757      0.14885257   
     78000   0.77150847     577.47409      1067.1901      1644.6642      14.896143      355.93553      0.1484907    
     78100   0.81113949     607.13791      1016.7123      1623.8502      14.904616      354.88227      0.14807911   
     78200   0.76212043     570.44714      846.33948      1416.7866      14.170677      358.47679      0.14771697   
     78300   0.78199022     585.31968      879.87954      1465.1992      14.099753      360.22318      0.14741249   
     78400   0.72165986     540.16241      1026.3178      1566.4802      14.419403      358.07492      0.14707819   
     78500   0.75954276     568.51776      1485.6581      2054.1759      15.578866      354.79164      0.14666082   
     78600   0.78159573     585.02441      865.69008      1450.7145      14.219027      357.02401      0.14628194   
     78700   0.76197507     570.33834      951.54525      1521.8836      14.205771      358.43605      0.14599909   
     78800   0.79042734     591.63486      1303.1644      1894.7993      15.091908      355.84807      0.14565464   
     78900   0.774352       579.60247      1083.5157      1663.1182      14.577114      356.3907       0.14526203   
     79000   0.79289543     593.48223      910.0512       1503.5334      14.140515      357.72802      0.14494648   
     79100   0.83879575     627.83862      1126.0164      1753.855       14.692595      356.2294       0.14461751   
     79200   0.80123223     599.72233      1216.6548      1816.3771      14.715933      356.75408      0.14424911   
     79300   0.76136418     569.88109      1192.4309      1762.312       14.540261      357.2727       0.14394239   
     79400   0.81549382     610.39712      1246.9459      1857.343       14.77801       356.2683       0.1436119    
     79500   0.78539456     587.86783      1267.8973      1855.7651      14.765775      355.92101      0.14326427   
     79600   0.81556166     610.44791      1181.9778      1792.4257      14.602384      356.14282      0.14292844   
     79700   0.78610405     588.39888      1236.0627      1824.4616      14.602243      356.34375      0.14260098   
     79800   0.72187461     540.32314      1234.2102      1774.5333      14.64907       354.53635      0.14226529   
     79900   0.74668923     558.89689      1385.0264      1943.9233      15.09265       352.47158      0.14194044   
     80000   0.81015424     606.40045      1380.5184      1986.9188      15.096519      352.97161      0.14163329   
     80100   0.76512524     572.69624      1306.0353      1878.7316      14.532678      356.70676      0.14128321   
     80200   0.74839316     560.17228      1283.8423      1844.0145      14.348903      357.78996      0.14094443   
     80300   0.78202382     585.34483      1552.3388      2137.6836      15.226907      353.48334      0.14068188   
     80400   0.6983644      522.72575      1717.8725      2240.5983      15.640995      350.68309      0.14039245   
     80500   0.76029859     569.08349      1333.0624      1902.1459      14.840569      352.39655      0.14002861   
     80600   0.75204781     562.90779      1169.5776      1732.4854      14.275658      354.79942      0.13966338   
     80700   0.74405997     556.92889      1441.6588      1998.5877      14.884481      352.97486      0.13938962   
     80800   0.76864075     575.3276       1620.9248      2196.2524      15.421887      350.54263      0.13912077   
     80900   0.70823748     530.11576      1421.3127      1951.4284      14.868638      351.49719      0.13878343   
     81000   0.76241901     570.67063      1553.9827      2124.6533      15.076741      352.1744       0.13843096   
     81100   0.713441       534.01059      1272.4886      1806.4992      14.505364      351.8525       0.13814727   
     81200   0.73003826     546.43364      1744.2098      2290.6434      15.640469      348.53805      0.13789197   
     81300   0.72731369     544.3943       1907.817       2452.2113      15.884675      348.57204      0.13754521   
     81400   0.76626443     573.54893      1514.6068      2088.1558      14.747523      353.67601      0.1371845    
     81500   0.7287657      545.48113      1350.8503      1896.3314      14.212872      355.74687      0.13693541   
     81600   0.76439862     572.15237      1980.4724      2552.6247      15.742093      350.96561      0.13669974   
     81700   0.77416636     579.46352      1794.6879      2374.1515      15.492098      349.9514       0.13637119   
     81800   0.78597025     588.29874      1377.6965      1965.9952      14.550043      352.05634      0.13604307   
     81900   0.78227342     585.53166      1482.7949      2068.3266      14.727115      351.80993      0.13575847   
     82000   0.77518298     580.22446      1899.9728      2480.1972      15.584166      350.02753      0.1354971    
     82100   0.73599973     550.8958       1833.4234      2384.3192      15.306234      350.70869      0.13518817   
     82200   0.77525268     580.27663      1486.3489      2066.6255      14.610341      351.9659       0.1348762    
     82300   0.77220151     577.99283      1614.636       2192.6288      14.966955      350.04454      0.13460352   
     82400   0.74678751     558.97045      1973.6608      2532.6312      15.795683      347.09336      0.13432692   
     82500   0.73309869     548.72437      1720.9659      2269.6903      15.15347       348.84185      0.13402963   
     82600   0.72927906     545.86538      1764.5116      2310.377       14.967079      351.23525      0.13374997   
     82700   0.76116602     569.73277      1996.9546      2566.6874      15.446063      350.39265      0.13343388   
     82800   0.78292205     586.01716      1900.9022      2486.9194      15.414171      348.92338      0.1331554    
     82900   0.79777742     597.1364       1880.4211      2477.5575      15.413343      348.5723       0.13289546   
     83000   0.75425075     564.55669      1997.8117      2562.3684      15.344171      350.4605       0.13260823   
     83100   0.81392132     609.22011      1801.7278      2410.9479      14.909049      352.38174      0.13233349   
     83200   0.79898941     598.04357      1821.5394      2419.583       15.044217      350.52231      0.13206795   
     83300   0.73804517     552.42681      2162.9343      2715.3611      15.907732      346.21902      0.13180353   
     83400   0.73614357     551.00346      2154.0713      2705.0748      15.869136      345.89747      0.13150929   
     83500   0.75903345     568.13654      2033.2221      2601.3586      15.323653      349.73109      0.13122255   
     83600   0.75222352     563.0393       1692.9947      2256.034       14.475869      352.45169      0.13096234   
     83700   0.78427362     587.0288       1719.9279      2306.9567      14.876502      348.55998      0.13072885   
     83800   0.78031336     584.06455      2294.1492      2878.2137      16.28133       343.58329      0.13044818   
     83900   0.72767923     544.66791      2268.6999      2813.3678      15.905354      345.72976      0.13014782   
     84000   0.76203466     570.38295      1779.8318      2350.2147      14.568651      351.82475      0.12989106   
     84100   0.79716251     596.67614      1815.9562      2412.6323      14.760269      350.59512      0.12966979   
     84200   0.77687244     581.48902      2367.3306      2948.8196      16.120456      345.15098      0.12939618   
     84300   0.7891249      590.65999      2434.9521      3025.6121      16.182324      345.42043      0.12910681   
     84400   0.74888732     560.54216      1873.2267      2433.7688      14.712685      350.31319      0.12883467   
     84500   0.76668064     573.86046      1870.9715      2444.8319      14.855807      348.70396      0.12862058   
     84600   0.79983547     598.67685      2243.9142      2842.591       15.998739      343.24283      0.12836102   
     84700   0.78344215     586.40645      2610.0895      3196.4959      16.429309      344.52235      0.12808184   
     84800   0.74536417     557.90508      1904.2209      2462.126       14.619023      350.57979      0.12780145   
     84900   0.80450672     602.17328      2038.8958      2641.0691      14.974806      349.66976      0.12758946   
     85000   0.79204993     592.84938      2414.25        3007.0994      16.067592      344.05784      0.12735304   
     85100   0.78485121     587.46113      2541.6671      3129.1282      16.271516      343.67133      0.12708481   
     85200   0.78999135     591.30852      1923.6993      2515.0078      14.820165      348.25868      0.12681591   
     85300   0.74944772     560.96161      1991.2279      2552.1895      14.840294      348.23339      0.12657459   
     85400   0.77251193     578.22518      2457.2323      3035.4575      15.990377      343.90362      0.12632324   
     85500   0.73840918     552.69927      2594.2353      3146.9346      16.210392      343.13269      0.12608376   
     85600   0.72229167     540.63532      2265.6016      2806.2369      15.422763      345.37728      0.12583563   
     85700   0.71905629     538.21363      2308.955       2847.1687      15.34263       346.46848      0.12557511   
     85800   0.79511589     595.14424      2325.1402      2920.2844      15.599739      344.82279      0.12534106   
     85900   0.74492385     557.5755       2639.0137      3196.5892      16.10469       343.79494      0.12509516   
     86000   0.75899187     568.10542      2283.414       2851.5194      15.376991      345.32613      0.1248438    
     86100   0.75853798     567.76568      2456.6262      3024.3919      15.622562      345.34628      0.12458721   
     86200   0.72887545     545.56328      2837.5805      3383.1438      16.22289       344.66455      0.12434887   
     86300   0.77153107     577.491        2256.2469      2833.738       15.223666      345.99256      0.12413136   
     86400   0.70178046     525.28267      2719.2317      3244.5143      15.947272      344.64288      0.12391631   
     86500   0.81825233     612.46187      2692.2154      3304.6773      16.247695      342.25442      0.12365349   
     86600   0.7799717      583.80882      2297.6087      2881.4175      15.360013      344.22973      0.12339628   
     86700   0.72574105     543.21718      2617.8524      3161.0696      15.647409      345.46646      0.1231946    
     86800   0.74101471     554.64951      2622.8033      3177.4528      15.855141      343.19046      0.12297255   
     86900   0.77480427     579.941        2872.6927      3452.6337      16.519798      340.63986      0.12271261   
     87000   0.81412742     609.37437      2473.9731      3083.3475      15.60265       343.60914      0.12244707   
     87100   0.72522916     542.83403      2397.7784      2940.6125      15.107546      346.4066       0.1222639    
     87200   0.79399283     594.30363      2959.3457      3553.6493      16.30388       343.68039      0.12204826   
     87300   0.84620746     633.38628      2842.4878      3475.8741      16.237084      342.99017      0.12178918   
     87400   0.79069544     591.83554      2766.5133      3358.3489      15.74702       345.59877      0.12154267   
     87500   0.77567626     580.59368      2528.5483      3109.142       15.333889      345.65861      0.12134702   
     87600   0.7786681      582.83307      2818.0464      3400.8795      16.120801      341.71422      0.12114165   
     87700   0.80739941     604.33846      2740.3397      3344.6781      16.120743      340.51953      0.12090155   
     87800   0.78464313     587.30538      2553.6345      3140.9399      15.539832      342.92179      0.12066287   
     87900   0.7834624      586.4216       2728.5402      3314.9618      15.695364      343.99675      0.12043572   
     88000   0.76609084     573.419        3027.6423      3601.0613      16.183379      343.14227      0.12023575   
     88100   0.76053078     569.25729      3175.6225      3744.8797      16.478168      342.00964      0.12002252   
     88200   0.79051139     591.69778      2731.4051      3323.1029      15.667988      343.48777      0.11978166   
     88300   0.75991925     568.79956      2737.2307      3306.0302      15.56963       343.81264      0.11957531   
     88400   0.77084738     576.97927      2795.0093      3371.9886      15.977091      340.13783      0.1193596    
     88500   0.77589178     580.755        2994.7282      3575.4832      16.405418      338.71961      0.11913052   
     88600   0.74358307     556.57193      2737.3941      3293.966       15.640893      341.99782      0.11890411   
     88700   0.7221648      540.54035      2939.1078      3479.6481      15.805177      342.89055      0.11869766   
     88800   0.79144418     592.39597      2665.4184      3257.8144      15.694846      340.2885       0.11849979   
     88900   0.80907709     605.5942       3160.1336      3765.7278      16.574033      338.97207      0.11826931   
     89000   0.75691408     566.55019      2760.6735      3327.2237      15.690353      340.61268      0.11805052   
     89100   0.75893182     568.06047      3109.094       3677.1545      16.218755      340.42667      0.11783515   
     89200   0.7461444      558.48908      3176.6245      3735.1136      16.334547      339.93167      0.11763731   
     89300   0.72546347     543.00941      3032.7159      3575.7253      16.014793      340.4201       0.11741748   
     89400   0.71366783     534.18037      2918.8626      3453.043       15.883074      339.33641      0.11720788   
     89500   0.75370519     564.14833      3227.7546      3791.9029      16.538726      337.66906      0.11699097   
     89600   0.73876332     552.96434      3217.947       3770.9113      16.270839      339.93192      0.11679184   
     89700   0.83705201     626.53343      2741.6518      3368.1852      15.519248      341.56626      0.11659405   
     89800   0.79363179     594.03339      3023.5891      3617.6225      15.896734      340.97442      0.11637247   
     89900   0.80917152     605.66488      3000.6358      3606.3006      16.030989      339.22188      0.11617164   
     90000   0.7638115      571.71291      3349.8624      3921.5753      16.518122      338.72517      0.11597655   
     90100   0.796251       595.99388      2873.4511      3469.445       15.665847      340.21007      0.11576015   
     90200   0.78146779     584.92864      2881.5569      3466.4856      15.615331      340.37147      0.11554315   
     90300   0.77134056     577.34841      3242.3831      3819.7315      16.291829      338.54108      0.11537029   
     90400   0.79250423     593.18941      3420.7534      4013.9429      16.640699      337.76543      0.11520122   
     90500   0.72254985     540.82856      3222.2099      3763.0385      16.086736      339.00826      0.11497322   
     90600   0.75198524     562.86095      3232.5711      3795.432       16.168458      338.47727      0.11473349   
     90700   0.77975217     583.6445       3266.4804      3850.1249      16.300479      337.67917      0.11455211   
     90800   0.7748548      579.97882      3162.442       3742.4209      16.047164      338.51413      0.11441707   
     90900   0.77098338     577.08106      3171.6602      3748.7412      15.956014      339.20261      0.11421497   
     91000   0.79502362     595.07518      3542.4584      4137.5336      16.626253      337.91966      0.11396902   
     91100   0.7847926      587.41726      3608.0429      4195.4602      16.599027      338.69213      0.11375489   
     91200   0.80810888     604.86949      3156.5978      3761.4673      15.703107      341.57345      0.11362602   
     91300   0.77762794     582.05451      3346.041       3928.0955      15.97456       340.79585      0.11344801   
     91400   0.77203237     577.86623      3802.438       4380.3042      16.966149      337.01925      0.11323949   
     91500   0.78271747     585.86403      3519.1635      4105.0275      16.687676      335.31696      0.11302106   
     91600   0.75328461     563.83353      3676.276       4240.1095      16.691991      336.97068      0.11283873   
     91700   0.79747095     596.907        3059.4127      3656.3197      15.561666      339.80491      0.11264963   
     91800   0.77113346     577.19339      3362.9758      3940.1692      16.133233      337.77938      0.11247333   
     91900   0.79487204     594.96172      4021.5088      4616.4705      17.437712      334.41127      0.11227115   
     92000   0.75902394     568.12942      3747.9844      4316.1139      16.613966      337.74861      0.11206219   
     92100   0.7775354      581.98525      3343.2836      3925.2689      15.728683      341.07851      0.1118916    
     92200   0.74711574     559.21613      3404.0573      3963.2734      16.063681      337.7232       0.1117293    
     92300   0.77631624     581.07271      4071.6438      4652.7165      17.677276      331.37428      0.11151946   
     92400   0.78608651     588.38576      3593.0873      4181.473       16.784446      333.04996      0.1113077    
     92500   0.74058206     554.32567      3376.9204      3931.2461      15.822303      338.79964      0.11113636   
     92600   0.75889895     568.03586      3566.1935      4134.2294      16.148678      338.26582      0.11096628   
     92700   0.7695811      576.03145      4039.1482      4615.1797      17.224956      334.07262      0.11077251   
     92800   0.78033985     584.08437      3941.8643      4525.9487      17.027381      334.55869      0.11059404   
     92900   0.83117955     622.13789      3470.1652      4092.303       15.979019      338.84058      0.11040728   
     93000   0.75839968     567.66216      3350.7734      3918.4355      15.637436      339.38573      0.11024737   
     93100   0.81261843     608.2449       3945.5668      4553.8117      17.105354      333.42848      0.11004958   
     93200   0.76949498     575.96699      3994.5922      4570.5592      17.213731      332.05823      0.10984359   
     93300   0.7380712      552.44629      3497.5825      4050.0288      16.061428      335.82655      0.10969548   
     93400   0.77952303     583.47299      3584.2709      4167.7439      16.130353      336.80901      0.10953985   
     93500   0.73944972     553.47812      3901.7974      4455.2755      16.762084      334.04122      0.10933969   
     93600   0.78043445     584.15518      4176.2669      4760.4221      17.357676      332.35621      0.10914105   
     93700   0.77664486     581.31868      3821.3623      4402.6809      16.481844      335.82337      0.10896616   
     93800   0.78313327     586.17525      3346.0914      3932.2666      15.618289      337.61277      0.10882691   
     93900   0.83427902     624.45784      3952.5827      4577.0405      16.87602       334.14898      0.10864753   
     94000   0.79295701     593.52832      4415.1276      5008.6559      17.465367      333.78612      0.10844239   
     94100   0.81938223     613.3076       3430.8272      4044.1348      15.755155      337.22421      0.10828321   
     94200   0.78958688     591.00578      3891.9052      4482.911       16.432825      336.27553      0.1081423    
     94300   0.81505214     610.06652      4083.665       4693.7316      17.063701      332.61399      0.10794873   
     94400   0.78016879     583.95634      4041.4829      4625.4392      16.941747      332.37954      0.10776159   
     94500   0.74317295     556.26495      3848.0213      4404.2862      16.429614      334.15689      0.1076023    
     94600   0.77931708     583.31884      4046.4055      4629.7244      16.783346      333.57609      0.10744087   
     94700   0.77298708     578.58083      4019.5282      4598.109       16.760858      333.13732      0.10725742   
     94800   0.8357103      625.52916      3837.4555      4462.9847      16.500261      333.76266      0.10708649   
     94900   0.77150442     577.47106      3800.7178      4378.1889      16.230635      334.73276      0.10692328   
     95000   0.74477157     557.46152      4193.6855      4751.147       16.820001      333.73149      0.10676306   
     95100   0.797409       596.86064      3882.2233      4479.0839      16.525043      332.79106      0.10659221   
     95200   0.73880648     552.99665      4243.3325      4796.3292      17.017527      331.74407      0.10641      
     95300   0.78067354     584.33414      4168.4379      4752.772       16.932636      331.8599       0.10624705   
     95400   0.77771834     582.12218      4211.7673      4793.8895      16.866866      333.00903      0.10608349   
     95500   0.80781636     604.65054      4030.9818      4635.6323      16.482174      334.47582      0.10591332   
     95600   0.8053117      602.77581      3988.448       4591.2238      16.49663       333.42381      0.1057716    
     95700   0.79499079     595.05061      4179.5156      4774.5662      16.995306      330.56428      0.10559991   
     95800   0.72473387     542.4633       4525.7543      5068.2176      17.414644      329.91438      0.10541904   
     95900   0.76870719     575.37733      4241.4135      4816.7909      16.809853      332.41349      0.10525955   
     96000   0.80604029     603.32116      3931.8192      4535.1404      16.321928      333.47244      0.10511525   
     96100   0.75275448     563.43673      4309.0725      4872.5092      16.906707      331.59857      0.10493855   
     96200   0.76871911     575.38625      4372.3256      4947.7119      17.130362      330.16589      0.10477082   
     96300   0.80159835     599.99636      4361.4907      4961.4871      17.169942      329.97626      0.10461536   
     96400   0.74855662     560.29463      4163.6387      4723.9333      16.590561      332.00728      0.10446001   
     96500   0.74239952     555.68604      4307.0539      4862.74        16.717446      332.56593      0.10429791   
     96600   0.77294099     578.54633      4393.127       4971.6734      16.993439      330.97578      0.10413374   
     96700   0.76385169     571.74299      4478.6208      5050.3638      17.140684      330.33457      0.10400213   
     96800   0.79320381     593.71305      4230.0705      4823.7836      16.674431      331.77301      0.10385356   
     96900   0.81016367     606.40751      4170.5214      4776.929       16.482482      332.92794      0.10366207   
     97000   0.78845686     590.15996      4520.6537      5110.8136      17.089989      331.04891      0.10349059   
     97100   0.78165291     585.0672       4574.8582      5159.9254      17.261287      329.62776      0.10336725   
     97200   0.77405534     579.38042      4310.9992      4890.3796      16.720145      331.16995      0.10322969   
     97300   0.75942194     568.42732      4079.0312      4647.4585      16.250939      332.30354      0.10304275   
     97400   0.73857269     552.82166      4614.3502      5167.1718      17.168427      329.68819      0.1028716    
     97500   0.78950532     590.94473      4521.0847      5112.0294      17.274228      327.76419      0.10273202   
     97600   0.80763335     604.51356      4481.5401      5086.0536      16.947229      330.57689      0.10257543   
     97700   0.77855422     582.74783      4277.9722      4860.72        16.303828      334.03329      0.10241973   
     97800   0.76126294     569.80531      4602.1777      5171.983       16.888353      331.74628      0.10228359   
     97900   0.82179616     615.11443      4902.7627      5517.8771      17.831548      327.04927      0.10214246   
     98000   0.73493394     550.09805      4713.0764      5263.1744      17.304676      328.0892       0.10197583   
     98100   0.78360236     586.52636      4088.6909      4675.2173      16.079625      332.55187      0.10180635   
     98200   0.80288196     600.95715      4316.2065      4917.1637      16.335705      333.17989      0.1016752    
     98300   0.76719412     574.2448       4864.9893      5439.2341      17.462471      328.28571      0.10154154   
     98400   0.78859856     590.26602      5046.241       5636.5071      17.935305      325.99944      0.10137449   
     98500   0.78823158     589.99134      4228.3363      4818.3277      16.381991      330.28783      0.1012092    
     98600   0.81138176     607.31924      4234.2703      4841.5895      16.176562      332.81396      0.10107081   
     98700   0.77497451     580.06842      4835.8866      5415.955       17.136978      330.28982      0.10094632   
     98800   0.85037244     636.50377      4884.1968      5520.7006      17.500917      328.26644      0.10080586   
     98900   0.79209367     592.88212      4592.0792      5184.9614      16.83193       329.93855      0.10064644   
     99000   0.74477907     557.46714      4728.2037      5285.6708      16.891695      330.20848      0.1004987    
     99100   0.78934674     590.82603      4712.3365      5303.1625      17.072144      328.50721      0.10035496   
     99200   0.76749545     574.47035      5011.7446      5586.215       17.571912      327.01656      0.10021786   
     99300   0.77286632     578.49044      4948.95        5527.4404      17.359088      327.98178      0.10006419   
     99400   0.76582411     573.21935      4592.7844      5166.0037      16.669887      329.92997      0.099917599  
     99500   0.75616204     565.98729      4953.8055      5519.7928      17.199633      328.93686      0.099787445  
     99600   0.79951529     598.4372       5246.5848      5845.022       17.810913      327.16243      0.099641211  
     99700   0.7774486      581.92028      5020.9858      5602.9061      17.412623      327.48614      0.099492568  
     99800   0.80955035     605.94844      4705.855       5311.8034      16.880854      328.97329      0.099348197  
     99900   0.73948978     553.5081       4693.8229      5247.331       16.72458       328.96133      0.099221813  
    100000   0.7769343      581.53532      5161.015       5742.5503      17.691475      325.87914      0.099085059  
Loop time of 30.5418 on 8 procs for 50000 steps with 500 atoms

Performance: 565782.224 tau/day, 1637.101 timesteps/s, 818.551 katom-step/s
93.2% CPU use with 8 MPI tasks x no OpenMP threads

MPI task timing breakdown:
Section |  min time  |  avg time  |  max time  |%varavg| %total
---------------------------------------------------------------
Pair    | 14.696     | 16.079     | 17.585     |  22.9 | 52.65
Neigh   | 0.1306     | 0.1353     | 0.14018    |   0.9 |  0.44
Comm    | 6.3376     | 7.6672     | 8.7949     |  31.8 | 25.10
Output  | 0.007966   | 0.0082877  | 0.0098453  |   0.7 |  0.03
Modify  | 2.4562     | 2.6986     | 2.995      |  12.9 |  8.84
Other   |            | 3.953      |            |       | 12.94

Nlocal:           62.5 ave          68 max          57 min
Histogram: 2 0 2 0 0 0 1 0 1 2
Nghost:         2853.5 ave        2859 max        2848 min
Histogram: 2 1 0 1 0 0 0 2 0 2
Neighs:        18318.8 ave       20546 max       16174 min
Histogram: 2 0 1 1 1 0 0 0 0 3

Total # of neighbors = 146550
Ave neighs/atom = 293.1
Neighbor list builds = 307
Dangerous builds = 0
Total wall time: 0:00:46
