LAMMPS data file via write_data, version 23 Jun 2022, timestep = 0

500 atoms
1 atom types

0 8.009156365175343 xlo xhi
0 8.009156365175343 ylo yhi
0 8.009156365175343 zlo zhi

Masses

1 1

Atoms # atomic

63 1 3.1702611182249187 3.1472516770250523 3.151816620044238 0 0 0
39 1 0.0398184782073141 2.4211853918388826 2.3223790802089614 0 0 0
251 1 3.99309203648592 0.7824473175734994 0.07204865189744569 0 0 0
62 1 1.6537536035633211 3.2694865649031573 3.109829473537695 0 0 0
34 1 3.284339517565743 0.022486692603127523 1.6391801261020267 0 0 0
73 1 3.1496449027778946 2.531934734461159 3.912898646237167 0 0 0
301 1 3.975996150640955 0.8909660533701084 3.281451584244189 0 0 0
8 1 1.56629466070049 0.6457126198559575 0.858246535794792 0 0 0
25 1 3.23340080517112 3.0860867935168024 0.03375516494885176 0 0 0
10 1 3.216501189948413 0.7624457784152251 0.7299175043582006 0 0 0
60 1 3.116136198065629 1.7329614816684895 3.2335174502699724 0 0 0
28 1 0.7140552684887961 0.03718967033436904 2.437822984374417 0 0 0
13 1 0.8088548484774944 1.6352152061281582 0.8277498673147378 0 0 0
64 1 0.6041943013476506 0.05922702280928682 3.8469605542480028 0 0 0
50 1 3.255528725607669 3.24264340341389 1.6022258820958841 0 0 0
177 1 2.3489338532253563 3.974381349972867 3.1864123112291667 0 0 0
17 1 2.351629235080452 1.4789257024425717 0.766256504708275 0 0 0
18 1 1.6081204612253763 2.3026013332086688 0.958235504256447 0 0 0
287 1 3.996363446480377 1.7482681073682809 2.5142410338219117 0 0 0
20 1 3.2368541582476156 2.4096827706914214 0.9303954283632578 0 0 0
296 1 3.932002638956628 3.3095693004919076 2.388246229068464 0 0 0
22 1 0.8127285668183201 3.1844094676879977 0.8125587667497385 0 0 0
52 1 0.7174841072892251 0.9305113716780552 3.120546530638004 0 0 0
24 1 2.453477266730878 3.164663410960277 0.8314823776218819 0 0 0
45 1 3.2558658797722932 2.4901360738363154 2.260595086107236 0 0 0
59 1 2.2873325606991513 2.3768034094074273 3.272379370298974 0 0 0
27 1 0.8278192552271774 0.7884767930710049 1.59609932822827 0 0 0
47 1 0.8224604165149784 3.261228437434798 2.3352974808560485 0 0 0
58 1 1.525900100231804 1.6778195083092797 3.192140370153132 0 0 0
49 1 2.4151715152012962 3.1515731257179485 2.3248673837434293 0 0 0
31 1 2.381679886520691 0.6754278267480469 1.7132512951074754 0 0 0
44 1 3.193188288926965 1.4759841908108227 1.5879382212287207 0 0 0
33 1 1.5732283335377102 0.8006370470934013 2.408907337331971 0 0 0
54 1 2.3534831334942434 0.7824088146063226 3.127393303058921 0 0 0
35 1 3.188662833827333 0.7044486706074337 2.5353164877450203 0 0 0
57 1 0.8935942969769645 2.4936875031840553 3.206773759660528 0 0 0
37 1 0.7529816503232019 2.4407538110468687 1.5122296517843818 0 0 0
38 1 0.8509982337886954 1.5975793961556783 2.270476396145617 0 0 0
48 1 1.6396004564969768 3.320423813675383 1.6777991569317727 0 0 0
40 1 1.6840567375428723 1.4781520642394246 1.556714064809428 0 0 0
41 1 2.5028389222821246 2.2100301744643884 1.624703357563641 0 0 0
42 1 2.407634679733853 1.514343319000209 2.4235132899644416 0 0 0
43 1 1.4966504322786587 2.363097535538321 2.2435386603625234 0 0 0
176 1 0.7797154088095285 3.9947682464512164 3.320127937739131 0 0 0
68 1 3.1503502271442243 0.6610382259912975 3.989515293933447 0 0 0
70 1 0.04672278004595029 2.391108243645624 4.004519774980695 0 0 0
129 1 1.67107399535979 3.8802383862014858 0.8145817037454199 0 0 0
61 1 0.061807604410386574 3.127064013594544 3.0734127917240386 0 0 0
426 1 3.9201188220105103 3.922680560283196 3.336633118424248 0 0 0
56 1 0.00854438518310019 1.7206979943666378 3.150756454861005 0 0 0
151 1 0.8448791340072712 3.9981286233616125 1.62095665441581 0 0 0
12 1 0.8874801849783838 2.4324145461018345 0.02640284909242574 0 0 0
67 1 1.4375219200735583 0.7428136039603633 3.937199612879817 0 0 0
126 1 0.8601584855248612 3.968417911473439 0.05603592027144977 0 0 0
19 1 3.300974500836019 1.65759829091777 0.11705945139656038 0 0 0
23 1 1.6305110418234618 3.2000982984448467 0.045742523988213435 0 0 0
2 1 0.6520629118722652 0.9681222127001949 0.06328776461502983 0 0 0
5 1 1.524947884786414 0.04384902507852948 0.07503383612373682 0 0 0
89 1 0.03534717495123196 2.4162710581227502 5.660571192355564 0 0 0
121 1 0.041805267489914755 3.180037384417793 6.48327163107241 0 0 0
229 1 1.5931149393437778 3.963225216427495 7.278445188852318 0 0 0
96 1 0.08363446088687354 3.22661101035267 4.730102882994752 0 0 0
75 1 2.410424423199135 3.2545881200154847 4.048243638845949 0 0 0
226 1 0.8667280322793827 3.949260316346354 6.427818793119348 0 0 0
125 1 3.149682833423142 3.1730327857628353 6.309459508975228 0 0 0
79 1 0.014786194323194835 0.9246122285990336 5.5865543707359295 0 0 0
16 1 2.4209177739806753 2.409254993876617 7.953624604793071 0 0 -1
337 1 3.992967879346017 1.626813205438104 5.624166397978437 0 0 0
74 1 0.9634966246069896 3.1571444035984277 4.070241250612429 0 0 0
115 1 1.5340012317214433 1.526017351886827 6.300769059062235 0 0 0
124 1 2.4852047189190425 3.2471234274304734 7.1107938724156945 0 0 0
77 1 0.7023159740693314 0.8834308041464035 4.80134016513831 0 0 0
120 1 3.310626723625525 2.4655617787230977 7.123778135367551 0 0 0
123 1 1.6654920370181512 3.2396901828500675 6.4260473498808075 0 0 0
80 1 1.2814136979026522 0.013313719203704721 4.6680915660740805 0 0 0
81 1 2.4084464708859326 0.7432292987428194 4.657501840819424 0 0 0
110 1 3.2194207984826892 0.8776926747547796 7.294853751978858 0 0 0
83 1 1.5936008979962217 0.7226879533671319 5.448740000520013 0 0 0
118 1 1.6246691734679481 2.38890436623314 7.328296620007587 0 0 0
85 1 3.1836742970057723 0.7117730776777849 5.499365584169177 0 0 0
122 1 0.8385509261018286 3.106319333565842 7.176012608588124 0 0 0
87 1 0.8314208514243108 2.383824850697523 4.803247507805032 0 0 0
88 1 0.8712988913564843 1.7166679348238678 5.558672844131845 0 0 0
112 1 0.9061740319680403 2.427935976868013 6.361146628165315 0 0 0
90 1 1.611627958950664 1.6083584040819863 4.84524408912484 0 0 0
91 1 2.4671486894443437 2.3677347447340784 4.753696912889056 0 0 0
92 1 2.4253908527464905 1.5589530143204673 5.591075132723731 0 0 0
93 1 1.7091758176922958 2.349229537830196 5.4977105608200825 0 0 0
94 1 3.2947357381625975 1.4999847192128155 4.739413158870018 0 0 0
95 1 3.1102318582606325 2.3569888656926983 5.5485777413317985 0 0 0
113 1 0.795467381917177 1.6904575298649953 7.139736627732311 0 0 0
97 1 0.7849811835380612 3.2737659410131323 5.662202749470907 0 0 0
98 1 1.5181446556189844 3.1706457426536447 4.884007149903325 0 0 0
99 1 2.3513632060976946 3.168929968020431 5.516167267304599 0 0 0
100 1 3.3516055754310505 3.1206183449644764 4.782944685228642 0 0 0
117 1 2.464445181432364 1.5018834096186136 7.191642585918002 0 0 0
102 1 0.7740165009710551 0.8376236066008405 6.328130907114928 0 0 0
116 1 2.2723474712228646 2.2791273756412767 6.441726625368341 0 0 0
108 1 1.5058023407429342 0.8111114498935945 7.154825325449756 0 0 0
119 1 3.304384288552865 1.5304793772607972 6.45819576889348 0 0 0
106 1 2.5501704812688994 0.7023278074824908 6.408036460272495 0 0 0
111 1 0.21268857143206393 1.667935884054763 6.406483227899907 0 0 0
346 1 3.9942012757750436 3.2435838792100777 5.582404553520454 0 0 0
205 1 3.280547684938385 3.969524037583747 5.465502679326463 0 0 0
104 1 0.09730610930814443 0.8828222688129037 7.215883357991326 0 0 0
326 1 3.9424428019831113 0.5516290437521724 4.833329591726824 0 0 0
203 1 2.3708301947834327 4.0033504529896256 4.763667961797878 0 0 0
72 1 1.6862021438337198 2.4442553617877474 4.160028187278339 0 0 0
227 1 0.18718595457341536 3.865199718289252 7.274827136759498 0 0 0
69 1 0.8532769882164936 1.6687785551462777 4.061030213442017 0 0 0
362 1 3.9825469701567004 1.5991279195987764 7.232863722993944 0 0 0
114 1 0.05619332526118964 2.426627701311678 7.286724373301864 0 0 0
327 1 3.9960115136828764 0.0004056167741026684 5.766658479712895 0 0 0
105 1 1.5354497533000726 0.016516639700356262 6.273084300834139 0 0 0
190 1 3.1512155943180247 4.004254821247256 4.073056541076014 0 0 0
6 1 2.3624602570461914 0.6854830295893231 7.92743794899453 0 0 -1
189 1 1.5958933397302604 3.8864156037710744 4.024809773865536 0 0 0
82 1 2.33622160151788 0.005351821957868097 5.477496392514021 0 0 0
65 1 0.06660231286196883 0.9815938630510203 4.046591384475827 0 0 0
9 1 3.2115008927791044 0.033396629245771456 7.924084587062777 0 0 -1
15 1 1.6123410850746578 1.5408634479032022 7.945302007447182 0 0 -1
376 1 3.9491999047139776 3.9408735766107448 7.974297186014257 0 0 -1
71 1 2.377162481968995 1.5001054974004067 4.0370725697438195 0 0 0
128 1 2.545145476656858 3.8546858857915027 7.9822738993288365 0 0 -1
407 1 3.951380001759755 4.806056648564925 2.3496903423044975 0 0 0
153 1 2.4784790427033245 4.077609125364652 1.5484773823731879 0 0 0
155 1 3.1884862136841257 4.106024487214746 2.4869866784259402 0 0 0
134 1 0.07689174291448708 5.455959124475036 0.7695275191314456 0 0 0
392 1 3.9611401155509696 6.468232997915855 0.8591197405275592 0 0 0
187 1 3.2050829837306214 6.422598471835317 3.173646130654414 0 0 0
32 1 2.2878998464603453 7.900813195287479 2.426886747503702 0 -1 0
133 1 0.8325427185181058 4.76232221410559 0.7697577450232495 0 0 0
186 1 2.356590488543046 7.167479805748164 3.2089442796381635 0 0 0
252 1 3.9595971872639657 8.001032311766473 0.8065805922152854 0 -1 0
127 1 0.04251660757705267 4.139550211747571 0.7587839930479751 0 0 0
137 1 2.3991901295776734 4.874906658060127 0.7791315541871469 0 0 0
138 1 1.727895385297854 5.671724692289045 0.6442358655125033 0 0 0
200 1 3.1796069160116307 7.066418602301022 3.9644907222280663 0 0 0
140 1 3.3726880926749367 5.592426063032614 0.7115008327026229 0 0 0
171 1 2.368428255102551 7.116929863145219 1.6951256667440673 0 0 0
434 1 3.9717413817150753 7.184712603312157 3.1795980070243393 0 0 0
143 1 0.6951075345592879 6.408694540049872 0.7469496145536021 0 0 0
185 1 1.3819831147193156 6.437293022199667 3.3228858733234734 0 0 0
30 1 1.5262424813011488 7.816232198367208 1.7213773763877762 0 -1 0
174 1 3.205910760322706 6.245171507263219 1.5969087696306696 0 0 0
147 1 2.4674101095382523 6.449916413769536 0.8378368057212968 0 0 0
148 1 1.544294657086994 7.2313436581151755 0.7645433146107202 0 0 0
173 1 1.589795476473489 7.126818293739392 2.5476543961938 0 0 0
150 1 3.244896787231105 7.22344228535529 1.0495783778918937 0 0 0
191 1 0.8368093720788231 4.936679311898396 3.97308090256106 0 0 0
172 1 2.550327900255643 6.337793887641259 2.439094911207728 0 0 0
181 1 2.293554718725833 5.580862047668756 3.2745890869345233 0 0 0
175 1 3.3123509101272184 7.190608213784125 2.315290580252646 0 0 0
179 1 0.7599863680648512 5.630197183114221 3.2050481412123903 0 0 0
182 1 3.1557421375050714 4.8284514910764145 3.1874822169699213 0 0 0
157 1 0.7399868949412302 5.464678531833927 1.606421053729913 0 0 0
158 1 0.7085085052940912 4.818098540761103 2.5126268061281727 0 0 0
180 1 1.5446068156662967 4.7179751234181095 3.2490438737533243 0 0 0
160 1 1.5449018836479937 4.75955248126554 1.5022132985742975 0 0 0
161 1 2.4949319569862984 5.551332585310828 1.5805290191532622 0 0 0
162 1 2.3485423541664816 4.9045375894029615 2.389886046014665 0 0 0
163 1 1.6360555721167767 5.679594416116736 2.339792541714269 0 0 0
164 1 3.2712280123584327 4.77037853142292 1.5703845001057535 0 0 0
165 1 3.1581374156572877 5.537645064266357 2.4163730287185685 0 0 0
3 1 0.5360637288884508 7.848066874711469 0.7713633786530839 0 -1 0
167 1 0.7998797862319972 7.032551219905914 1.5840580321816777 0 0 0
168 1 0.7147819744525645 6.381844874216491 2.372989706594472 0 0 0
184 1 0.6868802349372989 7.2143434268044375 3.059307361663147 0 0 0
170 1 1.5624830134635017 6.291898341318069 1.5048806157124874 0 0 0
53 1 1.517214287150963 7.917259004439426 3.134217338760222 0 -1 0
142 1 0.8239633577104022 7.172563887872075 0.031618239270772244 0 0 0
26 1 0.015099987075438932 7.996087080790246 1.706301843835833 0 -1 0
429 1 3.9477466713750915 5.6631201109872675 3.1420811526154857 0 0 0
178 1 5.498492919286946e-05 4.787070931852273 3.347989757370119 0 0 0
313 1 3.9459303422832748 7.862949164413109 4.0040802373595135 0 -1 0
130 1 3.162263372694931 4.005583740062793 0.7660961570271976 0 0 0
441 1 3.9197635368925328 4.794362122990619 3.8910729051887887 0 0 0
66 1 2.1634644926223654 7.979508045407526 3.9862543578157226 0 -1 0
154 1 1.6129237597507415 4.117350576863047 2.326747399571111 0 0 0
55 1 3.125277909655324 7.940065422066323 3.23717997176628 0 -1 0
7 1 2.3117356933285023 8.002248821240538 0.7126836940922704 0 -1 0
277 1 3.946141491336404 7.983599716394537 2.505162394950069 0 -1 0
136 1 2.4672663857185864 5.606290924052602 0.0013326187365443332 0 0 0
132 1 0.8507411286103086 5.5733258634129275 0.022373631059640076 0 0 0
135 1 1.6385161181199133 4.6659304686492336 0.08531926094535969 0 0 0
391 1 3.884339713026317 7.280379741009471 0.1162799130625416 0 0 0
149 1 3.14852333119692 6.468143310760815 0.13988860414023918 0 0 0
195 1 3.1922925698985516 5.610844540035122 3.9762943689617742 0 0 0
193 1 2.252925234929287 4.724862142792939 4.002985133280122 0 0 0
245 1 1.550490893637866 6.344207305842736 6.4255820683657525 0 0 0
109 1 3.225872650780645 7.902027964846799 6.461004427057188 0 -1 0
202 1 0.0674937692846651 4.107669014551545 5.7417196934896015 0 0 0
241 1 0.021317840491053185 6.368562208016106 6.418627415929965 0 0 0
234 1 0.006618858297369605 5.541183393863635 7.193834027831261 0 0 0
239 1 3.3260783838806587 4.834688534866682 6.302764402910894 0 0 0
76 1 0.015225004198948176 7.93805091265914 4.811046544573326 0 -1 0
206 1 0.03143039894493392 4.7816437690629865 4.729725542586087 0 0 0
219 1 0.023878512142040655 7.2250596192305405 5.69657826812628 0 0 0
84 1 3.11730616670639 7.985737638743185 4.778910919732007 0 -1 0
198 1 2.4390927617156133 6.438210408826292 4.030537446440309 0 0 0
492 1 3.8316424318292874 6.529132392011568 7.3747420502852945 0 0 0
228 1 2.451823565952615 4.027297756906499 6.3258605988430805 0 0 0
240 1 3.252602564215065 5.5121692729699525 7.206771768916194 0 0 0
236 1 2.531736050178757 5.517987746902482 6.489595707972625 0 0 0
237 1 2.5142525311915076 4.691363676662455 7.257476990276714 0 0 0
246 1 2.2780280472529175 7.068372749179947 6.284290671435461 0 0 0
235 1 1.6558354128920467 4.906505405153845 6.379747271585477 0 0 0
250 1 3.1621876720089346 7.239529290657227 7.191955531886425 0 0 0
207 1 0.7659580020688224 5.543650909723987 4.869029836095588 0 0 0
208 1 0.8607844400443809 4.762126460643405 5.5726883770456315 0 0 0
249 1 3.217679075117063 6.578980065319786 6.354898933162548 0 0 0
210 1 1.6539523868262005 4.802067175037462 4.856597471256732 0 0 0
211 1 2.5152326753701733 5.662526370859996 4.72446048120054 0 0 0
212 1 2.4206887461672233 4.833652904941921 5.579912144510729 0 0 0
213 1 1.8281829677253854 5.740635277557719 5.642942142576307 0 0 0
214 1 3.075908024172853 4.825358686656658 4.680920863107965 0 0 0
215 1 3.2606340102969 5.5407747983195 5.577235291827083 0 0 0
481 1 3.892275581296294 5.811717399539701 6.492991039748395 0 0 0
217 1 0.729746665003413 7.145725110120495 4.861869440843103 0 0 0
218 1 0.7600756301250446 6.297024252093333 5.729456146386475 0 0 0
233 1 0.9559161686747745 4.840514021686064 7.208508227655797 0 0 0
220 1 1.6700943182188548 6.358789185825795 4.819340962921271 0 0 0
221 1 2.4544181443751554 7.216510797507356 4.79676126949335 0 0 0
222 1 2.5913797002768484 6.363646460371294 5.583200017075318 0 0 0
223 1 1.5525469260074463 7.066220696306061 5.553915924893122 0 0 0
224 1 3.379112243155747 6.309675714222933 4.859412352171665 0 0 0
225 1 3.276482895347424 7.255772920489272 5.547352632141063 0 0 0
247 1 2.3443724501105834 6.341024561662442 7.172895598713311 0 0 0
243 1 0.7533725771690166 6.375957135101277 7.280573234366495 0 0 0
248 1 1.6531874825412871 7.173479292093074 7.150272587608594 0 0 0
242 1 0.8779173682996873 7.147728218393359 6.364428457425234 0 0 0
238 1 1.6259803496668832 5.568003189861013 7.163182538344061 0 0 0
232 1 0.8526017253690339 5.502205815448326 6.358754623454167 0 0 0
194 1 1.6000655815617624 5.579230469787482 4.09259167962982 0 0 0
146 1 2.417071698883891 7.36483769118155 7.916220553092976 0 0 -1
216 1 0.0014421214926504246 6.450449227971218 4.8184028553351155 0 0 0
244 1 0.01622763382728008 7.20980949541515 7.236227532672171 0 0 0
230 1 3.276809108516397 4.102077034079864 7.041057075019253 0 0 0
103 1 0.8443445376128039 7.923633823044371 7.06900005571312 0 -1 0
201 1 0.8020229341724675 4.145004243322267 4.661854485200665 0 0 0
107 1 2.3389213988338997 7.981165035648069 7.097107980118787 0 -1 0
78 1 0.7126416584130979 7.97026432634881 5.62353570682674 0 -1 0
204 1 1.687447610188727 4.045551226530725 5.506171286060731 0 0 0
199 1 1.5460486940825569 7.1012719285806005 4.086085956453283 0 0 0
145 1 1.6851732188212025 6.529039952715155 7.96399999278166 0 0 -1
196 1 0.6734198513740398 6.352980704452155 4.044001058994394 0 0 0
139 1 3.2355955310228643 4.765995861493886 7.973361994744518 0 0 -1
312 1 6.340317616637622 3.142567695211434 3.245148982995682 0 0 0
29 1 7.959653940635975 0.8270213169391045 2.368915343746874 -1 0 0
378 1 4.875088048859581 3.965461863890116 0.8546985277783393 0 0 0
259 1 7.3191212768011935 0.002089984722314142 0.8705639311778981 0 0 0
302 1 4.662005494166797 0.0429384308262204 3.2059003229953618 0 0 0
256 1 4.806317700736497 0.8948872105271836 0.9393923940437787 0 0 0
304 1 6.573787157327401 0.06206497587193205 3.2336428021915498 0 0 0
1 1 7.852455160921004 0.18388893958508312 0.02688783184533624 -1 0 0
276 1 4.073302173256762 0.8032962556296259 1.6414900291909946 0 0 0
260 1 6.469811364142155 0.7402282195635335 0.837264544489618 0 0 0
280 1 5.626650034832275 0.08318446778750399 2.4136174434339166 0 0 0
311 1 4.814276793846489 3.3375169869208605 3.2047213656062774 0 0 0
428 1 7.119447873868488 3.9342669762911875 3.075617697077688 0 0 0
307 1 4.812454755636541 1.7299469780742252 3.3500962806273877 0 0 0
265 1 5.501850021526604 1.7593344451921877 0.7463970974584083 0 0 0
266 1 4.688233583099952 2.3824154061631817 0.7710850201461479 0 0 0
309 1 6.312461470120207 1.5550212479338583 3.3059936807125467 0 0 0
298 1 5.5649004543091944 3.3081376824891384 2.4778686891891484 0 0 0
269 1 7.189489356099684 1.514797208085279 0.9373054346352893 0 0 0
270 1 6.3959702674029435 2.478420051975148 0.8225680354467694 0 0 0
152 1 7.854942728811829 3.991366927268284 2.3637115574615626 -1 0 0
278 1 4.776206973736342 0.13308117714355383 1.6575919323175106 0 0 0
273 1 5.590687517659972 3.1631016020752836 0.6972880942028189 0 0 0
305 1 7.162508474960358 0.9049546628756847 3.155192496262589 0 0 0
275 1 7.127808972790912 3.229443953201981 0.7572907492915408 0 0 0
300 1 7.185179802664274 3.1619142085888616 2.3769722931883055 0 0 0
299 1 6.332912875599564 3.1426473320693136 1.6113275123658728 0 0 0
297 1 4.845242611153786 3.2212073270412676 1.6853850530468546 0 0 0
279 1 5.597085286505452 0.8191889433474213 1.569266123416702 0 0 0
308 1 5.641145458020191 2.39760761806834 3.224274877009102 0 0 0
281 1 4.839374802151462 0.8988710964504212 2.516115077068675 0 0 0
11 1 7.886720736379832 1.7011009179051089 0.06689019754946528 -1 0 0
283 1 7.189490928075175 0.7979063126081353 1.680047525009293 0 0 0
295 1 6.305996157130564 2.376681746437004 2.363190699312313 0 0 0
285 1 6.341109777272483 1.0048593752883384 2.3566796867089854 0 0 0
310 1 7.190081663584075 2.3835193958861014 3.217564962140455 0 0 0
303 1 5.543132969946188 0.6161135334653463 3.3279486933749243 0 0 0
288 1 4.822697037012647 1.6400235507644745 1.715393988490677 0 0 0
289 1 5.543745786848078 2.4876185520632403 1.6975352789964355 0 0 0
290 1 5.552002612877696 1.5712689806457592 2.390544411651917 0 0 0
291 1 4.759030697593983 2.5304253164947634 2.47295283453445 0 0 0
292 1 6.287643603964315 1.6489730896569712 1.5796026262352407 0 0 0
293 1 7.189741474716615 2.3618711454423713 1.6081532371348708 0 0 0
294 1 7.162883288866787 1.6245110024782268 2.406801073819799 0 0 0
286 1 4.04224052887275 2.455869414476036 1.6085374924348068 0 0 0
306 1 4.0800974938642005 2.400318549114286 3.2875836401232412 0 0 0
271 1 4.0185025765909925 3.2250751217729525 0.7980296085882821 0 0 0
21 1 7.978896611505689 3.2261622324323205 0.03413865804707059 -1 0 0
46 1 7.951027387356327 3.242505958245215 1.6481409423066316 -1 0 0
36 1 7.938057502914201 1.5926383958121124 1.627623945556644 -1 0 0
4 1 8.000973620742506 0.8537094874624899 0.9440536538986105 -1 0 0
282 1 6.302547269855349 0.008213437726240015 1.599063467810356 0 0 0
51 1 7.793216855750335 0.016303716601507645 3.0562882638522937 -1 0 0
380 1 6.294178047718553 3.917275014875958 0.8434469655183594 0 0 0
262 1 4.018432465126859 1.6577472430731588 0.9267883057912901 0 0 0
405 1 6.377699391323436 3.945327713757042 2.459478311853517 0 0 0
14 1 7.983081078577615 2.4982909662562096 0.8519314666856668 -1 0 0
325 1 7.1587603858726725 3.141421393410123 3.9983472237955544 0 0 0
323 1 4.054527178900599 3.2201319594062134 3.9913149634696548 0 0 0
254 1 5.535294955751646 0.7524268203467825 0.04687552796193373 0 0 0
320 1 4.820156300806704 2.5589249794521782 3.98401765900897 0 0 0
316 1 7.362377124308866 0.044799577962788106 3.9748869840606673 0 0 0
267 1 6.4469711131132215 1.7135087483079543 0.14036919211333476 0 0 0
188 1 7.884269206393721 3.943521811635859 3.910230169410436 -1 0 0
479 1 7.342004641113482 4.000041464767137 6.538986911060974 0 0 0
257 1 6.4305652050328765 0.11682101747845818 8.000838628300059 0 0 -1
357 1 6.316925138934007 0.04532939284176862 6.381669968938512 0 0 0
263 1 4.713595279957444 1.6627163281797441 7.951414432308667 0 0 -1
440 1 6.430674408435786 3.967269441285154 4.111086716477453 0 0 0
375 1 7.2451189061434995 3.2564629172198445 7.232476551798725 0 0 0
476 1 4.080198022920974 3.9589830485340167 6.283385332982046 0 0 0
371 1 4.055926449923446 3.252280431208865 7.1890481436754685 0 0 0
353 1 4.831434981650452 0.07454281480793401 6.440957653575188 0 0 0
322 1 6.365490692283781 2.2643634515158415 4.012671543315112 0 0 0
359 1 7.189660326071514 0.09906348886664418 7.189003860851926 0 0 0
332 1 6.445684708650491 0.053096977982624576 4.8467057759720555 0 0 0
370 1 6.489868231421163 2.3515053808372737 7.124852191602077 0 0 0
360 1 6.49438687724531 0.8276221418816657 7.154824883659599 0 0 0
374 1 6.53004657443712 3.2768570996980593 6.452962769760022 0 0 0
363 1 4.664870419240964 1.6791791532932279 6.423131260262564 0 0 0
329 1 5.664091170589438 0.8262667064015505 4.893429431555574 0 0 0
369 1 7.209522509726963 1.586977686347025 7.2200060964189605 0 0 0
331 1 4.757143232443937 0.7020017715843042 5.634303635153109 0 0 0
274 1 6.381617222303914 3.2130481137539375 7.932365073713245 0 0 -1
333 1 7.266958721697524 0.9048575925698994 4.807391198003473 0 0 0
358 1 7.4040304414794464 0.8860302043542089 6.477432014034528 0 0 0
335 1 6.590594560505954 0.8598866912009321 5.617450411967332 0 0 0
373 1 5.67870616993067 3.20166985239217 7.23456297479893 0 0 0
368 1 7.263733280563864 2.4114722620495677 6.488694780788214 0 0 0
338 1 4.898765955747241 1.4654315783781935 4.785334696890603 0 0 0
339 1 5.651053430620898 2.3468244324512955 4.805213608031663 0 0 0
340 1 5.465023317067268 1.6015712351762517 5.7157837232832005 0 0 0
341 1 4.832341642501784 2.410986120798178 5.492962478797222 0 0 0
342 1 6.487536166442504 1.5217180100296015 4.824797231706895 0 0 0
343 1 7.224422056839168 2.428569590361888 4.849267267413098 0 0 0
344 1 7.2502480502867845 1.6405871739013846 5.643971991698279 0 0 0
345 1 6.465507664539235 2.4122459854824134 5.6630788402302334 0 0 0
334 1 7.232817841246297 0.04456860379625127 5.655507755586761 0 0 0
347 1 4.7946947204511705 3.213567021964995 4.892505107652921 0 0 0
348 1 5.700215113495031 3.1708328153248053 5.573525437291879 0 0 0
349 1 6.451682073650313 3.208157547554864 4.781779538835892 0 0 0
350 1 7.2692101721969395 3.2834811972961413 5.809460158912725 0 0 0
365 1 5.6030409585228735 1.5336563326048593 7.3468026842249365 0 0 0
372 1 4.859195987401539 3.2183046196043184 6.4425945612863815 0 0 0
367 1 6.515236158026261 1.5648812050339669 6.368131466737182 0 0 0
354 1 5.635513778982032 0.87707860777967 6.424173126192972 0 0 0
364 1 5.638650774012648 2.34184110745955 6.490829682169201 0 0 0
356 1 4.742767591287832 0.8241749747891158 7.282017849705509 0 0 0
366 1 4.871027028117572 2.5140858256602896 7.170563292127304 0 0 0
361 1 4.0516223764418235 2.3957151930991634 6.217124598315578 0 0 0
452 1 5.5945697184307095 3.9800222550300934 4.65671307596172 0 0 0
317 1 6.5258983809592905 0.7997883821741991 4.10864432760612 0 0 0
454 1 7.307701785917242 3.92887715337626 4.89023650410026 0 0 0
86 1 8.000730117631079 1.718322244770249 4.8449365038939165 -1 0 0
351 1 4.014924139806002 0.758765689804097 6.416031473383133 0 0 0
101 1 7.960560361885749 0.01930602511917985 6.4054626210470005 -1 0 0
336 1 4.015593312722589 2.3894677027993434 4.737600924308469 0 0 0
319 1 5.601859578156277 1.486382431365818 4.071424404846107 0 0 0
453 1 4.972987340482014 3.9332945290587835 5.610085149673669 0 0 0
330 1 5.585565252595327 0.10004012204900933 5.601621268550753 0 0 0
439 1 4.875755003301495 3.876348154756865 4.04664789030662 0 0 0
258 1 7.1600098393858325 0.8791557577512186 7.971771935073159 0 0 -1
261 1 4.014731980874736 2.4078834379668623 7.962159166883097 0 0 -1
321 1 7.305421495084372 1.7149548541549255 4.053224492979503 0 0 0
324 1 5.7375673247247265 3.1097085802045514 4.0997597968437445 0 0 0
315 1 4.77541352472443 0.5447537412598129 4.036259803326315 0 0 0
268 1 7.153519849814853 2.4384385695491724 7.981946439640214 0 0 -1
377 1 5.550191842558348 3.9417435528047475 7.9538938907871755 0 0 -1
264 1 5.733496906793179 2.4385923785901786 7.945642331753566 0 0 -1
272 1 4.793591673672071 3.2192236966879397 7.945709558740542 0 0 -1
318 1 4.041183295144736 1.4630469513587032 4.121107579359514 0 0 0
255 1 5.6743254875991855 7.929103791878162 0.8131742560840168 0 -1 0
144 1 7.898088100663988 7.134573411209401 0.8436008557802106 -1 0 0
416 1 4.088587807214684 7.2537870589526605 1.619372878050623 0 0 0
402 1 5.624815099199913 4.02473289437551 1.6531609540181083 0 0 0
393 1 4.793493104340478 6.323563173505811 0.15403864287686073 0 0 0
424 1 7.15401820089829 6.4431593042492405 2.4313240733417603 0 0 0
183 1 7.992787529289451 6.457007766570788 3.141922626463007 -1 0 0
417 1 4.025097399320039 6.312961731442836 2.346142779432855 0 0 0
382 1 4.128194505893269 4.741015858329371 0.8399448925508964 0 0 0
385 1 5.623795341503425 4.680381768378575 0.7445926529763738 0 0 0
386 1 4.781491078651243 5.566349153681946 0.7638060622240982 0 0 0
432 1 6.423518124345388 4.696037216077606 3.1347491780529904 0 0 0
431 1 5.590987273259726 5.6600972072716615 3.2585576161842673 0 0 0
389 1 7.112262137462408 4.691088136904745 0.757443281928615 0 0 0
390 1 6.404874807699437 5.535771251998146 0.7852555299500601 0 0 0
438 1 7.150749596387725 7.201108644716245 3.117525829348863 0 0 0
437 1 6.27420828782379 6.5440787185326 3.228531025897482 0 0 0
430 1 4.808712699618713 4.748735963725791 3.3244322158196558 0 0 0
423 1 7.2544989833199525 7.093337412730838 1.6371837108015683 0 0 0
395 1 5.705878747087939 6.447851350551601 0.7596699089790776 0 0 0
396 1 4.799140674212003 7.203417359766742 0.8913061988685195 0 0 0
166 1 7.998512127830893 6.2922622411503655 1.5926561399840393 -1 0 0
433 1 7.066452897391543 5.636200676711887 3.1826244566681856 0 0 0
399 1 7.11524217379853 6.340616169626697 0.8241582240589802 0 0 0
400 1 6.4965671132284175 7.2490555978739835 0.9252175491707595 0 0 0
422 1 6.296640152663049 6.463271076165303 1.5788005482906073 0 0 0
169 1 7.9346227426310785 7.250651316444724 2.356571506237638 -1 0 0
421 1 4.811792558899442 7.396137376482232 2.368235226127904 0 0 0
420 1 5.58578136007113 6.435874004039583 2.457009728336243 0 0 0
445 1 6.441822706986245 5.679308000519903 3.985964438727636 0 0 0
419 1 5.546156014671709 7.224366775840734 1.6733050498383768 0 0 0
425 1 6.310058509411329 7.303930423237521 2.51718606092938 0 0 0
408 1 4.8182893865607 4.886716281109296 1.5516033136779992 0 0 0
409 1 5.588129478614453 5.682865737136443 1.4856030730145309 0 0 0
410 1 5.605883254160425 4.739262076409411 2.456936574249142 0 0 0
411 1 4.814171669827304 5.592678252087523 2.4520897872240717 0 0 0
412 1 6.315364927075232 4.7975036889429425 1.5997782924220894 0 0 0
413 1 7.263347867503431 5.568561668813074 1.574111233840102 0 0 0
414 1 7.199960937335682 4.842584425962762 2.4582799278972303 0 0 0
415 1 6.397115537487845 5.650411459888839 2.3209038951715173 0 0 0
436 1 5.5039290929362075 7.202083862179206 3.2749891729972966 0 0 0
435 1 4.749523808068524 6.396976113058612 3.2131934898196644 0 0 0
418 1 4.8321253762279035 6.3747403697951945 1.7091733931538142 0 0 0
384 1 5.600748257349217 5.545276339387431 0.024127583201288615 0 0 0
406 1 4.076746575952122 5.622531576112204 1.5408406673561226 0 0 0
394 1 5.675937270830243 7.23919917901406 0.10454379165996681 0 0 0
404 1 7.193808620630103 4.020616597023609 1.6050401860126389 0 0 0
159 1 7.841627859971693 5.633325535825187 2.457503517233748 -1 0 0
156 1 7.987269359862151 4.776689881002062 1.7002717754055026 -1 0 0
284 1 7.076977230565745 7.875605571659807 2.220452688681856 0 -1 0
448 1 4.740901262576531 7.210910524443996 3.9821162354965685 0 0 0
401 1 4.055041930391064 4.061779351148528 1.6176965625727773 0 0 0
427 1 5.600567916543295 4.024694476827843 3.2678696885843523 0 0 0
403 1 4.767111420153868 4.042313158825823 2.331519946297576 0 0 0
449 1 7.203450532284389 6.471156174574241 3.9635370320139143 0 0 0
197 1 7.9428380998542645 7.181084328344839 3.9123528926841966 -1 0 0
444 1 7.136513414176467 4.830624814969902 3.942927751674378 0 0 0
192 1 7.91339591344314 5.690201583966694 3.9418634106199373 -1 0 0
253 1 4.784575681515263 7.965978838262537 0.19496855568015725 0 -1 0
398 1 7.21860272493097 7.2427042077030075 0.047756226472486674 0 0 0
446 1 4.07027809054197 6.454469552087173 3.9611173741182197 0 0 0
141 1 7.873425379858307 6.428082483895808 0.0388466959952698 -1 0 0
443 1 4.724816296372144 5.554100021874954 3.9095432813690896 0 0 0
231 1 7.931757818570135 4.785931081842461 6.430660714378688 -1 0 0