LAMMPS data file via write_data, version 9 Nov 2016, timestep = 100000

500 atoms
1 atom types

1.2179817713965573e+00 2.3782018228597583e+01 xlo xhi
1.2179817713965573e+00 2.3782018228597583e+01 ylo yhi
1.2179817713965573e+00 2.3782018228597583e+01 zlo zhi

Masses

1 62.5

Pair Coeffs # lj/cut

1 1.1 2.8

Atoms # full

412 0 1 0.0000000000000000e+00 2.7531201804796015e+00 3.1664865056449663e+00 3.3500216685659434e+00 0 0 1
9 0 1 0.0000000000000000e+00 7.0647613784478391e+00 2.9277805021216365e+00 3.2772840869783790e+00 0 0 0
432 0 1 0.0000000000000000e+00 1.0113354520150335e+01 3.3206394417501897e+00 3.8635838671245035e+00 0 0 1
100 0 1 0.0000000000000000e+00 1.6756728099202345e+01 1.2500054990267015e+00 1.1752046648061357e+01 0 1 0
40 0 1 0.0000000000000000e+00 1.9516900629034929e+01 8.9110108992891401e+00 1.1349747364874508e+01 0 0 0
440 0 1 0.0000000000000000e+00 1.2435967085318200e+01 3.9040374604965438e+00 2.0034677065495901e+00 0 0 1
139 0 1 0.0000000000000000e+00 1.4495749449920421e+01 3.5543650578535666e+00 4.4187377374227532e+00 0 0 0
114 0 1 0.0000000000000000e+00 1.4680415943811575e+01 2.0007884504725046e+00 1.7681962857169413e+00 0 0 0
35 0 1 0.0000000000000000e+00 1.7102156586447101e+01 4.0600042496824216e+00 1.9712246728941607e+00 0 0 0
1 0 1 0.0000000000000000e+00 1.8996435136590335e+01 1.8193387018740561e+00 1.9966353721327290e+00 -1 0 0
200 0 1 0.0000000000000000e+00 1.9764212752157022e+01 2.1883691246944403e+00 4.6905677484098494e+00 0 1 0
229 0 1 0.0000000000000000e+00 1.4238788470639507e+01 1.0957623647437513e+01 1.0470984189713931e+01 0 0 0
22 0 1 0.0000000000000000e+00 1.9993592659772979e+01 4.6530178026732489e+00 2.7554564109459054e+00 -1 0 0
107 0 1 0.0000000000000000e+00 2.2169773977662736e+01 2.5300853058707982e+00 2.7755757167866504e+00 -1 0 0
144 0 1 0.0000000000000000e+00 9.4728991425466322e+00 9.9459854386304496e+00 1.1891398921909639e+01 0 0 0
51 0 1 0.0000000000000000e+00 3.0394320772606216e+00 7.7152020731183866e+00 3.7506603695119827e+00 0 0 0
427 0 1 0.0000000000000000e+00 5.0312624370504775e+00 5.3677634608364286e+00 3.6590550417615608e+00 0 0 1
32 0 1 0.0000000000000000e+00 5.1375568381627277e+00 8.0389377543966507e+00 1.4310360080114548e+00 0 0 0
429 0 1 0.0000000000000000e+00 8.1738047341395959e+00 5.7270485188065567e+00 4.2548826251068723e+00 0 0 1
132 0 1 0.0000000000000000e+00 6.1507227757993164e+00 8.3823126972052364e+00 4.4982265402411512e+00 0 0 0
26 0 1 0.0000000000000000e+00 8.2027741452007454e+00 8.3946288968444911e+00 2.0325878658468017e+00 0 0 0
30 0 1 0.0000000000000000e+00 7.1632687305430673e+00 5.6427346468162307e+00 1.4132243266748867e+00 0 0 0
312 0 1 0.0000000000000000e+00 1.0363240752298729e+01 6.1421865600215240e+00 2.0126184498925395e+00 0 0 1
232 0 1 0.0000000000000000e+00 1.0479494804817023e+01 8.2238984779949362e+00 4.4784708357682987e+00 0 0 0
33 0 1 0.0000000000000000e+00 1.2525236058351654e+01 8.4496909064715915e+00 2.3075542687543971e+00 0 0 0
137 0 1 0.0000000000000000e+00 1.2538955847939608e+01 5.9965743780007603e+00 4.2037778137498067e+00 0 0 0
460 0 1 0.0000000000000000e+00 1.4943126965748629e+01 6.0534951583036847e+00 2.1549442679117559e+00 0 0 1
21 0 1 0.0000000000000000e+00 1.7782130688556570e+01 6.8163735086851140e+00 3.1043336290808519e+00 -1 0 0
8 0 1 0.0000000000000000e+00 2.3390906096311134e+01 5.4114132436777931e+00 3.7146710548992132e+00 -1 0 0
61 0 1 0.0000000000000000e+00 2.0984557498178241e+01 7.5900258861215564e+00 3.6355542304982840e+00 -1 0 0
39 0 1 0.0000000000000000e+00 2.3273700515405658e+01 8.0225080003320404e+00 1.5906319097677979e+00 0 0 0
121 0 1 0.0000000000000000e+00 3.0468874711690779e+00 1.0267910782079209e+01 1.6272991394745080e+00 0 0 0
99 0 1 0.0000000000000000e+00 3.6462049495510818e+00 1.0341523793687342e+01 4.6871747210096864e+00 1 0 0
48 0 1 0.0000000000000000e+00 5.9222288511729362e+00 1.1090729433539524e+01 2.6163974013175069e+00 0 0 0
143 0 1 0.0000000000000000e+00 7.9837747514646962e+00 1.0521764778586084e+01 4.6627383345196014e+00 0 0 0
153 0 1 0.0000000000000000e+00 1.0405852053108610e+01 1.0705717352279491e+01 2.7610146714477071e+00 0 0 0
226 0 1 0.0000000000000000e+00 1.3406219103552132e+01 1.1347423707338466e+01 3.7485684860442081e+00 0 0 0
120 0 1 0.0000000000000000e+00 1.5671774751515176e+01 9.0429884238167375e+00 3.2826959821596859e+00 0 0 0
113 0 1 0.0000000000000000e+00 1.5681790310875087e+01 1.1586412473081378e+01 1.5412570299761481e+00 0 0 0
44 0 1 0.0000000000000000e+00 1.8637308319314378e+01 1.2385332888939118e+01 2.3871137786732852e+00 -1 0 0
60 0 1 0.0000000000000000e+00 1.8629616467628495e+01 9.6604240056435131e+00 3.9812166608711372e+00 0 0 0
239 0 1 0.0000000000000000e+00 2.0809707941741543e+01 1.8515880501129660e+00 1.2202249807412853e+01 0 0 0
24 0 1 0.0000000000000000e+00 2.1057319429192816e+01 1.0242743355268749e+01 1.8267275490935233e+00 -1 0 0
467 0 1 0.0000000000000000e+00 2.3219748723604425e+01 9.7764225588569360e+00 3.9219931118529363e+00 -1 0 1
157 0 1 0.0000000000000000e+00 2.0929060455362539e+01 1.2076118563203687e+01 4.3265335494255162e+00 0 0 0
178 0 1 0.0000000000000000e+00 2.3375805556284718e+01 1.2424776215667023e+01 2.3115594033217777e+00 0 0 0
28 0 1 0.0000000000000000e+00 2.8100795439218627e+00 2.1360186220610369e+00 7.9526304609595950e+00 0 0 0
108 0 1 0.0000000000000000e+00 5.2088634373619422e+00 2.6577771412050462e+00 5.6098510603943899e+00 0 0 0
25 0 1 0.0000000000000000e+00 3.0136961579881683e+00 5.0466350504037374e+00 5.7361356632872456e+00 0 0 0
101 0 1 0.0000000000000000e+00 6.1643859327458008e+00 2.8067137082357010e+00 8.4228612207575129e+00 0 0 0
103 0 1 0.0000000000000000e+00 7.9863055325124535e+00 3.0706283180240521e+00 6.1419371078862097e+00 0 0 0
112 0 1 0.0000000000000000e+00 1.0067074871624248e+01 2.6418993643725313e+00 8.9042678820350396e+00 0 0 0
206 0 1 0.0000000000000000e+00 1.2161739724765575e+01 3.1660940811658800e+00 6.3521152661354305e+00 0 0 0
214 0 1 0.0000000000000000e+00 1.5417194789756829e+01 3.7420677620369203e+00 7.3365252183497667e+00 0 0 0
2 0 1 0.0000000000000000e+00 1.7766418632441635e+01 4.3245407242918388e+00 5.2238679339631133e+00 -1 0 0
17 0 1 0.0000000000000000e+00 1.8862156518961889e+01 4.3138738881211900e+00 7.8890531612932584e+00 0 0 0
484 0 1 0.0000000000000000e+00 1.7710008650504030e+01 1.5667215208740561e+00 6.9904181611338929e+00 -1 1 1
82 0 1 0.0000000000000000e+00 2.3480040665100354e+01 2.6834294037051860e+00 5.5442020593466603e+00 -1 1 0
182 0 1 0.0000000000000000e+00 2.0987869471391207e+01 2.2017939632912693e+00 7.4074493406374726e+00 -1 1 0
194 0 1 0.0000000000000000e+00 2.3265585372255131e+01 4.6487739751952981e+00 7.8516033226312416e+00 0 1 0
19 0 1 0.0000000000000000e+00 2.0908586082583533e+01 4.9218996861944646e+00 5.6078222440126479e+00 0 0 0
27 0 1 0.0000000000000000e+00 3.7252141005952439e+00 7.7793125336542071e+00 6.5886984811239699e+00 0 0 0
126 0 1 0.0000000000000000e+00 3.7855227670854541e+00 5.0709364052242645e+00 8.6175453267045832e+00 0 0 0
11 0 1 0.0000000000000000e+00 6.0430466029712964e+00 5.4942649672754076e+00 6.6902255425891513e+00 0 0 0
127 0 1 0.0000000000000000e+00 8.3633585768783174e+00 8.0645558825145756e+00 6.4489547795358293e+00 0 0 0
129 0 1 0.0000000000000000e+00 8.1609807803950645e+00 5.0630778745065310e+00 8.8115465015729519e+00 0 0 0
230 0 1 0.0000000000000000e+00 1.0008365940618654e+01 5.5035113483438218e+00 6.4518968568261235e+00 0 0 0
118 0 1 0.0000000000000000e+00 1.1280373075256787e+01 8.4409142631402219e+00 7.5054970398271958e+00 0 0 0
115 0 1 0.0000000000000000e+00 1.5366350978772033e+01 6.1746467980776449e+00 5.2999666059940775e+00 0 0 0
355 0 1 0.0000000000000000e+00 1.3273598424482339e+01 5.8542545306747522e+00 7.2824414314484365e+00 0 0 0
136 0 1 0.0000000000000000e+00 1.3357296065822137e+01 8.5459198926841893e+00 5.3535845750907471e+00 0 0 0
119 0 1 0.0000000000000000e+00 1.6553482179210043e+01 6.4569366895950902e+00 7.9992059407731757e+00 0 0 0
57 0 1 0.0000000000000000e+00 1.8793006874145242e+01 7.1143865619688302e+00 5.9574631617460758e+00 0 0 0
37 0 1 0.0000000000000000e+00 2.3196473871362898e+01 7.2183926165376615e+00 5.9850618622703440e+00 0 0 0
233 0 1 0.0000000000000000e+00 2.0880800139886610e+01 6.9188221050802756e+00 8.0367962498107648e+00 0 0 0
4 0 1 0.0000000000000000e+00 2.1799915536934606e+01 9.4937337497437753e+00 9.2608841721120978e+00 -1 0 0
163 0 1 0.0000000000000000e+00 1.6091550440465601e+00 1.0127196016021005e+01 7.0840133286859031e+00 0 0 0
38 0 1 0.0000000000000000e+00 5.9349751052746544e+00 1.0078799630164749e+01 7.0212656625829961e+00 1 0 0
145 0 1 0.0000000000000000e+00 8.9072828369599737e+00 1.0743930914709402e+01 7.7678887815038999e+00 0 0 0
47 0 1 0.0000000000000000e+00 1.1074776391733973e+01 1.0846097817540443e+01 5.5988272975386995e+00 0 0 0
246 0 1 0.0000000000000000e+00 1.3776467831221224e+01 1.1031969879577094e+01 7.0636260189415134e+00 0 0 0
326 0 1 0.0000000000000000e+00 1.6371745836529314e+01 1.1576803735182471e+01 4.5956278243783064e+00 0 0 0
151 0 1 0.0000000000000000e+00 1.6295935246750823e+01 9.2539280235764032e+00 6.5063774248568631e+00 0 0 0
173 0 1 0.0000000000000000e+00 1.8715843696464198e+01 8.9968299211465101e+00 8.3048272047482712e+00 0 0 0
234 0 1 0.0000000000000000e+00 1.8618021673369739e+01 1.1650788511818291e+01 6.5867683234335823e+00 0 0 0
171 0 1 0.0000000000000000e+00 1.6576863996526274e+01 1.1429490382462335e+01 8.5864012623155226e+00 0 0 0
238 0 1 0.0000000000000000e+00 2.0987744010416627e+01 9.6201810864937816e+00 6.2055776323819929e+00 0 0 0
140 0 1 0.0000000000000000e+00 2.1644771128232662e+01 1.2185380540381155e+01 7.7237797202413629e+00 0 0 0
104 0 1 0.0000000000000000e+00 4.2466159224096263e+00 2.2991184777888867e+00 1.0625899596625596e+01 0 0 0
353 0 1 0.0000000000000000e+00 1.6454769971358982e+00 4.6074162497243352e+00 1.0590294402975310e+01 1 0 0
225 0 1 0.0000000000000000e+00 7.6343574238432526e+00 2.1328255874211353e+00 1.1098770418604881e+01 0 0 0
303 0 1 0.0000000000000000e+00 5.9765428017954845e+00 4.8750485807888353e+00 1.0812298803978726e+01 0 0 0
211 0 1 0.0000000000000000e+00 1.0744967280672734e+01 2.5748983562654333e+00 1.1974543994424497e+01 0 0 0
290 0 1 0.0000000000000000e+00 1.3055377511593379e+01 3.2912830045275103e+00 9.2798312383803676e+00 0 1 0
216 0 1 0.0000000000000000e+00 1.4375333071260748e+01 3.1151013064057098e+00 1.1905867051767387e+01 0 0 0
334 0 1 0.0000000000000000e+00 1.6789577835538225e+01 3.8296348470813557e+00 1.0103980016796120e+01 0 0 0
190 0 1 0.0000000000000000e+00 1.8906200658880330e+01 1.6478051332879835e+00 9.8321402068469546e+00 0 1 0
175 0 1 0.0000000000000000e+00 1.9369571801279612e+01 1.1565272416862831e+01 9.9266948473725769e+00 0 0 0
337 0 1 0.0000000000000000e+00 2.3018667306488723e+01 1.8994907979921729e+00 1.0145160319379452e+01 0 0 0
124 0 1 0.0000000000000000e+00 2.0934777622340647e+01 4.1736803497567099e+00 1.0032900681450526e+01 -1 0 0
155 0 1 0.0000000000000000e+00 2.1898066983869633e+01 1.1382891368644383e+01 1.1651550349568385e+01 0 0 0
42 0 1 0.0000000000000000e+00 1.6151551001505737e+00 7.3366369329989167e+00 8.9288107117262214e+00 0 0 0
321 0 1 0.0000000000000000e+00 3.7828223163843826e+00 7.2127582651058235e+00 1.1124713518448633e+01 0 0 0
224 0 1 0.0000000000000000e+00 5.9657656602171016e+00 7.4771058430657291e+00 8.8394867263626242e+00 0 0 0
106 0 1 0.0000000000000000e+00 6.7871269126372260e+00 7.4249237494540079e+00 1.1908057553174631e+01 0 0 0
204 0 1 0.0000000000000000e+00 8.9898577543315632e+00 8.0194429971996612e+00 9.5611155778669179e+00 0 0 0
227 0 1 0.0000000000000000e+00 9.2998994941521307e+00 5.3310286201133836e+00 1.1591694849108869e+01 0 0 0
240 0 1 0.0000000000000000e+00 1.1010880741300729e+01 5.7289404839401019e+00 9.3508141321617355e+00 0 0 0
265 0 1 0.0000000000000000e+00 1.1735588129336550e+01 8.0867351010405759e+00 1.1126679758142076e+01 0 0 0
373 0 1 0.0000000000000000e+00 1.2231248085300006e+01 5.3309805563582229e+00 1.2244948112458122e+01 0 0 0
332 0 1 0.0000000000000000e+00 1.4383610834965895e+01 5.8962110478334830e+00 1.0232303269582022e+01 0 0 0
330 0 1 0.0000000000000000e+00 1.4064090782221257e+01 8.4640946942483595e+00 8.6055025949603916e+00 0 0 0
231 0 1 0.0000000000000000e+00 1.8827137844140914e+01 6.2871335524509755e+00 1.0203537332969438e+01 0 0 0
250 0 1 0.0000000000000000e+00 2.1899975890800356e+01 6.7888989672056432e+00 1.0985980248490767e+01 0 0 0
221 0 1 0.0000000000000000e+00 1.6602638529355553e+00 9.4566129924810092e+00 1.1223489204490338e+01 0 0 0
237 0 1 0.0000000000000000e+00 4.0945880593545718e+00 9.7194752670826681e+00 9.2444483451406896e+00 1 0 0
261 0 1 0.0000000000000000e+00 1.5482647513506007e+00 1.2329107961152308e+01 9.4234045553955159e+00 0 0 0
323 0 1 0.0000000000000000e+00 4.8471401421421927e+00 1.0054502183869033e+01 1.2183082827057651e+01 0 0 0
122 0 1 0.0000000000000000e+00 7.0345876514299359e+00 1.0423133237031141e+01 1.0175609465856530e+01 0 0 0
150 0 1 0.0000000000000000e+00 1.6564172087277989e+01 8.4575004503894888e+00 1.0344436560088164e+01 0 0 0
172 0 1 0.0000000000000000e+00 1.1364317325894964e+01 1.0793716180698228e+01 9.4633846454505797e+00 0 0 0
333 0 1 0.0000000000000000e+00 1.4324040432061421e+01 8.5569295236269340e+00 1.2448634876417449e+01 0 0 0
488 0 1 0.0000000000000000e+00 3.7850756690182039e+00 4.4055136101039620e+00 1.2887552450606556e+01 0 1 0
324 0 1 0.0000000000000000e+00 1.8223073003778096e+00 4.0466748796224952e+00 1.5406114018569282e+01 0 0 0
125 0 1 0.0000000000000000e+00 2.0819873761094461e+00 1.7400385152665390e+00 1.2648863550865038e+01 0 0 0
401 0 1 0.0000000000000000e+00 4.9627403635066134e+00 4.3166734929538038e+00 1.6032244511199451e+01 0 0 0
202 0 1 0.0000000000000000e+00 5.3999648817002193e+00 1.6136487838584563e+00 1.3515861835761964e+01 0 0 0
433 0 1 0.0000000000000000e+00 8.2367012922663783e+00 2.0411542110264445e+00 1.4291805977881852e+01 0 0 0
305 0 1 0.0000000000000000e+00 6.9355605768320485e+00 4.7849153126707886e+00 1.3727292984126443e+01 0 0 0
388 0 1 0.0000000000000000e+00 6.3580619772716078e+00 1.5077586065857871e+00 1.6502270524897739e+01 0 1 0
492 0 1 0.0000000000000000e+00 1.0381692389657090e+01 4.6470095368870261e+00 1.4516932387352666e+01 0 1 0
331 0 1 0.0000000000000000e+00 1.0446538969090032e+01 1.7662870642298791e+00 1.6400926708823217e+01 0 0 0
356 0 1 0.0000000000000000e+00 1.2740155304491852e+01 2.0426175610905712e+00 1.4305882115565723e+01 0 0 0
314 0 1 0.0000000000000000e+00 1.6114543329461981e+01 2.7001308338934713e+00 1.4810517323736214e+01 0 0 0
311 0 1 0.0000000000000000e+00 2.0313069051459969e+01 3.7630767483090022e+00 1.5038993931174243e+01 0 0 0
18 0 1 0.0000000000000000e+00 2.2484879215790215e+01 4.3986606690722656e+00 1.2934845660365333e+01 0 0 0
300 0 1 0.0000000000000000e+00 2.2417668304546019e+01 1.6009954354346907e+00 1.4626904411524890e+01 0 1 0
188 0 1 0.0000000000000000e+00 4.6716234889671213e+00 7.1642652714106871e+00 1.3935196771381268e+01 0 1 0
117 0 1 0.0000000000000000e+00 1.6085359573768148e+00 6.7483488500335671e+00 1.3075501047138122e+01 1 0 0
322 0 1 0.0000000000000000e+00 2.5877089025393265e+00 7.1927857689627377e+00 1.5959723953922149e+01 0 0 0
228 0 1 0.0000000000000000e+00 9.3612059978288826e+00 7.2991395002259472e+00 1.3625962187280471e+01 0 0 0
167 0 1 0.0000000000000000e+00 1.2139061608045866e+01 7.4557137796881454e+00 1.4689344567830586e+01 0 0 0
340 0 1 0.0000000000000000e+00 1.3640818254056343e+01 4.6736050011825228e+00 1.4862837101772024e+01 0 0 0
455 0 1 0.0000000000000000e+00 1.5495286439575489e+01 7.2765192139049271e+00 1.5459073689116956e+01 0 0 0
336 0 1 0.0000000000000000e+00 1.6064495680583136e+01 5.3803151173846135e+00 1.2930648301998170e+01 0 0 0
257 0 1 0.0000000000000000e+00 2.2167343436838109e+00 1.2222823166849944e+01 1.2508999246215785e+01 1 0 0
458 0 1 0.0000000000000000e+00 1.7782457897795112e+01 5.3023586487283421e+00 1.5406970643639823e+01 0 0 0
179 0 1 0.0000000000000000e+00 1.7575949725894567e+01 8.1147732813415097e+00 1.3739090894603818e+01 0 0 0
349 0 1 0.0000000000000000e+00 1.9796750054305924e+01 8.4900267471269881e+00 1.5870924483600385e+01 0 0 0
20 0 1 0.0000000000000000e+00 1.9988787918525190e+01 6.3450606334831905e+00 1.3144997184318475e+01 0 0 0
212 0 1 0.0000000000000000e+00 2.2098750812306967e+01 6.2850684805719510e+00 1.5499500436227796e+01 0 0 0
123 0 1 0.0000000000000000e+00 2.5585447103480141e+00 9.5904072834306806e+00 1.4231682079344274e+01 0 0 0
242 0 1 0.0000000000000000e+00 4.5152005884543396e+00 1.1824159767729327e+01 1.4710846711343898e+01 0 0 0
318 0 1 0.0000000000000000e+00 1.8449885032685849e+01 3.6949530117077001e+00 1.2555666946513883e+01 0 0 0
343 0 1 0.0000000000000000e+00 7.4097381355435612e+00 1.2218826427864830e+01 1.5829568416768071e+01 0 0 0
443 0 1 0.0000000000000000e+00 1.8088263657195341e+01 9.4457678013537336e+00 2.3765024474554245e+01 -1 0 0
222 0 1 0.0000000000000000e+00 6.9571064416419359e+00 9.7014488066545095e+00 1.4072031613662880e+01 0 0 0
345 0 1 0.0000000000000000e+00 1.1994175603233263e+01 1.2087076827724363e+01 1.5550812210626781e+01 0 0 0
306 0 1 0.0000000000000000e+00 9.7231401802841830e+00 1.0090847639392539e+01 1.5180131168618072e+01 0 0 0
251 0 1 0.0000000000000000e+00 1.2247918569305632e+01 1.0641514066289529e+01 1.2759926608768895e+01 0 0 0
253 0 1 0.0000000000000000e+00 1.4423529832571583e+01 1.0193521434426556e+01 1.5116994017445297e+01 0 0 0
260 0 1 0.0000000000000000e+00 1.6712838136910250e+01 1.0822986388809543e+01 1.2544507506036284e+01 0 0 0
256 0 1 0.0000000000000000e+00 1.9629921802426459e+01 1.0923491462118827e+01 1.3802417296653763e+01 0 0 0
254 0 1 0.0000000000000000e+00 1.7394580356718080e+01 1.0366189108529486e+01 1.6210695142127683e+01 0 0 0
244 0 1 0.0000000000000000e+00 2.1892501832239738e+01 8.7630879844201779e+00 1.3592754801138875e+01 -1 0 0
236 0 1 0.0000000000000000e+00 2.2551997553406920e+01 1.1751697059555021e+01 1.4629781357673565e+01 0 0 0
383 0 1 0.0000000000000000e+00 3.2235791274095758e+00 3.5950411419049697e+00 1.8162306177542398e+01 0 1 0
400 0 1 0.0000000000000000e+00 6.1852324819097229e+00 3.4468157854460872e+00 1.8777630662205404e+01 0 1 0
90 0 1 0.0000000000000000e+00 8.1834861132224965e+00 4.3284026998958938e+00 1.6697449611402256e+01 0 1 -1
316 0 1 0.0000000000000000e+00 1.1584844600712859e+01 1.8826503739426728e+00 1.9263622926020098e+01 0 0 0
434 0 1 0.0000000000000000e+00 9.4421556992487385e+00 3.9532285947421686e+00 1.9428182729968675e+01 0 0 0
375 0 1 0.0000000000000000e+00 1.1583681479457404e+01 4.3488860976666421e+00 1.7372486850092571e+01 0 0 0
410 0 1 0.0000000000000000e+00 1.3745356152768613e+01 2.2386305504824202e+00 1.7120397649291302e+01 0 0 0
53 0 1 0.0000000000000000e+00 1.3737595399654657e+01 4.1514475448480113e+00 1.9529624428203554e+01 0 0 -1
338 0 1 0.0000000000000000e+00 1.5946699573048056e+01 2.1290339815733974e+00 1.9221076286740086e+01 0 0 0
357 0 1 0.0000000000000000e+00 1.5673524498751059e+01 4.7152344397008275e+00 1.7478781438682084e+01 0 0 0
296 0 1 0.0000000000000000e+00 1.7955337499584694e+01 2.6646635725683492e+00 1.7164202848585397e+01 0 1 0
34 0 1 0.0000000000000000e+00 1.9400149150436796e+01 2.6224958521927064e+00 1.9681490115692853e+01 0 0 -1
320 0 1 0.0000000000000000e+00 2.1647460485249162e+01 3.3521543441017023e+00 1.7673660707897000e+01 0 0 0
85 0 1 0.0000000000000000e+00 2.3744158177879278e+01 2.6230394869497156e+00 1.9992912448469440e+01 -1 1 -1
384 0 1 0.0000000000000000e+00 4.2143138159341031e+00 6.5236368569443020e+00 1.8324258457228972e+01 0 1 0
259 0 1 0.0000000000000000e+00 2.0458169585533135e+00 8.3540347108900654e+00 1.8840315637991225e+01 1 0 0
302 0 1 0.0000000000000000e+00 7.0447928462335403e+00 6.9142423427233952e+00 1.5860966992514205e+01 0 0 0
402 0 1 0.0000000000000000e+00 7.3510422867574450e+00 6.2698621563976671e+00 1.9090199800209241e+01 0 0 0
308 0 1 0.0000000000000000e+00 5.0738703582866558e+00 9.2370087773401739e+00 1.9423946277721733e+01 0 0 0
208 0 1 0.0000000000000000e+00 9.8314423586861750e+00 6.8358753350048627e+00 1.6963032337350068e+01 0 0 0
351 0 1 0.0000000000000000e+00 1.1485456135147579e+01 6.4810950029047953e+00 1.9725513766393519e+01 0 0 0
271 0 1 0.0000000000000000e+00 1.3513012994023244e+01 6.8382487838595232e+00 1.7590298491605317e+01 0 0 0
335 0 1 0.0000000000000000e+00 1.9364157172661649e+01 5.3427597807508587e+00 1.7831837886070211e+01 0 0 0
379 0 1 0.0000000000000000e+00 1.7078504431863351e+01 7.2935234540269676e+00 1.8389746292601082e+01 0 0 0
219 0 1 0.0000000000000000e+00 2.3492677182420707e+01 5.5515928443736566e+00 1.8300307017116126e+01 0 0 0
304 0 1 0.0000000000000000e+00 2.1344994292559498e+01 7.8470677732089484e+00 1.8479338340002926e+01 -1 0 0
441 0 1 0.0000000000000000e+00 4.9248457448213045e+00 9.1194954293042407e+00 1.6346621159013399e+01 0 0 0
342 0 1 0.0000000000000000e+00 2.4551840751025051e+00 1.1203600460638114e+01 1.7088828953266866e+01 0 0 0
428 0 1 0.0000000000000000e+00 5.3165057944172487e+00 1.1742093301737309e+01 1.7786512712646875e+01 0 0 0
325 0 1 0.0000000000000000e+00 7.6360997792299248e+00 9.5799150558109538e+00 1.7388089859100482e+01 0 0 0
49 0 1 0.0000000000000000e+00 7.5352223022019871e+00 1.1169902934343195e+01 2.0059147979138196e+01 0 0 -1
328 0 1 0.0000000000000000e+00 9.5556592219143326e+00 8.7468513030004669e+00 1.9543433711827738e+01 0 0 0
327 0 1 0.0000000000000000e+00 1.0078966198222577e+01 1.1689531310299742e+01 1.8096027034374316e+01 0 0 0
350 0 1 0.0000000000000000e+00 1.2120657097937100e+01 9.4172692817596033e+00 1.7184472763419741e+01 0 0 0
374 0 1 0.0000000000000000e+00 1.5137956603504021e+01 1.0065533571927249e+01 1.8239361119052852e+01 0 0 0
453 0 1 0.0000000000000000e+00 1.3076253558722129e+01 1.2219757287422551e+01 1.8488754921443039e+01 0 0 0
280 0 1 0.0000000000000000e+00 1.7407505892092338e+01 1.2105273990076141e+01 1.8861594003138741e+01 0 0 0
354 0 1 0.0000000000000000e+00 1.9134091546777483e+01 9.7714535289811550e+00 1.8522607196725545e+01 0 0 0
444 0 1 0.0000000000000000e+00 2.0090211861560377e+01 1.1777148815878668e+01 1.6657507245216106e+01 -1 0 0
437 0 1 0.0000000000000000e+00 2.2828741629413145e+01 9.2865334481443789e+00 1.6394098605646882e+01 0 0 0
422 0 1 0.0000000000000000e+00 2.2644314029985097e+01 1.0966850343703886e+01 1.9227840816694929e+01 -1 0 0
421 0 1 0.0000000000000000e+00 4.2100941190019459e+00 3.2365641073121036e+00 2.1004864198498645e+01 0 0 0
88 0 1 0.0000000000000000e+00 1.8191575787695975e+00 2.7755578958703171e+00 2.3024885249446278e+01 0 1 -1
431 0 1 0.0000000000000000e+00 7.2147432412166825e+00 3.5935008985476085e+00 2.1715340774272420e+01 0 0 0
391 0 1 0.0000000000000000e+00 8.5487370865961019e+00 1.3283845398832343e+00 1.8501077172954773e+01 0 1 0
12 0 1 0.0000000000000000e+00 1.1668595262311936e+01 3.8111252721673470e+00 2.1788884959292481e+01 0 0 -1
31 0 1 0.0000000000000000e+00 9.3701740081292897e+00 1.4056694895486848e+00 2.1454522797061244e+01 0 0 -1
435 0 1 0.0000000000000000e+00 1.3897783175073508e+01 1.6497739804313374e+00 2.1316249081732856e+01 0 0 0
279 0 1 0.0000000000000000e+00 1.4824190657196558e+01 4.3437226360672554e+00 2.2270580495078221e+01 0 0 0
414 0 1 0.0000000000000000e+00 1.7039059509438307e+01 2.0902839063090943e+00 2.1990954797457640e+01 0 0 0
459 0 1 0.0000000000000000e+00 1.9249285414506531e+01 4.4866137335929528e+00 2.2503487455671902e+01 0 0 0
315 0 1 0.0000000000000000e+00 1.7092159062241663e+01 4.5903559193604684e+00 2.0308928676910433e+01 0 0 0
359 0 1 0.0000000000000000e+00 2.1663845419920975e+01 2.2300702611435277e+00 2.2083545102568465e+01 0 0 0
483 0 1 0.0000000000000000e+00 2.4435604310700181e+00 5.7868523570537826e+00 2.0817238019486297e+01 0 1 0
403 0 1 0.0000000000000000e+00 3.1149907755141810e+00 8.5536585585270331e+00 2.1705085803887002e+01 0 0 0
329 0 1 0.0000000000000000e+00 5.3399217522465747e+00 5.9817839694786370e+00 2.1244022417715883e+01 0 0 0
52 0 1 0.0000000000000000e+00 7.2508045337676021e+00 8.5784997862729018e+00 2.1713689032736248e+01 0 0 -1
425 0 1 0.0000000000000000e+00 9.0530281069162157e+00 6.1494699692009158e+00 2.1704307328127605e+01 0 0 0
133 0 1 0.0000000000000000e+00 1.2789470116119368e+01 6.7156797290777748e+00 2.2440174940816419e+01 0 0 -1
360 0 1 0.0000000000000000e+00 1.4832380050758642e+01 6.9233879665738955e+00 2.0383506705313707e+01 0 0 0
454 0 1 0.0000000000000000e+00 1.6964011046975799e+01 6.7105188001255920e+00 2.2740784042815932e+01 0 0 0
438 0 1 0.0000000000000000e+00 1.9100486150022277e+01 6.9475400814853137e+00 2.0673524377605126e+01 0 0 0
424 0 1 0.0000000000000000e+00 2.0116183694405024e+01 7.2451262842662709e+00 2.3431499465065656e+01 -1 0 0
419 0 1 0.0000000000000000e+00 2.1413430265051801e+01 4.9268711353746397e+00 2.0260622727519298e+01 0 0 0
86 0 1 0.0000000000000000e+00 2.2366554809966225e+01 5.3251776230893464e+00 2.3472677144534252e+01 -1 1 -1
6 0 1 0.0000000000000000e+00 2.2613254773990001e+01 7.9722525349543272e+00 2.1250214669760965e+01 -1 0 -1
447 0 1 0.0000000000000000e+00 3.1780916437744833e+00 1.1440532723486781e+01 1.9975393238538430e+01 0 0 0
83 0 1 0.0000000000000000e+00 5.2086794434179620e+00 1.0768804414687651e+01 2.2238246725243663e+01 0 0 -1
41 0 1 0.0000000000000000e+00 8.2346736385527439e+00 1.1183873371327440e+01 2.2954760816372207e+01 0 0 -1
45 0 1 0.0000000000000000e+00 1.0313164303031444e+01 8.8880474817456125e+00 2.2572600052120102e+01 0 0 -1
55 0 1 0.0000000000000000e+00 1.0553029093714120e+01 1.1568424142350963e+01 2.1047648486466365e+01 0 0 -1
477 0 1 0.0000000000000000e+00 1.4857363788226277e+01 8.9247269484203073e+00 2.2783344275555663e+01 0 0 0
77 0 1 0.0000000000000000e+00 1.2634617396508110e+01 1.1059476895076758e+01 2.3021521064167196e+01 0 0 -1
442 0 1 0.0000000000000000e+00 1.4919607621959237e+01 1.1771449621683553e+01 2.1037309246031519e+01 -1 0 0
436 0 1 0.0000000000000000e+00 1.2792035503785876e+01 9.2312539361029629e+00 2.0502486418622198e+01 0 0 0
59 0 1 0.0000000000000000e+00 1.8247895457096156e+01 1.2051633654387590e+01 2.1859671837895149e+01 0 0 -1
339 0 1 0.0000000000000000e+00 1.7223429523298329e+01 9.2664271030232204e+00 2.1019359107026503e+01 0 0 0
445 0 1 0.0000000000000000e+00 2.0352554003186491e+01 1.0013220286435008e+01 2.1233078197074484e+01 -1 0 0
23 0 1 0.0000000000000000e+00 2.3355070215449722e+01 1.0836938066984400e+01 2.2319583652089989e+01 -1 0 -1
466 0 1 0.0000000000000000e+00 4.9654594331327626e+00 3.3997983837971955e+00 2.3701520826469142e+01 0 1 0
116 0 1 0.0000000000000000e+00 9.3784369301655488e+00 3.4913465042503864e+00 2.3595087232955763e+01 0 0 -1
247 0 1 0.0000000000000000e+00 7.0374240005066380e+00 1.2303202653460064e+01 1.2613228164274291e+01 0 0 0
423 0 1 0.0000000000000000e+00 2.8633181804958543e+00 5.7370638647939218e+00 2.3610730681801094e+01 0 0 0
43 0 1 0.0000000000000000e+00 3.5865810791180306e+00 1.2955471196300092e+01 3.3928058732912212e+00 0 0 0
165 0 1 0.0000000000000000e+00 3.7674302179420440e+00 1.5742605438563359e+01 1.5648793035926665e+00 0 0 0
161 0 1 0.0000000000000000e+00 2.3723370653078838e+01 1.5032502248268477e+01 3.9019439821261854e+00 -1 0 0
79 0 1 0.0000000000000000e+00 8.1636554414090909e+00 1.3196013656168761e+01 2.9188935252103847e+00 1 0 0
288 0 1 0.0000000000000000e+00 6.1760597646555082e+00 1.5724626796104605e+01 3.5903028902190059e+00 0 0 0
241 0 1 0.0000000000000000e+00 3.8273654006499913e+00 1.2558962392923572e+01 7.3148407464010878e+00 0 0 0
146 0 1 0.0000000000000000e+00 1.1280622765513495e+01 1.3478669256456341e+01 3.9237316310580557e+00 0 0 0
148 0 1 0.0000000000000000e+00 9.1896663445436850e+00 1.6140049633325773e+01 4.2917466109161699e+00 0 0 0
135 0 1 0.0000000000000000e+00 1.3257652349772130e+01 1.4052256857076534e+01 1.9777433205698629e+00 0 0 0
156 0 1 0.0000000000000000e+00 1.6221326312154140e+01 1.4191383508418411e+01 3.1853991976739597e+00 0 0 0
71 0 1 0.0000000000000000e+00 1.3800819635258010e+01 1.6296953433313732e+01 3.8949311915822533e+00 0 0 0
293 0 1 0.0000000000000000e+00 1.9081515162121597e+01 1.4520486068453833e+01 4.8716048905437326e+00 0 0 0
75 0 1 0.0000000000000000e+00 2.1001316897815400e+01 1.4663435697477979e+01 2.8252450531705864e+00 0 0 0
87 0 1 0.0000000000000000e+00 4.1960687946634323e+00 1.8060169930145953e+01 3.7937240295522576e+00 0 0 0
3 0 1 0.0000000000000000e+00 1.6351834382571506e+00 1.7705753490761730e+01 2.6627339374893051e+00 0 -1 0
184 0 1 0.0000000000000000e+00 7.0231867104895551e+00 1.8373848403024894e+01 4.8001587793071199e+00 0 0 0
469 0 1 0.0000000000000000e+00 6.5865360776858672e+00 1.8241796510467339e+01 1.6314700504230137e+00 0 0 1
142 0 1 0.0000000000000000e+00 1.1327711804894259e+01 1.6486012183191651e+01 2.0950325032217987e+00 0 0 0
13 0 1 0.0000000000000000e+00 9.3848387362731245e+00 1.8777924004225888e+01 2.5775684398473064e+00 0 -1 0
70 0 1 0.0000000000000000e+00 1.1745491827679176e+01 1.8496877466666618e+01 4.4070543529856874e+00 0 0 0
76 0 1 0.0000000000000000e+00 1.4004430483841830e+01 1.8821524941159787e+01 2.2584713449478375e+00 0 0 0
480 0 1 0.0000000000000000e+00 1.6167095231882620e+01 1.6742523251552399e+01 1.6762649460903656e+00 0 0 1
81 0 1 0.0000000000000000e+00 1.8994551591292655e+01 1.6911684551075183e+01 2.9636875349245964e+00 -1 0 0
93 0 1 0.0000000000000000e+00 1.6736260439353586e+01 1.9617594822801635e+01 3.2360509892880938e+00 0 0 0
154 0 1 0.0000000000000000e+00 2.1620759205676300e+01 1.7312544657259934e+01 4.6911042004612504e+00 0 0 0
197 0 1 0.0000000000000000e+00 2.1659316731545097e+01 1.9782813963488529e+01 3.2237668059343960e+00 0 0 0
223 0 1 0.0000000000000000e+00 1.8085637115255695e+00 2.0411075901563834e+01 4.3309073485175649e+00 0 -1 0
102 0 1 0.0000000000000000e+00 4.1211391621116640e+00 2.0603555211455287e+01 2.1411151726302382e+00 0 -1 0
98 0 1 0.0000000000000000e+00 1.7764162128329963e+00 2.2944322436441240e+01 2.3896002188110601e+00 1 0 0
166 0 1 0.0000000000000000e+00 4.9914479502918958e+00 2.0800440733773762e+01 5.0899727919465256e+00 0 0 0
406 0 1 0.0000000000000000e+00 4.8759325856612676e+00 2.3467155849897722e+01 3.0589913297120548e+00 0 -1 1