Created using cfg2lammps (c) AJB-2009

13 atoms
3 atom types

-529.177249 529.177249 xlo xhi
-529.177249 529.177249 ylo yhi
-529.177249 529.177249 zlo zhi

Masses

1 12.011789324618736
2 1.007940
3 0.0005446623093682

Atoms

1 1 6.000000 2 0.174166 0.000000 0.000000 0.000000 
2 2 1.000000 0 0.000000 0.627600 0.627600 0.627600 
3 2 1.000000 0 0.000000 0.627600 -0.627600 -0.627600 
4 2 1.000000 0 0.000000 -0.627600 0.627600 -0.627600 
5 2 1.000000 0 0.000000 -0.627600 -0.627600 0.627600 
6 3 0.0 1 0.799655 0.313800 0.313800 0.313800 
7 3 0.0 -1 0.799655 0.313800 0.313800 0.313800 
8 3 0.0 1 0.799655 0.313800 -0.313800 -0.313800 
9 3 0.0 -1 0.799655 0.313800 -0.313800 -0.313800 
10 3 0.0 1 0.799655 -0.313800 0.313800 -0.313800 
11 3 0.0 -1 0.799655 -0.313800 0.313800 -0.313800 
12 3 0.0 1 0.799655 -0.313800 -0.313800 0.313800 
13 3 0.0 -1 0.799655 -0.313800 -0.313800 0.313800 

