LAMMPS Description
 
       40140  atoms
       13284  bonds
       12177  angles
 
           5  atom types
           5  bond types
           6  angle types
 
 -63.700    63.700    xlo xhi
 -63.700    63.700    ylo yhi
 -200.00   200.000    zlo zhi
 
Atoms

1 1 1 -18.818 51.198 32.710
2 1 2 -17.850 49.057 33.806
3 1 2 -15.953 48.264 31.314
4 1 2 -17.066 48.578 28.430
5 1 2 -16.818 46.169 27.258
6 1 2 -17.532 43.826 25.413
7 1 2 -16.136 42.413 23.589
8 1 2 -13.398 42.474 23.954
9 1 2 -12.378 39.960 25.877
10 1 3 -11.670 37.826 28.330
11 1 3 -9.988 34.470 28.393
12 1 3 -6.271 34.792 28.558
13 1 4 -4.049 33.864 30.306
14 2 1 69.753 16.752 -25.913
15 2 2 67.556 17.966 -25.242
16 2 2 65.997 19.709 -26.566
17 2 2 63.965 22.186 -25.269
18 2 2 61.609 24.133 -25.048
19 2 2 58.783 24.628 -26.729
20 2 2 55.281 25.430 -25.419
21 2 2 54.428 27.480 -23.228
22 2 2 53.675 25.573 -20.944
23 2 3 52.049 25.778 -18.158
24 2 3 49.584 24.503 -15.933
25 2 3 48.554 23.459 -12.981
26 2 4 46.256 21.087 -11.754
27 3 1 -49.818 -43.072 27.120
28 3 2 -51.573 -41.483 28.526
29 3 2 -51.063 -38.636 29.064
30 3 2 -53.155 -38.733 31.639
31 3 2 -50.626 -37.403 33.699
32 3 2 -51.422 -35.562 36.126
33 3 2 -53.422 -35.670 38.696
34 3 2 -56.063 -35.319 39.447
35 3 2 -57.756 -37.588 41.128
36 3 3 -61.436 -37.212 42.388
37 3 3 -64.078 -39.487 43.325
38 3 3 -66.893 -40.854 44.529
39 3 4 -69.349 -41.309 46.357
40 4 1 -29.912 24.147 -18.915
41 4 2 -27.270 25.167 -19.195
42 4 2 -26.727 27.935 -17.459
43 4 2 -26.719 30.840 -17.956
44 4 2 -27.370 32.572 -15.496
45 4 2 -29.143 35.171 -14.073
46 4 2 -27.673 37.239 -12.274
47 4 2 -28.328 38.918 -9.981
48 4 2 -26.744 41.934 -9.550
49 4 3 -26.616 45.142 -8.069
50 4 3 -26.970 48.562 -6.851
51 4 3 -25.574 51.883 -6.776
52 4 4 -25.201 55.058 -6.525
53 5 1 38.366 8.025 -81.870
54 5 2 37.859 9.308 -84.063
55 5 2 36.465 12.173 -86.011
56 5 2 36.473 13.218 -88.635
57 5 2 35.644 16.140 -89.647
58 5 2 36.401 18.076 -91.328
59 5 2 38.358 18.579 -94.126
60 5 2 39.393 16.065 -95.976
61 5 2 42.486 15.448 -97.568
62 5 3 44.524 16.316 -100.492
63 5 3 45.963 15.394 -103.148
64 5 3 48.740 12.828 -104.204
65 5 4 50.814 11.598 -105.786
66 6 1 -3.670 35.888 -10.245
67 6 2 -3.449 38.446 -11.254
68 6 2 -3.103 41.346 -10.700
69 6 2 -4.489 43.794 -11.223
70 6 2 -7.286 44.321 -13.405
71 6 2 -7.560 46.566 -15.687
72 6 2 -7.053 47.308 -18.919
73 6 2 -9.075 49.360 -20.011
74 6 2 -11.401 51.611 -18.499
75 6 3 -11.534 54.393 -16.429
76 6 3 -13.520 55.895 -14.044
77 6 3 -14.239 58.474 -11.596
78 6 4 -14.232 59.997 -8.874
79 7 1 53.465 52.515 9.166
80 7 2 55.160 54.096 10.795
81 7 2 56.490 56.570 11.498
82 7 2 57.557 57.220 8.981
83 7 2 57.868 57.356 5.956
84 7 2 58.489 55.716 3.473
85 7 2 59.622 52.846 3.359
86 7 2 57.654 50.190 4.333
87 7 2 56.163 50.187 7.593
88 7 3 56.810 49.432 10.906
89 7 3 56.321 46.753 13.063
90 7 3 53.649 44.103 13.436
91 7 4 51.205 42.439 14.097
92 8 1 46.797 34.701 28.888
93 8 2 45.299 33.903 26.807
94 8 2 46.053 32.292 24.648
95 8 2 44.847 29.694 23.696
96 8 2 43.594 26.811 23.879
97 8 2 41.942 25.269 21.639
98 8 2 41.145 26.183 18.456
99 8 2 41.003 29.546 17.597
100 8 2 39.687 30.788 15.327
101 8 3 40.608 31.145 12.069
102 8 3 39.769 32.186 8.951
103 8 3 38.397 34.969 6.702
104 8 4 38.267 37.413 4.718
105 9 1 -36.189 -64.332 96.165
106 9 2 -36.228 -61.472 96.135
107 9 2 -36.208 -59.385 93.535
108 9 2 -35.325 -60.333 90.337
109 9 2 -34.127 -63.230 90.628
110 9 2 -30.817 -63.894 90.725
111 9 2 -29.200 -61.249 92.014
112 9 2 -26.592 -60.151 90.683
113 9 2 -24.003 -60.745 89.705
114 9 3 -20.409 -61.394 89.982
115 9 3 -16.997 -63.112 89.442
116 9 3 -16.332 -66.045 90.303
117 9 4 -14.974 -68.914 91.092
118 10 1 56.628 59.903 75.202
119 10 2 57.456 57.063 75.450
120 10 2 59.194 54.591 74.605
121 10 2 59.245 53.000 71.968
122 10 2 57.683 54.892 69.283
123 10 2 58.287 53.465 66.502
124 10 2 57.482 52.613 63.072
125 10 2 55.128 51.758 60.936
126 10 2 51.971 51.037 60.026
127 10 3 49.697 47.798 60.797
128 10 3 49.075 44.546 59.701
129 10 3 47.241 41.740 59.237
130 10 4 46.882 40.143 56.357
131 11 1 -21.255 -26.728 -31.184
132 11 2 -22.675 -28.132 -32.961
133 11 2 -25.408 -27.018 -31.580
134 11 2 -26.889 -27.837 -29.380
135 11 2 -27.895 -30.938 -29.868
136 11 2 -30.612 -31.740 -28.578
137 11 2 -31.613 -32.955 -25.740
138 11 2 -33.968 -32.751 -23.644
139 11 2 -33.794 -34.509 -20.843
140 11 3 -35.562 -34.035 -17.771
141 11 3 -37.255 -32.864 -14.715
142 11 3 -39.319 -31.208 -12.455
143 11 4 -41.761 -29.963 -11.472
144 12 1 59.701 72.350 -26.882
145 12 2 60.645 69.853 -27.912
146 12 2 59.647 67.516 -25.789
147 12 2 57.625 65.078 -25.340
148 12 2 57.404 62.447 -24.607
149 12 2 59.028 60.240 -24.917
150 12 2 62.018 59.046 -24.899
151 12 2 63.352 56.545 -23.700
152 12 2 64.302 53.182 -23.806
153 12 3 65.504 51.200 -26.804
154 12 3 68.674 51.687 -28.903
155 12 3 71.308 51.298 -31.420
156 12 4 74.040 51.666 -32.966
157 13 1 27.434 58.704 -29.628
158 13 2 28.163 56.428 -28.568
159 13 2 27.978 57.272 -25.380
160 13 2 27.016 58.658 -23.215
161 13 2 27.048 57.948 -20.396
162 13 2 25.325 58.132 -18.101
163 13 2 22.130 57.671 -18.153
164 13 2 20.423 55.153 -16.433
165 13 2 18.198 56.485 -15.348
166 13 3 15.421 58.182 -15.399
167 13 3 11.551 59.145 -14.905
168 13 3 8.429 60.399 -13.377
169 13 4 7.662 58.433 -11.390
170 14 1 -19.823 6.923 88.917
171 14 2 -17.412 6.277 87.987
172 14 2 -17.632 5.649 85.119
173 14 2 -19.512 4.681 82.689
174 14 2 -20.952 2.135 81.947
175 14 2 -23.252 0.717 81.312
176 14 2 -25.218 1.732 78.793
177 14 2 -25.197 3.703 76.686
178 14 2 -26.693 4.298 73.919
179 14 3 -26.164 6.605 71.411
180 14 3 -25.861 10.350 69.887
181 14 3 -26.373 13.976 69.667
182 14 4 -26.236 16.853 69.074
183 15 1 -13.744 -58.942 88.540
184 15 2 -11.126 -59.049 87.376
185 15 2 -9.568 -62.087 87.762
186 15 2 -7.663 -62.491 90.060
187 15 2 -6.670 -60.980 92.593
188 15 2 -4.843 -58.177 92.823
189 15 2 -2.926 -56.428 92.493
190 15 2 -1.723 -55.661 95.749
191 15 2 0.635 -54.672 96.835
192 15 3 2.816 -52.833 98.999
193 15 3 5.685 -50.624 99.621
194 15 3 8.044 -48.329 97.830
195 15 4 10.829 -47.257 98.700
196 16 1 -18.207 15.254 -33.229
197 16 2 -20.524 15.889 -34.660
198 16 2 -22.693 18.214 -34.093
199 16 2 -25.532 18.107 -32.910
200 16 2 -27.894 16.338 -32.331
201 16 2 -30.183 17.628 -31.273
202 16 2 -30.074 20.844 -29.814
203 16 2 -30.745 24.342 -29.333
204 16 2 -31.823 26.062 -32.078
205 16 3 -32.398 26.322 -35.454
206 16 3 -35.081 25.210 -37.411
207 16 3 -36.891 23.600 -39.643
208 16 4 -37.992 22.305 -42.057
209 17 1 -8.964 -10.521 87.976
210 17 2 -8.323 -10.416 90.343
211 17 2 -9.034 -8.840 92.885
212 17 2 -12.328 -8.173 94.590
213 17 2 -15.278 -9.880 95.813
214 17 2 -17.963 -7.425 96.083
215 17 2 -19.946 -6.909 98.612
216 17 2 -19.144 -5.109 101.469
217 17 2 -16.685 -5.350 103.047
218 17 3 -15.543 -4.680 106.246
219 17 3 -16.060 -2.255 109.234
220 17 3 -15.749 -0.214 112.149
221 17 4 -14.752 2.533 112.841
222 18 1 30.772 -69.681 61.928
223 18 2 28.961 -68.159 63.131
224 18 2 29.614 -65.115 64.196
225 18 2 31.060 -62.836 62.206
226 18 2 33.814 -62.691 60.683
227 18 2 36.641 -62.041 61.580
228 18 2 39.015 -60.006 62.322
229 18 2 41.184 -59.706 64.811
230 18 2 43.028 -57.414 64.255
231 18 3 45.537 -55.563 66.211
232 18 3 47.582 -55.307 69.161
233 18 3 50.950 -53.965 68.507
234 18 4 53.679 -53.807 69.692
235 19 1 44.999 -26.954 48.551
236 19 2 45.524 -25.981 45.922
237 19 2 48.488 -25.384 44.597
238 19 2 51.164 -25.999 45.764
239 19 2 52.449 -27.640 48.197
240 19 2 53.725 -30.628 49.067
241 19 2 54.004 -33.542 47.600
242 19 2 55.656 -34.512 44.970
243 19 2 55.736 -33.454 42.412
244 19 3 55.222 -33.963 39.080
245 19 3 56.579 -31.316 36.934
246 19 3 57.053 -28.553 35.094
247 19 4 56.932 -27.949 32.124
248 20 1 21.512 -69.439 -34.462
249 20 2 20.803 -68.536 -32.059
250 20 2 23.214 -67.927 -29.805
251 20 2 24.254 -68.223 -26.886
252 20 2 23.454 -66.251 -24.432
253 20 2 23.585 -66.142 -21.065
254 20 2 22.878 -63.525 -18.672
255 20 2 22.438 -60.605 -19.341
256 20 2 22.998 -59.606 -22.345
257 20 3 22.561 -56.401 -23.495
258 20 3 24.562 -53.147 -24.309
259 20 3 25.842 -50.066 -24.884
260 20 4 26.540 -47.071 -24.265
261 21 1 -4.841 -32.153 -90.445
262 21 2 -7.034 -33.649 -90.091
263 21 2 -6.410 -36.381 -88.917
264 21 2 -7.140 -38.264 -86.064
265 21 2 -8.814 -40.989 -86.171
266 21 2 -11.611 -41.701 -85.541
267 21 2 -12.183 -44.713 -85.196
268 21 2 -10.815 -47.179 -86.429
269 21 2 -8.067 -47.691 -84.848
270 21 3 -5.787 -50.437 -84.118
271 21 3 -4.928 -52.340 -81.698
272 21 3 -2.431 -54.423 -80.690
273 21 4 0.499 -54.433 -80.228
274 22 1 -5.279 -2.787 -17.370
275 22 2 -4.971 -5.058 -18.154
276 22 2 -2.124 -6.978 -19.270
277 22 2 0.880 -8.526 -19.028
278 22 2 2.598 -10.420 -20.651
279 22 2 1.130 -13.096 -20.868
280 22 2 1.829 -15.600 -23.085
281 22 2 3.205 -15.251 -26.038
282 22 2 1.416 -13.262 -28.373
283 22 3 1.076 -10.402 -30.649
284 22 3 0.817 -8.965 -33.850
285 22 3 -0.620 -6.545 -35.984
286 22 4 -0.260 -4.006 -38.030
287 23 1 -29.893 61.748 16.760
288 23 2 -28.321 60.300 18.797
289 23 2 -27.044 57.238 19.473
290 23 2 -26.234 55.994 22.147
291 23 2 -24.101 57.295 24.410
292 23 2 -23.049 57.146 27.314
293 23 2 -23.669 59.302 29.973
294 23 2 -23.710 59.103 33.588
295 23 2 -22.847 61.285 35.945
296 23 3 -24.328 63.074 38.951
297 23 3 -24.332 65.705 41.221
298 23 3 -25.932 68.241 43.336
299 23 4 -27.446 69.342 45.534
300 24 1 44.354 4.495 -25.745
301 24 2 42.540 5.992 -24.551
302 24 2 39.812 5.621 -24.279
303 24 2 37.811 4.307 -26.223
304 24 2 35.142 2.206 -26.274
305 24 2 33.421 1.692 -29.143
306 24 2 32.153 -1.373 -28.493
307 24 2 29.902 -2.094 -30.556
308 24 2 28.043 -0.050 -31.933
309 24 3 24.709 0.044 -32.884
310 24 3 23.291 0.015 -36.234
311 24 3 21.148 -0.269 -39.298
312 24 4 18.317 -1.419 -40.314
313 25 1 -33.469 -53.473 -13.411
314 25 2 -32.418 -52.724 -10.908
315 25 2 -34.239 -53.743 -8.888
316 25 2 -36.423 -51.231 -7.901
317 25 2 -37.518 -49.988 -5.471
318 25 2 -38.887 -47.147 -5.648
319 25 2 -38.345 -44.072 -5.787
320 25 2 -39.326 -40.859 -4.814
321 25 2 -41.796 -39.461 -3.999
322 25 3 -45.275 -38.982 -3.852
323 25 3 -48.644 -38.126 -3.247
324 25 3 -51.687 -37.535 -1.431
325 25 4 -54.547 -38.073 -1.166
326 26 1 27.838 21.048 -14.411
327 26 2 27.510 19.482 -12.473
328 26 2 28.930 19.484 -9.959
329 26 2 26.746 18.007 -8.249
330 26 2 23.618 17.935 -7.725
331 26 2 22.055 16.900 -4.842
332 26 2 19.545 16.298 -2.802
333 26 2 19.188 14.324 -0.374
334 26 2 22.331 13.216 0.414
335 26 3 24.937 11.284 -0.432
336 26 3 25.467 8.420 -2.726
337 26 3 23.952 5.261 -4.218
338 26 4 22.973 2.112 -3.604
339 27 1 -53.489 8.697 68.122
340 27 2 -50.784 7.823 68.465
341 27 2 -49.415 5.532 67.831
342 27 2 -49.409 2.282 66.797
343 27 2 -51.419 -0.220 65.890
344 27 2 -51.856 -3.435 65.982
345 27 2 -52.521 -5.476 63.857
346 27 2 -53.656 -8.173 64.544
347 27 2 -54.123 -9.869 62.056
348 27 3 -56.839 -11.350 60.419
349 27 3 -59.244 -14.288 60.986
350 27 3 -61.520 -15.428 58.229
351 27 4 -61.343 -15.868 54.800
352 28 1 -28.319 -46.310 -24.123
353 28 2 -26.858 -46.864 -26.240
354 28 2 -26.001 -44.882 -27.672
355 28 2 -27.145 -41.752 -28.647
356 28 2 -25.189 -39.773 -29.856
357 28 2 -23.577 -38.530 -32.511
358 28 2 -20.339 -37.909 -33.265
359 28 2 -17.482 -39.580 -33.596
360 28 2 -16.757 -37.360 -31.648
361 28 3 -16.076 -34.099 -31.484
362 28 3 -15.443 -31.861 -33.693
363 28 3 -12.768 -30.586 -34.470
364 28 4 -10.417 -28.715 -34.365
365 29 1 -2.843 -48.485 11.940
366 29 2 -5.534 -48.067 12.381
367 29 2 -9.187 -48.471 11.620
368 29 2 -11.735 -49.820 13.816
369 29 2 -12.288 -48.592 17.429
370 29 2 -12.607 -45.499 18.281
371 29 2 -14.112 -42.953 17.403
372 29 2 -12.432 -41.164 15.445
373 29 2 -9.671 -41.868 15.034
374 29 3 -7.071 -41.343 12.611
375 29 3 -5.177 -41.565 9.429
376 29 3 -2.937 -42.138 6.919
377 29 4 -0.271 -42.296 5.354
378 30 1 60.803 -15.154 -92.281
379 30 2 58.537 -13.645 -92.060
380 30 2 57.423 -12.571 -89.718
381 30 2 58.384 -9.993 -87.874
382 30 2 56.990 -8.986 -84.843
383 30 2 56.799 -6.835 -82.899
384 30 2 55.950 -8.214 -80.297
385 30 2 57.266 -8.762 -77.673
386 30 2 58.104 -7.102 -74.880
387 30 3 58.391 -4.361 -73.046
388 30 3 60.749 -2.000 -72.233
389 30 3 61.842 1.041 -71.340
390 30 4 63.464 3.477 -70.102
391 31 1 -33.402 -55.512 -34.717
392 31 2 -35.522 -57.131 -33.349
393 31 2 -38.631 -57.445 -34.285
394 31 2 -40.659 -54.994 -35.765
395 31 2 -40.063 -51.702 -36.086
396 31 2 -41.521 -49.238 -35.394
397 31 2 -41.463 -46.332 -33.865
398 31 2 -43.916 -44.459 -33.038
399 31 2 -46.153 -43.027 -31.465
400 31 3 -47.056 -40.435 -29.560
401 31 3 -47.283 -39.568 -25.538
402 31 3 -48.735 -38.313 -22.763
403 31 4 -51.185 -36.390 -21.415
404 32 1 11.375 -49.368 82.353
405 32 2 9.857 -47.592 84.133
406 32 2 7.183 -45.895 85.559
407 32 2 6.734 -44.871 88.820
408 32 2 7.519 -43.530 91.516
409 32 2 9.659 -44.742 94.151
410 32 2 9.800 -43.579 97.362
411 32 2 11.415 -41.499 99.327
412 32 2 12.394 -41.065 102.024
413 32 3 11.116 -39.627 104.917
414 32 3 10.997 -36.307 106.497
415 32 3 12.402 -33.296 106.814
416 32 4 13.604 -30.917 107.826
417 33 1 -2.234 -23.096 9.117
418 33 2 -3.751 -23.344 6.890
419 33 2 -3.813 -24.337 3.463
420 33 2 -1.454 -25.571 2.010
421 33 2 1.108 -27.006 2.217
422 33 2 2.185 -29.424 3.568
423 33 2 3.659 -32.062 3.450
424 33 2 6.876 -32.361 2.880
425 33 2 9.917 -32.624 3.325
426 33 3 12.620 -33.555 1.998
427 33 3 14.815 -36.442 1.262
428 33 3 17.692 -38.163 1.119
429 33 4 19.304 -40.806 1.637
430 34 1 29.603 -9.347 6.800
431 34 2 31.708 -8.329 8.159
432 34 2 31.741 -5.675 7.056
433 34 2 29.783 -3.496 6.346
434 34 2 28.466 -1.582 8.113
435 34 2 26.018 -2.475 8.836
436 34 2 23.037 -3.834 8.174
437 34 2 19.946 -4.895 9.416
438 34 2 18.282 -7.075 8.106
439 34 3 17.908 -9.400 5.132
440 34 3 17.671 -10.744 1.811
441 34 3 17.984 -13.225 -0.759
442 34 4 18.541 -16.305 -1.610
443 35 1 44.297 40.692 -82.841
444 35 2 43.796 42.980 -81.762
445 35 2 41.970 45.702 -81.416
446 35 2 41.875 48.049 -83.030
447 35 2 42.984 50.759 -81.502
448 35 2 46.046 51.718 -80.204
449 35 2 49.382 50.971 -80.009
450 35 2 51.473 48.249 -79.875
451 35 2 52.385 44.770 -79.317
452 35 3 51.867 42.356 -77.245
453 35 3 52.578 39.305 -76.769
454 35 3 52.919 35.647 -76.750
455 35 4 51.625 32.919 -76.882
456 36 1 -29.319 61.277 -97.502
457 36 2 -27.239 61.000 -95.751
458 36 2 -26.730 63.208 -93.517
459 36 2 -23.557 64.042 -92.769
460 36 2 -22.152 64.198 -90.068
461 36 2 -20.340 61.713 -88.365
462 36 2 -18.682 62.437 -86.069
463 36 2 -15.653 62.530 -86.153
464 36 2 -13.816 60.165 -85.579
465 36 3 -11.920 58.580 -83.070
466 36 3 -10.296 55.682 -82.377
467 36 3 -10.310 51.876 -82.801
468 36 4 -9.600 49.358 -83.637
469 37 1 -33.311 -62.773 -18.649
470 37 2 -32.889 -60.253 -18.171
471 37 2 -34.978 -58.811 -16.554
472 37 2 -36.093 -57.859 -13.719
473 37 2 -37.111 -55.554 -12.253
474 37 2 -38.769 -55.334 -9.468
475 37 2 -42.116 -56.541 -8.566
476 37 2 -42.778 -59.136 -7.953
477 37 2 -44.550 -61.003 -9.709
478 37 3 -45.710 -60.929 -13.088
479 37 3 -47.458 -61.112 -16.342
480 37 3 -49.957 -62.242 -18.726
481 37 4 -50.700 -63.363 -21.522
482 38 1 25.762 -9.237 -92.579
483 38 2 26.837 -9.259 -95.369
484 38 2 29.004 -10.574 -97.141
485 38 2 31.870 -10.607 -96.865
486 38 2 34.173 -12.445 -97.450
487 38 2 37.027 -11.394 -97.152
488 38 2 38.649 -9.379 -95.179
489 38 2 38.634 -7.448 -92.933
490 38 2 38.940 -4.460 -91.961
491 38 3 37.274 -1.258 -91.037
492 38 3 34.885 0.795 -90.345
493 38 3 34.315 3.547 -88.156
494 38 4 34.171 6.416 -87.306
495 39 1 53.832 23.420 25.289
496 39 2 54.845 25.984 25.529
497 39 2 54.242 29.114 25.760
498 39 2 53.825 31.671 24.077
499 39 2 54.524 34.022 22.014
500 39 2 56.139 36.560 23.661
501 39 2 56.438 39.887 23.921
502 39 2 57.514 41.899 21.533
503 39 2 57.363 44.992 21.176
504 39 3 60.059 47.490 21.660
505 39 3 62.568 49.738 22.812
506 39 3 64.010 52.920 22.934
507 39 4 64.757 55.799 22.446
508 40 1 -5.675 -12.684 78.917
509 40 2 -8.329 -12.585 78.557
510 40 2 -9.207 -9.985 77.544
511 40 2 -9.096 -8.098 75.287
512 40 2 -6.881 -5.411 75.788
513 40 2 -7.706 -2.206 74.066
514 40 2 -6.211 -0.991 71.589
515 40 2 -4.983 1.897 70.185
516 40 2 -6.661 3.869 68.348
517 40 3 -7.592 4.566 64.829
518 40 3 -9.622 6.852 62.852
519 40 3 -12.541 8.338 62.597
520 40 4 -15.168 8.826 61.662
521 41 1 -6.476 69.287 8.774
522 41 2 -4.256 70.612 9.800
523 41 2 -1.195 69.474 8.836
524 41 2 -1.481 66.655 9.454
525 41 2 0.456 64.803 10.016
526 41 2 3.339 64.552 11.611
527 41 2 4.527 62.176 13.044
528 41 2 4.217 58.795 14.585
529 41 2 5.385 55.578 14.145
530 41 3 7.549 53.443 15.517
531 41 3 8.545 50.419 16.882
532 41 3 10.151 47.115 17.451
533 41 4 12.284 45.560 18.351
534 42 1 9.798 32.131 -92.102
535 42 2 11.849 32.418 -90.816
536 42 2 13.112 30.234 -88.617
537 42 2 10.622 28.947 -86.398
538 42 2 9.805 30.322 -84.024
539 42 2 10.262 30.802 -81.163
540 42 2 8.403 29.800 -79.314
541 42 2 6.289 27.961 -77.873
542 42 2 5.390 25.130 -77.145
543 42 3 3.715 23.410 -74.562
544 42 3 2.069 23.984 -71.382
545 42 3 1.278 23.499 -67.751
546 42 4 -1.229 24.920 -66.921
547 43 1 23.352 -42.237 10.276
548 43 2 25.786 -43.542 10.355
549 43 2 25.599 -46.516 10.171
550 43 2 27.294 -48.688 9.046
551 43 2 29.254 -51.101 10.870
552 43 2 30.137 -54.146 10.798
553 43 2 32.771 -55.865 11.518
554 43 2 36.166 -53.870 11.588
555 43 2 38.751 -54.950 12.949
556 43 3 41.239 -55.963 15.508
557 43 3 41.538 -58.709 16.839
558 43 3 43.027 -62.295 18.062
559 43 4 44.542 -65.032 17.339
560 44 1 35.628 15.936 -23.466
561 44 2 34.092 13.844 -24.017
562 44 2 33.965 10.864 -23.959
563 44 2 32.857 8.960 -21.582
564 44 2 29.812 7.802 -21.810
565 44 2 27.759 7.751 -18.823
566 44 2 25.945 6.362 -16.373
567 44 2 25.305 6.644 -12.781
568 44 2 22.373 8.012 -11.887
569 44 3 19.998 10.845 -10.286
570 44 3 17.876 12.583 -7.059
571 44 3 15.845 12.681 -4.075
572 44 4 15.938 11.996 -1.216
573 45 1 41.227 33.150 -93.836
574 45 2 38.490 32.972 -93.525
575 45 2 35.883 34.448 -94.901
576 45 2 35.569 34.869 -98.086
577 45 2 35.424 32.217 -100.290
578 45 2 37.375 29.661 -100.634
579 45 2 36.645 26.543 -98.976
580 45 2 33.825 26.511 -99.406
581 45 2 31.600 26.600 -97.675
582 45 3 28.941 28.813 -96.981
583 45 3 27.274 30.075 -94.575
584 45 3 23.862 30.917 -93.392
585 45 4 21.167 31.483 -95.067
586 46 1 26.503 50.111 -48.471
587 46 2 23.961 50.417 -49.790
588 46 2 23.507 51.171 -46.973
589 46 2 22.223 50.138 -43.524
590 46 2 19.625 50.993 -41.812
591 46 2 19.686 52.789 -38.912
592 46 2 17.676 53.436 -36.479
593 46 2 15.697 51.201 -35.975
594 46 2 15.325 48.058 -36.229
595 46 3 13.746 45.817 -34.466
596 46 3 11.636 44.939 -32.207
597 46 3 9.329 42.213 -30.751
598 46 4 8.275 39.860 -32.500
599 47 1 -39.026 64.244 10.346
600 47 2 -36.574 65.396 11.363
601 47 2 -35.093 64.609 13.785
602 47 2 -35.349 65.847 17.024
603 47 2 -34.930 63.507 19.217
604 47 2 -37.211 61.779 18.299
605 47 2 -38.660 60.067 16.323
606 47 2 -37.494 57.309 15.373
607 47 2 -34.585 55.827 15.463
608 47 3 -32.055 55.376 18.003
609 47 3 -30.779 56.759 20.692
610 47 3 -29.671 58.297 23.531
611 47 4 -27.662 58.835 25.987
612 48 1 7.267 -13.459 34.361
613 48 2 9.296 -15.384 33.538
614 48 2 9.585 -17.622 30.592
615 48 2 6.935 -19.456 29.784
616 48 2 6.857 -22.522 29.729
617 48 2 8.296 -25.628 30.467
618 48 2 8.114 -26.794 33.038
619 48 2 7.753 -29.748 34.380
620 48 2 6.687 -32.323 33.675
621 48 3 4.691 -34.741 31.883
622 48 3 1.764 -37.072 33.216
623 48 3 -1.055 -37.173 35.558
624 48 4 -3.615 -36.712 37.308
625 49 1 -56.316 -6.952 24.365
626 49 2 -55.033 -8.344 22.311
627 49 2 -52.788 -10.252 21.555
628 49 2 -49.787 -10.536 23.048
629 49 2 -48.148 -8.764 24.531
630 49 2 -46.404 -5.524 24.664
631 49 2 -46.915 -2.938 23.515
632 49 2 -48.640 -0.818 22.471
633 49 2 -50.785 -1.832 20.264
634 49 3 -51.463 -2.792 17.267
635 49 3 -52.050 -4.522 14.105
636 49 3 -52.141 -6.638 11.445
637 49 4 -53.384 -7.048 8.973
638 50 1 21.694 -48.669 -17.479
639 50 2 22.141 -47.826 -14.986
640 50 2 22.332 -45.738 -12.594
641 50 2 21.629 -42.944 -12.954
642 50 2 23.193 -40.275 -12.372
643 50 2 24.098 -37.212 -13.946
644 50 2 24.017 -36.728 -16.826
645 50 2 25.243 -33.912 -18.689
646 50 2 28.705 -33.676 -19.309
647 50 3 30.715 -31.401 -20.833
648 50 3 30.752 -28.858 -23.177
649 50 3 31.305 -25.744 -24.898
650 50 4 33.818 -23.965 -24.120
651 51 1 55.796 -69.620 85.928
652 51 2 56.072 -68.753 88.298
653 51 2 56.758 -66.218 89.826
654 51 2 56.330 -64.771 92.161
655 51 2 54.740 -62.730 92.567
656 51 2 55.287 -60.079 94.415
657 51 2 54.980 -59.343 97.566
658 51 2 57.087 -56.874 98.818
659 51 2 57.414 -53.194 98.936
660 51 3 56.032 -50.392 100.000
661 51 3 55.987 -47.183 99.436
662 51 3 56.072 -43.319 99.705
663 51 4 56.084 -40.456 100.874
664 52 1 -1.767 10.865 -72.114
665 52 2 -3.281 8.689 -71.683
666 52 2 -1.597 6.692 -70.615
667 52 2 1.609 7.580 -71.581
668 52 2 4.500 5.908 -71.290
669 52 2 6.220 4.209 -69.835
670 52 2 8.588 5.056 -68.269
671 52 2 8.277 5.586 -65.176
672 52 2 9.557 7.526 -63.075
673 52 3 8.875 7.987 -59.755
674 52 3 7.580 8.145 -56.593
675 52 3 5.290 7.997 -53.523
676 52 4 4.236 9.839 -51.883
677 53 1 -55.810 58.246 -79.870
678 53 2 -53.910 59.982 -80.933
679 53 2 -53.391 62.899 -82.812
680 53 2 -51.580 63.348 -85.240
681 53 2 -49.305 64.699 -85.471
682 53 2 -47.468 64.939 -88.164
683 53 2 -44.006 64.873 -87.793
684 53 2 -41.821 63.232 -86.299
685 53 2 -40.382 60.715 -87.200
686 53 3 -40.965 57.299 -88.269
687 53 3 -43.360 54.594 -90.034
688 53 3 -45.171 52.141 -91.657
689 53 4 -45.254 49.235 -90.570
690 54 1 -32.018 -17.030 68.659
691 54 2 -32.308 -19.850 68.701
692 54 2 -34.514 -21.301 70.121
693 54 2 -37.713 -21.245 70.677
694 54 2 -39.229 -23.211 72.584
695 54 2 -41.265 -25.240 73.196
696 54 2 -42.637 -27.679 71.194
697 54 2 -45.743 -27.921 68.642
698 54 2 -45.159 -29.818 66.464
699 54 3 -44.000 -29.273 62.854
700 54 3 -45.556 -29.741 59.638
701 54 3 -47.078 -30.518 56.398
702 54 4 -47.694 -31.811 54.150
703 55 1 -36.585 -23.104 -13.680
704 55 2 -34.749 -21.629 -12.494
705 55 2 -31.798 -22.980 -11.959
706 55 2 -30.133 -22.181 -9.835
707 55 2 -28.383 -23.069 -7.636
708 55 2 -28.457 -24.845 -4.983
709 55 2 -31.060 -23.642 -4.583
710 55 2 -33.938 -25.112 -3.347
711 55 2 -34.823 -27.536 -2.026
712 55 3 -37.452 -27.236 0.229
713 55 3 -40.260 -28.543 2.262
714 55 3 -41.660 -29.064 5.479
715 55 4 -41.702 -29.326 8.787
716 56 1 35.161 -24.072 98.848
717 56 2 35.454 -24.133 96.154
718 56 2 34.143 -25.838 93.800
719 56 2 30.543 -26.773 93.637
720 56 2 28.086 -28.667 92.641
721 56 2 25.658 -28.970 90.797
722 56 2 26.678 -26.129 89.859
723 56 2 25.146 -24.216 88.519
724 56 2 23.466 -23.049 90.426
725 56 3 26.424 -22.000 92.697
726 56 3 26.986 -20.690 95.895
727 56 3 28.176 -18.972 98.169
728 56 4 29.836 -16.734 99.574
729 57 1 62.673 19.400 39.566
730 57 2 60.007 18.746 40.033
731 57 2 57.699 20.942 41.206
732 57 2 57.049 24.185 39.560
733 57 2 54.108 25.584 38.512
734 57 2 51.159 25.633 36.918
735 57 2 48.725 27.778 37.352
736 57 2 46.435 28.729 35.366
737 57 2 43.485 28.231 33.994
738 57 3 40.201 26.464 34.014
739 57 3 37.023 25.765 35.084
740 57 3 33.796 25.926 36.447
741 57 4 31.065 24.693 36.226
742 58 1 -14.204 -31.023 73.793
743 58 2 -12.411 -31.535 72.156
744 58 2 -10.601 -33.119 70.217
745 58 2 -10.671 -35.874 69.978
746 58 2 -8.970 -38.167 71.097
747 58 2 -6.223 -39.142 71.652
748 58 2 -4.570 -38.458 74.505
749 58 2 -3.111 -39.805 76.994
750 58 2 -2.243 -39.182 79.849
751 58 3 -3.074 -39.265 83.250
752 58 3 -4.605 -37.658 85.787
753 58 3 -5.189 -36.447 88.771
754 58 4 -4.822 -35.342 91.501
755 59 1 33.834 34.433 13.325
756 59 2 35.265 33.704 11.044
757 59 2 33.813 34.727 8.296
758 59 2 32.272 37.044 6.453
759 59 2 32.404 38.629 3.551
760 59 2 30.251 40.827 3.119
761 59 2 28.760 41.169 0.391
762 59 2 25.763 41.312 -1.201
763 59 2 22.620 41.824 -0.145
764 59 3 19.410 40.447 -0.355
765 59 3 16.410 42.100 -0.729
766 59 3 13.316 43.926 -1.638
767 59 4 10.269 45.249 -1.551
768 60 1 1.284 4.070 46.173
769 60 2 1.726 2.659 43.508
770 60 2 4.381 3.020 41.726
771 60 2 5.722 5.662 40.927
772 60 2 5.564 8.475 40.197
773 60 2 7.618 10.902 39.778
774 60 2 10.024 11.967 41.600
775 60 2 11.009 12.779 44.942
776 60 2 9.261 14.037 46.922
777 60 3 6.438 15.061 47.800
778 60 3 4.041 15.128 50.563
779 60 3 2.907 16.213 54.150
780 60 4 2.987 17.263 57.057
781 61 1 -33.601 55.518 84.167
782 61 2 -33.065 53.352 85.535
783 61 2 -34.264 50.656 84.771
784 61 2 -34.573 50.075 82.096
785 61 2 -36.379 47.933 80.446
786 61 2 -39.109 49.777 81.678
787 61 2 -40.895 48.426 79.338
788 61 2 -43.074 46.508 78.589
789 61 2 -45.387 45.335 80.214
790 61 3 -48.267 46.916 80.630
791 61 3 -50.592 49.294 82.011
792 61 3 -53.062 51.843 81.804
793 61 4 -56.121 52.020 82.598
794 62 1 57.128 3.250 2.588
795 62 2 56.867 0.599 2.259
796 62 2 56.753 -1.576 4.368
797 62 2 57.125 -4.518 5.274
798 62 2 55.631 -4.627 7.675
799 62 2 56.835 -4.836 10.410
800 62 2 54.106 -5.216 11.778
801 62 2 51.874 -3.439 11.776
802 62 2 48.821 -3.471 13.115
803 62 3 46.031 -4.984 14.903
804 62 3 45.306 -8.511 15.517
805 62 3 43.543 -11.560 16.770
806 62 4 41.569 -13.329 18.137
807 63 1 6.115 43.849 -19.634
808 63 2 5.074 42.153 -21.492
809 63 2 4.770 39.013 -21.325
810 63 2 3.427 37.438 -19.311
811 63 2 3.821 34.442 -18.608
812 63 2 6.373 32.745 -18.905
813 63 2 7.872 32.675 -22.060
814 63 2 8.863 29.948 -23.196
815 63 2 11.063 27.417 -25.033
816 63 3 12.294 24.272 -25.837
817 63 3 13.838 20.893 -26.240
818 63 3 12.920 16.865 -26.528
819 63 4 13.114 13.841 -27.633
820 64 1 -49.460 36.176 33.498
821 64 2 -46.868 35.168 32.401
822 64 2 -45.383 35.599 29.575
823 64 2 -45.626 33.990 27.074
824 64 2 -43.331 32.776 25.392
825 64 2 -40.692 33.733 24.551
826 64 2 -38.316 32.577 26.524
827 64 2 -35.387 33.358 27.156
828 64 2 -35.721 33.804 29.968
829 64 3 -34.802 32.274 32.934
830 64 3 -36.316 31.131 36.455
831 64 3 -36.037 28.910 38.747
832 64 4 -37.161 27.665 41.094
833 65 1 -32.105 -28.919 -77.208
834 65 2 -29.599 -29.185 -78.263
835 65 2 -28.132 -27.905 -80.721
836 65 2 -25.638 -28.183 -83.142
837 65 2 -23.529 -30.611 -84.482
838 65 2 -22.101 -33.496 -83.744
839 65 2 -23.054 -36.875 -83.397
840 65 2 -20.581 -39.299 -82.932
841 65 2 -17.862 -39.620 -80.864
842 65 3 -15.938 -40.445 -78.131
843 65 3 -12.927 -40.747 -76.338
844 65 3 -10.674 -43.060 -74.565
845 65 4 -9.909 -44.518 -71.997
846 66 1 -57.632 -40.997 82.290
847 66 2 -58.201 -43.567 83.189
848 66 2 -57.174 -45.943 82.572
849 66 2 -58.208 -48.530 82.990
850 66 2 -56.275 -50.804 83.412
851 66 2 -56.131 -53.771 81.864
852 66 2 -54.282 -56.068 81.577
853 66 2 -54.719 -58.940 80.351
854 66 2 -55.677 -62.292 80.487
855 66 3 -54.653 -65.511 81.254
856 66 3 -53.811 -68.340 79.451
857 66 3 -52.922 -71.394 78.965
858 66 4 -51.225 -73.677 77.880
859 67 1 -28.845 -29.733 -56.919
860 67 2 -27.326 -31.083 -58.756
861 67 2 -24.353 -30.660 -59.114
862 67 2 -22.594 -32.713 -58.544
863 67 2 -21.281 -32.736 -55.887
864 67 2 -18.835 -35.475 -56.329
865 67 2 -17.053 -37.334 -54.722
866 67 2 -15.003 -39.366 -54.825
867 67 2 -14.006 -41.991 -54.758
868 67 3 -11.715 -43.997 -53.598
869 67 3 -9.428 -45.672 -51.518
870 67 3 -6.217 -44.926 -52.133
871 67 4 -3.125 -45.637 -53.221
872 68 1 -55.239 -10.328 74.304
873 68 2 -56.591 -12.497 75.543
874 68 2 -56.833 -11.636 78.337
875 68 2 -56.248 -13.112 80.696
876 68 2 -58.031 -13.343 83.591
877 68 2 -61.065 -12.296 84.664
878 68 2 -62.313 -14.751 85.310
879 68 2 -64.741 -16.368 84.659
880 68 2 -65.863 -16.792 87.643
881 68 3 -68.772 -16.378 89.359
882 68 3 -72.047 -15.681 91.217
883 68 3 -75.362 -15.514 91.895
884 68 4 -78.013 -16.462 92.328
885 69 1 43.512 -6.061 -32.227
886 69 2 44.014 -8.669 -31.327
887 69 2 43.283 -10.383 -28.905
888 69 2 44.640 -13.801 -29.170
889 69 2 45.909 -16.499 -27.448
890 69 2 48.425 -17.984 -27.367
891 69 2 48.584 -21.237 -26.950
892 69 2 49.012 -24.424 -27.787
893 69 2 47.425 -27.222 -27.530
894 69 3 44.744 -28.496 -29.559
895 69 3 42.605 -29.417 -32.468
896 69 3 39.967 -31.821 -33.461
897 69 4 37.095 -31.486 -34.782
898 70 1 66.884 29.964 -95.968
899 70 2 69.160 31.369 -96.229
900 70 2 69.961 31.546 -93.640
901 70 2 68.979 30.205 -90.841
902 70 2 66.736 29.134 -88.545
903 70 2 65.861 27.122 -86.285
904 70 2 64.408 26.831 -83.540
905 70 2 62.833 28.651 -81.826
906 70 2 61.018 26.959 -79.861
907 70 3 57.743 27.497 -79.286
908 70 3 55.201 29.589 -77.460
909 70 3 55.058 31.683 -74.311
910 70 4 54.925 32.151 -71.243
911 71 1 -61.482 37.869 101.173
912 71 2 -61.920 37.155 98.927
913 71 2 -61.734 33.845 97.895
914 71 2 -64.139 31.807 98.373
915 71 2 -64.968 30.438 100.995
916 71 2 -64.554 28.101 100.712
917 71 2 -61.905 27.727 99.148
918 71 2 -59.179 25.933 99.602
919 71 2 -60.189 23.089 98.263
920 71 3 -59.795 20.639 96.014
921 71 3 -58.889 16.911 95.436
922 71 3 -58.545 13.630 96.179
923 71 4 -59.104 10.613 96.774
924 72 1 -0.908 23.528 33.024
925 72 2 -3.237 23.951 31.893
926 72 2 -3.656 22.713 29.271
927 72 2 -6.115 21.367 28.500
928 72 2 -6.226 19.150 30.482
929 72 2 -5.161 16.786 29.173
930 72 2 -7.367 14.894 27.895
931 72 2 -7.954 11.834 26.973
932 72 2 -8.903 9.905 29.112
933 72 3 -10.879 7.452 28.768
934 72 3 -13.766 5.511 29.287
935 72 3 -16.428 3.617 29.784
936 72 4 -18.917 2.559 28.884
937 73 1 -26.596 54.578 89.151
938 73 2 -27.321 56.390 91.136
939 73 2 -28.143 55.435 93.847
940 73 2 -25.802 57.046 95.395
941 73 2 -25.726 59.954 97.386
942 73 2 -24.644 59.784 100.225
943 73 2 -26.189 60.838 102.593
944 73 2 -25.064 63.248 104.477
945 73 2 -25.767 65.770 106.489
946 73 3 -27.952 68.752 105.662
947 73 3 -28.932 68.976 101.974
948 73 3 -31.110 70.925 100.251
949 73 4 -33.090 73.284 100.192
950 74 1 -25.519 33.263 -81.259
951 74 2 -24.504 32.735 -83.705
952 74 2 -24.713 29.910 -84.996
953 74 2 -22.361 28.910 -86.976
954 74 2 -19.097 29.906 -87.366
955 74 2 -16.858 32.386 -86.119
956 74 2 -14.013 33.341 -88.009
957 74 2 -11.612 32.877 -86.396
958 74 2 -10.760 35.286 -84.873
959 74 3 -7.640 35.990 -84.406
960 74 3 -4.371 36.936 -83.263
961 74 3 -0.712 37.146 -82.186
962 74 4 1.165 39.458 -82.434
963 75 1 -13.862 59.327 -30.771
964 75 2 -16.201 60.123 -32.236
965 75 2 -17.621 58.196 -34.616