LAMMPS data file via write_data, version 7 Aug 2019, timestep = 2000000

8000 atoms
6 atom types
7000 bonds
1 bond types
9000 angles
1 angle types
5000 dihedrals
2 dihedral types

3.7421629011908360e-10 6.8257837098808229e-09 xlo xhi
3.7421629011908360e-10 6.8257837098808229e-09 ylo yhi
3.7421629011908360e-10 6.8257837098808229e-09 zlo zhi

Masses

1 1.99447e-26
2 2.32924e-26
3 2.32924e-26
4 2.32924e-26
5 2.49662e-26
6 2.49662e-26

#PairIJ Coeffs # lj/smooth

#1 1 3.47385e-22 3.8e-10 1.3e-09 1.5e-09
#1 2 5.33663e-22 3.85214e-10 1.3e-09 1.5e-09
#1 3 5.33663e-22 3.85214e-10 1.3e-09 1.5e-09
#1 4 5.33663e-22 3.85214e-10 1.3e-09 1.5e-09
#1 5 5.91576e-22 3.87918e-10 1.3e-09 1.5e-09
#1 6 6.49898e-22 3.85214e-10 1.3e-09 1.5e-09
#2 2 8.19828e-22 3.905e-10 1.3e-09 1.5e-09
#2 3 8.19828e-22 3.905e-10 1.3e-09 1.5e-09
#2 4 8.19828e-22 3.905e-10 1.3e-09 1.5e-09
#2 5 9.08797e-22 3.9324e-10 1.3e-09 1.5e-09
#2 6 9.98393e-22 3.905e-10 1.3e-09 1.5e-09
#3 3 8.19828e-22 3.905e-10 1.3e-09 1.5e-09
#3 4 8.19828e-22 3.905e-10 1.3e-09 1.5e-09
#3 5 9.08797e-22 3.9324e-10 1.3e-09 1.5e-09
#3 6 9.98393e-22 3.905e-10 1.3e-09 1.5e-09
#4 4 8.19828e-22 3.905e-10 1.3e-09 1.5e-09
#4 5 9.08797e-22 3.9324e-10 1.3e-09 1.5e-09
#4 6 9.98393e-22 3.905e-10 1.3e-09 1.5e-09
#5 5 1.00742e-21 3.96e-10 1.3e-09 1.5e-09
#5 6 1.10674e-21 3.9324e-10 1.3e-09 1.5e-09
#6 6 1.21585e-21 3.905e-10 1.3e-09 1.5e-09

Bond Coeffs # harmonic

1 180.64 1.526e-10

Angle Coeffs # harmonic

1 4.37705e-19 112.4

Dihedral Coeffs # fourier

1 1 4.6318e-21 3 0
2 1 1.38954e-20 3 0

Atoms # molecular

3933 492 5 1.0883083618628970e-09 7.7891771967176420e-10 4.3324399999974903e-10 0 1 1
3932 492 5 1.2361564795837032e-09 6.0278168420536276e-10 5.2513510186192100e-10 0 1 1
634 80 3 9.1642318989157355e-10 4.9932224432779370e-10 9.3555647083286419e-10 0 -1 1
633 80 1 1.0303443829230870e-09 5.9665066771523077e-10 9.8534704820157576e-10 0 -1 1
640 80 4 9.0303177141412456e-10 6.8043241257987450e-09 9.8330999143902476e-10 0 -2 1
3929 492 1 1.2100391513561860e-09 6.8121412320936846e-10 3.9809937575522687e-10 0 1 1
3931 492 5 1.1909718350981306e-09 5.8201831904267967e-10 6.7377931029646673e-09 0 1 0
2741 343 5 6.3416062000635997e-10 6.9146333521512225e-10 4.2964753874928033e-10 0 1 -1
2740 343 5 8.0045777999569740e-10 5.6099891144923132e-10 5.6416327545098513e-10 0 1 -1
2737 343 1 6.6697792712155125e-10 6.3794643915672537e-10 5.7170043392446976e-10 0 1 -1
6684 836 5 6.7386373571544996e-09 6.9814331315348029e-10 1.2467057084464016e-09 0 0 1
637 80 5 1.0186108525875865e-09 6.5678370072504203e-10 1.1207989604265363e-09 0 -1 1
7255 907 6 6.5731323466819833e-10 1.0215566513698449e-09 9.4317745922831814e-10 0 0 1
7254 907 2 5.6743765377355901e-10 1.1359858821046669e-09 9.6395912289197134e-10 0 0 1
7256 907 4 5.0596506140256422e-10 1.1340908425861076e-09 1.0996458363571242e-09 0 0 1
635 80 5 1.1723389800005212e-09 5.3156032133287164e-10 9.7410035995599888e-10 0 -1 1
6683 836 5 4.4816329812352630e-10 5.0804850321668150e-10 1.2155693101394494e-09 1 0 1
6681 836 1 4.3520828886068777e-10 6.5916822442487793e-10 1.2268951907904081e-09 1 0 1
6685 836 5 4.7641001211111553e-10 7.0319463693450920e-10 1.0899791084470393e-09 1 0 1
2738 343 3 5.5258301775724326e-10 5.4964048596330018e-10 6.3072226778158954e-10 0 1 -1
2744 343 4 4.1617791546329742e-10 6.0852833901392969e-10 6.6119281794706202e-10 0 1 -1
2739 343 5 6.9844051820545581e-10 7.5004335025438416e-10 6.6182403603499783e-10 0 1 -1
636 80 5 1.0344633006021647e-09 7.1718355449645847e-10 8.8773450694859982e-10 0 -1 1
5159 645 6 1.4382547233053560e-09 6.7680984172187030e-09 3.8960415811851540e-10 3 -2 1
7223 903 6 1.8208216116593310e-09 1.3218713917357321e-09 5.3543776599072728e-10 0 -1 1
7224 903 4 2.0000103555489274e-09 1.2566201329815075e-09 6.9615286182098977e-10 0 -1 1
7222 903 2 1.9429576081615514e-09 1.3648520181845588e-09 6.0744554080169600e-10 0 -1 1
7218 903 3 2.0725453761810601e-09 1.2918402934378844e-09 8.3360256038510234e-10 0 -1 1
6677 835 5 1.7442229073746089e-09 3.8717560374910751e-10 7.4536323917823862e-10 -1 1 1
6674 835 3 1.8044923120407336e-09 6.3495352869206064e-10 7.6190274817474499e-10 -1 1 1
6675 835 5 1.8056325573363578e-09 4.8103459625418917e-10 9.6506470883797302e-10 -1 1 1
6673 835 1 1.7389253432372770e-09 5.1475832590409504e-10 8.3153744307163964e-10 -1 1 1
6676 835 5 1.5899978620227346e-09 5.4556248376644327e-10 8.6149545135195833e-10 -1 1 1
2835 355 5 1.8402827192147104e-09 8.0775178036048045e-10 1.2169427863860470e-09 0 0 0
6680 835 4 1.7312091685924470e-09 6.8581621617562177e-10 6.3630926418130976e-10 -1 1 1
6971 872 5 1.2190440609365375e-09 1.4906953003582207e-09 6.7323999127627322e-09 0 0 0
6976 872 4 1.3455493822917121e-09 1.5607877931908035e-09 5.7346042984558064e-10 0 0 1
6975 872 6 1.3635720859793839e-09 1.5506795285047431e-09 8.1961826921417661e-10 0 0 1
4680 585 4 1.5246088109617468e-09 1.2514515357604397e-09 1.1900696868594771e-09 -1 0 -1
2834 355 3 1.9711060512436344e-09 9.9387642675574501e-10 1.3000209842049384e-09 0 0 0
4261 533 5 1.8569769956779430e-09 6.7411121555753842e-09 1.3754772026821458e-09 0 1 -1
4679 585 6 1.5867197123175986e-09 1.0642587562646813e-09 1.0339627677820365e-09 -1 0 -1
7217 903 1 2.1866521999699121e-09 1.1940441523492391e-09 8.9507628656788980e-10 0 -1 1
7220 903 5 2.3093487381419152e-09 1.1789690239973380e-09 8.1134297259557872e-10 0 -1 1
7219 903 5 2.1223359627020460e-09 1.0570505971611302e-09 9.0647638235656959e-10 0 -1 1
7221 903 5 2.2281155688567717e-09 1.2491256059204162e-09 1.0312064117034417e-09 0 -1 1
2046 256 2 2.1820176415372053e-09 5.1969621550190845e-10 7.9384163343031029e-10 1 2 1
2047 256 6 2.2163996900617680e-09 6.5911052147909866e-10 7.4040537927343249e-10 1 2 1
5409 677 1 2.6285685392487342e-09 5.2181432383355086e-10 8.4288954885420362e-10 0 2 0
5410 677 3 2.5599116595664321e-09 6.2464048076262071e-10 9.3915491210969309e-10 0 2 0
5412 677 5 2.5627498619969785e-09 3.8264572216516053e-10 8.6432006967777848e-10 0 2 0
5414 677 2 2.5219784634196811e-09 8.5182304992494525e-10 1.0323500956725195e-09 0 2 0
5416 677 4 2.5957533004077732e-09 7.7263176970683269e-10 9.2995916391106342e-10 0 2 0
5415 677 6 2.5534651936157125e-09 9.9707160613589079e-10 1.0324233573986672e-09 0 2 0
3965 496 5 2.8171383820336573e-09 1.4955900947654206e-09 1.3362974984941374e-09 1 1 0
3964 496 5 2.9338821245628996e-09 1.3069712952924592e-09 1.4429360791957311e-09 1 1 0
3961 496 1 2.8357807753606736e-09 1.3499232789088265e-09 1.3278481669074697e-09 1 1 0
3962 496 3 2.9042967056018203e-09 1.2972206171812481e-09 1.1901067522532689e-09 1 1 0
3968 496 4 2.8269580175510232e-09 1.2987820266713585e-09 1.0564596571063783e-09 1 1 0
3966 496 2 2.8810581457795953e-09 1.2024607295110876e-09 9.5497919537441852e-10 1 1 0
3967 496 6 2.8085613062523134e-09 1.2189484619686162e-09 8.1856403033817674e-10 1 1 0
3963 496 5 2.6985166974726080e-09 1.2828751707841468e-09 1.3472136343797180e-09 1 1 0
5411 677 5 2.7769151928766342e-09 5.0332049457640661e-10 8.7491535551464851e-10 0 2 0
1644 206 5 2.9443535890228145e-09 9.6712155512133836e-10 1.2944574253451789e-09 0 1 2
1645 206 5 2.8324161872640677e-09 7.4353607950793797e-10 1.2685194773792815e-09 0 1 2
3123 391 5 2.5623290639565593e-09 1.5630594246878047e-09 6.8091660871648022e-09 0 1 0
1648 206 4 2.9659936415511652e-09 8.5185998229663327e-10 9.8758580303805179e-10 0 1 2
1642 206 3 3.0399370246675822e-09 8.0542601088452004e-10 1.1179162900504642e-09 0 1 2
1647 206 6 2.9453009324466774e-09 8.4412290504784205e-10 7.3629504522199841e-10 0 1 2
1646 206 2 3.0469139383024483e-09 8.2792263395776031e-10 8.6099414584603164e-10 0 1 2
4995 625 5 3.5148946510352454e-09 6.3636516673291610e-10 5.3154921420057420e-10 0 1 1
4993 625 1 3.6274570974056478e-09 6.7535141995956707e-10 4.3275575495103011e-10 0 1 1
2339 293 5 3.3079511392988975e-09 1.2517398905516165e-09 1.0532703611520301e-09 0 1 0
4994 625 3 3.7530026696354204e-09 5.7976224941010469e-10 4.5187658654992004e-10 0 1 1
4996 625 5 3.6730730195782639e-09 8.0820453540796351e-10 4.7435983195704333e-10 0 1 1
1467 184 5 3.6571697891787740e-09 6.4922834307412202e-10 1.1467564194060505e-09 1 1 1
1468 184 5 3.7894700664857511e-09 5.5825168792412211e-10 1.3328834844218299e-09 1 1 1
1466 184 3 3.6490491201722622e-09 7.8124664272064304e-10 1.3656747954562321e-09 1 1 1
1465 184 1 3.6603519561246056e-09 6.3891264507870480e-10 1.3028657267008756e-09 1 1 1
1469 184 5 3.5450348421809222e-09 5.4458882365197210e-10 1.3342507056122946e-09 1 1 1
1472 184 4 3.6661991919396607e-09 8.0638121434452522e-10 1.5134835185930586e-09 1 1 1
1470 184 2 3.6426626225232752e-09 9.5933222914720889e-10 1.5522511364652451e-09 1 1 1
2341 293 5 3.3517789707300497e-09 1.1436294021538422e-09 1.2698099216106677e-09 0 1 0
2337 293 1 3.3830460891974875e-09 1.2613969227240064e-09 1.1802352663918500e-09 0 1 0
2340 293 5 3.5292550033386411e-09 1.2479151807985707e-09 1.1379284136955057e-09 0 1 0
2338 293 3 3.3685935584073026e-09 1.3868537929965240e-09 1.2620588882927372e-09 0 1 0
174 22 2 3.8890164891356109e-09 1.1842184016123890e-09 1.3751253187755148e-09 -3 0 0
175 22 6 3.8504687388487644e-09 1.1011906720273153e-09 1.2568231367758635e-09 -3 0 0
176 22 4 4.0038171704090598e-09 1.1386381637601606e-09 1.4607770782874650e-09 -3 0 0
2344 293 4 3.3792045278838828e-09 1.5201475984718099e-09 1.1936417538206519e-09 0 1 0
251 32 5 3.0523283245609849e-09 1.2656705157059221e-09 4.7649269396592227e-10 0 1 0
7999 1000 6 3.8950887216073055e-09 8.8210730932001957e-10 7.8589104825780438e-10 0 1 0
170 22 3 4.0135869695405309e-09 1.2110201221404985e-09 1.5953070433417280e-09 -3 0 0
8000 1000 4 4.0802833792948480e-09 8.6966688179030413e-10 9.5986002119517478e-10 0 1 0
7998 1000 2 3.9310090893702727e-09 8.5510199159636930e-10 9.2841647072115227e-10 0 1 0
7995 1000 5 4.1842263244576063e-09 7.8837046296725735e-10 1.3389173578994468e-09 0 1 0
7997 1000 5 4.3180253331080347e-09 9.3191004715173338e-10 1.1802576333407488e-09 0 1 0
7993 1000 1 4.2249087608620631e-09 8.1110203060526808e-10 1.1916142748347582e-09 0 1 0
7994 1000 3 4.0926591112746185e-09 8.2760165377466846e-10 1.1131712352479594e-09 0 1 0
7996 1000 5 4.2968872929673956e-09 6.8217295107581357e-10 1.1458494027083129e-09 0 1 0
7316 915 5 4.8221810022389735e-09 8.8952819239973774e-10 8.5761092371119055e-10 -1 2 2
7315 915 5 4.7549317049231573e-09 8.1421056442697410e-10 6.2813525273604081e-10 -1 2 2
7317 915 5 4.6251866450776227e-09 1.0015559422830194e-09 7.3573539914003591e-10 -1 2 2
6156 770 5 4.6389401840134436e-09 6.7317815262054840e-09 1.0004717131959967e-09 1 0 2
7313 915 1 4.7691532164482842e-09 9.3561799804548254e-10 7.2029865288315402e-10 -1 2 2
7320 915 4 5.0072128889220124e-09 1.0346117209105939e-09 6.3970370361151865e-10 -1 2 2
3703 463 6 4.3563476630404621e-09 9.7655230524533529e-10 4.9645502832484051e-10 -1 -1 -1
3447 431 6 3.9994795284945281e-09 4.7618615985968664e-10 8.9719749313101350e-10 -1 0 0
682 86 3 5.5225004396492372e-09 5.1897618861233203e-10 1.2950111489520718e-09 -1 1 -1
688 86 4 5.5117806482954814e-09 6.4094812706781739e-10 1.3909552756890686e-09 -1 1 -1
2168 271 4 5.7835310897503754e-09 9.8045289294073349e-10 1.3585920137161267e-09 0 2 1
2164 271 5 5.4703050920817176e-09 1.0105175764196264e-09 1.1295413905887652e-09 0 2 1
2162 271 3 5.6409786897607064e-09 9.8988431526699321e-10 1.3003710006084509e-09 0 2 1
2165 271 5 5.6178748022572014e-09 1.2032708619973943e-09 1.1693434702916812e-09 0 2 1
684 86 5 5.6173528154544659e-09 6.8079309200442373e-09 1.1288438004681441e-09 -1 0 -1
685 86 5 5.7475440984337193e-09 5.6869513528794721e-10 1.1758883471242086e-09 -1 1 -1
2161 271 1 5.6093775925082413e-09 1.0503092782216202e-09 1.1625864281052419e-09 0 2 1
2163 271 5 5.7038445839184470e-09 9.9679701186651530e-10 1.0479132420089526e-09 0 2 1
681 86 1 5.6566392545334698e-09 4.5650338083437356e-10 1.2318049423918402e-09 -1 1 -1
683 86 5 5.7390794281388520e-09 6.8093602436129280e-09 1.3255928407274704e-09 -1 0 -1
139 18 5 5.6136518091215387e-09 4.1333861103330156e-10 5.7262944113051685e-10 1 0 0
2166 271 2 5.7838856977407818e-09 9.2500599011554443e-10 1.4988408770790608e-09 0 2 1
2167 271 6 5.9259886848278517e-09 9.3971836629666164e-10 1.5580304349708063e-09 0 2 1
686 86 2 5.3616033471860908e-09 6.8326706369042121e-10 1.4102684007284724e-09 -1 1 -1
687 86 6 5.3532641823598332e-09 7.7166423321459542e-10 1.5342347797080640e-09 -1 1 -1
137 18 1 5.6519935149250418e-09 6.7450699809760231e-09 6.6276076929838666e-10 1 -1 0
141 18 5 5.5253504147624052e-09 6.7043878343085356e-09 7.4012804243106745e-10 1 -1 0
138 18 3 5.7613102306899532e-09 6.7778278838988964e-09 7.7312302189199256e-10 1 -1 0
6887 861 6 5.1434619801758574e-09 6.7516409096926224e-09 6.0932143081457033e-10 0 -1 1
143 18 6 6.1195100284485053e-09 4.3819089035069826e-10 7.8031391747641325e-10 1 0 0
3061 383 5 6.3853033808420079e-09 8.2124666878205512e-10 1.2881116654714788e-09 1 0 0
3057 383 1 6.2858268720078857e-09 7.0842143305321327e-10 1.3097626045623521e-09 1 0 0
3059 383 5 6.3357642930206311e-09 5.9715803230083404e-10 1.2150905610231945e-09 1 0 0
142 18 2 5.9856608418519468e-09 3.8115587709206373e-10 8.3793737017436964e-10 1 0 0
144 18 4 5.8961621770061929e-09 6.8033390099129419e-09 7.1652141021856376e-10 1 -1 0
6634 830 3 6.4703193372917937e-09 9.2088854754832503e-10 7.5603863959869213e-10 0 -1 4
6637 830 5 6.5196459267205645e-09 1.1722641664581810e-09 7.1138767635425622e-10 0 -1 4
6633 830 1 6.5742561545203125e-09 1.0416967572921522e-09 7.7315189263154019e-10 0 -1 4
6636 830 5 6.7049198166591499e-09 9.9816402915905154e-10 7.0432514568089700e-10 0 -1 4
6638 830 2 6.2453267490451802e-09 8.2768173378581886e-10 8.1050034711257330e-10 0 -1 4
6639 830 6 6.1202095756637816e-09 8.5940133571072403e-10 8.9033524971279378e-10 0 -1 4
12 2 5 6.1360533342313567e-09 1.5854787454779492e-09 9.9487209241671849e-10 0 -1 -1
6640 830 4 6.3397559042633889e-09 9.3977682069026416e-10 8.3272583137849413e-10 0 -1 4
11 2 5 6.2386315084378391e-09 1.3615769697746559e-09 1.0065367737139289e-09 0 -1 -1
6635 830 5 6.6034882918249630e-09 1.0643704033593197e-09 9.2518600492120358e-10 0 -1 4
2743 343 6 6.6334295519261945e-09 5.6843449051978025e-10 7.2644398135963747e-10 -1 1 -1
2742 343 2 6.7698882239867740e-09 5.0452469001428224e-10 7.1260935666360311e-10 -1 1 -1
3060 383 5 6.1433703487988069e-09 7.4853277204844117e-10 1.2695459313041924e-09 1 0 0
7956 995 5 6.0882389225700189e-09 9.6703319564976214e-10 5.1407626155692238e-10 -1 3 0
3788 474 5 9.9214648848057593e-10 1.1312521113716606e-09 7.5598724478489295e-10 0 2 -1
3785 474 1 9.5416674453198380e-10 1.2620677838650759e-09 6.9803634181739525e-10 0 2 -1
3789 474 5 1.0628153192230875e-09 1.2919236975998943e-09 5.9355617557734321e-10 0 2 -1
3787 474 5 9.5245321744733782e-10 1.3696745147730978e-09 8.0408713218632562e-10 0 2 -1
3786 474 3 8.1075972598954336e-10 1.2583674749020822e-09 6.4091920112190739e-10 0 2 -1
3792 474 4 7.5058746472573665e-10 1.3759546532521987e-09 5.6258000248869843e-10 0 2 -1
4693 587 5 9.3892887803900743e-10 1.7442817554018917e-09 6.3882005278772283e-10 0 0 1
642 81 3 7.3407977497471717e-10 1.7472634287784081e-09 1.1172917506623420e-09 0 0 0
644 81 5 9.9706001589971405e-10 1.7252414097349451e-09 1.1258979215764655e-09 0 0 0
641 81 1 8.7153503861084167e-10 1.8130315891589882e-09 1.1415714708089226e-09 0 0 0
645 81 5 8.8430395973492987e-10 1.9391771343278691e-09 1.0569653987174471e-09 0 0 0
4694 587 2 9.3514311594198342e-10 2.2335424608946983e-09 6.1899369085131438e-10 0 0 1
4690 587 3 9.6127681481147167e-10 1.9967621629677815e-09 6.2724935486039280e-10 0 0 1
4691 587 5 1.1280019933897365e-09 1.8553285888133432e-09 5.2484707927093937e-10 0 0 1
4689 587 1 1.0339619656022305e-09 1.8631355576927086e-09 6.4252683295502239e-10 0 0 1
4696 587 4 1.0352865370729957e-09 2.1321330309106599e-09 6.3149358389685229e-10 0 0 1
643 81 5 8.6356624882212396e-10 1.8715143727824438e-09 1.2847733413295490e-09 0 0 0
6941 868 5 4.9781443745695035e-10 2.0012924163237689e-09 6.7568688726471043e-09 0 1 0
2636 330 5 1.2724327021926407e-09 2.1800979549219630e-09 1.3373121788390915e-09 3 0 -1
648 81 4 7.1923884414011599e-10 1.6611354894950961e-09 9.9116773910592432e-10 0 0 0
646 81 2 5.7372510527780649e-10 1.6036866668744366e-09 9.7589205046387613e-10 0 0 0
6940 868 5 6.8238002071883894e-09 1.8971845279325729e-09 4.9549323608882379e-10 -1 1 1
6939 868 5 6.0066077679783706e-10 1.8200903630913888e-09 4.3478940011723095e-10 0 1 1
6937 868 1 5.1383165662674539e-10 1.9398364849271652e-09 4.5591138073236666e-10 0 1 1
6938 868 3 5.7659782462424399e-10 2.0433717501998517e-09 5.4627270711431508e-10 0 1 1
6944 868 4 5.0980758814317199e-10 2.1829921005508969e-09 5.6783399476520075e-10 0 1 1
6973 872 5 1.4475550132327356e-09 1.4539250835085846e-09 6.6494465103404514e-09 0 0 0
6969 872 1 1.3657847616149348e-09 1.5320243403617391e-09 6.7563341162702746e-09 0 0 0
4692 587 5 1.1116486774626742e-09 1.8529962355875604e-09 7.7105689279894533e-10 0 0 1
4673 585 1 1.4871502255759645e-09 1.4431908406418751e-09 1.3693980620630576e-09 -1 0 -1
4676 585 5 1.3975133778273144e-09 1.5410997057202291e-09 1.2882875117897403e-09 -1 0 -1
4675 585 5 1.6359241188181910e-09 1.4872510756214582e-09 1.3666471116321419e-09 -1 0 -1
6970 872 3 1.4049925341995654e-09 1.4936466880756421e-09 4.4978613029012484e-10 0 0 1
6974 872 2 1.4398392076659629e-09 1.5281742571931475e-09 6.8064099583986504e-10 0 0 1
3016 377 4 1.6855962817997037e-09 1.9547063040305825e-09 8.3192850147799141e-10 0 -1 -1
3014 377 2 1.5353857037873241e-09 1.9596944462856034e-09 8.1324708320577567e-10 0 -1 -1
3015 377 6 1.4905124860679825e-09 2.1060410649701363e-09 8.1282443512060862e-10 0 -1 -1
2637 330 5 1.2570810366042578e-09 2.0709440499712401e-09 1.0998215541239746e-09 3 0 -1
2633 330 1 1.3413881225919609e-09 2.0909726653263005e-09 1.2305432285648672e-09 3 0 -1
3010 377 3 1.7139167875651744e-09 1.8081340423627178e-09 8.8570652634510472e-10 0 -1 -1
3012 377 5 1.8892541346537378e-09 1.6190268929172389e-09 9.3235637941999551e-10 0 -1 -1
3011 377 5 1.9295969224017850e-09 1.8393638699986079e-09 1.0205142079083230e-09 0 -1 -1
3009 377 1 1.8722502276855598e-09 1.7663305026629128e-09 9.0040796817997606e-10 0 -1 -1
3013 377 5 1.9597933808321831e-09 1.7870317379464502e-09 7.7838003904512909e-10 0 -1 -1
2838 355 2 2.0339264886702858e-09 1.2221062038744663e-09 1.3801427980171205e-09 0 0 0
2839 355 6 2.1169950923652736e-09 1.3202839909962655e-09 1.4633196398409428e-09 0 0 0
1811 227 5 2.4131360331197883e-09 2.1211769252741783e-09 1.0139555369093024e-09 3 0 0
2915 365 5 2.0054067749628284e-09 2.2162620993346438e-09 7.7658330163158247e-10 2 2 1
2913 365 1 1.9998656846522865e-09 2.2189420304073434e-09 6.2489202885039229e-10 2 2 1
2916 365 5 2.1415873801527841e-09 2.2038526835949062e-09 5.6905697908863544e-10 2 2 1
1216 152 4 2.2851013624361037e-09 1.6769989061193101e-09 1.1479056846557493e-09 0 -1 1
1210 152 3 2.3966755980500713e-09 1.5893038401410844e-09 1.0887945378464312e-09 0 -1 1
6187 774 5 2.9418704380877894e-09 1.7054581869497066e-09 7.6775253653356968e-10 0 1 0
6189 774 5 3.1217705696100207e-09 1.5387727850072891e-09 7.9949420517880141e-10 0 1 0
6185 774 1 3.0801442799969242e-09 1.6691829947740761e-09 7.3319578163522629e-10 0 1 0
6186 774 3 3.1677537552807974e-09 1.7918752121231791e-09 7.7781216610733475e-10 0 1 0
1213 152 5 2.3356302278641069e-09 1.6221337881765037e-09 8.3946160136984150e-10 0 -1 1
6188 774 5 3.0761028852283474e-09 1.6470239115853285e-09 5.8227009663142610e-10 0 1 0
1212 152 5 2.5350944536302988e-09 1.4995431472107000e-09 8.9792488288809001e-10 0 -1 1
1211 152 5 2.5266252946722146e-09 1.7443563640563321e-09 9.3294170790558474e-10 0 -1 1
1209 152 1 2.4479087161633988e-09 1.6136093189711501e-09 9.4393691917090455e-10 0 -1 1
6192 774 4 3.3164160543849001e-09 1.8078439115113864e-09 7.3044402143045184e-10 0 1 0
6190 774 2 3.3802187069793486e-09 1.9425608931442405e-09 7.8353297630159258e-10 0 1 0
6191 774 6 3.5124400649111402e-09 1.9755819172656802e-09 7.2720057779589571e-10 0 1 0
252 32 5 3.1487494728908947e-09 1.2025878020529235e-09 6.7025013801967150e-09 0 1 -1
4753 595 1 2.9443100060354081e-09 2.0460125798645946e-09 1.1581424804243116e-09 0 1 -1
4757 595 5 2.9948579417893319e-09 1.9624165158372836e-09 1.0431968570653604e-09 0 1 -1
1214 152 2 2.2495372413942590e-09 1.6496958551606522e-09 1.2970256152605805e-09 0 -1 1
1215 152 6 2.1271434710112470e-09 1.7191961174158943e-09 1.3457544638488888e-09 0 -1 1
3121 391 1 2.6825270793769416e-09 1.4726557738159218e-09 3.7941100522956430e-10 0 1 1
3124 391 5 2.6306519620851083e-09 1.3333893286075552e-09 3.7630205666308652e-10 0 1 1
3125 391 5 2.7232540054981464e-09 1.4994513101698118e-09 5.2640795697533887e-10 0 1 1
256 32 4 3.3019893716722374e-09 1.1250707456192634e-09 6.0437075399430927e-10 0 1 0
255 32 6 3.4955520825357844e-09 1.0378054090281641e-09 7.3906491528825446e-10 0 1 0
254 32 2 3.4544430484545260e-09 1.1257107135390049e-09 6.2460431514766217e-10 0 1 0
6229 779 5 3.5162402285443625e-09 2.2582265447112228e-09 1.2407213532298628e-09 0 0 2
253 32 5 3.0603681111438778e-09 1.0298879374071287e-09 3.9196044560440374e-10 0 1 0
249 32 1 3.1324384611606826e-09 1.1632307580507569e-09 3.9537866363811845e-10 0 1 0
7911 989 6 3.5023467924711135e-09 1.4583738589920178e-09 7.3050314688993209e-10 0 2 0
7910 989 2 3.6347541615872529e-09 1.4988850809971215e-09 8.0284935801097858e-10 0 2 0
7912 989 4 3.6322783744035036e-09 1.6209161498323903e-09 8.9807499856047094e-10 0 2 0
250 32 3 3.2799203031453084e-09 1.1407704188195419e-09 4.5437011920165689e-10 0 1 0
4629 579 5 3.8813170889220551e-09 1.9133601002535099e-09 5.5708558291756305e-10 1 2 2
7905 989 1 3.7902464816445482e-09 1.7695620513547217e-09 1.0475711999319829e-09 0 2 0
7906 989 3 3.7752820792572290e-09 1.6625026171372231e-09 9.4186200696967444e-10 0 2 0
7909 989 5 3.7184767113424717e-09 1.8992816512196495e-09 1.0030681467614764e-09 0 2 0
7908 989 5 3.9404528359716153e-09 1.7934737708739536e-09 1.0477116057148473e-09 0 2 0
7907 989 5 3.7542460462870409e-09 1.7201952334855436e-09 1.1920834091877678e-09 0 2 0
3628 454 5 4.1058920827715740e-09 1.6321169815360737e-09 1.3765910886103967e-09 0 -1 0
3699 463 5 4.2679591192503225e-09 1.4093695823812119e-09 7.8708712276385942e-10 -1 -1 -1
3700 463 5 4.0234237587158872e-09 1.4409795753064752e-09 7.5739754063318256e-10 -1 -1 -1
3701 463 5 4.1042070165557070e-09 1.2578573462763712e-09 9.0833433660088594e-10 -1 -1 -1
6832 854 4 4.4830339711174425e-09 1.9459294514997094e-09 1.0317791077550152e-09 0 0 1
6831 854 6 4.4645948795156411e-09 2.1233188176986410e-09 1.2020359167769500e-09 0 0 1
6830 854 2 4.3918114470765071e-09 2.0506614172358161e-09 1.0879631225830969e-09 0 0 1
3697 463 1 4.1319408484632096e-09 1.3362574442436271e-09 7.7232584197822667e-10 -1 -1 -1
6826 854 3 4.4199142279865236e-09 1.8894953904341611e-09 9.0399874303367771e-10 0 0 1
3704 463 4 4.2371381982873866e-09 1.1250096077806688e-09 6.4484786392576515e-10 -1 -1 -1
3698 463 3 4.1302387327830979e-09 1.2379443861926379e-09 6.5724859398427869e-10 -1 -1 -1
3702 463 2 4.2286558301007622e-09 1.0669476761139815e-09 5.1057687071859519e-10 -1 -1 -1
6828 854 5 4.6274749723593139e-09 1.8494972715155073e-09 7.4129118055878782e-10 0 0 1
6825 854 1 4.5010320227073522e-09 1.7840438863236534e-09 8.0835408567377356e-10 0 0 1
6829 854 5 4.5478431139582179e-09 1.6651714733574170e-09 8.8532669105614578e-10 0 0 1
5169 647 1 4.6610548901762290e-09 1.2934653613181746e-09 1.1967272409205571e-09 0 1 1
5170 647 3 4.7683102854443829e-09 1.4003803024237016e-09 1.1639086406468090e-09 0 1 1
6827 854 5 4.4072068106278497e-09 1.7385996821793899e-09 6.9476430846705395e-10 0 0 1
5174 647 2 4.8731817624697966e-09 1.6189174775780441e-09 1.1346059669561730e-09 0 1 1
5175 647 6 4.8571216935740879e-09 1.7675116650892603e-09 1.1273816239741174e-09 0 1 1
5176 647 4 4.7425111356730527e-09 1.5540121248175293e-09 1.1708985607912301e-09 0 1 1
197 25 5 4.5724650050306450e-09 1.3370332924953765e-09 5.1382876221548150e-10 -1 1 0
193 25 1 4.6685030209861850e-09 1.4038797449834596e-09 4.2236946743391284e-10 -1 1 0
5173 647 5 4.7347300386833551e-09 1.1604995193690000e-09 1.1841666361059517e-09 0 1 1
196 25 5 4.7418892247507566e-09 1.3010068111559881e-09 6.8039412642621037e-09 -1 1 -1
5171 647 5 4.6132676332910002e-09 1.2980536907393189e-09 1.3418192388562379e-09 0 1 1
5172 647 5 4.5402840007294087e-09 1.3033881940206358e-09 1.1054947523897723e-09 0 1 1
2284 286 5 4.9619835296750686e-09 1.9274150644531734e-09 5.2636661031672033e-10 -1 0 0
194 25 3 4.7564723768557286e-09 1.4965699679103480e-09 5.0595421427013724e-10 -1 1 0
200 25 4 4.8428917781637257e-09 1.4413416964755172e-09 6.2556096437968797e-10 -1 1 0
64 8 4 5.5250998695897183e-09 1.6242892696168680e-09 9.2794813658669956e-10 -1 2 0
58 8 3 5.6365042510811443e-09 1.5975610897525002e-09 1.0263224269677657e-09 -1 2 0
60 8 5 5.8370693292389455e-09 1.7529803575417152e-09 9.9756558213026621e-10 -1 2 0
57 8 1 5.7229347473312433e-09 1.7110124649123060e-09 1.0884153439319387e-09 -1 2 0
198 25 2 4.9080330360265031e-09 1.5452605685988420e-09 7.1254673004775634e-10 -1 1 0
61 8 5 5.6367378253963401e-09 1.8370398205256579e-09 1.1221918463081440e-09 -1 2 0
59 8 5 5.7891927191359326e-09 1.6567940114710637e-09 1.2128582881314349e-09 -1 2 0
62 8 2 5.4560065654674186e-09 1.4939092419480920e-09 8.7362256472599371e-10 -1 2 0
63 8 6 5.3655817834714835e-09 1.5398498707039049e-09 7.5712945395230131e-10 -1 2 0
2445 306 5 5.7744720686952753e-09 1.8505504149012248e-09 4.6912886540725857e-10 -1 -1 0
2441 306 1 5.6424769561828922e-09 1.8286962003557366e-09 3.9615683578351780e-10 -1 -1 0
2442 306 3 5.6410257674526827e-09 1.9163443331085684e-09 6.7215765214596959e-09 -1 -1 -1
2443 306 5 5.5228557520548022e-09 1.8512831154094668e-09 4.9743271268783518e-10 -1 -1 0
2444 306 5 5.6406567168537244e-09 1.6722141058117385e-09 6.8170961069729414e-09 -1 -1 -1
6695 837 6 6.5603520704770002e-09 1.6320403364358658e-09 5.0033404798576394e-10 -3 0 1
6696 837 4 6.3273029659615078e-09 1.5456491411631223e-09 5.2852438299127413e-10 -3 0 1
6694 837 2 6.4353004186469465e-09 1.6417907389315270e-09 5.8558767739313683e-10 -3 0 1
6690 837 3 6.1844085194393636e-09 1.5809832421312917e-09 5.8544303460810392e-10 -3 0 1
6693 837 5 6.1043072645287392e-09 1.3645799459696994e-09 6.6658845846057866e-10 -3 0 1
2054 257 2 6.1113273313419770e-09 1.9692669238025142e-09 7.5645715962979827e-10 1 1 0
2055 257 6 6.1719671684845693e-09 1.9782130447675794e-09 6.1547378667867894e-10 1 1 0
6689 837 1 6.0684499196365543e-09 1.4789613353246714e-09 5.7354271970587834e-10 -3 0 1
647 81 6 5.3971723344226077e-10 1.5439247379710023e-09 8.4464466975544148e-10 0 0 0
6692 837 5 6.0598105198371015e-09 1.4249257422619680e-09 4.2613443295480427e-10 -3 0 1
4172 522 5 6.6364431131504599e-09 1.8667897103659675e-09 8.2579148386251209e-10 -1 -1 0
4169 522 1 6.7000832888175973e-09 1.9696387851162641e-09 9.1518186928336711e-10 -1 -1 0
6925 866 5 6.2761714914422536e-09 1.9168257196081495e-09 1.1634883902411374e-09 0 -2 0
4173 522 5 4.0374084269396860e-10 1.9522180685588144e-09 8.9801867569984428e-10 0 -1 0
4170 522 3 6.6650035767990834e-09 2.1223862293705636e-09 8.8267343872408697e-10 -1 -1 0
6691 837 5 5.9491524569963753e-09 1.5441496570206311e-09 6.2262746145909098e-10 -3 0 1
4176 522 4 6.5143218008583220e-09 2.1585276770272076e-09 8.9207309061976633e-10 -1 -1 0
4171 522 5 6.6584769312554502e-09 1.9273891772460502e-09 1.0500491410046342e-09 -1 -1 0
4174 522 2 6.4854227340679064e-09 2.2865657061608823e-09 8.1511232365698750e-10 -1 -1 0
6923 866 5 6.0975153389344513e-09 1.9169818091519270e-09 1.3179308554605514e-09 0 -2 0
6921 866 1 6.2496719817643735e-09 1.9430315619168285e-09 1.3114960942823056e-09 0 -2 0
6924 866 5 6.2747687902090162e-09 2.0987901356023941e-09 1.3379633231187442e-09 0 -2 0
4695 587 6 9.9452336452364860e-10 2.3704399757508669e-09 6.3543095682416058e-10 0 0 1
7029 879 5 1.2343188479822604e-09 3.0565426021792742e-09 8.5451493720978668e-10 4 1 0
7028 879 5 1.1260310698230103e-09 3.2529903486635980e-09 7.7106110810049574e-10 4 1 0
7025 879 1 1.1974244344137868e-09 3.1288896288410974e-09 7.2159339904004701e-10 4 1 0
7026 879 3 1.1010307262245186e-09 3.0392667794691896e-09 6.3958717992529133e-10 4 1 0
7931 992 5 6.0119519554068738e-10 2.7936724929320923e-09 9.1339017606504419e-10 0 1 2
356 45 5 5.5674745407164972e-10 2.4922717161508196e-09 1.3502488239773452e-09 1 -1 -1
7936 992 4 6.5637237936730292e-10 3.0906481268843345e-09 8.2296709479355773e-10 0 1 2
7930 992 3 7.2501647195127795e-10 2.9664796536516146e-09 7.6830484286365872e-10 0 1 2
7933 992 5 7.9866584986906105e-10 2.8977746014916418e-09 9.9529397876884891e-10 0 1 2
7929 992 1 7.3891458816832006e-10 2.8479662200043594e-09 8.6874242384653726e-10 0 1 2
7932 992 5 8.3111893020019830e-10 2.7448446531946075e-09 8.1433319259399638e-10 0 1 2
357 45 5 7.4430675968704131e-10 2.5728130149828751e-09 1.2384867040910344e-09 1 -1 -1
7032 879 4 1.1420530229533973e-09 2.8963834561429656e-09 5.8408121590138124e-10 4 1 0
2869 359 5 1.1736110321535394e-09 2.5822273888274961e-09 1.0576334179988790e-09 0 1 -1
928 116 4 8.2495482193374633e-10 3.1244060339213906e-09 6.6976922400070777e-09 0 0 -1
927 116 6 8.0143731030962785e-10 2.8926756187581553e-09 6.6503205330108927e-09 0 0 -1
7030 879 2 1.0193077753538341e-09 2.8340842562190899e-09 5.2287978821502122e-10 4 1 0
6943 868 6 4.7994372054699606e-10 2.3842862576858288e-09 7.1436253035295001e-10 0 1 1
6942 868 2 5.6303920662729404e-10 2.2521881431158275e-09 6.9477847605624666e-10 0 1 1
2640 330 4 1.5073237910626118e-09 2.2967322333002811e-09 1.1499416519873138e-09 3 0 -1
2634 330 3 1.4848994738440732e-09 2.1461851180586296e-09 1.1932298060705498e-09 3 0 -1
7027 879 5 1.3182377821800821e-09 3.1693372239607266e-09 6.4647636886900441e-10 4 1 0
2638 330 2 1.6536313520187387e-09 2.3433895436319211e-09 1.1302477778478329e-09 3 0 -1
2639 330 6 1.6647277117014870e-09 2.4851810046348210e-09 1.0636713864844209e-09 3 0 -1
1813 227 5 2.5103457124104889e-09 2.3047639110926742e-09 1.1519869579371364e-09 3 0 0