LAMMPS (30 Oct 2019)
# layer sc iron atoms (in the [001] plane) in bismuth oxide

units 		metal
atom_style 	spin
dimension 	3
boundary 	p p f

# necessary for the serial algorithm (sametag)
atom_modify 	map array

lattice 	sc 3.96
Lattice spacing in x,y,z = 3.96 3.96 3.96
region 		box block 0.0 34.0 0.0 34.0 0.0 5.0
create_box 	1 box
Created orthogonal box = (0 0 0) to (134.64 134.64 19.8)
  1 by 1 by 1 MPI processor grid
create_atoms 	1 box
Created 5780 atoms
  create_atoms CPU = 0.00234604 secs

# setting mass, mag. moments, and interactions for bfo

mass		1 1.0
set 		group all spin/random 11 2.50
  5780 settings made for spin/random

#pair_style 	hybrid/overlay spin/exchange 6.0 spin/magelec 4.5
pair_style 	hybrid/overlay spin/exchange 6.0 spin/magelec 4.5 spin/dmi 4.5
pair_coeff 	* * spin/exchange exchange 6.0 -0.01575 0.0 1.965
pair_coeff 	* * spin/magelec magelec 4.5 0.000109 1.0 1.0 1.0
pair_coeff 	* * spin/dmi dmi 4.5 0.00005 1.0 1.0 1.0

neighbor 	0.1 bin
neigh_modify 	every 10 check yes delay 20

fix 		1 all precession/spin anisotropy 0.0000033 0.0 0.0 1.0
fix 		2 all langevin/spin 0.0 0.1 21
fix 		3 all nve/spin lattice frozen

timestep	0.0002

compute 	out_mag	 all spin
compute 	out_pe	 all pe
compute 	out_ke	 all ke
compute 	out_temp all temp

variable 	magz	 equal c_out_mag[3]
variable 	magnorm	 equal c_out_mag[4]
variable 	emag	 equal c_out_mag[5]
variable 	tmag	 equal c_out_mag[6]

#thermo_style    custom step time v_magnorm v_emag temp etotal
thermo_style    custom step time v_magnorm pe ke v_emag temp etotal
thermo          10

compute outsp all property/atom spx spy spz sp fmx fmy fmz
dump 		1 all custom 100 dump_bfo.lammpstrj type x y z c_outsp[1] c_outsp[2] c_outsp[3]

run 		500
Neighbor list info ...
  update every 10 steps, delay 20 steps, check yes
  max neighbors/atom: 2000, page size: 100000
  master list distance cutoff = 6.1
  ghost atom cutoff = 6.1
  binsize = 3.05, bins = 45 45 7
  3 neighbor lists, perpetual/occasional/extra = 3 0 0
  (1) pair spin/exchange, perpetual
      attributes: full, newton on
      pair build: full/bin/atomonly
      stencil: full/bin/3d
      bin: standard
  (2) pair spin/magelec, perpetual, copy from (1)
      attributes: full, newton on
      pair build: copy
      stencil: none
      bin: none
  (3) pair spin/dmi, perpetual, copy from (1)
      attributes: full, newton on
      pair build: copy
      stencil: none
      bin: none
Per MPI rank memory allocation (min/avg/max) = 8.154 | 8.154 | 8.154 Mbytes
Step Time v_magnorm PotEng KinEng v_emag Temp TotEng 
       0            0  0.010071723  -0.11868622            0  -0.12966919            0  -0.11868622 
      10        0.002  0.010030399  -0.37068593            0  -0.38171598            0  -0.37068593 
      20        0.004 0.0099889925   -0.6223216            0   -0.6334048            0   -0.6223216 
      30        0.006 0.0099474775  -0.87359358            0  -0.88473539            0  -0.87359358 
      40        0.008 0.0099058307   -1.1245034            0   -1.1357086            0   -1.1245034 
      50         0.01 0.0098640297   -1.3750538            0   -1.3863265            0   -1.3750538 
      60        0.012 0.0098220536   -1.6252482            0   -1.6365919            0   -1.6252482 
      70        0.014 0.0097798824   -1.8750914            0   -1.8865086            0   -1.8750914 
      80        0.016 0.0097374974   -2.1245886            0   -2.1360814            0   -2.1245886 
      90        0.018 0.0096948809   -2.3737458            0   -2.3853154            0   -2.3737458 
     100         0.02  0.009652016   -2.6225698            0   -2.6342168            0   -2.6225698 
     110        0.022 0.0096088867   -2.8710677            0   -2.8827919            0   -2.8710677 
     120        0.024 0.0095654777   -3.1192468            0   -3.1310475            0   -3.1192468 
     130        0.026 0.0095217747    -3.367115            0   -3.3789906            0    -3.367115 
     140        0.028 0.0094777639     -3.61468            0   -3.6266285            0     -3.61468 
     150         0.03 0.0094334324   -3.8619496            0   -3.8739683            0   -3.8619496 
     160        0.032 0.0093887681   -4.1089316            0   -4.1210173            0   -4.1089316 
     170        0.034 0.0093437598   -4.3556334            0   -4.3677824            0   -4.3556334 
     180        0.036 0.0092983974   -4.6020625            0   -4.6142704            0   -4.6020625 
     190        0.038 0.0092526719   -4.8482255            0   -4.8604877            0   -4.8482255 
     200         0.04 0.0092065757   -5.0941291            0   -5.1064403            0   -5.0941291 
     210        0.042 0.0091601026   -5.3397792            0   -5.3521339            0   -5.3397792 
     220        0.044 0.0091132479   -5.5851813            0   -5.5975736            0   -5.5851813 
     230        0.046  0.009066009   -5.8303404            0    -5.842764            0   -5.8303404 
     240        0.048 0.0090183848   -6.0752609            0   -6.0877092            0   -6.0752609 
     250         0.05 0.0089703766   -6.3199467            0   -6.3324129            0   -6.3199467 
     260        0.052 0.0089219875   -6.5644011            0   -6.5768782            0   -6.5644011 
     270        0.054  0.008873223    -6.808627            0   -6.8211078            0    -6.808627 
     280        0.056 0.0088240907   -7.0526266            0   -7.0651038            0   -7.0526266 
     290        0.058 0.0087746007    -7.296402            0   -7.3088682            0    -7.296402 
     300         0.06 0.0087247649   -7.5399545            0   -7.5524024            0   -7.5399545 
     310        0.062 0.0086745977   -7.7832854            0   -7.7957077            0   -7.7832854 
     320        0.064 0.0086241151   -8.0263956            0    -8.038785            0   -8.0263956 
     330        0.066 0.0085733351   -8.2692858            0    -8.281635            0   -8.2692858 
     340        0.068 0.0085222773   -8.5119564            0   -8.5242586            0   -8.5119564 
     350         0.07 0.0084709628   -8.7544078            0   -8.7666562            0   -8.7544078 
     360        0.072 0.0084194137   -8.9966403            0   -9.0088285            0   -8.9966403 
     370        0.074 0.0083676531   -9.2386543            0   -9.2507761            0   -9.2386543 
     380        0.076 0.0083157047   -9.4804501            0   -9.4924997            0   -9.4804501 
     390        0.078 0.0082635926   -9.7220281            0   -9.7340001            0   -9.7220281 
     400         0.08 0.0082113413   -9.9633888            0   -9.9752784            0   -9.9633888 
     410        0.082 0.0081589748   -10.204533            0   -10.216336            0   -10.204533 
     420        0.084 0.0081065174   -10.445462            0   -10.457173            0   -10.445462 
     430        0.086 0.0080539926   -10.686176            0   -10.697793            0   -10.686176 
     440        0.088 0.0080014236   -10.926676            0   -10.938197            0   -10.926676 
     450         0.09  0.007948833   -11.166966            0   -11.178387            0   -11.166966 
     460        0.092 0.0078962428   -11.407045            0   -11.418366            0   -11.407045 
     470        0.094 0.0078436745   -11.646917            0   -11.658136            0   -11.646917 
     480        0.096 0.0077911488   -11.886583            0     -11.8977            0   -11.886583 
     490        0.098 0.0077386861   -12.126047            0   -12.137063            0   -12.126047 
     500          0.1 0.0076863063   -12.365311            0   -12.376226            0   -12.365311 
Loop time of 19.2298 on 1 procs for 500 steps with 5780 atoms

Performance: 0.449 ns/day, 53.416 hours/ns, 26.001 timesteps/s
99.8% CPU use with 1 MPI tasks x no OpenMP threads

MPI task timing breakdown:
Section |  min time  |  avg time  |  max time  |%varavg| %total
---------------------------------------------------------------
Pair    | 5.2712     | 5.2712     | 5.2712     |   0.0 | 27.41
Neigh   | 0          | 0          | 0          |   0.0 |  0.00
Comm    | 0.039467   | 0.039467   | 0.039467   |   0.0 |  0.21
Output  | 0.060013   | 0.060013   | 0.060013   |   0.0 |  0.31
Modify  | 13.82      | 13.82      | 13.82      |   0.0 | 71.87
Other   |            | 0.03928    |            |       |  0.20

Nlocal:    5780 ave 5780 max 5780 min
Histogram: 1 0 0 0 0 0 0 0 0 0
Nghost:    1065 ave 1065 max 1065 min
Histogram: 1 0 0 0 0 0 0 0 0 0
Neighs:    0 ave 0 max 0 min
Histogram: 1 0 0 0 0 0 0 0 0 0
FullNghs:  92480 ave 92480 max 92480 min
Histogram: 1 0 0 0 0 0 0 0 0 0

Total # of neighbors = 92480
Ave neighs/atom = 16
Neighbor list builds = 0
Dangerous builds = 0

Please see the log.cite file for references relevant to this simulation

Total wall time: 0:00:19
