LAMMPS (11 May 2018)
# bcc iron in a 3d periodic box

clear
units 		metal
atom_style 	spin

dimension 	3
boundary 	p p p

# necessary for the serial algorithm (sametag)
atom_modify 	map array

lattice 	bcc 2.8665
Lattice spacing in x,y,z = 2.8665 2.8665 2.8665
region 		box block 0.0 5.0 0.0 5.0 0.0 5.0
create_box 	1 box
Created orthogonal box = (0 0 0) to (14.3325 14.3325 14.3325)
  1 by 1 by 1 MPI processor grid
create_atoms 	1 box
Created 250 atoms
  Time spent = 0.000727415 secs

# setting mass, mag. moments, and interactions for bcc iron

mass		1 55.845

set 		group all spin/random 31 2.2
  250 settings made for spin/random
velocity 	all create 100 4928459 rot yes dist gaussian

pair_style 	hybrid/overlay eam/alloy spin/exchange 3.5
pair_coeff 	* * eam/alloy Fe_Mishin2006.eam.alloy Fe
pair_coeff 	* * spin/exchange exchange 3.4 0.02726 0.2171 1.841

neighbor 	0.1 bin
neigh_modify 	every 10 check yes delay 20

fix 		1 all precession/spin zeeman 0.0 0.0 0.0 1.0
fix 		2 all langevin/spin 0.0 0.0 21

fix 		3 all nve/spin lattice yes
timestep	0.0001

# compute and output options

compute 	out_mag    all compute/spin
compute 	out_pe     all pe
compute 	out_ke     all ke
compute 	out_temp   all temp

variable 	magz      equal c_out_mag[3]
variable 	magnorm   equal c_out_mag[4]
variable 	emag      equal c_out_mag[5]
variable 	tmag      equal c_out_mag[6]

thermo_style    custom step time v_magnorm v_tmag temp v_emag ke pe etotal
thermo          50

compute 	outsp all property/atom spx spy spz sp fmx fmy fmz
dump 		100 all custom 1 dump_iron.lammpstrj type x y z c_outsp[1] c_outsp[2] c_outsp[3]

run 		50000
Neighbor list info ...
  update every 10 steps, delay 20 steps, check yes
  max neighbors/atom: 2000, page size: 100000
  master list distance cutoff = 5.77337
  ghost atom cutoff = 5.77337
  binsize = 2.88668, bins = 5 5 5
  2 neighbor lists, perpetual/occasional/extra = 2 0 0
  (1) pair eam/alloy, perpetual, half/full from (2)
      attributes: half, newton on
      pair build: halffull/newton
      stencil: none
      bin: none
  (2) pair spin/exchange, perpetual
      attributes: full, newton on
      pair build: full/bin/atomonly
      stencil: full/bin/3d
      bin: standard
Per MPI rank memory allocation (min/avg/max) = 7.319 | 7.319 | 7.319 Mbytes
Step Time v_magnorm v_tmag Temp v_emag KinEng PotEng TotEng 
       0            0  0.076456975    9109.0924    100.00358  -0.85791269    3.2186929   -1070.8579   -1067.6392 
      50        0.005  0.076456974    9316.7659    96.663685  -0.86504718    3.1111957   -1070.7504   -1067.6392 
     100         0.01  0.076456983    9488.3743    86.965803  -0.88035771    2.7990619   -1070.4383   -1067.6392 
     150        0.015  0.076456973    9589.0566    72.421197   -0.8996913    2.3309324   -1069.9702   -1067.6392 
     200         0.02  0.076456944    9415.3095    55.633188    -0.921682    1.7905973   -1069.4298   -1067.6392 
     250        0.025  0.076456953    8878.9394    39.802206  -0.94649004    1.2810649   -1068.9203   -1067.6392 
     300         0.03  0.076457027    8203.3388    27.882295  -0.97253854    0.8974133   -1068.5366   -1067.6392 
     350        0.035  0.076457103     7720.309    21.776538  -0.99708692   0.70089477   -1068.3401   -1067.6392 
     400         0.04  0.076457117    7531.0683    21.857102   -1.0190244   0.70348778   -1068.3427   -1067.6392 
     450        0.045  0.076457072    7479.8073    26.959407   -1.0389343   0.86770942   -1068.5069   -1067.6392 
     500         0.05  0.076457001    7461.6683     34.92521   -1.0582008     1.124095   -1068.7633   -1067.6392 
     550        0.055  0.076456962    7396.1112    43.405912   -1.0785156     1.397053   -1069.0363   -1067.6392 
     600         0.06  0.076456997     7121.894    50.544844    -1.102048     1.626825   -1069.2661   -1067.6392 
     650        0.065  0.076457079    6683.4805    55.261218   -1.1296588    1.7786252   -1069.4179   -1067.6392 
     700         0.07  0.076457136    6313.6896     57.25083   -1.1595102    1.8426624   -1069.4819   -1067.6392 
     750        0.075  0.076457132    6199.0363    56.934336   -1.1893875    1.8324758   -1069.4717   -1067.6392 
     800         0.08  0.076457116     6265.997    55.266343   -1.2181223    1.7787901    -1069.418   -1067.6392 
     850        0.085  0.076457116    6326.5886    53.376453   -1.2443326    1.7179626   -1069.3572   -1067.6392 
     900         0.09  0.076457121    6336.1261    52.279557   -1.2676425    1.6826581   -1069.3219   -1067.6392 
     950        0.095  0.076457122    6288.4204    52.667743   -1.2902335    1.6951522   -1069.3344   -1067.6392 
    1000          0.1  0.076457135    6122.1622    54.684094    -1.314147      1.76005   -1069.3993   -1067.6392 
    1050        0.105  0.076457155    5830.2219    57.880399   -1.3392396    1.8629256   -1069.5022   -1067.6392 
    1100         0.11  0.076457162    5477.4214    61.505616   -1.3662331     1.979606   -1069.6188   -1067.6392 
    1150        0.115  0.076457195    5194.1423    64.810972   -1.3984474    2.0859914   -1069.7252   -1067.6392 
    1200         0.12  0.076457219    5096.2484    67.147472    -1.438326    2.1611935   -1069.8004   -1067.6392 
    1250        0.125  0.076457214    5180.7444    67.957533   -1.4822383    2.1872659   -1069.8265   -1067.6392 
    1300         0.13  0.076457208    5332.4483     66.96652   -1.5226303    2.1553694   -1069.7946   -1067.6392 
    1350        0.135  0.076457225    5441.1287    64.471602   -1.5553539    2.0750686   -1069.7143   -1067.6392 
    1400         0.14  0.076457244    5466.8622    61.292592   -1.5804721    1.9727496    -1069.612   -1067.6392 
    1450        0.145   0.07645724     5403.309    58.518161   -1.6006864    1.8834524   -1069.5227   -1067.6392 
    1500         0.15  0.076457224    5275.2171      57.1713   -1.6196756    1.8401027   -1069.4793   -1067.6392 
    1550        0.155  0.076457217    5122.7481    57.878063   -1.6407322    1.8628504   -1069.5021   -1067.6392 
    1600         0.16  0.076457217    4968.5049    60.639452   -1.6657935    1.9517278    -1069.591   -1067.6392 
    1650        0.165  0.076457208    4850.1861    64.668839    -1.690847    2.0814168   -1069.7206   -1067.6392 
    1700         0.17  0.076457217    4809.0194    68.693586   -1.7087416    2.2109564   -1069.8502   -1067.6392 
    1750        0.175  0.076457274    4835.8611    71.611033   -1.7188587    2.3048567   -1069.9441   -1067.6392 
    1800         0.18  0.076457318    4929.7428    72.815077   -1.7280248    2.3436098   -1069.9828   -1067.6392 
    1850        0.185  0.076457279    5036.6365    72.102335   -1.7426092    2.3206696   -1069.9599   -1067.6392 
    1900         0.19  0.076457222    5116.2436    69.579977   -1.7638235    2.2394856   -1069.8787   -1067.6392 
    1950        0.195  0.076457228    5207.2334    65.715745   -1.7895824    2.1151122   -1069.7543   -1067.6392 
    2000          0.2  0.076457288    5216.0413    61.340972   -1.8174915    1.9743068   -1069.6135   -1067.6392 
    2050        0.205  0.076457267    5023.1601    57.468628   -1.8456914    1.8496724   -1069.4889   -1067.6392 
    2100         0.21  0.076457198    4748.7818    55.033266   -1.8742291    1.7712884   -1069.4105   -1067.6392 
    2150        0.215  0.076457199    4558.1302    54.573806   -1.9035225    1.7565003   -1069.3957   -1067.6392 
    2200         0.22  0.076457185    4483.1644    56.074241   -1.9322669     1.804793    -1069.444   -1067.6392 
    2250        0.225  0.076457114    4430.1583      59.0552   -1.9577399    1.9007374     -1069.54   -1067.6392 
    2300         0.23  0.076457092    4353.7973    62.874849   -1.9801275    2.0236758   -1069.6629   -1067.6392 
    2350        0.235  0.076457145    4303.5275    66.892738   -2.0022129    2.1529947   -1069.7922   -1067.6392 
    2400         0.24  0.076457171    4258.6889    70.426826   -2.0233072    2.2667421    -1069.906   -1067.6392 
    2450        0.245  0.076457169    4178.5775    72.910422   -2.0405304    2.3466785   -1069.9859   -1067.6392 
    2500         0.25   0.07645717     4114.786    74.106367   -2.0531755    2.3851709   -1070.0244   -1067.6392 
    2550        0.255  0.076457136    4067.5017    74.169349   -2.0634674    2.3871981   -1070.0264   -1067.6392 
    2600         0.26  0.076457099    4045.3324    73.586199   -2.0755814    2.3684289   -1070.0077   -1067.6392 
    2650        0.265  0.076457099     4137.898    72.914235   -2.0913646    2.3468012    -1069.986   -1067.6392 
    2700         0.27  0.076457106     4332.063    72.583192   -2.1091075    2.3361464   -1069.9754   -1067.6392 
    2750        0.275   0.07645709    4465.1953    72.814559    -2.125099    2.3435931   -1069.9828   -1067.6392 
    2800         0.28  0.076457051    4516.5192    73.652154   -2.1371914    2.3705517   -1070.0098   -1067.6392 
    2850        0.285  0.076457019    4555.5962    75.060211   -2.1489378    2.4158711   -1070.0551   -1067.6392 
    2900         0.29  0.076457069    4544.2734    76.844795   -2.1667679    2.4733094   -1070.1125   -1067.6392 
    2950        0.295  0.076457172    4460.2109     78.48171   -2.1924421    2.5259948   -1070.1652   -1067.6392 
    3000          0.3  0.076457219    4323.2746     79.20682   -2.2209955     2.549333   -1070.1886   -1067.6392 
    3050        0.305  0.076457213     4155.688    78.543529   -2.2505299    2.5279844   -1070.1672   -1067.6392 
    3100         0.31  0.076457203    3969.6188    76.554785   -2.2858382    2.4639752   -1070.1032   -1067.6392 
    3150        0.315  0.076457187     3761.432    73.396149   -2.3245055     2.362312   -1070.0015   -1067.6392 
    3200         0.32  0.076457142    3602.8035    69.313196   -2.3577056     2.230899   -1069.8701   -1067.6392 
    3250        0.325  0.076457116     3505.707    65.032482   -2.3836874    2.0931209   -1069.7324   -1067.6392 
    3300         0.33   0.07645716    3424.8795    61.551539   -2.4057167    1.9810841   -1069.6203   -1067.6392 
    3350        0.335  0.076457236    3335.9672    59.709703   -2.4251844    1.9218031    -1069.561   -1067.6392 
    3400         0.34  0.076457298    3238.0186    60.026953   -2.4425501    1.9320141   -1069.5712   -1067.6392 
    3450        0.345  0.076457297    3185.0674    62.613739   -2.4593531    2.0152718   -1069.6545   -1067.6392 
    3500         0.35   0.07645723    3197.4087    67.011871   -2.4756907    2.1568291   -1069.7961   -1067.6392 
    3550        0.355  0.076457177    3216.1428    72.316209   -2.4911379    2.3275533   -1069.9668   -1067.6392 
    3600         0.36  0.076457165    3241.0326    77.550071   -2.5083858    2.4960092   -1070.1352   -1067.6392 
    3650        0.365  0.076457168    3309.6874    81.877688   -2.5306273    2.6352969   -1070.2745   -1067.6392 
    3700         0.37   0.07645718     3350.748    84.764646   -2.5595247    2.7282159   -1070.3674   -1067.6392 
    3750        0.375   0.07645721     3368.085    86.031781   -2.5938559    2.7689996   -1070.4082   -1067.6392 
    3800         0.38  0.076457208    3425.3173    85.733048   -2.6266899    2.7593847   -1070.3986   -1067.6392 
    3850        0.385  0.076457165    3420.4429    84.240647   -2.6514805    2.7113506   -1070.3506   -1067.6392 
    3900         0.39  0.076457146    3323.0403    82.320886   -2.6700966    2.6495616   -1070.2888   -1067.6392 
    3950        0.395  0.076457179    3273.2625    80.780607   -2.6892405    2.5999865   -1070.2392   -1067.6392 
    4000          0.4  0.076457229    3313.2671     79.92769    -2.709641    2.5725347   -1070.2118   -1067.6392 
    4050        0.405  0.076457272    3381.1117    79.663389   -2.7291493     2.564028   -1070.2033   -1067.6392 
    4100         0.41   0.07645731    3373.3005    79.895158   -2.7514856    2.5714877   -1070.2107   -1067.6392 
    4150        0.415  0.076457296    3279.6989    80.402828   -2.7788004    2.5878274   -1070.2271   -1067.6392 
    4200         0.42  0.076457251    3197.0478    80.770336   -2.8064773     2.599656   -1070.2389   -1067.6392 
    4250        0.425  0.076457243    3160.9065    80.756747   -2.8307967    2.5992186   -1070.2385   -1067.6392 
    4300         0.43  0.076457282    3173.9599    80.446488    -2.852192    2.5892326   -1070.2285   -1067.6392 
    4350        0.435  0.076457289    3185.8003    80.110494   -2.8726607    2.5784184   -1070.2177   -1067.6392 
    4400         0.44  0.076457262    3166.3054    80.045036   -2.8936787    2.5763116   -1070.2155   -1067.6392 
    4450        0.445  0.076457226    3177.4332    80.500194   -2.9171408    2.5909612   -1070.2302   -1067.6392 
    4500         0.45  0.076457174    3238.8362    81.573722   -2.9447352    2.6255135   -1070.2647   -1067.6392 
    4550        0.455   0.07645714    3277.7104    83.104228    -2.975052    2.6747741    -1070.314   -1067.6392 
    4600         0.46  0.076457157    3224.8571    84.845473   -3.0065552    2.7308174     -1070.37   -1067.6392 
    4650        0.465  0.076457215    3112.9952    86.608217     -3.03972    2.7875527   -1070.4268   -1067.6392 
    4700         0.47  0.076457254     3001.141     88.18732    -3.074928    2.8383773   -1070.4776   -1067.6392 
    4750        0.475  0.076457235    2904.0735    89.204263   -3.1082127    2.8711084   -1070.5103   -1067.6392 
    4800         0.48  0.076457195    2832.0276     89.24571    -3.134302    2.8724424   -1070.5117   -1067.6392 
    4850        0.485  0.076457172    2833.7453    88.206351   -3.1541802    2.8389899   -1070.4782   -1067.6392 
    4900         0.49  0.076457184     2941.993    86.310712   -3.1725372    2.7779773   -1070.4172   -1067.6392 
    4950        0.495  0.076457228    3082.4825    84.029047   -3.1931038    2.7045401   -1070.3438   -1067.6392 
    5000          0.5   0.07645727    3155.7095     81.99875   -3.2175967    2.6391934   -1070.2784   -1067.6392 
    5050        0.505  0.076457297    3162.1875     80.72053   -3.2420203    2.5980529   -1070.2373   -1067.6392 
    5100         0.51  0.076457279    3133.3889    80.483768   -3.2606472    2.5904325   -1070.2297   -1067.6392 
    5150        0.515  0.076457223    3144.6361    81.566513   -3.2759117    2.6252815   -1070.2645   -1067.6392 
    5200         0.52  0.076457166    3156.8183    84.062018   -3.2944729    2.7056013   -1070.3448   -1067.6392 
    5250        0.525  0.076457128    3059.9886    87.694328   -3.3209415      2.82251   -1070.4617   -1067.6392 
    5300         0.53  0.076457126    2891.6506    91.782947   -3.3547324    2.9541054   -1070.5933   -1067.6392 
    5350        0.535  0.076457151    2751.9451    95.417928   -3.3914125    3.0711001   -1070.7103   -1067.6392 
    5400         0.54   0.07645725    2681.0265    97.845096   -3.4276651    3.1492204   -1070.7885   -1067.6392 
    5450        0.545  0.076457325    2657.0871    98.736021   -3.4632111    3.1778955   -1070.8171   -1067.6392 
    5500         0.55  0.076457263    2653.1919    98.075727   -3.4957627    3.1566434   -1070.7959   -1067.6392 
    5550        0.555  0.076457185    2644.2053    96.114963   -3.5208827    3.0935347   -1070.7328   -1067.6392 
    5600         0.56  0.076457195    2622.4174    93.525807   -3.5389264    3.0102007   -1070.6494   -1067.6392 
    5650        0.565   0.07645725    2616.3851    91.264369   -3.5558733    2.9374145   -1070.5766   -1067.6392 
    5700         0.57  0.076457256    2608.2454    90.135397   -3.5771374    2.9010777   -1070.5403   -1067.6392 
    5750        0.575  0.076457193     2573.217    90.456889   -3.6030061    2.9114252   -1070.5507   -1067.6392 
    5800         0.58  0.076457145    2565.3325    92.099499   -3.6318265    2.9642939   -1070.6035   -1067.6392 
    5850        0.585  0.076457161    2566.2763     94.62532   -3.6627041    3.0455894   -1070.6848   -1067.6392 
    5900         0.59  0.076457186    2564.6814    97.321391   -3.6927592    3.1323645   -1070.7716   -1067.6392 
    5950        0.595  0.076457195    2570.6317    99.384979   -3.7170023    3.1987827    -1070.838   -1067.6392 
    6000          0.6  0.076457206    2556.8466     100.3814   -3.7363622    3.2308533   -1070.8701   -1067.6392 
    6050        0.605  0.076457195    2521.7989    100.35237   -3.7587516    3.2299188   -1070.8692   -1067.6392 
    6100         0.61  0.076457175    2476.1857    99.370382   -3.7869326    3.1983129   -1070.8375   -1067.6392 
    6150        0.615  0.076457178    2397.2805    97.465979   -3.8168635    3.1370182   -1070.7763   -1067.6392 
    6200         0.62   0.07645713    2286.8528    94.931714   -3.8450242    3.0554509   -1070.6947   -1067.6392 
    6250        0.625  0.076457116    2250.5238    92.438461   -3.8722441    2.9752036   -1070.6144   -1067.6392 
    6300         0.63  0.076457156     2338.521    90.714356   -3.9006124    2.9197119   -1070.5589   -1067.6392 
    6350        0.635   0.07645717    2433.0115    90.142291   -3.9291158    2.9012996   -1070.5405   -1067.6392 
    6400         0.64  0.076457159    2467.5348    90.771111   -3.9562691    2.9215387   -1070.5608   -1067.6392 
    6450        0.645  0.076457107    2475.8592    92.488016   -3.9828131    2.9767986    -1070.616   -1067.6392 
    6500         0.65    0.0764571    2489.7418    95.127451   -4.0122141    3.0617508    -1070.701   -1067.6392 
    6550        0.655  0.076457169    2500.4747    98.171693   -4.0419177    3.1597321    -1070.799   -1067.6392 
    6600         0.66  0.076457208    2530.7924    100.74938   -4.0631997     3.242697   -1070.8819   -1067.6392 
    6650        0.665  0.076457205    2539.1274    102.26227   -4.0743158    3.2913904   -1070.9306   -1067.6392 
    6700         0.67  0.076457193    2456.6296    102.74328    -4.083416    3.3068723   -1070.9461   -1067.6392 
    6750        0.675  0.076457138    2387.5795    102.56259   -4.0973623    3.3010567   -1070.9403   -1067.6392 
    6800         0.68  0.076457109    2401.1036    102.04306    -4.113996     3.284335   -1070.9236   -1067.6392 
    6850        0.685  0.076457149    2426.9334    101.49407   -4.1282015    3.2666654   -1070.9059   -1067.6392 
    6900         0.69  0.076457185    2389.4808    101.35428   -4.1401792    3.2621662   -1070.9014   -1067.6392 
    6950        0.695  0.076457175    2323.8732    101.97431   -4.1517617    3.2821222   -1070.9214   -1067.6392 
    7000          0.7  0.076457145    2273.8742     103.4638   -4.1630859    3.3300628   -1070.9693   -1067.6392 
    7050        0.705  0.076457126    2231.6619    105.80757   -4.1770066    3.4054989   -1071.0447   -1067.6392 
    7100         0.71  0.076457114    2185.0913    108.81901   -4.1989399    3.5024243   -1071.1417   -1067.6392 
    7150        0.715  0.076457137    2139.1488    111.85718   -4.2283649      3.60021   -1071.2394   -1067.6392 
    7200         0.72  0.076457149    2101.4843    113.84985   -4.2560033    3.6643459   -1071.3036   -1067.6392 
    7250        0.725   0.07645712    2118.2459     113.9441   -4.2761251    3.6673792   -1071.3066   -1067.6392 
    7300         0.73  0.076457121    2191.8612    111.95162   -4.2925363    3.6032496   -1071.2425   -1067.6392 
    7350        0.735  0.076457137    2227.2133    108.21226   -4.3103732    3.4828957   -1071.1221   -1067.6392 
    7400         0.74  0.076457111    2182.8818    103.43153   -4.3300151     3.329024   -1070.9683   -1067.6392 
    7450        0.745  0.076457109    2101.9195    98.839733    -4.354205    3.1812335   -1070.8205   -1067.6392 
    7500         0.75  0.076457149    2036.6331    95.828658   -4.3866968    3.0843197   -1070.7235   -1067.6392 
    7550        0.755  0.076457161    1994.7766    95.143411   -4.4221882    3.0622645   -1070.7015   -1067.6392 
    7600         0.76  0.076457127    1970.8688    96.749372   -4.4522754    3.1139536   -1070.7532   -1067.6392 
    7650        0.765  0.076457086    1994.0036    100.15642   -4.4763519     3.223612   -1070.8628   -1067.6392 
    7700         0.77  0.076457048     2073.628    104.50472    -4.498005    3.3635656   -1071.0028   -1067.6392 
    7750        0.775  0.076457027    2167.9613    108.65949   -4.5168957      3.49729   -1071.1365   -1067.6392 
    7800         0.78   0.07645702    2217.2571    111.71851   -4.5326316    3.5957471    -1071.235   -1067.6392 
    7850        0.785  0.076457018    2202.7741    113.32785    -4.548779    3.6475449   -1071.2868   -1067.6392 
    7900         0.79  0.076457015    2164.9013    113.50963   -4.5689927    3.6533954   -1071.2926   -1067.6392 
    7950        0.795  0.076457037    2130.7469    112.46016   -4.5932603    3.6196176   -1071.2589   -1067.6392 
    8000          0.8  0.076457043    2075.0145    110.59865   -4.6198672    3.5597035   -1071.1989   -1067.6392 
    8050        0.805  0.076457061    2007.4917     108.6927   -4.6506917    3.4983589   -1071.1376   -1067.6392 
    8100         0.81  0.076457077    1991.5702    107.59433   -4.6877068    3.4630069   -1071.1022   -1067.6392 
    8150        0.815   0.07645708    2031.0743    107.95739   -4.7305236    3.4746923   -1071.1139   -1067.6392 
    8200         0.82  0.076457089    2054.3404    109.99515   -4.7756305    3.5402792   -1071.1795   -1067.6392 
    8250        0.825  0.076457091    2082.2542     113.4122   -4.8195703    3.6502597   -1071.2895   -1067.6392 
    8300         0.83  0.076457089    2137.8944    117.42257   -4.8606167    3.7793367   -1071.4186   -1067.6392 
    8350        0.835  0.076457127    2145.0506    120.77123   -4.8931181    3.8871159   -1071.5263   -1067.6392 
    8400         0.84  0.076457184    2101.9996    122.34334   -4.9126837    3.9377155   -1071.5769   -1067.6392 
    8450        0.845  0.076457201    2057.1092    121.73484    -4.921619    3.9181301   -1071.5574   -1067.6392 
    8500         0.85  0.076457149    2005.1132     119.2385   -4.9251343    3.8377838    -1071.477   -1067.6392 
    8550        0.855  0.076457098    1942.6247    115.64537   -4.9291799     3.722136   -1071.3614   -1067.6392 
    8600         0.86  0.076457115    1910.1502    111.98317   -4.9396222    3.6042654   -1071.2435   -1067.6392 
    8650        0.865  0.076457185    1943.3663    109.19353   -4.9603011    3.5144784   -1071.1537   -1067.6392 
    8700         0.87  0.076457254    2019.4182    107.80177   -4.9898541    3.4696837   -1071.1089   -1067.6392 
    8750        0.875  0.076457249    2073.1225    107.76716   -5.0205034    3.4685697   -1071.1078   -1067.6392 
    8800         0.88  0.076457175    2088.6545    108.72646   -5.0437829    3.4994455   -1071.1387   -1067.6392 
    8850        0.885  0.076457093    2077.5406    110.36499   -5.0572565    3.5521827   -1071.1914   -1067.6392 
    8900         0.89  0.076457088    2039.5392    112.51291   -5.0650529    3.6213154   -1071.2605   -1067.6392 
    8950        0.895  0.076457167    2016.6853    114.99374   -5.0744542    3.7011627   -1071.3404   -1067.6392 
    9000          0.9  0.076457241    2000.3012    117.47475   -5.0917242     3.781016   -1071.4202   -1067.6392 
    9050        0.905  0.076457226    1957.0091    119.35854   -5.1139655    3.8416472   -1071.4809   -1067.6392 
    9100         0.91  0.076457166    1923.1545    120.23087   -5.1350957     3.869724    -1071.509   -1067.6392 
    9150        0.915  0.076457128     1933.618    120.11319   -5.1511544    3.8659364   -1071.5052   -1067.6392 
    9200         0.92  0.076457114    1961.4473     119.3017   -5.1596749    3.8398178   -1071.4791   -1067.6392 
    9250        0.925  0.076457136       1962.1    118.34889   -5.1642618    3.8091509   -1071.4484   -1067.6392 
    9300         0.93  0.076457156    1942.9357    117.84262   -5.1720815    3.7928561   -1071.4321   -1067.6392 
    9350        0.935  0.076457138    1911.4886    118.10075   -5.1877615    3.8011641   -1071.4404   -1067.6392 
    9400         0.94  0.076457123    1890.6033    118.99959   -5.2079977     3.830094   -1071.4693   -1067.6392 
    9450        0.945  0.076457145    1911.9879    120.23989   -5.2265042    3.8700141   -1071.5092   -1067.6392 
    9500         0.95  0.076457172    1944.8053    121.67513   -5.2423826    3.9162086   -1071.5554   -1067.6392 
    9550        0.955  0.076457175    1950.6137    123.16708   -5.2566963    3.9642282   -1071.6035   -1067.6392 
    9600         0.96  0.076457174     1953.467    124.46943   -5.2686278    4.0061451   -1071.6454   -1067.6392 
    9650        0.965  0.076457174     1991.321    125.52237   -5.2816008    4.0400348   -1071.6793   -1067.6392 
    9700         0.97  0.076457153    2064.4494    126.48746   -5.3037304    4.0710971   -1071.7103   -1067.6392 
    9750        0.975  0.076457119    2117.0576    127.38593   -5.3401962     4.100015   -1071.7392   -1067.6392 
    9800         0.98  0.076457147    2129.8396    127.90735     -5.38872    4.1167973    -1071.756   -1067.6392 
    9850        0.985  0.076457201    2114.5902    127.47883   -5.4369444     4.103005   -1071.7422   -1067.6392 
    9900         0.99  0.076457216    2054.2807    125.71916   -5.4695662    4.0463688   -1071.6856   -1067.6392 
    9950        0.995  0.076457168    1984.2158    123.01154   -5.4834672    3.9592219   -1071.5985   -1067.6392 
   10000            1  0.076457131    1962.6658    120.32305   -5.4872199    3.8726906   -1071.5119   -1067.6392 
   10050        1.005  0.076457159    1973.2973    118.61523   -5.4922129    3.8177233    -1071.457   -1067.6392 
   10100         1.01  0.076457216    1957.9424    118.36973   -5.5066432    3.8098215   -1071.4491   -1067.6392 
   10150        1.015  0.076457197    1942.1125    119.27525   -5.5290592    3.8389666   -1071.4782   -1067.6392 
   10200         1.02  0.076457142    1978.3009     120.6949   -5.5571675    3.8846591   -1071.5239   -1067.6392 
   10250        1.025  0.076457171    2058.9652    122.05983   -5.5914809    3.9285903   -1071.5678   -1067.6392 
   10300         1.03   0.07645722    2104.5325    122.92754   -5.6303584    3.9565181   -1071.5958   -1067.6392 
   10350        1.035   0.07645723    2072.9687    123.15237   -5.6697758    3.9637547    -1071.603   -1067.6392 
   10400         1.04  0.076457234     2012.912    123.02584   -5.7067292    3.9596822   -1071.5989   -1067.6392 
   10450        1.045  0.076457242    1971.6903    123.23438   -5.7426231    3.9663941   -1071.6056   -1067.6392 
   10500         1.05    0.0764573    1932.8929    124.43675   -5.7779702    4.0050935   -1071.6443   -1067.6392 
   10550        1.055  0.076457357    1892.1027    126.80016   -5.8082237    4.0811614   -1071.7204   -1067.6392 
   10600         1.06  0.076457317    1911.4422    130.09167   -5.8347562    4.1871012   -1071.8263   -1067.6392 
   10650        1.065  0.076457251    1994.4648    133.74505   -5.8634891    4.3046881   -1071.9439   -1067.6392 
   10700         1.07  0.076457242    2058.3043    136.94864   -5.8957766    4.4077983    -1072.047   -1067.6392 
   10750        1.075  0.076457284    2065.4421    138.83647   -5.9266133    4.4685595   -1072.1078   -1067.6392 
   10800         1.08  0.076457341    2054.3284    138.84647   -5.9519915    4.4688815   -1072.1081   -1067.6392 
   10850        1.085  0.076457339    2019.0718     136.8565   -5.9690783    4.4048328   -1072.0441   -1067.6392 
   10900         1.09  0.076457316    1950.5439    133.30535   -5.9772058     4.290536   -1071.9298   -1067.6392 
   10950        1.095  0.076457386    1880.7681    129.31046   -5.9839906    4.1619576   -1071.8012   -1067.6392 
   11000          1.1  0.076457422    1858.5762    126.17301   -5.9991286    4.0609761   -1071.7002   -1067.6392 
   11050        1.105  0.076457344    1895.8864    124.66179   -6.0225804    4.0123366   -1071.6516   -1067.6392 
   11100         1.11  0.076457251    1940.5442    124.88033   -6.0460181    4.0193704   -1071.6586   -1067.6392 
   11150        1.115  0.076457202    1961.4346    126.74742   -6.0683173    4.0794642   -1071.7187   -1067.6392 
   11200         1.12  0.076457268    1940.4836    129.91024   -6.0923522    4.1812618   -1071.8205   -1067.6392 
   11250        1.125   0.07645736    1893.8666    133.48134   -6.1129806    4.2962004   -1071.9354   -1067.6392 
   11300         1.13  0.076457404    1883.0365    136.68921    -6.127246    4.3994482   -1072.0387   -1067.6392 
   11350        1.135  0.076457466    1882.1011     139.1981   -6.1379481     4.480199   -1072.1194   -1067.6392 
   11400         1.14  0.076457485    1867.5435    140.91567   -6.1513193    4.5354803   -1072.1747   -1067.6392 
   11450        1.145  0.076457418    1847.4052    141.74281   -6.1759478    4.5621023   -1072.2013   -1067.6392 
   11500         1.15  0.076457338    1813.6291    141.28184   -6.2119682    4.5472657   -1072.1865   -1067.6392 
   11550        1.155  0.076457333    1784.6892    139.23575   -6.2525061    4.4814106   -1072.1206   -1067.6392 
   11600         1.16  0.076457369    1755.4332    135.80671   -6.2888206    4.3710442   -1072.0103   -1067.6392 
   11650        1.165  0.076457401    1699.9293    131.63594   -6.3110048     4.236805    -1071.876   -1067.6392 
   11700         1.17  0.076457404    1653.9907    128.00726   -6.3221466     4.120013   -1071.7592   -1067.6392 
   11750        1.175  0.076457374    1643.4316    126.38341   -6.3360107     4.067748    -1071.707   -1067.6392 
   11800         1.18   0.07645738    1673.0949    127.37545   -6.3582141    4.0996777   -1071.7389   -1067.6392 
   11850        1.185  0.076457443    1718.7225    130.55123   -6.3857492    4.2018928   -1071.8411   -1067.6392 
   11900         1.19  0.076457444     1724.682    134.87067   -6.4146926    4.3409171   -1071.9801   -1067.6392 
   11950        1.195  0.076457414    1724.3414    139.24431   -6.4451679    4.4816863   -1072.1209   -1067.6392 
   12000          1.2   0.07645743     1749.066    142.81679   -6.4797792    4.5966692   -1072.2359   -1067.6392 
   12050        1.205  0.076457426    1742.2617    144.86234   -6.5158489    4.6625067   -1072.3017   -1067.6392 
   12100         1.21  0.076457401    1675.5507    144.96503    -6.548258    4.6658119    -1072.305   -1067.6392 
   12150        1.215  0.076457385    1610.7217    143.28189   -6.5749551    4.6116388   -1072.2509   -1067.6392 
   12200         1.22   0.07645736    1594.8876    140.48135   -6.5962025    4.5215012   -1072.1607   -1067.6392 
   12250        1.225  0.076457308    1625.0427    137.50616   -6.6145044    4.4257425    -1072.065   -1067.6392 
   12300         1.23  0.076457299    1685.9568    135.20765   -6.6302129    4.3517632    -1071.991   -1067.6392 
   12350        1.235   0.07645735     1733.821    134.30584   -6.6414385    4.3227378    -1071.962   -1067.6392 
   12400         1.24  0.076457353     1729.246    135.30039   -6.6446018    4.3547479    -1071.994   -1067.6392 
   12450        1.245  0.076457334     1680.067    138.31057   -6.6400277    4.4516331   -1072.0909   -1067.6392 
   12500         1.25  0.076457325    1617.8899    143.09184   -6.6404768    4.6055219   -1072.2448   -1067.6392 
   12550        1.255   0.07645726    1599.1888    148.81179   -6.6580865    4.7896229   -1072.4289   -1067.6392 
   12600         1.26  0.076457209    1658.9431    154.06138   -6.6888278    4.9585849   -1072.5978   -1067.6392 
   12650        1.265   0.07645722    1736.4699    157.49898   -6.7220069    5.0692269   -1072.7085   -1067.6392 
   12700         1.27  0.076457274    1779.2323    158.32957   -6.7551291      5.09596   -1072.7352   -1067.6392 
   12750        1.275  0.076457311    1789.9676    156.14983   -6.7885643    5.0258035    -1072.665   -1067.6392 
   12800         1.28  0.076457268    1802.2393    151.08471   -6.8186653    4.8627787    -1072.502   -1067.6392 
   12850        1.285  0.076457196    1818.1637    144.48302   -6.8490939     4.650298   -1072.2895   -1067.6392 
   12900         1.29  0.076457211    1817.2314    138.47831   -6.8873527    4.4570318   -1072.0963   -1067.6392 
   12950        1.295  0.076457276    1820.0753    134.61334   -6.9279428    4.3326347   -1071.9719   -1067.6392 
   13000          1.3  0.076457312    1845.4907    133.46496   -6.9596793    4.2956734   -1071.9349   -1067.6392 
   13050        1.305  0.076457338    1874.3042    135.13413   -6.9813982    4.3493968   -1071.9886   -1067.6392 
   13100         1.31  0.076457326    1866.7738    139.17204   -6.9940579    4.4793602   -1072.1186   -1067.6392 
   13150        1.315  0.076457289    1832.5745    144.49783   -6.9974757    4.6507749     -1072.29   -1067.6392 
   13200         1.32  0.076457244    1807.0747    149.77919   -6.9983839    4.8207594     -1072.46   -1067.6392 
   13250        1.325  0.076457187    1796.8435    153.72265   -7.0061211    4.9476829   -1072.5869   -1067.6392 
   13300         1.33  0.076457166    1784.1488    155.25389   -7.0202393    4.9969671   -1072.6362   -1067.6392 
   13350        1.335  0.076457229    1753.2853    154.01439   -7.0330486    4.9570726   -1072.5963   -1067.6392 
   13400         1.34    0.0764573    1735.0082    150.84246   -7.0447346    4.8549818   -1072.4942   -1067.6392 
   13450        1.345  0.076457318    1726.8186    147.29221   -7.0628093    4.7407141   -1072.3799   -1067.6392 
   13500         1.35  0.076457297     1714.977    144.61665   -7.0896843     4.654599   -1072.2938   -1067.6392 
   13550        1.355  0.076457254     1740.268    143.14927   -7.1129029    4.6073704   -1072.2466   -1067.6392 
   13600         1.36  0.076457211    1795.1636    143.04769   -7.1231397    4.6041009   -1072.2433   -1067.6392 
   13650        1.365  0.076457195    1823.9739    144.93969      -7.1325    4.6649965   -1072.3042   -1067.6392 
   13700         1.37  0.076457222    1791.6272    148.76155   -7.1501954    4.7880059   -1072.4272   -1067.6392 
   13750        1.375  0.076457214     1717.918    153.25937   -7.1700837    4.9327719    -1072.572   -1067.6392 
   13800         1.38  0.076457173    1650.2116    156.96821   -7.1856522    5.0521435   -1072.6914   -1067.6392 
   13850        1.385  0.076457198    1622.7393    158.94614   -7.1959656    5.1158049    -1072.755   -1067.6392 
   13900         1.39  0.076457218     1637.783    158.98661   -7.2040613    5.1171074   -1072.7563   -1067.6392 
   13950        1.395  0.076457202    1657.4634    157.44492    -7.212632    5.0674868   -1072.7067   -1067.6392 
   14000          1.4  0.076457212    1629.5225    155.05742   -7.2266988    4.9906432   -1072.6299   -1067.6392 
   14050        1.405  0.076457239    1593.2904    152.54882   -7.2502659     4.909902   -1072.5491   -1067.6392 
   14100         1.41   0.07645727     1606.034    150.42146   -7.2818725    4.8414313   -1072.4807   -1067.6392 
   14150        1.415  0.076457309    1640.1759    149.04348   -7.3155252    4.7970802   -1072.4363   -1067.6392 
   14200         1.42  0.076457319    1638.1785    148.56697   -7.3411886    4.7817433    -1072.421   -1067.6392 
   14250        1.425   0.07645727    1612.0972    148.95521   -7.3526259    4.7942389   -1072.4335   -1067.6392 
   14300         1.43  0.076457238    1604.4691    150.10919   -7.3547431    4.8313808   -1072.4706   -1067.6392 
   14350        1.435  0.076457245    1636.4307    151.65208   -7.3541157      4.88104   -1072.5203   -1067.6392 
   14400         1.44  0.076457266    1696.8545    152.99826    -7.354098    4.9243678   -1072.5636   -1067.6392 
   14450        1.445  0.076457266    1741.9828    153.81879   -7.3623341    4.9507773     -1072.59   -1067.6392 
   14500         1.45  0.076457331    1723.2799    153.89268   -7.3834301    4.9531555   -1072.5924   -1067.6392 
   14550        1.455  0.076457432    1657.9319    152.98996   -7.4146781    4.9241004   -1072.5633   -1067.6392 
   14600         1.46  0.076457435    1610.2643    151.16037   -7.4510333    4.8652138   -1072.5044   -1067.6392 
   14650        1.465  0.076457345    1613.0087       148.97   -7.4863307     4.794715   -1072.4339   -1067.6392 
   14700         1.47  0.076457271    1634.4356    147.61305   -7.5183727    4.7510405   -1072.3903   -1067.6392 
   14750        1.475  0.076457283    1633.8891    148.27943   -7.5460376    4.7724886   -1072.4117   -1067.6392 
   14800         1.48  0.076457348     1618.243    151.33474   -7.5665855     4.870826   -1072.5101   -1067.6392 
   14850        1.485  0.076457439    1627.6856     156.2869   -7.5835708    5.0302153   -1072.6694   -1067.6392 
   14900         1.49  0.076457511    1648.6155    162.01117   -7.6018187    5.2144553   -1072.8537   -1067.6392 
   14950        1.495  0.076457476    1659.3058      167.117   -7.6196613    5.3787903    -1073.018   -1067.6392 
   15000          1.5  0.076457375    1669.5167    170.51349   -7.6348747    5.4881089   -1073.1273   -1067.6392 
   15050        1.505  0.076457377    1665.0495     171.6971   -7.6501299    5.5262045   -1073.1654   -1067.6392 
   15100         1.51  0.076457509    1653.5232    170.56263    -7.668555    5.4896905   -1073.1289   -1067.6392 
   15150        1.515   0.07645762    1663.0378    167.19624   -7.6903772    5.3813406   -1073.0206   -1067.6392 
   15200         1.52  0.076457618    1681.9976    161.85457   -7.7108297     5.209415   -1072.8486   -1067.6392 
   15250        1.525  0.076457556     1694.698      155.288   -7.7230717    4.9980649   -1072.6373   -1067.6392 
   15300         1.53  0.076457526    1707.5473    149.10693    -7.726013    4.7991221   -1072.4384   -1067.6392 
   15350        1.535  0.076457503     1714.975    145.26109   -7.7215489    4.6753408   -1072.3146   -1067.6392 
   15400         1.54  0.076457471    1739.6517    145.03787   -7.7121713    4.6681565   -1072.3074   -1067.6392 
   15450        1.545  0.076457463     1779.381    148.49637   -7.7068895    4.7794708   -1072.4187   -1067.6392 
   15500         1.55   0.07645747    1810.3562    154.24813   -7.7125777    4.9645959   -1072.6038   -1067.6392 
   15550        1.555  0.076457505    1808.4717    160.18471   -7.7266491    5.1556691   -1072.7949   -1067.6392 
   15600         1.56  0.076457526    1770.3298    164.69045   -7.7419766    5.3006898   -1072.9399   -1067.6392 
   15650        1.565    0.0764575     1738.214    167.21043   -7.7549828    5.3817975    -1073.021   -1067.6392 
   15700         1.57  0.076457497    1697.7709    168.21074   -7.7723359    5.4139933   -1073.0532   -1067.6392 
   15750        1.575  0.076457555    1621.7132    168.50851   -7.8026216    5.4235772   -1073.0628   -1067.6392 
   15800         1.58  0.076457525    1558.2186    168.47199   -7.8436156    5.4224019   -1073.0616   -1067.6392 
   15850        1.585  0.076457429    1502.1375    167.96717   -7.8883594    5.4061538   -1073.0454   -1067.6392 
   15900         1.59  0.076457478    1425.3742    166.66576    -7.932759    5.3642668   -1073.0035   -1067.6392 
   15950        1.595  0.076457632    1386.0338    164.33246   -7.9718972    5.2891677   -1072.9284   -1067.6392 
   16000          1.6  0.076457666    1419.1839    161.41038   -8.0074959    5.1951185   -1072.8344   -1067.6392 
   16050        1.605  0.076457544    1468.9614    158.91164   -8.0487546    5.1146946   -1072.7539   -1067.6392 
   16100         1.61  0.076457494    1490.7382    157.31753   -8.0937558     5.063387   -1072.7026   -1067.6392 
   16150        1.615  0.076457538    1474.5813    156.42997   -8.1330424      5.03482   -1072.6741   -1067.6392 
   16200         1.62  0.076457556    1437.0783    156.08614    -8.164616    5.0237536    -1072.663   -1067.6392 
   16250        1.625   0.07645755    1438.9601    156.34668   -8.1896203    5.0321393   -1072.6714   -1067.6392 
   16300         1.63  0.076457624    1484.8299    157.40778   -8.2067204    5.0662916   -1072.7055   -1067.6392 
   16350        1.635  0.076457699    1524.3051    159.66771    -8.218867    5.1390293   -1072.7783   -1067.6392 
   16400         1.64  0.076457644    1544.3149    163.28567   -8.2298125     5.255476   -1072.8947   -1067.6392 
   16450        1.645  0.076457498    1553.8417    167.83654   -8.2377547    5.4019493   -1073.0412   -1067.6392 
   16500         1.65  0.076457465     1570.695     172.8939   -8.2462061    5.5647244    -1073.204   -1067.6392 
   16550        1.655  0.076457507    1593.9327    178.16048   -8.2624521    5.7342334   -1073.3735   -1067.6392 
   16600         1.66  0.076457489    1603.2741    183.00592   -8.2872119    5.8901875   -1073.5294   -1067.6392 
   16650        1.665  0.076457496    1571.7154    186.29884    -8.312974    5.9961727   -1073.6354   -1067.6392 
   16700         1.67   0.07645753    1518.6156    186.99911   -8.3350509    6.0187115   -1073.6579   -1067.6392 
   16750        1.675   0.07645752     1499.821    184.74394   -8.3580495    5.9461271   -1073.5854   -1067.6392 
   16800         1.68  0.076457499    1530.7723    179.78119   -8.3875745    5.7863972   -1073.4256   -1067.6392 
   16850        1.685  0.076457548    1575.4962     172.5183   -8.4158429    5.5526355   -1073.1919   -1067.6392 
   16900         1.69  0.076457558    1612.3074    163.97541   -8.4338169     5.277676   -1072.9169   -1067.6392 
   16950        1.695  0.076457479    1635.3132    156.35605   -8.4487945    5.0324408   -1072.6717   -1067.6392 
   17000          1.7  0.076457438    1614.5636    151.92591   -8.4700427    4.8898534   -1072.5291   -1067.6392 
   17050        1.705  0.076457424    1564.7085    151.36605   -8.4902367    4.8718339   -1072.5111   -1067.6392 
   17100         1.71  0.076457358    1535.6285    153.90525   -8.4942176      4.95356   -1072.5928   -1067.6392 
   17150        1.715   0.07645735     1518.627    158.54937   -8.4805275    5.1030346   -1072.7423   -1067.6392 
   17200         1.72   0.07645738    1514.2327    164.40935   -8.4621733    5.2916425   -1072.9309   -1067.6392 
   17250        1.725  0.076457379    1551.5372    170.62245   -8.4562493    5.4916159   -1073.1308   -1067.6392 
   17300         1.73  0.076457343    1595.3198    176.25515   -8.4715899    5.6729089   -1073.3121   -1067.6392 
   17350        1.735  0.076457342    1587.5028    180.16731   -8.4978474    5.7988247   -1073.4381   -1067.6392 
   17400         1.74  0.076457376    1544.7126    181.61601   -8.5200915    5.8454522   -1073.4847   -1067.6392 
   17450        1.745  0.076457389    1509.6731    180.91787   -8.5397072    5.8229821   -1073.4622   -1067.6392 
   17500         1.75  0.076457336    1478.9973    178.87414     -8.56042    5.7572029   -1073.3964   -1067.6392 
   17550        1.755  0.076457332    1451.7239    176.20376   -8.5752611    5.6712547   -1073.3105   -1067.6392 
   17600         1.76  0.076457348    1448.0805    173.64327   -8.5784834    5.5888433   -1073.2281   -1067.6392 
   17650        1.765  0.076457351    1433.0266    171.81431   -8.5726784    5.5299771   -1073.1692   -1067.6392 
   17700         1.77  0.076457438    1390.9365    171.02874    -8.564521    5.5046929   -1073.1439   -1067.6392 
   17750        1.775  0.076457533    1349.1394    171.41687   -8.5621201     5.517185   -1073.1564   -1067.6392 
   17800         1.78  0.076457498    1329.3506    172.86493   -8.5713277     5.563792    -1073.203   -1067.6392 
   17850        1.785  0.076457438    1327.4567    174.82124   -8.5922814    5.6267573    -1073.266   -1067.6392 
   17900         1.79  0.076457427    1319.5199    176.42672   -8.6210646    5.6784309   -1073.3177   -1067.6392 
   17950        1.795  0.076457411    1304.8013    176.80992    -8.649668    5.6907647     -1073.33   -1067.6392 
   18000          1.8  0.076457418    1286.8171    175.49891   -8.6685582    5.6485687   -1073.2878   -1067.6392 
   18050        1.805  0.076457416    1286.4901     172.8819   -8.6780447    5.5643383   -1073.2036   -1067.6392 
   18100         1.81  0.076457432    1323.7883    169.97231   -8.6878072    5.4706908   -1073.1099   -1067.6392 
   18150        1.815  0.076457437    1368.7263    167.90229   -8.7078544    5.4040655   -1073.0433   -1067.6392 
   18200         1.82  0.076457419    1375.2794    167.69816   -8.7440081    5.3974953   -1073.0367   -1067.6392 
   18250        1.825  0.076457418    1341.4685    169.86898   -8.7923763     5.467365   -1073.1066   -1067.6392 
   18300         1.83  0.076457444    1302.4142    174.12507   -8.8422065    5.6043505   -1073.2436   -1067.6392 
   18350        1.835   0.07645748    1271.1442    179.47439   -8.8848553    5.7765226   -1073.4158   -1067.6392 
   18400         1.84   0.07645751    1240.9996    184.64305   -8.9194649    5.9428799   -1073.5821   -1067.6392 
   18450        1.845   0.07645748    1233.4446    188.58667   -8.9527618    6.0698084    -1073.709   -1067.6392 
   18500         1.85   0.07645741      1261.96    190.37217   -8.9842233    6.1272761   -1073.7665   -1067.6392 
   18550        1.855  0.076457388    1308.7001    189.47505   -9.0098977    6.0984017   -1073.7376   -1067.6392 
   18600         1.86  0.076457432    1358.6974    185.96915   -9.0244894    5.9855615   -1073.6248   -1067.6392 
   18650        1.865  0.076457467    1405.4436    180.67131   -9.0286656    5.8150463   -1073.4543   -1067.6392 
   18700         1.87  0.076457462    1433.4669    175.00624   -9.0350323    5.6327117   -1073.2719   -1067.6392 
   18750        1.875    0.0764574    1445.5264    170.24923    -9.048183    5.4796035   -1073.1188   -1067.6392 
   18800         1.88   0.07645736    1443.3405    167.50038   -9.0636349    5.3911298   -1073.0304   -1067.6392 
   18850        1.885  0.076457415    1447.0868    167.72835    -9.083147    5.3984671   -1073.0377   -1067.6392 
   18900         1.89  0.076457524    1458.9885    171.02105   -9.1096362    5.5044452   -1073.1437   -1067.6392 
   18950        1.895  0.076457539    1446.6895    176.34791   -9.1375492    5.6758943   -1073.3151   -1067.6392 
   19000          1.9  0.076457474    1411.5198    182.40529    -9.161382    5.8708558   -1073.5101   -1067.6392 
   19050        1.905  0.076457448    1385.2991     188.2183   -9.1852956    6.0579522   -1073.6972   -1067.6392 
   19100         1.91  0.076457528    1413.6999    192.85984    -9.215331    6.2073435   -1073.8466   -1067.6392 
   19150        1.915  0.076457582     1480.043    195.28016   -9.2474153    6.2852437   -1073.9245   -1067.6392 
   19200         1.92  0.076457539    1547.1186    195.01127   -9.2733006    6.2765891   -1073.9158   -1067.6392 
   19250        1.925   0.07645751    1605.8035    192.80171   -9.2939477    6.2054728   -1073.8447   -1067.6392 
   19300         1.93  0.076457473    1598.3059    190.10762   -9.3163636    6.1187613    -1073.758   -1067.6392 
   19350        1.935  0.076457416    1509.2408    188.03157   -9.3412168    6.0519421   -1073.6912   -1067.6392 
   19400         1.94  0.076457518    1434.6458    186.83194   -9.3626576    6.0133311   -1073.6526   -1067.6392 
   19450        1.945  0.076457638    1403.9558    186.03899   -9.3780305    5.9878093    -1073.627   -1067.6392 
   19500         1.95  0.076457559    1394.7584    185.05086   -9.3957021    5.9560055   -1073.5952   -1067.6392 
   19550        1.955  0.076457442    1413.4384     183.7353   -9.4257255    5.9136631   -1073.5529   -1067.6392 
   19600         1.96  0.076457383    1421.2339    182.69045   -9.4681432     5.880034   -1073.5193   -1067.6392 
   19650        1.965  0.076457413    1420.5968    182.99886   -9.5190918    5.8899604   -1073.5292   -1067.6392 
   19700         1.97  0.076457479    1422.3009    185.07328   -9.5688775    5.9567273    -1073.596   -1067.6392 
   19750        1.975  0.076457568    1401.8644    188.22803   -9.6031318    6.0582654   -1073.6975   -1067.6392 
   19800         1.98  0.076457554    1393.8386    191.47532   -9.6182282    6.1627819    -1073.802   -1067.6392 
   19850        1.985  0.076457465    1418.2809    194.07382   -9.6229072    6.2464164   -1073.8856   -1067.6392 
   19900         1.99  0.076457438    1451.5379    195.52045   -9.6257452    6.2929776   -1073.9322   -1067.6392 
   19950        1.995  0.076457422     1478.147     195.5996   -9.6318225     6.295525   -1073.9348   -1067.6392 
   20000            2  0.076457344    1467.9497    194.43701   -9.6465325     6.258106   -1073.8973   -1067.6392 
   20050        2.005  0.076457295     1455.781    192.15793   -9.6679695    6.1847521    -1073.824   -1067.6392 
   20100         2.01  0.076457282    1475.7234    188.99879   -9.6853381    6.0830729   -1073.7223   -1067.6392 
   20150        2.015  0.076457336    1511.2492     185.9129   -9.6914823     5.983751    -1073.623   -1067.6392 
   20200         2.02  0.076457369     1535.108    184.55863   -9.6947447    5.9401628   -1073.5794   -1067.6392 
   20250        2.025   0.07645738    1549.6908    186.04749   -9.7111475    5.9880829   -1073.6273   -1067.6392 
   20300         2.03  0.076457371    1573.2987    189.74993   -9.7443086    6.1072487   -1073.7465   -1067.6392 
   20350        2.035  0.076457335    1598.8027    193.78171   -9.7835665    6.2370146   -1073.8762   -1067.6392 
   20400         2.04  0.076457321    1612.4365    196.34944   -9.8182578    6.3196591   -1073.9589   -1067.6392 
   20450        2.045  0.076457294    1595.6224    196.49735   -9.8435079    6.3244197   -1073.9637   -1067.6392 
   20500         2.05  0.076457341    1551.0932     194.1488   -9.8554709    6.2488299   -1073.8881   -1067.6392 
   20550        2.055  0.076457438    1523.3882    190.11991   -9.8537895    6.1191568   -1073.7584   -1067.6392 
   20600         2.06   0.07645743     1505.948    186.07182   -9.8495482    5.9888659   -1073.6281   -1067.6392 
   20650        2.065  0.076457406    1490.3445    183.51625   -9.8537234     5.906613   -1073.5458   -1067.6392 
   20700         2.07  0.076457442     1490.946     182.9075   -9.8637593    5.8870197   -1073.5263   -1067.6392 
   20750        2.075  0.076457441    1481.0717    184.03654   -9.8709996    5.9233588   -1073.5626   -1067.6392 
   20800         2.08  0.076457493    1467.9055    186.97232   -9.8793685    6.0178494   -1073.6571   -1067.6392 
   20850        2.085  0.076457525    1469.5229     191.9059   -9.9019503    6.1766405   -1073.8159   -1067.6392 
   20900         2.09   0.07645743    1500.8747    198.14128   -9.9382469    6.3773308   -1074.0166   -1067.6392 
   20950        2.095  0.076457353    1522.7523    204.22851   -9.9761093     6.573253   -1074.2125   -1067.6392 
   21000          2.1  0.076457408    1493.9748    209.08499   -10.009592    6.7295628   -1074.3688   -1067.6392 
   21050        2.105  0.076457469    1446.2705    212.35054   -10.040544    6.8346669   -1074.4739   -1067.6392 
   21100         2.11  0.076457354    1411.2601    213.76664   -10.067187    6.8802453   -1074.5195   -1067.6392 
   21150        2.115   0.07645727    1391.2445    213.01118   -10.083619    6.8559303   -1074.4952   -1067.6392 
   21200         2.12   0.07645735    1371.2169    210.04448   -10.087484    6.7604446   -1074.3997   -1067.6392 
   21250        2.125  0.076457381    1340.7221    205.38603    -10.08789    6.6105088   -1074.2497   -1067.6392 
   21300         2.13  0.076457303    1325.8617    199.86436   -10.098269    6.4327894    -1074.072   -1067.6392 
   21350        2.135  0.076457273    1350.6616    194.28131    -10.12363    6.2530948   -1073.8923   -1067.6392 
   21400         2.14  0.076457275    1394.6898    189.37392   -10.157685    6.0951465   -1073.7344   -1067.6392 
   21450        2.145  0.076457319    1404.9529    186.00624   -10.193758    5.9867551    -1073.626   -1067.6392 
   21500         2.15  0.076457343    1377.3399    184.88515   -10.229093     5.950672   -1073.5899   -1067.6392 
   21550        2.155  0.076457316    1331.0234    185.97828   -10.259659    5.9858551   -1073.6251   -1067.6392 
   21600         2.16  0.076457281    1273.4665    188.83363    -10.28823     6.077757    -1073.717   -1067.6392 
   21650        2.165  0.076457288    1243.3898    192.93897   -10.322287    6.2098905   -1073.8491   -1067.6392 
   21700         2.17  0.076457281    1219.7561    197.68298   -10.364391    6.3625801   -1074.0018   -1067.6392 
   21750        2.175  0.076457285    1200.7077    202.03274   -10.403933    6.5025805   -1074.1418   -1067.6392 
   21800         2.18  0.076457259    1184.4538    204.87849   -10.429043    6.5941733   -1074.2334   -1067.6392 
   21850        2.185  0.076457258    1175.6721    205.68948   -10.440346    6.6202757   -1074.2595   -1067.6392 
   21900         2.19  0.076457315    1180.8341     204.8243   -10.448053    6.5924291   -1074.2317   -1067.6392 
   21950        2.195   0.07645731    1194.0301    203.45174   -10.464561    6.5482521   -1074.1875   -1067.6392 
   22000          2.2  0.076457233    1221.9791    202.73877   -10.493309    6.5253048   -1074.1645   -1067.6392 
   22050        2.205  0.076457231    1250.0249    203.00033   -10.523727    6.5337233    -1074.173   -1067.6392 
   22100         2.21  0.076457313    1249.3152    204.03327   -10.546944    6.5669691   -1074.2062   -1067.6392 
   22150        2.215  0.076457371    1237.3367    205.55066   -10.562365    6.6158075    -1074.255   -1067.6392 
   22200         2.22  0.076457296    1243.2787    207.11609   -10.573015    6.6661921   -1074.3054   -1067.6392 
   22250        2.225  0.076457216    1271.1183    208.31179   -10.585742    6.7046767   -1074.3439   -1067.6392 
   22300         2.23  0.076457244    1284.8837     208.8428   -10.603798    6.7217677    -1074.361   -1067.6392 
   22350        2.235  0.076457332    1283.4661    208.59905   -10.624708    6.7139222   -1074.3532   -1067.6392 
   22400         2.24   0.07645736    1303.7498    207.46236     -10.6408    6.6773371   -1074.3166   -1067.6392 
   22450        2.245  0.076457355    1335.4979    205.36278   -10.647746    6.6097605    -1074.249   -1067.6392 
   22500         2.25  0.076457336    1346.4145    202.64405   -10.654521    6.5222561   -1074.1615   -1067.6392 
   22550        2.255  0.076457311    1346.1625    199.76606   -10.666656    6.4296256   -1074.0689   -1067.6392 
   22600         2.26  0.076457308    1340.0768    197.47287    -10.68361    6.3558176    -1073.995   -1067.6392 
   22650        2.265  0.076457239    1331.9216    197.00994   -10.705717    6.3409178   -1073.9801   -1067.6392 
   22700         2.27  0.076457144    1323.8234     199.2165   -10.723115    6.4119377   -1074.0512   -1067.6392 
   22750        2.275  0.076457155    1328.8167    204.12885   -10.731517    6.5700455   -1074.2093   -1067.6392 
   22800         2.28  0.076457245    1341.6384    210.71157   -10.738456    6.7819153   -1074.4211   -1067.6392 
   22850        2.285  0.076457291    1356.1262    216.84292   -10.742858    6.9792578   -1074.6185   -1067.6392 
   22900         2.29   0.07645725    1366.5895    220.63144   -10.743306    7.1011942   -1074.7404   -1067.6392 
   22950        2.295  0.076457156    1344.6768    221.40356   -10.750585    7.1260454   -1074.7653   -1067.6392 
   23000          2.3  0.076457186    1294.1965    219.35393   -10.774867    7.0600763   -1074.6993   -1067.6392 
   23050        2.305  0.076457196    1239.1224    214.99785   -10.815487    6.9198728   -1074.5591   -1067.6392 
   23100         2.31  0.076457076    1215.0106    208.92641   -10.858673    6.7244588   -1074.3637   -1067.6392 
   23150        2.315  0.076457176    1230.6321    202.19142   -10.890066    6.5076879   -1074.1469   -1067.6392 
   23200         2.32  0.076457304    1238.2351     196.6442   -10.911075    6.3291462   -1073.9684   -1067.6392 
   23250        2.325  0.076457249    1239.4105    194.24059   -10.931389    6.2517841    -1073.891   -1067.6392 
   23300         2.33  0.076457161    1257.0758    195.88203   -10.952578    6.3046152   -1073.9438   -1067.6392 
   23350        2.335  0.076457197    1279.1537    200.82031   -10.967466    6.4635575   -1074.1028   -1067.6392 
   23400         2.34  0.076457257    1300.7395     207.5662   -10.975013    6.6806793   -1074.3199   -1067.6392 
   23450        2.345   0.07645726    1308.5908    214.80077    -10.98098    6.9135294   -1074.5528   -1067.6392 
   23500         2.35  0.076457272    1289.4755    221.18513   -10.987842    7.1190149   -1074.7582   -1067.6392 
   23550        2.355  0.076457236    1283.5991    225.44351   -10.997358    7.2560744   -1074.8953   -1067.6392 
   23600         2.36  0.076457163    1312.3799    226.64105   -11.007971     7.294618   -1074.9339   -1067.6392 
   23650        2.365  0.076457229    1344.3851    224.59123   -11.019084    7.2286432   -1074.8679   -1067.6392 
   23700         2.37   0.07645729     1365.885    219.94976   -11.030767    7.0792538   -1074.7185   -1067.6392 
   23750        2.375  0.076457227    1401.6314    214.22979   -11.045135     6.895152   -1074.5344   -1067.6392 
   23800         2.38  0.076457188    1427.6864    209.29217   -11.064939    6.7362309   -1074.3755   -1067.6392 
   23850        2.385  0.076457163    1408.8222    206.27856   -11.086967    6.6392355   -1074.2785   -1067.6392 
   23900         2.39   0.07645708    1385.5983    205.10952   -11.107172    6.6016091   -1074.2408   -1067.6392 
   23950        2.395  0.076457071    1387.0133    205.04577   -11.129799    6.5995574   -1074.2388   -1067.6392 
   24000          2.4  0.076457108    1390.5162    205.39894   -11.156831    6.6109242   -1074.2502   -1067.6392 
   24050        2.405  0.076457131    1357.8774    206.15789   -11.185375    6.6353518   -1074.2746   -1067.6392 
   24100         2.41  0.076457132    1299.8027    207.97437   -11.215364    6.6938165    -1074.333   -1067.6392 
   24150        2.415  0.076457046    1264.5476    211.18407   -11.243431    6.7971232   -1074.4364   -1067.6392 
   24200         2.42  0.076456997    1257.3066    215.49914   -11.266145    6.9360069   -1074.5752   -1067.6392 
   24250        2.425  0.076457004    1257.7398    220.04117   -11.280372    7.0821959   -1074.7214   -1067.6392 
   24300         2.43   0.07645702    1251.1577     223.4371   -11.283992    7.1914966   -1074.8307   -1067.6392 
   24350        2.435  0.076457022    1252.7715    224.64315   -11.285671     7.230314   -1074.8695   -1067.6392 
   24400         2.44  0.076456984    1265.9957    223.69761   -11.294539    7.1998812   -1074.8391   -1067.6392 
   24450        2.445  0.076456934    1262.7138    221.81546   -11.310639    7.1393028   -1074.7785   -1067.6392 
   24500         2.45  0.076456873    1233.0144    220.50339   -11.329658    7.0970727   -1074.7363   -1067.6392 
   24550        2.455  0.076456875    1202.6505    220.34157   -11.349408    7.0918644   -1074.7311   -1067.6392 
   24600         2.46  0.076456941    1202.6676    220.33665   -11.361751    7.0917062   -1074.7309   -1067.6392 
   24650        2.465  0.076456963    1226.7474    219.30132   -11.363433     7.058383   -1074.6976   -1067.6392 
   24700         2.47  0.076456936    1249.5386    217.48305    -11.36762    6.9998606   -1074.6391   -1067.6392 
   24750        2.475  0.076456975    1268.5471     215.9159    -11.38311    6.9494209   -1074.5887   -1067.6392 
   24800         2.48  0.076456964    1270.5323    215.29735   -11.406944    6.9295122   -1074.5687   -1067.6392 
   24850        2.485  0.076456848    1246.8523    215.79179   -11.434782    6.9454262   -1074.5847   -1067.6392 
   24900         2.49  0.076456767    1228.3555    217.27323   -11.464221    6.9931074   -1074.6323   -1067.6392 
   24950        2.495  0.076456798    1234.9605    219.39808    -11.48602    7.0614974   -1074.7007   -1067.6392 
   25000          2.5  0.076456902    1253.6133     221.8827   -11.487009    7.1414669   -1074.7807   -1067.6392 
   25050        2.505  0.076456945    1263.1766    224.65139   -11.467154    7.2305793   -1074.8698   -1067.6392 
   25100         2.51  0.076456885    1268.8469    227.19826    -11.44163    7.3125522   -1074.9518   -1067.6392 
   25150        2.515  0.076456776    1270.7217    228.36783   -11.425894    7.3501958   -1074.9894   -1067.6392 
   25200         2.52  0.076456734    1279.1408    227.30965   -11.424483    7.3161374   -1074.9554   -1067.6392 
   25250        2.525  0.076456742    1292.6915    224.19273   -11.429236    7.2158169   -1074.8551   -1067.6392 
   25300         2.53   0.07645679    1314.5843    219.60843   -11.430397    7.0682677   -1074.7075   -1067.6392 
   25350        2.535   0.07645686     1334.032    213.71531   -11.425496    6.8785933   -1074.5178   -1067.6392 
   25400         2.54  0.076456849    1349.3813     207.2907   -11.418326    6.6718121    -1074.311   -1067.6392 
   25450        2.545   0.07645677    1377.8998    202.81528   -11.421994    6.5277672    -1074.167   -1067.6392 
   25500         2.55  0.076456793    1396.8932    202.49375   -11.445285    6.5174184   -1074.1566   -1067.6392 
   25550        2.555  0.076456881    1384.3333    205.94001   -11.474157     6.628339   -1074.2676   -1067.6392 
   25600         2.56  0.076456893    1392.2099    211.07888   -11.490781    6.7937375    -1074.433   -1067.6392 
   25650        2.565  0.076456856     1425.474    216.44999   -11.500276     6.966611   -1074.6058   -1067.6392 
   25700         2.57   0.07645682    1422.3347     221.7408   -11.521064    7.1368997   -1074.7761   -1067.6392 
   25750        2.575  0.076456827    1389.5116    226.77774   -11.558724    7.2990176   -1074.9383   -1067.6392 
   25800         2.58  0.076456894    1376.0165    230.42348   -11.588294    7.4163587   -1075.0556   -1067.6392 
   25850        2.585  0.076456848    1392.9987    231.78982   -11.595522    7.4603351   -1075.0996   -1067.6392 
   25900         2.59   0.07645674     1406.285    231.56537   -11.605309    7.4531113   -1075.0923   -1067.6392 
   25950        2.595  0.076456751    1413.5397    230.66657   -11.635338    7.4241825   -1075.0634   -1067.6392 
   26000          2.6  0.076456899     1416.443    229.45699   -11.678587    7.3852513   -1075.0245   -1067.6392 
   26050        2.605  0.076457003     1403.885    228.28072   -11.723713    7.3473922   -1074.9866   -1067.6392 
   26100         2.61  0.076457021    1373.3644    227.67281   -11.766892    7.3278259   -1074.9671   -1067.6392 
   26150        2.615  0.076456911    1340.7862    227.79846   -11.809643    7.3318702   -1074.9711   -1067.6392 
   26200         2.62  0.076456907     1300.443     227.6998   -11.840279    7.3286948   -1074.9679   -1067.6392 
   26250        2.625  0.076456986    1245.9108    226.64351   -11.849238    7.2946973   -1074.9339   -1067.6392 
   26300         2.63  0.076456906    1213.3895    225.39942   -11.849142    7.2546552   -1074.8939   -1067.6392 
   26350        2.635  0.076456826    1226.1376    224.51387   -11.849268    7.2261533   -1074.8654   -1067.6392 
   26400         2.64  0.076456838    1277.7083    223.02405   -11.845728    7.1782022   -1074.8174   -1067.6392 
   26450        2.645  0.076456848    1348.5108    219.94872   -11.843068    7.0792202   -1074.7185   -1067.6392 
   26500         2.65  0.076456809    1384.7118    215.79754   -11.858605    6.9456112   -1074.5848   -1067.6392 
   26550        2.655  0.076456789    1365.0705     211.7995   -11.891933    6.8169312   -1074.4562   -1067.6392 
   26600         2.66  0.076456914     1299.543    209.09625   -11.921163     6.729925   -1074.3692   -1067.6392 
   26650        2.665  0.076457016    1239.2364    208.71915   -11.931351    6.7177878    -1074.357   -1067.6392 
   26700         2.67  0.076456972    1214.9068      211.699   -11.935106    6.8136966   -1074.4529   -1067.6392 
   26750        2.675  0.076456871    1213.0891    218.33214   -11.952461    7.0271895   -1074.6664   -1067.6392 
   26800         2.68  0.076456798    1223.6985    227.28091   -11.983537    7.3152126   -1074.9544   -1067.6392 
   26850        2.685  0.076456809    1225.5098    236.07415   -12.013499    7.5982297   -1075.2375   -1067.6392 
   26900         2.69  0.076456872    1227.6603     242.5254   -12.033513    7.8058683   -1075.4451   -1067.6392 
   26950        2.695  0.076456972    1258.3608    245.56912   -12.047317    7.9038328   -1075.5431   -1067.6392 
   27000          2.7  0.076456994    1275.6126    245.13472   -12.061439    7.8898512   -1075.5291   -1067.6392 
   27050        2.705  0.076456887    1268.2866     241.7328   -12.077934    7.7803577   -1075.4196   -1067.6392 
   27100         2.71  0.076456789    1276.6398    236.41209   -12.099691    7.6091067   -1075.2483   -1067.6392 
   27150        2.715  0.076456817     1285.086    230.59357   -12.127675    7.4218332   -1075.0611   -1067.6392 
   27200         2.72  0.076456956    1279.8644     225.6959   -12.152964    7.2641976   -1074.9034   -1067.6392 
   27250        2.725  0.076457008    1265.0918     222.9285   -12.162529    7.1751269   -1074.8144   -1067.6392 
   27300         2.73  0.076456892    1255.4758    223.34114   -12.160471    7.1884079   -1074.8276   -1067.6392 
   27350        2.735  0.076456791    1255.3028    227.16525   -12.168727    7.3114899   -1074.9507   -1067.6392 
   27400         2.74   0.07645683    1235.3098    232.49107   -12.190625    7.4829055   -1075.1221   -1067.6392 
   27450        2.745  0.076456913    1195.6445    236.20823   -12.208759    7.6025451   -1075.2418   -1067.6392 
   27500         2.75  0.076456943    1161.6213    236.76136    -12.22307    7.6203482   -1075.2596   -1067.6392 
   27550        2.755  0.076456918    1154.7881    234.39737   -12.238887    7.5442614   -1075.1835   -1067.6392 
   27600         2.76  0.076456852    1164.6343     230.1096   -12.253338    7.4062559   -1075.0455   -1067.6392 
   27650        2.765   0.07645681    1192.4719    225.31606   -12.266794    7.2519722   -1074.8912   -1067.6392 
   27700         2.77  0.076456909    1231.6135    221.89166   -12.281503    7.1417553    -1074.781   -1067.6392 
   27750        2.775  0.076457006    1235.7541    221.87696   -12.295173    7.1412822   -1074.7805   -1067.6392 
   27800         2.78   0.07645698    1208.1367    226.64974   -12.307425    7.2948978   -1074.9341   -1067.6392 
   27850        2.785  0.076456891    1176.1511    235.51318   -12.317651    7.5801745   -1075.2194   -1067.6392 
   27900         2.79  0.076456848    1164.9233    245.47424   -12.322706    7.9007791     -1075.54   -1067.6392 
   27950        2.795  0.076456846    1164.6239    253.11209    -12.32738    8.1466091   -1075.7858   -1067.6392 
   28000          2.8  0.076456848    1160.4177    256.41801   -12.347417    8.2530127   -1075.8922   -1067.6392 
   28050        2.805  0.076456824    1162.4022     254.7287   -12.389013    8.1986408   -1075.8379   -1067.6392 
   28100         2.81  0.076456816    1169.0586    248.13397   -12.435631    7.9863846   -1075.6256   -1067.6392 
   28150        2.815  0.076456796    1178.5376    238.03172   -12.470806    7.6612358   -1075.3005   -1067.6392 
   28200         2.82  0.076456763    1199.2585    227.28714   -12.495824    7.3154129   -1074.9546   -1067.6392 
   28250        2.825   0.07645681    1234.5536    218.97616   -12.518189    7.0479177   -1074.6871   -1067.6392 
   28300         2.83  0.076456865    1276.7135    215.42144   -12.539753    6.9335061   -1074.5727   -1067.6392 
   28350        2.835  0.076456943    1320.0112    217.52061   -12.555571    7.0010697   -1074.6403   -1067.6392 
   28400         2.84   0.07645694    1322.7705    223.90193   -12.561183    7.2064573   -1074.8457   -1067.6392 
   28450        2.845  0.076456873    1274.2662    231.82206   -12.558374     7.461373   -1075.1006   -1067.6392 
   28500         2.85   0.07645682    1212.3657    239.21446   -12.557378    7.6993032   -1075.3385   -1067.6392 
   28550        2.855  0.076456743    1168.3546    245.06433   -12.567018    7.8875858   -1075.5268   -1067.6392 
   28600         2.86  0.076456731    1159.1141    248.78928   -12.591534     8.007476   -1075.6467   -1067.6392 
   28650        2.865   0.07645684    1173.7764    249.83877   -12.632126    8.0412547   -1075.6805   -1067.6392 
   28700         2.87  0.076456919    1172.0608    247.79274   -12.684385    7.9754016   -1075.6146   -1067.6392 
   28750        2.875  0.076456876    1150.8061    243.05242   -12.738771    7.8228308   -1075.4621   -1067.6392 
   28800         2.88  0.076456855    1119.2348    237.23074   -12.782276    7.6354555   -1075.2747   -1067.6392 
   28850        2.885  0.076456907    1109.9511    233.14457   -12.809798    7.5039389   -1075.1432   -1067.6392 
   28900         2.89  0.076456909    1118.3015     233.7173   -12.825932    7.5223728   -1075.1616   -1067.6392 
   28950        2.895  0.076456802    1110.4763     239.3953   -12.836993    7.7051234   -1075.3444   -1067.6392 
   29000          2.9  0.076456789    1094.3593    246.77428   -12.846357    7.9426216   -1075.5819   -1067.6392 
   29050        2.905  0.076456914     1087.347    250.95238   -12.854444     8.077097   -1075.7163   -1067.6392 
   29100         2.91  0.076456912    1080.3745    249.15916   -12.864944     8.019381   -1075.6586   -1067.6392 
   29150        2.915  0.076456867    1077.8142    242.15509   -12.879291    7.7939495   -1075.4332   -1067.6392 
   29200         2.92  0.076456965     1073.411    233.44287   -12.891242    7.5135398   -1075.1528   -1067.6392 
   29250        2.925  0.076457115    1072.0744    227.42913    -12.90317    7.3199831   -1074.9592   -1067.6392 
   29300         2.93  0.076457151    1093.6395    227.10626   -12.933289    7.3095913   -1074.9488   -1067.6392 
   29350        2.935  0.076457038    1119.3849    232.36032   -12.988079    7.4786974   -1075.1179   -1067.6392 
   29400         2.94  0.076456921    1134.6243    240.72805   -13.055919     7.748019   -1075.3873   -1067.6392 
   29450        2.945  0.076456864     1141.918    249.49518   -13.118734    8.0301961   -1075.6694   -1067.6392 
   29500         2.95  0.076456941    1159.6822    257.15763   -13.165805    8.2768181   -1075.9161   -1067.6392 
   29550        2.955   0.07645714    1179.2951    262.93943    -13.20027    8.4629096   -1076.1021   -1067.6392 
   29600         2.96   0.07645717    1186.3391    265.77303   -13.225007    8.5541112   -1076.1933   -1067.6392 
   29650        2.965  0.076456962    1198.5613    265.15045   -13.244795    8.5340732   -1076.1733   -1067.6392 
   29700         2.97   0.07645683    1197.8883    261.64426    -13.26969    8.4212236   -1076.0605   -1067.6392 
   29750        2.975  0.076456909    1177.7226     255.9899   -13.299001    8.2392337   -1075.8785   -1067.6392 
   29800         2.98  0.076457063    1159.8441    249.00075   -13.322918    8.0142823   -1075.6535   -1067.6392 
   29850        2.985  0.076457146    1148.4764    242.18856   -13.338769    7.7950268   -1075.4343   -1067.6392 
   29900         2.99  0.076457089    1130.9903    237.45135   -13.348753    7.6425559   -1075.2818   -1067.6392 
   29950        2.995  0.076457001    1117.7814    236.46455   -13.358912     7.610795     -1075.25   -1067.6392 
   30000            3  0.076456942    1126.2416    239.60448    -13.37352    7.7118561   -1075.3511   -1067.6392 
   30050        3.005  0.076456886    1156.3534    245.25724   -13.389734    7.8937946    -1075.533   -1067.6392 
   30100         3.01  0.076456966    1190.7799    250.77536   -13.402583    8.0713994   -1075.7106   -1067.6392 
   30150        3.015  0.076457085    1203.6351    254.27554   -13.409529    8.1840557   -1075.8233   -1067.6392 
   30200         3.02  0.076457139    1204.0863     255.8356   -13.413637    8.2342673   -1075.8735   -1067.6392 
   30250        3.025   0.07645724    1221.2681    256.67609   -13.417029    8.2613191   -1075.9006   -1067.6392 
   30300         3.03  0.076457187    1256.9158    257.31837   -13.417166    8.2819915   -1075.9212   -1067.6392 
   30350        3.035  0.076457004    1278.7323    257.24074   -13.411793    8.2794928   -1075.9187   -1067.6392 
   30400         3.04  0.076457001    1251.5199    256.19386   -13.407137    8.2457981    -1075.885   -1067.6392 
   30450        3.045  0.076457164    1196.1208    254.69214   -13.410047    8.1974643   -1075.8367   -1067.6392 
   30500         3.05  0.076457257    1145.1647    253.23253   -13.415744    8.1504855   -1075.7897   -1067.6392 
   30550        3.055  0.076457144    1116.3699    251.85343   -13.417375    8.1060982   -1075.7453   -1067.6392 
   30600         3.06  0.076456997    1135.1489    250.16809   -13.409575     8.051854   -1075.6911   -1067.6392 
   30650        3.065  0.076457054    1166.8172    248.05389   -13.394954    7.9838071    -1075.623   -1067.6392 
   30700         3.07  0.076457216    1168.9659    245.96158   -13.389042    7.9164642   -1075.5557   -1067.6392 
   30750        3.075  0.076457229    1179.4894    244.10708    -13.40216    7.8567758    -1075.496   -1067.6392 
   30800         3.08  0.076457154    1215.0559    242.34737    -13.43183    7.8001383   -1075.4394   -1067.6392 
   30850        3.085  0.076457184    1249.0791    240.65467   -13.466111    7.7456575   -1075.3849   -1067.6392 
   30900         3.09  0.076457196    1263.3416    239.28699   -13.484792    7.7016376   -1075.3409   -1067.6392 
   30950        3.095  0.076457165    1271.4598     239.5317   -13.488388    7.7095135   -1075.3487   -1067.6392 
   31000          3.1  0.076457184    1286.9333    242.95851   -13.498706    7.8198081    -1075.459   -1067.6392 
   31050        3.105  0.076457244    1283.9706    249.40628   -13.524063    8.0273348   -1075.6666   -1067.6392 
   31100         3.11  0.076457303     1260.718    256.94623   -13.554227    8.2700138   -1075.9092   -1067.6392 
   31150        3.115  0.076457309    1234.9544    263.41539   -13.575646    8.4782287   -1076.1175   -1067.6392 
   31200         3.12  0.076457299     1221.679    267.76241   -13.587061     8.618141   -1076.2574   -1067.6392 
   31250        3.125   0.07645728    1205.3199    269.88964   -13.601419    8.6866074   -1076.3258   -1067.6392 
   31300         3.13  0.076457321    1193.2183    269.84108   -13.633868    8.6850446   -1076.3243   -1067.6392 
   31350        3.135  0.076457329    1188.8946    267.62378   -13.682779    8.6136792   -1076.2529   -1067.6392 
   31400         3.14   0.07645724    1172.3644    263.84237   -13.735657    8.4919716   -1076.1312   -1067.6392 
   31450        3.145  0.076457234    1156.6255    259.26765   -13.777686    8.3447306    -1075.984   -1067.6392 
   31500         3.15  0.076457352    1146.2606    254.31094   -13.801841    8.1851949   -1075.8244   -1067.6392 
   31550        3.155  0.076457413    1127.1739    249.59314   -13.819577    8.0333488   -1075.6726   -1067.6392 
   31600         3.16  0.076457375    1124.4259    245.82878   -13.842426      7.91219   -1075.5514   -1067.6392 
   31650        3.165  0.076457268    1141.1569    243.59222   -13.866183    7.8402047   -1075.4794   -1067.6392 
   31700         3.17  0.076457185    1142.9315    243.62712   -13.876409    7.8413279   -1075.4806   -1067.6392 
   31750        3.175  0.076457201    1127.0843    246.58578   -13.867806    7.9365548   -1075.5758   -1067.6392 
   31800         3.18  0.076457204    1110.3606    251.69266   -13.849255    8.1009235   -1075.7402   -1067.6392 
   31850        3.185  0.076457198    1090.6423    257.43936   -13.842194    8.2858857   -1075.9251   -1067.6392 
   31900         3.19  0.076457249    1070.2837     263.0995   -13.858302    8.4680616   -1076.1073   -1067.6392 
   31950        3.195  0.076457354    1038.4021    268.06563    -13.88309    8.6279005   -1076.2671   -1067.6392 
   32000          3.2  0.076457382    1003.1513     271.1038   -13.895783    8.7256861   -1076.3649   -1067.6392 
   32050        3.205   0.07645731     1001.503    271.56962   -13.890494    8.7406789   -1076.3799   -1067.6392 
   32100         3.21  0.076457342    1028.1672    270.88408   -13.884736    8.7186143   -1076.3578   -1067.6392 
   32150        3.215  0.076457246    1043.2279    270.60923   -13.897305     8.709768    -1076.349   -1067.6392 
   32200         3.22  0.076457163    1061.7278    269.95561   -13.919101     8.688731    -1076.328   -1067.6392 
   32250        3.225  0.076457192    1099.7924    267.40921   -13.929905    8.6067729    -1076.246   -1067.6392 
   32300         3.23   0.07645728     1115.399    262.77167   -13.926581    8.4575103   -1076.0967   -1067.6392 
   32350        3.235  0.076457358    1107.8892    257.08093   -13.924138    8.2743494   -1075.9136   -1067.6392 
   32400         3.24  0.076457338    1118.6333    252.33081   -13.927952    8.1214629   -1075.7607   -1067.6392 
   32450        3.245  0.076457214    1128.4292    251.44519   -13.927409    8.0929586   -1075.7322   -1067.6392 
   32500         3.25  0.076457246    1127.0405    254.99795   -13.916976    8.2073069   -1075.8465   -1067.6392 
   32550        3.255  0.076457307    1140.3298    259.54929   -13.905249    8.3537953    -1075.993   -1067.6392 
   32600         3.26  0.076457287    1141.9087    261.74213   -13.898995    8.4243735   -1076.0636   -1067.6392 
   32650        3.265  0.076457265    1125.1087    260.48084   -13.894888    8.3837781    -1076.023   -1067.6392 
   32700         3.27  0.076457288    1107.2451    256.23647    -13.88768    8.2471695   -1075.8864   -1067.6392 
   32750        3.275  0.076457331    1106.2294    250.66639   -13.887159    8.0678924   -1075.7071   -1067.6392 
   32800         3.28  0.076457361    1102.8873     245.7362   -13.901525    7.9092104   -1075.5484   -1067.6392 
   32850        3.285    0.0764573    1073.7918    243.36584   -13.927674    7.8329184   -1075.4721   -1067.6392 
   32900         3.29  0.076457246    1038.3344    245.33181    -13.96315    7.8961946   -1075.5354   -1067.6392 
   32950        3.295  0.076457262    1052.5387    251.76398   -14.002376     8.103219   -1075.7424   -1067.6392 
   33000          3.3  0.076457271    1099.7091    260.70233   -14.040774    8.3909068   -1076.0301   -1067.6392 
   33050        3.305  0.076457299    1122.3662    269.29951   -14.075396    8.6676137   -1076.3068   -1067.6392 
   33100         3.31  0.076457348    1133.2046    274.78945   -14.097368    8.8443117   -1076.4835   -1067.6392 
   33150        3.315  0.076457345    1144.5149    275.86818   -14.112263    8.8790314   -1076.5183   -1067.6392 
   33200         3.32  0.076457354    1152.0065    273.20166   -14.133828    8.7932075   -1076.4324   -1067.6392 
   33250        3.325  0.076457309    1165.8775    268.65705   -14.161563    8.6469357   -1076.2862   -1067.6392 
   33300         3.33  0.076457216    1161.3025    264.27145   -14.185104    8.5057818    -1076.145   -1067.6392 
   33350        3.335  0.076457256    1163.6382    261.21763   -14.196243    8.4074921   -1076.0467   -1067.6392 
   33400         3.34  0.076457414    1170.8832    259.37361   -14.192673     8.348141   -1075.9874   -1067.6392 
   33450        3.345  0.076457435    1147.1567    258.47673   -14.188523    8.3192742   -1075.9585   -1067.6392 
   33500         3.35  0.076457365    1105.1155    258.65363   -14.192309    8.3249679   -1075.9642   -1067.6392 
   33550        3.355   0.07645739    1090.5352    260.22936   -14.198584    8.3756839   -1076.0149   -1067.6392 
   33600         3.36  0.076457404    1090.7024    263.15737   -14.207014     8.469924   -1076.1092   -1067.6392 
   33650        3.365  0.076457298    1076.4632    266.48318   -14.215356     8.576968   -1076.2162   -1067.6392 
   33700         3.37  0.076457283    1073.0859    269.43944   -14.224471    8.6721174   -1076.3113   -1067.6392 
   33750        3.375  0.076457376    1089.3381    271.89961   -14.244593    8.7512999   -1076.3905   -1067.6392 
   33800         3.38  0.076457435    1103.4612    273.25721   -14.276978    8.7949953   -1076.4342   -1067.6392 
   33850        3.385  0.076457308    1111.4346    272.37848   -14.311851    8.7667127   -1076.4059   -1067.6392 
   33900         3.39  0.076457152    1121.3405    268.69095   -14.338922    8.6480268   -1076.2873   -1067.6392 
   33950        3.395  0.076457254      1157.28    262.95636   -14.353057    8.4634547   -1076.1027   -1067.6392 
   34000          3.4  0.076457397    1196.7048    257.60289   -14.365288    8.2911489   -1075.9304   -1067.6392 
[...]
   41850        4.185  0.076457027    1009.1192    329.54708   -17.026799    10.606729    -1078.246   -1067.6392 
   41900         4.19  0.076457044    1009.0074    326.75477   -17.042781    10.516856   -1078.1561   -1067.6392 
   41950        4.195  0.076457158    1008.7758    323.40391   -17.062093    10.409006   -1078.0482   -1067.6392 
   42000          4.2  0.076457147    1005.3634    320.10432   -17.080158    10.302806    -1077.942   -1067.6392 
   42050        4.205  0.076457115    991.88405    317.33885    -17.10087    10.213797    -1077.853   -1067.6392 
   42100         4.21  0.076457042    980.63929      315.014   -17.130865     10.13897   -1077.7782   -1067.6392 
   42150        4.215  0.076456975    998.50297    312.63763   -17.172141    10.062485   -1077.7017   -1067.6392 
   42200         4.22   0.07645708    1026.9562    310.54725   -17.204551    9.9952042   -1077.6344   -1067.6392 
   42250        4.225   0.07645718    1024.8324    310.92967   -17.213513    10.007513   -1077.6467   -1067.6392 
   42300         4.23  0.076457083    1017.3813    314.39712   -17.205294    10.119115   -1077.7583   -1067.6392 
   42350        4.235  0.076457003    1012.2184    317.86117   -17.191657    10.230608   -1077.8698   -1067.6392 
   42400         4.24  0.076457062    1014.6726    317.97177    -17.18376    10.234168   -1077.8734   -1067.6392 
   42450        4.245  0.076457115    1041.0192    313.50056     -17.1786    10.090259   -1077.7295   -1067.6392 
   42500         4.25  0.076457027    1065.6231    305.46596   -17.164761    9.8316589   -1077.4709   -1067.6392 
   42550        4.255  0.076456955     1061.963    296.42889   -17.133558     9.540794     -1077.18   -1067.6392 
   42600         4.26  0.076457002     1048.971    289.79488   -17.095891     9.327273   -1076.9665   -1067.6392 
   42650        4.265  0.076457008    1015.7483    288.18363   -17.073381    9.2754137   -1076.9146   -1067.6392 
   42700         4.27  0.076456971    966.63074    291.62369    -17.06781    9.3861349   -1077.0254   -1067.6392 
   42750        4.275  0.076456941     937.2059    298.17523   -17.069236    9.5970012   -1077.2362   -1067.6392 
   42800         4.28  0.076456915    941.41873    305.73809   -17.079494    9.8404177   -1077.4796   -1067.6392 
   42850        4.285  0.076456844    968.97273    312.62631   -17.099416     10.06212   -1077.7014   -1067.6392 
   42900         4.29  0.076456817    989.21318     317.5486   -17.113085    10.220548   -1077.8598   -1067.6392 
   42950        4.295   0.07645684    1007.6816    320.37965   -17.114449    10.311668   -1077.9509   -1067.6392 
   43000          4.3  0.076456884    1017.4556     321.9046   -17.116189    10.360749        -1078   -1067.6392 
   43050        4.305  0.076456934    997.36098    322.79504   -17.129186    10.389409   -1078.0286   -1067.6392 
   43100         4.31  0.076456922     976.5255    323.56991   -17.161651    10.414349   -1078.0536   -1067.6392 
   43150        4.315  0.076456789    965.28563    323.98987   -17.208478    10.427865   -1078.0671   -1067.6392 
   43200         4.32  0.076456656      976.013    322.91929   -17.253423    10.393408   -1078.0326   -1067.6392 
   43250        4.325   0.07645674    986.91303    319.71702   -17.290058     10.29034   -1077.9296   -1067.6392 
   43300         4.33  0.076456855    994.50735    315.51655   -17.319905    10.155145   -1077.7944   -1067.6392 
   43350        4.335  0.076456913    992.09776    312.98202   -17.344711    10.073569   -1077.7128   -1067.6392 
   43400         4.34  0.076456873    993.00971    314.05271   -17.361697     10.10803   -1077.7473   -1067.6392 
   43450        4.345  0.076456881    1011.1756    318.25407   -17.363193    10.243254   -1077.8825   -1067.6392 
   43500         4.35  0.076456916    1022.1325    324.00289   -17.356684    10.428285   -1078.0675   -1067.6392 
   43550        4.355  0.076456894    1001.5952    329.50567    -17.36965    10.605396   -1078.2446   -1067.6392 
   43600         4.36  0.076456787    990.25729    331.52244   -17.398294    10.670307   -1078.3095   -1067.6392 
   43650        4.365  0.076456812    1014.8329    327.94176   -17.418135     10.55506   -1078.1943   -1067.6392 
   43700         4.37  0.076456927    1009.9859    320.07607   -17.423852    10.301897   -1077.9411   -1067.6392 
   43750        4.375  0.076456903      969.415    310.42468   -17.431775    9.9912593   -1077.6305   -1067.6392 
   43800         4.38  0.076456845     959.2175    300.83991   -17.450035    9.6827659    -1077.322   -1067.6392 
   43850        4.385  0.076456904    972.76707    292.38261   -17.458814    9.4105611   -1077.0498   -1067.6392 
   43900         4.39  0.076456967    1000.7902    286.33658   -17.440879     9.215965   -1076.8552   -1067.6392 
   43950        4.395  0.076456908    1023.9806     285.0775   -17.417685    9.1754407   -1076.8147   -1067.6392 
   44000          4.4  0.076456873     1016.312    289.59884   -17.414064    9.3209636   -1076.9602   -1067.6392 
   44050        4.405  0.076456899    1002.0937    297.58236   -17.427534    9.5779192   -1077.2171   -1067.6392 
   44100         4.41  0.076456992    979.49413    305.48344   -17.460189    9.8322216   -1077.4715   -1067.6392 
   44150        4.415  0.076456954    957.12038    310.16996   -17.500467     9.983061   -1077.6223   -1067.6392 
   44200         4.42  0.076456909    969.36774    310.67664   -17.517203    9.9993688   -1077.6386   -1067.6392 
   44250        4.425  0.076457034     990.1925     309.6621   -17.501366     9.966715   -1077.6059   -1067.6392 
   44300         4.43  0.076457126    997.07426    311.42685    -17.48063    10.023515   -1077.6627   -1067.6392 
   44350        4.435  0.076457073     1012.156    317.95445   -17.477266    10.233611   -1077.8728   -1067.6392 
   44400         4.44  0.076456939    1014.2778    328.00805   -17.482372    10.557194   -1078.1964   -1067.6392 
   44450        4.445  0.076456926    999.33044    339.05571   -17.484164    10.912771    -1078.552   -1067.6392 
   44500         4.45  0.076457063    992.03592    348.59795   -17.490492    11.219896   -1078.8591   -1067.6392 
   44550        4.455  0.076457102    1000.0606    354.61439    -17.51719    11.413539   -1079.0528   -1067.6392 
   44600         4.46  0.076456962    996.40689    355.89465   -17.569196    11.454745    -1079.094   -1067.6392 
   44650        4.465  0.076456921    982.66296    351.92721   -17.625938     11.32705   -1078.9663   -1067.6392 
   44700         4.47  0.076457079    980.49035    343.41935   -17.667243    11.053218   -1078.6925   -1067.6392 
   44750        4.475  0.076457159    979.21197    332.02069    -17.68549    10.686344   -1078.3256   -1067.6392 
   44800         4.48  0.076457107    992.32881    320.06951   -17.687575    10.301685   -1077.9409   -1067.6392 
   44850        4.485  0.076456963    1013.5196     310.0827   -17.693112    9.9802522   -1077.6195   -1067.6392 
   44900         4.49  0.076456969    1001.5918    303.20339   -17.722904    9.7588364   -1077.3981   -1067.6392 
   44950        4.495   0.07645701    980.51163    298.27852   -17.770105    9.6003255   -1077.2396   -1067.6392 
   45000          4.5  0.076457008    965.95999    294.19092     -17.8048    9.4687631    -1077.108   -1067.6392 
   45050        4.505  0.076457017    961.98916    292.94732   -17.819999    9.4287368    -1077.068   -1067.6392 
   45100         4.51   0.07645703    971.83236    297.17494   -17.826582    9.5648062    -1077.204   -1067.6392 
   45150        4.515  0.076457062     971.3126    305.34652   -17.830021    9.8278148    -1077.467   -1067.6392 
   45200         4.52  0.076457088    967.70533    313.76007   -17.837312    10.098611   -1077.7378   -1067.6392 
   45250        4.525  0.076457101    978.16788    320.28707   -17.856874    10.308688   -1077.9479   -1067.6392 
   45300         4.53  0.076457058    976.86282    324.31727   -17.883352    10.438403   -1078.0776   -1067.6392 
   45350        4.535  0.076457004    957.06022    326.51332   -17.908809    10.509085   -1078.1483   -1067.6392 
   45400         4.54  0.076457052    942.23138    327.86211   -17.932213    10.552497   -1078.1917   -1067.6392 
   45450        4.545   0.07645704    939.40207    328.25924   -17.946431    10.565278   -1078.2045   -1067.6392 
   45500         4.55  0.076456984     936.0127    327.92287   -17.951349    10.554452   -1078.1937   -1067.6392 
   45550        4.555  0.076456984    943.56455    327.95367   -17.956533    10.555444   -1078.1947   -1067.6392 
   45600         4.56  0.076456952    970.72253     329.0502   -17.962098    10.590736     -1078.23   -1067.6392 
   45650        4.565  0.076456987    995.14598    331.17156   -17.959883    10.659014   -1078.2982   -1067.6392 
   45700         4.57  0.076457009    998.94348    333.51018   -17.947766    10.734284   -1078.3735   -1067.6392 
   45750        4.575  0.076456926    989.53969    334.52552   -17.932792    10.766963   -1078.4062   -1067.6392 
   45800         4.58  0.076456925    980.95008    333.13239   -17.931126    10.722125   -1078.3614   -1067.6392 
   45850        4.585  0.076457115    959.08206    328.86879    -17.93416    10.584897   -1078.2241   -1067.6392 
   45900         4.59  0.076457157    946.57457    322.43709   -17.923384    10.377888   -1078.0171   -1067.6392 
   45950        4.595   0.07645705    952.85741    316.41194   -17.913842    10.183964   -1077.8232   -1067.6392 
   46000          4.6  0.076456979    945.08309    313.54756   -17.919013    10.091772    -1077.731   -1067.6392 
   46050        4.605  0.076457016    924.59556    315.06793   -17.927039    10.140706   -1077.7799   -1067.6392 
   46100         4.61  0.076457109    914.10059    320.37764   -17.937025    10.311603   -1077.9508   -1067.6392 
   46150        4.615  0.076457104     917.2827    327.12661   -17.957731    10.528824   -1078.1681   -1067.6392 
   46200         4.62  0.076457168    920.84155    332.53739   -17.977107    10.702974   -1078.3422   -1067.6392 
   46250        4.625  0.076457189    935.24004    335.24356   -17.979199    10.790074   -1078.4293   -1067.6392 
   46300         4.63    0.0764571    956.82788    335.57661   -17.975075    10.800794     -1078.44   -1067.6392 
   46350        4.635  0.076457031    962.26794    334.10104   -17.978152    10.753301   -1078.3925   -1067.6392 
   46400         4.64  0.076457042     962.1098    331.07198   -17.987144    10.655809    -1078.295   -1067.6392 
   46450        4.645  0.076457107    952.75718    326.27068   -17.988379    10.501275   -1078.1405   -1067.6392 
   46500         4.65  0.076457159    948.45576    319.53501   -17.972857    10.284482   -1077.9237   -1067.6392 
   46550        4.655  0.076457197    951.57922    312.18572   -17.950863     10.04794   -1077.6872   -1067.6392 
   46600         4.66  0.076457169    953.72078    306.60692   -17.937745    9.8683816   -1077.5076   -1067.6392 
   46650        4.665   0.07645714    969.19209    304.86187   -17.945815    9.8122157   -1077.4514   -1067.6392 
   46700         4.67  0.076457121    982.50268    307.98161   -17.974576    9.9126272   -1077.5519   -1067.6392 
   46750        4.675  0.076457149     974.5768    314.91384   -18.000917    10.135746    -1077.775   -1067.6392 
   46800         4.68  0.076457222    954.17186     322.2853   -18.003497    10.373003   -1078.0122   -1067.6392 
   46850        4.685  0.076457263      943.539    327.31716   -17.991456    10.534957   -1078.1742   -1067.6392 
   46900         4.69  0.076457272     943.2156    329.68269   -17.979619    10.611093   -1078.2503   -1067.6392 
   46950        4.695  0.076457248    943.45366    330.93325   -17.974243    10.651343   -1078.2906   -1067.6392 
   47000          4.7  0.076457135    949.24404    332.85406   -17.979019    10.713166   -1078.3524   -1067.6392 
   47050        4.705  0.076457109    948.38347    335.49431   -17.990033    10.798145   -1078.4374   -1067.6392 
   47100         4.71  0.076457108    930.57759    336.79293   -18.000912    10.839942   -1078.4792   -1067.6392 
   47150        4.715  0.076457061    927.62433    334.90723   -18.010023    10.779249   -1078.4185   -1067.6392 
   47200         4.72  0.076457026    952.31461    330.77819   -18.012971    10.646353   -1078.2856   -1067.6392 
   47250        4.725  0.076457029    970.41647    328.26943    -18.01237    10.565606   -1078.2048   -1067.6392 
   47300         4.73   0.07645704     968.2995    329.56928   -18.014991    10.607443   -1078.2467   -1067.6392 
   47350        4.735  0.076457096     954.1138    332.31723    -18.02454    10.695888   -1078.3351   -1067.6392 
   47400         4.74   0.07645714    968.01812    333.90938   -18.038354    10.747133   -1078.3864   -1067.6392 
   47450        4.745  0.076457183    1006.2574    334.70242   -18.050106    10.772657   -1078.4119   -1067.6392 
   47500         4.75  0.076457147    1037.4547    335.39669   -18.062338    10.795003   -1078.4342   -1067.6392 
   47550        4.755  0.076457004    1027.5546    333.98227    -18.07862    10.749479   -1078.3887   -1067.6392 
   47600         4.76  0.076457078    986.81013    328.40773   -18.100384    10.570058   -1078.2093   -1067.6392 
   47650        4.765  0.076457236    980.12421    319.46388   -18.120191    10.282193   -1077.9214   -1067.6392 
   47700         4.77  0.076457087    973.75413    310.20532   -18.133538     9.984199   -1077.6234   -1067.6392 
   47750        4.775  0.076456955    944.49227    304.05996   -18.150575    9.7864056   -1077.4256   -1067.6392 
   47800         4.78  0.076457043    934.26558    302.74055    -18.16342    9.7439395   -1077.3832   -1067.6392 
   47850        4.785  0.076457163     946.5867    306.50326   -18.158739    9.8650453   -1077.5043   -1067.6392 
   47900         4.79  0.076457207    956.86274    314.93949    -18.15119    10.136572   -1077.7758   -1067.6392 
   47950        4.795   0.07645715    958.82327    326.06488   -18.164425    10.494651   -1078.1339   -1067.6392 
   48000          4.8  0.076457039    947.13341     336.0645   -18.196245    10.816497   -1078.4557   -1067.6392 
   48050        4.805  0.076457079    939.87276    341.25341   -18.222449    10.983506   -1078.6227   -1067.6392 
   48100         4.81  0.076457027    941.59608    340.87478   -18.232947    10.971319   -1078.6106   -1067.6392 
   48150        4.815  0.076456851    947.69448    337.06143   -18.235444    10.848584   -1078.4878   -1067.6392 
   48200         4.82  0.076456923     945.0083    331.93845   -18.226235    10.683697   -1078.3229   -1067.6392 
   48250        4.825  0.076457065    955.23353    326.88598   -18.206503    10.521079   -1078.1603   -1067.6392 
   48300         4.83  0.076457035    976.25082    323.10993   -18.198786    10.399544   -1078.0388   -1067.6392 
   48350        4.835  0.076456918    980.22652    320.95231    -18.21424    10.330099   -1077.9693   -1067.6392 
   48400         4.84   0.07645681    991.61794    319.56431   -18.236887    10.285425   -1077.9247   -1067.6392 
   48450        4.845  0.076456811    1004.3973    319.00657   -18.259638    10.267474   -1077.9067   -1067.6392 
   48500         4.85  0.076456872    1011.2382    320.78368   -18.281738    10.324672   -1077.9639   -1067.6392 
   48550        4.855  0.076456865    1011.4359    325.48338   -18.293785    10.475935   -1078.1152   -1067.6392 
   48600         4.86  0.076456844    1005.7488    332.46822   -18.305193    10.700748     -1078.34   -1067.6392 
   48650        4.865  0.076456876    989.87609    340.85827   -18.332595    10.970788     -1078.61   -1067.6392 
   48700         4.87   0.07645693    968.07155    348.89288   -18.372402    11.229388   -1078.8686   -1067.6392 
   48750        4.875  0.076456873    954.48433    354.07093   -18.412323    11.396048   -1079.0353   -1067.6392 
   48800         4.88  0.076456838    951.82821     354.8518   -18.445418    11.421181   -1079.0604   -1067.6392 
   48850        4.885  0.076456946    955.18291    351.65785   -18.473652    11.318381   -1078.9576   -1067.6392 
   48900         4.89  0.076457014    961.21122     345.9779   -18.498732    11.135567   -1078.7748   -1067.6392 
   48950        4.895  0.076456863    971.60448    338.99359   -18.517002    10.910772     -1078.55   -1067.6392 
   49000          4.9  0.076456715    983.55102    331.29604   -18.525123     10.66302   -1078.3022   -1067.6392 
   49050        4.905  0.076456793    965.60848    324.24302   -18.535514    10.436013   -1078.0752   -1067.6392 
   49100         4.91  0.076456864    944.53951    319.79955   -18.557009    10.292997   -1077.9322   -1067.6392 
   49150        4.915  0.076456768    947.20225    319.09103   -18.582911    10.270192   -1077.9094   -1067.6392 
   49200         4.92  0.076456734    944.86084    321.47471   -18.607567    10.346913   -1077.9861   -1067.6392 
   49250        4.925  0.076456851     940.6342    324.66116   -18.626242    10.449471   -1078.0887   -1067.6392 
   49300         4.93  0.076456872     950.6162     326.9518    -18.64032    10.523198   -1078.1624   -1067.6392 
   49350        4.935  0.076456643    952.42705    328.08816   -18.649274    10.559772    -1078.199   -1067.6392 
   49400         4.94  0.076456451    940.33548    329.05106    -18.66058    10.590764     -1078.23   -1067.6392 
   49450        4.945  0.076456558    946.93554    331.05799   -18.683544    10.655358   -1078.2946   -1067.6392 
   49500         4.95  0.076456719    968.13429     334.1178   -18.710726    10.753841   -1078.3931   -1067.6392 
   49550        4.955  0.076456712    989.14725    337.02333   -18.733226    10.847357   -1078.4866   -1067.6392 
   49600         4.96  0.076456681    986.97561    338.47429   -18.752155    10.894058   -1078.5333   -1067.6392 
   49650        4.965  0.076456692    980.18259    338.36307   -18.779369    10.890478   -1078.5297   -1067.6392 
   49700         4.97  0.076456776    962.29895    337.41689   -18.815353    10.860024   -1078.4993   -1067.6392 
   49750        4.975  0.076456852    943.47442    335.97999   -18.836611    10.813777    -1078.453   -1067.6392 
   49800         4.98  0.076456829    951.10385    334.29845   -18.839995    10.759655   -1078.3989   -1067.6392 
   49850        4.985  0.076456797    968.57767    333.00568    -18.84792    10.718046   -1078.3573   -1067.6392 
   49900         4.99  0.076456886    973.40031    332.98155   -18.860429     10.71727   -1078.3565   -1067.6392 
   49950        4.995  0.076456914    964.32242    335.13156   -18.853933    10.786469   -1078.4257   -1067.6392 
   50000            5  0.076456921    972.52311    340.63067   -18.841947    10.963463   -1078.6027   -1067.6392 
Loop time of 90.4316 on 1 procs for 50000 steps with 250 atoms

Performance: 4.777 ns/day, 5.024 hours/ns, 552.904 timesteps/s
99.3% CPU use with 1 MPI tasks x no OpenMP threads

MPI task timing breakdown:
Section |  min time  |  avg time  |  max time  |%varavg| %total
---------------------------------------------------------------
Pair    | 37.302     | 37.302     | 37.302     |   0.0 | 41.25
Neigh   | 0.386      | 0.386      | 0.386      |   0.0 |  0.43
Comm    | 0.7718     | 0.7718     | 0.7718     |   0.0 |  0.85
Output  | 15.35      | 15.35      | 15.35      |   0.0 | 16.97
Modify  | 36.465     | 36.465     | 36.465     |   0.0 | 40.32
Other   |            | 0.1579     |            |       |  0.17

Nlocal:    250 ave 250 max 250 min
Histogram: 1 0 0 0 0 0 0 0 0 0
Nghost:    1327 ave 1327 max 1327 min
Histogram: 1 0 0 0 0 0 0 0 0 0
Neighs:    7747 ave 7747 max 7747 min
Histogram: 1 0 0 0 0 0 0 0 0 0
FullNghs:  15494 ave 15494 max 15494 min
Histogram: 1 0 0 0 0 0 0 0 0 0

Total # of neighbors = 15494
Ave neighs/atom = 61.976
Neighbor list builds = 614
Dangerous builds = 0

Please see the log.cite file for references relevant to this simulation

Total wall time: 0:01:30
