LAMMPS (30 Apr 2019)
  using 1 OpenMP thread(s) per MPI task
# bcc iron in a 3d periodic box

clear
  using 1 OpenMP thread(s) per MPI task
units 		metal
atom_style 	spin

dimension 	3
boundary 	p p p

# necessary for the serial algorithm (sametag)
atom_modify 	map array

lattice 	bcc 2.8665
Lattice spacing in x,y,z = 2.8665 2.8665 2.8665
region 		box block 0.0 5.0 0.0 5.0 0.0 5.0
create_box 	1 box
Created orthogonal box = (0 0 0) to (14.3325 14.3325 14.3325)
  1 by 2 by 2 MPI processor grid
create_atoms 	1 box
Created 250 atoms
  create_atoms CPU = 0.000627756 secs

# setting mass, mag. moments, and interactions for bcc iron

mass		1 55.845
set 		group all spin 2.2 -1.0 0.0 0.0
  250 settings made for spin
velocity 	all create 100 4928459 rot yes dist gaussian

pair_style 	hybrid/overlay eam/alloy spin/exchange 3.5
pair_coeff 	* * eam/alloy Fe_Mishin2006.eam.alloy Fe
pair_coeff 	* * spin/exchange exchange 3.4 0.02726 0.2171 1.841
neighbor 	0.1 bin
neigh_modify 	every 10 check yes delay 20

fix 		1 all precession/spin cubic 0.001 0.0005 1.0 0.0 0.0 0.0 1.0 0.0 0.0 0.0 1.0
fix_modify 	1 energy yes
fix 		2 all langevin/spin 0.0 0.0 21

fix 		3 all nve/spin lattice yes
timestep	0.0001

# compute and output options

compute 	out_mag    all spin
compute 	out_pe     all pe
compute 	out_ke     all ke
compute 	out_temp   all temp

variable 	magx      equal c_out_mag[1]
variable 	magy      equal c_out_mag[2]
variable 	magz      equal c_out_mag[3]
variable 	magnorm   equal c_out_mag[4]
variable 	emag      equal c_out_mag[5]
variable 	tmag      equal c_out_mag[6]

thermo_style    custom step time v_magx v_magy v_magz v_magnorm v_tmag v_emag pe etotal
thermo          50

compute 	outsp all property/atom spx spy spz sp fmx fmy fmz
dump 		100 all custom 1 dump_iron.lammpstrj type x y z c_outsp[1] c_outsp[2] c_outsp[3]

run 		2000
Neighbor list info ...
  update every 10 steps, delay 20 steps, check yes
  max neighbors/atom: 2000, page size: 100000
  master list distance cutoff = 5.77337
  ghost atom cutoff = 5.77337
  binsize = 2.88668, bins = 5 5 5
  2 neighbor lists, perpetual/occasional/extra = 2 0 0
  (1) pair eam/alloy, perpetual, half/full from (2)
      attributes: half, newton on
      pair build: halffull/newton
      stencil: none
      bin: none
  (2) pair spin/exchange, perpetual
      attributes: full, newton on
      pair build: full/bin/atomonly
      stencil: full/bin/3d
      bin: standard
Per MPI rank memory allocation (min/avg/max) = 7.265 | 7.265 | 7.265 Mbytes
Step Time v_magx v_magy v_magz v_magnorm v_tmag v_emag PotEng TotEng 
       0            0           -1            0            0            1            0    -55.58269   -1125.5827    -1122.364 
      50        0.005           -1            0            0            1            0   -55.581457   -1125.4635    -1122.364 
     100         0.01           -1            0            0            1            0   -55.577922   -1125.1262    -1122.364 
     150        0.015           -1            0            0            1            0   -55.572562   -1124.6305    -1122.364 
     200         0.02           -1            0            0            1            0   -55.566098    -1124.067    -1122.364 
     250        0.025           -1            0            0            1            0   -55.559384   -1123.5412    -1122.364 
     300         0.03           -1            0            0            1            0   -55.553261   -1123.1491    -1122.364 
     350        0.035           -1            0            0            1            0   -55.548413   -1122.9526    -1122.364 
     400         0.04           -1            0            0            1            0   -55.545248   -1122.9623    -1122.364 
     450        0.045           -1            0            0            1            0    -55.54387   -1123.1395    -1122.364 
     500         0.05           -1            0            0            1            0   -55.544101   -1123.4126    -1122.364 
     550        0.055           -1            0            0            1            0    -55.54558   -1123.7021    -1122.364 
     600         0.06           -1            0            0            1            0   -55.547857   -1123.9414    -1122.364 
     650        0.065           -1            0            0            1            0   -55.550495   -1124.0897    -1122.364 
     700         0.07           -1            0            0            1            0   -55.553127    -1124.136    -1122.364 
     750        0.075           -1            0            0            1            0   -55.555497   -1124.0961    -1122.364 
     800         0.08           -1            0            0            1            0   -55.557466   -1124.0053    -1122.364 
     850        0.085           -1            0            0            1            0   -55.559001   -1123.9069    -1122.364 
     900         0.09           -1            0            0            1            0   -55.560147   -1123.8404    -1122.364 
     950        0.095           -1            0            0            1            0   -55.560992   -1123.8312    -1122.364 
    1000          0.1           -1            0            0            1            0   -55.561635   -1123.8853    -1122.364 
    1050        0.105           -1            0            0            1            0   -55.562156   -1123.9898    -1122.364 
    1100         0.11           -1            0            0            1            0   -55.562594   -1124.1174    -1122.364 
    1150        0.115           -1            0            0            1            0   -55.562944   -1124.2349    -1122.364 
    1200         0.12           -1            0            0            1            0   -55.563163   -1124.3115    -1122.364 
    1250        0.125           -1            0            0            1            0   -55.563193   -1124.3273    -1122.364 
    1300         0.13           -1            0            0            1            0   -55.562982   -1124.2776    -1122.364 
    1350        0.135           -1            0            0            1            0   -55.562513   -1124.1744    -1122.364 
    1400         0.14           -1            0            0            1            0   -55.561812   -1124.0433    -1122.364 
    1450        0.145           -1            0            0            1            0   -55.560956   -1123.9169    -1122.364 
    1500         0.15           -1            0            0            1            0   -55.560057   -1123.8268    -1122.364 
    1550        0.155           -1            0            0            1            0   -55.559235   -1123.7951    -1122.364 
    1600         0.16           -1            0            0            1            0    -55.55859   -1123.8282    -1122.364 
    1650        0.165           -1            0            0            1            0   -55.558174   -1123.9155    -1122.364 
    1700         0.17           -1            0            0            1            0   -55.557974   -1124.0311    -1122.364 
    1750        0.175           -1            0            0            1            0   -55.557913   -1124.1409    -1122.364 
    1800         0.18           -1            0            0            1            0    -55.55788    -1124.212    -1122.364 
    1850        0.185           -1            0            0            1            0   -55.557753   -1124.2208    -1122.364 
    1900         0.19           -1            0            0            1            0   -55.557448   -1124.1596    -1122.364 
    1950        0.195           -1            0            0            1            0   -55.556942   -1124.0384    -1122.364 
    2000          0.2           -1            0            0            1            0   -55.556288    -1123.883    -1122.364 
Loop time of 4.39485 on 4 procs for 2000 steps with 250 atoms

Performance: 3.932 ns/day, 6.104 hours/ns, 455.078 timesteps/s
98.3% CPU use with 4 MPI tasks x 1 OpenMP threads

MPI task timing breakdown:
Section |  min time  |  avg time  |  max time  |%varavg| %total
---------------------------------------------------------------
Pair    | 0.64527    | 0.6695     | 0.71114    |   3.3 | 15.23
Neigh   | 0.0032711  | 0.0034365  | 0.0036387  |   0.3 |  0.08
Comm    | 0.14872    | 0.19108    | 0.21485    |   6.1 |  4.35
Output  | 0.40622    | 0.43119    | 0.45149    |   2.5 |  9.81
Modify  | 3.0688     | 3.0921     | 3.1179     |   1.0 | 70.36
Other   |            | 0.007548   |            |       |  0.17

Nlocal:    62.5 ave 67 max 57 min
Histogram: 1 0 0 0 0 1 0 1 0 1
Nghost:    850.5 ave 856 max 847 min
Histogram: 1 0 1 1 0 0 0 0 0 1
Neighs:    1968.75 ave 2101 max 1792 min
Histogram: 1 0 0 0 0 1 0 1 0 1
FullNghs:  3937.5 ave 4217 max 3583 min
Histogram: 1 0 0 0 0 1 0 1 0 1

Total # of neighbors = 15750
Ave neighs/atom = 63
Neighbor list builds = 12
Dangerous builds = 0
# min_style 	spin
# min_modify	alpha_damp 1.0 discrete_factor 10
# minimize 	1.0e-16 1.0e-16 10000 10000

Please see the log.cite file for references relevant to this simulation

Total wall time: 0:00:04
