LAMMPS data file from restart file: timestep = 1000000, procs = 1

32000 atoms

2 atom types

0 40 xlo xhi
0 20 ylo yhi
0 37.2886 zlo zhi

Atoms

1 1 1 1 19.4061 6.46569 14.5438 33 0 0
2 1 1 1 19.8205 4.24752 17.4977 33 1 0
3 1 1 1 14.6753 4.92129 27.9373 50 0 0
4 1 1 1 4.08152 9.76474 20.0732 42 -1 0
5 1 1 1 12.7578 6.17279 18.5959 41 0 0
6 1 1 1 15.8025 6.26336 13.7316 27 0 0
7 1 1 1 17.3423 9.68487 20.6175 43 0 0
8 1 1 1 15.1039 8.41646 15.7969 35 0 0
9 1 1 1 11.8444 2.04552 13.7059 31 1 0
10 1 1 1 2.04835 4.89033 35.3029 59 0 0
11 1 1 1 16.3651 0.586881 14.5109 29 1 0
12 1 1 1 13.5304 5.18255 12.6679 24 0 0
13 1 1 1 5.8097 9.70935 29.1628 52 0 0
14 1 1 1 19.5528 6.534 16.9674 34 0 0
15 1 1 1 10.4264 2.65496 7.44152 16 1 0
16 1 1 1 12.4072 6.89889 25.6007 48 0 0
17 1 1 1 5.97089 2.37101 8.92115 12 0 0
18 1 1 1 4.95739 7.3449 7.903 16 0 0
19 1 1 1 9.01884 1.68906 19.7307 39 0 0
20 1 1 1 13.5049 9.75694 5.81872 6 0 0
21 1 1 1 18.8598 3.17233 20.5273 44 0 0
22 1 1 1 9.87017 0.00488212 19.8133 40 0 0
23 1 1 1 5.2108 7.09447 18.7901 42 0 0
24 1 1 1 5.05661 1.6273 12.9833 27 1 0
25 1 1 1 11.2514 3.96539 20.3195 41 0 0
26 1 1 1 18.1944 7.26898 33.7694 56 0 0
27 1 1 1 18.3626 0.510357 17.974 38 1 0
28 1 1 1 14.2467 5.29179 3.363 8 0 0
29 1 1 1 18.5219 5.77476 10.5023 22 0 0
30 1 1 1 9.01175 3.58787 28.72 52 0 0
31 1 1 1 17.523 3.23881 29.0407 53 0 0
32 1 1 1 11.3986 6.00749 10.7873 24 0 0
33 1 1 1 14.3078 4.02739 23.2116 46 0 0
34 1 1 1 10.9515 0.701465 11.9958 27 0 0
35 1 1 1 14.6307 3.09765 11.5642 27 0 0
36 1 1 1 15.5413 4.79998 25.5934 48 0 0
37 1 1 1 19.1589 4.04364 24.0587 44 0 0
38 1 1 1 0.734241 8.8114 26.068 50 0 0
39 1 1 1 15.9935 7.06921 14.8408 31 0 0
40 1 1 1 17.2929 1.98075 7.98368 14 0 0
41 1 1 1 17.1671 4.33258 7.082 12 0 0
42 1 1 1 17.7396 5.72831 18.7829 38 0 0
43 1 1 1 6.70379 5.64424 19.6562 42 0 0
44 1 1 1 3.29481 1.95044 6.02484 12 0 0
45 1 1 1 11.79 6.90775 8.45244 16 0 0
46 1 1 1 0.375228 3.13954 19.2978 41 0 0
47 1 1 1 0.87515 0.228655 3.4904 3 0 0
48 1 1 1 9.7054 6.38495 6.35101 11 0 0
49 1 1 1 10.0201 1.71599 4.29559 17 1 0
50 1 1 1 4.27373 3.72504 8.29462 13 0 0
51 1 1 1 16.9946 0.83459 32.7964 55 1 0
52 1 1 1 9.08203 9.34627 16.2549 35 0 0
53 1 1 1 18.5065 4.72045 8.38252 14 1 0
54 1 1 1 18.3776 2.52704 23.5048 45 0 0
55 1 1 1 15.0595 9.19862 24.9741 47 0 0
56 1 1 1 10.6428 8.59871 3.75914 8 0 0
57 1 1 1 15.5553 5.15744 27.5255 49 0 0
58 1 1 1 8.97285 1.57096 33.5553 56 0 0
59 1 1 1 8.76878 4.0202 17.0898 35 0 0
60 1 1 1 1.94953 4.3745 34.4425 57 0 0
61 1 1 1 17.9688 7.11543 13.1328 26 0 0
62 1 1 1 19.6174 0.629522 26.1894 49 0 0
63 1 1 1 9.83031 4.80199 5.19624 6 0 0
64 1 1 1 1.68305 6.86926 29.7682 54 0 0
65 1 1 1 5.1996 4.93402 18.1509 40 0 0
66 1 1 1 9.93179 9.13252 9.52607 21 0 0
67 1 1 1 2.64218 7.46545 19.6166 41 0 0
68 1 1 1 14.7678 6.96859 24.4746 44 0 0
69 1 1 1 7.78904 5.97906 25.0862 48 0 0
70 1 1 1 15.2063 7.92832 12.2852 23 0 0
71 1 1 1 12.5711 3.56153 12.5499 26 0 0
72 1 1 1 5.88634 1.03302 4.28873 8 0 0
73 1 1 1 17.7277 1.07433 7.79102 14 1 0
74 1 1 1 13.2386 2.75419 21.8839 44 0 0
75 1 1 1 6.53565 7.2733 2.97857 10 0 0
76 1 1 1 17.2825 5.5895 1.46477 1 0 0
77 1 1 1 5.267 4.17699 11.777 28 0 0
78 1 1 1 9.44981 3.23965 17.3819 34 0 0
79 1 1 1 18.7754 0.586809 8.93189 17 1 0
80 1 1 1 11.6343 7.2567 12.382 27 0 0
81 1 1 1 0.238712 5.53909 12.2768 24 0 0
82 1 1 1 6.39995 2.44156 3.1463 8 1 0
83 1 1 1 18.6183 6.97337 17.0424 36 0 0
84 1 1 1 16.3605 6.06822 17.7002 38 0 0
85 1 1 1 0.319789 6.56937 22.4459 45 0 0
86 1 1 1 17.1457 0.894866 6.72085 12 0 0
87 1 1 1 12.7041 2.61577 20.0493 39 0 0
88 1 1 1 5.2901 7.50676 23.4211 47 0 0
89 1 1 1 11.4728 2.36582 2.51537 5 1 0
90 1 1 1 11.5923 3.73557 9.77021 20 0 0
91 1 1 1 7.92663 9.17415 28.0543 51 0 0
92 1 1 1 7.19789 4.16526 2.91286 4 0 0
93 1 1 1 6.6611 0.397535 7.13666 14 0 0
94 1 1 1 12.9495 5.35521 11.7505 24 0 0
95 1 1 1 19.4359 0.930747 15.1848 32 1 0
96 1 1 1 5.56073 0.324869 1.16993 1 1 0
97 1 1 1 13.8235 6.83435 11.8236 29 0 0
98 1 1 1 10.7294 2.15649 10.0921 21 0 0
99 1 1 1 14.8051 7.99412 8.85998 16 0 0
100 1 1 1 7.71465 2.58713 9.26638 22 1 0
101 1 1 1 19.7569 5.38994 27.5107 51 0 0
102 1 1 1 14.3266 2.31117 14.8581 35 0 0
103 1 1 1 8.44576 6.95001 4.26655 8 0 0
104 1 1 1 18.0738 0.553075 14.5714 31 1 0
105 1 1 1 7.74968 0.041709 28.5239 52 0 0
106 1 1 1 1.60525 3.13531 4.76733 6 0 0
107 1 1 1 4.03584 6.48239 5.53794 13 0 0
108 1 1 1 2.83514 9.22293 25.8233 46 0 0
109 1 1 1 10.631 4.83104 28.9372 50 0 0
110 1 1 1 0.67494 4.56059 31.6859 56 0 0
111 1 1 1 17.6313 8.35789 9.75805 25 0 0
112 1 1 1 15.1702 1.09245 3.15859 5 0 0
113 1 1 1 12.2284 3.86938 14.5297 33 0 0
114 1 1 1 11.5116 4.56939 8.9148 17 0 0
115 1 1 1 18.2943 9.95321 20.7646 39 -1 0
116 1 1 1 11.6509 7.4058 4.21302 4 0 0
117 1 1 1 8.55347 7.08969 5.60259 14 0 0
118 1 1 1 5.32358 9.9939 23.7685 45 -1 0
119 1 1 1 7.54054 4.23383 7.38448 13 0 0
120 1 1 1 2.59558 0.656734 19.0838 39 0 0
121 1 1 1 19.2038 1.8791 15.4001 34 1 0
122 1 1 1 7.52235 9.05419 7.48387 13 0 0
123 1 1 1 8.92391 5.32673 27.9218 52 0 0
124 1 1 1 15.7833 8.16572 6.79757 15 0 0
125 1 1 1 9.53598 9.5436 17.1241 38 -1 0
126 1 1 1 0.140275 5.45811 18.5406 39 0 0
127 1 1 1 3.60265 4.13935 7.59887 15 0 0
128 1 1 1 6.91538 1.09123 17.764 36 0 0
129 1 1 1 9.97323 0.398118 10.5076 25 0 0
130 1 1 1 4.80051 3.06207 17.8744 37 0 0
131 1 1 1 10.9604 0.117793 12.8803 28 1 0
132 1 1 1 4.84854 8.21033 18.3969 36 0 0
133 1 1 1 17.2956 0.0542618 14.9528 31 1 0
134 1 1 1 11.0994 6.63655 12.9586 26 0 0
135 1 1 1 3.75241 8.81247 13.8469 32 0 0
136 1 1 1 7.49723 3.29814 12.6881 29 0 0
137 1 1 1 10.695 5.01588 6.07203 13 0 0
138 1 1 1 8.00445 1.18372 18.8951 38 1 0
139 1 1 1 18.8675 5.09031 1.54048 1 0 0
140 1 1 1 10.0605 6.46029 14.6863 28 0 0
141 1 1 1 9.27923 1.09792 4.03441 5 1 0
142 1 1 1 16.1697 7.9381 5.21726 9 0 0
143 1 1 1 5.83726 6.46768 10.8259 22 0 0
144 1 1 1 15.2838 0.438803 10.1029 22 1 0
145 1 1 1 3.35618 6.23744 4.76722 11 0 0
146 1 1 1 17.7785 1.94725 9.69301 16 0 0
147 1 1 1 7.60331 1.72677 7.8278 18 1 0
148 1 1 1 6.00577 8.1428 17.2969 34 0 0
149 1 1 1 13.5266 8.33816 19.7349 39 0 0
150 1 1 1 6.10751 6.08381 34.6814 57 0 0
151 1 1 1 10.0484 8.88151 4.70384 15 0 0
152 1 1 1 1.75342 5.70626 13.8825 33 0 0
153 1 1 1 15.3125 0.847584 22.8306 45 0 0
154 1 1 1 8.05674 9.72663 21.627 44 0 0
155 1 1 1 1.70095 1.92116 16.2307 35 1 0
156 1 1 1 13.9287 6.96891 5.29934 12 0 0
157 1 1 1 3.42782 1.14713 29.0908 51 1 0
158 1 1 1 1.46386 0.67378 15.3441 34 1 0
159 1 1 1 7.82114 8.22356 15.5948 34 0 0
160 1 1 1 9.96086 4.51388 22.9318 43 0 0
161 1 1 1 4.53513 4.61514 5.40189 13 0 0
162 1 1 1 9.45315 1.27811 12.5878 27 0 0
163 1 1 1 9.10585 8.47959 7.00208 13 0 0
164 1 1 1 7.91863 2.36569 12.7063 25 0 0
165 1 1 1 11.9949 0.41355 27.1448 52 0 0
166 1 1 1 16.247 5.80034 15.4072 29 0 0
167 1 1 1 11.7793 9.43763 1.84096 3 0 0
168 1 1 1 6.05765 9.02034 6.24133 13 0 0
169 1 1 1 6.75125 1.06067 25.8478 50 0 0
170 1 1 1 1.32279 8.76206 13.7233 31 0 0
171 1 1 1 11.4518 2.55953 6.56031 18 0 0
172 1 1 1 3.02302 4.53202 6.49678 18 0 0
173 1 1 1 14.3678 9.19231 2.06329 3 0 0
174 1 1 1 14.5988 4.85139 23.76 44 0 0
175 1 1 1 10.5753 0.30085 8.18962 22 0 0
176 1 1 1 1.25294 7.33953 3.35103 9 0 0
177 1 1 1 19.7604 3.78582 18.6089 40 0 0
178 1 1 1 18.2492 4.31731 14.8322 33 0 0
179 1 1 1 4.87306 6.186 3.70043 4 0 0
180 1 1 1 0.663606 7.51103 10.1099 20 0 0
181 1 1 1 12.7693 1.7398 4.35918 5 1 0
182 1 1 1 3.83198 9.7314 13.0381 30 0 0
183 1 1 1 13.7841 9.16473 12.6947 30 0 0
184 1 1 1 3.81256 3.97508 14.6911 31 0 0
185 1 1 1 4.93392 6.80458 5.22481 12 0 0
186 1 1 1 15.1876 8.23545 3.9103 10 0 0
187 1 1 1 4.97967 0.584416 31.8404 56 0 0
188 1 1 1 4.76175 3.53423 15.2738 34 0 0
189 1 1 1 17.604 0.942086 9.90436 21 1 0
190 1 1 1 14.4045 2.60122 18.9539 37 0 0
191 1 1 1 17.9681 8.02522 11.1043 25 0 0
192 1 1 1 7.77481 1.09536 14.7457 35 1 0
193 1 1 1 3.6011 2.7927 13.9848 30 0 0
194 1 1 1 17.1417 9.89792 6.62277 11 0 0
195 1 1 1 5.24007 7.80944 11.6543 26 0 0
196 1 1 1 10.1076 7.81495 2.94107 6 0 0
197 1 1 1 6.09509 8.94154 23.0274 46 0 0
198 1 1 1 5.16199 8.94701 4.13448 11 0 0
199 1 1 1 7.25728 4.75082 17.9093 37 0 0
200 1 1 1 6.62194 1.77045 36.4497 59 0 0
201 1 1 1 12.2418 2.5738 23.5901 47 0 0
202 1 1 1 18.5898 2.70712 25.495 50 0 0
203 1 1 1 11.4408 9.70936 16.6943 36 0 0
204 1 1 1 16.7472 1.86435 4.20943 5 1 0
205 1 1 1 6.07316 6.50456 25.7914 48 0 0
206 1 1 1 6.07642 6.48336 35.5977 58 0 0
207 1 1 1 10.9079 9.41772 17.9484 38 0 0
208 1 1 1 10.1802 0.765997 4.57833 6 0 0
209 1 1 1 13.8159 0.784651 10.8686 22 1 0
210 1 1 1 15.5123 9.95833 19.7774 38 0 0
211 1 1 1 9.40746 6.08917 2.07966 3 0 0
212 1 1 1 12.762 5.3548 7.11937 12 0 0
213 1 1 1 2.46556 0.535694 27.096 50 0 0
214 1 1 1 7.45064 3.78064 17.7602 37 0 0
215 1 1 1 3.76813 0.347627 8.87555 22 1 0
216 1 1 1 2.50191 2.66999 1.3265 1 1 0
217 1 1 1 11.9212 4.15592 1.45538 1 0 0
218 1 1 1 11.519 6.57986 23.659 49 0 0
219 1 1 1 19.5672 5.16345 8.12747 19 0 0
220 1 1 1 15.9324 3.4466 8.05397 20 0 0
221 1 1 1 5.06114 6.97644 13.2504 33 0 0
222 1 1 1 1.06928 7.29191 20.0134 41 0 0
223 1 1 1 3.4912 7.7878 13.9371 28 0 0
224 1 1 1 18.2256 3.75013 1.58162 1 0 0
225 1 1 1 3.56637 4.61176 5.6517 10 0 0
226 1 1 1 1.13961 2.2235 15.1383 33 0 0
227 1 1 1 3.01141 2.495 15.3432 34 0 0
228 1 1 1 14.404 5.87603 27.8151 49 0 0
229 1 1 1 7.02352 4.01738 14.333 31 0 0
230 1 1 1 2.26708 3.54018 10.518 18 0 0
231 1 1 1 3.45307 6.28349 34.3238 57 0 0
232 1 1 1 8.79312 3.69879 8.9351 18 0 0
233 1 1 1 12.2705 2.65034 28.4368 50 0 0
234 1 1 1 12.6467 7.36593 29.022 53 0 0
235 1 1 1 15.9454 8.99513 23.2635 47 0 0
236 1 1 1 4.52463 4.6398 14.9811 29 0 0
237 1 1 1 18.9546 7.26897 21.2615 41 0 0
238 1 1 1 17.5886 4.01203 5.92569 6 0 0
239 1 1 1 9.73652 7.66478 11.3779 20 0 0
240 1 1 1 5.775 6.86195 33.1083 56 0 0
241 1 1 1 2.84614 1.14154 3.70543 5 1 0
242 1 1 1 1.20637 1.72309 11.3583 24 0 0
243 1 1 1 19.2809 6.8756 32.9395 56 0 0
244 1 1 1 4.43297 1.88768 5.08029 13 0 0
245 1 1 1 15.0229 2.87026 3.0016 3 0 0
246 1 1 1 2.54398 6.31722 13.8406 30 0 0
247 1 1 1 19.0025 1.8455 13.6484 28 0 0
248 1 1 1 17.1177 1.49464 27.043 50 0 0
249 1 1 1 15.8518 8.5279 2.09503 1 0 0
250 1 1 1 3.51741 3.61521 4.39333 8 0 0
251 1 1 1 16.6875 4.61129 13.6731 30 0 0
252 1 1 1 7.96606 5.73726 16.2689 36 0 0
253 1 1 1 2.03593 7.78049 11.073 25 0 0
254 1 1 1 8.80132 2.88879 13.3426 29 0 0
255 1 1 1 2.15829 0.446343 3.49756 5 0 0
256 1 1 1 16.9114 7.30381 4.99949 7 0 0
257 1 1 1 1.35959 6.8079 14.7788 32 0 0
258 1 1 1 15.8394 6.00186 11.9097 22 0 0
259 1 1 1 13.814 5.4399 2.3885 3 0 0
260 1 1 1 10.0605 7.89192 18.2973 40 0 0
261 1 1 1 5.33645 5.36291 33.6235 58 0 0
262 1 1 1 12.9273 9.61966 17.6672 36 0 0
263 1 1 1 19.8949 4.71172 24.1686 46 0 0
264 1 1 1 16.5621 9.96017 28.8296 52 0 0
265 1 1 1 9.89024 6.53092 27.4659 52 0 0
266 1 1 1 14.3746 4.48996 31.5486 55 0 0
267 1 1 1 8.71851 0.502619 8.19239 18 1 0
268 1 1 1 4.21028 6.42707 14.7858 33 0 0
269 1 1 1 19.2145 9.53576 19.702 40 0 0
270 1 1 1 12.7237 7.12534 36.7991 59 0 0
271 1 1 1 7.28642 2.72842 15.41 31 0 0
272 1 1 1 5.89597 1.85546 23.9881 47 0 0
273 1 1 1 18.1646 8.53401 15.1264 29 0 0
274 1 1 1 15.8472 4.18193 15.9248 34 0 0
275 1 1 1 4.83749 6.66373 21.6472 44 0 0
276 1 1 1 17.785 5.36302 2.52745 3 0 0
277 1 1 1 8.23509 9.98105 35.6475 59 0 0
278 1 1 1 14.1056 3.15492 7.47454 19 0 0
279 1 1 1 3.03571 6.40228 11.3277 23 0 0
280 1 1 1 8.73774 3.19072 6.07607 11 1 0
281 1 1 1 7.78807 2.83989 17.7125 40 0 0
282 1 1 1 19.3683 3.0898 24.4568 44 0 0
283 1 1 1 9.53453 2.16099 2.76024 3 0 0
284 1 1 1 18.2142 5.81841 1.74742 1 0 0
285 1 1 1 2.11375 3.64698 19.4025 41 0 0
286 1 1 1 8.58623 8.67391 15.135 33 0 0
287 1 1 1 14.5573 1.80287 13.594 31 0 0
288 1 1 1 3.20097 0.0851567 15.1034 31 1 0
289 1 1 1 3.28931 7.87115 11.2204 27 0 0
290 1 1 1 5.42997 6.12398 11.672 24 0 0
291 1 1 1 3.94135 2.52704 2.04084 2 0 0
292 1 1 1 12.7644 3.36343 11.5892 25 0 0
293 1 1 1 17.2649 2.28781 19.7512 41 1 0
294 1 1 1 8.21485 5.01541 10.1802 19 0 0
295 1 1 1 3.80545 2.88911 22.7748 46 0 0
296 1 1 1 4.28231 4.22313 11.6051 24 0 0
297 1 1 1 15.5337 6.60472 9.65999 22 0 0
298 1 1 1 15.1832 1.36651 9.74304 21 0 0
299 1 1 1 16.9504 8.32602 19.0188 39 0 0
300 1 1 1 8.17624 3.369 27.5807 52 0 0
301 1 1 1 1.10888 9.52311 19.0305 42 0 0
302 1 1 1 14.8918 1.88762 34.5215 58 0 0
303 1 1 1 12.4562 2.75106 2.26067 1 0 0
304 1 1 1 1.3669 5.95627 10.9226 28 0 0
305 1 1 1 12.809 6.31802 4.45486 7 0 0
306 1 1 1 10.1706 1.56861 19.2854 37 1 0
307 1 1 1 18.7725 3.34165 9.66735 20 0 0
308 1 1 1 3.46862 8.98559 20.2071 42 -1 0
309 1 1 1 9.9372 7.96339 7.9064 15 0 0
310 1 1 1 5.39101 2.48413 11.314 24 0 0
311 1 1 1 18.0396 3.29841 16.9507 34 1 0
312 1 1 1 12.7208 5.16678 24.0071 46 0 0
313 1 1 1 17.2143 7.45902 1.20326 1 0 0
314 1 1 1 4.58387 5.40787 10.8151 20 0 0
315 1 1 1 1.65705 7.35157 24.4505 45 0 0
316 1 1 1 10.6254 0.463303 6.29236 14 0 0
317 1 1 1 3.89604 2.38243 26.9978 50 1 0
318 1 1 1 7.79796 3.71394 9.02985 15 0 0
319 1 1 1 6.07619 5.07946 13.2028 30 0 0
320 1 1 1 18.4761 5.21103 4.83009 4 0 0
321 1 1 1 13.267 2.05196 17.2853 34 1 0
322 1 1 1 11.5185 0.615652 34.0589 57 0 0
323 1 1 1 14.5387 4.50672 35.1714 58 0 0
324 1 1 1 4.90926 9.24623 30.1529 55 0 0
325 1 1 1 5.98932 4.56689 12.348 31 0 0
326 1 1 1 19.58 4.92308 15.5193 34 0 0
327 1 1 1 14.3073 8.94651 24.1722 47 0 0
328 1 1 1 11.3135 1.16883 8.32271 20 0 0
329 1 1 1 18.6224 6.19145 24.1961 45 0 0
330 1 1 1 13.1617 6.88717 3.70969 8 0 0
331 1 1 1 9.6411 8.65282 15.8012 32 0 0
332 1 1 1 7.58752 1.71688 2.76135 4 0 0
333 1 1 1 2.2321 2.1324 11.5658 27 0 0
334 1 1 1 12.279 0.797888 28.0233 51 0 0
335 1 1 1 11.8798 7.60961 31.863 55 0 0
336 1 1 1 13.9075 9.41837 11.734 22 -1 0
337 1 1 1 1.69415 8.57936 6.98761 16 0 0
338 1 1 1 19.005 3.11802 2.10315 0 0 0
339 1 1 1 5.9905 9.69561 32.086 57 0 0
340 1 1 1 14.5314 8.35578 18.2146 38 0 0
341 1 1 1 19.2028 5.78368 4.4423 11 0 0
342 1 1 1 8.52338 1.77557 9.59163 21 1 0
343 1 1 1 3.0433 5.91947 14.823 33 0 0
344 1 1 1 0.407796 8.61004 10.2799 22 0 0
345 1 1 1 13.1953 2.39987 2.84038 4 0 0
346 1 1 1 9.67387 1.0228 30.58 54 0 0
347 1 1 1 9.07736 6.39 20.2506 42 0 0
348 1 1 1 1.88849 4.10966 6.49811 10 1 0
349 1 1 1 18.8657 2.10411 6.74695 13 0 0
350 1 1 1 18.8649 5.19816 12.4801 26 0 0
351 1 1 1 7.26347 7.70511 7.42238 9 0 0
352 1 1 1 9.99354 4.57662 11.2199 24 0 0
353 1 1 1 14.872 7.90824 7.14738 14 0 0
354 1 1 1 18.7274 8.581 4.50823 4 0 0
355 1 1 1 11.1637 8.33549 25.197 48 0 0
356 1 1 1 2.95787 1.73563 10.7601 21 1 0
357 1 1 1 13.4426 5.93163 7.91008 13 0 0
358 1 1 1 7.20457 7.57506 10.5016 21 0 0
359 1 1 1 2.83176 6.7012 12.2624 28 0 0
360 1 1 1 4.02477 4.44542 4.15027 4 0 0
361 1 1 1 1.62159 2.78681 7.61902 20 0 0
362 1 1 1 8.46694 8.79011 3.42427 7 0 0
363 1 1 1 5.96004 8.65231 11.7464 28 0 0
364 1 1 1 16.6868 0.664516 10.8857 27 0 0
365 1 1 1 8.93862 0.930499 29.6368 54 1 0
366 1 1 1 6.96884 7.11015 9.53954 20 0 0
367 1 1 1 19.4344 8.10404 8.05112 17 0 0
368 1 1 1 4.29759 7.19941 13.8642 29 0 0
369 1 1 1 6.4067 7.58871 4.08727 5 0 0
370 1 1 1 14.5101 5.28453 12.9297 26 0 0
371 1 1 1 10.1717 9.57076 1.01148 0 0 0
372 1 1 1 18.3085 7.51788 26.1892 50 0 0
373 1 1 1 19.1131 8.63436 15.5027 32 0 0
374 1 1 1 12.4226 4.49697 33.4138 56 0 0
375 1 1 1 9.17981 3.42269 3.72325 7 0 0
376 1 1 1 9.26043 1.17361 1.27617 1 0 0
377 1 1 1 6.36939 5.91373 1.78437 3 0 0
378 1 1 1 15.1658 4.59684 14.4757 31 0 0
379 1 1 1 18.4138 2.1163 10.8831 25 0 0
380 1 1 1 2.38745 9.3291 9.22521 17 0 0
381 1 1 1 16.0669 8.53007 26.2295 49 0 0
382 1 1 1 13.5714 3.88071 34.7796 58 0 0
383 1 1 1 19.542 4.89345 29.3537 51 0 0
384 1 1 1 17.2369 4.34497 28.8804 51 0 0
385 1 1 1 0.881812 7.49841 21.7851 42 0 0
386 1 1 1 18.3318 3.60696 13.0311 30 0 0
387 1 1 1 4.92815 6.92163 30.8582 55 0 0
388 1 1 1 10.255 2.87219 8.70024 20 0 0
389 1 1 1 17.2449 2.41226 22.4127 44 0 0
390 1 1 1 3.57692 5.36595 26.7855 50 0 0
391 1 1 1 6.4646 1.14968 14.5022 28 1 0
392 1 1 1 0.306833 6.18022 11.5124 26 0 0
393 1 1 1 3.05416 2.21934 32.0948 55 0 0
394 1 1 1 1.72953 4.52327 14.816 29 0 0
395 1 1 1 7.57535 9.17222 28.9915 52 0 0
396 1 1 1 5.37165 0.979025 10.2921 23 0 0
397 1 1 1 17.9933 1.77631 1.67239 1 0 0
398 1 1 1 0.866842 6.77739 4.08672 8 0 0
399 1 1 1 2.80031 5.20292 33.0145 56 0 0
400 1 1 1 0.254284 2.84394 2.52772 6 0 0
401 1 1 1 0.751565 9.27282 30.9805 55 0 0
402 1 1 1 16.2015 4.98756 20.4251 42 0 0
403 1 1 1 12.347 5.53556 4.03734 12 0 0
404 1 1 1 0.944438 6.03445 29.1689 53 0 0
405 1 1 1 12.7052 6.12996 22.3418 44 0 0
406 1 1 1 9.1805 0.513786 6.68783 10 1 0
407 1 1 1 14.0031 2.76466 16.9817 35 0 0
408 1 1 1 2.62048 2.47789 5.50194 10 0 0
409 1 1 1 13.0114 6.6025 5.45598 7 0 0
410 1 1 1 7.06277 8.53124 1.01408 0 0 0
411 1 1 1 18.1574 7.35335 20.511 42 0 0
412 1 1 1 3.1339 6.15741 24.8072 48 0 0
413 1 1 1 0.66627 8.33078 4.96441 14 -1 0
414 1 1 1 1.94486 4.15351 15.7295 34 0 0
415 1 1 1 7.22815 0.892903 19.4545 41 0 0
416 1 1 1 18.2951 9.26284 19.9843 41 0 0
417 1 1 1 7.92451 5.83097 11.9661 27 0 0
418 1 1 1 0.0875229 3.412 13.3825 29 0 0
419 1 1 1 4.88813 3.89463 27.5412 52 0 0
420 1 1 1 4.30732 9.74738 31.5681 57 -1 0
421 1 1 1 3.69281 4.5051 8.5262 15 0 0
422 1 1 1 7.72622 0.0290589 25.8468 48 0 0
423 1 1 1 5.9362 4.09683 4.93291 8 0 0
424 1 1 1 12.8122 1.79478 28.7334 51 0 0
425 1 1 1 10.1019 8.22882 6.86209 22 0 0
426 1 1 1 2.76939 4.70883 10.7793 24 0 0
427 1 1 1 11.8607 3.25151 33.684 56 0 0
428 1 1 1 9.43205 0.524479 11.9306 24 1 0
429 1 1 1 19.6832 9.12357 10.739 20 0 0
430 1 1 1 6.66288 6.3017 15.7696 33 0 0
431 1 1 1 1.26235 7.8056 7.45155 17 0 0
432 1 1 1 3.38355 7.55959 9.31927 19 0 0
433 1 1 1 7.47877 3.25884 2.59547 1 0 0
434 1 1 1 11.5023 4.95817 20.0292 41 0 0
435 1 1 1 8.06746 5.54588 23.4687 44 0 0
436 1 1 1 1.32316 1.06714 8.22591 18 0 0
437 1 1 1 14.1085 6.10014 12.4887 27 0 0
438 1 1 1 11.396 7.06448 19.8357 41 0 0
439 1 1 1 2.70873 7.40907 15.8777 37 0 0
440 1 1 1 0.835788 6.72429 31.9882 56 0 0
441 1 1 1 7.06702 4.54964 4.53706 9 0 0
442 1 1 1 8.73279 0.267707 12.5969 27 1 0
443 1 1 1 11.8258 1.63828 6.45235 10 0 0
444 1 1 1 15.8204 1.75843 24.4935 46 0 0
445 1 1 1 4.8521 2.25554 15.3407 30 1 0
446 1 1 1 3.80879 2.63597 6.81447 12 0 0
447 1 1 1 16.3142 8.76553 11.1396 20 0 0
448 1 1 1 7.36936 0.46831 18.5358 36 1 0
449 1 1 1 19.8618 7.82669 19.1375 37 0 0
450 1 1 1 4.86563 5.35737 24.5141 47 0 0
451 1 1 1 10.3025 1.47521 9.39505 19 0 0
452 1 1 1 2.65383 5.33704 13.6529 25 0 0
453 1 1 1 10.1974 4.10066 1.6262 2 0 0
454 1 1 1 6.93192 5.78159 27.7715 52 0 0
455 1 1 1 4.12514 3.7004 5.3781 7 0 0
456 1 1 1 5.56751 1.60534 23.0688 46 0 0
457 1 1 1 3.61445 2.99093 8.50005 19 0 0
458 1 1 1 8.69061 5.81534 21.7717 45 0 0
459 1 1 1 16.8909 7.9339 8.43683 19 0 0
460 1 1 1 0.565516 2.54169 20.0763 38 1 0
461 1 1 1 10.5261 9.44473 17.0229 35 0 0
462 1 1 1 6.31801 7.4743 7.19128 20 0 0
463 1 1 1 10.9539 0.725991 9.14407 24 0 0
464 1 1 1 18.9494 4.58149 24.883 47 0 0
465 1 1 1 13.6642 8.44809 11.7175 27 0 0
466 1 1 1 14.5239 9.84484 19.5035 43 0 0
467 1 1 1 16.582 0.956216 33.7 55 0 0
468 1 1 1 10.8982 1.10503 24.1334 47 0 0
469 1 1 1 2.14467 2.66535 16.8971 35 0 0
470 1 1 1 16.7165 9.13922 13.3349 30 0 0
471 1 1 1 13.1835 8.5734 9.58421 22 0 0
472 1 1 1 1.81074 6.44731 4.02483 9 0 0
473 1 1 1 2.3654 7.4806 2.36677 7 0 0
474 1 1 1 12.0348 6.72102 5.12811 9 0 0
475 1 1 1 1.77853 0.842324 1.75521 3 1 0
476 1 1 1 7.50348 0.567159 21.209 43 0 0
477 1 1 1 12.9116 1.26366 31.0011 54 0 0
478 1 1 1 15.2078 2.14486 29.6857 53 0 0
479 1 1 1 2.83718 5.63327 2.49877 8 0 0
480 1 1 1 14.4978 7.59273 13.6878 30 0 0
481 1 1 1 4.60793 2.61306 9.90881 21 0 0
482 1 1 1 8.73522 6.2725 19.3185 38 0 0
483 1 1 1 0.546738 2.80401 7.68387 17 0 0
484 1 1 1 5.85288 8.62899 15.4692 34 0 0
485 1 1 1 7.49283 2.1036 14.6534 36 1 0
486 1 1 1 17.3703 4.7623 21.5067 43 0 0
487 1 1 1 4.32519 2.85646 7.80202 15 1 0
488 1 1 1 5.71398 2.48083 32.1555 55 0 0
489 1 1 1 3.06242 2.17154 18.067 40 1 0
490 1 1 1 19.66 6.15742 2.78202 1 0 0
491 1 1 1 1.49128 2.762 1.31419 1 0 0
492 1 1 1 12.9807 1.87526 23.4884 45 0 0
493 1 1 1 4.26572 2.73238 5.59307 11 1 0
494 1 1 1 8.28598 4.81212 16.0473 33 0 0
495 1 1 1 1.58721 8.07118 12.4636 28 0 0
496 1 1 1 11.7693 7.98341 11.7086 20 0 0
497 1 1 1 0.623404 2.93607 4.7069 7 0 0
498 1 1 1 15.462 3.00421 23.5997 43 0 0
499 1 1 1 13.0213 2.92489 16.864 36 0 0
500 1 1 1 16.6826 8.74878 2.81689 3 0 0
501 1 1 1 1.86381 9.10268 8.32981 20 0 0
502 1 1 1 6.92849 6.8826 2.1255 8 0 0
503 1 1 1 2.63673 2.71346 3.6689 9 0 0
504 1 1 1 13.8025 0.4509 5.14955 13 1 0
505 1 1 1 11.7192 7.11416 5.99697 8 0 0
506 1 1 1 18.994 1.97234 20.6894 42 0 0
507 1 1 1 7.11961 0.499774 4.65993 6 1 0
508 1 1 1 5.88523 0.160351 10.5496 17 1 0
509 1 1 1 0.17879 9.39397 23.2502 46 0 0
510 1 1 1 7.73618 3.9035 20.3233 42 0 0
511 1 1 1 2.10776 4.28972 1.72229 1 0 0
512 1 1 1 0.487655 0.119656 8.17122 17 1 0
513 1 1 1 1.9368 0.573056 20.134 41 0 0
514 1 1 1 6.88903 2.43059 12.5797 28 0 0
515 1 1 1 9.87206 5.83462 20.4984 40 0 0
516 1 1 1 17.4829 8.82504 30.9228 53 0 0
517 1 1 1 19.8313 4.02225 15.1654 32 0 0
518 1 1 1 3.6617 5.12074 10.5154 28 0 0
519 1 1 1 16.2835 5.6148 1.49742 5 0 0
520 1 1 1 3.42711 5.95097 8.41252 22 0 0
521 1 1 1 3.79505 0.660311 21.2504 40 0 0
522 1 1 1 12.8528 8.3599 35.2631 58 -1 0
523 1 1 1 12.3004 1.00623 1.85931 2 0 0
524 1 1 1 14.3582 7.79144 20.2235 42 0 0
525 1 1 1 18.0579 8.78586 6.85989 14 0 0
526 1 1 1 13.0898 5.28977 24.9281 49 0 0
527 1 1 1 6.58889 2.44239 14.394 31 0 0
528 1 1 1 7.79314 3.88711 28.3452 52 0 0
529 1 1 1 16.9256 2.86122 18.7367 38 0 0
530 1 1 1 6.37451 1.13599 20.6472 44 1 0
531 1 1 1 11.7582 6.67889 17.9154 30 0 0
532 1 1 1 5.13376 6.36803 33.6958 56 0 0
533 1 1 1 13.3038 8.77166 5.19872 9 0 0
534 1 1 1 19.6746 7.49461 9.9614 16 0 0
535 1 1 1 14.6792 8.60982 20.7033 41 0 0
536 1 1 1 0.103327 2.81242 20.9207 44 0 0
537 1 1 1 6.00283 3.48215 25.5274 46 0 0
538 1 1 1 2.61683 3.86472 16.5496 38 0 0
539 1 1 1 13.8895 9.62795 15.4054 29 0 0
540 1 1 1 14.4331 3.83647 35.9418 59 0 0
541 1 1 1 16.3722 5.88133 28.7646 51 0 0
542 1 1 1 17.9818 4.35048 4.69978 10 0 0
543 1 1 1 18.0227 4.57657 6.62794 11 0 0
544 1 1 1 2.95256 4.997 8.06715 23 0 0
545 1 1 1 6.32662 7.31264 26.8153 50 0 0
546 1 1 1 8.86755 0.238363 26.9256 49 0 0
547 1 1 1 5.74914 0.779774 5.25255 13 0 0
548 1 1 1 0.310628 0.794256 2.87663 11 1 0
549 1 1 1 19.3893 2.30037 11.0141 24 0 0
550 1 1 1 18.6646 1.50168 5.51733 12 0 0
551 1 1 1 6.72173 1.06543 23.5468 49 0 0
552 1 1 1 13.0195 5.27407 35.947 58 0 0
553 1 1 1 8.01719 7.10163 16.0609 34 0 0
554 1 1 1 0.512592 6.06 16.9378 36 0 0
555 1 1 1 8.92833 4.91709 23.7868 46 0 0
556 1 1 1 2.61308 8.50692 1.42047 3 0 0
557 1 1 1 1.09174 6.41665 7.00941 19 0 0
558 1 1 1 12.434 9.08544 6.77353 17 0 0
559 1 1 1 17.1492 5.20602 8.13711 14 0 0
560 1 1 1 11.9877 3.1074 15.131 30 0 0
561 1 1 1 8.96873 8.45445 12.3077 22 0 0
562 1 1 1 7.34504 1.39359 33.6433 57 0 0
563 1 1 1 15.997 5.59386 6.95523 9 0 0
564 1 1 1 0.781811 6.45447 27.3094 53 0 0
565 1 1 1 8.6437 3.43664 20.5976 43 0 0
566 1 1 1 1.20994 0.640004 9.12288 21 0 0
567 1 1 1 11.6057 1.44788 11.884 24 0 0
568 1 1 1 15.1257 0.258584 32.0466 52 1 0
569 1 1 1 18.7942 1.27115 34.1859 57 0 0
570 1 1 1 14.9418 4.90362 17.2456 38 0 0
571 1 1 1 16.2303 0.318056 6.62943 17 1 0
572 1 1 1 12.8601 3.97703 30.421 52 0 0
573 1 1 1 4.69458 0.349876 2.67902 3 1 0
574 1 1 1 13.6389 1.36373 17.9503 35 1 0
575 1 1 1 5.76744 8.06337 8.03781 14 0 0
576 1 1 1 4.34 9.30347 8.99891 24 -1 0
577 1 1 1 14.2642 1.39159 2.22699 1 1 0
578 1 1 1 4.05269 2.07448 10.5575 21 1 0
579 1 1 1 7.17715 8.99663 12.5657 29 0 0
580 1 1 1 18.2781 9.91607 13.824 32 0 0
581 1 1 1 17.8037 0.450453 4.45016 10 1 0
582 1 1 1 5.42822 1.47832 18.9796 39 0 0
583 1 1 1 2.85309 4.15832 14.9043 33 0 0
584 1 1 1 16.7586 6.48931 1.37425 1 0 0
585 1 1 1 1.43835 2.73507 11.7026 26 0 0
586 1 1 1 4.34798 4.13979 16.1352 38 0 0
587 1 1 1 6.15638 3.64498 16.5301 36 0 0
588 1 1 1 15.0352 5.34075 5.27936 9 0 0
589 1 1 1 18.3567 3.94395 11.1978 26 0 0
590 1 1 1 19.0349 0.108903 1.98733 2 1 0
591 1 1 1 17.5493 5.54391 10.5723 27 0 0
592 1 1 1 16.9264 7.14764 7.82039 17 0 0
593 1 1 1 3.22401 7.44856 16.8594 37 0 0
594 1 1 1 16.0302 0.256373 34.6716 57 0 0
595 1 1 1 4.28288 5.99794 9.93521 18 0 0
596 1 1 1 3.80638 2.90345 28.8195 51 0 0
597 1 1 1 3.99885 0.769041 17.0202 37 0 0
598 1 1 1 13.552 7.90997 2.72899 1 0 0
599 1 1 1 9.28539 4.07499 2.97263 1 0 0
600 1 1 1 14.447 5.60403 9.42965 21 0 0
601 1 1 1 17.3182 7.4264 25.5761 48 0 0
602 1 1 1 3.59203 9.54824 4.42043 8 0 0
603 1 1 1 18.8801 2.47865 32.2889 55 0 0
604 1 1 1 13.2592 4.21147 3.82302 5 0 0
605 1 1 1 6.53011 6.35471 20.5322 41 0 0
606 1 1 1 2.74045 2.86713 9.95059 22 0 0
607 1 1 1 9.05999 1.29325 20.6491 39 0 0
608 1 1 1 12.4508 5.92522 10.4918 20 0 0
609 1 1 1 16.257 7.24209 25.5897 48 0 0
610 1 1 1 12.5174 0.977053 16.0562 31 1 0
611 1 1 1 8.51061 4.36902 31.4121 55 0 0
612 1 1 1 17.2603 5.79574 24.0749 45 0 0
613 1 1 1 19.7132 1.93296 9.66946 18 0 0
614 1 1 1 3.41813 3.16338 30.6858 54 0 0
615 1 1 1 15.1927 8.67129 8.02099 16 0 0
616 1 1 1 18.1717 9.3848 4.27345 10 0 0
617 1 1 1 11.2713 5.21703 2.53061 4 0 0
618 1 1 1 18.0121 4.19809 22.205 42 0 0
619 1 1 1 16.3116 6.0628 31.8209 56 0 0
620 1 1 1 4.91282 7.23743 2.36392 2 -1 0
621 1 1 1 13.4198 6.35627 2.45464 2 0 0
622 1 1 1 14.8737 6.08357 10.2011 27 0 0
623 1 1 1 14.7863 2.14015 1.68309 2 0 0
624 1 1 1 12.4259 8.17203 10.847 22 0 0
625 1 1 1 6.40034 4.48504 16.0448 33 0 0
626 1 1 1 8.386 4.11952 5.9283 10 0 0
627 1 1 1 19.5173 7.26596 15.1473 33 0 0
628 1 1 1 11.049 3.98512 14.862 30 0 0
629 1 1 1 7.11261 6.88847 4.43601 12 0 0
630 1 1 1 14.3589 1.65974 32.1739 54 1 0
631 1 1 1 11.153 7.07615 9.2971 21 0 0
632 1 1 1 3.98658 5.58778 19.2638 41 0 0
633 1 1 1 5.69948 1.17091 21.3839 43 1 0
634 1 1 1 19.7395 8.26139 3.63965 6 0 0
635 1 1 1 17.1131 7.02474 29.6984 52 0 0
636 1 1 1 17.0356 1.51572 9.03478 20 0 0
637 1 1 1 14.6541 8.75616 12.4047 24 0 0
638 1 1 1 17.9699 1.54887 36.8086 58 0 0
639 1 1 1 0.441067 6.07828 10.5016 24 0 0
640 1 1 1 9.89004 5.79352 19.4957 42 0 0
641 1 1 1 13.649 2.92036 11.3638 26 0 0
642 1 1 1 10.0054 9.35801 3.61792 12 0 0
643 1 1 1 10.6656 6.24294 28.1161 52 0 0
644 1 1 1 17.7788 6.08739 7.16778 15 0 0
645 1 1 1 6.98103 8.45735 18.0677 40 0 0
646 1 1 1 11.8621 5.85263 16.6586 36 0 0
647 1 1 1 10.5622 2.43622 6.12084 14 0 0
648 1 1 1 11.6608 1.76267 20.2965 41 0 0
649 1 1 1 16.5957 1.76976 14.0524 33 1 0
650 1 1 1 15.2748 2.79409 15.0204 32 0 0
651 1 1 1 2.4704 9.33547 31.4651 55 -1 0
652 1 1 1 14.6625 4.63264 26.8368 50 0 0
653 1 1 1 13.2372 3.23039 13.3439 30 0 0
654 1 1 1 11.073 7.60696 5.0042 9 0 0
655 1 1 1 7.89502 7.44411 4.93887 9 0 0
656 1 1 1 18.1701 7.85456 8.51156 17 0 0
657 1 1 1 2.86332 6.45364 9.0678 23 0 0
658 1 1 1 18.2994 2.36731 18.7088 41 0 0
659 1 1 1 16.5448 9.19538 16.4235 30 0 0
660 1 1 1 3.51644 4.72746 9.51126 21 0 0
661 1 1 1 4.44303 6.73419 23.0849 44 0 0
662 1 1 1 2.21743 5.01382 30.0109 55 0 0
663 1 1 1 7.78833 3.57031 26.68 48 0 0
664 1 1 1 4.91269 6.62594 17.0148 38 0 0
665 1 1 1 3.12998 3.77317 5.30091 12 0 0
666 1 1 1 8.26994 6.97688 18.0302 38 0 0
667 1 1 1 1.30916 6.04392 35.1641 58 0 0
668 1 1 1 7.46331 0.312395 16.594 36 1 0
669 1 1 1 18.1444 1.78402 20.1968 39 0 0
670 1 1 1 12.4173 6.58065 13.9335 29 0 0
671 1 1 1 16.7398 6.21796 16.5436 36 0 0
672 1 1 1 7.70851 7.76134 3.1705 4 0 0
673 1 1 1 5.67065 6.21389 18.9153 40 0 0
674 1 1 1 14.9165 2.98808 16.6285 35 1 0
675 1 1 1 9.13855 5.2484 1.60109 2 0 0
676 1 1 1 16.2946 3.49667 4.24958 3 0 0
677 1 1 1 12.8396 3.12864 5.28434 9 1 0
678 1 1 1 10.98 6.95584 2.21129 2 0 0
679 1 1 1 11.5598 5.42528 26.2204 48 0 0
680 1 1 1 18.3129 0.707533 21.9183 44 1 0
681 1 1 1 4.17995 3.11246 33.8448 57 0 0
682 1 1 1 9.50903 8.0327 14.0793 30 0 0
683 1 1 1 6.01428 1.73216 30.8715 54 0 0
684 1 1 1 7.41431 2.74981 26.2437 50 0 0
685 1 1 1 19.8643 6.91144 16.016 33 0 0
686 1 1 1 17.6717 6.51614 14.7603 30 0 0
687 1 1 1 18.5545 4.85879 2.95715 1 0 0
688 1 1 1 5.45342 9.32738 12.2821 22 0 0
689 1 1 1 14.6596 5.74023 19.408 40 0 0
690 1 1 1 15.401 5.08426 8.78583 19 0 0
691 1 1 1 14.3395 3.16897 1.79231 2 0 0
692 1 1 1 10.0897 3.45528 24.8334 45 0 0
693 1 1 1 13.2968 3.63432 2.86527 9 0 0
694 1 1 1 9.51818 8.75851 21.7001 45 0 0
695 1 1 1 13.9982 2.46354 22.4675 43 0 0
696 1 1 1 3.72596 4.0981 20.3573 41 0 0
697 1 1 1 7.93131 8.75528 6.17075 16 0 0
698 1 1 1 16.2936 1.29416 20.7669 42 0 0
699 1 1 1 19.5246 4.75317 10.204 26 0 0
700 1 1 1 14.1504 9.95687 10.4115 22 0 0
701 1 1 1 11.1221 6.0181 17.513 34 0 0
702 1 1 1 11.8916 0.433235 7.85523 16 1 0
703 1 1 1 13.7813 1.09009 6.79396 11 1 0
704 1 1 1 19.087 7.8684 17.347 35 0 0
705 1 1 1 16.5149 9.52213 23.9387 46 0 0
706 1 1 1 2.53837 0.318104 33.5319 57 0 0
707 1 1 1 3.22793 3.815 26.0271 47 0 0
708 1 1 1 8.69442 0.321211 32.1598 55 0 0
709 1 1 1 17.6822 1.25039 2.46479 2 0 0
710 1 1 1 10.3652 6.24383 1.83633 2 0 0
711 1 1 1 10.7247 5.53802 25.4862 48 0 0
712 1 1 1 16.1183 8.3301 13.3262 26 0 0
713 1 1 1 15.9103 3.5055 5.17345 6 1 0
714 1 1 1 14.2953 3.81537 3.58522 2 0 0
715 1 1 1 16.5146 0.691327 9.34589 17 1 0
716 1 1 1 14.5606 6.74507 4.55867 13 0 0
717 1 1 1 11.6413 0.563404 15.8033 32 1 0
718 1 1 1 13.5724 4.77135 6.2292 11 0 0
719 1 1 1 8.48126 6.80706 26.6928 52 0 0
720 1 1 1 15.8945 0.0245454 12.9033 30 1 0
721 1 1 1 15.4346 1.74031 17.959 38 0 0
722 1 1 1 3.83932 8.61258 21.2716 43 0 0
723 1 1 1 1.3973 8.53415 17.5564 36 0 0
724 1 1 1 0.309382 7.08301 6.09293 15 0 0
725 1 1 1 13.9445 8.48599 25.5195 49 0 0
726 1 1 1 7.3173 2.87449 23.7454 45 0 0
727 1 1 1 4.57633 3.01309 13.9751 27 0 0
728 1 1 1 16.0651 7.45896 16.7507 35 0 0
729 1 1 1 4.71068 5.61846 17.3457 38 0 0
730 1 1 1 13.8665 0.536524 7.62621 11 1 0
731 1 1 1 10.631 3.58713 16.4526 33 0 0
732 1 1 1 17.6421 4.33344 8.05488 14 0 0
733 1 1 1 4.41781 9.10944 18.4738 37 0 0
734 1 1 1 9.18443 5.16257 11.2535 22 0 0
735 1 1 1 16.2215 7.51864 2.61049 4 0 0
736 1 1 1 3.55028 6.0259 12.0981 23 0 0
737 1 1 1 18.6335 5.58896 8.86486 17 0 0