Created with h2.pl

32000 atoms
2 atom types

0.000000 41.911791 xlo xhi
0.000000 41.911791 ylo yhi
0.000000 41.911791 zlo zhi

Masses

1 1.007940
2 1.000000

Atoms

1	1	1.0	0.0	0.0	0.0767938	0.815192	1.04533
2	1	1.0	0.0	0.0	0.0685288	0.750933	2.15729
3	1	1.0	0.0	0.0	0.0678078	0.767152	4.29497
4	1	1.0	0.0	0.0	0.05756	0.770453	5.37715
5	1	1.0	0.0	0.0	0.0352449	0.803626	7.51774
6	1	1.0	0.0	0.0	0.0731204	0.772896	8.59473
7	1	1.0	0.0	0.0	0.0392053	0.783662	10.72
8	1	1.0	0.0	0.0	0.0716733	0.799909	11.8251
9	1	1.0	0.0	0.0	0.0700399	0.801065	13.9562
10	1	1.0	0.0	0.0	0.03785	0.794415	15.0727
11	1	1.0	0.0	0.0	0.062879	0.810694	17.1993
12	1	1.0	0.0	0.0	0.0663827	0.802912	18.2516
13	1	1.0	0.0	0.0	0.0462874	0.77729	20.4069
14	1	1.0	0.0	0.0	0.0876656	0.7997	21.5099
15	1	1.0	0.0	0.0	0.0566065	0.84078	23.609
16	1	1.0	0.0	0.0	0.0488851	0.813828	24.7302
17	1	1.0	0.0	0.0	0.0756522	0.800579	26.8621
18	1	1.0	0.0	0.0	0.0515158	0.801131	27.9716
19	1	1.0	0.0	0.0	0.0740176	0.817177	30.0921
20	1	1.0	0.0	0.0	0.0565628	0.788642	31.1577
21	1	1.0	0.0	0.0	0.0697851	0.78393	33.3257
22	1	1.0	0.0	0.0	0.0427846	0.833828	34.4122
23	1	1.0	0.0	0.0	0.0302804	0.803369	36.5394
24	1	1.0	0.0	0.0	0.0980336	0.807292	37.6333
25	1	1.0	0.0	0.0	0.0743548	0.807578	39.7609
26	1	1.0	0.0	0.0	0.0462504	0.788129	40.8323
27	1	1.0	0.0	0.0	0.0805315	2.41548	1.07539
28	1	1.0	0.0	0.0	0.0349179	2.40814	2.14772
29	1	1.0	0.0	0.0	0.0732483	2.42375	4.30469
30	1	1.0	0.0	0.0	0.0480343	2.4261	5.38296
31	1	1.0	0.0	0.0	0.0904158	2.45429	7.54419
32	1	1.0	0.0	0.0	0.0519562	2.39341	8.62977
33	1	1.0	0.0	0.0	0.0941817	2.40775	10.7552
34	1	1.0	0.0	0.0	0.0472107	2.43229	11.8317
35	1	1.0	0.0	0.0	0.0450062	2.42424	13.9513
36	1	1.0	0.0	0.0	0.073193	2.3893	15.059
37	1	1.0	0.0	0.0	0.0655959	2.46739	17.1907
38	1	1.0	0.0	0.0	0.0410423	2.4162	18.2843
39	1	1.0	0.0	0.0	0.0934989	2.43609	20.4088
40	1	1.0	0.0	0.0	0.0228309	2.43348	21.488
41	1	1.0	0.0	0.0	0.0733856	2.40017	23.6244
42	1	1.0	0.0	0.0	0.038842	2.3985	24.7622
43	1	1.0	0.0	0.0	0.0612444	2.40612	26.8621
44	1	1.0	0.0	0.0	0.0642683	2.42877	27.9584
45	1	1.0	0.0	0.0	0.0575979	2.44841	30.057
46	1	1.0	0.0	0.0	0.0785551	2.41835	31.1885
47	1	1.0	0.0	0.0	0.0296881	2.43856	33.2839
48	1	1.0	0.0	0.0	0.0854031	2.4538	34.3953
49	1	1.0	0.0	0.0	0.0697602	2.46465	36.4968
50	1	1.0	0.0	0.0	0.0342314	2.46794	37.6304
51	1	1.0	0.0	0.0	0.0608436	2.41546	39.7487
52	1	1.0	0.0	0.0	0.0741537	2.42108	40.8408
53	1	1.0	0.0	0.0	0.0579256	4.06302	1.0756
54	1	1.0	0.0	0.0	0.0595012	4.01904	2.18159
55	1	1.0	0.0	0.0	0.0843264	4.04159	4.25843
56	1	1.0	0.0	0.0	0.0594372	4.05159	5.36502
57	1	1.0	0.0	0.0	0.0872113	4.06227	7.5058
58	1	1.0	0.0	0.0	0.0492677	4.01741	8.61526
59	1	1.0	0.0	0.0	0.0521343	4.07066	10.7044
60	1	1.0	0.0	0.0	0.0667712	4.09739	11.8256
61	1	1.0	0.0	0.0	0.092437	4.04581	13.9434
62	1	1.0	0.0	0.0	0.0462771	4.02231	15.0452
63	1	1.0	0.0	0.0	0.0453346	4.01706	17.1455
64	1	1.0	0.0	0.0	0.0764702	4.0372	18.255
65	1	1.0	0.0	0.0	0.066796	3.99858	20.4169
66	1	1.0	0.0	0.0	0.0810622	4.01593	21.503
67	1	1.0	0.0	0.0	0.0270194	4.02119	23.6425
68	1	1.0	0.0	0.0	0.129972	3.98303	24.717
69	1	1.0	0.0	0.0	0.0660316	4.08053	26.8431
70	1	1.0	0.0	0.0	0.0554151	4.05956	27.9691
71	1	1.0	0.0	0.0	0.0331496	4.03109	30.0722
72	1	1.0	0.0	0.0	0.0685531	4.01942	31.1911
73	1	1.0	0.0	0.0	0.0647122	3.9965	33.3102
74	1	1.0	0.0	0.0	0.0633335	4.0221	34.4131
75	1	1.0	0.0	0.0	0.0575336	4.00592	36.5198
76	1	1.0	0.0	0.0	0.0874446	4.00758	37.6371
77	1	1.0	0.0	0.0	0.0649825	4.03778	39.7598
78	1	1.0	0.0	0.0	0.0211202	4.04091	40.8677
79	1	1.0	0.0	0.0	0.0589884	5.67272	1.05858
80	1	1.0	0.0	0.0	0.0656827	5.62385	2.13262
81	1	1.0	0.0	0.0	0.0664941	5.63306	4.29791
82	1	1.0	0.0	0.0	0.0724446	5.64945	5.37851
83	1	1.0	0.0	0.0	0.0562778	5.64459	7.5289
84	1	1.0	0.0	0.0	0.0723431	5.58806	8.59745
85	1	1.0	0.0	0.0	0.0527041	5.60573	10.7029
86	1	1.0	0.0	0.0	0.0544703	5.64824	11.8197
87	1	1.0	0.0	0.0	0.0403109	5.62508	13.9628
88	1	1.0	0.0	0.0	0.0899229	5.62544	15.0345
89	1	1.0	0.0	0.0	0.064155	5.6231	17.1953
90	1	1.0	0.0	0.0	0.0668444	5.62917	18.3049
91	1	1.0	0.0	0.0	0.0498313	5.65376	20.4164
92	1	1.0	0.0	0.0	0.0393431	5.66327	21.5166
93	1	1.0	0.0	0.0	0.089975	5.65024	23.6552
94	1	1.0	0.0	0.0	0.0206191	5.6574	24.7272
95	1	1.0	0.0	0.0	0.032568	5.59116	26.8477
96	1	1.0	0.0	0.0	0.0981304	5.63003	27.9562
97	1	1.0	0.0	0.0	0.0754347	5.62899	30.0501
98	1	1.0	0.0	0.0	0.0458923	5.64932	31.1669
99	1	1.0	0.0	0.0	0.0360748	5.63381	33.3063
100	1	1.0	0.0	0.0	0.070001	5.65965	34.3924
101	1	1.0	0.0	0.0	0.069732	5.65584	36.5601
102	1	1.0	0.0	0.0	0.0433697	5.64332	37.6034
103	1	1.0	0.0	0.0	0.0547209	5.63915	39.7188
104	1	1.0	0.0	0.0	0.085181	5.63992	40.8279
105	1	1.0	0.0	0.0	0.0430827	7.24268	1.07702
106	1	1.0	0.0	0.0	0.056774	7.25743	2.15892
107	1	1.0	0.0	0.0	0.0831465	7.25068	4.3132
108	1	1.0	0.0	0.0	0.0348686	7.24299	5.37055
109	1	1.0	0.0	0.0	0.070796	7.27894	7.51388
110	1	1.0	0.0	0.0	0.0425406	7.24341	8.58518
111	1	1.0	0.0	0.0	0.0621815	7.21888	10.7504
112	1	1.0	0.0	0.0	0.075377	7.25819	11.8321
113	1	1.0	0.0	0.0	0.0525182	7.2494	13.9632
114	1	1.0	0.0	0.0	0.0677832	7.26915	15.0589
115	1	1.0	0.0	0.0	0.043455	7.27523	17.1824
116	1	1.0	0.0	0.0	0.0794527	7.23238	18.2664
117	1	1.0	0.0	0.0	0.0333884	7.24645	20.3668
118	1	1.0	0.0	0.0	0.0682137	7.27052	21.4856
119	1	1.0	0.0	0.0	0.0339298	7.27042	23.6209
120	1	1.0	0.0	0.0	0.0323148	7.26814	24.7244
121	1	1.0	0.0	0.0	0.0629859	7.25473	26.8921
122	1	1.0	0.0	0.0	0.0580749	7.25494	27.9624
123	1	1.0	0.0	0.0	0.0466946	7.25054	30.0957
124	1	1.0	0.0	0.0	0.0330353	7.26034	31.1606
125	1	1.0	0.0	0.0	0.0846051	7.23889	33.2875
126	1	1.0	0.0	0.0	0.0379837	7.27301	34.3868
127	1	1.0	0.0	0.0	0.0722346	7.28894	36.5431
128	1	1.0	0.0	0.0	0.0694294	7.28052	37.6308
129	1	1.0	0.0	0.0	0.0671456	7.24691	39.7668
130	1	1.0	0.0	0.0	0.0356612	7.24198	40.8826
131	1	1.0	0.0	0.0	0.0403033	8.87722	1.06549
132	1	1.0	0.0	0.0	0.0808349	8.87211	2.15374
133	1	1.0	0.0	0.0	0.0755165	8.88006	4.31173
134	1	1.0	0.0	0.0	0.0534621	8.89685	5.36146
135	1	1.0	0.0	0.0	0.0917022	8.86103	7.53644
136	1	1.0	0.0	0.0	0.0593404	8.84835	8.61082
137	1	1.0	0.0	0.0	0.0703398	8.87079	10.7356
138	1	1.0	0.0	0.0	0.0307429	8.89165	11.8137
139	1	1.0	0.0	0.0	0.0608499	8.87161	13.9438
140	1	1.0	0.0	0.0	0.0509592	8.87262	15.0532
141	1	1.0	0.0	0.0	0.0987051	8.8737	17.2106
142	1	1.0	0.0	0.0	0.0405011	8.86573	18.2759
143	1	1.0	0.0	0.0	0.0955457	8.84505	20.4183
144	1	1.0	0.0	0.0	0.0349204	8.85964	21.5139
145	1	1.0	0.0	0.0	0.0349033	8.83898	23.6348
146	1	1.0	0.0	0.0	0.0931378	8.83895	24.731
147	1	1.0	0.0	0.0	0.0304181	8.89088	26.8638
148	1	1.0	0.0	0.0	0.0851617	8.86161	27.9468
149	1	1.0	0.0	0.0	0.0715143	8.8813	30.0902
150	1	1.0	0.0	0.0	0.0667061	8.87357	31.1705
151	1	1.0	0.0	0.0	0.0845044	8.85673	33.2931
152	1	1.0	0.0	0.0	0.045564	8.90427	34.4212
153	1	1.0	0.0	0.0	0.0509176	8.86753	36.5078
154	1	1.0	0.0	0.0	0.0640977	8.87075	37.6273
155	1	1.0	0.0	0.0	0.0397592	8.87384	39.7592
156	1	1.0	0.0	0.0	0.0936161	8.84019	40.8233
157	1	1.0	0.0	0.0	0.0796508	10.4772	1.07184
158	1	1.0	0.0	0.0	0.0355357	10.4782	2.15238
159	1	1.0	0.0	0.0	0.0680574	10.4614	4.27788
160	1	1.0	0.0	0.0	0.0710765	10.5313	5.39526
161	1	1.0	0.0	0.0	0.0058006	10.5163	7.52506
162	1	1.0	0.0	0.0	0.0972361	10.5105	8.598
163	1	1.0	0.0	0.0	0.0426899	10.4723	10.7155
164	1	1.0	0.0	0.0	0.0819903	10.4945	11.8094
165	1	1.0	0.0	0.0	0.0951293	10.4749	13.9716
166	1	1.0	0.0	0.0	0.0566539	10.4597	15.0476
167	1	1.0	0.0	0.0	0.059223	10.4774	17.1759
168	1	1.0	0.0	0.0	0.0856987	10.4771	18.2748
169	1	1.0	0.0	0.0	0.0265652	10.4821	20.411
170	1	1.0	0.0	0.0	0.106465	10.4677	21.5217
171	1	1.0	0.0	0.0	0.0715722	10.4818	23.6468
172	1	1.0	0.0	0.0	0.0362207	10.4838	24.7012
173	1	1.0	0.0	0.0	0.114255	10.4868	26.8408
174	1	1.0	0.0	0.0	0.0389844	10.466	27.9392
175	1	1.0	0.0	0.0	0.0653244	10.5149	30.0835
176	1	1.0	0.0	0.0	0.0406778	10.4982	31.1806
177	1	1.0	0.0	0.0	0.048954	10.4295	33.3025
178	1	1.0	0.0	0.0	0.0548598	10.4897	34.4023
179	1	1.0	0.0	0.0	0.0457091	10.4285	36.5308
180	1	1.0	0.0	0.0	0.0770454	10.4485	37.6337
181	1	1.0	0.0	0.0	0.100983	10.4942	39.7439
182	1	1.0	0.0	0.0	0.00775728	10.5092	40.8418
183	1	1.0	0.0	0.0	0.0471988	12.0989	1.07454
184	1	1.0	0.0	0.0	0.0794499	12.1135	2.16803
185	1	1.0	0.0	0.0	0.0764161	12.0638	4.28428
186	1	1.0	0.0	0.0	0.0506718	12.1175	5.38123
187	1	1.0	0.0	0.0	0.0722017	12.0847	7.5012
188	1	1.0	0.0	0.0	0.0440307	12.0895	8.60103
189	1	1.0	0.0	0.0	0.0432783	12.0795	10.7173
190	1	1.0	0.0	0.0	0.0985566	12.0739	11.8293
191	1	1.0	0.0	0.0	0.0639095	12.126	13.9572
192	1	1.0	0.0	0.0	0.050486	12.1018	15.0853
193	1	1.0	0.0	0.0	0.0541571	12.0859	17.1791
194	1	1.0	0.0	0.0	0.0501805	12.0547	18.2926
195	1	1.0	0.0	0.0	0.0797879	12.1123	20.4172
196	1	1.0	0.0	0.0	0.0481305	12.0705	21.5022
197	1	1.0	0.0	0.0	0.0543064	12.1124	23.6249
198	1	1.0	0.0	0.0	0.05309	12.1247	24.7397
199	1	1.0	0.0	0.0	0.0219448	12.0932	26.8752
200	1	1.0	0.0	0.0	0.0868131	12.0685	27.9518
201	1	1.0	0.0	0.0	0.0445608	12.0826	30.0664
202	1	1.0	0.0	0.0	0.0625877	12.0886	31.1804
203	1	1.0	0.0	0.0	0.111373	12.0624	33.3143
204	1	1.0	0.0	0.0	0.0467935	12.0994	34.3956
205	1	1.0	0.0	0.0	0.0991553	12.1146	36.5506
206	1	1.0	0.0	0.0	0.0543334	12.1088	37.6055
207	1	1.0	0.0	0.0	0.077274	12.0621	39.7573
208	1	1.0	0.0	0.0	0.0418105	12.084	40.8587
209	1	1.0	0.0	0.0	0.0361977	13.6844	1.0615
210	1	1.0	0.0	0.0	0.0905398	13.7051	2.16383
211	1	1.0	0.0	0.0	0.0698133	13.7	4.27856
212	1	1.0	0.0	0.0	0.0533011	13.6932	5.35798
213	1	1.0	0.0	0.0	0.0767965	13.6898	7.52533
214	1	1.0	0.0	0.0	0.0381104	13.6737	8.62743
215	1	1.0	0.0	0.0	0.0361084	13.6828	10.7238
216	1	1.0	0.0	0.0	0.104639	13.6907	11.7966
217	1	1.0	0.0	0.0	0.0637176	13.6684	13.9507
218	1	1.0	0.0	0.0	0.0468895	13.6583	15.0423
219	1	1.0	0.0	0.0	0.0852745	13.7004	17.1649
220	1	1.0	0.0	0.0	0.0482176	13.673	18.2764
221	1	1.0	0.0	0.0	-0.0129167	13.7456	20.4132
222	1	1.0	0.0	0.0	0.104355	13.6797	21.4898
223	1	1.0	0.0	0.0	0.0736758	13.7047	23.6422
224	1	1.0	0.0	0.0	0.0260283	13.684	24.7419
225	1	1.0	0.0	0.0	0.0291255	13.7381	26.8596
226	1	1.0	0.0	0.0	0.104952	13.6962	27.9535
227	1	1.0	0.0	0.0	0.093217	13.698	30.1
228	1	1.0	0.0	0.0	0.0296072	13.7088	31.2043
229	1	1.0	0.0	0.0	0.0724581	13.709	33.3145
230	1	1.0	0.0	0.0	0.0545044	13.7418	34.3992
231	1	1.0	0.0	0.0	0.0549972	13.7478	36.5295
232	1	1.0	0.0	0.0	0.0745769	13.7144	37.6478
233	1	1.0	0.0	0.0	0.0509451	13.6767	39.7441
234	1	1.0	0.0	0.0	0.0773467	13.7187	40.831
235	1	1.0	0.0	0.0	0.058321	15.2722	1.06526
236	1	1.0	0.0	0.0	0.0540189	15.3215	2.1542
237	1	1.0	0.0	0.0	0.0480113	15.3256	4.3174
238	1	1.0	0.0	0.0	0.0718777	15.3137	5.37626
239	1	1.0	0.0	0.0	0.0769129	15.3376	7.52404
240	1	1.0	0.0	0.0	0.0630535	15.2996	8.59552
241	1	1.0	0.0	0.0	0.0663842	15.3196	10.7324
242	1	1.0	0.0	0.0	0.0442397	15.3511	11.8224
243	1	1.0	0.0	0.0	0.0518044	15.2968	13.9813
244	1	1.0	0.0	0.0	0.0823972	15.3314	15.0419
245	1	1.0	0.0	0.0	0.0629344	15.3119	17.2074
246	1	1.0	0.0	0.0	0.0504448	15.2916	18.2725
247	1	1.0	0.0	0.0	0.142589	15.3175	20.4101
248	1	1.0	0.0	0.0	0.00112259	15.3157	21.4928
249	1	1.0	0.0	0.0	0.0264971	15.3113	23.6348
250	1	1.0	0.0	0.0	0.0940903	15.3326	24.7289
251	1	1.0	0.0	0.0	0.0400966	15.3191	26.8845
252	1	1.0	0.0	0.0	0.0713764	15.3026	27.9748
253	1	1.0	0.0	0.0	0.0740972	15.3322	30.0929
254	1	1.0	0.0	0.0	0.0577901	15.3067	31.1693
255	1	1.0	0.0	0.0	0.0425873	15.2992	33.3099
256	1	1.0	0.0	0.0	0.0638415	15.3372	34.4228
257	1	1.0	0.0	0.0	0.0664208	15.3312	36.5337
258	1	1.0	0.0	0.0	0.0891287	15.2877	37.6294
259	1	1.0	0.0	0.0	0.0657824	15.3048	39.7573
260	1	1.0	0.0	0.0	0.0509835	15.3674	40.8506
261	1	1.0	0.0	0.0	0.0744931	16.9486	1.07049
262	1	1.0	0.0	0.0	0.0630325	16.9379	2.17262
263	1	1.0	0.0	0.0	0.0432835	16.9771	4.29069
264	1	1.0	0.0	0.0	0.0742641	16.9423	5.36752
265	1	1.0	0.0	0.0	0.0569119	16.9341	7.52782
266	1	1.0	0.0	0.0	0.0759602	16.9244	8.61826
267	1	1.0	0.0	0.0	0.0473098	16.9283	10.7308
268	1	1.0	0.0	0.0	0.0845424	16.9517	11.8473
269	1	1.0	0.0	0.0	0.0575233	16.961	13.9798
270	1	1.0	0.0	0.0	0.0198593	16.9303	15.055
271	1	1.0	0.0	0.0	0.0727026	16.9166	17.1711
272	1	1.0	0.0	0.0	0.0370132	16.9641	18.2617
273	1	1.0	0.0	0.0	0.0289488	16.9184	20.4045
274	1	1.0	0.0	0.0	0.0792046	16.9341	21.4835
275	1	1.0	0.0	0.0	0.0906607	16.9272	23.6145
276	1	1.0	0.0	0.0	0.0682797	16.9257	24.7232
277	1	1.0	0.0	0.0	0.0501897	16.9249	26.8255
278	1	1.0	0.0	0.0	0.0603009	16.9211	27.9444
279	1	1.0	0.0	0.0	0.0625905	16.9313	30.0846
280	1	1.0	0.0	0.0	0.0638732	16.9028	31.1764
281	1	1.0	0.0	0.0	0.0585218	16.8931	33.2879
282	1	1.0	0.0	0.0	0.0353568	16.9045	34.408
283	1	1.0	0.0	0.0	0.0545682	16.9575	36.5326
284	1	1.0	0.0	0.0	0.0629134	16.9192	37.6146
285	1	1.0	0.0	0.0	0.0523884	16.8813	39.7651
286	1	1.0	0.0	0.0	0.0560731	16.9294	40.8451
287	1	1.0	0.0	0.0	0.0281304	18.5552	1.04833
288	1	1.0	0.0	0.0	0.0699189	18.5304	2.14726
289	1	1.0	0.0	0.0	0.0641194	18.5611	4.26773
290	1	1.0	0.0	0.0	0.0595856	18.5136	5.38976
291	1	1.0	0.0	0.0	0.0728984	18.5585	7.5003
292	1	1.0	0.0	0.0	0.0634526	18.5163	8.60654
293	1	1.0	0.0	0.0	0.0754222	18.5185	10.7218
294	1	1.0	0.0	0.0	0.0376869	18.5113	11.828
295	1	1.0	0.0	0.0	0.0752768	18.5521	13.9407
296	1	1.0	0.0	0.0	0.0496848	18.4918	15.0777
297	1	1.0	0.0	0.0	0.0528026	18.5076	17.1749
298	1	1.0	0.0	0.0	0.0445163	18.5544	18.2866
299	1	1.0	0.0	0.0	0.115749	18.5084	20.4243
300	1	1.0	0.0	0.0	0.062776	18.5607	21.5244
301	1	1.0	0.0	0.0	0.0532025	18.5648	23.6319
302	1	1.0	0.0	0.0	0.0539657	18.5477	24.7066
303	1	1.0	0.0	0.0	0.0775978	18.5413	26.8669
304	1	1.0	0.0	0.0	0.0426544	18.5427	27.965
305	1	1.0	0.0	0.0	0.0525202	18.5685	30.0946
306	1	1.0	0.0	0.0	0.107411	18.5288	31.1678
307	1	1.0	0.0	0.0	0.0371231	18.5344	33.3357
308	1	1.0	0.0	0.0	0.104193	18.5344	34.3909
309	1	1.0	0.0	0.0	0.0340988	18.5442	36.5245
310	1	1.0	0.0	0.0	0.075667	18.5414	37.6044
311	1	1.0	0.0	0.0	0.0718802	18.5431	39.7398
312	1	1.0	0.0	0.0	0.0689116	18.5709	40.8337
313	1	1.0	0.0	0.0	0.0834409	20.138	1.07569
314	1	1.0	0.0	0.0	0.0706253	20.1228	2.15884
315	1	1.0	0.0	0.0	0.0482559	20.1537	4.30896
316	1	1.0	0.0	0.0	0.0594441	20.1089	5.39993
317	1	1.0	0.0	0.0	0.0418321	20.1667	7.51041
318	1	1.0	0.0	0.0	0.0859824	20.1472	8.58309
319	1	1.0	0.0	0.0	0.0209757	20.1481	10.7121
320	1	1.0	0.0	0.0	0.0900036	20.1938	11.7974
321	1	1.0	0.0	0.0	0.0587062	20.1295	13.9613
322	1	1.0	0.0	0.0	0.0847618	20.1012	15.0304
323	1	1.0	0.0	0.0	0.0556458	20.1101	17.1831
324	1	1.0	0.0	0.0	0.0670546	20.1716	18.2932
325	1	1.0	0.0	0.0	0.0268476	20.1402	20.3991
326	1	1.0	0.0	0.0	0.0890719	20.1967	21.5113
327	1	1.0	0.0	0.0	0.0907908	20.1818	23.6285
328	1	1.0	0.0	0.0	0.0682964	20.1564	24.7222
329	1	1.0	0.0	0.0	0.0821426	20.1668	26.8578
330	1	1.0	0.0	0.0	0.0399101	20.1278	27.9661
331	1	1.0	0.0	0.0	0.0850185	20.1523	30.0762
332	1	1.0	0.0	0.0	0.0520166	20.1035	31.161
333	1	1.0	0.0	0.0	0.0518955	20.1881	33.3001
334	1	1.0	0.0	0.0	0.0659513	20.1812	34.4055
335	1	1.0	0.0	0.0	0.115376	20.1658	36.5333
336	1	1.0	0.0	0.0	0.0259863	20.1413	37.621
337	1	1.0	0.0	0.0	0.0751445	20.1148	39.7705
338	1	1.0	0.0	0.0	0.0272974	20.1477	40.8645
339	1	1.0	0.0	0.0	0.0627249	21.7659	1.08591
340	1	1.0	0.0	0.0	0.0643765	21.7763	2.15145
341	1	1.0	0.0	0.0	0.0356518	21.7869	4.28621
342	1	1.0	0.0	0.0	0.077094	21.7791	5.35846
343	1	1.0	0.0	0.0	0.0654753	21.7854	7.51983
344	1	1.0	0.0	0.0	0.0584294	21.7392	8.61842
345	1	1.0	0.0	0.0	0.0717457	21.7526	10.7303
346	1	1.0	0.0	0.0	0.0473066	21.7592	11.8287
347	1	1.0	0.0	0.0	0.0312517	21.7572	13.978
348	1	1.0	0.0	0.0	0.0800411	21.759	15.0414
349	1	1.0	0.0	0.0	0.0358725	21.7356	17.1759
350	1	1.0	0.0	0.0	0.09326	21.7725	18.2692
351	1	1.0	0.0	0.0	0.0875977	21.729	20.4299
352	1	1.0	0.0	0.0	0.0663749	21.7447	21.5248
353	1	1.0	0.0	0.0	0.0627068	21.7508	23.6418
354	1	1.0	0.0	0.0	0.0613642	21.7554	24.7109
355	1	1.0	0.0	0.0	0.0860756	21.7715	26.8651
356	1	1.0	0.0	0.0	0.0578293	21.7299	27.9644
357	1	1.0	0.0	0.0	0.0575863	21.7946	30.1072
358	1	1.0	0.0	0.0	0.0706315	21.7362	31.2046
359	1	1.0	0.0	0.0	0.0880422	21.7312	33.2881
360	1	1.0	0.0	0.0	0.0465244	21.7452	34.3869
361	1	1.0	0.0	0.0	0.0473368	21.7801	36.515
362	1	1.0	0.0	0.0	0.0713968	21.778	37.6077
363	1	1.0	0.0	0.0	0.0527683	21.765	39.7805
364	1	1.0	0.0	0.0	0.0681885	21.7414	40.8483
365	1	1.0	0.0	0.0	0.0625195	23.3774	1.06209
366	1	1.0	0.0	0.0	0.0695488	23.4116	2.15584
367	1	1.0	0.0	0.0	0.0804327	23.3525	4.28511
368	1	1.0	0.0	0.0	0.055345	23.3799	5.37444
369	1	1.0	0.0	0.0	0.0434439	23.379	7.49273
370	1	1.0	0.0	0.0	0.113997	23.3327	8.57147
371	1	1.0	0.0	0.0	0.0805159	23.3812	10.7202
372	1	1.0	0.0	0.0	0.0463926	23.4077	11.8342
373	1	1.0	0.0	0.0	0.0439035	23.3825	13.9453
374	1	1.0	0.0	0.0	0.069488	23.3711	15.0581
375	1	1.0	0.0	0.0	0.0547022	23.3579	17.1902
376	1	1.0	0.0	0.0	0.0723651	23.4101	18.2606
377	1	1.0	0.0	0.0	0.0447903	23.3946	20.3992
378	1	1.0	0.0	0.0	0.0828351	23.3647	21.4937
379	1	1.0	0.0	0.0	0.0588588	23.3698	23.6413
380	1	1.0	0.0	0.0	0.0888568	23.3939	24.7361
381	1	1.0	0.0	0.0	0.016697	23.412	26.8602
382	1	1.0	0.0	0.0	0.0912014	23.3744	27.9401
383	1	1.0	0.0	0.0	0.0710072	23.3825	30.0923
384	1	1.0	0.0	0.0	0.0569825	23.3502	31.1761
385	1	1.0	0.0	0.0	0.0378698	23.3788	33.3077
386	1	1.0	0.0	0.0	0.081419	23.3657	34.395
387	1	1.0	0.0	0.0	0.0449234	23.3344	36.5017
388	1	1.0	0.0	0.0	0.0523602	23.3639	37.6077
389	1	1.0	0.0	0.0	0.0553487	23.3969	39.7539
390	1	1.0	0.0	0.0	0.0643753	23.375	40.8345
391	1	1.0	0.0	0.0	0.0589635	24.9639	1.06964
392	1	1.0	0.0	0.0	0.0508403	24.9866	2.20496
393	1	1.0	0.0	0.0	0.0852149	24.9736	4.3146
394	1	1.0	0.0	0.0	0.0585873	24.9793	5.39283
395	1	1.0	0.0	0.0	0.125353	25.004	7.52916
396	1	1.0	0.0	0.0	-0.0108294	24.9637	8.61257
397	1	1.0	0.0	0.0	0.0307175	24.9678	10.728
398	1	1.0	0.0	0.0	0.0710751	24.9586	11.8206
399	1	1.0	0.0	0.0	0.0747914	24.9727	13.9519
400	1	1.0	0.0	0.0	0.0750168	24.9719	15.0584
401	1	1.0	0.0	0.0	0.0547431	24.9787	17.1786
402	1	1.0	0.0	0.0	0.0528704	24.9945	18.2809
403	1	1.0	0.0	0.0	0.0299128	24.9869	20.3877
404	1	1.0	0.0	0.0	0.110949	25.0249	21.4987
405	1	1.0	0.0	0.0	0.035623	24.9713	23.6327
406	1	1.0	0.0	0.0	0.0515369	25.0246	24.7262
407	1	1.0	0.0	0.0	0.0863572	24.9992	26.8568
408	1	1.0	0.0	0.0	0.0500839	24.9896	27.9562
409	1	1.0	0.0	0.0	0.043254	24.9778	30.0595
410	1	1.0	0.0	0.0	0.0809412	25.0226	31.1592
411	1	1.0	0.0	0.0	0.0636908	25.0021	33.2792
412	1	1.0	0.0	0.0	0.0656033	25.0232	34.3868
413	1	1.0	0.0	0.0	0.0759225	24.9383	36.5468
414	1	1.0	0.0	0.0	0.0513994	25.0038	37.6172
415	1	1.0	0.0	0.0	0.0381618	24.9631	39.7381
416	1	1.0	0.0	0.0	0.0737609	25.0172	40.8588
417	1	1.0	0.0	0.0	0.0651643	26.5988	1.06351
418	1	1.0	0.0	0.0	0.0728273	26.5773	2.15199
419	1	1.0	0.0	0.0	0.0672986	26.6186	4.29253
420	1	1.0	0.0	0.0	0.0457386	26.61	5.39793
421	1	1.0	0.0	0.0	0.0610888	26.6286	7.50279
422	1	1.0	0.0	0.0	0.035408	26.5497	8.62566
423	1	1.0	0.0	0.0	0.0859907	26.5957	10.7287
424	1	1.0	0.0	0.0	0.0585441	26.6168	11.8125
425	1	1.0	0.0	0.0	0.0600782	26.5749	13.9642
426	1	1.0	0.0	0.0	0.0602035	26.5907	15.0512
427	1	1.0	0.0	0.0	0.0517181	26.589	17.1744
428	1	1.0	0.0	0.0	0.040519	26.6043	18.2825
429	1	1.0	0.0	0.0	0.118673	26.5695	20.407
430	1	1.0	0.0	0.0	-0.00394904	26.5884	21.5115
431	1	1.0	0.0	0.0	0.0745491	26.5676	23.635
432	1	1.0	0.0	0.0	0.0551597	26.6227	24.7477
433	1	1.0	0.0	0.0	0.0623301	26.5964	26.8564
434	1	1.0	0.0	0.0	0.0475248	26.6137	27.9632
435	1	1.0	0.0	0.0	0.0632626	26.585	30.0837
436	1	1.0	0.0	0.0	0.0380335	26.579	31.1956
437	1	1.0	0.0	0.0	0.0677901	26.586	33.2955
438	1	1.0	0.0	0.0	0.056492	26.5966	34.4169
439	1	1.0	0.0	0.0	0.0784541	26.5969	36.5501
440	1	1.0	0.0	0.0	0.0314739	26.615	37.6224
441	1	1.0	0.0	0.0	0.0689843	26.5837	39.7371
442	1	1.0	0.0	0.0	0.0737738	26.5737	40.8716
443	1	1.0	0.0	0.0	0.0251295	28.2039	1.07446
444	1	1.0	0.0	0.0	0.0667799	28.2501	2.16434
445	1	1.0	0.0	0.0	0.0846649	28.2016	4.28971
446	1	1.0	0.0	0.0	0.0212858	28.1985	5.38905
447	1	1.0	0.0	0.0	0.0447569	28.2267	7.51358
448	1	1.0	0.0	0.0	0.0813368	28.1743	8.60471
449	1	1.0	0.0	0.0	0.0486679	28.2201	10.7445
450	1	1.0	0.0	0.0	0.0802707	28.2367	11.8407
451	1	1.0	0.0	0.0	0.0486788	28.2366	13.981
452	1	1.0	0.0	0.0	0.0994657	28.2276	15.0814
453	1	1.0	0.0	0.0	0.0349426	28.2108	17.1874
454	1	1.0	0.0	0.0	0.0573291	28.2144	18.2935
455	1	1.0	0.0	0.0	0.0513575	28.2142	20.4297
456	1	1.0	0.0	0.0	0.079855	28.2108	21.4925
457	1	1.0	0.0	0.0	0.0610349	28.1794	23.635
458	1	1.0	0.0	0.0	0.0614822	28.225	24.7174
459	1	1.0	0.0	0.0	0.0537347	28.2002	26.8531
460	1	1.0	0.0	0.0	0.0371338	28.1781	27.9568
461	1	1.0	0.0	0.0	0.0741902	28.2247	30.0693
462	1	1.0	0.0	0.0	0.0620066	28.2112	31.1469
463	1	1.0	0.0	0.0	0.044884	28.2171	33.3193
464	1	1.0	0.0	0.0	0.0701938	28.1994	34.3958
465	1	1.0	0.0	0.0	0.0537836	28.226	36.5197
466	1	1.0	0.0	0.0	0.0731753	28.2126	37.5994
467	1	1.0	0.0	0.0	0.0383715	28.2357	39.7672
468	1	1.0	0.0	0.0	0.0459434	28.1962	40.8588
469	1	1.0	0.0	0.0	0.0298619	29.7928	1.07316
470	1	1.0	0.0	0.0	0.0764213	29.8235	2.19543
471	1	1.0	0.0	0.0	0.0592545	29.8282	4.29385
472	1	1.0	0.0	0.0	0.037338	29.8001	5.37414
473	1	1.0	0.0	0.0	0.0854869	29.8289	7.50347
474	1	1.0	0.0	0.0	0.0280902	29.7952	8.60451
475	1	1.0	0.0	0.0	0.0764546	29.786	10.7408
476	1	1.0	0.0	0.0	0.0341667	29.7978	11.8313
477	1	1.0	0.0	0.0	0.0612951	29.8187	13.9392
478	1	1.0	0.0	0.0	0.029707	29.835	15.0284
479	1	1.0	0.0	0.0	0.0344128	29.8163	17.1869
480	1	1.0	0.0	0.0	0.088444	29.8067	18.2786
481	1	1.0	0.0	0.0	0.0126194	29.8275	20.4132
482	1	1.0	0.0	0.0	0.0948076	29.8013	21.4918
483	1	1.0	0.0	0.0	0.0602133	29.7921	23.6387
484	1	1.0	0.0	0.0	0.0248658	29.8561	24.7358
485	1	1.0	0.0	0.0	0.0327799	29.8484	26.8591
486	1	1.0	0.0	0.0	0.0629732	29.831	27.9764
487	1	1.0	0.0	0.0	0.0405189	29.8115	30.0918
488	1	1.0	0.0	0.0	0.0512668	29.8283	31.1523
489	1	1.0	0.0	0.0	0.00361741	29.8282	33.3223
490	1	1.0	0.0	0.0	0.0874334	29.8391	34.3957
491	1	1.0	0.0	0.0	0.0391628	29.8392	36.525
492	1	1.0	0.0	0.0	0.0757998	29.8075	37.6369
493	1	1.0	0.0	0.0	0.0537134	29.8229	39.746
494	1	1.0	0.0	0.0	0.0682655	29.8055	40.8567
495	1	1.0	0.0	0.0	0.0831465	31.4167	1.04102
496	1	1.0	0.0	0.0	0.0199571	31.4109	2.15988
497	1	1.0	0.0	0.0	0.0511416	31.4549	4.27707
498	1	1.0	0.0	0.0	0.063979	31.4447	5.38915
499	1	1.0	0.0	0.0	0.0570695	31.4226	7.50673
500	1	1.0	0.0	0.0	0.0741059	31.4209	8.60178
501	1	1.0	0.0	0.0	0.0466155	31.4319	10.7461
502	1	1.0	0.0	0.0	0.0551421	31.4202	11.8217
503	1	1.0	0.0	0.0	0.068266	31.421	13.9514
504	1	1.0	0.0	0.0	0.0272156	31.4575	15.0667
505	1	1.0	0.0	0.0	0.0760631	31.4509	17.1887
506	1	1.0	0.0	0.0	0.0377506	31.4357	18.2988
507	1	1.0	0.0	0.0	0.0784687	31.4512	20.4004
508	1	1.0	0.0	0.0	0.0343913	31.4254	21.4923
509	1	1.0	0.0	0.0	0.036617	31.4104	23.6379
510	1	1.0	0.0	0.0	0.0674222	31.4395	24.759
511	1	1.0	0.0	0.0	0.039814	31.4343	26.8523
512	1	1.0	0.0	0.0	0.057675	31.3833	27.9488
513	1	1.0	0.0	0.0	0.0740999	31.4384	30.0787
514	1	1.0	0.0	0.0	0.0716657	31.4265	31.1712
515	1	1.0	0.0	0.0	0.0870117	31.3944	33.3123
516	1	1.0	0.0	0.0	0.0457748	31.4382	34.3893
517	1	1.0	0.0	0.0	0.0260092	31.4124	36.5074
518	1	1.0	0.0	0.0	0.0340315	31.3925	37.6246
519	1	1.0	0.0	0.0	0.044656	31.4391	39.7684
520	1	1.0	0.0	0.0	0.0858431	31.4029	40.8531
521	1	1.0	0.0	0.0	0.0029853	33.0186	1.04916
522	1	1.0	0.0	0.0	0.0748573	33.0394	2.15855
523	1	1.0	0.0	0.0	0.0659804	33.0428	4.2952
524	1	1.0	0.0	0.0	0.0416663	33.0021	5.38932
525	1	1.0	0.0	0.0	0.0633298	33.0699	7.5093
526	1	1.0	0.0	0.0	0.0352104	33.0788	8.58402
527	1	1.0	0.0	0.0	0.057209	33.0213	10.7214
528	1	1.0	0.0	0.0	0.0775864	33.051	11.8209
529	1	1.0	0.0	0.0	0.0540095	33.0382	13.9711
530	1	1.0	0.0	0.0	0.0580361	33.0532	15.0894
531	1	1.0	0.0	0.0	0.101934	33.0682	17.1607
532	1	1.0	0.0	0.0	0.0508957	33.0313	18.2946
533	1	1.0	0.0	0.0	0.0739678	33.0632	20.4109
534	1	1.0	0.0	0.0	0.0280811	33.0523	21.5411
535	1	1.0	0.0	0.0	0.0738282	33.0139	23.6232
536	1	1.0	0.0	0.0	0.0527171	33.0557	24.7314
537	1	1.0	0.0	0.0	0.0628249	33.0577	26.8413
538	1	1.0	0.0	0.0	0.00663679	33.0626	27.9403
539	1	1.0	0.0	0.0	0.0317859	33.0706	30.0786
540	1	1.0	0.0	0.0	0.0180243	33.0481	31.189
541	1	1.0	0.0	0.0	0.0470953	33.0575	33.3034
542	1	1.0	0.0	0.0	0.0490672	33.0516	34.397
543	1	1.0	0.0	0.0	0.0757274	33.0496	36.5238
544	1	1.0	0.0	0.0	0.0442116	33.064	37.6323
545	1	1.0	0.0	0.0	0.0193759	33.0662	39.7308
546	1	1.0	0.0	0.0	0.0728261	33.0331	40.8398
547	1	1.0	0.0	0.0	0.0979026	34.6636	1.07174
548	1	1.0	0.0	0.0	0.0592475	34.6572	2.15736
549	1	1.0	0.0	0.0	0.0574926	34.6813	4.30107
550	1	1.0	0.0	0.0	0.0509379	34.6218	5.38299
551	1	1.0	0.0	0.0	0.0544099	34.6326	7.50261
552	1	1.0	0.0	0.0	0.0781015	34.6651	8.62133
553	1	1.0	0.0	0.0	0.0458928	34.6749	10.7318
554	1	1.0	0.0	0.0	0.0530373	34.6451	11.8531
555	1	1.0	0.0	0.0	0.070049	34.6496	13.9548
556	1	1.0	0.0	0.0	0.0247194	34.6411	15.0668
557	1	1.0	0.0	0.0	0.0432359	34.6261	17.1768
558	1	1.0	0.0	0.0	0.065645	34.6225	18.2912
559	1	1.0	0.0	0.0	0.0496735	34.6716	20.411
560	1	1.0	0.0	0.0	0.0582909	34.6395	21.527
561	1	1.0	0.0	0.0	0.0305498	34.6671	23.6301
562	1	1.0	0.0	0.0	0.0522513	34.6911	24.7442
563	1	1.0	0.0	0.0	0.0660354	34.6429	26.8822
564	1	1.0	0.0	0.0	0.0348859	34.6638	27.9598
565	1	1.0	0.0	0.0	0.0662594	34.6604	30.0641
566	1	1.0	0.0	0.0	-0.000880561	34.6136	31.1964
567	1	1.0	0.0	0.0	0.051448	34.6497	33.2876
568	1	1.0	0.0	0.0	0.0424987	34.6798	34.395
569	1	1.0	0.0	0.0	0.0521319	34.6833	36.5314
570	1	1.0	0.0	0.0	0.0517933	34.6649	37.627
571	1	1.0	0.0	0.0	0.0633707	34.6984	39.7415
572	1	1.0	0.0	0.0	0.0424911	34.7094	40.8527
573	1	1.0	0.0	0.0	0.0243896	36.2733	1.05851
574	1	1.0	0.0	0.0	0.0756272	36.2975	2.1651
575	1	1.0	0.0	0.0	0.0432173	36.3071	4.26988
576	1	1.0	0.0	0.0	0.0525411	36.2544	5.36429
577	1	1.0	0.0	0.0	0.0705932	36.2578	7.51596
578	1	1.0	0.0	0.0	0.0667538	36.2423	8.61814
579	1	1.0	0.0	0.0	0.0291547	36.2432	10.7198
580	1	1.0	0.0	0.0	0.0585965	36.2448	11.8395
581	1	1.0	0.0	0.0	0.0506323	36.2726	13.9554
582	1	1.0	0.0	0.0	0.0589962	36.2908	15.0631
583	1	1.0	0.0	0.0	0.063534	36.2732	17.1742
584	1	1.0	0.0	0.0	0.0402217	36.2459	18.2617
585	1	1.0	0.0	0.0	0.0867911	36.2563	20.3861
586	1	1.0	0.0	0.0	0.0103413	36.2459	21.5023
587	1	1.0	0.0	0.0	0.0389863	36.2427	23.5903
588	1	1.0	0.0	0.0	0.0497594	36.2299	24.7251
589	1	1.0	0.0	0.0	0.0677081	36.2939	26.8505
590	1	1.0	0.0	0.0	0.0519205	36.2556	27.9449
591	1	1.0	0.0	0.0	0.0484343	36.2773	30.0626
592	1	1.0	0.0	0.0	0.0681727	36.2977	31.1774
593	1	1.0	0.0	0.0	0.0428085	36.2748	33.3027
594	1	1.0	0.0	0.0	0.0584188	36.2908	34.433
595	1	1.0	0.0	0.0	0.0306693	36.2407	36.514
596	1	1.0	0.0	0.0	0.0524318	36.2374	37.6224
597	1	1.0	0.0	0.0	-0.00911499	36.2479	39.7222
598	1	1.0	0.0	0.0	0.114089	36.2653	40.8638
599	1	1.0	0.0	0.0	0.0741518	37.8554	1.06232
600	1	1.0	0.0	0.0	0.0361322	37.8955	2.1714
601	1	1.0	0.0	0.0	0.0626844	37.9004	4.3018
602	1	1.0	0.0	0.0	0.0795758	37.8606	5.38261
603	1	1.0	0.0	0.0	0.0450233	37.8931	7.48942
604	1	1.0	0.0	0.0	0.0604994	37.9072	8.57091
605	1	1.0	0.0	0.0	0.0463734	37.8773	10.7509
606	1	1.0	0.0	0.0	0.0640813	37.8788	11.8314
607	1	1.0	0.0	0.0	0.048827	37.836	13.9575
608	1	1.0	0.0	0.0	0.0310726	37.8749	15.0737
609	1	1.0	0.0	0.0	0.0538377	37.9052	17.1888
610	1	1.0	0.0	0.0	0.0701831	37.8903	18.2888
611	1	1.0	0.0	0.0	0.0295677	37.8688	20.4239
612	1	1.0	0.0	0.0	0.0796096	37.8692	21.5018
613	1	1.0	0.0	0.0	0.0752037	37.8857	23.6459
614	1	1.0	0.0	0.0	0.0307907	37.8869	24.7313
615	1	1.0	0.0	0.0	0.0287135	37.8848	26.8627
616	1	1.0	0.0	0.0	0.0770448	37.8743	27.9393
617	1	1.0	0.0	0.0	0.110798	37.8616	30.0753
618	1	1.0	0.0	0.0	0.0191761	37.8915	31.1788
619	1	1.0	0.0	0.0	0.0386833	37.89	33.2742
620	1	1.0	0.0	0.0	0.0765868	37.8887	34.3908
621	1	1.0	0.0	0.0	0.0513651	37.8821	36.5234
622	1	1.0	0.0	0.0	0.0628715	37.9174	37.5991
623	1	1.0	0.0	0.0	0.100555	37.8721	39.7405
624	1	1.0	0.0	0.0	0.0223972	37.9078	40.861
625	1	1.0	0.0	0.0	0.048021	39.4796	1.07286
626	1	1.0	0.0	0.0	0.0775948	39.507	2.17379
627	1	1.0	0.0	0.0	0.0565613	39.511	4.28841
628	1	1.0	0.0	0.0	0.060422	39.53	5.3673
629	1	1.0	0.0	0.0	0.0780164	39.49	7.50974
630	1	1.0	0.0	0.0	0.0280822	39.5179	8.60909
631	1	1.0	0.0	0.0	0.0776107	39.4965	10.752
632	1	1.0	0.0	0.0	0.0231854	39.4608	11.836
633	1	1.0	0.0	0.0	0.0624408	39.4896	13.9872
634	1	1.0	0.0	0.0	0.0532244	39.4702	15.062
635	1	1.0	0.0	0.0	0.0367698	39.5124	17.1597
636	1	1.0	0.0	0.0	0.057004	39.5053	18.2883
637	1	1.0	0.0	0.0	0.0500313	39.5244	20.4269
638	1	1.0	0.0	0.0	0.0802358	39.4995	21.5261
639	1	1.0	0.0	0.0	0.0448045	39.517	23.6396
640	1	1.0	0.0	0.0	0.0938551	39.4799	24.7143
641	1	1.0	0.0	0.0	0.034718	39.5143	26.8401
642	1	1.0	0.0	0.0	0.0838518	39.4981	27.9449
643	1	1.0	0.0	0.0	0.0280606	39.4963	30.0799
644	1	1.0	0.0	0.0	0.0738899	39.5124	31.1512
645	1	1.0	0.0	0.0	0.11078	39.4713	33.3137
646	1	1.0	0.0	0.0	0.0200838	39.5036	34.4239
647	1	1.0	0.0	0.0	0.0647666	39.471	36.5064
648	1	1.0	0.0	0.0	0.0315094	39.5238	37.6425
649	1	1.0	0.0	0.0	0.0521182	39.4854	39.7628
650	1	1.0	0.0	0.0	0.0622383	39.5163	40.8608
651	1	1.0	0.0	0.0	0.0748781	41.1323	1.04312
652	1	1.0	0.0	0.0	0.0386883	41.1252	2.14997
653	1	1.0	0.0	0.0	0.04298	41.1101	4.2834
654	1	1.0	0.0	0.0	0.0281224	41.1436	5.39874
655	1	1.0	0.0	0.0	0.065425	41.1197	7.52351
656	1	1.0	0.0	0.0	0.0467861	41.0897	8.6095
657	1	1.0	0.0	0.0	0.0124517	41.1226	10.7588
658	1	1.0	0.0	0.0	0.0825614	41.0905	11.8385
659	1	1.0	0.0	0.0	0.0644399	41.1224	13.9502
660	1	1.0	0.0	0.0	0.0691908	41.116	15.035
661	1	1.0	0.0	0.0	0.0557535	41.0883	17.1887
662	1	1.0	0.0	0.0	0.0378175	41.0683	18.2885
663	1	1.0	0.0	0.0	0.0341811	41.094	20.3937
664	1	1.0	0.0	0.0	0.0724979	41.0909	21.5029
665	1	1.0	0.0	0.0	0.0496875	41.103	23.6328
666	1	1.0	0.0	0.0	0.0309612	41.0807	24.7148
667	1	1.0	0.0	0.0	0.0364627	41.0912	26.8389
668	1	1.0	0.0	0.0	0.0417026	41.1149	27.9511
669	1	1.0	0.0	0.0	0.0799535	41.0938	30.1018
670	1	1.0	0.0	0.0	0.0541613	41.1246	31.1701
671	1	1.0	0.0	0.0	0.0161854	41.0742	33.2927
672	1	1.0	0.0	0.0	0.0651491	41.1321	34.3816
673	1	1.0	0.0	0.0	0.0545676	41.0815	36.5263
674	1	1.0	0.0	0.0	0.0528399	41.1043	37.628
675	1	1.0	0.0	0.0	0.0586451	41.1074	39.7653
676	1	1.0	0.0	0.0	0.0813459	41.0909	40.8526
677	1	1.0	0.0	0.0	2.11089	0.785015	1.09116
678	1	1.0	0.0	0.0	2.23241	0.802823	1.92859
679	1	1.0	0.0	0.0	2.22299	0.817355	4.50985
680	1	1.0	0.0	0.0	2.13764	0.795951	5.3717
681	1	1.0	0.0	0.0	2.13906	0.791619	7.63078
682	1	1.0	0.0	0.0	2.17705	0.818566	8.45053
683	1	1.0	0.0	0.0	2.2064	0.864835	10.9641
684	1	1.0	0.0	0.0	2.12968	0.789862	11.8173