LAMMPS data file for Nanoparticles
400 atoms
400 lines
2 atom types
-28.7967574883 28.7967574883 xlo xhi
-28.7967574883 28.7967574883 ylo yhi
-0.5 0.5 zlo zhi

Atoms

1 1 1 1 1 28.5701 -28.4101 0 -1 0 0
2 1 1 1 1 28.2458 28.4738 0 -1 -1 0
3 1 1 1 1 -28.5701 28.4101 0 0 -1 0
4 1 1 1 1 -28.2458 -28.4738 0 0 0 0
5 2 1 1 1 -22.6684 28.0669 0 0 -1 0
6 2 1 1 1 -22.6096 -28.5805 0 0 0 0
7 2 1 1 1 -23.4064 -28.0669 0 0 0 0
8 2 1 1 1 -23.4652 28.5805 0 0 -1 0
9 3 1 1 1 -16.491 28.2994 0 0 -1 0
10 3 1 1 1 -16.8471 -28.1148 0 0 0 0
11 3 1 1 1 -18.0651 -28.2994 0 0 0 0
12 3 1 1 1 -17.709 28.1148 0 0 -1 0
13 4 1 1 1 -11.4345 28.29 0 0 -1 0
14 4 1 1 1 -11.2611 -28.754 0 0 0 0
15 4 1 1 1 -11.6029 -28.29 0 0 0 0
16 4 1 1 1 -11.7763 28.754 0 0 -1 0
17 5 1 1 1 -5.47664 28.3124 0 0 -1 0
18 5 1 1 1 -5.3706 -28.5699 0 0 0 0
19 5 1 1 1 -6.04206 -28.3124 0 0 0 0
20 5 1 1 1 -6.1481 28.5699 0 0 -1 0
21 6 1 1 1 -0.226473 28.6134 0 0 -1 0
22 6 1 1 1 0.403913 28.2978 0 0 -1 0
23 6 1 1 1 0.226473 -28.6134 0 0 0 0
24 6 1 1 1 -0.403913 -28.2978 0 0 0 0
25 7 1 1 1 6.02343 -28.1725 0 0 0 0
26 7 1 1 1 4.87903 -28.4244 0 0 0 0
27 7 1 1 1 5.49527 28.1725 0 0 -1 0
28 7 1 1 1 6.63967 28.4244 0 0 -1 0
29 8 1 1 1 10.9648 -28.7746 0 0 0 0
30 8 1 1 1 11.5059 28.4757 0 0 -1 0
31 8 1 1 1 12.0726 28.7746 0 0 -1 0
32 8 1 1 1 11.5316 -28.4757 0 0 0 0
33 9 1 1 1 17.6173 28.0779 0 0 -1 0
34 9 1 1 1 17.782 -28.5589 0 0 0 0
35 9 1 1 1 16.9388 -28.0779 0 0 0 0
36 9 1 1 1 16.7741 28.5589 0 0 -1 0
37 10 1 1 1 23.8662 28.75 0 0 -1 0
38 10 1 1 1 23.0925 -27.8211 0 0 0 0
39 10 1 1 1 22.2086 -28.75 0 0 0 0
40 10 1 1 1 22.9823 27.8211 0 0 -1 0
41 11 1 1 1 -28.6738 -22.1727 0 0 0 0
42 11 1 1 1 27.8353 -22.9007 0 -1 0 0
43 11 1 1 1 28.6738 -23.9021 0 -1 0 0
44 11 1 1 1 -27.8353 -23.1741 0 0 0 0
45 12 1 1 1 -22.6787 -22.4126 0 0 0 0
46 12 1 1 1 -23.4695 -22.7893 0 0 0 0
47 12 1 1 1 -23.3961 -23.6622 0 0 0 0
48 12 1 1 1 -22.6053 -23.2855 0 0 0 0
49 13 1 1 1 -17.2139 -23.5312 0 0 0 0
50 13 1 1 1 -16.4751 -22.9332 0 0 0 0
51 13 1 1 1 -17.3422 -22.5436 0 0 0 0
52 13 1 1 1 -18.081 -23.1416 0 0 0 0
53 14 1 1 1 -10.7317 -22.4924 0 0 0 0
54 14 1 1 1 -11.8925 -22.4977 0 0 0 0
55 14 1 1 1 -12.3057 -23.5824 0 0 0 0
56 14 1 1 1 -11.1449 -23.5771 0 0 0 0
57 15 1 1 1 -5.42584 -22.4871 0 0 0 0
58 15 1 1 1 -6.02355 -22.8773 0 0 0 0
59 15 1 1 1 -6.09286 -23.5877 0 0 0 0
60 15 1 1 1 -5.49515 -23.1975 0 0 0 0
61 16 1 1 1 0.339193 -23.2446 0 0 0 0
62 16 1 1 1 0.520941 -22.1845 0 0 0 0
63 16 1 1 1 -0.339193 -22.8302 0 0 0 0
64 16 1 1 1 -0.520941 -23.8903 0 0 0 0
65 17 1 1 1 6.24268 -23.1667 0 0 0 0
66 17 1 1 1 6.01066 -22.0977 0 0 0 0
67 17 1 1 1 5.27603 -22.9081 0 0 0 0
68 17 1 1 1 5.50805 -23.9771 0 0 0 0
69 18 1 1 1 11.943 -23.149 0 0 0 0
70 18 1 1 1 11.6256 -22.6311 0 0 0 0
71 18 1 1 1 11.0944 -22.9258 0 0 0 0
72 18 1 1 1 11.4118 -23.4437 0 0 0 0
73 19 1 1 1 16.9661 -22.3518 0 0 0 0
74 19 1 1 1 16.8992 -23.2098 0 0 0 0
75 19 1 1 1 17.59 -23.723 0 0 0 0
76 19 1 1 1 17.6569 -22.865 0 0 0 0
77 20 1 1 1 22.7107 -23.0411 0 0 0 0
78 20 1 1 1 23.0471 -23.9011 0 0 0 0
79 20 1 1 1 23.3641 -23.0337 0 0 0 0
80 20 1 1 1 23.0277 -22.1737 0 0 0 0
81 21 1 1 1 -28.5944 -17.9775 0 0 0 0
82 21 1 1 1 -28.3722 -17.1552 0 0 0 0
83 21 1 1 1 28.5944 -16.5786 0 -1 0 0
84 21 1 1 1 28.3722 -17.4009 0 -1 0 0
85 22 1 1 1 -23.177 -16.5303 0 0 0 0
86 22 1 1 1 -23.992 -17.4563 0 0 0 0
87 22 1 1 1 -22.8978 -18.0258 0 0 0 0
88 22 1 1 1 -22.0828 -17.0998 0 0 0 0
89 23 1 1 1 -16.825 -17.0261 0 0 0 0
90 23 1 1 1 -17.7076 -16.5057 0 0 0 0
91 23 1 1 1 -17.7311 -17.53 0 0 0 0
92 23 1 1 1 -16.8485 -18.0504 0 0 0 0
93 24 1 1 1 -11.2382 -17.3342 0 0 0 0
94 24 1 1 1 -11.4565 -16.9671 0 0 0 0
95 24 1 1 1 -11.7992 -17.2219 0 0 0 0
96 24 1 1 1 -11.5809 -17.589 0 0 0 0
97 25 1 1 1 -5.24969 -17.5883 0 0 0 0
98 25 1 1 1 -5.49286 -16.8403 0 0 0 0
99 25 1 1 1 -6.26901 -16.9678 0 0 0 0
100 25 1 1 1 -6.02584 -17.7158 0 0 0 0
101 26 1 1 1 0.00423501 -17.633 0 0 0 0
102 26 1 1 1 0.555598 -17.2714 0 0 0 0
103 26 1 1 1 -0.00423501 -16.9231 0 0 0 0
104 26 1 1 1 -0.555598 -17.2847 0 0 0 0
105 27 1 1 1 6.34657 -17.8699 0 0 0 0
106 27 1 1 1 6.33455 -16.7074 0 0 0 0
107 27 1 1 1 5.17214 -16.6862 0 0 0 0
108 27 1 1 1 5.18416 -17.8487 0 0 0 0
109 28 1 1 1 10.6796 -17.1851 0 0 0 0
110 28 1 1 1 11.4792 -17.6345 0 0 0 0
111 28 1 1 1 12.3578 -17.371 0 0 0 0
112 28 1 1 1 11.5582 -16.9216 0 0 0 0
113 29 1 1 1 16.4602 -16.8401 0 0 0 0
114 29 1 1 1 16.9173 -17.9518 0 0 0 0
115 29 1 1 1 18.096 -17.716 0 0 0 0
116 29 1 1 1 17.6388 -16.6043 0 0 0 0
117 30 1 1 1 22.6589 -16.9995 0 0 0 0
118 30 1 1 1 22.7001 -17.7364 0 0 0 0
119 30 1 1 1 23.4159 -17.5566 0 0 0 0
120 30 1 1 1 23.3747 -16.8197 0 0 0 0
121 31 1 1 1 28.0134 -11.4941 0 -1 0 0
122 31 1 1 1 28.7694 -12.3893 0 -1 0 0
123 31 1 1 1 -28.0134 -11.5433 0 0 0 0
124 31 1 1 1 -28.7694 -10.6482 0 0 0 0
125 32 1 1 1 -23.6195 -11.7701 0 0 0 0
126 32 1 1 1 -22.7211 -12.251 0 0 0 0
127 32 1 1 1 -22.4554 -11.2673 0 0 0 0
128 32 1 1 1 -23.3537 -10.7864 0 0 0 0
129 33 1 1 1 -17.588 -11.3271 0 0 0 0
130 33 1 1 1 -17.436 -11.7741 0 0 0 0
131 33 1 1 1 -16.9681 -11.7103 0 0 0 0
132 33 1 1 1 -17.1201 -11.2633 0 0 0 0
133 34 1 1 1 -11.9906 -12.0432 0 0 0 0
134 34 1 1 1 -11.2774 -11.7358 0 0 0 0
135 34 1 1 1 -11.0468 -10.9942 0 0 0 0
136 34 1 1 1 -11.76 -11.3016 0 0 0 0
137 35 1 1 1 -6.51312 -12.0368 0 0 0 0
138 35 1 1 1 -5.50393 -11.8903 0 0 0 0
139 35 1 1 1 -5.00558 -11.0006 0 0 0 0
140 35 1 1 1 -6.01478 -11.1471 0 0 0 0
141 36 1 1 1 0.709418 -11.6012 0 0 0 0
142 36 1 1 1 0.0522561 -11.0692 0 0 0 0
143 36 1 1 1 -0.709418 -11.4362 0 0 0 0
144 36 1 1 1 -0.0522561 -11.9682 0 0 0 0
145 37 1 1 1 5.68596 -10.8484 0 0 0 0
146 37 1 1 1 5.16969 -11.5833 0 0 0 0
147 37 1 1 1 5.83275 -12.1891 0 0 0 0
148 37 1 1 1 6.34901 -11.4541 0 0 0 0
149 38 1 1 1 11.2373 -11.121 0 0 0 0
150 38 1 1 1 11.1645 -11.7693 0 0 0 0
151 38 1 1 1 11.8001 -11.9164 0 0 0 0
152 38 1 1 1 11.8729 -11.2681 0 0 0 0
153 39 1 1 1 17.0131 -11.1875 0 0 0 0
154 39 1 1 1 16.9991 -11.7418 0 0 0 0
155 39 1 1 1 17.543 -11.8499 0 0 0 0
156 39 1 1 1 17.557 -11.2956 0 0 0 0
157 40 1 1 1 23.3282 -10.7222 0 0 0 0
158 40 1 1 1 22.7967 -11.4308 0 0 0 0
159 40 1 1 1 22.7467 -12.3152 0 0 0 0
160 40 1 1 1 23.2782 -11.6066 0 0 0 0
161 41 1 1 1 -28.6773 -5.04236 0 0 0 0
162 41 1 1 1 27.8265 -5.59765 0 -1 0 0
163 41 1 1 1 28.6773 -6.47635 0 -1 0 0
164 41 1 1 1 -27.8265 -5.92105 0 0 0 0
165 42 1 1 1 -23.679 -6.49872 0 0 0 0
166 42 1 1 1 -22.4518 -6.26752 0 0 0 0
167 42 1 1 1 -22.3958 -5.01998 0 0 0 0
168 42 1 1 1 -23.623 -5.25118 0 0 0 0
169 43 1 1 1 -17.3827 -5.31551 0 0 0 0
170 43 1 1 1 -18.0508 -5.94149 0 0 0 0
171 43 1 1 1 -17.1734 -6.20319 0 0 0 0
172 43 1 1 1 -16.5053 -5.57721 0 0 0 0
173 44 1 1 1 -12.2385 -5.18374 0 0 0 0
174 44 1 1 1 -11.9599 -6.31104 0 0 0 0
175 44 1 1 1 -10.7989 -6.33496 0 0 0 0
176 44 1 1 1 -11.0775 -5.20766 0 0 0 0
177 45 1 1 1 -6.57852 -6.07134 0 0 0 0
178 45 1 1 1 -5.58493 -6.21733 0 0 0 0
179 45 1 1 1 -4.94018 -5.44736 0 0 0 0
180 45 1 1 1 -5.93378 -5.30137 0 0 0 0
181 46 1 1 1 -0.220793 -4.95971 0 0 0 0
182 46 1 1 1 -0.803261 -5.98114 0 0 0 0
183 46 1 1 1 0.220793 -6.559 0 0 0 0
184 46 1 1 1 0.803261 -5.53756 0 0 0 0
185 47 1 1 1 5.23218 -6.12727 0 0 0 0
186 47 1 1 1 6.26032 -6.47716 0 0 0 0
187 47 1 1 1 6.28652 -5.39143 0 0 0 0
188 47 1 1 1 5.25838 -5.04154 0 0 0 0
189 48 1 1 1 10.8904 -5.19226 0 0 0 0
190 48 1 1 1 10.9068 -6.4373 0 0 0 0
191 48 1 1 1 12.147 -6.32644 0 0 0 0
192 48 1 1 1 12.1306 -5.0814 0 0 0 0
193 49 1 1 1 17.5153 -6.03526 0 0 0 0
194 49 1 1 1 17.5882 -5.49267 0 0 0 0
195 49 1 1 1 17.0408 -5.48344 0 0 0 0
196 49 1 1 1 16.968 -6.02603 0 0 0 0
197 50 1 1 1 22.8684 -5.52684 0 0 0 0
198 50 1 1 1 22.4144 -6.2122 0 0 0 0
199 50 1 1 1 23.2064 -5.99186 0 0 0 0
200 50 1 1 1 23.6604 -5.3065 0 0 0 0
201 51 1 1 1 28.2322 0.393755 0 -1 0 0
202 51 1 1 1 28.3264 -0.674341 0 -1 0 0
203 51 1 1 1 -28.2322 -0.393755 0 0 0 0
204 51 1 1 1 -28.3264 0.674341 0 0 0 0
205 52 1 1 1 -23.0133 -0.864852 0 0 0 0
206 52 1 1 1 -22.5805 0.012752 0 0 0 0
207 52 1 1 1 -23.0615 0.864852 0 0 0 0
208 52 1 1 1 -23.4943 -0.012752 0 0 0 0
209 53 1 1 1 -17.1096 0.509402 0 0 0 0
210 53 1 1 1 -17.8999 0.20562 0 0 0 0
211 53 1 1 1 -17.4465 -0.509402 0 0 0 0
212 53 1 1 1 -16.6562 -0.20562 0 0 0 0
213 54 1 1 1 -11.9344 0.392084 0 0 0 0
214 54 1 1 1 -12.1598 -0.679608 0 0 0 0
215 54 1 1 1 -11.103 -0.392084 0 0 0 0
216 54 1 1 1 -10.8777 0.679608 0 0 0 0
217 55 1 1 1 -5.0209 0.609869 0 0 0 0
218 55 1 1 1 -6.09501 0.406427 0 0 0 0
219 55 1 1 1 -6.4978 -0.609869 0 0 0 0
220 55 1 1 1 -5.42369 -0.406427 0 0 0 0
221 56 1 1 1 -0.766331 -0.636824 0 0 0 0
222 56 1 1 1 0.42391 -0.510118 0 0 0 0
223 56 1 1 1 0.766331 0.636824 0 0 0 0
224 56 1 1 1 -0.42391 0.510118 0 0 0 0
225 57 1 1 1 6.02808 0.69454 0 0 0 0
226 57 1 1 1 5.07399 0.265174 0 0 0 0
227 57 1 1 1 5.49063 -0.69454 0 0 0 0
228 57 1 1 1 6.44471 -0.265174 0 0 0 0
229 58 1 1 1 12.1196 0.138821 0 0 0 0
230 58 1 1 1 11.3426 0.762139 0 0 0 0
231 58 1 1 1 10.9178 -0.138821 0 0 0 0
232 58 1 1 1 11.6948 -0.762139 0 0 0 0
233 59 1 1 1 17.5124 -0.129122 0 0 0 0
234 59 1 1 1 17.5637 0.518335 0 0 0 0
235 59 1 1 1 17.0437 0.129122 0 0 0 0
236 59 1 1 1 16.9924 -0.518335 0 0 0 0
237 60 1 1 1 22.888 0.291609 0 0 0 0
238 60 1 1 1 22.2567 -0.399972 0 0 0 0
239 60 1 1 1 23.1868 -0.291609 0 0 0 0
240 60 1 1 1 23.8182 0.399972 0 0 0 0
241 61 1 1 1 28.6083 6.09893 0 -1 0 0
242 61 1 1 1 28.4493 5.56649 0 -1 0 0
243 61 1 1 1 -28.6083 5.41977 0 0 0 0
244 61 1 1 1 -28.4493 5.95222 0 0 0 0
245 62 1 1 1 -23.3735 5.40592 0 0 0 0
246 62 1 1 1 -22.5208 5.26816 0 0 0 0
247 62 1 1 1 -22.7013 6.11278 0 0 0 0
248 62 1 1 1 -23.554 6.25054 0 0 0 0
249 63 1 1 1 -16.5998 5.2867 0 0 0 0
250 63 1 1 1 -17.1043 6.00872 0 0 0 0
251 63 1 1 1 -17.9564 6.23201 0 0 0 0
252 63 1 1 1 -17.4518 5.50998 0 0 0 0
253 64 1 1 1 -11.4174 6.45031 0 0 0 0
254 64 1 1 1 -12.0144 5.83204 0 0 0 0
255 64 1 1 1 -11.62 5.0684 0 0 0 0
256 64 1 1 1 -11.0231 5.68666 0 0 0 0
257 65 1 1 1 -5.45125 5.92361 0 0 0 0
258 65 1 1 1 -6.22327 6.62954 0 0 0 0
259 65 1 1 1 -6.06746 5.59509 0 0 0 0
260 65 1 1 1 -5.29544 4.88916 0 0 0 0
261 66 1 1 1 0.341101 5.0744 0 0 0 0
262 66 1 1 1 0.610762 6.06351 0 0 0 0
263 66 1 1 1 -0.341101 6.4443 0 0 0 0
264 66 1 1 1 -0.610762 5.45519 0 0 0 0
265 67 1 1 1 6.07693 5.53454 0 0 0 0
266 67 1 1 1 6.06192 6.18679 0 0 0 0
267 67 1 1 1 5.44177 5.98416 0 0 0 0
268 67 1 1 1 5.45678 5.33192 0 0 0 0
269 68 1 1 1 11.7744 5.28373 0 0 0 0
270 68 1 1 1 12.2721 6.16439 0 0 0 0
271 68 1 1 1 11.263 6.23497 0 0 0 0
272 68 1 1 1 10.7653 5.35431 0 0 0 0
273 69 1 1 1 16.9911 6.1552 0 0 0 0
274 69 1 1 1 16.5184 5.2087 0 0 0 0
275 69 1 1 1 17.565 5.36351 0 0 0 0
276 69 1 1 1 18.0377 6.31 0 0 0 0
277 70 1 1 1 22.8376 5.31128 0 0 0 0
278 70 1 1 1 23.6976 5.46491 0 0 0 0
279 70 1 1 1 23.2372 6.20742 0 0 0 0
280 70 1 1 1 22.3772 6.05379 0 0 0 0
281 71 1 1 1 28.5809 11.0283 0 -1 0 0
282 71 1 1 1 -28.353 11.3234 0 0 0 0
283 71 1 1 1 -28.5809 12.0091 0 0 0 0
284 71 1 1 1 28.353 11.714 0 -1 0 0
285 72 1 1 1 -23.2084 10.5593 0 0 0 0
286 72 1 1 1 -22.6426 11.4483 0 0 0 0
287 72 1 1 1 -22.8664 12.4781 0 0 0 0
288 72 1 1 1 -23.4322 11.5891 0 0 0 0
289 73 1 1 1 -17.6747 11.9001 0 0 0 0
290 73 1 1 1 -17.6243 11.1586 0 0 0 0
291 73 1 1 1 -16.8814 11.1373 0 0 0 0
292 73 1 1 1 -16.9318 11.8788 0 0 0 0
293 74 1 1 1 -11.0069 11.4372 0 0 0 0
294 74 1 1 1 -11.3904 12.3248 0 0 0 0
295 74 1 1 1 -12.0305 11.6002 0 0 0 0
296 74 1 1 1 -11.647 10.7126 0 0 0 0
297 75 1 1 1 -5.80368 11.1874 0 0 0 0
298 75 1 1 1 -4.90688 11.4046 0 0 0 0
299 75 1 1 1 -5.71503 11.85 0 0 0 0
300 75 1 1 1 -6.61182 11.6328 0 0 0 0
301 76 1 1 1 -0.586451 12.0264 0 0 0 0
302 76 1 1 1 -0.188835 11.3006 0 0 0 0
303 76 1 1 1 0.586451 11.011 0 0 0 0
304 76 1 1 1 0.188835 11.7368 0 0 0 0
305 77 1 1 1 6.22845 12.1516 0 0 0 0
306 77 1 1 1 5.2008 11.9327 0 0 0 0
307 77 1 1 1 5.29025 10.8858 0 0 0 0
308 77 1 1 1 6.3179 11.1047 0 0 0 0
309 78 1 1 1 10.9704 12.1231 0 0 0 0
310 78 1 1 1 10.8939 10.9519 0 0 0 0
311 78 1 1 1 12.067 10.9143 0 0 0 0
312 78 1 1 1 12.1435 12.0855 0 0 0 0
313 79 1 1 1 17.3531 10.6323 0 0 0 0
314 79 1 1 1 18.1341 11.5912 0 0 0 0
315 79 1 1 1 17.203 12.4051 0 0 0 0
316 79 1 1 1 16.422 11.4462 0 0 0 0
317 80 1 1 1 22.4256 11.8597 0 0 0 0
318 80 1 1 1 22.65 10.8236 0 0 0 0
319 80 1 1 1 23.6492 11.1777 0 0 0 0
320 80 1 1 1 23.4249 12.2138 0 0 0 0
321 81 1 1 1 -28.6481 18.074 0 0 0 0
322 81 1 1 1 28.5309 17.3277 0 -1 0 0
323 81 1 1 1 28.6481 16.4821 0 -1 0 0
324 81 1 1 1 -28.5309 17.2284 0 0 0 0
325 82 1 1 1 -23.8539 17.2563 0 0 0 0
326 82 1 1 1 -23.0202 16.6303 0 0 0 0
327 82 1 1 1 -22.2209 17.2998 0 0 0 0
328 82 1 1 1 -23.0546 17.9258 0 0 0 0
329 83 1 1 1 -17.9338 16.858 0 0 0 0
330 83 1 1 1 -16.9111 16.7051 0 0 0 0
331 83 1 1 1 -16.6223 17.6981 0 0 0 0
332 83 1 1 1 -17.6451 17.851 0 0 0 0
333 84 1 1 1 -11.2617 17.4676 0 0 0 0
334 84 1 1 1 -11.9515 17.8649 0 0 0 0
335 84 1 1 1 -11.7758 17.0885 0 0 0 0
336 84 1 1 1 -11.0859 16.6912 0 0 0 0
337 85 1 1 1 -5.99262 16.7237 0 0 0 0
338 85 1 1 1 -5.40226 17.1278 0 0 0 0
339 85 1 1 1 -5.52608 17.8324 0 0 0 0
340 85 1 1 1 -6.11644 17.4283 0 0 0 0
341 86 1 1 1 0.205931 17.6343 0 0 0 0
342 86 1 1 1 -0.591778 17.6201 0 0 0 0
343 86 1 1 1 -0.205931 16.9218 0 0 0 0
344 86 1 1 1 0.591778 16.936 0 0 0 0
345 87 1 1 1 6.16974 17.7806 0 0 0 0
346 87 1 1 1 5.23206 17.7087 0 0 0 0
347 87 1 1 1 5.34896 16.7755 0 0 0 0
348 87 1 1 1 6.28664 16.8474 0 0 0 0
349 88 1 1 1 11.7545 16.833 0 0 0 0
350 88 1 1 1 12.1777 17.6273 0 0 0 0
351 88 1 1 1 11.2829 17.7231 0 0 0 0
352 88 1 1 1 10.8597 16.9288 0 0 0 0
353 89 1 1 1 16.4715 17.1186 0 0 0 0
354 89 1 1 1 17.3692 16.817 0 0 0 0
355 89 1 1 1 18.0846 17.4375 0 0 0 0
356 89 1 1 1 17.1869 17.7392 0 0 0 0
357 90 1 1 1 23.4274 17.5451 0 0 0 0
358 90 1 1 1 22.8064 17.6154 0 0 0 0
359 90 1 1 1 22.6475 17.011 0 0 0 0
360 90 1 1 1 23.2684 16.9407 0 0 0 0
361 91 1 1 1 -28.6453 22.7245 0 0 0 0
362 91 1 1 1 -28.0364 23.4055 0 0 0 0
363 91 1 1 1 28.6453 23.3503 0 -1 0 0
364 91 1 1 1 28.0364 22.6693 0 -1 0 0
365 92 1 1 1 -23.415 22.4584 0 0 0 0
366 92 1 1 1 -22.8266 22.8999 0 0 0 0
367 92 1 1 1 -22.6598 23.6164 0 0 0 0
368 92 1 1 1 -23.2482 23.1749 0 0 0 0
369 93 1 1 1 -17.9783 22.3854 0 0 0 0
370 93 1 1 1 -16.7708 22.4926 0 0 0 0
371 93 1 1 1 -16.5778 23.6894 0 0 0 0
372 93 1 1 1 -17.7853 23.5822 0 0 0 0
373 94 1 1 1 -12.3184 23.1395 0 0 0 0
374 94 1 1 1 -11.5549 22.7541 0 0 0 0
375 94 1 1 1 -10.719 22.9353 0 0 0 0
376 94 1 1 1 -11.4825 23.3207 0 0 0 0
377 95 1 1 1 -5.13199 23.3415 0 0 0 0
378 95 1 1 1 -6.15108 23.8457 0 0 0 0
379 95 1 1 1 -6.38671 22.7334 0 0 0 0
380 95 1 1 1 -5.36763 22.2291 0 0 0 0
381 96 1 1 1 0.465737 22.4586 0 0 0 0
382 96 1 1 1 0.641466 23.5535 0 0 0 0
383 96 1 1 1 -0.465737 23.6163 0 0 0 0
384 96 1 1 1 -0.641466 22.5213 0 0 0 0
385 97 1 1 1 4.94637 23.3443 0 0 0 0
386 97 1 1 1 5.54566 22.4712 0 0 0 0
387 97 1 1 1 6.57233 22.7306 0 0 0 0
388 97 1 1 1 5.97305 23.6036 0 0 0 0
389 98 1 1 1 11.4078 23.3914 0 0 0 0
390 98 1 1 1 11.1532 22.9229 0 0 0 0
391 98 1 1 1 11.6296 22.6834 0 0 0 0
392 98 1 1 1 11.8842 23.152 0 0 0 0
393 99 1 1 1 17.0826 22.1843 0 0 0 0
394 99 1 1 1 18.1019 22.8487 0 0 0 0
395 99 1 1 1 17.4735 23.8905 0 0 0 0
396 99 1 1 1 16.4543 23.2262 0 0 0 0
397 100 1 1 1 23.5666 22.3962 0 0 0 0
398 100 1 1 1 23.8008 23.6675 0 0 0 0
399 100 1 1 1 22.5082 23.6786 0 0 0 0
400 100 1 1 1 22.274 22.4073 0 0 0 0

Lines

1 29.1211 -28.0871 28.0191 -28.7331
2 28.0191 28.8604 28.4724 28.0871
3 -29.1211 28.0871 -28.0191 28.7331
4 -28.0191 -28.8604 -28.4724 -28.0871
5 -23.0962 27.8506 -22.2407 28.2831
6 -22.2407 -29.3104 -22.9786 -27.8506
7 -22.9786 -27.8506 -23.8341 -28.2831
8 -23.8341 29.3104 -23.0962 27.8506
9 -16.922 27.6175 -16.0601 28.9814
10 -16.0601 -28.6122 -17.6342 -27.6175
11 -17.6342 -27.6175 -18.496 -28.9814
12 -18.496 28.6122 -16.922 27.6175
13 -11.6921 28.2472 -11.177 28.3327
14 -11.177 -29.2608 -11.3453 -28.2472
15 -11.3453 -28.2472 -11.8604 -28.3327
16 -11.8604 29.2608 -11.6921 28.2472
17 -5.86539 28.0855 -5.0879 28.5393
18 -5.0879 -29.0543 -5.65331 -28.0855
19 -5.65331 -28.0855 -6.43081 -28.5393
20 -6.43081 29.0543 -5.86539 28.0855
21 -0.630386 29.1124 0.17744 28.1144
22 0.17744 28.1144 0.630386 28.4811
23 0.630386 -29.1124 -0.17744 -28.1144
24 -0.17744 -28.1144 -0.630386 -28.4811
25 6.90375 -28.5449 5.14311 -27.8001
26 5.14311 -27.8001 4.61495 -29.0486
27 4.61495 28.5449 6.3756 27.8001
28 6.3756 27.8001 6.90375 29.0486
29 10.9776 -28.4535 10.9519 -29.0957
30 10.9519 28.4979 12.0598 28.4535
31 12.0598 28.4535 12.0855 29.0957
32 12.0855 -28.4979 10.9776 -28.4535
33 17.1134 27.8401 18.1213 28.3158
34 18.1213 -29.2778 17.4427 -27.8401
35 17.4427 -27.8401 16.4349 -28.3158
36 16.4349 29.2778 17.1134 27.8401
37 23.8111 27.7743 23.9213 29.7257
38 23.9213 -27.8679 22.2637 -27.7743
39 22.2637 -27.7743 22.1536 -29.7257
40 22.1536 27.8679 23.8111 27.7743
41 -27.7124 -22.3094 -29.6353 -22.0361
42 27.9582 -22.0361 27.7124 -23.7654
43 27.7124 -23.7654 29.6353 -24.0388
44 -27.9582 -24.0388 -27.7124 -22.3094
45 -22.2466 -22.6607 -23.1108 -22.1645
46 -23.1108 -22.1645 -23.8282 -23.4141
47 -23.8282 -23.4141 -22.964 -23.9103
48 -22.964 -23.9103 -22.2466 -22.6607
49 -18.0169 -23.6355 -16.411 -23.427
50 -16.411 -23.427 -16.5393 -22.4393
51 -16.5393 -22.4393 -18.1451 -22.6478
52 -18.1451 -22.6478 -18.0169 -23.6355
53 -10.358 -23.0321 -11.1055 -21.9527
54 -11.1055 -21.9527 -12.6794 -23.0427
55 -12.6794 -23.0427 -11.9319 -24.1221
56 -11.9319 -24.1221 -10.358 -23.0321
57 -5.16164 -22.6472 -5.69004 -22.327
58 -5.69004 -22.327 -6.35706 -23.4276
59 -6.35706 -23.4276 -5.82866 -23.7479
60 -5.82866 -23.7479 -5.16164 -22.6472
61 -0.181747 -24.0975 0.860134 -22.3917
62 0.860134 -22.3917 0.181747 -21.9774
63 0.181747 -21.9774 -0.860134 -23.6831
64 -0.860134 -23.6831 -0.181747 -24.0975
65 5.99137 -24.1063 6.49398 -22.227
66 6.49398 -22.227 5.52733 -21.9685
67 5.52733 -21.9685 5.02472 -23.8478
68 5.02472 -23.8478 5.99137 -24.1063
69 11.8362 -23.5553 12.0499 -22.7427
70 12.0499 -22.7427 11.2012 -22.5195
71 11.2012 -22.5195 10.9875 -23.3321
72 10.9875 -23.3321 11.8362 -23.5553
73 17.345 -22.1794 16.5873 -22.5242
74 16.5873 -22.5242 17.2111 -23.8954
75 17.2111 -23.8954 17.9688 -23.5507
76 17.9688 -23.5507 17.345 -22.1794
77 22.701 -22.1774 22.7204 -23.9048
78 22.7204 -23.9048 23.3738 -23.8975
79 23.3738 -23.8975 23.3544 -22.17
80 23.3544 -22.17 22.701 -22.1774
81 -29.0189 -18.1003 -28.1698 -17.8546
82 -28.1698 -17.8546 -28.5746 -16.4558
83 29.0189 -16.4558 28.1698 -16.7015
84 28.1698 -16.7015 28.5746 -18.1003
85 -22.2224 -16.3521 -24.1316 -16.7085
86 -24.1316 -16.7085 -23.8524 -18.204
87 -23.8524 -18.204 -21.9432 -17.8476
88 -21.9432 -17.8476 -22.2224 -16.3521
89 -16.3955 -17.7984 -17.2546 -16.2537
90 -17.2546 -16.2537 -18.1606 -16.7577
91 -18.1606 -16.7577 -17.3015 -18.3024
92 -17.3015 -18.3024 -16.3955 -17.7984
93 -11.3004 -17.6451 -11.176 -17.0233
94 -11.176 -17.0233 -11.737 -16.911
95 -11.737 -16.911 -11.8614 -17.5329
96 -11.8614 -17.5329 -11.3004 -17.6451
97 -5.51619 -18.0261 -4.9832 -17.1506
98 -4.9832 -17.1506 -6.00252 -16.53
99 -6.00252 -16.53 -6.5355 -17.4055
100 -6.5355 -17.4055 -5.51619 -18.0261
101 -0.551363 -17.6396 0.559833 -17.6263
102 0.559833 -17.6263 0.551363 -16.9165
103 0.551363 -16.9165 -0.559833 -16.9298
104 -0.559833 -16.9298 -0.551363 -17.6396
105 5.77137 -18.4406 6.92176 -17.2993
106 6.92176 -17.2993 5.74733 -16.1155
107 5.74733 -16.1155 4.59694 -17.2568
108 4.59694 -17.2568 5.77137 -18.4406
109 10.7191 -16.8287 10.6402 -17.5415
110 10.6402 -17.5415 12.3183 -17.7274
111 12.3183 -17.7274 12.3973 -17.0146
112 12.3973 -17.0146 10.7191 -16.8287
113 16.8209 -16.1663 16.0994 -17.5139
114 16.0994 -17.5139 17.7352 -18.3898
115 17.7352 -18.3898 18.4567 -17.0422
116 18.4567 -17.0422 16.8209 -16.1663
117 22.9962 -16.5412 22.3216 -17.4578
118 22.3216 -17.4578 23.0786 -18.0149
119 23.0786 -18.0149 23.7532 -17.0983
120 23.7532 -17.0983 22.9962 -16.5412
121 28.0407 -10.6235 27.9861 -12.3646
122 27.9861 -12.3646 29.5528 -12.4139
123 -28.0407 -12.4139 -27.9861 -10.6728
124 -27.9861 -10.6728 -29.5528 -10.6235
125 -23.9357 -11.0378 -23.3032 -12.5024
126 -23.3032 -12.5024 -22.1391 -11.9996
127 -22.1391 -11.9996 -22.7716 -10.535
128 -22.7716 -10.535 -23.9357 -11.0378
129 -17.4301 -11.0716 -17.7459 -11.5825
130 -17.7459 -11.5825 -17.126 -11.9658
131 -17.126 -11.9658 -16.8102 -11.4549
132 -16.8102 -11.4549 -17.4301 -11.0716
133 -12.2319 -11.8261 -11.7492 -12.2603
134 -11.7492 -12.2603 -10.8055 -11.2114
135 -10.8055 -11.2114 -11.2882 -10.7771
136 -11.2882 -10.7771 -12.2319 -11.8261
137 -6.76855 -11.6652 -6.2577 -12.4084
138 -6.2577 -12.4084 -4.75016 -11.3722
139 -4.75016 -11.3722 -5.26101 -10.629
140 -5.26101 -10.629 -6.76855 -11.6652
141 0.657161 -12.0507 0.761674 -11.1517
142 0.761674 -11.1517 -0.657161 -10.9867
143 -0.657161 -10.9867 -0.761674 -11.8857
144 -0.761674 -11.8857 0.657161 -12.0507
145 6.27562 -10.7838 5.0963 -10.9129
146 5.0963 -10.9129 5.24308 -12.2536
147 5.24308 -12.2536 6.42241 -12.1245
148 6.42241 -12.1245 6.27562 -10.7838
149 11.5914 -10.8704 10.8831 -11.3716
150 10.8831 -11.3716 11.446 -12.167
151 11.446 -12.167 12.1543 -11.6658
152 12.1543 -11.6658 11.5914 -10.8704
153 17.292 -10.9644 16.7342 -11.4107
154 16.7342 -11.4107 17.2641 -12.073
155 17.2641 -12.073 17.8219 -11.6267
156 17.8219 -11.6267 17.292 -10.9644
157 23.5689 -10.8101 23.0874 -10.6343
158 23.0874 -10.6343 22.5059 -12.2273
159 22.5059 -12.2273 22.9874 -12.4031
160 22.9874 -12.4031 23.5689 -10.8101
161 -27.707 -5.20405 -29.6475 -4.88066
162 27.946 -4.88066 27.707 -6.31465
163 27.707 -6.31465 29.6475 -6.63804
164 -27.946 -6.63804 -27.707 -5.20405
165 -24.2646 -5.99055 -23.0934 -7.00689
166 -23.0934 -7.00689 -21.8102 -5.52815
167 -21.8102 -5.52815 -22.9814 -4.51181
168 -22.9814 -4.51181 -24.2646 -5.99055
169 -16.6099 -5.13337 -18.1554 -5.49765
170 -18.1554 -5.49765 -17.9462 -6.38533
171 -17.9462 -6.38533 -16.4007 -6.02105
172 -16.4007 -6.02105 -16.6099 -5.13337
173 -11.7973 -4.63205 -12.6797 -5.73543
174 -12.6797 -5.73543 -11.2401 -6.88665
175 -11.2401 -6.88665 -10.3577 -5.78327
176 -10.3577 -5.78327 -11.7973 -4.63205
177 -6.75295 -5.61336 -6.4041 -6.52932
178 -6.4041 -6.52932 -4.76576 -5.90534
179 -4.76576 -5.90534 -5.11461 -4.98938
180 -5.11461 -4.98938 -6.75295 -5.61336
181 0.582467 -4.73792 -1.02405 -5.1815
182 -1.02405 -5.1815 -0.582467 -6.78079
183 -0.582467 -6.78079 1.02405 -6.3372
184 1.02405 -6.3372 0.582467 -4.73792
185 4.73121 -5.40946 5.73315 -6.84508
186 5.73315 -6.84508 6.7875 -6.10924
187 6.7875 -6.10924 5.78555 -4.67362
188 5.78555 -4.67362 4.73121 -5.40946
189 11.5023 -4.51431 10.2785 -5.87021
190 10.2785 -5.87021 11.5351 -7.00439
191 11.5351 -7.00439 12.7589 -5.64849
192 12.7589 -5.64849 11.5023 -4.51431
193 17.2052 -6.30195 17.8254 -5.76858
194 17.8254 -5.76858 17.3509 -5.21676
195 17.3509 -5.21676 16.7307 -5.75012
196 16.7307 -5.75012 17.2052 -6.30195
197 23.4914 -5.07399 22.2454 -5.97969
198 22.2454 -5.97969 22.5834 -6.44471
199 22.5834 -6.44471 23.8294 -5.53901
200 23.8294 -5.53901 23.4914 -5.07399
201 28.7025 1.0681 27.7619 -0.280586
202 27.7619 -0.280586 28.891 -1.0681
203 -28.7025 -1.0681 -27.7619 0.280586
204 -27.7619 0.280586 -28.891 1.0681
205 -23.4701 -0.877604 -22.5564 -0.8521
206 -22.5564 -0.8521 -22.6047 0.877604
207 -22.6047 0.877604 -23.5184 0.8521
208 -23.5184 0.8521 -23.4701 -0.877604
209 -16.4878 0.303781 -17.7315 0.715022
210 -17.7315 0.715022 -18.0684 -0.303781
211 -18.0684 -0.303781 -16.8246 -0.715022
212 -16.8246 -0.715022 -16.4878 0.303781
213 -11.2933 1.07169 -12.5754 -0.287524
214 -12.5754 -0.287524 -11.7441 -1.07169
215 -11.7441 -1.07169 -10.462 0.287524
216 -10.462 0.287524 -11.2933 1.07169
217 -4.68524 0.203442 -5.35656 1.0163
218 -5.35656 1.0163 -6.83346 -0.203442
219 -6.83346 -0.203442 -6.16215 -1.0163
220 -6.16215 -1.0163 -4.68524 0.203442
221 -1.19024 -0.126705 -0.342421 -1.14694
222 -0.342421 -1.14694 1.19024 0.126705
223 1.19024 0.126705 0.342421 1.14694
224 0.342421 1.14694 -1.19024 -0.126705
225 6.71344 0.429367 5.34272 0.959714
226 5.34272 0.959714 4.80527 -0.429367
227 4.80527 -0.429367 6.17599 -0.959714
228 6.17599 -0.959714 6.71344 0.429367
229 12.2957 -0.623318 11.9436 0.90096
230 11.9436 0.90096 10.7417 0.623318
231 10.7417 0.623318 11.0938 -0.90096
232 11.0938 -0.90096 12.2957 -0.623318
233 17.2267 -0.647457 17.798 0.389214
234 17.798 0.389214 17.3294 0.647457
235 17.3294 0.647457 16.7581 -0.389214
236 16.7581 -0.389214 17.2267 -0.647457
237 23.6688 0.691581 22.1073 -0.108364
238 22.1073 -0.108364 22.406 -0.691581
239 22.406 -0.691581 23.9675 0.108364
240 23.9675 0.108364 23.6688 0.691581
241 28.9557 6.2918 28.2608 5.90606
242 28.2608 5.90606 28.6378 5.22691
243 -28.9557 5.22691 -28.2608 5.61264
244 -28.2608 5.61264 -28.6378 6.2918
245 -23.89 5.89712 -22.8569 4.91473
246 -22.8569 4.91473 -22.1848 5.62159
247 -22.1848 5.62159 -23.2179 6.60397
248 -23.2179 6.60397 -23.89 5.89712
249 -16.7735 5.03733 -16.426 5.53607
250 -16.426 5.53607 -17.7826 6.48138
251 -17.7826 6.48138 -18.1301 5.98264
252 -18.1301 5.98264 -16.7735 5.03733
253 -10.9217 6.37762 -11.913 6.523
254 -11.913 6.523 -12.1157 5.14109
255 -12.1157 5.14109 -11.1244 4.99571
256 -11.1244 4.99571 -10.9217 6.37762
257 -4.98733 5.05342 -5.91516 6.7938
258 -5.91516 6.7938 -6.53137 6.46528
259 -6.53137 6.46528 -5.60354 4.7249
260 -5.60354 4.7249 -4.98733 5.05342
261 -0.26966 4.77025 0.951863 5.37856
262 0.951863 5.37856 0.26966 6.74846
263 0.26966 6.74846 -0.951863 6.14014
264 -0.951863 6.14014 -0.26966 4.77025
265 5.77436 5.10711 6.3795 5.96198
266 6.3795 5.96198 5.74434 6.41159
267 5.74434 6.41159 5.1392 5.55672
268 5.1392 5.55672 5.77436 5.10711
269 11.021 4.87869 12.5278 5.68877
270 12.5278 5.68877 12.0164 6.64001
271 12.0164 6.64001 10.5096 5.82993
272 10.5096 5.82993 11.021 4.87869
273 17.7507 6.70584 16.2315 5.60455
274 16.2315 5.60455 16.8054 4.81286
275 16.8054 4.81286 18.3246 5.91415
276 18.3246 5.91415 17.7507 6.70584
277 22.1774 5.60572 23.4977 5.01684
278 23.4977 5.01684 23.8974 5.91298
279 23.8974 5.91298 22.5771 6.50186
280 22.5771 6.50186 22.1774 5.60572
281 28.1372 11.2236 29.0247 10.833
282 -28.5688 10.833 -28.1372 11.8138
283 -28.1372 11.8138 -29.0247 12.2044
284 28.5688 12.2044 28.1372 11.2236
285 -23.6032 10.6297 -22.8136 10.489
286 -22.8136 10.489 -22.4716 12.4077
287 -22.4716 12.4077 -23.2612 12.5484
288 -23.2612 12.5484 -23.6032 10.6297
289 -17.3285 12.2602 -18.0209 11.54
290 -18.0209 11.54 -17.2277 10.7772
291 -17.2277 10.7772 -16.5352 11.4974
292 -16.5352 11.4974 -17.3285 12.2602
293 -11.1352 10.6311 -10.8786 12.2433
294 -10.8786 12.2433 -11.9022 12.4063
295 -11.9022 12.4063 -12.1588 10.7941
296 -12.1588 10.7941 -11.1352 10.6311
297 -6.65614 11.3015 -4.95121 11.0734
298 -4.95121 11.0734 -4.86256 11.7359
299 -4.86256 11.7359 -6.56749 11.964
300 -6.56749 11.964 -6.65614 11.3015
301 -0.397617 12.2445 -0.775286 11.8083
302 -0.775286 11.8083 0.397617 10.7929
303 0.397617 10.7929 0.775286 11.2291
304 0.775286 11.2291 -0.397617 12.2445
305 6.787 11.7376 5.6699 12.5656
306 5.6699 12.5656 4.73171 11.2998
307 4.73171 11.2998 5.8488 10.4718
308 5.8488 10.4718 6.787 11.7376
309 11.5952 12.6899 10.3456 11.5563
310 10.3456 11.5563 11.4422 10.3475
311 11.4422 10.3475 12.6918 11.4811
312 12.6918 11.4811 11.5952 12.6899
313 16.4971 10.5598 18.2091 10.7048
314 18.2091 10.7048 18.059 12.4776
315 18.059 12.4776 16.347 12.3326
316 16.347 12.3326 16.4971 10.5598
317 22.8131 12.5548 22.0382 11.1645
318 22.0382 11.1645 23.2617 10.4826
319 23.2617 10.4826 24.0366 11.8729
320 24.0366 11.8729 22.8131 12.5548
321 -28.3823 18.0244 -28.914 18.1236
322 28.6795 18.1236 28.3823 16.5317
323 28.3823 16.5317 28.914 16.4325
324 -28.6795 16.4325 -28.3823 18.0244
325 -23.8712 17.904 -23.8367 16.6086
326 -23.8367 16.6086 -22.2036 16.6521
327 -22.2036 16.6521 -22.2381 17.9475
328 -22.2381 17.9475 -23.8712 17.904
329 -18.3008 17.4309 -17.5668 16.2851
330 -17.5668 16.2851 -16.2553 17.1252
331 -16.2553 17.1252 -16.9893 18.271
332 -16.9893 18.271 -18.3008 17.4309
333 -10.8288 16.8808 -11.6945 18.0545
334 -11.6945 18.0545 -12.2086 17.6753
335 -12.2086 17.6753 -11.3429 16.5016
336 -11.3429 16.5016 -10.8288 16.8808
337 -6.34971 16.874 -5.63553 16.5734
338 -5.63553 16.5734 -5.16899 17.6821
339 -5.16899 17.6821 -5.88317 17.9827
340 -5.88317 17.9827 -6.34971 16.874
341 0.797709 17.2922 -0.385847 17.9764
342 -0.385847 17.9764 -0.797709 17.2639
343 -0.797709 17.2639 0.385847 16.5797
344 0.385847 16.5797 0.797709 17.2922
345 6.69703 17.35 5.64245 18.2112
346 5.64245 18.2112 4.82167 17.2061
347 4.82167 17.2061 5.87625 16.3449
348 5.87625 16.3449 6.69703 17.35
349 11.0955 16.4838 12.4136 17.1822
350 12.4136 17.1822 11.9419 18.0723
351 11.9419 18.0723 10.6238 17.3739
352 10.6238 17.3739 11.0955 16.4838
353 16.3803 17.5797 16.5627 16.6575
354 16.5627 16.6575 18.1758 16.9764
355 18.1758 16.9764 17.9934 17.8986
356 17.9934 17.8986 16.3803 17.5797
357 23.6584 17.2077 23.1963 17.8824
358 23.1963 17.8824 22.4164 17.3484
359 22.4164 17.3484 22.8785 16.6737
360 22.8785 16.6737 23.6584 17.2077
361 -29.4056 22.3564 -27.8849 23.0927
362 -27.8849 23.0927 -28.1879 23.7184
363 29.4056 23.7184 27.8849 22.9821
364 27.8849 22.9821 28.1879 22.3564
365 -23.6258 22.5959 -23.2042 22.321
366 -23.2042 22.321 -22.449 23.4789
367 -22.449 23.4789 -22.8706 23.7538
368 -22.8706 23.7538 -23.6258 22.5959
369 -18.4856 22.9301 -17.4711 21.8406
370 -17.4711 21.8406 -16.0706 23.1447
371 -16.0706 23.1447 -17.085 24.2342
372 -17.085 24.2342 -18.4856 22.9301
373 -12.2822 23.4228 -12.3545 22.8562
374 -12.3545 22.8562 -10.7552 22.652
375 -10.7552 22.652 -10.6829 23.2186
376 -10.6829 23.2186 -12.2822 23.4228
377 -4.74027 22.5332 -5.52372 24.1497
378 -5.52372 24.1497 -6.77844 23.5416
379 -6.77844 23.5416 -5.99499 21.9251
380 -5.99499 21.9251 -4.74027 22.5332
381 -0.175729 21.9424 1.1072 22.9747
382 1.1072 22.9747 0.175729 24.1324
383 0.175729 24.1324 -1.1072 23.1001
384 -1.1072 23.1001 -0.175729 21.9424
385 5.16007 23.9104 4.73267 22.7781
386 4.73267 22.7781 6.35864 22.1644
387 6.35864 22.1644 6.78603 23.2967
388 6.78603 23.2967 5.16007 23.9104
389 11.7733 23.5059 11.0423 23.2768
390 11.0423 23.2768 11.2641 22.5689
391 11.2641 22.5689 11.9951 22.798