LAMMPS data file for Nanoparticles
350 atoms
350 lines
1 atom types
-22.553882286 22.553882286 xlo xhi
-22.553882286 22.553882286 ylo yhi
-0.5 0.5 zlo zhi

Atoms

1 1 1 1 1 -21.9309 22.372 0 0 -1 0
2 1 1 1 1 -22.3524 -21.8641 0 0 0 0
3 1 1 1 1 21.9309 -22.372 0 -1 0 0
4 1 1 1 1 22.3524 21.8641 0 -1 -1 0
5 2 1 1 1 -17.6247 22.2537 0 0 -1 0
6 2 1 1 1 -17.8301 -22.257 0 0 0 0
7 2 1 1 1 -18.2561 22.257 0 0 -1 0
8 3 1 1 1 -13.0449 22.1713 0 0 -1 0
9 3 1 1 1 -13.3179 -22.2807 0 0 0 0
10 3 1 1 1 -13.7468 22.2807 0 0 -1 0
11 4 1 1 1 -8.75987 22.3547 0 0 -1 0
12 4 1 1 1 -8.66487 -22.0853 0 0 0 0
13 4 1 1 1 -9.28324 -22.3547 0 0 0 0
14 4 1 1 1 -9.37823 22.0853 0 0 -1 0
15 5 1 1 1 -5.19054 22.1792 0 0 -1 0
16 5 1 1 1 -4.30473 22.1801 0 0 -1 0
17 5 1 1 1 -3.83102 -22.1792 0 0 0 0
18 5 1 1 1 -4.71682 -22.1801 0 0 0 0
19 6 1 1 1 0.436469 21.6771 0 0 -1 0
20 6 1 1 1 0.803611 -22.1538 0 0 0 0
21 6 1 1 1 -0.436469 -21.6771 0 0 0 0
22 6 1 1 1 -0.803611 22.1538 0 0 -1 0
23 7 1 1 1 4.0932 -22.1592 0 0 0 0
24 7 1 1 1 4.32148 22.3536 0 0 -1 0
25 7 1 1 1 4.70007 -22.3536 0 0 0 0
26 8 1 1 1 8.90597 -22.1682 0 0 0 0
27 8 1 1 1 8.83184 22.497 0 0 -1 0
28 8 1 1 1 9.21127 -22.497 0 0 0 0
29 9 1 1 1 14.0318 22.1687 0 0 -1 0
30 9 1 1 1 13.7514 -22.2698 0 0 0 0
31 9 1 1 1 13.3132 22.2698 0 0 -1 0
32 10 1 1 1 18.0006 -21.8677 0 0 0 0
33 10 1 1 1 17.7358 22.5348 0 0 -1 0
34 10 1 1 1 18.3504 -22.5348 0 0 0 0
35 11 1 1 1 -21.9981 -18.4031 0 0 0 0
36 11 1 1 1 -22.358 -17.7407 0 0 0 0
37 11 1 1 1 22.358 -18.3455 0 -1 0 0
38 12 1 1 1 -18.6386 -17.7329 0 0 0 0
39 12 1 1 1 -18.2077 -18.3592 0 0 0 0
40 12 1 1 1 -17.4476 -18.3533 0 0 0 0
41 12 1 1 1 -17.8785 -17.727 0 0 0 0
42 13 1 1 1 -13.0344 -17.9667 0 0 0 0
43 13 1 1 1 -13.5538 -17.9034 0 0 0 0
44 13 1 1 1 -13.5109 -18.1828 0 0 0 0
45 14 1 1 1 -9.32865 -17.4667 0 0 0 0
46 14 1 1 1 -9.21311 -18.1452 0 0 0 0
47 14 1 1 1 -8.82999 -17.941 0 0 0 0
48 15 1 1 1 -4.21523 -17.4899 0 0 0 0
49 15 1 1 1 -4.64996 -17.9688 0 0 0 0
50 15 1 1 1 -4.3716 -18.1175 0 0 0 0
51 16 1 1 1 0.355481 -17.6597 0 0 0 0
52 16 1 1 1 -0.116783 -17.9348 0 0 0 0
53 16 1 1 1 0.116783 -18.1514 0 0 0 0
54 17 1 1 1 4.16941 -18.5613 0 0 0 0
55 17 1 1 1 4.70167 -18.1689 0 0 0 0
56 17 1 1 1 4.31988 -17.9173 0 0 0 0
57 18 1 1 1 9.18105 -17.4322 0 0 0 0
58 18 1 1 1 8.8305 -17.9932 0 0 0 0
59 18 1 1 1 9.2126 -18.093 0 0 0 0
60 19 1 1 1 13.9797 -17.4947 0 0 0 0
61 19 1 1 1 13.0419 -17.643 0 0 0 0
62 19 1 1 1 13.085 -18.5915 0 0 0 0
63 19 1 1 1 14.0228 -18.4432 0 0 0 0
64 20 1 1 1 17.6859 -17.5436 0 0 0 0
65 20 1 1 1 17.7824 -18.2295 0 0 0 0
66 20 1 1 1 18.3038 -17.8567 0 0 0 0
67 21 1 1 1 -21.757 -13.1132 0 0 0 0
68 21 1 1 1 22.1712 -12.8047 0 -1 0 0
69 21 1 1 1 21.757 -13.9514 0 -1 0 0
70 21 1 1 1 -22.1712 -14.26 0 0 0 0
71 22 1 1 1 -17.0495 -13.5484 0 0 0 0
72 22 1 1 1 -18.0285 -12.631 0 0 0 0
73 22 1 1 1 -19.0367 -13.5162 0 0 0 0
74 22 1 1 1 -18.0577 -14.4336 0 0 0 0
75 23 1 1 1 -13.6605 -13.2555 0 0 0 0
76 23 1 1 1 -13.8606 -13.6843 0 0 0 0
77 23 1 1 1 -13.2041 -13.3804 0 0 0 0
78 24 1 1 1 -8.8417 -13.0895 0 0 0 0
79 24 1 1 1 -9.86336 -13.1904 0 0 0 0
80 24 1 1 1 -9.20141 -13.9752 0 0 0 0
81 24 1 1 1 -8.17975 -13.8742 0 0 0 0
82 25 1 1 1 -4.61283 -13.2697 0 0 0 0
83 25 1 1 1 -5.18814 -13.7956 0 0 0 0
84 25 1 1 1 -4.40872 -13.7949 0 0 0 0
85 25 1 1 1 -3.83341 -13.2691 0 0 0 0
86 26 1 1 1 -0.346099 -12.7198 0 0 0 0
87 26 1 1 1 -0.291743 -13.6566 0 0 0 0
88 26 1 1 1 0.346099 -14.3448 0 0 0 0
89 26 1 1 1 0.291743 -13.4081 0 0 0 0
90 27 1 1 1 4.51904 -14.1033 0 0 0 0
91 27 1 1 1 4.80008 -13.5281 0 0 0 0
92 27 1 1 1 4.50251 -12.9614 0 0 0 0
93 27 1 1 1 4.22147 -13.5365 0 0 0 0
94 28 1 1 1 8.8405 -12.9982 0 0 0 0
95 28 1 1 1 8.70416 -13.6399 0 0 0 0
96 28 1 1 1 9.33895 -13.4248 0 0 0 0
97 29 1 1 1 12.9728 -12.8554 0 0 0 0
98 29 1 1 1 12.9737 -13.994 0 0 0 0
99 29 1 1 1 14.0918 -14.2093 0 0 0 0
100 29 1 1 1 14.0909 -13.0706 0 0 0 0
101 30 1 1 1 17.3334 -13.4153 0 0 0 0
102 30 1 1 1 17.9882 -13.8653 0 0 0 0
103 30 1 1 1 18.098 -13.1994 0 0 0 0
104 31 1 1 1 -22.2554 -8.51311 0 0 0 0
105 31 1 1 1 22.2995 -8.87217 0 -1 0 0
106 31 1 1 1 22.2554 -9.52999 0 -1 0 0
107 31 1 1 1 -22.2995 -9.17094 0 0 0 0
108 32 1 1 1 -18.3101 -8.92891 0 0 0 0
109 32 1 1 1 -18.1207 -9.24514 0 0 0 0
110 32 1 1 1 -17.9655 -8.79797 0 0 0 0
111 33 1 1 1 -13.0659 -9.00073 0 0 0 0
112 33 1 1 1 -13.5428 -8.7872 0 0 0 0
113 33 1 1 1 -13.5219 -9.25591 0 0 0 0
114 34 1 1 1 -9.0919 -9.33387 0 0 0 0
115 34 1 1 1 -8.79409 -9.07279 0 0 0 0
116 34 1 1 1 -9.24901 -8.97032 0 0 0 0
117 35 1 1 1 -4.20121 -9.05598 0 0 0 0
118 35 1 1 1 -4.44591 -8.43832 0 0 0 0
119 35 1 1 1 -4.82034 -8.98712 0 0 0 0
120 35 1 1 1 -4.57564 -9.60478 0 0 0 0
121 36 1 1 1 -0.418902 -8.48512 0 0 0 0
122 36 1 1 1 -0.254536 -9.22032 0 0 0 0
123 36 1 1 1 0.254536 -8.82278 0 0 0 0
124 37 1 1 1 4.73794 -8.56751 0 0 0 0
125 37 1 1 1 4.27276 -8.90247 0 0 0 0
126 37 1 1 1 4.74879 -9.14063 0 0 0 0
127 38 1 1 1 8.58427 -8.42683 0 0 0 0
128 38 1 1 1 8.46753 -9.4289 0 0 0 0
129 38 1 1 1 9.45883 -9.61628 0 0 0 0
130 38 1 1 1 9.57557 -8.6142 0 0 0 0
131 39 1 1 1 13.3274 -8.41128 0 0 0 0
132 39 1 1 1 13.1854 -9.13806 0 0 0 0
133 39 1 1 1 13.8792 -8.90505 0 0 0 0
134 40 1 1 1 17.7272 -8.75625 0 0 0 0
135 40 1 1 1 17.778 -9.33727 0 0 0 0
136 40 1 1 1 18.3591 -9.28685 0 0 0 0
137 40 1 1 1 18.3082 -8.70583 0 0 0 0
138 41 1 1 1 22.2653 -4.74434 0 -1 0 0
139 41 1 1 1 -22.204 -4.94305 0 0 0 0
140 41 1 1 1 -22.2653 -4.27721 0 0 0 0
141 41 1 1 1 22.204 -4.0785 0 -1 0 0
142 42 1 1 1 -18.3877 -4.33254 0 0 0 0
143 42 1 1 1 -18.1383 -4.69487 0 0 0 0
144 42 1 1 1 -17.9479 -4.32668 0 0 0 0
145 43 1 1 1 -12.9928 -4.03453 0 0 0 0
146 43 1 1 1 -13.7408 -4.27459 0 0 0 0
147 43 1 1 1 -13.3238 -4.74696 0 0 0 0
148 44 1 1 1 -9.39776 -4.59437 0 0 0 0
149 44 1 1 1 -8.92574 -4.94197 0 0 0 0
150 44 1 1 1 -8.64535 -4.42718 0 0 0 0
151 44 1 1 1 -9.11737 -4.07958 0 0 0 0
152 45 1 1 1 -4.91218 -4.1636 0 0 0 0
153 45 1 1 1 -4.92015 -4.9841 0 0 0 0
154 45 1 1 1 -4.10937 -4.85795 0 0 0 0
155 45 1 1 1 -4.1014 -4.03746 0 0 0 0
156 46 1 1 1 -0.980208 -4.37757 0 0 0 0
157 46 1 1 1 -0.125575 -5.43486 0 0 0 0
158 46 1 1 1 0.980208 -4.64398 0 0 0 0
159 46 1 1 1 0.125575 -3.5867 0 0 0 0
160 47 1 1 1 4.74909 -4.41888 0 0 0 0
161 47 1 1 1 4.45506 -4.36629 0 0 0 0
162 47 1 1 1 4.56649 -4.65526 0 0 0 0
163 48 1 1 1 9.46464 -4.58184 0 0 0 0
164 48 1 1 1 9.06118 -4.26367 0 0 0 0
165 48 1 1 1 8.98192 -4.75788 0 0 0 0
166 49 1 1 1 13.584 -5.049 0 0 0 0
167 49 1 1 1 13.7175 -4.49302 0 0 0 0
168 49 1 1 1 13.3472 -4.52854 0 0 0 0
169 50 1 1 1 17.3687 -4.42004 0 0 0 0
170 50 1 1 1 18.019 -4.68988 0 0 0 0
171 50 1 1 1 18.0672 -4.33167 0 0 0 0
172 51 1 1 1 -21.9305 0.0108053 0 0 0 0
173 51 1 1 1 22.5488 0.290776 0 -1 0 0
174 51 1 1 1 -22.5488 -0.290776 0 0 0 0
175 52 1 1 1 -17.9613 -0.548694 0 0 0 0
176 52 1 1 1 -17.8758 0.0249435 0 0 0 0
177 52 1 1 1 -18.2104 -0.0249435 0 0 0 0
178 53 1 1 1 -13.8745 -0.0177799 0 0 0 0
179 53 1 1 1 -13.4998 -0.625523 0 0 0 0
180 53 1 1 1 -13.1902 0.0177799 0 0 0 0
181 53 1 1 1 -13.5648 0.625523 0 0 0 0
182 54 1 1 1 -9.48775 0.534254 0 0 0 0
183 54 1 1 1 -9.75924 -0.643712 0 0 0 0
184 54 1 1 1 -8.55536 -0.534254 0 0 0 0
185 54 1 1 1 -8.28387 0.643712 0 0 0 0
186 55 1 1 1 -3.94261 0.743992 0 0 0 0
187 55 1 1 1 -4.76507 0.194198 0 0 0 0
188 55 1 1 1 -5.07894 -0.743992 0 0 0 0
189 55 1 1 1 -4.25648 -0.194198 0 0 0 0
190 56 1 1 1 -0.548201 -0.262827 0 0 0 0
191 56 1 1 1 0.224958 -0.469215 0 0 0 0
192 56 1 1 1 0.548201 0.262827 0 0 0 0
193 56 1 1 1 -0.224958 0.469215 0 0 0 0
194 57 1 1 1 3.97154 -0.105299 0 0 0 0
195 57 1 1 1 4.57108 -0.3088 0 0 0 0
196 57 1 1 1 4.45048 0.3088 0 0 0 0
197 58 1 1 1 9.21061 -0.45482 0 0 0 0
198 58 1 1 1 9.2937 0.113128 0 0 0 0
199 58 1 1 1 8.7494 -0.113128 0 0 0 0
200 59 1 1 1 13.9198 0.316622 0 0 0 0
201 59 1 1 1 13.2618 0.331048 0 0 0 0
202 59 1 1 1 13.1449 -0.316622 0 0 0 0
203 59 1 1 1 13.8029 -0.331048 0 0 0 0
204 60 1 1 1 18.1919 -0.204077 0 0 0 0
205 60 1 1 1 18.1748 0.0959951 0 0 0 0
206 60 1 1 1 17.9114 -0.0959951 0 0 0 0
207 61 1 1 1 22.2862 3.59626 0 -1 0 0
208 61 1 1 1 -21.9385 4.33066 0 0 0 0
209 61 1 1 1 -22.2862 5.42529 0 0 0 0
210 61 1 1 1 21.9385 4.69089 0 -1 0 0
211 62 1 1 1 -18.7925 4.3147 0 0 0 0
212 62 1 1 1 -17.8584 3.80489 0 0 0 0
213 62 1 1 1 -17.2937 4.70685 0 0 0 0
214 62 1 1 1 -18.2278 5.21666 0 0 0 0
215 63 1 1 1 -13.2745 4.89281 0 0 0 0
216 63 1 1 1 -13.874 4.74135 0 0 0 0
217 63 1 1 1 -13.7902 4.12875 0 0 0 0
218 63 1 1 1 -13.1907 4.2802 0 0 0 0
219 64 1 1 1 -9.13168 4.19379 0 0 0 0
220 64 1 1 1 -8.50251 4.33045 0 0 0 0
221 64 1 1 1 -8.91143 4.82776 0 0 0 0
222 64 1 1 1 -9.5406 4.6911 0 0 0 0
223 65 1 1 1 -4.94091 4.53122 0 0 0 0
224 65 1 1 1 -4.55114 3.66157 0 0 0 0
225 65 1 1 1 -4.08064 4.49033 0 0 0 0
226 65 1 1 1 -4.47041 5.35998 0 0 0 0
227 66 1 1 1 0.377439 4.67308 0 0 0 0
228 66 1 1 1 -0.14172 4.84036 0 0 0 0
229 66 1 1 1 -0.377439 4.34848 0 0 0 0
230 66 1 1 1 0.14172 4.1812 0 0 0 0
231 67 1 1 1 4.32365 3.91407 0 0 0 0
232 67 1 1 1 4.76106 4.43229 0 0 0 0
233 67 1 1 1 4.26049 4.58926 0 0 0 0
234 68 1 1 1 9.57408 4.58715 0 0 0 0
235 68 1 1 1 9.00046 4.66337 0 0 0 0
236 68 1 1 1 9.04265 4.35818 0 0 0 0
237 69 1 1 1 13.0472 4.36533 0 0 0 0
238 69 1 1 1 13.6028 4.27574 0 0 0 0
239 69 1 1 1 13.4619 4.74582 0 0 0 0
240 70 1 1 1 18.5398 3.90787 0 0 0 0
241 70 1 1 1 18.4555 4.85046 0 0 0 0
242 70 1 1 1 17.5464 5.11369 0 0 0 0
243 70 1 1 1 17.6308 4.17109 0 0 0 0
244 71 1 1 1 21.9672 9.19658 0 -1 0 0
245 71 1 1 1 22.4634 8.71827 0 -1 0 0
246 71 1 1 1 -22.4634 9.32484 0 0 0 0
247 72 1 1 1 -17.5661 8.48278 0 0 0 0
248 72 1 1 1 -17.8254 9.21433 0 0 0 0
249 72 1 1 1 -18.2608 8.82878 0 0 0 0
250 73 1 1 1 -13.3388 9.74559 0 0 0 0
251 73 1 1 1 -13.7089 9.06877 0 0 0 0
252 73 1 1 1 -13.3557 8.97434 0 0 0 0
253 74 1 1 1 -8.76509 8.78571 0 0 0 0
254 74 1 1 1 -8.57238 9.51 0 0 0 0
255 74 1 1 1 -9.27801 9.25739 0 0 0 0
256 74 1 1 1 -9.47073 8.5331 0 0 0 0
257 75 1 1 1 -4.1335 9.31933 0 0 0 0
258 75 1 1 1 -4.8451 9.44514 0 0 0 0
259 75 1 1 1 -4.88805 8.72378 0 0 0 0
260 75 1 1 1 -4.17645 8.59797 0 0 0 0
261 76 1 1 1 -0.108887 8.65761 0 0 0 0
262 76 1 1 1 0.602865 8.84118 0 0 0 0
263 76 1 1 1 0.108887 9.38549 0 0 0 0
264 76 1 1 1 -0.602865 9.20192 0 0 0 0
265 77 1 1 1 4.62847 9.45986 0 0 0 0
266 77 1 1 1 4.30536 9.07671 0 0 0 0
267 77 1 1 1 4.71619 8.96639 0 0 0 0
268 78 1 1 1 8.99321 9.39647 0 0 0 0
269 78 1 1 1 8.89388 9.0119 0 0 0 0
270 78 1 1 1 9.14923 9.0312 0 0 0 0
271 79 1 1 1 13.3463 9.35513 0 0 0 0
272 79 1 1 1 13.2947 8.889 0 0 0 0
273 79 1 1 1 13.7184 8.68797 0 0 0 0
274 79 1 1 1 13.77 9.1541 0 0 0 0
275 80 1 1 1 17.8423 8.37895 0 0 0 0
276 80 1 1 1 18.9123 8.74995 0 0 0 0
277 80 1 1 1 18.2439 9.66416 0 0 0 0
278 80 1 1 1 17.1739 9.29316 0 0 0 0
279 81 1 1 1 21.8474 12.8524 0 -1 0 0
280 81 1 1 1 -22.0894 13.0498 0 0 0 0
281 81 1 1 1 -21.8474 14.2123 0 0 0 0
282 81 1 1 1 22.0894 14.0149 0 -1 0 0
283 82 1 1 1 -17.7148 14.0998 0 0 0 0
284 82 1 1 1 -18.5836 13.845 0 0 0 0
285 82 1 1 1 -18.3714 12.9649 0 0 0 0
286 82 1 1 1 -17.5026 13.2196 0 0 0 0
287 83 1 1 1 -13.2045 13.6474 0 0 0 0
288 83 1 1 1 -13.6167 13.7727 0 0 0 0
289 83 1 1 1 -13.4479 13.2919 0 0 0 0
290 84 1 1 1 -8.66879 14.0527 0 0 0 0
291 84 1 1 1 -9.32952 13.7411 0 0 0 0
292 84 1 1 1 -8.71358 13.3236 0 0 0 0
293 85 1 1 1 -4.47635 13.0855 0 0 0 0
294 85 1 1 1 -3.9436 13.576 0 0 0 0
295 85 1 1 1 -4.5452 13.9791 0 0 0 0
296 85 1 1 1 -5.07795 13.4886 0 0 0 0
297 86 1 1 1 0.370616 13.6579 0 0 0 0
298 86 1 1 1 -0.199481 14.1213 0 0 0 0
299 86 1 1 1 -0.370616 13.4068 0 0 0 0
300 86 1 1 1 0.199481 12.9434 0 0 0 0
301 87 1 1 1 4.63301 13.7602 0 0 0 0
302 87 1 1 1 3.82518 13.9002 0 0 0 0
303 87 1 1 1 4.38854 13.3045 0 0 0 0
304 87 1 1 1 5.19637 13.1645 0 0 0 0
305 88 1 1 1 9.00468 14.2335 0 0 0 0
306 88 1 1 1 8.72512 13.5252 0 0 0 0
307 88 1 1 1 9.31799 13.5395 0 0 0 0
308 89 1 1 1 13.2065 13.947 0 0 0 0
309 89 1 1 1 13.2529 13.3128 0 0 0 0
310 89 1 1 1 13.8582 13.1177 0 0 0 0
311 89 1 1 1 13.8118 13.7519 0 0 0 0
312 90 1 1 1 18.3479 14.0878 0 0 0 0
313 90 1 1 1 17.9177 13.6012 0 0 0 0
314 90 1 1 1 18.1686 13.4635 0 0 0 0
315 91 1 1 1 22.2506 18.3665 0 -1 0 0
316 91 1 1 1 22.3055 17.8101 0 -1 0 0
317 91 1 1 1 -22.3055 18.2761 0 0 0 0
318 92 1 1 1 -17.7881 17.644 0 0 0 0
319 92 1 1 1 -17.4333 18.4328 0 0 0 0
320 92 1 1 1 -18.2981 18.4422 0 0 0 0
321 92 1 1 1 -18.653 17.6534 0 0 0 0
322 93 1 1 1 -13.8248 18.5174 0 0 0 0
323 93 1 1 1 -13.7301 17.9212 0 0 0 0
324 93 1 1 1 -13.3346 18.1651 0 0 0 0
325 94 1 1 1 -9.48432 18.5486 0 0 0 0
326 94 1 1 1 -9.73114 17.3935 0 0 0 0
327 94 1 1 1 -8.55878 17.5376 0 0 0 0
328 94 1 1 1 -8.31197 18.6927 0 0 0 0
329 95 1 1 1 -4.16309 17.6979 0 0 0 0
330 95 1 1 1 -4.384 18.1708 0 0 0 0
331 95 1 1 1 -4.63755 17.9154 0 0 0 0
332 96 1 1 1 0.385824 18.1073 0 0 0 0
333 96 1 1 1 -0.122302 18.7785 0 0 0 0
334 96 1 1 1 -0.385824 17.9789 0 0 0 0
335 96 1 1 1 0.122302 17.3077 0 0 0 0
336 97 1 1 1 4.32993 18.2362 0 0 0 0
337 97 1 1 1 4.33909 17.8823 0 0 0 0
338 97 1 1 1 4.68247 18.2039 0 0 0 0
339 98 1 1 1 9.53776 18.104 0 0 0 0
340 98 1 1 1 8.94506 18.692 0 0 0 0
341 98 1 1 1 8.50534 17.9823 0 0 0 0
342 98 1 1 1 9.09805 17.3942 0 0 0 0
343 99 1 1 1 14.2213 17.9988 0 0 0 0
344 99 1 1 1 13.5537 18.3755 0 0 0 0
345 99 1 1 1 12.8434 18.0874 0 0 0 0
346 99 1 1 1 13.5109 17.7107 0 0 0 0
347 100 1 1 1 17.684 18.3764 0 0 0 0
348 100 1 1 1 17.5113 17.4701 0 0 0 0
349 100 1 1 1 18.4022 17.7099 0 0 0 0
350 100 1 1 1 18.5749 18.6161 0 0 0 0

Lines

1 -22.1324 21.6822 -21.7295 23.0618
2 -21.7295 -22.046 -22.9754 -21.6822
3 22.1324 -21.6822 21.7295 -23.0618
4 21.7295 22.046 22.9754 21.6822
5 -18.0508 21.66 -17.1987 22.8474
6 -17.1987 -22.2604 -18.4615 -22.2537
7 -18.4615 22.8541 -18.0508 21.66
8 -13.4738 21.6249 -12.616 22.7177
9 -12.616 -22.3901 -14.0198 -22.1713
10 -14.0198 22.9365 -13.4738 21.6249
11 -9.11655 21.8861 -8.40319 22.8233
12 -8.40319 -22.2845 -8.92656 -21.8861
13 -8.92656 -21.8861 -9.63992 -22.8233
14 -9.63992 22.2845 -9.11655 21.8861
15 -5.39658 22.553 -4.98449 21.8054
16 -4.98449 21.8054 -3.62497 22.5548
17 -3.62497 -22.553 -4.03706 -21.8054
18 -4.03706 -21.8054 -5.39658 -22.5548
19 -0.367142 21.277 1.24008 22.0771
20 1.24008 -23.0306 0.367142 -21.277
21 0.367142 -21.277 -1.24008 -22.0771
22 -1.24008 23.0306 -0.367142 21.277
23 4.47179 -21.7586 3.71461 -22.5598
24 3.71461 22.548 4.92835 22.1592
25 4.92835 -22.9485 4.47179 -21.7586
26 9.2854 -22.0545 8.52654 -22.282
27 8.52654 22.8258 9.13713 22.1682
28 9.13713 -22.9395 9.2854 -22.0545
29 13.5936 21.6005 14.4699 22.7369
30 14.4699 -22.3709 13.0329 -22.1687
31 13.0329 22.9391 13.5936 21.6005
32 18.6152 -21.8296 17.386 -21.9058
33 17.386 23.202 18.0856 21.8677
34 18.0856 -23.2401 18.6152 -21.8296
35 -22.3899 -19.008 -21.6063 -17.7983
36 -21.6063 -17.7983 -23.1096 -17.6831
37 21.9981 -17.6831 22.7178 -19.008
38 -18.474 -17.4169 -18.8032 -18.049
39 -18.8032 -18.049 -17.6122 -18.6693
40 -17.6122 -18.6693 -17.283 -18.0372
41 -17.283 -18.0372 -18.474 -17.4169
42 -12.9915 -18.2461 -13.0773 -17.6873
43 -13.0773 -17.6873 -14.0302 -18.1195
44 -14.0302 -18.1195 -12.9915 -18.2461
45 -8.94553 -17.2626 -9.71177 -17.6709
46 -9.71177 -17.6709 -8.71446 -18.6195
47 -8.71446 -18.6195 -8.94553 -17.2626
48 -3.93687 -17.6386 -4.49359 -17.3412
49 -4.49359 -17.3412 -4.80632 -18.5964
50 -4.80632 -18.5964 -3.93687 -17.6386
51 0.589047 -17.8762 0.121915 -17.4431
52 0.121915 -17.4431 -0.355481 -18.4265
53 -0.355481 -18.4265 0.589047 -17.8762
54 3.78762 -18.3097 4.5512 -18.8128
55 4.5512 -18.8128 4.85214 -17.5249
56 4.85214 -17.5249 3.78762 -18.3097
57 9.56315 -17.5319 8.79895 -17.3324
58 8.79895 -17.3324 8.86206 -18.6541
59 8.86206 -18.6541 9.56315 -17.5319
60 14.4701 -17.8948 13.4892 -17.0946
61 13.4892 -17.0946 12.5945 -18.1915
62 12.5945 -18.1915 13.5755 -18.9916
63 13.5755 -18.9916 14.4701 -17.8948
64 18.2072 -17.1707 17.1645 -17.9165
65 17.1645 -17.9165 18.4003 -18.5426
66 18.4003 -18.5426 18.2072 -17.1707
67 -21.3743 -13.8409 -22.1396 -12.3856
68 22.9682 -12.3856 21.3743 -13.2238
69 21.3743 -13.2238 22.1396 -14.6791
70 -22.9682 -14.6791 -21.3743 -13.8409
71 -17.0641 -14.4497 -17.0349 -12.6471
72 -17.0349 -12.6471 -19.0221 -12.6149
73 -19.0221 -12.6149 -19.0513 -14.4175
74 -19.0513 -14.4175 -17.0641 -14.4497
75 -13.0039 -12.9516 -14.317 -13.5594
76 -14.317 -13.5594 -13.4042 -13.8092
77 -13.4042 -13.8092 -13.0039 -12.9516
78 -7.9999 -13.4314 -9.6835 -12.7476
79 -9.6835 -12.7476 -10.0432 -13.6333
80 -10.0432 -13.6333 -8.3596 -14.3171
81 -8.3596 -14.3171 -7.9999 -13.4314
82 -3.93546 -13.0065 -5.2902 -13.533
83 -5.2902 -13.533 -5.08609 -14.0582
84 -5.08609 -14.0582 -3.73135 -13.5317
85 -3.73135 -13.5317 -3.93546 -13.0065
86 -0.0543564 -12.5955 -0.637842 -12.8441
87 -0.637842 -12.8441 0.0543564 -14.4691
88 0.0543564 -14.4691 0.637842 -14.2206
89 0.637842 -14.2206 -0.0543564 -12.5955
90 4.22974 -14.1075 4.80835 -14.0991
91 4.80835 -14.0991 4.79181 -12.9572
92 4.79181 -12.9572 4.21321 -12.9656
93 4.21321 -12.9656 4.22974 -14.1075
94 9.47529 -12.783 8.20571 -13.2133
95 8.20571 -13.2133 9.2026 -14.0665
96 9.2026 -14.0665 9.47529 -12.783
97 13.5314 -12.3937 12.4142 -13.3171
98 12.4142 -13.3171 13.5332 -14.671
99 13.5332 -14.671 14.6504 -13.7476
100 14.6504 -13.7476 13.5314 -12.3937
101 17.4433 -12.7494 17.2236 -14.0812
102 17.2236 -14.0812 18.7528 -13.6494
103 18.7528 -13.6494 17.4433 -12.7494
104 -22.0009 -8.6625 -22.5098 -8.36373
105 22.598 -8.36373 22.0009 -9.3806
106 22.0009 -9.3806 22.5098 -9.67938
107 -22.598 -9.67938 -22.0009 -8.6625
108 -18.1549 -8.48174 -18.4652 -9.37609
109 -18.4652 -9.37609 -17.7761 -9.11419
110 -17.7761 -9.11419 -18.1549 -8.48174
111 -13.045 -9.46944 -13.0868 -8.53202
112 -13.0868 -8.53202 -13.9988 -9.04237
113 -13.9988 -9.04237 -13.045 -9.46944
114 -9.54681 -9.2314 -8.63698 -9.43633
115 -8.63698 -9.43633 -8.95121 -8.70924
116 -8.95121 -8.70924 -9.54681 -9.2314
117 -4.26608 -9.63921 -4.13635 -8.47275
118 -4.13635 -8.47275 -4.75547 -8.40389
119 -4.75547 -8.40389 -4.8852 -9.57036
120 -4.8852 -9.57036 -4.26608 -9.63921
121 0.0901699 -8.08758 -0.927975 -8.88266
122 -0.927975 -8.88266 0.418902 -9.55799
123 0.418902 -9.55799 0.0901699 -8.08758
124 5.21396 -8.80567 4.26191 -8.32935
125 4.26191 -8.32935 4.28361 -9.4756
126 4.28361 -9.4756 5.21396 -8.80567
127 9.13829 -8.01947 8.03025 -8.83418
128 8.03025 -8.83418 8.90481 -10.0236
129 8.90481 -10.0236 10.0129 -9.20893
130 10.0129 -9.20893 9.13829 -8.01947
131 14.0212 -8.17827 12.6336 -8.64429
132 12.6336 -8.64429 13.7373 -9.63183
133 13.7373 -9.63183 14.0212 -8.17827
134 17.9923 -8.44053 17.4621 -9.07197
135 17.4621 -9.07197 18.0939 -9.60257
136 18.0939 -9.60257 18.6242 -8.97114
137 18.6242 -8.97114 17.9923 -8.44053
138 21.9154 -4.31207 22.6152 -5.17661
139 -22.4926 -5.17661 -21.9154 -4.70948
140 -21.9154 -4.70948 -22.6152 -3.84494
141 22.4926 -3.84494 21.9154 -4.31207
142 -18.1973 -3.96434 -18.5782 -4.70073
143 -18.5782 -4.70073 -17.6985 -4.68902
144 -17.6985 -4.68902 -18.1973 -3.96434
145 -12.5758 -4.50691 -13.4098 -3.56216
146 -13.4098 -3.56216 -14.0719 -4.98702
147 -14.0719 -4.98702 -12.5758 -4.50691
148 -9.49357 -4.16318 -9.30194 -5.02557
149 -9.30194 -5.02557 -8.54953 -4.85838
150 -8.54953 -4.85838 -8.74116 -3.99598
151 -8.74116 -3.99598 -9.49357 -4.16318
152 -4.5028 -3.69028 -5.32156 -4.63692
153 -5.32156 -4.63692 -4.51875 -5.33127
154 -4.51875 -5.33127 -3.7 -4.38463
155 -3.7 -4.38463 -4.5028 -3.69028
156 -0.854632 -3.45349 -1.10578 -5.30165
157 -1.10578 -5.30165 0.854632 -5.56806
158 0.854632 -5.56806 1.10578 -3.7199
159 1.10578 -3.7199 -0.854632 -3.45349
160 4.86051 -4.70785 4.63766 -4.12992
161 4.63766 -4.12992 4.27247 -4.60267
162 4.27247 -4.60267 4.86051 -4.70785
163 9.38537 -5.07606 9.5439 -4.08762
164 9.5439 -4.08762 8.57847 -4.43971
165 8.57847 -4.43971 9.38537 -5.07606
166 13.2137 -5.08452 13.9542 -5.01348
167 13.9542 -5.01348 13.4807 -3.97256
168 13.4807 -3.97256 13.2137 -5.08452
169 17.4169 -4.06183 17.3205 -4.77825
170 17.3205 -4.77825 18.7175 -4.60151
171 18.7175 -4.60151 17.4169 -4.06183
172 -21.9204 -0.570747 -21.9406 0.592358
173 23.1672 0.592358 21.9305 -0.0108053
174 -23.1773 -0.0108053 -21.9204 -0.570747
175 -18.2958 -0.598581 -17.6267 -0.498807
176 -17.6267 -0.498807 -18.1249 0.548694
177 -18.1249 0.548694 -18.2958 -0.598581
178 -13.907 0.607743 -13.842 -0.643303
179 -13.842 -0.643303 -13.1577 -0.607743
180 -13.1577 -0.607743 -13.2227 0.643303
181 -13.2227 0.643303 -13.907 0.607743
182 -8.75006 1.17797 -10.2254 -0.109458
183 -10.2254 -0.109458 -9.29304 -1.17797
184 -9.29304 -1.17797 -7.81767 0.109458
185 -7.81767 0.109458 -8.75006 1.17797
186 -3.68832 0.549794 -4.19691 0.93819
187 -4.19691 0.93819 -5.33324 -0.549794
188 -5.33324 -0.549794 -4.82465 -0.93819
189 -4.82465 -0.93819 -3.68832 0.549794
190 -0.77316 0.206388 -0.323243 -0.732042
191 -0.323243 -0.732042 0.77316 -0.206388
192 0.77316 -0.206388 0.323243 0.732042
193 0.323243 0.732042 -0.77316 0.206388
194 3.85094 0.5123 4.09215 -0.722899
195 4.09215 -0.722899 5.05001 0.105299
196 5.05001 0.105299 3.85094 0.5123
197 8.66631 -0.681077 9.75492 -0.228564
198 9.75492 -0.228564 8.83249 0.45482
199 8.83249 0.45482 8.66631 -0.681077
200 14.1903 -0.0144261 13.6492 0.64767
201 13.6492 0.64767 12.8744 0.0144261
202 12.8744 0.0144261 13.4154 -0.64767
203 13.4154 -0.64767 14.1903 -0.0144261
204 17.9285 -0.396067 18.4552 -0.0120869
205 18.4552 -0.0120869 17.8943 0.204077
206 17.8943 0.204077 17.9285 -0.396067
207 21.6708 3.77638 22.9016 3.41614
208 -22.2062 3.41614 -21.6708 5.24518
209 -21.6708 5.24518 -22.9016 5.60541
210 22.2062 5.60541 21.6708 3.77638
211 -18.9772 5.02059 -18.6078 3.60881
212 -18.6078 3.60881 -17.109 4.00096
213 -17.109 4.00096 -17.4785 5.41274
214 -17.4785 5.41274 -18.9772 5.02059
215 -12.9329 4.66223 -13.6162 5.12338
216 -13.6162 5.12338 -14.1318 4.35932
217 -14.1318 4.35932 -13.4485 3.89818
218 -13.4485 3.89818 -12.9329 4.66223
219 -9.65073 4.37412 -8.61263 4.01346
220 -8.61263 4.01346 -8.39238 4.64744
221 -8.39238 4.64744 -9.43047 5.00809
222 -9.43047 5.00809 -9.65073 4.37412
223 -4.90055 5.38043 -4.98128 3.68202
224 -4.98128 3.68202 -4.121 3.64113
225 -4.121 3.64113 -4.04028 5.33954
226 -4.04028 5.33954 -4.90055 5.38043
227 0.519159 4.3435 0.235719 5.00266
228 0.235719 5.00266 -0.519159 4.67806
229 -0.519159 4.67806 -0.235719 4.0189
230 -0.235719 4.0189 0.519159 4.3435
231 3.82308 4.07104 4.82423 3.75709
232 4.82423 3.75709 4.6979 5.10749
233 4.6979 5.10749 3.82308 4.07104
234 9.61627 4.28196 9.5319 4.89234
235 9.5319 4.89234 8.46902 4.4344
236 8.46902 4.4344 9.61627 4.28196
237 12.9062 4.8354 13.1881 3.89525
238 13.1881 3.89525 14.0175 4.65623
239 14.0175 4.65623 12.9062 4.8354
240 18.1274 3.56818 18.9521 4.24755
241 18.9521 4.24755 17.9588 5.45337
242 17.9588 5.45337 17.1341 4.774
243 17.1341 4.774 18.1274 3.56818
244 22.1481 9.80315 21.7862 8.59001
245 21.7862 8.59001 23.1406 8.84653
246 -21.9672 8.84653 -22.9596 9.80315
247 -18.0015 8.09723 -17.1306 8.86834
248 -17.1306 8.86834 -18.5201 9.56032
249 -18.5201 9.56032 -18.0015 8.09723
250 -12.9855 9.65116 -13.692 9.84002
251 -13.692 9.84002 -13.7259 8.29752
252 -13.7259 8.29752 -12.9855 9.65116
253 -9.21427 8.29726 -8.31592 9.27417
254 -8.31592 9.27417 -8.82884 9.74584
255 -8.82884 9.74584 -9.72719 8.76894
256 -9.72719 8.76894 -9.21427 8.29726
257 -3.79918 8.89574 -4.46783 9.74291
258 -4.46783 9.74291 -5.22237 9.14736
259 -5.22237 9.14736 -4.55373 8.3002
260 -4.55373 8.3002 -3.79918 8.89574
261 -0.711752 8.83798 0.493978 8.47724
262 0.493978 8.47724 0.711752 9.20512
263 0.711752 9.20512 -0.493978 9.56586
264 -0.493978 9.56586 -0.711752 8.83798
265 5.03931 9.34955 4.21764 9.57018
266 4.21764 9.57018 4.39308 8.58324
267 4.39308 8.58324 5.03931 9.34955
268 9.24856 9.41577 8.73786 9.37717
269 8.73786 9.37717 9.04989 8.64664
270 9.04989 8.64664 9.24856 9.41577
271 13.584 9.48768 13.1086 9.22258
272 13.1086 9.22258 13.4807 8.55542
273 13.4807 8.55542 13.956 8.82052
274 13.956 8.82052 13.584 9.48768
275 16.9731 8.65055 18.7116 8.10734
276 18.7116 8.10734 19.1131 9.39255
277 19.1131 9.39255 17.3747 9.93577
278 17.3747 9.93577 16.9731 8.65055
279 21.383 13.3349 22.3119 12.3698
280 -22.7959 12.3698 -21.383 13.7297
281 -21.383 13.7297 -22.3119 14.6948
282 22.7959 14.6948 21.383 13.3349
283 -17.1743 13.7871 -18.2553 14.4125
284 -18.2553 14.4125 -18.9119 13.2776
285 -18.9119 13.2776 -17.8309 12.6522
286 -17.8309 12.6522 -17.1743 13.7871
287 -13.0357 13.1666 -13.3733 14.1282
288 -13.3733 14.1282 -13.8601 13.4172
289 -13.8601 13.4172 -13.0357 13.1666
290 -8.05286 13.6351 -9.28473 14.4702
291 -9.28473 14.4702 -9.37431 13.012
292 -9.37431 13.012 -8.05286 13.6351
293 -5.04352 13.0418 -3.90918 13.1292
294 -3.90918 13.1292 -3.97803 14.0228
295 -3.97803 14.0228 -5.11237 13.9355
296 -5.11237 13.9355 -5.04352 13.0418
297 0.570097 13.0689 0.171135 14.2468
298 0.171135 14.2468 -0.570097 13.9958
299 -0.570097 13.9958 -0.171135 12.8178
300 -0.171135 12.8178 0.570097 13.0689
301 5.31861 13.3923 3.94741 14.128
302 3.94741 14.128 3.70295 13.6723
303 3.70295 13.6723 5.07414 12.9367
304 5.07414 12.9367 5.31861 13.3923
305 9.59755 14.2478 8.41182 14.2192
306 8.41182 14.2192 9.03842 12.8311
307 9.03842 12.8311 9.59755 14.2478
308 13.4859 14.1666 12.9271 13.7274
309 12.9271 13.7274 13.5788 12.8981
310 13.5788 12.8981 14.1376 13.3372
311 14.1376 13.3372 13.4859 14.1666
312 18.5988 13.9501 18.097 14.2255
313 18.097 14.2255 17.7383 12.9769
314 17.7383 12.9769 18.5988 13.9501
315 22.7474 18.8325 21.7537 17.9005
316 21.7537 17.9005 22.8572 17.7197
317 -22.2506 17.7197 -22.3604 18.8325
318 -18.3979 17.2543 -17.1782 18.0338
319 -17.1782 18.0338 -17.6883 18.8319
320 -17.6883 18.8319 -18.908 18.0524
321 -18.908 18.0524 -18.3979 17.2543
322 -13.4292 18.7613 -14.2203 18.2735
323 -14.2203 18.2735 -13.2399 17.5688
324 -13.2399 17.5688 -13.4292 18.7613
325 -8.77474 19.1982 -10.1939 17.8989
326 -10.1939 17.8989 -9.26837 16.888
327 -9.26837 16.888 -7.8492 18.1873
328 -7.8492 18.1873 -8.77474 19.1982
329 -4.41664 17.4425 -3.90954 17.9533
330 -3.90954 17.9533 -4.85846 18.3883
331 -4.85846 18.3883 -4.41664 17.4425
332 0.508126 17.3719 0.263523 18.8426
333 0.263523 18.8426 -0.508126 18.7143
334 -0.508126 18.7143 -0.263523 17.2436
335 -0.263523 17.2436 0.508126 17.3719
336 4.67331 18.5578 3.98655 17.9146
337 3.98655 17.9146 4.69162 17.85
338 4.69162 17.85 4.67331 18.5578
339 9.61426 17.4551 9.46127 18.7528
340 9.46127 18.7528 8.42885 18.6311
341 8.42885 18.6311 8.58184 17.3334
342 8.58184 17.3334 9.61426 17.4551
343 14.1999 17.6664 14.2426 18.3312
344 14.2426 18.3312 12.8648 18.4198
345 12.8648 18.4198 12.822 17.755
346 12.822 17.755 14.1999 17.6664
347 18.2159 18.9494 17.1522 17.8033
348 17.1522 17.8033 17.8703 17.1368
349 17.8703 17.1368 18.934 18.2829
350 18.934 18.2829 18.2159 18.9494
