LAMMPS data file from restart file: timestep = 1000, procs = 1

3456 atoms

1 atom types

-64.86 64.86 xlo xhi
-16.215 16.215 ylo yhi
-16.215 16.215 zlo zhi

Masses

1 39.95

Pair Coeffs

1 0.238 3.405

Atoms

1 1       -63.50875       -14.86375       -14.86375 0 0 0
2 1       -60.80625       -12.16125       -14.86375 0 0 0
3 1       -60.80625       -14.86375       -12.16125 0 0 0
4 1       -63.50875       -12.16125       -12.16125 0 0 0
5 1       -58.10375       -14.86375       -14.86375 0 0 0
6 1       -55.40125       -12.16125       -14.86375 0 0 0
7 1       -55.40125       -14.86375       -12.16125 0 0 0
8 1       -58.10375       -12.16125       -12.16125 0 0 0
9 1  -52.6882431683  -15.0292653969  -14.7711101576 0 0 0
10 1  -49.9859690738  -12.2194498013   -15.066569253 0 0 0
11 1  -49.9058690551  -14.8616600117   -12.225677753 0 0 0
12 1  -52.7982268173  -12.2365163158  -12.3645268929 0 0 0
13 1  -47.2789541291  -14.8350100098  -14.8793942736 0 0 0
14 1  -44.6161936991  -12.2584517831  -15.1730980713 0 0 0
15 1  -44.7566429615  -14.7064765091  -12.2408008559 0 0 0
16 1   -47.436748302  -12.1928693727  -12.3161348556 0 0 0
17 1  -41.9941398421  -14.9055716027  -14.8019423823 0 0 0
18 1   -39.552902088  -11.9696227637   -14.882687326 0 0 0
19 1  -39.2963451816  -14.7809978795  -12.0679138476 0 0 0
20 1  -42.1075911365  -12.3614167156  -11.9824983107 0 0 0
21 1  -36.6599909481  -14.6859201893  -14.9229927117 0 0 0
22 1  -33.8548039224  -12.4439159769  -14.9776806264 0 0 0
23 1  -33.9818236349  -15.0024566739  -12.0774927125 0 0 0
24 1  -36.6776916297  -12.2919900539  -11.9714480675 0 0 0
25 1   -31.176047451  -14.9579853413  -14.9411383004 0 0 0
26 1  -28.3279983628   -12.224182297  -15.1018513778 0 0 0
27 1  -28.3709052996  -14.8500854137  -12.3553247994 0 0 0
28 1  -31.3016422878  -12.3980239187  -12.1929255382 0 0 0
29 1  -25.6390397761  -14.9941940637  -15.0811539273 0 0 0
30 1  -23.1221810152  -12.1162707805   -14.995512818 0 0 0
31 1  -23.0516135261  -14.9313023779  -12.2215833531 0 0 0
32 1  -25.5633374974  -12.0824738284  -12.2428110047 0 0 0
33 1  -20.2477636679  -14.8135045948  -15.1878559553 0 0 0
34 1      -17.428471  -12.1677669269  -15.0511210833 0 0 0
35 1  -17.4724383098  -14.9562465835  -12.4008012653 0 0 0
36 1  -20.2613586415  -12.1444568697  -12.5541704265 0 0 0
37 1   -14.849713087  -15.0276330368  -15.0152979285 0 0 0
38 1  -11.9998892944   -12.297984413  -15.1773718883 0 0 0
39 1   -12.092274515  -14.9332495513  -12.4313549179 0 0 0
40 1  -14.9475468327  -12.4149838871  -12.3273421642 0 0 0
41 1   -9.5498900617  -14.9528990896  -14.8550217233 0 0 0
42 1  -6.90713087905  -12.0715363437  -15.0758851025 0 0 0
43 1  -6.94146528284  -14.8797779019  -12.3547569533 0 0 0
44 1  -9.58377282472  -12.2556196002  -12.1730747738 0 0 0
45 1  -4.14133195741  -14.7325008801  -15.1129528486 0 0 0
46 1  -1.28082069762  -12.3303633554  -14.9041421352 0 0 0
47 1   -1.4551916541  -14.7815629449  -12.0288433203 0 0 0
48 1  -4.14421092669  -11.9574375857  -12.4614036795 0 0 0
49 1   1.33497202193  -14.9806266648  -15.0123181012 0 0 0
50 1   4.13148259067  -12.2865627528  -14.9314453953 0 0 0
51 1   4.01159182414  -14.9867466724  -12.3448907236 0 0 0
52 1   1.40016491184  -12.4790773874  -12.3570185331 0 0 0
53 1   6.70901582244  -14.7970439402  -14.8122619149 0 0 0
54 1   9.48595342681  -12.3008265816  -14.9894469435 0 0 0
55 1   9.32356514192  -14.8609673701  -12.3199712775 0 0 0
56 1   6.77252296315  -12.0345964188  -12.2496837977 0 0 0
57 1   12.3206297417  -15.0444305358  -14.9848153417 0 0 0
58 1   15.0602229179  -12.2208198781  -15.0115434051 0 0 0
59 1   15.0025647762  -14.7998931953  -12.3299110238 0 0 0
60 1   12.1734639441  -12.2331441583  -12.3946362528 0 0 0
61 1   17.7573138628  -15.0802123617  -15.0980416148 0 0 0
62 1   20.4336730024  -12.3867722245  -14.8566846055 0 0 0
63 1   20.3648138682   -14.921271059  -12.2454267144 0 0 0
64 1   17.8192710401   -12.370519942  -12.2193467619 0 0 0
65 1    23.053815233   -15.113878626  -14.9605596962 0 0 0
66 1   25.7655247635  -12.2724970174  -14.8186117536 0 0 0
67 1   25.6935094399  -14.8989043964  -12.0651986649 0 0 0
68 1   23.1110532104  -12.2321182964  -12.1920394322 0 0 0
69 1   28.3807819537  -14.8217032377  -14.8854767323 0 0 0
70 1   31.2388953622  -12.4977435011  -15.1845687041 0 0 0
71 1   31.4015037854  -14.9759427603  -12.3059886658 0 0 0
72 1   28.4884182157  -12.2188057793  -12.2482702417 0 0 0
73 1   33.9639361618  -15.0994329557  -14.9585569285 0 0 0
74 1   36.3499166236  -12.1620421532  -15.1793085145 0 0 0
75 1   36.4979855854  -15.2292470756  -12.1554559001 0 0 0
76 1   34.1015266121  -12.2675754794  -12.3842590248 0 0 0
77 1   39.2868558973  -15.0214949528   -14.744030989 0 0 0
78 1   41.6496971091  -12.1644399225  -15.0397621687 0 0 0
79 1   41.9764711045  -14.5271124915  -12.2962617684 0 0 0
80 1   38.9902306353  -12.1504698335  -12.2840840223 0 0 0
81 1   44.7018171481  -14.4670354557  -15.1340435397 0 0 0
82 1   47.5442621314  -12.0220711127  -14.9599232311 0 0 0
83 1   47.4646962644  -14.8564644004  -12.3544721269 0 0 0
84 1   44.5208876972  -11.9510563651  -12.3210700168 0 0 0
85 1   50.1225886408  -14.7974100036  -14.9995519196 0 0 0
86 1   52.8495925768  -12.2395428389  -14.7374191827 0 0 0
87 1   52.6655284736  -14.9918447334  -12.2244904165 0 0 0
88 1   49.9143079405  -12.1584605131  -12.1635477782 0 0 0
89 1        55.40125       -14.86375       -14.86375 0 0 0
90 1        58.10375       -12.16125       -14.86375 0 0 0
91 1        58.10375       -14.86375       -12.16125 0 0 0
92 1        55.40125       -12.16125       -12.16125 0 0 0
93 1        60.80625       -14.86375       -14.86375 0 0 0
94 1        63.50875       -12.16125       -14.86375 0 0 0
95 1        63.50875       -14.86375       -12.16125 0 0 0
96 1        60.80625       -12.16125       -12.16125 0 0 0
97 1       -63.50875        -9.45875       -14.86375 0 0 0
98 1       -60.80625        -6.75625       -14.86375 0 0 0
99 1       -60.80625        -9.45875       -12.16125 0 0 0
100 1       -63.50875        -6.75625       -12.16125 0 0 0
101 1       -58.10375        -9.45875       -14.86375 0 0 0
102 1       -55.40125        -6.75625       -14.86375 0 0 0
103 1       -55.40125        -9.45875       -12.16125 0 0 0
104 1       -58.10375        -6.75625       -12.16125 0 0 0
105 1   -52.708732172  -9.54502879843  -14.9933713296 0 0 0
106 1  -49.9586408245  -6.86740297339  -14.9623297945 0 0 0
107 1  -50.1021912778   -9.6265265848  -12.1340020246 0 0 0
108 1  -52.8226182744  -6.86755646141  -12.1180149807 0 0 0
109 1  -47.3483275527  -9.61960912956   -15.059628301 0 0 0
110 1  -44.8449781269  -6.74921458768  -14.9439827279 0 0 0
111 1  -44.8666968558   -9.6088072765  -12.2983180503 0 0 0
112 1  -47.3762292302  -6.77066671103  -12.0619200174 0 0 0
113 1  -42.1700117604  -9.41768664705  -14.8122551284 0 0 0
114 1  -39.3541012543  -6.75757840452  -15.0466724304 0 0 0
115 1  -39.5565437067  -9.56341702927  -12.1630060736 0 0 0
116 1   -42.296758707  -6.76513683569   -12.196880532 0 0 0
117 1  -36.6404551776  -9.53429111552   -14.875536566 0 0 0
118 1  -33.8863979335  -7.19365732636  -14.9482094182 0 0 0
119 1  -33.8098409335  -9.56531365313  -12.3103164515 0 0 0
120 1  -37.0438956185  -6.90070371603  -12.3257915984 0 0 0
121 1  -31.1555830372  -9.77817130452  -14.9741008675 0 0 0
122 1  -28.4760371551   -6.9102593272  -15.0383622891 0 0 0
123 1   -28.439072951  -9.40232608456  -12.3138999249 0 0 0
124 1  -31.2173971126   -6.7109323447  -12.3031970881 0 0 0
125 1  -25.6576617672   -9.5445888664  -15.0061200883 0 0 0
126 1  -23.1922679936  -6.82970533685  -15.0904287057 0 0 0
127 1  -23.0607927014   -9.3488605537  -12.1943639381 0 0 0
128 1  -25.7044031802  -6.88144516419   -12.320873576 0 0 0
129 1  -20.4260105061  -9.58980106445  -15.1124215299 0 0 0
130 1  -17.8710167849  -6.89791214147  -14.8196699339 0 0 0
131 1  -17.6669067397  -9.66896957065  -12.2032741178 0 0 0
132 1  -20.4651312981  -6.89138495389  -12.4036663327 0 0 0
133 1  -14.7762808738  -9.62045045323  -14.9524686313 0 0 0
134 1  -12.2516048141  -6.77450940491  -15.0944008876 0 0 0
135 1  -12.1640826137   -9.5281706868  -12.2766177842 0 0 0
136 1  -15.0171414701  -6.79009556282  -12.1920667103 0 0 0
137 1  -9.40362035622  -9.48364412423  -15.0417447023 0 0 0
138 1  -6.94750115651  -6.66974754097  -15.0273466591 0 0 0
139 1  -6.94215079061  -9.54426814381   -12.348246843 0 0 0
140 1  -9.58939088619  -6.75027937756   -12.305217677 0 0 0
141 1  -4.12884196188  -9.36315821404  -15.0753744261 0 0 0
142 1  -1.30065868623  -6.75492282709  -15.1116164334 0 0 0
143 1  -1.29796249354  -9.60124070716  -12.3749209236 0 0 0
144 1  -4.18491716382  -6.73753956855  -12.3262607751 0 0 0
145 1   1.35164200619  -9.69415167247  -15.0308156629 0 0 0
146 1   3.90538848162  -6.94454413123  -14.8654216273 0 0 0
147 1   4.02878659881  -9.57890403064  -12.3315147694 0 0 0
148 1   1.32091812283  -6.84682885025  -12.0135377308 0 0 0
149 1    6.8527392813  -9.60045362239  -14.9281980039 0 0 0
150 1   9.43613802902  -6.84002252453  -14.7824530775 0 0 0
151 1   9.30935858469  -9.44293726178  -12.1161900338 0 0 0
152 1   6.60149445183  -6.76290822036  -12.1494970251 0 0 0
153 1   12.3368916671  -9.36720549159  -14.8712595891 0 0 0
154 1   14.9111486782  -6.71150660138  -15.0536676503 0 0 0
155 1    15.005662701  -9.68285844002  -12.1933087027 0 0 0
156 1   12.1936139347  -6.78455223587  -12.2160734663 0 0 0
157 1   17.5800998043  -9.55599344754  -14.9626172471 0 0 0
158 1   20.3548000599  -6.71741999102    -14.77725721 0 0 0
159 1   20.2539961838  -9.44681040065  -12.3528595854 0 0 0
160 1   17.5427862263  -6.82372135815  -12.4719243656 0 0 0
161 1   22.9222581128  -9.51539170012  -14.9115597657 0 0 0
162 1   25.6780706763  -6.76795654143  -15.0397091536 0 0 0
163 1   25.6418073222  -9.34830603316  -12.4166465173 0 0 0
164 1   22.9743666914   -6.6176437682  -12.2232390904 0 0 0
165 1   28.6404300192  -9.64323295308  -15.0441255476 0 0 0
166 1   31.2431047902  -6.71630434186  -15.1919612958 0 0 0
167 1   31.4026957787  -9.58938206327  -12.1855450792 0 0 0
168 1   28.6558834245  -6.91920918375  -12.4363983227 0 0 0
169 1   33.8204059228  -9.50032765545  -15.2860954733 0 0 0
170 1   36.2612886388  -6.72527684399  -15.1370878102 0 0 0
171 1   36.3318309734  -9.50365540603   -12.386220521 0 0 0
172 1   33.8413940492  -6.69462896759  -12.4186513082 0 0 0
173 1   38.9559905495  -9.52876651276  -15.0435400085 0 0 0
174 1   41.8719850633  -6.90567716427  -14.9189378552 0 0 0
175 1   41.6883703375  -9.62551857049  -12.4172245674 0 0 0
176 1    39.149147174  -6.75496303251  -12.3920956927 0 0 0
177 1   44.6019738473  -9.43655058351  -15.1230829588 0 0 0
178 1   47.4748877409  -6.86817145364  -14.9069509256 0 0 0
179 1   47.4165914388  -9.49523990877  -12.2020451359 0 0 0
180 1   44.5290731857   -6.9532221467   -12.116960926 0 0 0
181 1   50.1491399858  -9.39551648297  -14.8018319341 0 0 0
182 1   52.7039614492  -6.71081056641  -14.9833252296 0 0 0
183 1   52.5952937838  -9.36294136168  -12.2218170874 0 0 0
184 1   50.0412292514  -6.84783104604  -12.0222195312 0 0 0
185 1        55.40125        -9.45875       -14.86375 0 0 0
186 1        58.10375        -6.75625       -14.86375 0 0 0
187 1        58.10375        -9.45875       -12.16125 0 0 0
188 1        55.40125        -6.75625       -12.16125 0 0 0
189 1        60.80625        -9.45875       -14.86375 0 0 0
190 1        63.50875        -6.75625       -14.86375 0 0 0
191 1        63.50875        -9.45875       -12.16125 0 0 0
192 1        60.80625        -6.75625       -12.16125 0 0 0
193 1       -63.50875        -4.05375       -14.86375 0 0 0
194 1       -60.80625        -1.35125       -14.86375 0 0 0
195 1       -60.80625        -4.05375       -12.16125 0 0 0
196 1       -63.50875        -1.35125       -12.16125 0 0 0
197 1       -58.10375        -4.05375       -14.86375 0 0 0
198 1       -55.40125        -1.35125       -14.86375 0 0 0
199 1       -55.40125        -4.05375       -12.16125 0 0 0
200 1       -58.10375        -1.35125       -12.16125 0 0 0
201 1   -52.622528549  -4.05891086433  -15.0369038552 0 0 0
202 1  -49.9729230948  -1.32323591598  -14.9237193151 0 0 0
203 1  -50.0977026856  -4.21009581004   -12.344898444 0 0 0
204 1  -52.6874171827  -1.25124242523  -12.1509481346 0 0 0
205 1  -47.3463914107  -3.93557070695  -14.8279066636 0 0 0
206 1  -44.6631062046  -1.23866768984  -15.0862561301 0 0 0
207 1  -44.6863718098  -4.07048715014    -12.11829466 0 0 0
208 1  -47.2130640123  -1.27349159011  -12.1378845008 0 0 0
209 1  -42.0104887137  -4.02530830406  -14.8891537226 0 0 0
210 1  -39.1479917827  -1.24550523493  -14.9750496216 0 0 0
211 1  -39.4851617286  -3.99671251747  -12.2771841494 0 0 0
212 1  -41.8621787487  -1.28370946598  -12.2788687471 0 0 0
213 1  -36.6373582394  -4.12655112677  -14.8739913307 0 0 0
214 1  -33.8446758588  -1.63106993568   -15.083949396 0 0 0
215 1  -33.8829810823  -4.19593003341  -12.3693744536 0 0 0
216 1  -36.6386288596  -1.30503564532  -12.4058891799 0 0 0
217 1   -31.203210921  -4.26117432267  -15.1716577609 0 0 0
218 1  -28.5929148809  -1.46778812339  -15.0318111357 0 0 0
219 1  -28.4214537344  -4.29875744386  -12.2924781875 0 0 0
220 1  -31.0133835606  -1.54279303004  -12.3685473225 0 0 0
221 1  -25.8147913207  -4.22669385372  -14.7380621703 0 0 0
222 1   -23.118087225  -1.56054681883  -14.9529986848 0 0 0
223 1  -23.1284030134  -4.17559254079   -12.282814826 0 0 0
224 1  -25.8507825706  -1.42456482985  -12.3305798033 0 0 0
225 1  -20.4421153691  -4.42141916172  -15.1210809518 0 0 0
226 1  -17.7173073122  -1.52926560797  -15.1842439777 0 0 0
227 1  -17.7304753881  -4.19485966778  -12.3529105705 0 0 0
228 1  -20.2784011882  -1.56090311696  -12.4585466406 0 0 0
229 1  -15.0001519787  -4.27871778543  -15.0022789117 0 0 0
230 1  -12.3925675714  -1.34672909831  -15.0539054566 0 0 0
231 1  -12.2694374323  -4.04798799508  -12.3860266466 0 0 0
232 1  -15.0651743417  -1.54587337575  -12.3389455715 0 0 0
233 1  -9.43411715396  -3.94136091162  -14.8899418671 0 0 0
234 1  -6.76913370035   -1.3871833816  -14.8021048924 0 0 0
235 1  -6.77910453191  -4.05314760298  -12.1962231878 0 0 0
236 1  -9.47103543098  -1.24569498242  -12.2918118762 0 0 0
237 1  -3.88559490004  -4.17008400706  -15.0137214583 0 0 0
238 1  -1.02372589992  -1.46813255859  -14.9940812542 0 0 0
239 1  -1.29206756053  -4.21781858483  -12.3494115554 0 0 0
240 1  -3.61326918731  -1.36596024064   -12.212823064 0 0 0
241 1   1.36450343035  -4.33080442712  -14.9318648122 0 0 0
242 1   4.22424592864  -1.49965602873  -15.0011380909 0 0 0
243 1   4.07857691806  -3.93257391823  -12.3327553844 0 0 0
244 1   1.30112865464  -1.29628981934  -12.1080013268 0 0 0
245 1   6.63702893661  -4.18642595888  -14.8807100204 0 0 0
246 1    9.4551932896  -1.56063476076  -14.7520672446 0 0 0
247 1   9.47317555594  -4.19201517741  -12.2888001679 0 0 0
248 1   6.81353087584  -1.31373004982  -12.0831064153 0 0 0
249 1   12.1361291749  -4.15616395951   -14.957737764 0 0 0
250 1   14.6275775138  -1.58659763813  -14.9208567855 0 0 0
251 1   14.8953774006  -4.35138189601  -12.1478208131 0 0 0
252 1   12.1508006598  -1.50549215515   -12.205242892 0 0 0
253 1   17.5175711847  -4.10346143348  -14.9832860363 0 0 0
254 1   20.2922166817  -1.51132989502  -14.9248505416 0 0 0
255 1   20.2095214756  -4.03785212293  -12.2095231722 0 0 0
256 1   17.3379390909  -1.35480366161  -12.4069413664 0 0 0
257 1   22.9122703775  -3.97805772771  -15.0630102681 0 0 0
258 1   25.7872940217   -1.3764297291  -15.1004718389 0 0 0
259 1    25.821587268  -4.23552651118  -12.4356245642 0 0 0
260 1   23.0690141379  -1.46942899406  -12.3185610805 0 0 0
261 1   28.5442270019  -3.99539143142  -15.1234317258 0 0 0
262 1   30.8463409362  -1.22993870469   -14.922210912 0 0 0
263 1   31.0911026404  -4.16189848027  -12.2710786562 0 0 0
264 1   28.4644085193  -1.41193505837  -12.2433144491 0 0 0
265 1   33.7282995053  -3.94737945158  -15.1459129743 0 0 0
266 1   36.6476240081  -1.30573985752  -15.0874902286 0 0 0
267 1   36.5372929195  -4.05344224235  -12.4400673022 0 0 0
268 1   33.8228988697  -1.52646163238   -12.338368944 0 0 0
269 1   39.1437920203  -4.06660094875  -15.1407158365 0 0 0
270 1   41.7668706608  -1.46015310666  -14.8293490593 0 0 0
271 1   41.7516104018  -4.07581075193  -12.3337263317 0 0 0
272 1   39.0420746133  -1.23418967495  -12.2797928014 0 0 0
273 1   44.7063671918  -4.49574295982  -14.7143399866 0 0 0
274 1   47.5026489175  -1.47184169633  -14.9455388094 0 0 0
275 1   47.3747861924  -4.05279628277  -12.0697294174 0 0 0
276 1   44.6000847829   -1.3655863554  -12.1794058638 0 0 0
277 1   49.9040230478  -4.17436190307  -14.8707723899 0 0 0
278 1   52.7048004403  -1.36506095118  -14.9080388123 0 0 0
279 1   52.6945835962    -4.271399166  -12.2533331847 0 0 0
280 1   50.0911099674  -1.49124308676  -12.2482034984 0 0 0
281 1        55.40125        -4.05375       -14.86375 0 0 0
282 1        58.10375        -1.35125       -14.86375 0 0 0
283 1        58.10375        -4.05375       -12.16125 0 0 0
284 1        55.40125        -1.35125       -12.16125 0 0 0
285 1        60.80625        -4.05375       -14.86375 0 0 0
286 1        63.50875        -1.35125       -14.86375 0 0 0
287 1        63.50875        -4.05375       -12.16125 0 0 0
288 1        60.80625        -1.35125       -12.16125 0 0 0
289 1       -63.50875         1.35125       -14.86375 0 0 0
290 1       -60.80625         4.05375       -14.86375 0 0 0
291 1       -60.80625         1.35125       -12.16125 0 0 0
292 1       -63.50875         4.05375       -12.16125 0 0 0
293 1       -58.10375         1.35125       -14.86375 0 0 0
294 1       -55.40125         4.05375       -14.86375 0 0 0
295 1       -55.40125         1.35125       -12.16125 0 0 0
296 1       -58.10375         4.05375       -12.16125 0 0 0
297 1  -52.5851800414   1.41330263328   -15.032822654 0 0 0
298 1  -49.9103617223   4.00246690603  -14.9370449774 0 0 0
299 1  -49.7671570762   1.31856095242  -12.1829596967 0 0 0
300 1  -52.7217032703    3.9255597142  -12.0970566636 0 0 0
301 1  -47.2796330002   1.26700204123  -15.0340272638 0 0 0
302 1  -44.5824236077   3.98639555278  -14.9617306539 0 0 0
303 1  -44.6048155462   1.32376605076  -12.2355255643 0 0 0
304 1  -47.1763748292   3.91992052781  -12.1941157253 0 0 0
305 1  -41.8611445055   1.39692663041  -14.9278945508 0 0 0
306 1  -39.0539094673    3.9717179457  -15.1419647922 0 0 0
307 1  -39.3290610389   1.43131037259  -12.2994052543 0 0 0
308 1  -41.7805897034   4.05336178165  -12.2649452033 0 0 0
309 1  -36.3378982995   1.33555319336  -15.0553532801 0 0 0
310 1  -33.8496097988   4.01303376992  -14.8997314093 0 0 0
311 1  -33.7648574619   1.01300600081  -12.3378523028 0 0 0
312 1  -36.6308921433   3.90629939445  -12.4205188285 0 0 0
313 1  -31.1593439764   1.29578115961  -14.8905664438 0 0 0
314 1  -28.4013390255   4.03095817964  -14.9315442567 0 0 0
315 1  -28.4199555389   1.24430456104  -12.3748452284 0 0 0
316 1  -31.1168171045   3.93602710443  -12.3148478854 0 0 0
317 1  -25.6917963926   1.31249942809  -14.9338065705 0 0 0
318 1  -23.0661106699   4.02149084919    -15.09075948 0 0 0
319 1  -23.0605072709   1.34488101325   -12.290742722 0 0 0
320 1  -25.7532331832   3.87186125798  -12.2439019802 0 0 0
321 1  -20.4667376379    1.3030132019  -15.0949705426 0 0 0
322 1  -17.8017296973   4.03433440566  -15.1846811873 0 0 0
323 1   -17.677917034    1.1779702799  -12.2585068755 0 0 0
324 1  -20.4296941822     4.175538913  -12.3970708852 0 0 0
325 1  -14.9950615073    1.3282138027  -14.9548218539 0 0 0
326 1  -12.0894775214   4.02316997032  -14.9529440837 0 0 0
327 1  -12.1264605267   1.12535078697   -12.370398008 0 0 0
328 1  -15.0035804634    4.0247954852  -12.2018188332 0 0 0
329 1  -9.30763061103   1.43837012252  -14.9312541901 0 0 0
330 1  -6.74426687385   4.03527709804  -14.9674599542 0 0 0
331 1   -6.6324383485    1.2273126361  -12.2055161899 0 0 0
332 1   -9.5485195272    3.8742141939  -12.0242323635 0 0 0
333 1  -4.09397726674   1.50902890906  -15.0123636967 0 0 0
334 1  -1.45626530811   4.16815358904   -15.172696193 0 0 0
335 1  -1.40300008818   1.55090463631  -12.4898604184 0 0 0
336 1  -4.12219573713   4.16034075798  -12.2753371143 0 0 0
337 1   1.55858651874    1.1375558052  -14.8927523023 0 0 0
338 1   4.11043485001   4.01139983627  -14.8393749779 0 0 0
339 1   4.11955734789   1.20374907483  -12.0857750575 0 0 0
340 1    1.4373084859   4.30188495941  -12.3137298352 0 0 0
341 1   6.77309608293   1.08113238289  -15.0987722268 0 0 0
342 1   9.37655662291   3.76421414879  -15.0456117052 0 0 0
343 1   9.33937514794   1.34435227448  -12.3814506754 0 0 0
344 1   6.81731343423   3.88911795207  -12.1421269274 0 0 0
345 1   12.0363657892   1.17408147011  -15.0194478226 0 0 0
346 1   14.7222092173   4.02987586059  -15.2929867923 0 0 0
347 1   14.7684144925    1.3360038472  -12.3456589287 0 0 0
348 1   12.1256348018    3.9022922635  -12.5318903927 0 0 0
349 1   17.4829079924   1.25318838963  -14.8858123914 0 0 0
350 1   20.2320175359   3.96740894689   -14.848530691 0 0 0
351 1   20.5493398198   1.27590852857  -12.1495657703 0 0 0
352 1   17.5277184691   4.11994532558  -12.4509521425 0 0 0
353 1   23.1245403369   1.39345466976  -15.1004381874 0 0 0
354 1   25.6031164112    3.9935509079  -15.0177247625 0 0 0
355 1   25.7366802268   1.10541959817  -12.2960276187 0 0 0
356 1   23.0652991581   4.02121017102  -12.2415263497 0 0 0
357 1   28.2164029099   1.44338367969  -15.0184623366 0 0 0
358 1   31.1799886083   4.09927916346  -14.8254783125 0 0 0
359 1   31.1313616815   1.44141814514  -12.3126666353 0 0 0
360 1   28.4223342115   4.09605063975  -12.3855174817 0 0 0
361 1   33.8912604235   1.42328595999  -14.8373043359 0 0 0
362 1   36.7270822808   4.06512766911  -14.8932655659 0 0 0
363 1   36.4159272028   1.40115893285  -12.0592125745 0 0 0
364 1   33.7731995842    4.1769909023  -12.2205040668 0 0 0
365 1    39.359779366   1.27679119334  -15.1005899059 0 0 0
366 1   42.0238216661   3.91673410956  -14.8185980702 0 0 0
367 1   42.0556783074   1.29151514382  -12.3016861399 0 0 0
368 1   39.3581647875   3.97496629732  -12.0934370002 0 0 0
369 1   44.7724790542   1.33270790402  -14.9319510147 0 0 0
370 1   47.3074092746   4.06023399864  -14.8427260624 0 0 0
371 1   47.5712411197   1.44803713023   -12.223282484 0 0 0
372 1   44.7460808586   3.93313609457  -12.1789403465 0 0 0
373 1   50.0627135242   1.49338196942  -14.8128574005 0 0 0
374 1   52.7459112148   4.14611140351  -14.9283216309 0 0 0
375 1   52.7396359887    1.3330229087  -12.3663363638 0 0 0
376 1   50.2514193288   4.17969940028  -12.1613676886 0 0 0
377 1        55.40125         1.35125       -14.86375 0 0 0
378 1        58.10375         4.05375       -14.86375 0 0 0
379 1        58.10375         1.35125       -12.16125 0 0 0
380 1        55.40125         4.05375       -12.16125 0 0 0
381 1        60.80625         1.35125       -14.86375 0 0 0
382 1        63.50875         4.05375       -14.86375 0 0 0
383 1        63.50875         1.35125       -12.16125 0 0 0
384 1        60.80625         4.05375       -12.16125 0 0 0
385 1       -63.50875         6.75625       -14.86375 0 0 0
386 1       -60.80625         9.45875       -14.86375 0 0 0
387 1       -60.80625         6.75625       -12.16125 0 0 0
388 1       -63.50875         9.45875       -12.16125 0 0 0
389 1       -58.10375         6.75625       -14.86375 0 0 0
390 1       -55.40125         9.45875       -14.86375 0 0 0
391 1       -55.40125         6.75625       -12.16125 0 0 0
392 1       -58.10375         9.45875       -12.16125 0 0 0
393 1  -52.7367794957   6.70703557801  -14.8335594433 0 0 0
394 1  -50.0833080047   9.19203493061  -15.0873450514 0 0 0
395 1  -50.0756593322   6.35763921574  -12.0148488859 0 0 0
396 1  -52.7720526656   9.39682522517   -12.095405165 0 0 0
397 1  -47.3800585652     6.561457847  -14.8413998027 0 0 0
398 1  -44.6220999174   9.44444201697  -14.8769345148 0 0 0
399 1  -44.6129987032   6.63322172253  -12.3499134645 0 0 0
400 1  -47.4088772085    9.2580731895  -12.1206430343 0 0 0
401 1  -41.7437080657   6.53541222103  -15.1195022566 0 0 0
402 1  -39.1200860624   9.41321473912  -14.9387416259 0 0 0
403 1  -39.0818064258   6.86293815601  -12.1478182703 0 0 0
404 1  -41.9681625049    9.3610474214  -12.2675373348 0 0 0
405 1  -36.4712334622   6.83726359733  -15.0537546866 0 0 0
406 1  -33.8170008268   9.67709820063  -15.0372625061 0 0 0
407 1  -33.8801632686   6.78153213494  -12.2764309413 0 0 0
408 1  -36.4371282263   9.40556232052  -12.2859672079 0 0 0
409 1  -31.2742865588   6.76511824535  -14.8460249492 0 0 0
410 1  -28.6270861231   9.55281431192  -15.0157874703 0 0 0
411 1  -28.5946087193   6.67091787671  -12.4279689658 0 0 0
412 1  -31.1095058754   9.54860244307  -12.2926292326 0 0 0
413 1  -25.9393758523   6.83445013753  -14.8882236067 0 0 0
414 1  -23.0247101191   9.31406870253  -14.9854443802 0 0 0
415 1  -23.1948959414   6.83985940172  -12.2749060411 0 0 0
416 1   -25.823705635   9.58074013952  -12.3665827957 0 0 0
417 1  -20.3425547294   6.61024571015  -15.0014192784 0 0 0
418 1  -17.6642040971   9.43420459275  -14.9520037916 0 0 0
419 1  -17.6447725841   6.71548999953  -12.4285657979 0 0 0
420 1  -20.4170455863   9.60000030863  -12.4317668435 0 0 0
421 1  -14.9296126666   6.71377107047  -15.0663474972 0 0 0
422 1  -12.3635997324   9.49053021875  -14.9570516221 0 0 0
423 1  -12.2813114839   6.71841996292  -12.2393061338 0 0 0
424 1  -15.1079047295    9.3871227088  -12.2736082387 0 0 0
425 1  -9.42610915672   6.80144748914  -14.9163775429 0 0 0
426 1  -6.52774850372   9.53125048121  -14.9841187891 0 0 0
427 1  -6.65714757356    6.7874213937  -12.0657621054 0 0 0
428 1  -9.40008302786   9.39252514926   -12.325092314 0 0 0
429 1  -4.04020114433   6.73721991163  -15.0569567719 0 0 0
430 1  -1.15472589872   9.44659357274  -14.9414686268 0 0 0
431 1  -1.34778222296   6.81829674103  -12.1853215895 0 0 0
432 1  -3.93916009097     9.572382781   -12.148006932 0 0 0
433 1   1.27004774225    6.7365745855  -14.9901242045 0 0 0
434 1   4.16800421415   9.49947990178  -15.0741079187 0 0 0
435 1   4.15933762179   6.80103976582  -12.2010837488 0 0 0
436 1   1.30111937965   9.43633319947  -12.2847915742 0 0 0
437 1   6.80676946951   6.64556847958  -14.9931203743 0 0 0
438 1   9.51488270844   9.40947839304  -14.8793352755 0 0 0
439 1    9.4393249707   6.60846236573  -12.2670763422 0 0 0
440 1   6.74668406216   9.38577792888  -12.2548306721 0 0 0
441 1   11.9704775311   6.56240296829  -14.8790581311 0 0 0
442 1   14.9587646084   9.51054368293  -14.8920905101 0 0 0
443 1   14.7944918768   6.66789966161  -12.2852892102 0 0 0
444 1    12.060467712   9.68218513825  -12.3438670596 0 0 0
445 1   17.3652610956   6.68041733101  -15.1028471578 0 0 0
446 1   20.1701148511   9.51942909785  -14.8605025415 0 0 0
447 1   20.1878150155   6.81239041218  -12.3923790653 0 0 0
448 1   17.5932861359   9.44075682534  -12.2518057102 0 0 0
449 1    22.926035188   6.88418417327  -15.0959512417 0 0 0
450 1   25.6627103661   9.44645333921   -14.816077097 0 0 0
451 1   25.8859082828    6.6307907066  -12.3479385678 0 0 0
452 1   22.9480807214   9.47998949857  -12.0601329523 0 0 0
453 1   28.4093485447   6.88979113944  -14.9583737865 0 0 0
454 1   31.2162759248   9.26295445876  -15.0836120863 0 0 0
455 1   31.1025721978   6.85460359391  -12.1801765871 0 0 0
456 1   28.4426530426   9.45451322438  -12.2099871365 0 0 0
457 1   34.0286699518   6.75028331415  -15.0678467573 0 0 0
458 1   36.7156828329   9.49886122635  -15.0531251226 0 0 0
459 1   36.3921155984   6.80542639943  -12.3501805319 0 0 0
460 1   33.9584768375    9.4210277306  -12.3412375343 0 0 0
461 1   39.2184262151   6.72293293941  -14.9900065509 0 0 0
462 1   41.8573198514   9.31946007982  -14.9502914608 0 0 0
463 1   41.9689084875   6.65875436143  -12.1223345707 0 0 0
464 1   39.3044167406   9.23154901304  -12.3886411951 0 0 0
465 1   44.6458043682   6.80807328059  -15.0077323836 0 0 0
466 1   47.2164920749   9.53093046531   -15.101431673 0 0 0
467 1   47.2950248417   6.68996345848  -12.0545414185 0 0 0
468 1   44.4595018015   9.67470889901  -12.2838052818 0 0 0
469 1   49.8432272198   6.80794606806  -14.7242414691 0 0 0
470 1    52.707451594   9.57239965343  -15.0873893666 0 0 0
471 1   52.6958476171   6.78422464795  -12.3339722806 0 0 0
472 1    49.991564232    9.5448252454  -12.2481961355 0 0 0
473 1        55.40125         6.75625       -14.86375 0 0 0
474 1        58.10375         9.45875       -14.86375 0 0 0
475 1        58.10375         6.75625       -12.16125 0 0 0
476 1        55.40125         9.45875       -12.16125 0 0 0
477 1        60.80625         6.75625       -14.86375 0 0 0
478 1        63.50875         9.45875       -14.86375 0 0 0
479 1        63.50875         6.75625       -12.16125 0 0 0
480 1        60.80625         9.45875       -12.16125 0 0 0
481 1       -63.50875        12.16125       -14.86375 0 0 0
482 1       -60.80625        14.86375       -14.86375 0 0 0
483 1       -60.80625        12.16125       -12.16125 0 0 0
484 1       -63.50875        14.86375       -12.16125 0 0 0
485 1       -58.10375        12.16125       -14.86375 0 0 0
486 1       -55.40125        14.86375       -14.86375 0 0 0
487 1       -55.40125        12.16125       -12.16125 0 0 0
488 1       -58.10375        14.86375       -12.16125 0 0 0
489 1  -52.7055918953   12.1542659904  -14.7690321315 0 0 0
490 1  -50.0102300398   14.6790662766  -14.8109641541 0 0 0
491 1  -49.9430695395   11.8639442042  -12.2125436525 0 0 0
492 1  -52.5621779546   14.7387292452  -12.0504425827 0 0 0
493 1  -47.2455724955   12.1271356158  -14.9222614555 0 0 0
494 1  -44.5321402463   14.8296131691  -14.7239449184 0 0 0
495 1  -44.6654591844     12.13520652  -12.2310834345 0 0 0
496 1   -47.388459781   14.8739217994  -12.4102945436 0 0 0
497 1  -41.7590449345    11.989233103  -15.0291038513 0 0 0
498 1  -39.2532725474   14.9507163121  -14.8503664857 0 0 0