LAMMPS data file from restart file: timestep = 0, procs = 1

2304 atoms

1 atom types

-43.24 43.24 xlo xhi
-16.215 16.215 ylo yhi
-16.215 16.215 zlo zhi

Masses

1 39.95

Pair Coeffs

1 0.238 3.405

Atoms

1 1       -41.88875       -14.86375       -14.86375 0 0 0
2 1       -39.18625       -12.16125       -14.86375 0 0 0
3 1       -39.18625       -14.86375       -12.16125 0 0 0
4 1       -41.88875       -12.16125       -12.16125 0 0 0
5 1       -36.48375       -14.86375       -14.86375 0 0 0
6 1       -33.78125       -12.16125       -14.86375 0 0 0
7 1       -33.78125       -14.86375       -12.16125 0 0 0
8 1       -36.48375       -12.16125       -12.16125 0 0 0
9 1       -31.07875       -14.86375       -14.86375 0 0 0
10 1       -28.37625       -12.16125       -14.86375 0 0 0
11 1       -28.37625       -14.86375       -12.16125 0 0 0
12 1       -31.07875       -12.16125       -12.16125 0 0 0
13 1       -25.67375       -14.86375       -14.86375 0 0 0
14 1       -22.97125       -12.16125       -14.86375 0 0 0
15 1       -22.97125       -14.86375       -12.16125 0 0 0
16 1       -25.67375       -12.16125       -12.16125 0 0 0
17 1       -20.26875       -14.86375       -14.86375 0 0 0
18 1       -17.56625       -12.16125       -14.86375 0 0 0
19 1       -17.56625       -14.86375       -12.16125 0 0 0
20 1       -20.26875       -12.16125       -12.16125 0 0 0
21 1       -14.86375       -14.86375       -14.86375 0 0 0
22 1       -12.16125       -12.16125       -14.86375 0 0 0
23 1       -12.16125       -14.86375       -12.16125 0 0 0
24 1       -14.86375       -12.16125       -12.16125 0 0 0
25 1        -9.45875       -14.86375       -14.86375 0 0 0
26 1        -6.75625       -12.16125       -14.86375 0 0 0
27 1        -6.75625       -14.86375       -12.16125 0 0 0
28 1        -9.45875       -12.16125       -12.16125 0 0 0
29 1        -4.05375       -14.86375       -14.86375 0 0 0
30 1        -1.35125       -12.16125       -14.86375 0 0 0
31 1        -1.35125       -14.86375       -12.16125 0 0 0
32 1        -4.05375       -12.16125       -12.16125 0 0 0
33 1         1.35125       -14.86375       -14.86375 0 0 0
34 1         4.05375       -12.16125       -14.86375 0 0 0
35 1         4.05375       -14.86375       -12.16125 0 0 0
36 1         1.35125       -12.16125       -12.16125 0 0 0
37 1         6.75625       -14.86375       -14.86375 0 0 0
38 1         9.45875       -12.16125       -14.86375 0 0 0
39 1         9.45875       -14.86375       -12.16125 0 0 0
40 1         6.75625       -12.16125       -12.16125 0 0 0
41 1        12.16125       -14.86375       -14.86375 0 0 0
42 1        14.86375       -12.16125       -14.86375 0 0 0
43 1        14.86375       -14.86375       -12.16125 0 0 0
44 1        12.16125       -12.16125       -12.16125 0 0 0
45 1        17.56625       -14.86375       -14.86375 0 0 0
46 1        20.26875       -12.16125       -14.86375 0 0 0
47 1        20.26875       -14.86375       -12.16125 0 0 0
48 1        17.56625       -12.16125       -12.16125 0 0 0
49 1        22.97125       -14.86375       -14.86375 0 0 0
50 1        25.67375       -12.16125       -14.86375 0 0 0
51 1        25.67375       -14.86375       -12.16125 0 0 0
52 1        22.97125       -12.16125       -12.16125 0 0 0
53 1        28.37625       -14.86375       -14.86375 0 0 0
54 1        31.07875       -12.16125       -14.86375 0 0 0
55 1        31.07875       -14.86375       -12.16125 0 0 0
56 1        28.37625       -12.16125       -12.16125 0 0 0
57 1        33.78125       -14.86375       -14.86375 0 0 0
58 1        36.48375       -12.16125       -14.86375 0 0 0
59 1        36.48375       -14.86375       -12.16125 0 0 0
60 1        33.78125       -12.16125       -12.16125 0 0 0
61 1        39.18625       -14.86375       -14.86375 0 0 0
62 1        41.88875       -12.16125       -14.86375 0 0 0
63 1        41.88875       -14.86375       -12.16125 0 0 0
64 1        39.18625       -12.16125       -12.16125 0 0 0
65 1       -41.88875        -9.45875       -14.86375 0 0 0
66 1       -39.18625        -6.75625       -14.86375 0 0 0
67 1       -39.18625        -9.45875       -12.16125 0 0 0
68 1       -41.88875        -6.75625       -12.16125 0 0 0
69 1       -36.48375        -9.45875       -14.86375 0 0 0
70 1       -33.78125        -6.75625       -14.86375 0 0 0
71 1       -33.78125        -9.45875       -12.16125 0 0 0
72 1       -36.48375        -6.75625       -12.16125 0 0 0
73 1       -31.07875        -9.45875       -14.86375 0 0 0
74 1       -28.37625        -6.75625       -14.86375 0 0 0
75 1       -28.37625        -9.45875       -12.16125 0 0 0
76 1       -31.07875        -6.75625       -12.16125 0 0 0
77 1       -25.67375        -9.45875       -14.86375 0 0 0
78 1       -22.97125        -6.75625       -14.86375 0 0 0
79 1       -22.97125        -9.45875       -12.16125 0 0 0
80 1       -25.67375        -6.75625       -12.16125 0 0 0
81 1       -20.26875        -9.45875       -14.86375 0 0 0
82 1       -17.56625        -6.75625       -14.86375 0 0 0
83 1       -17.56625        -9.45875       -12.16125 0 0 0
84 1       -20.26875        -6.75625       -12.16125 0 0 0
85 1       -14.86375        -9.45875       -14.86375 0 0 0
86 1       -12.16125        -6.75625       -14.86375 0 0 0
87 1       -12.16125        -9.45875       -12.16125 0 0 0
88 1       -14.86375        -6.75625       -12.16125 0 0 0
89 1        -9.45875        -9.45875       -14.86375 0 0 0
90 1        -6.75625        -6.75625       -14.86375 0 0 0
91 1        -6.75625        -9.45875       -12.16125 0 0 0
92 1        -9.45875        -6.75625       -12.16125 0 0 0
93 1        -4.05375        -9.45875       -14.86375 0 0 0
94 1        -1.35125        -6.75625       -14.86375 0 0 0
95 1        -1.35125        -9.45875       -12.16125 0 0 0
96 1        -4.05375        -6.75625       -12.16125 0 0 0
97 1         1.35125        -9.45875       -14.86375 0 0 0
98 1         4.05375        -6.75625       -14.86375 0 0 0
99 1         4.05375        -9.45875       -12.16125 0 0 0
100 1         1.35125        -6.75625       -12.16125 0 0 0
101 1         6.75625        -9.45875       -14.86375 0 0 0
102 1         9.45875        -6.75625       -14.86375 0 0 0
103 1         9.45875        -9.45875       -12.16125 0 0 0
104 1         6.75625        -6.75625       -12.16125 0 0 0
105 1        12.16125        -9.45875       -14.86375 0 0 0
106 1        14.86375        -6.75625       -14.86375 0 0 0
107 1        14.86375        -9.45875       -12.16125 0 0 0
108 1        12.16125        -6.75625       -12.16125 0 0 0
109 1        17.56625        -9.45875       -14.86375 0 0 0
110 1        20.26875        -6.75625       -14.86375 0 0 0
111 1        20.26875        -9.45875       -12.16125 0 0 0
112 1        17.56625        -6.75625       -12.16125 0 0 0
113 1        22.97125        -9.45875       -14.86375 0 0 0
114 1        25.67375        -6.75625       -14.86375 0 0 0
115 1        25.67375        -9.45875       -12.16125 0 0 0
116 1        22.97125        -6.75625       -12.16125 0 0 0
117 1        28.37625        -9.45875       -14.86375 0 0 0
118 1        31.07875        -6.75625       -14.86375 0 0 0
119 1        31.07875        -9.45875       -12.16125 0 0 0
120 1        28.37625        -6.75625       -12.16125 0 0 0
121 1        33.78125        -9.45875       -14.86375 0 0 0
122 1        36.48375        -6.75625       -14.86375 0 0 0
123 1        36.48375        -9.45875       -12.16125 0 0 0
124 1        33.78125        -6.75625       -12.16125 0 0 0
125 1        39.18625        -9.45875       -14.86375 0 0 0
126 1        41.88875        -6.75625       -14.86375 0 0 0
127 1        41.88875        -9.45875       -12.16125 0 0 0
128 1        39.18625        -6.75625       -12.16125 0 0 0
129 1       -41.88875        -4.05375       -14.86375 0 0 0
130 1       -39.18625        -1.35125       -14.86375 0 0 0
131 1       -39.18625        -4.05375       -12.16125 0 0 0
132 1       -41.88875        -1.35125       -12.16125 0 0 0
133 1       -36.48375        -4.05375       -14.86375 0 0 0
134 1       -33.78125        -1.35125       -14.86375 0 0 0
135 1       -33.78125        -4.05375       -12.16125 0 0 0
136 1       -36.48375        -1.35125       -12.16125 0 0 0
137 1       -31.07875        -4.05375       -14.86375 0 0 0
138 1       -28.37625        -1.35125       -14.86375 0 0 0
139 1       -28.37625        -4.05375       -12.16125 0 0 0
140 1       -31.07875        -1.35125       -12.16125 0 0 0
141 1       -25.67375        -4.05375       -14.86375 0 0 0
142 1       -22.97125        -1.35125       -14.86375 0 0 0
143 1       -22.97125        -4.05375       -12.16125 0 0 0
144 1       -25.67375        -1.35125       -12.16125 0 0 0
145 1       -20.26875        -4.05375       -14.86375 0 0 0
146 1       -17.56625        -1.35125       -14.86375 0 0 0
147 1       -17.56625        -4.05375       -12.16125 0 0 0
148 1       -20.26875        -1.35125       -12.16125 0 0 0
149 1       -14.86375        -4.05375       -14.86375 0 0 0
150 1       -12.16125        -1.35125       -14.86375 0 0 0
151 1       -12.16125        -4.05375       -12.16125 0 0 0
152 1       -14.86375        -1.35125       -12.16125 0 0 0
153 1        -9.45875        -4.05375       -14.86375 0 0 0
154 1        -6.75625        -1.35125       -14.86375 0 0 0
155 1        -6.75625        -4.05375       -12.16125 0 0 0
156 1        -9.45875        -1.35125       -12.16125 0 0 0
157 1        -4.05375        -4.05375       -14.86375 0 0 0
158 1        -1.35125        -1.35125       -14.86375 0 0 0
159 1        -1.35125        -4.05375       -12.16125 0 0 0
160 1        -4.05375        -1.35125       -12.16125 0 0 0
161 1         1.35125        -4.05375       -14.86375 0 0 0
162 1         4.05375        -1.35125       -14.86375 0 0 0
163 1         4.05375        -4.05375       -12.16125 0 0 0
164 1         1.35125        -1.35125       -12.16125 0 0 0
165 1         6.75625        -4.05375       -14.86375 0 0 0
166 1         9.45875        -1.35125       -14.86375 0 0 0
167 1         9.45875        -4.05375       -12.16125 0 0 0
168 1         6.75625        -1.35125       -12.16125 0 0 0
169 1        12.16125        -4.05375       -14.86375 0 0 0
170 1        14.86375        -1.35125       -14.86375 0 0 0
171 1        14.86375        -4.05375       -12.16125 0 0 0
172 1        12.16125        -1.35125       -12.16125 0 0 0
173 1        17.56625        -4.05375       -14.86375 0 0 0
174 1        20.26875        -1.35125       -14.86375 0 0 0
175 1        20.26875        -4.05375       -12.16125 0 0 0
176 1        17.56625        -1.35125       -12.16125 0 0 0
177 1        22.97125        -4.05375       -14.86375 0 0 0
178 1        25.67375        -1.35125       -14.86375 0 0 0
179 1        25.67375        -4.05375       -12.16125 0 0 0
180 1        22.97125        -1.35125       -12.16125 0 0 0
181 1        28.37625        -4.05375       -14.86375 0 0 0
182 1        31.07875        -1.35125       -14.86375 0 0 0
183 1        31.07875        -4.05375       -12.16125 0 0 0
184 1        28.37625        -1.35125       -12.16125 0 0 0
185 1        33.78125        -4.05375       -14.86375 0 0 0
186 1        36.48375        -1.35125       -14.86375 0 0 0
187 1        36.48375        -4.05375       -12.16125 0 0 0
188 1        33.78125        -1.35125       -12.16125 0 0 0
189 1        39.18625        -4.05375       -14.86375 0 0 0
190 1        41.88875        -1.35125       -14.86375 0 0 0
191 1        41.88875        -4.05375       -12.16125 0 0 0
192 1        39.18625        -1.35125       -12.16125 0 0 0
193 1       -41.88875         1.35125       -14.86375 0 0 0
194 1       -39.18625         4.05375       -14.86375 0 0 0
195 1       -39.18625         1.35125       -12.16125 0 0 0
196 1       -41.88875         4.05375       -12.16125 0 0 0
197 1       -36.48375         1.35125       -14.86375 0 0 0
198 1       -33.78125         4.05375       -14.86375 0 0 0
199 1       -33.78125         1.35125       -12.16125 0 0 0
200 1       -36.48375         4.05375       -12.16125 0 0 0
201 1       -31.07875         1.35125       -14.86375 0 0 0
202 1       -28.37625         4.05375       -14.86375 0 0 0
203 1       -28.37625         1.35125       -12.16125 0 0 0
204 1       -31.07875         4.05375       -12.16125 0 0 0
205 1       -25.67375         1.35125       -14.86375 0 0 0
206 1       -22.97125         4.05375       -14.86375 0 0 0
207 1       -22.97125         1.35125       -12.16125 0 0 0
208 1       -25.67375         4.05375       -12.16125 0 0 0
209 1       -20.26875         1.35125       -14.86375 0 0 0
210 1       -17.56625         4.05375       -14.86375 0 0 0
211 1       -17.56625         1.35125       -12.16125 0 0 0
212 1       -20.26875         4.05375       -12.16125 0 0 0
213 1       -14.86375         1.35125       -14.86375 0 0 0
214 1       -12.16125         4.05375       -14.86375 0 0 0
215 1       -12.16125         1.35125       -12.16125 0 0 0
216 1       -14.86375         4.05375       -12.16125 0 0 0
217 1        -9.45875         1.35125       -14.86375 0 0 0
218 1        -6.75625         4.05375       -14.86375 0 0 0
219 1        -6.75625         1.35125       -12.16125 0 0 0
220 1        -9.45875         4.05375       -12.16125 0 0 0
221 1        -4.05375         1.35125       -14.86375 0 0 0
222 1        -1.35125         4.05375       -14.86375 0 0 0
223 1        -1.35125         1.35125       -12.16125 0 0 0
224 1        -4.05375         4.05375       -12.16125 0 0 0
225 1         1.35125         1.35125       -14.86375 0 0 0
226 1         4.05375         4.05375       -14.86375 0 0 0
227 1         4.05375         1.35125       -12.16125 0 0 0
228 1         1.35125         4.05375       -12.16125 0 0 0
229 1         6.75625         1.35125       -14.86375 0 0 0
230 1         9.45875         4.05375       -14.86375 0 0 0
231 1         9.45875         1.35125       -12.16125 0 0 0
232 1         6.75625         4.05375       -12.16125 0 0 0
233 1        12.16125         1.35125       -14.86375 0 0 0
234 1        14.86375         4.05375       -14.86375 0 0 0
235 1        14.86375         1.35125       -12.16125 0 0 0
236 1        12.16125         4.05375       -12.16125 0 0 0
237 1        17.56625         1.35125       -14.86375 0 0 0
238 1        20.26875         4.05375       -14.86375 0 0 0
239 1        20.26875         1.35125       -12.16125 0 0 0
240 1        17.56625         4.05375       -12.16125 0 0 0
241 1        22.97125         1.35125       -14.86375 0 0 0
242 1        25.67375         4.05375       -14.86375 0 0 0
243 1        25.67375         1.35125       -12.16125 0 0 0
244 1        22.97125         4.05375       -12.16125 0 0 0
245 1        28.37625         1.35125       -14.86375 0 0 0
246 1        31.07875         4.05375       -14.86375 0 0 0
247 1        31.07875         1.35125       -12.16125 0 0 0
248 1        28.37625         4.05375       -12.16125 0 0 0
249 1        33.78125         1.35125       -14.86375 0 0 0
250 1        36.48375         4.05375       -14.86375 0 0 0
251 1        36.48375         1.35125       -12.16125 0 0 0
252 1        33.78125         4.05375       -12.16125 0 0 0
253 1        39.18625         1.35125       -14.86375 0 0 0
254 1        41.88875         4.05375       -14.86375 0 0 0
255 1        41.88875         1.35125       -12.16125 0 0 0
256 1        39.18625         4.05375       -12.16125 0 0 0
257 1       -41.88875         6.75625       -14.86375 0 0 0
258 1       -39.18625         9.45875       -14.86375 0 0 0
259 1       -39.18625         6.75625       -12.16125 0 0 0
260 1       -41.88875         9.45875       -12.16125 0 0 0
261 1       -36.48375         6.75625       -14.86375 0 0 0
262 1       -33.78125         9.45875       -14.86375 0 0 0
263 1       -33.78125         6.75625       -12.16125 0 0 0
264 1       -36.48375         9.45875       -12.16125 0 0 0
265 1       -31.07875         6.75625       -14.86375 0 0 0
266 1       -28.37625         9.45875       -14.86375 0 0 0
267 1       -28.37625         6.75625       -12.16125 0 0 0
268 1       -31.07875         9.45875       -12.16125 0 0 0
269 1       -25.67375         6.75625       -14.86375 0 0 0
270 1       -22.97125         9.45875       -14.86375 0 0 0
271 1       -22.97125         6.75625       -12.16125 0 0 0
272 1       -25.67375         9.45875       -12.16125 0 0 0
273 1       -20.26875         6.75625       -14.86375 0 0 0
274 1       -17.56625         9.45875       -14.86375 0 0 0
275 1       -17.56625         6.75625       -12.16125 0 0 0
276 1       -20.26875         9.45875       -12.16125 0 0 0
277 1       -14.86375         6.75625       -14.86375 0 0 0
278 1       -12.16125         9.45875       -14.86375 0 0 0
279 1       -12.16125         6.75625       -12.16125 0 0 0
280 1       -14.86375         9.45875       -12.16125 0 0 0
281 1        -9.45875         6.75625       -14.86375 0 0 0
282 1        -6.75625         9.45875       -14.86375 0 0 0
283 1        -6.75625         6.75625       -12.16125 0 0 0
284 1        -9.45875         9.45875       -12.16125 0 0 0
285 1        -4.05375         6.75625       -14.86375 0 0 0
286 1        -1.35125         9.45875       -14.86375 0 0 0
287 1        -1.35125         6.75625       -12.16125 0 0 0
288 1        -4.05375         9.45875       -12.16125 0 0 0
289 1         1.35125         6.75625       -14.86375 0 0 0
290 1         4.05375         9.45875       -14.86375 0 0 0
291 1         4.05375         6.75625       -12.16125 0 0 0
292 1         1.35125         9.45875       -12.16125 0 0 0
293 1         6.75625         6.75625       -14.86375 0 0 0
294 1         9.45875         9.45875       -14.86375 0 0 0
295 1         9.45875         6.75625       -12.16125 0 0 0
296 1         6.75625         9.45875       -12.16125 0 0 0
297 1        12.16125         6.75625       -14.86375 0 0 0
298 1        14.86375         9.45875       -14.86375 0 0 0
299 1        14.86375         6.75625       -12.16125 0 0 0
300 1        12.16125         9.45875       -12.16125 0 0 0
301 1        17.56625         6.75625       -14.86375 0 0 0
302 1        20.26875         9.45875       -14.86375 0 0 0
303 1        20.26875         6.75625       -12.16125 0 0 0
304 1        17.56625         9.45875       -12.16125 0 0 0
305 1        22.97125         6.75625       -14.86375 0 0 0
306 1        25.67375         9.45875       -14.86375 0 0 0
307 1        25.67375         6.75625       -12.16125 0 0 0
308 1        22.97125         9.45875       -12.16125 0 0 0
309 1        28.37625         6.75625       -14.86375 0 0 0
310 1        31.07875         9.45875       -14.86375 0 0 0
311 1        31.07875         6.75625       -12.16125 0 0 0
312 1        28.37625         9.45875       -12.16125 0 0 0
313 1        33.78125         6.75625       -14.86375 0 0 0
314 1        36.48375         9.45875       -14.86375 0 0 0
315 1        36.48375         6.75625       -12.16125 0 0 0
316 1        33.78125         9.45875       -12.16125 0 0 0
317 1        39.18625         6.75625       -14.86375 0 0 0
318 1        41.88875         9.45875       -14.86375 0 0 0
319 1        41.88875         6.75625       -12.16125 0 0 0
320 1        39.18625         9.45875       -12.16125 0 0 0
321 1       -41.88875        12.16125       -14.86375 0 0 0
322 1       -39.18625        14.86375       -14.86375 0 0 0
323 1       -39.18625        12.16125       -12.16125 0 0 0
324 1       -41.88875        14.86375       -12.16125 0 0 0
325 1       -36.48375        12.16125       -14.86375 0 0 0
326 1       -33.78125        14.86375       -14.86375 0 0 0
327 1       -33.78125        12.16125       -12.16125 0 0 0
328 1       -36.48375        14.86375       -12.16125 0 0 0
329 1       -31.07875        12.16125       -14.86375 0 0 0
330 1       -28.37625        14.86375       -14.86375 0 0 0
331 1       -28.37625        12.16125       -12.16125 0 0 0
332 1       -31.07875        14.86375       -12.16125 0 0 0
333 1       -25.67375        12.16125       -14.86375 0 0 0
334 1       -22.97125        14.86375       -14.86375 0 0 0
335 1       -22.97125        12.16125       -12.16125 0 0 0
336 1       -25.67375        14.86375       -12.16125 0 0 0
337 1       -20.26875        12.16125       -14.86375 0 0 0
338 1       -17.56625        14.86375       -14.86375 0 0 0
339 1       -17.56625        12.16125       -12.16125 0 0 0
340 1       -20.26875        14.86375       -12.16125 0 0 0
341 1       -14.86375        12.16125       -14.86375 0 0 0
342 1       -12.16125        14.86375       -14.86375 0 0 0
343 1       -12.16125        12.16125       -12.16125 0 0 0
344 1       -14.86375        14.86375       -12.16125 0 0 0
345 1        -9.45875        12.16125       -14.86375 0 0 0
346 1        -6.75625        14.86375       -14.86375 0 0 0
347 1        -6.75625        12.16125       -12.16125 0 0 0
348 1        -9.45875        14.86375       -12.16125 0 0 0
349 1        -4.05375        12.16125       -14.86375 0 0 0
350 1        -1.35125        14.86375       -14.86375 0 0 0
351 1        -1.35125        12.16125       -12.16125 0 0 0
352 1        -4.05375        14.86375       -12.16125 0 0 0
353 1         1.35125        12.16125       -14.86375 0 0 0
354 1         4.05375        14.86375       -14.86375 0 0 0
355 1         4.05375        12.16125       -12.16125 0 0 0
356 1         1.35125        14.86375       -12.16125 0 0 0
357 1         6.75625        12.16125       -14.86375 0 0 0
358 1         9.45875        14.86375       -14.86375 0 0 0
359 1         9.45875        12.16125       -12.16125 0 0 0
360 1         6.75625        14.86375       -12.16125 0 0 0
361 1        12.16125        12.16125       -14.86375 0 0 0
362 1        14.86375        14.86375       -14.86375 0 0 0
363 1        14.86375        12.16125       -12.16125 0 0 0
364 1        12.16125        14.86375       -12.16125 0 0 0
365 1        17.56625        12.16125       -14.86375 0 0 0
366 1        20.26875        14.86375       -14.86375 0 0 0
367 1        20.26875        12.16125       -12.16125 0 0 0
368 1        17.56625        14.86375       -12.16125 0 0 0
369 1        22.97125        12.16125       -14.86375 0 0 0
370 1        25.67375        14.86375       -14.86375 0 0 0
371 1        25.67375        12.16125       -12.16125 0 0 0
372 1        22.97125        14.86375       -12.16125 0 0 0
373 1        28.37625        12.16125       -14.86375 0 0 0
374 1        31.07875        14.86375       -14.86375 0 0 0
375 1        31.07875        12.16125       -12.16125 0 0 0
376 1        28.37625        14.86375       -12.16125 0 0 0
377 1        33.78125        12.16125       -14.86375 0 0 0
378 1        36.48375        14.86375       -14.86375 0 0 0
379 1        36.48375        12.16125       -12.16125 0 0 0
380 1        33.78125        14.86375       -12.16125 0 0 0
381 1        39.18625        12.16125       -14.86375 0 0 0
382 1        41.88875        14.86375       -14.86375 0 0 0
383 1        41.88875        12.16125       -12.16125 0 0 0
384 1        39.18625        14.86375       -12.16125 0 0 0
385 1       -41.88875       -14.86375        -9.45875 0 0 0
386 1       -39.18625       -12.16125        -9.45875 0 0 0
387 1       -39.18625       -14.86375        -6.75625 0 0 0
388 1       -41.88875       -12.16125        -6.75625 0 0 0
389 1       -36.48375       -14.86375        -9.45875 0 0 0
390 1       -33.78125       -12.16125        -9.45875 0 0 0
391 1       -33.78125       -14.86375        -6.75625 0 0 0
392 1       -36.48375       -12.16125        -6.75625 0 0 0
393 1       -31.07875       -14.86375        -9.45875 0 0 0
394 1       -28.37625       -12.16125        -9.45875 0 0 0
395 1       -28.37625       -14.86375        -6.75625 0 0 0
396 1       -31.07875       -12.16125        -6.75625 0 0 0
397 1       -25.67375       -14.86375        -9.45875 0 0 0
398 1       -22.97125       -12.16125        -9.45875 0 0 0
399 1       -22.97125       -14.86375        -6.75625 0 0 0
400 1       -25.67375       -12.16125        -6.75625 0 0 0
401 1       -20.26875       -14.86375        -9.45875 0 0 0
402 1       -17.56625       -12.16125        -9.45875 0 0 0
403 1       -17.56625       -14.86375        -6.75625 0 0 0
404 1       -20.26875       -12.16125        -6.75625 0 0 0
405 1       -14.86375       -14.86375        -9.45875 0 0 0
406 1       -12.16125       -12.16125        -9.45875 0 0 0
407 1       -12.16125       -14.86375        -6.75625 0 0 0
408 1       -14.86375       -12.16125        -6.75625 0 0 0
409 1        -9.45875       -14.86375        -9.45875 0 0 0
410 1        -6.75625       -12.16125        -9.45875 0 0 0
411 1        -6.75625       -14.86375        -6.75625 0 0 0
412 1        -9.45875       -12.16125        -6.75625 0 0 0
413 1        -4.05375       -14.86375        -9.45875 0 0 0
414 1        -1.35125       -12.16125        -9.45875 0 0 0
415 1        -1.35125       -14.86375        -6.75625 0 0 0
416 1        -4.05375       -12.16125        -6.75625 0 0 0
417 1         1.35125       -14.86375        -9.45875 0 0 0
418 1         4.05375       -12.16125        -9.45875 0 0 0
419 1         4.05375       -14.86375        -6.75625 0 0 0
420 1         1.35125       -12.16125        -6.75625 0 0 0
421 1         6.75625       -14.86375        -9.45875 0 0 0
422 1         9.45875       -12.16125        -9.45875 0 0 0
423 1         9.45875       -14.86375        -6.75625 0 0 0
424 1         6.75625       -12.16125        -6.75625 0 0 0
425 1        12.16125       -14.86375        -9.45875 0 0 0
426 1        14.86375       -12.16125        -9.45875 0 0 0
427 1        14.86375       -14.86375        -6.75625 0 0 0
428 1        12.16125       -12.16125        -6.75625 0 0 0
429 1        17.56625       -14.86375        -9.45875 0 0 0
430 1        20.26875       -12.16125        -9.45875 0 0 0
431 1        20.26875       -14.86375        -6.75625 0 0 0
432 1        17.56625       -12.16125        -6.75625 0 0 0
433 1        22.97125       -14.86375        -9.45875 0 0 0
434 1        25.67375       -12.16125        -9.45875 0 0 0
435 1        25.67375       -14.86375        -6.75625 0 0 0
436 1        22.97125       -12.16125        -6.75625 0 0 0
437 1        28.37625       -14.86375        -9.45875 0 0 0
438 1        31.07875       -12.16125        -9.45875 0 0 0
439 1        31.07875       -14.86375        -6.75625 0 0 0
440 1        28.37625       -12.16125        -6.75625 0 0 0
441 1        33.78125       -14.86375        -9.45875 0 0 0
442 1        36.48375       -12.16125        -9.45875 0 0 0
443 1        36.48375       -14.86375        -6.75625 0 0 0
444 1        33.78125       -12.16125        -6.75625 0 0 0
445 1        39.18625       -14.86375        -9.45875 0 0 0
446 1        41.88875       -12.16125        -9.45875 0 0 0
447 1        41.88875       -14.86375        -6.75625 0 0 0
448 1        39.18625       -12.16125        -6.75625 0 0 0
449 1       -41.88875        -9.45875        -9.45875 0 0 0
450 1       -39.18625        -6.75625        -9.45875 0 0 0
451 1       -39.18625        -9.45875        -6.75625 0 0 0
452 1       -41.88875        -6.75625        -6.75625 0 0 0
453 1       -36.48375        -9.45875        -9.45875 0 0 0
454 1       -33.78125        -6.75625        -9.45875 0 0 0
455 1       -33.78125        -9.45875        -6.75625 0 0 0
456 1       -36.48375        -6.75625        -6.75625 0 0 0
457 1       -31.07875        -9.45875        -9.45875 0 0 0
458 1       -28.37625        -6.75625        -9.45875 0 0 0
459 1       -28.37625        -9.45875        -6.75625 0 0 0
460 1       -31.07875        -6.75625        -6.75625 0 0 0
461 1       -25.67375        -9.45875        -9.45875 0 0 0
462 1       -22.97125        -6.75625        -9.45875 0 0 0
463 1       -22.97125        -9.45875        -6.75625 0 0 0
464 1       -25.67375        -6.75625        -6.75625 0 0 0
465 1       -20.26875        -9.45875        -9.45875 0 0 0
466 1       -17.56625        -6.75625        -9.45875 0 0 0
467 1       -17.56625        -9.45875        -6.75625 0 0 0
468 1       -20.26875        -6.75625        -6.75625 0 0 0
469 1       -14.86375        -9.45875        -9.45875 0 0 0
470 1       -12.16125        -6.75625        -9.45875 0 0 0
471 1       -12.16125        -9.45875        -6.75625 0 0 0
472 1       -14.86375        -6.75625        -6.75625 0 0 0
473 1        -9.45875        -9.45875        -9.45875 0 0 0
474 1        -6.75625        -6.75625        -9.45875 0 0 0
475 1        -6.75625        -9.45875        -6.75625 0 0 0
476 1        -9.45875        -6.75625        -6.75625 0 0 0
477 1        -4.05375        -9.45875        -9.45875 0 0 0
478 1        -1.35125        -6.75625        -9.45875 0 0 0
479 1        -1.35125        -9.45875        -6.75625 0 0 0
480 1        -4.05375        -6.75625        -6.75625 0 0 0
481 1         1.35125        -9.45875        -9.45875 0 0 0
482 1         4.05375        -6.75625        -9.45875 0 0 0
483 1         4.05375        -9.45875        -6.75625 0 0 0
484 1         1.35125        -6.75625        -6.75625 0 0 0
485 1         6.75625        -9.45875        -9.45875 0 0 0
486 1         9.45875        -6.75625        -9.45875 0 0 0
487 1         9.45875        -9.45875        -6.75625 0 0 0
488 1         6.75625        -6.75625        -6.75625 0 0 0
489 1        12.16125        -9.45875        -9.45875 0 0 0
490 1        14.86375        -6.75625        -9.45875 0 0 0
491 1        14.86375        -9.45875        -6.75625 0 0 0
492 1        12.16125        -6.75625        -6.75625 0 0 0
493 1        17.56625        -9.45875        -9.45875 0 0 0
494 1        20.26875        -6.75625        -9.45875 0 0 0
495 1        20.26875        -9.45875        -6.75625 0 0 0
496 1        17.56625        -6.75625        -6.75625 0 0 0
497 1        22.97125        -9.45875        -9.45875 0 0 0
498 1        25.67375        -6.75625        -9.45875 0 0 0