created by fftool

1089 atoms
728 bonds
388 angles

5 atom types
3 bond types
4 angle types

-13.443762 13.443762 xlo xhi
-13.443762 13.443762 ylo yhi
-13.443762 13.443762 zlo zhi

Masses

   1   12.011  # C-CF
   2    1.008  # H-D
   3   18.998  # FD-
   4    1.008  # Hw
   5   15.999  # Ow

Bond Coeffs

   1   340.0  1.090  # HC-CT
   2   367.0  1.332  # F-CT
   3   517.6  1.000  # Ow-Hw

Angle Coeffs

   1   33.00  107.80  # HC-CT-HC
   2    0.00    0.00  # HC-CT-F
   3   77.00  109.10  # F-CT-F
   4   37.95  109.47  # Hw-Ow-Hw

Atoms

      1       1    1 -0.240  8.975867e+00 -9.113664e+00 -1.037095e+01  # C-CF   CH4->CF4
      2       1    2  0.060  8.669630e+00 -1.015606e+01 -1.028309e+01  # H-D    CH4->CF4
      3       1    2  0.060  8.130672e+00 -8.513265e+00 -1.070750e+01  # H-D    CH4->CF4
      4       1    2  0.060  9.314976e+00 -8.751039e+00 -9.400585e+00  # H-D    CH4->CF4
      5       1    2  0.060  9.788623e+00 -9.032806e+00 -1.109275e+01  # H-D    CH4->CF4
      6       1    3  0.000  9.969070e+00 -9.014853e+00 -1.125300e+01  # FD-    CH4->CF4
      7       1    3  0.000  9.390264e+00 -8.670529e+00 -9.185146e+00  # FD-    CH4->CF4
      8       1    3  0.000  8.602360e+00 -1.038772e+01 -1.026375e+01  # FD-    CH4->CF4
      9       1    3  0.000  7.941977e+00 -8.381672e+00 -1.078264e+01  # FD-    CH4->CF4
     10       2    4  0.424 -4.596511e+00  2.100803e+00 -4.388361e+00  # Hw     SPCE
     11       2    5 -0.848 -5.081431e+00  2.891631e+00 -4.761783e+00  # Ow     SPCE
     12       2    4  0.424 -5.166319e+00  2.792882e+00 -5.753268e+00  # Hw     SPCE
     13       3    4  0.424 -7.278050e+00 -6.040974e+00  1.201756e+00  # Hw     SPCE
     14       3    5 -0.848 -6.660532e+00 -5.552833e+00  5.849990e-01  # Ow     SPCE
     15       3    4  0.424 -6.986289e+00 -5.646590e+00 -3.557940e-01  # Hw     SPCE
     16       4    4  0.424  3.464157e+00  1.140011e+01 -8.432949e+00  # Hw     SPCE
     17       4    5 -0.848  2.747150e+00  1.139790e+01 -9.130011e+00  # Ow     SPCE
     18       4    4  0.424  1.850957e+00  1.139998e+01 -8.686351e+00  # Hw     SPCE
     19       5    4  0.424  3.507777e+00  1.889067e+00 -5.991372e+00  # Hw     SPCE
     20       5    5 -0.848  4.166350e+00  2.633002e+00 -5.878046e+00  # Ow     SPCE
     21       5    4  0.424  5.093426e+00  2.258354e+00 -5.865000e+00  # Hw     SPCE
     22       6    4  0.424 -6.495795e+00 -6.573910e+00 -1.140022e+01  # Hw     SPCE
     23       6    5 -0.848 -6.621181e+00 -7.566018e+00 -1.140057e+01  # Ow     SPCE
     24       6    4  0.424 -7.598349e+00 -7.778485e+00 -1.140063e+01  # Hw     SPCE
     25       7    4  0.424 -2.035092e+00  3.919500e-01 -1.010691e+01  # Hw     SPCE
     26       7    5 -0.848 -3.020236e+00  3.944240e-01 -1.027862e+01  # Ow     SPCE
     27       7    4  0.424 -3.205178e+00 -3.039600e-02 -1.116481e+01  # Hw     SPCE
     28       8    4  0.424  1.139818e+00 -1.422433e+00 -8.437289e+00  # Hw     SPCE
     29       8    5 -0.848  1.768037e+00 -7.116700e-01 -8.753763e+00  # Ow     SPCE
     30       8    4  0.424  1.294377e+00  1.688960e-01 -8.769567e+00  # Hw     SPCE
     31       9    4  0.424 -1.009109e+01  3.546518e+00  2.792118e+00  # Hw     SPCE
     32       9    5 -0.848 -1.043360e+01  4.111038e+00  2.041114e+00  # Ow     SPCE
     33       9    4  0.424 -1.139712e+01  4.327065e+00  2.199102e+00  # Hw     SPCE
     34      10    4  0.424  9.251542e+00 -6.222894e+00 -7.456990e+00  # Hw     SPCE
     35      10    5 -0.848  1.024417e+01 -6.313874e+00 -7.537122e+00  # Ow     SPCE
     36      10    4  0.424  1.053580e+01 -5.999874e+00 -8.440646e+00  # Hw     SPCE
     37      11    4  0.424 -8.526982e+00 -4.297979e+00 -6.176220e+00  # Hw     SPCE
     38      11    5 -0.848 -7.537868e+00 -4.165680e+00 -6.111798e+00  # Ow     SPCE
     39      11    4  0.424 -7.085871e+00 -5.055569e+00 -6.050195e+00  # Hw     SPCE
     40      12    4  0.424  8.427566e+00  7.160070e-01  6.569724e+00  # Hw     SPCE
     41      12    5 -0.848  8.439309e+00  1.196295e+00  5.692692e+00  # Ow     SPCE
     42      12    4  0.424  7.516173e+00  1.211319e+00  5.308512e+00  # Hw     SPCE
     43      13    4  0.424 -3.785276e+00 -1.638671e+00 -3.561604e+00  # Hw     SPCE
     44      13    5 -0.848 -3.399960e+00 -7.240770e-01 -3.438920e+00  # Ow     SPCE
     45      13    4  0.424 -3.664918e+00 -3.682290e-01 -2.542723e+00  # Hw     SPCE
     46      14    4  0.424 -1.043341e+01  2.601009e+00 -7.636972e+00  # Hw     SPCE
     47      14    5 -0.848 -1.136501e+01  2.928636e+00 -7.794359e+00  # Ow     SPCE
     48      14    4  0.424 -1.139997e+01  3.917164e+00 -7.647428e+00  # Hw     SPCE
     49      15    4  0.424 -6.877412e+00 -1.140072e+01  2.378483e+00  # Hw     SPCE
     50      15    5 -0.848 -7.363560e+00 -1.127259e+01  1.514051e+00  # Ow     SPCE
     51      15    4  0.424 -8.344398e+00 -1.140034e+01  1.661142e+00  # Hw     SPCE
     52      16    4  0.424  3.956148e+00  2.840660e+00 -2.628402e+00  # Hw     SPCE
     53      16    5 -0.848  4.700006e+00  3.090628e+00 -2.008571e+00  # Ow     SPCE
     54      16    4  0.424  5.243595e+00  2.278707e+00 -1.795749e+00  # Hw     SPCE
     55      17    4  0.424  5.905299e+00 -7.872566e+00  8.980543e+00  # Hw     SPCE
     56      17    5 -0.848  4.936171e+00 -7.657431e+00  9.100990e+00  # Ow     SPCE
     57      17    4  0.424  4.419272e+00 -8.504775e+00  9.222740e+00  # Hw     SPCE
     58      18    4  0.424  6.222901e+00 -1.140314e+01 -2.310517e+00  # Hw     SPCE
     59      18    5 -0.848  5.493728e+00 -1.129660e+01 -2.986501e+00  # Ow     SPCE
     60      18    4  0.424  5.874246e+00 -1.139679e+01 -3.905830e+00  # Hw     SPCE
     61      19    4  0.424  4.409590e-01  7.065852e+00 -5.536294e+00  # Hw     SPCE
     62      19    5 -0.848 -3.575400e-02  7.944662e+00 -5.515374e+00  # Ow     SPCE
     63      19    4  0.424 -1.022098e+00  7.787707e+00 -5.465470e+00  # Hw     SPCE
     64      20    4  0.424 -5.984553e+00  9.279095e+00  1.138582e+01  # Hw     SPCE
     65      20    5 -0.848 -6.586176e+00  1.007775e+01  1.140024e+01  # Ow     SPCE
     66      20    4  0.424 -6.034799e+00  1.091113e+01  1.136213e+01  # Hw     SPCE
     67      21    4  0.424  1.137245e+01  7.027285e+00  9.894704e+00  # Hw     SPCE
     68      21    5 -0.848  1.140000e+01  7.562012e+00  9.050129e+00  # Ow     SPCE
     69      21    4  0.424  1.048560e+01  7.912471e+00  8.847533e+00  # Hw     SPCE
     70      22    4  0.424  6.177000e-02  1.767744e+00  3.537182e+00  # Hw     SPCE
     71      22    5 -0.848  9.529140e-01  2.209436e+00  3.433401e+00  # Ow     SPCE
     72      22    4  0.424  8.272530e-01  3.197996e+00  3.349992e+00  # Hw     SPCE
     73      23    4  0.424  8.854737e+00  8.003738e+00  1.136392e+01  # Hw     SPCE
     74      23    5 -0.848  8.267720e+00  7.194968e+00  1.139999e+01  # Ow     SPCE
     75      23    4  0.424  8.832037e+00  6.370983e+00  1.134905e+01  # Hw     SPCE
     76      24    4  0.424  7.431856e+00 -5.290613e+00  6.215836e+00  # Hw     SPCE
     77      24    5 -0.848  7.331472e+00 -5.849216e+00  7.039174e+00  # Ow     SPCE
     78      24    4  0.424  7.638603e+00 -5.327744e+00  7.835251e+00  # Hw     SPCE
     79      25    4  0.424  9.992723e+00  3.605153e+00  1.139817e+01  # Hw     SPCE
     80      25    5 -0.848  1.098926e+01  3.688201e+00  1.139540e+01  # Ow     SPCE
     81      25    4  0.424  1.139974e+01  2.776340e+00  1.140000e+01  # Hw     SPCE
     82      26    4  0.424 -8.889052e+00 -1.063913e+01  1.140004e+01  # Hw     SPCE
     83      26    5 -0.848 -8.240368e+00 -1.140015e+01  1.139274e+01  # Ow     SPCE
     84      26    4  0.424 -7.306907e+00 -1.104224e+01  1.136931e+01  # Hw     SPCE
     85      27    4  0.424  8.475438e+00  1.138906e+01 -4.130437e+00  # Hw     SPCE
     86      27    5 -0.848  7.757234e+00  1.125096e+01 -3.448446e+00  # Ow     SPCE
     87      27    4  0.424  6.863235e+00  1.140000e+01 -3.871001e+00  # Hw     SPCE
     88      28    4  0.424 -1.010427e+01  7.065100e+00  1.132354e+01  # Hw     SPCE
     89      28    5 -0.848 -9.288843e+00  7.638679e+00  1.140154e+01  # Ow     SPCE
     90      28    4  0.424 -8.740272e+00  7.553024e+00  1.056984e+01  # Hw     SPCE
     91      29    4  0.424 -1.044971e+01 -6.130452e+00  1.965488e+00  # Hw     SPCE
     92      29    5 -0.848 -1.139402e+01 -6.415827e+00  2.129313e+00  # Ow     SPCE
     93      29    4  0.424 -1.139900e+01 -7.256128e+00  2.671410e+00  # Hw     SPCE
     94      30    4  0.424 -9.792514e+00  9.080049e+00 -3.850390e-01  # Hw     SPCE
     95      30    5 -0.848 -8.896442e+00  8.799253e+00 -7.288540e-01  # Ow     SPCE
     96      30    4  0.424 -8.209183e+00  9.473048e+00 -4.574250e-01  # Hw     SPCE
     97      31    4  0.424 -7.930411e+00 -5.472057e+00  1.130763e+01  # Hw     SPCE
     98      31    5 -0.848 -8.645761e+00 -4.821339e+00  1.105299e+01  # Ow     SPCE
     99      31    4  0.424 -8.410363e+00 -3.914017e+00  1.140135e+01  # Hw     SPCE
    100      32    4  0.424 -1.140004e+01  3.469141e+00  6.948075e+00  # Hw     SPCE
    101      32    5 -0.848 -1.131046e+01  4.306397e+00  6.408651e+00  # Ow     SPCE
    102      32    4  0.424 -1.139947e+01  4.087930e+00  5.436875e+00  # Hw     SPCE
    103      33    4  0.424 -1.835461e+00 -7.365099e+00  1.134671e+01  # Hw     SPCE
    104      33    5 -0.848 -1.403474e+00 -8.265403e+00  1.140000e+01  # Ow     SPCE
    105      33    4  0.424 -6.826310e-01 -8.330593e+00  1.070998e+01  # Hw     SPCE
    106      34    4  0.424 -9.969108e+00 -1.140005e+01  8.706677e+00  # Hw     SPCE
    107      34    5 -0.848 -1.076744e+01 -1.082994e+01  8.900727e+00  # Ow     SPCE
    108      34    4  0.424 -1.061538e+01 -9.909660e+00  8.540230e+00  # Hw     SPCE
    109      35    4  0.424 -1.073783e+01  4.370983e+00 -3.633376e+00  # Hw     SPCE
    110      35    5 -0.848 -1.091880e+01  4.656350e+00 -4.574552e+00  # Ow     SPCE
    111      35    4  0.424 -1.140067e+01  5.532587e+00 -4.570364e+00  # Hw     SPCE
    112      36    4  0.424 -2.426875e+00 -6.893129e+00 -8.196088e+00  # Hw     SPCE
    113      36    5 -0.848 -2.634168e+00 -7.858350e+00 -8.355394e+00  # Ow     SPCE
    114      36    4  0.424 -1.880150e+00 -8.282880e+00 -8.856624e+00  # Hw     SPCE
    115      37    4  0.424 -6.021579e+00  8.738924e+00  5.399308e+00  # Hw     SPCE
    116      37    5 -0.848 -6.535587e+00  8.622981e+00  4.549395e+00  # Ow     SPCE
    117      37    4  0.424 -6.087642e+00  9.134998e+00  3.816467e+00  # Hw     SPCE
    118      38    4  0.424 -1.093569e+00  1.545692e+00  9.309955e+00  # Hw     SPCE
    119      38    5 -0.848 -1.498400e-01  1.635396e+00  9.628276e+00  # Ow     SPCE
    120      38    4  0.424  1.786130e-01  2.561111e+00  9.440739e+00  # Hw     SPCE
    121      39    4  0.424  9.379801e+00 -3.460700e-02 -9.118196e+00  # Hw     SPCE
    122      39    5 -0.848  8.544616e+00 -5.201480e-01 -8.859903e+00  # Ow     SPCE
    123      39    4  0.424  8.783842e+00 -1.402230e+00 -8.454067e+00  # Hw     SPCE
    124      40    4  0.424 -8.136961e+00 -8.070417e+00  9.822524e+00  # Hw     SPCE
    125      40    5 -0.848 -7.629293e+00 -8.811068e+00  9.382399e+00  # Ow     SPCE
    126      40    4  0.424 -6.835794e+00 -8.433555e+00  8.905069e+00  # Hw     SPCE
    127      41    4  0.424  7.541824e+00  6.967358e+00 -7.627130e+00  # Hw     SPCE
    128      41    5 -0.848  7.201139e+00  7.868778e+00 -7.894293e+00  # Ow     SPCE
    129      41    4  0.424  6.217090e+00  7.917349e+00 -7.723159e+00  # Hw     SPCE
    130      42    4  0.424  9.044392e+00 -6.928070e+00  1.140006e+01  # Hw     SPCE
    131      42    5 -0.848  8.954161e+00 -6.225041e+00  1.069465e+01  # Ow     SPCE
    132      42    4  0.424  9.854901e+00 -5.843362e+00  1.048731e+01  # Hw     SPCE
    133      43    4  0.424  1.139960e+01 -1.119204e+01  7.640450e-01  # Hw     SPCE
    134      43    5 -0.848  1.083085e+01 -1.138823e+01 -3.472200e-02  # Ow     SPCE
    135      43    4  0.424  1.140202e+01 -1.140154e+01 -8.554390e-01  # Hw     SPCE
    136      44    4  0.424  5.838993e+00 -7.151510e-01  9.858680e+00  # Hw     SPCE
    137      44    5 -0.848  5.932365e+00 -4.177760e-01  1.080886e+01  # Ow     SPCE
    138      44    4  0.424  5.392963e+00 -1.017193e+00  1.140025e+01  # Hw     SPCE
    139      45    4  0.424 -1.897080e-01 -1.658825e+00  8.684929e+00  # Hw     SPCE
    140      45    5 -0.848 -1.101139e+00 -2.062331e+00  8.765406e+00  # Ow     SPCE
    141      45    4  0.424 -1.374545e+00 -2.446673e+00  7.883630e+00  # Hw     SPCE
    142      46    4  0.424 -6.553310e-01  8.633973e+00  5.830132e+00  # Hw     SPCE
    143      46    5 -0.848 -3.361050e-01  8.916813e+00  4.925645e+00  # Ow     SPCE
    144      46    4  0.424  5.545650e-01  9.363356e+00  5.011121e+00  # Hw     SPCE
    145      47    4  0.424 -5.331987e+00  8.437686e+00 -2.738106e+00  # Hw     SPCE
    146      47    5 -0.848 -6.323656e+00  8.448089e+00 -2.609715e+00  # Ow     SPCE
    147      47    4  0.424 -6.769533e+00  8.674077e+00 -3.475812e+00  # Hw     SPCE
    148      48    4  0.424  9.679864e+00 -6.320336e+00  3.586639e+00  # Hw     SPCE
    149      48    5 -0.848  1.024171e+01 -7.142598e+00  3.496020e+00  # Ow     SPCE
    150      48    4  0.424  1.120828e+01 -6.894754e+00  3.561765e+00  # Hw     SPCE
    151      49    4  0.424  3.187712e+00 -1.140794e+01 -9.219528e+00  # Hw     SPCE
    152      49    5 -0.848  2.407614e+00 -1.078349e+01 -9.258395e+00  # Ow     SPCE
    153      49    4  0.424  2.737408e+00 -9.842266e+00 -9.331378e+00  # Hw     SPCE
    154      50    4  0.424 -5.701344e+00  8.170379e+00  5.494360e-01  # Hw     SPCE
    155      50    5 -0.848 -6.141477e+00  7.316110e+00  2.728370e-01  # Ow     SPCE
    156      50    4  0.424 -5.495530e+00  6.763741e+00 -2.540800e-01  # Hw     SPCE
    157      51    4  0.424 -1.140000e+01 -7.491060e-01  1.577757e+00  # Hw     SPCE
    158      51    5 -0.848 -1.082023e+01 -1.549544e+00  1.729959e+00  # Ow     SPCE
    159      51    4  0.424 -1.133725e+01 -2.245752e+00  2.227941e+00  # Hw     SPCE
    160      52    4  0.424 -5.138007e+00  5.149180e+00  1.062095e+01  # Hw     SPCE
    161      52    5 -0.848 -5.497299e+00  6.025267e+00  1.094248e+01  # Ow     SPCE
    162      52    4  0.424 -4.769593e+00  6.536240e+00  1.140003e+01  # Hw     SPCE
    163      53    4  0.424  7.221521e+00  7.400730e-01 -3.897556e+00  # Hw     SPCE
    164      53    5 -0.848  7.569166e+00 -1.869460e-01 -3.756916e+00  # Ow     SPCE
    165      53    4  0.424  6.937273e+00 -6.946180e-01 -3.171271e+00  # Hw     SPCE
    166      54    4  0.424  3.048699e+00 -6.143359e+00 -4.894062e+00  # Hw     SPCE
    167      54    5 -0.848  2.884479e+00 -7.126441e+00 -4.812933e+00  # Ow     SPCE
    168      54    4  0.424  2.254685e+00 -7.419645e+00 -5.532231e+00  # Hw     SPCE
    169      55    4  0.424  5.631310e+00 -9.037500e-01  6.409880e+00  # Hw     SPCE
    170      55    5 -0.848  6.233697e+00 -1.462187e+00  6.980211e+00  # Ow     SPCE
    171      55    4  0.424  6.296294e+00 -2.383487e+00  6.596429e+00  # Hw     SPCE
    172      56    4  0.424 -3.388815e+00  3.677982e+00  4.557827e+00  # Hw     SPCE
    173      56    5 -0.848 -2.403859e+00  3.722302e+00  4.390800e+00  # Ow     SPCE
    174      56    4  0.424 -2.213784e+00  4.421542e+00  3.701646e+00  # Hw     SPCE
    175      57    4  0.424 -1.442755e+00  1.061616e+01  8.006541e+00  # Hw     SPCE
    176      57    5 -0.848 -8.392000e-01  1.140049e+01  7.863202e+00  # Ow     SPCE
    177      57    4  0.424  4.928000e-02  1.108146e+01  7.533312e+00  # Hw     SPCE
    178      58    4  0.424 -1.140002e+01  1.140179e+01  1.140013e+01  # Hw     SPCE
    179      58    5 -0.848 -1.138237e+01  1.058534e+01  1.082298e+01  # Ow     SPCE
    180      58    4  0.424 -1.140116e+01  9.768805e+00  1.139997e+01  # Hw     SPCE
    181      59    4  0.424 -2.483874e+00  7.551938e+00 -1.252236e+00  # Hw     SPCE
    182      59    5 -0.848 -2.285754e+00  7.935871e+00 -2.154092e+00  # Ow     SPCE
    183      59    4  0.424 -1.347816e+00  7.707319e+00 -2.414928e+00  # Hw     SPCE
    184      60    4  0.424  2.028538e+00  1.548664e+00 -3.287700e-01  # Hw     SPCE
    185      60    5 -0.848  1.305269e+00  2.024997e+00  1.712200e-01  # Ow     SPCE
    186      60    4  0.424  5.324080e-01  1.405743e+00  3.098180e-01  # Hw     SPCE
    187      61    4  0.424 -9.601350e-01 -1.831208e+00 -1.327822e+00  # Hw     SPCE
    188      61    5 -0.848 -1.119750e-01 -2.332515e+00 -1.499040e+00  # Ow     SPCE
    189      61    4  0.424 -2.416410e-01 -3.296331e+00 -1.266138e+00  # Hw     SPCE
    190      62    4  0.424  8.089591e+00 -9.110140e+00  7.142597e+00  # Hw     SPCE
    191      62    5 -0.848  8.520063e+00 -8.538622e+00  6.443983e+00  # Ow     SPCE
    192      62    4  0.424  9.436243e+00 -8.887208e+00  6.246239e+00  # Hw     SPCE
    193      63    4  0.424  1.139061e+01 -1.306737e+00  1.631315e+00  # Hw     SPCE
    194      63    5 -0.848  1.114905e+01 -3.412280e-01  1.534142e+00  # Ow     SPCE
    195      63    4  0.424  1.140006e+01 -2.529400e-02  6.191680e-01  # Hw     SPCE
    196      64    4  0.424 -1.824169e+00  3.100835e+00 -8.410452e+00  # Hw     SPCE
    197      64    5 -0.848 -2.612831e+00  3.711064e+00 -8.485500e+00  # Ow     SPCE
    198      64    4  0.424 -3.455371e+00  3.176400e+00 -8.420226e+00  # Hw     SPCE
    199      65    4  0.424  1.140007e+01  7.550668e+00 -1.138553e+01  # Hw     SPCE
    200      65    5 -0.848  1.065880e+01  6.879618e+00 -1.140020e+01  # Ow     SPCE
    201      65    4  0.424  9.778926e+00  7.354437e+00 -1.138103e+01  # Hw     SPCE
    202      66    4  0.424  8.228480e+00 -3.320177e+00 -3.855768e+00  # Hw     SPCE
    203      66    5 -0.848  8.725417e+00 -3.349721e+00 -4.723052e+00  # Ow     SPCE
    204      66    4  0.424  8.279530e+00 -2.745506e+00 -5.383437e+00  # Hw     SPCE
    205      67    4  0.424 -1.770667e+00  1.132973e+01  2.926343e+00  # Hw     SPCE
    206      67    5 -0.848 -9.580970e-01  1.139092e+01  2.346701e+00  # Ow     SPCE
    207      67    4  0.424 -1.392090e-01  1.139998e+01  2.920583e+00  # Hw     SPCE
    208      68    4  0.424 -4.503805e+00 -1.139997e+01  4.213056e+00  # Hw     SPCE
    209      68    5 -0.848 -3.983565e+00 -1.136048e+01  3.359950e+00  # Ow     SPCE
    210      68    4  0.424 -3.414919e+00 -1.053792e+01  3.354090e+00  # Hw     SPCE
    211      69    4  0.424  6.364691e+00 -5.022219e+00 -8.957436e+00  # Hw     SPCE
    212      69    5 -0.848  6.483643e+00 -4.082172e+00 -8.637809e+00  # Ow     SPCE
    213      69    4  0.424  7.338878e+00 -4.010327e+00 -8.124574e+00  # Hw     SPCE
    214      70    4  0.424  7.059803e+00 -5.049623e+00  2.651677e+00  # Hw     SPCE
    215      70    5 -0.848  6.988882e+00 -5.984469e+00  2.303778e+00  # Ow     SPCE
    216      70    4  0.424  6.464860e+00 -6.541144e+00  2.948381e+00  # Hw     SPCE
    217      71    4  0.424  1.131177e+01  1.036545e+01 -3.419863e+00  # Hw     SPCE
    218      71    5 -0.848  1.133777e+01  9.502089e+00 -2.915947e+00  # Ow     SPCE
    219      71    4  0.424  1.040465e+01  9.174596e+00 -2.767455e+00  # Hw     SPCE
    220      72    4  0.424 -4.805406e+00  1.138840e+01  8.641315e+00  # Hw     SPCE
    221      72    5 -0.848 -5.182174e+00  1.054729e+01  8.253272e+00  # Ow     SPCE
    222      72    4  0.424 -4.602736e+00  9.773453e+00  8.509059e+00  # Hw     SPCE
    223      73    4  0.424 -1.079993e+01 -3.783594e+00 -7.499000e-01  # Hw     SPCE
    224      73    5 -0.848 -1.140142e+01 -4.573984e+00 -8.661030e-01  # Ow     SPCE
    225      73    4  0.424 -1.085075e+01 -5.407080e+00 -9.182360e-01  # Hw     SPCE
    226      74    4  0.424 -6.649010e+00 -1.140047e+01  8.229457e+00  # Hw     SPCE
    227      74    5 -0.848 -5.705346e+00 -1.117279e+01  7.989331e+00  # Ow     SPCE
    228      74    4  0.424 -5.544632e+00 -1.139032e+01  7.026598e+00  # Hw     SPCE
    229      75    4  0.424  9.678257e+00  4.875727e+00 -7.870866e+00  # Hw     SPCE
    230      75    5 -0.848  1.001287e+01  4.643019e+00 -8.784037e+00  # Ow     SPCE
    231      75    4  0.424  9.368373e+00  4.979063e+00 -9.470841e+00  # Hw     SPCE
    232      76    4  0.424  8.788120e-01  1.654461e+00 -1.140044e+01  # Hw     SPCE
    233      76    5 -0.848  1.697418e+00  2.179753e+00 -1.116816e+01  # Ow     SPCE
    234      76    4  0.424  2.511246e+00  1.632717e+00 -1.136421e+01  # Hw     SPCE
    235      77    4  0.424 -3.033060e+00  9.815938e+00  1.140009e+01  # Hw     SPCE
    236      77    5 -0.848 -2.897724e+00  1.062371e+01  1.082633e+01  # Ow     SPCE
    237      77    4  0.424 -2.637573e+00  1.140030e+01  1.140011e+01  # Hw     SPCE
    238      78    4  0.424  3.773557e+00  1.140164e+01  8.798690e+00  # Hw     SPCE
    239      78    5 -0.848  3.251970e+00  1.059946e+01  8.508095e+00  # Ow     SPCE
    240      78    4  0.424  3.881206e+00  9.852082e+00  8.294801e+00  # Hw     SPCE
    241      79    4  0.424  7.969414e+00 -3.272685e+00  9.995851e+00  # Hw     SPCE
    242      79    5 -0.848  8.398883e+00 -2.654855e+00  1.065452e+01  # Ow     SPCE
    243      79    4  0.424  8.798578e+00 -3.188081e+00  1.140011e+01  # Hw     SPCE
    244      80    4  0.424  8.236074e+00  7.821640e-01 -9.059350e-01  # Hw     SPCE
    245      80    5 -0.848  9.151815e+00  1.180425e+00 -9.589120e-01  # Ow     SPCE
    246      80    4  0.424  9.400979e+00  1.316892e+00 -1.917710e+00  # Hw     SPCE
    247      81    4  0.424  1.076768e+00  5.684773e+00 -2.734853e+00  # Hw     SPCE
    248      81    5 -0.848  1.704366e+00  5.268883e+00 -3.392999e+00  # Ow     SPCE
    249      81    4  0.424  2.597919e+00  5.713122e+00 -3.328083e+00  # Hw     SPCE
    250      82    4  0.424  1.755930e-01  4.683701e+00  7.320726e+00  # Hw     SPCE
    251      82    5 -0.848 -2.302230e-01  3.933730e+00  6.798370e+00  # Ow     SPCE
    252      82    4  0.424  4.829320e-01  3.280421e+00  6.544214e+00  # Hw     SPCE
    253      83    4  0.424 -9.711768e+00 -8.042729e+00 -1.888843e+00  # Hw     SPCE
    254      83    5 -0.848 -8.948199e+00 -7.685960e+00 -1.350625e+00  # Ow     SPCE
    255      83    4  0.424 -9.009575e+00 -8.032452e+00 -4.145820e-01  # Hw     SPCE
    256      84    4  0.424  4.938623e+00  7.470588e+00 -1.138761e+01  # Hw     SPCE
    257      84    5 -0.848  5.408273e+00  8.008271e+00 -1.068738e+01  # Ow     SPCE
    258      84    4  0.424  6.396697e+00  7.892475e+00 -1.078540e+01  # Hw     SPCE
    259      85    4  0.424 -7.941033e+00 -5.477841e+00  8.211884e+00  # Hw     SPCE
    260      85    5 -0.848 -8.276468e+00 -5.667973e+00  7.289207e+00  # Ow     SPCE
    261      85    4  0.424 -8.543023e+00 -6.629516e+00  7.223007e+00  # Hw     SPCE
    262      86    4  0.424  9.033252e+00  2.755915e+00  1.591145e+00  # Hw     SPCE
    263      86    5 -0.848  8.986708e+00  2.397040e+00  2.523370e+00  # Ow     SPCE
    264      86    4  0.424  8.885147e+00  1.402673e+00  2.493048e+00  # Hw     SPCE
    265      87    4  0.424  4.404930e+00  3.253009e+00  4.676864e+00  # Hw     SPCE
    266      87    5 -0.848  3.546264e+00  3.180041e+00  5.184179e+00  # Ow     SPCE
    267      87    4  0.424  3.449782e+00  2.252191e+00  5.544436e+00  # Hw     SPCE
    268      88    4  0.424  2.704263e+00  5.689750e+00  1.140048e+01  # Hw     SPCE
    269      88    5 -0.848  2.654727e+00  4.691308e+00  1.137482e+01  # Ow     SPCE
    270      88    4  0.424  1.697448e+00  4.406211e+00  1.132647e+01  # Hw     SPCE
    271      89    4  0.424  5.834010e+00 -3.268051e+00 -1.770165e+00  # Hw     SPCE
    272      89    5 -0.848  6.448419e+00 -3.851997e+00 -1.239593e+00  # Ow     SPCE
    273      89    4  0.424  6.011934e+00 -4.094936e+00 -3.733020e-01  # Hw     SPCE
    274      90    4  0.424 -8.436374e+00  7.595550e+00  2.368976e+00  # Hw     SPCE
    275      90    5 -0.848 -8.618555e+00  6.749734e+00  1.867574e+00  # Ow     SPCE
    276      90    4  0.424 -8.113656e+00  5.996746e+00  2.289576e+00  # Hw     SPCE
    277      91    4  0.424  3.317446e+00 -1.402942e+00  2.466180e-01  # Hw     SPCE
    278      91    5 -0.848  3.512411e+00 -2.380238e+00  3.295620e-01  # Ow     SPCE
    279      91    4  0.424  2.782581e+00 -2.904163e+00 -1.095840e-01  # Hw     SPCE
    280      92    4  0.424 -3.181448e+00  1.020643e+01  5.453709e+00  # Hw     SPCE
    281      92    5 -0.848 -3.335934e+00  1.118991e+01  5.548027e+00  # Ow     SPCE
    282      92    4  0.424 -4.289026e+00  1.140001e+01  5.330140e+00  # Hw     SPCE
    283      93    4  0.424  2.357820e-01 -2.148788e+00  1.766820e+00  # Hw     SPCE
    284      93    5 -0.848  9.540900e-01 -1.991182e+00  2.444458e+00  # Ow     SPCE
    285      93    4  0.424  9.994000e-01 -2.770425e+00  3.069541e+00  # Hw     SPCE
    286      94    4  0.424  1.120789e+01  9.268080e-01 -6.870299e+00  # Hw     SPCE
    287      94    5 -0.848  1.137477e+01  1.602168e+00 -7.588659e+00  # Ow     SPCE
    288      94    4  0.424  1.140110e+01  2.517242e+00 -7.186233e+00  # Hw     SPCE
    289      95    4  0.424 -1.139998e+01  6.892753e+00 -1.733307e+00  # Hw     SPCE
    290      95    5 -0.848 -1.121135e+01  6.477054e+00 -8.435790e-01  # Ow     SPCE
    291      95    4  0.424 -1.139998e+01  5.495980e+00 -8.873450e-01  # Hw     SPCE
    292      96    4  0.424  3.984696e+00  1.138896e+01  4.734418e+00  # Hw     SPCE
    293      96    5 -0.848  3.537950e+00  1.096218e+01  5.520727e+00  # Ow     SPCE
    294      96    4  0.424  2.653145e+00  1.140020e+01  5.679655e+00  # Hw     SPCE
    295      97    4  0.424 -9.856433e+00  1.103770e-01  1.139997e+01  # Hw     SPCE
    296      97    5 -0.848 -1.044037e+01  9.221720e-01  1.140001e+01  # Ow     SPCE
    297      97    4  0.424 -1.140038e+01  6.422050e-01  1.140014e+01  # Hw     SPCE
    298      98    4  0.424 -3.884970e+00  9.581260e+00 -5.637345e+00  # Hw     SPCE
    299      98    5 -0.848 -4.060753e+00  1.056057e+01 -5.537071e+00  # Ow     SPCE
    300      98    4  0.424 -5.047429e+00  1.072113e+01 -5.510774e+00  # Hw     SPCE
    301      99    4  0.424  6.216658e+00 -7.974026e+00 -3.836298e+00  # Hw     SPCE
    302      99    5 -0.848  5.892713e+00 -8.468739e+00 -4.642721e+00  # Ow     SPCE
    303      99    4  0.424  6.676586e+00 -8.779742e+00 -5.180141e+00  # Hw     SPCE
    304     100    4  0.424  6.273168e+00 -1.678923e+00  2.079324e+00  # Hw     SPCE
    305     100    5 -0.848  6.683762e+00 -9.441100e-01  1.539451e+00  # Ow     SPCE
    306     100    4  0.424  6.340673e+00 -9.881520e-01  6.011820e-01  # Hw     SPCE
    307     101    4  0.424 -1.134663e+01  1.109637e+01  5.795641e+00  # Hw     SPCE
    308     101    5 -0.848 -1.140057e+01  1.044757e+01  6.554687e+00  # Ow     SPCE
    309     101    4  0.424 -1.140001e+01  1.094721e+01  7.420919e+00  # Hw     SPCE
    310     102    4  0.424 -1.014584e+01  1.140009e+01 -8.885003e+00  # Hw     SPCE
    311     102    5 -0.848 -9.346108e+00  1.082810e+01 -8.702624e+00  # Ow     SPCE
    312     102    4  0.424 -8.526320e+00  1.140014e+01 -8.675753e+00  # Hw     SPCE
    313     103    4  0.424  8.393626e+00  9.906200e+00 -6.634910e-01  # Hw     SPCE
    314     103    5 -0.848  7.809261e+00  1.041570e+01 -3.188200e-02  # Ow     SPCE
    315     103    4  0.424  7.879853e+00  1.139377e+01 -2.278270e-01  # Hw     SPCE
    316     104    4  0.424 -3.647905e+00 -7.204522e+00  8.475976e+00  # Hw     SPCE
    317     104    5 -0.848 -3.024924e+00 -7.986658e+00  8.463411e+00  # Ow     SPCE
    318     104    4  0.424 -3.430339e+00 -8.743958e+00  8.975403e+00  # Hw     SPCE
    319     105    4  0.424 -1.465327e+00 -1.140197e+01 -4.722356e+00  # Hw     SPCE
    320     105    5 -0.848 -2.341552e+00 -1.093999e+01 -4.585199e+00  # Ow     SPCE
    321     105    4  0.424 -2.857121e+00 -1.140924e+01 -3.868260e+00  # Hw     SPCE
    322     106    4  0.424 -3.008994e+00  4.661429e+00 -1.859431e+00  # Hw     SPCE
    323     106    5 -0.848 -3.717754e+00  3.956086e+00 -1.871642e+00  # Ow     SPCE
    324     106    4  0.424 -3.332011e+00  3.090397e+00 -1.552605e+00  # Hw     SPCE
    325     107    4  0.424 -7.441500e-02 -8.433031e+00  9.506510e-01  # Hw     SPCE
    326     107    5 -0.848 -8.546880e-01 -7.831456e+00  7.795310e-01  # Ow     SPCE
    327     107    4  0.424 -1.617048e+00 -8.368796e+00  4.188770e-01  # Hw     SPCE
    328     108    4  0.424 -1.048840e+01 -8.132424e+00  5.503808e+00  # Hw     SPCE
    329     108    5 -0.848 -1.140021e+01 -7.875402e+00  5.824032e+00  # Ow     SPCE
    330     108    4  0.424 -1.134968e+01 -7.592731e+00  6.781916e+00  # Hw     SPCE
    331     109    4  0.424  3.792479e+00  8.557585e+00  3.745073e+00  # Hw     SPCE
    332     109    5 -0.848  3.100153e+00  8.987755e+00  3.165730e+00  # Ow     SPCE
    333     109    4  0.424  3.549606e+00  9.506708e+00  2.438626e+00  # Hw     SPCE
    334     110    4  0.424 -4.849530e-01 -1.065311e+01 -1.005431e+01  # Hw     SPCE
    335     110    5 -0.848 -2.680630e-01 -1.140224e+01 -1.068022e+01  # Ow     SPCE
    336     110    4  0.424  3.334450e-01 -1.106713e+01 -1.140540e+01  # Hw     SPCE
    337     111    4  0.424  1.010443e+01  1.140009e+01 -6.712529e+00  # Hw     SPCE
    338     111    5 -0.848  1.108152e+01  1.138839e+01 -6.500022e+00  # Ow     SPCE
    339     111    4  0.424  1.140011e+01  1.044190e+01 -6.448459e+00  # Hw     SPCE
    340     112    4  0.424 -1.138796e+01  7.707107e+00  8.385374e+00  # Hw     SPCE
    341     112    5 -0.848 -1.140040e+01  6.715968e+00  8.517616e+00  # Ow     SPCE
    342     112    4  0.424 -1.047119e+01  6.356540e+00  8.431651e+00  # Hw     SPCE
    343     113    4  0.424 -2.159535e+00 -4.409762e+00  2.504818e+00  # Hw     SPCE
    344     113    5 -0.848 -1.392233e+00 -4.957612e+00  2.171491e+00  # Ow     SPCE
    345     113    4  0.424 -9.375120e-01 -5.399598e+00  2.944716e+00  # Hw     SPCE
    346     114    4  0.424  7.146249e+00  4.439356e+00  4.953770e+00  # Hw     SPCE