LAMMPS (29 Jan 2012-ICMS)
  using 1 OpenMP thread(s) per MPI task
  1 = max bonds/atom
  1 = max angles/atom
  orthogonal box = (-63.7 -63.7 -200) to (63.7 63.7 200)
  2 by 2 by 1 MPI processor grid
  40140 atoms
  40140 velocities
  13284 bonds
  12177 angles
  2 = max # of 1-2 neighbors
  2 = max # of 1-3 neighbors
  4 = max # of 1-4 neighbors
  6 = max # of special neighbors
  2 = max # of 1-2 neighbors
  2 = max # of 1-3 neighbors
  4 = max # of special neighbors
Memory usage per processor = 13.8987 Mbytes
Step Temp E_pair E_mol TotEng Press 
       0    303.45259   -264311.78    8237.0944   -219767.58   -35.492177 
      10    303.32403   -264318.34    8238.7239   -219787.88   -37.201336 
      20    302.22777   -264259.89    8257.8431   -219841.48   -37.889009 
      30    302.34638   -264287.15     8236.409   -219875.98    -40.15112 
      40      302.442   -264253.34    8179.4047   -219887.73   -37.443464 
      50    301.79226   -264138.69    8164.9505   -219865.28   -30.105607 
      60    302.22227   -264011.39     8101.195   -219750.29   -20.907123 
      70    302.98934    -263991.5     8170.207   -219569.61   -18.830991 
      80    303.64111   -264087.18    8326.1143    -219431.4   -23.339282 
      90    304.24343   -264060.15     8296.447   -219361.97   -19.450581 
     100    304.36772   -264103.14      8316.02   -219370.51   -18.551375 
Loop time of 4.54321 on 4 procs (4 MPI x 1 OpenMP) for 100 steps with 40140 atoms
Performance: 9.509 ns/day  2.524 hours/ns  22.011 timesteps/s

Section |  min time  |  avg time  |  max time  |%total |  #Thr
--------------------------------------------------------------
Pair    | 2.21       | 3.328      | 3.739      | 73.24 |  1.0x
Bond    | 0.06936    | 0.1108     | 0.1292     |  2.44 |  1.0x
Neigh   | 0.3003     | 0.4327     | 0.4808     |  9.52 |  1.0x
Comm    | 0.1296     | 0.6031     | 1.896      | 13.28 |  1.0x
Output  | 0.001108   | 0.001178   | 0.001261   |  0.03 |  1.0x
Modify  | 0.05218    | 0.05769    | 0.05989    |  1.27 |  1.0x
Other   |            | 0.01018    |            |  0.22 |

Nlocal:    10035 ave 10053 max 10014 min
Histogram: 1 1 0 0 0 0 0 0 0 2
Nghost:    13542.5 ave 13594 max 13511 min
Histogram: 2 0 0 0 1 0 0 0 0 1
Neighs:    1.18993e+06 ave 1.19626e+06 max 1.18026e+06 min
Histogram: 1 0 0 0 0 0 1 1 0 1

Total # of neighbors = 4759737
Ave neighs/atom = 118.578
Ave special neighs/atom = 1.26861
Neighbor list builds = 6
Dangerous builds = 0
