LAMMPS Description

     3072  atoms
     2048  bonds
     1024  angles
     0  dihedrals
     0  impropers

     2  atom types
     1  bond types
     1  angle types

  0.0 30 xlo xhi
  0.0 30 ylo yhi
  0.0 100 zlo zhi

Masses

1 15.9994  # O
2 1.008  # H

Atoms  # full

1 1 1 -0.8476 0.0 0.0 25.0
2 1 2 0.4238 0.8164904 0.0 25.577359
3 1 2 0.4238 -0.8164904 0.0 25.577359
4 2 1 -0.8476 0.0 0.0 28.10342
5 2 2 0.4238 0.8164904 0.0 28.680779
6 2 2 0.4238 -0.8164904 0.0 28.680779
7 3 1 -0.8476 0.0 0.0 31.20684
8 3 2 0.4238 0.8164904 0.0 31.784199
9 3 2 0.4238 -0.8164904 0.0 31.784199
10 4 1 -0.8476 0.0 0.0 34.31026
11 4 2 0.4238 0.8164904 0.0 34.887619
12 4 2 0.4238 -0.8164904 0.0 34.887619
13 5 1 -0.8476 0.0 0.0 37.41368
14 5 2 0.4238 0.8164904 0.0 37.991039
15 5 2 0.4238 -0.8164904 0.0 37.991039
16 6 1 -0.8476 0.0 0.0 40.5171
17 6 2 0.4238 0.8164904 0.0 41.094459
18 6 2 0.4238 -0.8164904 0.0 41.094459
19 7 1 -0.8476 0.0 0.0 43.62052
20 7 2 0.4238 0.8164904 0.0 44.197879
21 7 2 0.4238 -0.8164904 0.0 44.197879
22 8 1 -0.8476 0.0 0.0 46.72394
23 8 2 0.4238 0.8164904 0.0 47.301299
24 8 2 0.4238 -0.8164904 0.0 47.301299
25 9 1 -0.8476 0.0 0.0 49.82736
26 9 2 0.4238 0.8164904 0.0 50.404719
27 9 2 0.4238 -0.8164904 0.0 50.404719
28 10 1 -0.8476 0.0 0.0 52.93078
29 10 2 0.4238 0.8164904 0.0 53.508139
30 10 2 0.4238 -0.8164904 0.0 53.508139
31 11 1 -0.8476 0.0 0.0 56.0342
32 11 2 0.4238 0.8164904 0.0 56.611559
33 11 2 0.4238 -0.8164904 0.0 56.611559
34 12 1 -0.8476 0.0 0.0 59.13762
35 12 2 0.4238 0.8164904 0.0 59.714979
36 12 2 0.4238 -0.8164904 0.0 59.714979
37 13 1 -0.8476 0.0 0.0 62.24104
38 13 2 0.4238 0.8164904 0.0 62.818399
39 13 2 0.4238 -0.8164904 0.0 62.818399
40 14 1 -0.8476 0.0 0.0 65.34446
41 14 2 0.4238 0.8164904 0.0 65.921819
42 14 2 0.4238 -0.8164904 0.0 65.921819
43 15 1 -0.8476 0.0 0.0 68.44788
44 15 2 0.4238 0.8164904 0.0 69.025239
45 15 2 0.4238 -0.8164904 0.0 69.025239
46 16 1 -0.8476 0.0 0.0 71.5513
47 16 2 0.4238 0.8164904 0.0 72.128659
48 16 2 0.4238 -0.8164904 0.0 72.128659
49 17 1 -0.8476 0.0 3.10342 25.0
50 17 2 0.4238 0.8164904 3.10342 25.577359
51 17 2 0.4238 -0.8164904 3.10342 25.577359
52 18 1 -0.8476 0.0 3.10342 28.10342
53 18 2 0.4238 0.8164904 3.10342 28.680779
54 18 2 0.4238 -0.8164904 3.10342 28.680779
55 19 1 -0.8476 0.0 3.10342 31.20684
56 19 2 0.4238 0.8164904 3.10342 31.784199
57 19 2 0.4238 -0.8164904 3.10342 31.784199
58 20 1 -0.8476 0.0 3.10342 34.31026
59 20 2 0.4238 0.8164904 3.10342 34.887619
60 20 2 0.4238 -0.8164904 3.10342 34.887619
61 21 1 -0.8476 0.0 3.10342 37.41368
62 21 2 0.4238 0.8164904 3.10342 37.991039
63 21 2 0.4238 -0.8164904 3.10342 37.991039
64 22 1 -0.8476 0.0 3.10342 40.5171
65 22 2 0.4238 0.8164904 3.10342 41.094459
66 22 2 0.4238 -0.8164904 3.10342 41.094459
67 23 1 -0.8476 0.0 3.10342 43.62052
68 23 2 0.4238 0.8164904 3.10342 44.197879
69 23 2 0.4238 -0.8164904 3.10342 44.197879
70 24 1 -0.8476 0.0 3.10342 46.72394
71 24 2 0.4238 0.8164904 3.10342 47.301299
72 24 2 0.4238 -0.8164904 3.10342 47.301299
73 25 1 -0.8476 0.0 3.10342 49.82736
74 25 2 0.4238 0.8164904 3.10342 50.404719
75 25 2 0.4238 -0.8164904 3.10342 50.404719
76 26 1 -0.8476 0.0 3.10342 52.93078
77 26 2 0.4238 0.8164904 3.10342 53.508139
78 26 2 0.4238 -0.8164904 3.10342 53.508139
79 27 1 -0.8476 0.0 3.10342 56.0342
80 27 2 0.4238 0.8164904 3.10342 56.611559
81 27 2 0.4238 -0.8164904 3.10342 56.611559
82 28 1 -0.8476 0.0 3.10342 59.13762
83 28 2 0.4238 0.8164904 3.10342 59.714979
84 28 2 0.4238 -0.8164904 3.10342 59.714979
85 29 1 -0.8476 0.0 3.10342 62.24104
86 29 2 0.4238 0.8164904 3.10342 62.818399
87 29 2 0.4238 -0.8164904 3.10342 62.818399
88 30 1 -0.8476 0.0 3.10342 65.34446
89 30 2 0.4238 0.8164904 3.10342 65.921819
90 30 2 0.4238 -0.8164904 3.10342 65.921819
91 31 1 -0.8476 0.0 3.10342 68.44788
92 31 2 0.4238 0.8164904 3.10342 69.025239
93 31 2 0.4238 -0.8164904 3.10342 69.025239
94 32 1 -0.8476 0.0 3.10342 71.5513
95 32 2 0.4238 0.8164904 3.10342 72.128659
96 32 2 0.4238 -0.8164904 3.10342 72.128659
97 33 1 -0.8476 0.0 6.20684 25.0
98 33 2 0.4238 0.8164904 6.20684 25.577359
99 33 2 0.4238 -0.8164904 6.20684 25.577359
100 34 1 -0.8476 0.0 6.20684 28.10342
101 34 2 0.4238 0.8164904 6.20684 28.680779
102 34 2 0.4238 -0.8164904 6.20684 28.680779
103 35 1 -0.8476 0.0 6.20684 31.20684
104 35 2 0.4238 0.8164904 6.20684 31.784199
105 35 2 0.4238 -0.8164904 6.20684 31.784199
106 36 1 -0.8476 0.0 6.20684 34.31026
107 36 2 0.4238 0.8164904 6.20684 34.887619
108 36 2 0.4238 -0.8164904 6.20684 34.887619
109 37 1 -0.8476 0.0 6.20684 37.41368
110 37 2 0.4238 0.8164904 6.20684 37.991039
111 37 2 0.4238 -0.8164904 6.20684 37.991039
112 38 1 -0.8476 0.0 6.20684 40.5171
113 38 2 0.4238 0.8164904 6.20684 41.094459
114 38 2 0.4238 -0.8164904 6.20684 41.094459
115 39 1 -0.8476 0.0 6.20684 43.62052
116 39 2 0.4238 0.8164904 6.20684 44.197879
117 39 2 0.4238 -0.8164904 6.20684 44.197879
118 40 1 -0.8476 0.0 6.20684 46.72394
119 40 2 0.4238 0.8164904 6.20684 47.301299
120 40 2 0.4238 -0.8164904 6.20684 47.301299
121 41 1 -0.8476 0.0 6.20684 49.82736
122 41 2 0.4238 0.8164904 6.20684 50.404719
123 41 2 0.4238 -0.8164904 6.20684 50.404719
124 42 1 -0.8476 0.0 6.20684 52.93078
125 42 2 0.4238 0.8164904 6.20684 53.508139
126 42 2 0.4238 -0.8164904 6.20684 53.508139
127 43 1 -0.8476 0.0 6.20684 56.0342
128 43 2 0.4238 0.8164904 6.20684 56.611559
129 43 2 0.4238 -0.8164904 6.20684 56.611559
130 44 1 -0.8476 0.0 6.20684 59.13762
131 44 2 0.4238 0.8164904 6.20684 59.714979
132 44 2 0.4238 -0.8164904 6.20684 59.714979
133 45 1 -0.8476 0.0 6.20684 62.24104
134 45 2 0.4238 0.8164904 6.20684 62.818399
135 45 2 0.4238 -0.8164904 6.20684 62.818399
136 46 1 -0.8476 0.0 6.20684 65.34446
137 46 2 0.4238 0.8164904 6.20684 65.921819
138 46 2 0.4238 -0.8164904 6.20684 65.921819
139 47 1 -0.8476 0.0 6.20684 68.44788
140 47 2 0.4238 0.8164904 6.20684 69.025239
141 47 2 0.4238 -0.8164904 6.20684 69.025239
142 48 1 -0.8476 0.0 6.20684 71.5513
143 48 2 0.4238 0.8164904 6.20684 72.128659
144 48 2 0.4238 -0.8164904 6.20684 72.128659
145 49 1 -0.8476 0.0 9.31026 25.0
146 49 2 0.4238 0.8164904 9.31026 25.577359
147 49 2 0.4238 -0.8164904 9.31026 25.577359
148 50 1 -0.8476 0.0 9.31026 28.10342
149 50 2 0.4238 0.8164904 9.31026 28.680779
150 50 2 0.4238 -0.8164904 9.31026 28.680779
151 51 1 -0.8476 0.0 9.31026 31.20684
152 51 2 0.4238 0.8164904 9.31026 31.784199
153 51 2 0.4238 -0.8164904 9.31026 31.784199
154 52 1 -0.8476 0.0 9.31026 34.31026
155 52 2 0.4238 0.8164904 9.31026 34.887619
156 52 2 0.4238 -0.8164904 9.31026 34.887619
157 53 1 -0.8476 0.0 9.31026 37.41368
158 53 2 0.4238 0.8164904 9.31026 37.991039
159 53 2 0.4238 -0.8164904 9.31026 37.991039
160 54 1 -0.8476 0.0 9.31026 40.5171
161 54 2 0.4238 0.8164904 9.31026 41.094459
162 54 2 0.4238 -0.8164904 9.31026 41.094459
163 55 1 -0.8476 0.0 9.31026 43.62052
164 55 2 0.4238 0.8164904 9.31026 44.197879
165 55 2 0.4238 -0.8164904 9.31026 44.197879
166 56 1 -0.8476 0.0 9.31026 46.72394
167 56 2 0.4238 0.8164904 9.31026 47.301299
168 56 2 0.4238 -0.8164904 9.31026 47.301299
169 57 1 -0.8476 0.0 9.31026 49.82736
170 57 2 0.4238 0.8164904 9.31026 50.404719
171 57 2 0.4238 -0.8164904 9.31026 50.404719
172 58 1 -0.8476 0.0 9.31026 52.93078
173 58 2 0.4238 0.8164904 9.31026 53.508139
174 58 2 0.4238 -0.8164904 9.31026 53.508139
175 59 1 -0.8476 0.0 9.31026 56.0342
176 59 2 0.4238 0.8164904 9.31026 56.611559
177 59 2 0.4238 -0.8164904 9.31026 56.611559
178 60 1 -0.8476 0.0 9.31026 59.13762
179 60 2 0.4238 0.8164904 9.31026 59.714979
180 60 2 0.4238 -0.8164904 9.31026 59.714979
181 61 1 -0.8476 0.0 9.31026 62.24104
182 61 2 0.4238 0.8164904 9.31026 62.818399
183 61 2 0.4238 -0.8164904 9.31026 62.818399
184 62 1 -0.8476 0.0 9.31026 65.34446
185 62 2 0.4238 0.8164904 9.31026 65.921819
186 62 2 0.4238 -0.8164904 9.31026 65.921819
187 63 1 -0.8476 0.0 9.31026 68.44788
188 63 2 0.4238 0.8164904 9.31026 69.025239
189 63 2 0.4238 -0.8164904 9.31026 69.025239
190 64 1 -0.8476 0.0 9.31026 71.5513
191 64 2 0.4238 0.8164904 9.31026 72.128659
192 64 2 0.4238 -0.8164904 9.31026 72.128659
193 65 1 -0.8476 0.0 12.41368 25.0
194 65 2 0.4238 0.8164904 12.41368 25.577359
195 65 2 0.4238 -0.8164904 12.41368 25.577359
196 66 1 -0.8476 0.0 12.41368 28.10342
197 66 2 0.4238 0.8164904 12.41368 28.680779
198 66 2 0.4238 -0.8164904 12.41368 28.680779
199 67 1 -0.8476 0.0 12.41368 31.20684
200 67 2 0.4238 0.8164904 12.41368 31.784199
201 67 2 0.4238 -0.8164904 12.41368 31.784199
202 68 1 -0.8476 0.0 12.41368 34.31026
203 68 2 0.4238 0.8164904 12.41368 34.887619
204 68 2 0.4238 -0.8164904 12.41368 34.887619
205 69 1 -0.8476 0.0 12.41368 37.41368
206 69 2 0.4238 0.8164904 12.41368 37.991039
207 69 2 0.4238 -0.8164904 12.41368 37.991039
208 70 1 -0.8476 0.0 12.41368 40.5171
209 70 2 0.4238 0.8164904 12.41368 41.094459
210 70 2 0.4238 -0.8164904 12.41368 41.094459
211 71 1 -0.8476 0.0 12.41368 43.62052
212 71 2 0.4238 0.8164904 12.41368 44.197879
213 71 2 0.4238 -0.8164904 12.41368 44.197879
214 72 1 -0.8476 0.0 12.41368 46.72394
215 72 2 0.4238 0.8164904 12.41368 47.301299
216 72 2 0.4238 -0.8164904 12.41368 47.301299
217 73 1 -0.8476 0.0 12.41368 49.82736
218 73 2 0.4238 0.8164904 12.41368 50.404719
219 73 2 0.4238 -0.8164904 12.41368 50.404719
220 74 1 -0.8476 0.0 12.41368 52.93078
221 74 2 0.4238 0.8164904 12.41368 53.508139
222 74 2 0.4238 -0.8164904 12.41368 53.508139
223 75 1 -0.8476 0.0 12.41368 56.0342
224 75 2 0.4238 0.8164904 12.41368 56.611559
225 75 2 0.4238 -0.8164904 12.41368 56.611559
226 76 1 -0.8476 0.0 12.41368 59.13762
227 76 2 0.4238 0.8164904 12.41368 59.714979
228 76 2 0.4238 -0.8164904 12.41368 59.714979
229 77 1 -0.8476 0.0 12.41368 62.24104
230 77 2 0.4238 0.8164904 12.41368 62.818399
231 77 2 0.4238 -0.8164904 12.41368 62.818399
232 78 1 -0.8476 0.0 12.41368 65.34446
233 78 2 0.4238 0.8164904 12.41368 65.921819
234 78 2 0.4238 -0.8164904 12.41368 65.921819
235 79 1 -0.8476 0.0 12.41368 68.44788
236 79 2 0.4238 0.8164904 12.41368 69.025239
237 79 2 0.4238 -0.8164904 12.41368 69.025239
238 80 1 -0.8476 0.0 12.41368 71.5513
239 80 2 0.4238 0.8164904 12.41368 72.128659
240 80 2 0.4238 -0.8164904 12.41368 72.128659
241 81 1 -0.8476 0.0 15.5171 25.0
242 81 2 0.4238 0.8164904 15.5171 25.577359
243 81 2 0.4238 -0.8164904 15.5171 25.577359
244 82 1 -0.8476 0.0 15.5171 28.10342
245 82 2 0.4238 0.8164904 15.5171 28.680779
246 82 2 0.4238 -0.8164904 15.5171 28.680779
247 83 1 -0.8476 0.0 15.5171 31.20684
248 83 2 0.4238 0.8164904 15.5171 31.784199
249 83 2 0.4238 -0.8164904 15.5171 31.784199
250 84 1 -0.8476 0.0 15.5171 34.31026
251 84 2 0.4238 0.8164904 15.5171 34.887619
252 84 2 0.4238 -0.8164904 15.5171 34.887619
253 85 1 -0.8476 0.0 15.5171 37.41368
254 85 2 0.4238 0.8164904 15.5171 37.991039
255 85 2 0.4238 -0.8164904 15.5171 37.991039
256 86 1 -0.8476 0.0 15.5171 40.5171
257 86 2 0.4238 0.8164904 15.5171 41.094459
258 86 2 0.4238 -0.8164904 15.5171 41.094459
259 87 1 -0.8476 0.0 15.5171 43.62052
260 87 2 0.4238 0.8164904 15.5171 44.197879
261 87 2 0.4238 -0.8164904 15.5171 44.197879
262 88 1 -0.8476 0.0 15.5171 46.72394
263 88 2 0.4238 0.8164904 15.5171 47.301299
264 88 2 0.4238 -0.8164904 15.5171 47.301299
265 89 1 -0.8476 0.0 15.5171 49.82736
266 89 2 0.4238 0.8164904 15.5171 50.404719
267 89 2 0.4238 -0.8164904 15.5171 50.404719
268 90 1 -0.8476 0.0 15.5171 52.93078
269 90 2 0.4238 0.8164904 15.5171 53.508139
270 90 2 0.4238 -0.8164904 15.5171 53.508139
271 91 1 -0.8476 0.0 15.5171 56.0342
272 91 2 0.4238 0.8164904 15.5171 56.611559
273 91 2 0.4238 -0.8164904 15.5171 56.611559
274 92 1 -0.8476 0.0 15.5171 59.13762
275 92 2 0.4238 0.8164904 15.5171 59.714979
276 92 2 0.4238 -0.8164904 15.5171 59.714979
277 93 1 -0.8476 0.0 15.5171 62.24104
278 93 2 0.4238 0.8164904 15.5171 62.818399
279 93 2 0.4238 -0.8164904 15.5171 62.818399
280 94 1 -0.8476 0.0 15.5171 65.34446
281 94 2 0.4238 0.8164904 15.5171 65.921819
282 94 2 0.4238 -0.8164904 15.5171 65.921819
283 95 1 -0.8476 0.0 15.5171 68.44788
284 95 2 0.4238 0.8164904 15.5171 69.025239
285 95 2 0.4238 -0.8164904 15.5171 69.025239
286 96 1 -0.8476 0.0 15.5171 71.5513
287 96 2 0.4238 0.8164904 15.5171 72.128659
288 96 2 0.4238 -0.8164904 15.5171 72.128659
289 97 1 -0.8476 0.0 18.62052 25.0
290 97 2 0.4238 0.8164904 18.62052 25.577359
291 97 2 0.4238 -0.8164904 18.62052 25.577359
292 98 1 -0.8476 0.0 18.62052 28.10342
293 98 2 0.4238 0.8164904 18.62052 28.680779
294 98 2 0.4238 -0.8164904 18.62052 28.680779
295 99 1 -0.8476 0.0 18.62052 31.20684
296 99 2 0.4238 0.8164904 18.62052 31.784199
297 99 2 0.4238 -0.8164904 18.62052 31.784199
298 100 1 -0.8476 0.0 18.62052 34.31026
299 100 2 0.4238 0.8164904 18.62052 34.887619
300 100 2 0.4238 -0.8164904 18.62052 34.887619
301 101 1 -0.8476 0.0 18.62052 37.41368
302 101 2 0.4238 0.8164904 18.62052 37.991039
303 101 2 0.4238 -0.8164904 18.62052 37.991039
304 102 1 -0.8476 0.0 18.62052 40.5171
305 102 2 0.4238 0.8164904 18.62052 41.094459
306 102 2 0.4238 -0.8164904 18.62052 41.094459
307 103 1 -0.8476 0.0 18.62052 43.62052
308 103 2 0.4238 0.8164904 18.62052 44.197879
309 103 2 0.4238 -0.8164904 18.62052 44.197879
310 104 1 -0.8476 0.0 18.62052 46.72394
311 104 2 0.4238 0.8164904 18.62052 47.301299
312 104 2 0.4238 -0.8164904 18.62052 47.301299
313 105 1 -0.8476 0.0 18.62052 49.82736
314 105 2 0.4238 0.8164904 18.62052 50.404719
315 105 2 0.4238 -0.8164904 18.62052 50.404719
316 106 1 -0.8476 0.0 18.62052 52.93078
317 106 2 0.4238 0.8164904 18.62052 53.508139
318 106 2 0.4238 -0.8164904 18.62052 53.508139
319 107 1 -0.8476 0.0 18.62052 56.0342
320 107 2 0.4238 0.8164904 18.62052 56.611559
321 107 2 0.4238 -0.8164904 18.62052 56.611559
322 108 1 -0.8476 0.0 18.62052 59.13762
323 108 2 0.4238 0.8164904 18.62052 59.714979
324 108 2 0.4238 -0.8164904 18.62052 59.714979
325 109 1 -0.8476 0.0 18.62052 62.24104
326 109 2 0.4238 0.8164904 18.62052 62.818399
327 109 2 0.4238 -0.8164904 18.62052 62.818399
328 110 1 -0.8476 0.0 18.62052 65.34446
329 110 2 0.4238 0.8164904 18.62052 65.921819
330 110 2 0.4238 -0.8164904 18.62052 65.921819
331 111 1 -0.8476 0.0 18.62052 68.44788
332 111 2 0.4238 0.8164904 18.62052 69.025239
333 111 2 0.4238 -0.8164904 18.62052 69.025239
334 112 1 -0.8476 0.0 18.62052 71.5513
335 112 2 0.4238 0.8164904 18.62052 72.128659
336 112 2 0.4238 -0.8164904 18.62052 72.128659
337 113 1 -0.8476 0.0 21.72394 25.0
338 113 2 0.4238 0.8164904 21.72394 25.577359
339 113 2 0.4238 -0.8164904 21.72394 25.577359
340 114 1 -0.8476 0.0 21.72394 28.10342
341 114 2 0.4238 0.8164904 21.72394 28.680779
342 114 2 0.4238 -0.8164904 21.72394 28.680779
343 115 1 -0.8476 0.0 21.72394 31.20684
344 115 2 0.4238 0.8164904 21.72394 31.784199
345 115 2 0.4238 -0.8164904 21.72394 31.784199
346 116 1 -0.8476 0.0 21.72394 34.31026
347 116 2 0.4238 0.8164904 21.72394 34.887619
348 116 2 0.4238 -0.8164904 21.72394 34.887619
349 117 1 -0.8476 0.0 21.72394 37.41368
350 117 2 0.4238 0.8164904 21.72394 37.991039
351 117 2 0.4238 -0.8164904 21.72394 37.991039
352 118 1 -0.8476 0.0 21.72394 40.5171
353 118 2 0.4238 0.8164904 21.72394 41.094459
354 118 2 0.4238 -0.8164904 21.72394 41.094459
355 119 1 -0.8476 0.0 21.72394 43.62052
356 119 2 0.4238 0.8164904 21.72394 44.197879
357 119 2 0.4238 -0.8164904 21.72394 44.197879
358 120 1 -0.8476 0.0 21.72394 46.72394
359 120 2 0.4238 0.8164904 21.72394 47.301299
360 120 2 0.4238 -0.8164904 21.72394 47.301299
361 121 1 -0.8476 0.0 21.72394 49.82736
362 121 2 0.4238 0.8164904 21.72394 50.404719
363 121 2 0.4238 -0.8164904 21.72394 50.404719
364 122 1 -0.8476 0.0 21.72394 52.93078
365 122 2 0.4238 0.8164904 21.72394 53.508139
366 122 2 0.4238 -0.8164904 21.72394 53.508139
367 123 1 -0.8476 0.0 21.72394 56.0342
368 123 2 0.4238 0.8164904 21.72394 56.611559
369 123 2 0.4238 -0.8164904 21.72394 56.611559
370 124 1 -0.8476 0.0 21.72394 59.13762
371 124 2 0.4238 0.8164904 21.72394 59.714979
372 124 2 0.4238 -0.8164904 21.72394 59.714979
373 125 1 -0.8476 0.0 21.72394 62.24104
374 125 2 0.4238 0.8164904 21.72394 62.818399
375 125 2 0.4238 -0.8164904 21.72394 62.818399
376 126 1 -0.8476 0.0 21.72394 65.34446
377 126 2 0.4238 0.8164904 21.72394 65.921819
378 126 2 0.4238 -0.8164904 21.72394 65.921819
379 127 1 -0.8476 0.0 21.72394 68.44788
380 127 2 0.4238 0.8164904 21.72394 69.025239
381 127 2 0.4238 -0.8164904 21.72394 69.025239
382 128 1 -0.8476 0.0 21.72394 71.5513
383 128 2 0.4238 0.8164904 21.72394 72.128659
384 128 2 0.4238 -0.8164904 21.72394 72.128659
385 129 1 -0.8476 3.10342 0.0 25.0
386 129 2 0.4238 3.9199104 0.0 25.577359
387 129 2 0.4238 2.2869295999999997 0.0 25.577359
388 130 1 -0.8476 3.10342 0.0 28.10342
389 130 2 0.4238 3.9199104 0.0 28.680779
390 130 2 0.4238 2.2869295999999997 0.0 28.680779
391 131 1 -0.8476 3.10342 0.0 31.20684
392 131 2 0.4238 3.9199104 0.0 31.784199
393 131 2 0.4238 2.2869295999999997 0.0 31.784199
394 132 1 -0.8476 3.10342 0.0 34.31026
395 132 2 0.4238 3.9199104 0.0 34.887619
396 132 2 0.4238 2.2869295999999997 0.0 34.887619
397 133 1 -0.8476 3.10342 0.0 37.41368
398 133 2 0.4238 3.9199104 0.0 37.991039
399 133 2 0.4238 2.2869295999999997 0.0 37.991039
400 134 1 -0.8476 3.10342 0.0 40.5171
401 134 2 0.4238 3.9199104 0.0 41.094459
402 134 2 0.4238 2.2869295999999997 0.0 41.094459
403 135 1 -0.8476 3.10342 0.0 43.62052
404 135 2 0.4238 3.9199104 0.0 44.197879
405 135 2 0.4238 2.2869295999999997 0.0 44.197879
406 136 1 -0.8476 3.10342 0.0 46.72394
407 136 2 0.4238 3.9199104 0.0 47.301299
408 136 2 0.4238 2.2869295999999997 0.0 47.301299
409 137 1 -0.8476 3.10342 0.0 49.82736
410 137 2 0.4238 3.9199104 0.0 50.404719
411 137 2 0.4238 2.2869295999999997 0.0 50.404719
412 138 1 -0.8476 3.10342 0.0 52.93078
413 138 2 0.4238 3.9199104 0.0 53.508139
414 138 2 0.4238 2.2869295999999997 0.0 53.508139
415 139 1 -0.8476 3.10342 0.0 56.0342
416 139 2 0.4238 3.9199104 0.0 56.611559
417 139 2 0.4238 2.2869295999999997 0.0 56.611559
418 140 1 -0.8476 3.10342 0.0 59.13762
419 140 2 0.4238 3.9199104 0.0 59.714979
420 140 2 0.4238 2.2869295999999997 0.0 59.714979
421 141 1 -0.8476 3.10342 0.0 62.24104
422 141 2 0.4238 3.9199104 0.0 62.818399
423 141 2 0.4238 2.2869295999999997 0.0 62.818399
424 142 1 -0.8476 3.10342 0.0 65.34446
425 142 2 0.4238 3.9199104 0.0 65.921819
426 142 2 0.4238 2.2869295999999997 0.0 65.921819
427 143 1 -0.8476 3.10342 0.0 68.44788
428 143 2 0.4238 3.9199104 0.0 69.025239
429 143 2 0.4238 2.2869295999999997 0.0 69.025239
430 144 1 -0.8476 3.10342 0.0 71.5513
431 144 2 0.4238 3.9199104 0.0 72.128659
432 144 2 0.4238 2.2869295999999997 0.0 72.128659
433 145 1 -0.8476 3.10342 3.10342 25.0
434 145 2 0.4238 3.9199104 3.10342 25.577359
435 145 2 0.4238 2.2869295999999997 3.10342 25.577359
436 146 1 -0.8476 3.10342 3.10342 28.10342
437 146 2 0.4238 3.9199104 3.10342 28.680779
438 146 2 0.4238 2.2869295999999997 3.10342 28.680779
439 147 1 -0.8476 3.10342 3.10342 31.20684
440 147 2 0.4238 3.9199104 3.10342 31.784199
441 147 2 0.4238 2.2869295999999997 3.10342 31.784199
442 148 1 -0.8476 3.10342 3.10342 34.31026
443 148 2 0.4238 3.9199104 3.10342 34.887619
444 148 2 0.4238 2.2869295999999997 3.10342 34.887619
445 149 1 -0.8476 3.10342 3.10342 37.41368
446 149 2 0.4238 3.9199104 3.10342 37.991039
447 149 2 0.4238 2.2869295999999997 3.10342 37.991039
448 150 1 -0.8476 3.10342 3.10342 40.5171
449 150 2 0.4238 3.9199104 3.10342 41.094459
450 150 2 0.4238 2.2869295999999997 3.10342 41.094459
451 151 1 -0.8476 3.10342 3.10342 43.62052
452 151 2 0.4238 3.9199104 3.10342 44.197879
453 151 2 0.4238 2.2869295999999997 3.10342 44.197879
454 152 1 -0.8476 3.10342 3.10342 46.72394
455 152 2 0.4238 3.9199104 3.10342 47.301299
456 152 2 0.4238 2.2869295999999997 3.10342 47.301299
457 153 1 -0.8476 3.10342 3.10342 49.82736
458 153 2 0.4238 3.9199104 3.10342 50.404719
459 153 2 0.4238 2.2869295999999997 3.10342 50.404719
460 154 1 -0.8476 3.10342 3.10342 52.93078
461 154 2 0.4238 3.9199104 3.10342 53.508139
462 154 2 0.4238 2.2869295999999997 3.10342 53.508139
463 155 1 -0.8476 3.10342 3.10342 56.0342
464 155 2 0.4238 3.9199104 3.10342 56.611559
465 155 2 0.4238 2.2869295999999997 3.10342 56.611559
466 156 1 -0.8476 3.10342 3.10342 59.13762
467 156 2 0.4238 3.9199104 3.10342 59.714979
468 156 2 0.4238 2.2869295999999997 3.10342 59.714979
469 157 1 -0.8476 3.10342 3.10342 62.24104
470 157 2 0.4238 3.9199104 3.10342 62.818399
471 157 2 0.4238 2.2869295999999997 3.10342 62.818399
472 158 1 -0.8476 3.10342 3.10342 65.34446
473 158 2 0.4238 3.9199104 3.10342 65.921819
474 158 2 0.4238 2.2869295999999997 3.10342 65.921819
475 159 1 -0.8476 3.10342 3.10342 68.44788
476 159 2 0.4238 3.9199104 3.10342 69.025239
477 159 2 0.4238 2.2869295999999997 3.10342 69.025239
478 160 1 -0.8476 3.10342 3.10342 71.5513
479 160 2 0.4238 3.9199104 3.10342 72.128659
480 160 2 0.4238 2.2869295999999997 3.10342 72.128659
481 161 1 -0.8476 3.10342 6.20684 25.0
482 161 2 0.4238 3.9199104 6.20684 25.577359
483 161 2 0.4238 2.2869295999999997 6.20684 25.577359
484 162 1 -0.8476 3.10342 6.20684 28.10342
485 162 2 0.4238 3.9199104 6.20684 28.680779
486 162 2 0.4238 2.2869295999999997 6.20684 28.680779
487 163 1 -0.8476 3.10342 6.20684 31.20684
488 163 2 0.4238 3.9199104 6.20684 31.784199
489 163 2 0.4238 2.2869295999999997 6.20684 31.784199
490 164 1 -0.8476 3.10342 6.20684 34.31026
491 164 2 0.4238 3.9199104 6.20684 34.887619
492 164 2 0.4238 2.2869295999999997 6.20684 34.887619
493 165 1 -0.8476 3.10342 6.20684 37.41368
494 165 2 0.4238 3.9199104 6.20684 37.991039
495 165 2 0.4238 2.2869295999999997 6.20684 37.991039
496 166 1 -0.8476 3.10342 6.20684 40.5171
497 166 2 0.4238 3.9199104 6.20684 41.094459
498 166 2 0.4238 2.2869295999999997 6.20684 41.094459
499 167 1 -0.8476 3.10342 6.20684 43.62052
500 167 2 0.4238 3.9199104 6.20684 44.197879
501 167 2 0.4238 2.2869295999999997 6.20684 44.197879
502 168 1 -0.8476 3.10342 6.20684 46.72394
503 168 2 0.4238 3.9199104 6.20684 47.301299
504 168 2 0.4238 2.2869295999999997 6.20684 47.301299
505 169 1 -0.8476 3.10342 6.20684 49.82736
506 169 2 0.4238 3.9199104 6.20684 50.404719
507 169 2 0.4238 2.2869295999999997 6.20684 50.404719
508 170 1 -0.8476 3.10342 6.20684 52.93078
509 170 2 0.4238 3.9199104 6.20684 53.508139
510 170 2 0.4238 2.2869295999999997 6.20684 53.508139
511 171 1 -0.8476 3.10342 6.20684 56.0342
512 171 2 0.4238 3.9199104 6.20684 56.611559
513 171 2 0.4238 2.2869295999999997 6.20684 56.611559
514 172 1 -0.8476 3.10342 6.20684 59.13762
515 172 2 0.4238 3.9199104 6.20684 59.714979
516 172 2 0.4238 2.2869295999999997 6.20684 59.714979
517 173 1 -0.8476 3.10342 6.20684 62.24104
518 173 2 0.4238 3.9199104 6.20684 62.818399
519 173 2 0.4238 2.2869295999999997 6.20684 62.818399
520 174 1 -0.8476 3.10342 6.20684 65.34446
521 174 2 0.4238 3.9199104 6.20684 65.921819
522 174 2 0.4238 2.2869295999999997 6.20684 65.921819
523 175 1 -0.8476 3.10342 6.20684 68.44788
524 175 2 0.4238 3.9199104 6.20684 69.025239
525 175 2 0.4238 2.2869295999999997 6.20684 69.025239
526 176 1 -0.8476 3.10342 6.20684 71.5513
527 176 2 0.4238 3.9199104 6.20684 72.128659
528 176 2 0.4238 2.2869295999999997 6.20684 72.128659
529 177 1 -0.8476 3.10342 9.31026 25.0
530 177 2 0.4238 3.9199104 9.31026 25.577359
531 177 2 0.4238 2.2869295999999997 9.31026 25.577359
532 178 1 -0.8476 3.10342 9.31026 28.10342
533 178 2 0.4238 3.9199104 9.31026 28.680779
534 178 2 0.4238 2.2869295999999997 9.31026 28.680779
535 179 1 -0.8476 3.10342 9.31026 31.20684
536 179 2 0.4238 3.9199104 9.31026 31.784199
537 179 2 0.4238 2.2869295999999997 9.31026 31.784199
538 180 1 -0.8476 3.10342 9.31026 34.31026
539 180 2 0.4238 3.9199104 9.31026 34.887619
540 180 2 0.4238 2.2869295999999997 9.31026 34.887619
541 181 1 -0.8476 3.10342 9.31026 37.41368
542 181 2 0.4238 3.9199104 9.31026 37.991039
543 181 2 0.4238 2.2869295999999997 9.31026 37.991039
544 182 1 -0.8476 3.10342 9.31026 40.5171
545 182 2 0.4238 3.9199104 9.31026 41.094459
546 182 2 0.4238 2.2869295999999997 9.31026 41.094459
547 183 1 -0.8476 3.10342 9.31026 43.62052
548 183 2 0.4238 3.9199104 9.31026 44.197879
549 183 2 0.4238 2.2869295999999997 9.31026 44.197879
550 184 1 -0.8476 3.10342 9.31026 46.72394
551 184 2 0.4238 3.9199104 9.31026 47.301299
552 184 2 0.4238 2.2869295999999997 9.31026 47.301299
553 185 1 -0.8476 3.10342 9.31026 49.82736
554 185 2 0.4238 3.9199104 9.31026 50.404719
555 185 2 0.4238 2.2869295999999997 9.31026 50.404719
556 186 1 -0.8476 3.10342 9.31026 52.93078
557 186 2 0.4238 3.9199104 9.31026 53.508139
558 186 2 0.4238 2.2869295999999997 9.31026 53.508139
559 187 1 -0.8476 3.10342 9.31026 56.0342
560 187 2 0.4238 3.9199104 9.31026 56.611559
561 187 2 0.4238 2.2869295999999997 9.31026 56.611559
562 188 1 -0.8476 3.10342 9.31026 59.13762
563 188 2 0.4238 3.9199104 9.31026 59.714979
564 188 2 0.4238 2.2869295999999997 9.31026 59.714979
565 189 1 -0.8476 3.10342 9.31026 62.24104
566 189 2 0.4238 3.9199104 9.31026 62.818399
567 189 2 0.4238 2.2869295999999997 9.31026 62.818399
568 190 1 -0.8476 3.10342 9.31026 65.34446
569 190 2 0.4238 3.9199104 9.31026 65.921819
570 190 2 0.4238 2.2869295999999997 9.31026 65.921819
571 191 1 -0.8476 3.10342 9.31026 68.44788
572 191 2 0.4238 3.9199104 9.31026 69.025239
573 191 2 0.4238 2.2869295999999997 9.31026 69.025239
574 192 1 -0.8476 3.10342 9.31026 71.5513
575 192 2 0.4238 3.9199104 9.31026 72.128659
576 192 2 0.4238 2.2869295999999997 9.31026 72.128659
577 193 1 -0.8476 3.10342 12.41368 25.0
578 193 2 0.4238 3.9199104 12.41368 25.577359
579 193 2 0.4238 2.2869295999999997 12.41368 25.577359
580 194 1 -0.8476 3.10342 12.41368 28.10342
581 194 2 0.4238 3.9199104 12.41368 28.680779
582 194 2 0.4238 2.2869295999999997 12.41368 28.680779
583 195 1 -0.8476 3.10342 12.41368 31.20684
584 195 2 0.4238 3.9199104 12.41368 31.784199
585 195 2 0.4238 2.2869295999999997 12.41368 31.784199
586 196 1 -0.8476 3.10342 12.41368 34.31026
587 196 2 0.4238 3.9199104 12.41368 34.887619
588 196 2 0.4238 2.2869295999999997 12.41368 34.887619
589 197 1 -0.8476 3.10342 12.41368 37.41368
590 197 2 0.4238 3.9199104 12.41368 37.991039
591 197 2 0.4238 2.2869295999999997 12.41368 37.991039
592 198 1 -0.8476 3.10342 12.41368 40.5171
593 198 2 0.4238 3.9199104 12.41368 41.094459
594 198 2 0.4238 2.2869295999999997 12.41368 41.094459
595 199 1 -0.8476 3.10342 12.41368 43.62052
596 199 2 0.4238 3.9199104 12.41368 44.197879
597 199 2 0.4238 2.2869295999999997 12.41368 44.197879
598 200 1 -0.8476 3.10342 12.41368 46.72394
599 200 2 0.4238 3.9199104 12.41368 47.301299
600 200 2 0.4238 2.2869295999999997 12.41368 47.301299
601 201 1 -0.8476 3.10342 12.41368 49.82736
602 201 2 0.4238 3.9199104 12.41368 50.404719
603 201 2 0.4238 2.2869295999999997 12.41368 50.404719
604 202 1 -0.8476 3.10342 12.41368 52.93078
605 202 2 0.4238 3.9199104 12.41368 53.508139
606 202 2 0.4238 2.2869295999999997 12.41368 53.508139
607 203 1 -0.8476 3.10342 12.41368 56.0342
608 203 2 0.4238 3.9199104 12.41368 56.611559
609 203 2 0.4238 2.2869295999999997 12.41368 56.611559
610 204 1 -0.8476 3.10342 12.41368 59.13762
611 204 2 0.4238 3.9199104 12.41368 59.714979
612 204 2 0.4238 2.2869295999999997 12.41368 59.714979
613 205 1 -0.8476 3.10342 12.41368 62.24104
614 205 2 0.4238 3.9199104 12.41368 62.818399
615 205 2 0.4238 2.2869295999999997 12.41368 62.818399
616 206 1 -0.8476 3.10342 12.41368 65.34446
617 206 2 0.4238 3.9199104 12.41368 65.921819
618 206 2 0.4238 2.2869295999999997 12.41368 65.921819
619 207 1 -0.8476 3.10342 12.41368 68.44788
620 207 2 0.4238 3.9199104 12.41368 69.025239
621 207 2 0.4238 2.2869295999999997 12.41368 69.025239
622 208 1 -0.8476 3.10342 12.41368 71.5513
623 208 2 0.4238 3.9199104 12.41368 72.128659
624 208 2 0.4238 2.2869295999999997 12.41368 72.128659
625 209 1 -0.8476 3.10342 15.5171 25.0
626 209 2 0.4238 3.9199104 15.5171 25.577359
627 209 2 0.4238 2.2869295999999997 15.5171 25.577359
628 210 1 -0.8476 3.10342 15.5171 28.10342
629 210 2 0.4238 3.9199104 15.5171 28.680779
630 210 2 0.4238 2.2869295999999997 15.5171 28.680779
631 211 1 -0.8476 3.10342 15.5171 31.20684
632 211 2 0.4238 3.9199104 15.5171 31.784199
633 211 2 0.4238 2.2869295999999997 15.5171 31.784199
634 212 1 -0.8476 3.10342 15.5171 34.31026
635 212 2 0.4238 3.9199104 15.5171 34.887619
636 212 2 0.4238 2.2869295999999997 15.5171 34.887619
637 213 1 -0.8476 3.10342 15.5171 37.41368
638 213 2 0.4238 3.9199104 15.5171 37.991039
639 213 2 0.4238 2.2869295999999997 15.5171 37.991039
640 214 1 -0.8476 3.10342 15.5171 40.5171
641 214 2 0.4238 3.9199104 15.5171 41.094459
642 214 2 0.4238 2.2869295999999997 15.5171 41.094459
643 215 1 -0.8476 3.10342 15.5171 43.62052
644 215 2 0.4238 3.9199104 15.5171 44.197879
645 215 2 0.4238 2.2869295999999997 15.5171 44.197879
646 216 1 -0.8476 3.10342 15.5171 46.72394
647 216 2 0.4238 3.9199104 15.5171 47.301299
648 216 2 0.4238 2.2869295999999997 15.5171 47.301299
649 217 1 -0.8476 3.10342 15.5171 49.82736
650 217 2 0.4238 3.9199104 15.5171 50.404719
651 217 2 0.4238 2.2869295999999997 15.5171 50.404719
652 218 1 -0.8476 3.10342 15.5171 52.93078
653 218 2 0.4238 3.9199104 15.5171 53.508139
654 218 2 0.4238 2.2869295999999997 15.5171 53.508139
655 219 1 -0.8476 3.10342 15.5171 56.0342
656 219 2 0.4238 3.9199104 15.5171 56.611559
657 219 2 0.4238 2.2869295999999997 15.5171 56.611559
658 220 1 -0.8476 3.10342 15.5171 59.13762
659 220 2 0.4238 3.9199104 15.5171 59.714979
660 220 2 0.4238 2.2869295999999997 15.5171 59.714979
661 221 1 -0.8476 3.10342 15.5171 62.24104
662 221 2 0.4238 3.9199104 15.5171 62.818399
663 221 2 0.4238 2.2869295999999997 15.5171 62.818399
664 222 1 -0.8476 3.10342 15.5171 65.34446
665 222 2 0.4238 3.9199104 15.5171 65.921819
666 222 2 0.4238 2.2869295999999997 15.5171 65.921819
667 223 1 -0.8476 3.10342 15.5171 68.44788
668 223 2 0.4238 3.9199104 15.5171 69.025239
669 223 2 0.4238 2.2869295999999997 15.5171 69.025239
670 224 1 -0.8476 3.10342 15.5171 71.5513
671 224 2 0.4238 3.9199104 15.5171 72.128659
672 224 2 0.4238 2.2869295999999997 15.5171 72.128659
673 225 1 -0.8476 3.10342 18.62052 25.0
674 225 2 0.4238 3.9199104 18.62052 25.577359
675 225 2 0.4238 2.2869295999999997 18.62052 25.577359