LAMMPS data file via write_data, version 23 Oct 2017, timestep = 100000

315 atoms
2 atom types

0.0000000000000000e+00 2.0000000000000000e+01 xlo xhi
0.0000000000000000e+00 2.0000000000000000e+01 ylo yhi
0.0000000000000000e+00 2.0000000000000000e+01 zlo zhi

Masses

1 12.011
2 1.008

Atoms # charge

175 2 0.0000000000000000e+00 5.3453687209469996e+00 5.5862726787962940e+00 4.0849785930715354e+00 1 0 0
103 2 0.0000000000000000e+00 1.3073645814185417e+00 3.7206017715158937e+00 3.8524713056132751e+00 0 0 -1
275 2 0.0000000000000000e+00 4.5600071648073301e+00 3.2329990023327824e+00 1.4821360978767673e+00 1 0 0
271 1 0.0000000000000000e+00 4.5843986967581722e+00 3.9176387402395871e+00 5.8099831361575494e-01 1 0 0
272 2 0.0000000000000000e+00 5.4182317432033766e+00 3.6898398009502156e+00 1.9965991602287605e+01 1 0 -1
273 2 0.0000000000000000e+00 3.6051023956156447e+00 3.8873287655431406e+00 1.9973105836472126e+01 1 0 -1
274 2 0.0000000000000000e+00 4.7919672477150748e+00 4.9286774621912297e+00 9.6215228549394083e-01 1 0 0
1 1 0.0000000000000000e+00 1.0949422771872639e+01 1.1263564251882920e+00 4.5818433826058058e+00 2 -1 0
4 2 0.0000000000000000e+00 1.1062078869518452e+01 1.8180370241226866e+00 3.7056441784637810e+00 2 -1 0
2 2 0.0000000000000000e+00 1.0128614847702552e+01 4.0521961508372545e-01 4.3443871852431215e+00 2 -1 0
49 2 0.0000000000000000e+00 9.5420250978384704e+00 3.6748811076174732e+00 6.9923624106878846e-01 0 -3 -1
5 2 0.0000000000000000e+00 1.1895921213727425e+01 5.9644887079656606e-01 4.8275121519683699e+00 2 -1 0
156 1 0.0000000000000000e+00 1.5350436635040626e+01 3.4944682618464196e+00 1.7820227892005359e+01 0 0 -1
158 2 0.0000000000000000e+00 1.6234885135644735e+01 4.1073565210303551e+00 1.8057804919138462e+01 0 0 -1
3 2 0.0000000000000000e+00 1.0638740127309621e+01 1.8737956827951723e+00 5.3939971205730135e+00 2 -1 0
54 2 0.0000000000000000e+00 1.7052455149295493e+01 6.1908001655126670e+00 3.8576008358326090e+00 -3 2 -3
159 2 0.0000000000000000e+00 1.4499107646573572e+01 3.7948767230433833e+00 1.8431013979305458e+01 0 0 -1
174 2 0.0000000000000000e+00 4.2023079102565521e+00 6.1554910639166103e+00 5.3707953997810565e+00 1 0 0
110 2 0.0000000000000000e+00 5.9228298978270466e+00 7.2826855552171832e+00 1.7589830768160732e+00 1 1 0
106 1 0.0000000000000000e+00 4.9244475610856240e+00 7.6927459153302671e+00 2.2297553862451567e+00 1 1 0
107 2 0.0000000000000000e+00 5.2386028337056265e+00 8.3909640111237671e+00 3.0345818656938097e+00 1 1 0
171 1 0.0000000000000000e+00 4.3023638963145299e+00 5.7330041668123508e+00 4.3363925456334522e+00 1 0 0
109 2 0.0000000000000000e+00 4.4004149695192085e+00 6.7821801577700214e+00 2.5893710659081899e+00 1 1 0
108 2 0.0000000000000000e+00 4.2740420890161115e+00 8.3254657494564768e+00 1.6027901460949956e+00 1 1 0
10 2 0.0000000000000000e+00 1.3257411832459456e+00 6.3889318368318131e+00 3.9757317160978789e+00 -1 -1 1
119 2 0.0000000000000000e+00 4.3148717130789356e+00 1.0019671440740531e+01 5.4848497820819606e+00 0 2 -1
173 2 0.0000000000000000e+00 3.9177557626872619e+00 4.6422301624828259e+00 4.2645502823043184e+00 1 0 0
194 2 0.0000000000000000e+00 7.4225277460058336e+00 1.0727964288898299e+01 1.9970692827027928e+01 -1 1 0
43 2 0.0000000000000000e+00 5.9784651534992816e+00 5.3197439887593001e+00 7.1371708543065617e+00 4 -1 2
157 2 0.0000000000000000e+00 1.5630281098459180e+01 2.4573206825593084e+00 1.7942836225216134e+01 0 0 -1
314 2 0.0000000000000000e+00 1.1566403476316767e+01 6.3954502587012092e+00 4.0672680727332047e+00 -1 1 4
315 2 0.0000000000000000e+00 9.7793024070031294e+00 6.1182231058810617e+00 4.0434157467946887e+00 -1 1 4
311 1 0.0000000000000000e+00 1.0740266656657713e+01 5.8829003129841775e+00 4.5248285330926601e+00 -1 1 4
38 2 0.0000000000000000e+00 1.1310542077155715e+01 7.6861907560603608e+00 2.2477789643954775e+00 3 0 -1
30 2 0.0000000000000000e+00 1.8394466800629068e+00 1.4015648787525809e+01 2.3327147732453954e+00 0 0 1
27 2 0.0000000000000000e+00 3.4470472115340434e-01 1.4323294078018423e+01 1.4005089285060470e+00 0 0 1
26 1 0.0000000000000000e+00 1.1391339740095721e+00 1.3546595729631424e+01 1.5750152498370000e+00 0 0 1
264 2 0.0000000000000000e+00 4.5759617782254436e+00 1.3310762309539912e+01 1.3694648644547793e+00 0 -2 -1
22 2 0.0000000000000000e+00 3.5566791269374578e+00 1.3042406572426589e+01 3.3457202536360047e+00 -1 -1 -3
28 2 0.0000000000000000e+00 1.6751480492594251e+00 1.3195934622963932e+01 6.6391237805201164e-01 0 0 1
265 2 0.0000000000000000e+00 4.9415867256590840e+00 1.2867983414679109e+01 3.0727806009800673e+00 0 -2 -1
263 2 0.0000000000000000e+00 5.8817011053762869e+00 1.2119709768149235e+01 1.7793045823911147e+00 0 -2 -1
262 2 0.0000000000000000e+00 6.1095938668574137e+00 1.3902206467158273e+01 2.1388931002679508e+00 0 -2 -1
261 1 0.0000000000000000e+00 5.3947224158640239e+00 1.3100746459646325e+01 2.0932355695561347e+00 0 -2 -1
313 2 0.0000000000000000e+00 1.0979550983153096e+01 4.8560939627722464e+00 4.4254843377639501e+00 -1 1 4
177 2 0.0000000000000000e+00 1.3347275647031404e+01 1.4644873344365251e+01 4.5810675707070976e+00 -1 -3 2
176 1 0.0000000000000000e+00 1.2478259350945532e+01 1.4052376743162130e+01 4.9762894864207432e+00 -1 -3 2
179 2 0.0000000000000000e+00 1.2230938255194133e+01 1.4380976370539551e+01 6.0312061277807976e+00 -1 -3 2
40 2 0.0000000000000000e+00 1.0431833398647282e+01 9.1411338734452094e+00 2.8471053043472137e+00 3 0 -1
36 1 0.0000000000000000e+00 1.0503315378230882e+01 8.4066629279942564e+00 2.0127518389019068e+00 3 0 -1
29 2 0.0000000000000000e+00 7.0673779636710043e-01 1.2591245277054831e+01 1.9359578543553047e+00 0 0 1
127 2 0.0000000000000000e+00 1.7723696726944713e+01 1.3010375587964814e+01 2.6470618456388411e+00 -1 -3 1
129 2 0.0000000000000000e+00 1.8188055467648180e+01 1.1406617858229632e+01 3.3902034809353969e+00 -1 -3 1
130 2 0.0000000000000000e+00 1.6848414717419999e+01 1.1505319162512432e+01 2.0872826283712915e+00 -1 -3 1
126 1 0.0000000000000000e+00 1.7301073825980328e+01 1.2007765411015372e+01 2.9467714070656283e+00 -1 -3 1
128 2 0.0000000000000000e+00 1.6574394742225149e+01 1.2189854921616117e+01 3.7269195214454198e+00 -1 -3 1
33 2 0.0000000000000000e+00 2.6267666961725569e+00 1.6236765067453096e+01 2.7937314778270403e+00 -1 -1 1
32 2 0.0000000000000000e+00 3.9749621673026572e+00 1.5659072228430459e+01 3.6940538226953370e+00 -1 -1 1
31 1 0.0000000000000000e+00 3.6938357182189896e+00 1.6249578011374791e+01 2.8148426204327741e+00 -1 -1 1
35 2 0.0000000000000000e+00 4.1287966368149016e+00 1.7251553996961885e+01 2.9953023328457644e+00 -1 -1 1
34 2 0.0000000000000000e+00 4.0585629928716473e+00 1.5757695872678383e+01 1.8816582074916917e+00 -1 -1 1
178 2 0.0000000000000000e+00 1.1527947446441607e+01 1.4164691665589434e+01 4.4186758818086451e+00 -1 -3 2
168 2 0.0000000000000000e+00 1.3886070288358210e+01 1.9241865108699020e+01 2.7615200182631998e+00 -2 0 -2
169 2 0.0000000000000000e+00 1.5169311533990372e+01 4.0935588752029484e-01 2.9529412982245971e+00 -2 1 -2
166 1 0.0000000000000000e+00 1.4996980435922133e+01 1.9376559201388517e+01 2.5874411251380196e+00 -2 0 -2
167 2 0.0000000000000000e+00 1.5081058857648586e+01 1.9390798420028442e+01 1.4935461670872499e+00 -2 0 -2
170 2 0.0000000000000000e+00 1.5603353196950756e+01 1.8579645452991596e+01 2.9503695393715708e+00 -2 0 -2
69 2 0.0000000000000000e+00 1.8758544337699696e+01 8.0682885401828830e-01 4.0879936203640135e+00 -1 2 -1
66 1 0.0000000000000000e+00 1.8728681423823147e+01 3.2607262639736723e-01 5.0220297297310834e+00 -1 2 -1
67 2 0.0000000000000000e+00 1.7738442288151585e+01 1.9723891336445096e+01 5.1301857817645793e+00 -1 1 -1
102 2 0.0000000000000000e+00 1.6397331916684568e+00 4.2735189141803769e+00 5.5547563500055608e+00 0 0 -1
287 2 0.0000000000000000e+00 9.7063141877155201e-01 1.8893163756804203e+01 1.0592555242850027e+01 -1 1 0
104 2 0.0000000000000000e+00 9.2783744998535456e-01 2.4688594106605768e+00 5.1061293315307577e+00 0 0 -1
101 1 0.0000000000000000e+00 1.5626066882835914e+00 3.3406098702183078e+00 4.8829903089668800e+00 0 0 -1
138 2 0.0000000000000000e+00 1.1233891471855765e+01 4.7118328900038478e+00 8.1024533118790369e+00 -1 1 -1
140 2 0.0000000000000000e+00 9.4993906793291814e+00 3.9779488927269675e+00 7.9849211909785502e+00 -1 1 -1
139 2 0.0000000000000000e+00 1.0361323563448300e+01 4.6477207890595578e+00 6.5026295609496181e+00 -1 1 -1
136 1 0.0000000000000000e+00 1.0234850421539512e+01 4.7515227402999765e+00 7.6031473650818020e+00 -1 1 -1
137 2 0.0000000000000000e+00 9.8305233632577984e+00 5.7732717311844901e+00 7.7781284405940667e+00 -1 1 -1
52 2 0.0000000000000000e+00 1.6264080737765717e+01 4.9271529286515880e+00 4.7997361189522447e+00 -3 2 -3
8 2 0.0000000000000000e+00 8.8130781237956290e-01 6.7320609519861199e+00 5.5863715061393258e+00 -1 -1 1
9 2 0.0000000000000000e+00 1.9701039861983109e+01 7.0998400413085081e+00 4.3169555689171943e+00 -2 -1 1
6 1 0.0000000000000000e+00 4.6472757720188973e-01 6.3682968920462963e+00 4.6602881128892779e+00 -1 -1 1
116 1 0.0000000000000000e+00 3.8547184855603880e+00 9.1159275782702700e+00 5.9646899406628924e+00 0 2 -1
120 2 0.0000000000000000e+00 4.6203595927842969e+00 8.3064000427694538e+00 5.9044796738179972e+00 0 2 -1
172 2 0.0000000000000000e+00 3.7643081737622248e+00 6.5842662904559290e+00 3.7526658961498804e+00 1 0 0
105 2 0.0000000000000000e+00 2.5500747223710460e+00 2.8573575074147608e+00 4.9266451015001875e+00 0 0 -1
117 2 0.0000000000000000e+00 3.0485420676485941e+00 8.7803026905746204e+00 5.3103555898437262e+00 0 2 -1
269 2 0.0000000000000000e+00 9.5660888231682439e-01 7.3717872199595860e+00 8.8853506691579458e+00 1 0 -2
268 2 0.0000000000000000e+00 3.6788466359860728e-01 8.9391338256263246e+00 9.5130736478938047e+00 1 0 -2
42 2 0.0000000000000000e+00 6.4616448519089236e+00 6.3639894529073384e+00 5.6893667627725417e+00 4 -1 2
41 1 0.0000000000000000e+00 6.7987726108979576e+00 5.6654154373514620e+00 6.4965068188827750e+00 4 -1 2
45 2 0.0000000000000000e+00 7.1983037970390455e+00 4.8866456555398345e+00 5.8524716325749511e+00 4 -1 2
239 2 0.0000000000000000e+00 4.1744612934093217e+00 4.6767924061042647e+00 8.1816836209132884e+00 -3 0 -1
238 2 0.0000000000000000e+00 2.5063120427706775e+00 5.4704685101464658e+00 8.3322865585278265e+00 -3 0 -1
236 1 0.0000000000000000e+00 3.1791520644670266e+00 4.6701385409838991e+00 8.5904151317914330e+00 -3 0 -1
237 2 0.0000000000000000e+00 2.6783998531481017e+00 3.6900000593640203e+00 8.3286072561945090e+00 -3 0 -1
240 2 0.0000000000000000e+00 3.2307552749017643e+00 4.7836685041543001e+00 9.7286291300497822e+00 -3 0 -1
44 2 0.0000000000000000e+00 7.7613800497790253e+00 6.0835041450783356e+00 6.9672137397351817e+00 4 -1 2
217 2 0.0000000000000000e+00 6.0391059227521060e+00 8.6397110720464436e+00 8.6182846561994229e+00 1 1 1
220 2 0.0000000000000000e+00 5.4998781143363971e+00 9.3186253126624781e+00 7.1416751280722925e+00 1 1 1
216 1 0.0000000000000000e+00 6.4555438260032059e+00 9.0115377099063085e+00 7.6598196907829150e+00 1 1 1
218 2 0.0000000000000000e+00 6.9768512222373076e+00 8.1763100294420497e+00 7.1716575285358815e+00 1 1 1
235 2 0.0000000000000000e+00 1.3568865842854780e+01 8.9821400965715252e+00 6.1428226913244908e+00 1 0 1
231 1 0.0000000000000000e+00 1.2801675604064105e+01 9.4085793662665349e+00 6.8770035356892230e+00 1 0 1
232 2 0.0000000000000000e+00 1.2473538938945829e+01 8.4940148217050968e+00 7.5384076156507192e+00 1 0 1
234 2 0.0000000000000000e+00 1.1910516297511959e+01 9.7723550362398122e+00 6.3027721375720267e+00 1 0 1
233 2 0.0000000000000000e+00 1.3259194205011816e+01 1.0269594331903395e+01 7.3597853009384586e+00 1 0 1
312 2 0.0000000000000000e+00 1.0706341922683754e+01 6.0799956118488261e+00 5.6265345461298697e+00 -1 1 4
7 2 0.0000000000000000e+00 1.9986039095597040e+01 5.4245711137798969e+00 4.8022962770143582e+00 -2 -1 1
53 2 0.0000000000000000e+00 1.7589164605527355e+01 5.9866181972270782e+00 5.5077800075692886e+00 -3 2 -3
51 1 0.0000000000000000e+00 1.7208754223741021e+01 5.4098961246487924e+00 4.5853991258056421e+00 -3 2 -3
55 2 0.0000000000000000e+00 1.7817722950189776e+01 4.6494939458595113e+00 4.1111771485064574e+00 -3 2 -3
255 2 0.0000000000000000e+00 1.7436848272923868e+01 8.5946503202644671e+00 6.6280074583192645e+00 0 -1 1
252 2 0.0000000000000000e+00 1.7415280419154954e+01 9.7627185499346805e+00 7.8893385298576888e+00 0 -1 1
254 2 0.0000000000000000e+00 1.6744136777312374e+01 8.1839767990475885e+00 8.2020232422763666e+00 0 -1 1
251 1 0.0000000000000000e+00 1.6820300636902360e+01 8.9619688421895134e+00 7.4376621549392263e+00 0 -1 1
253 2 0.0000000000000000e+00 1.5858437132215775e+01 9.4859350359688186e+00 7.2477886775086606e+00 0 -1 1
229 2 0.0000000000000000e+00 1.5428798058645260e+01 1.1123768673829543e+01 1.0931445913865913e+01 -2 0 -2
304 2 0.0000000000000000e+00 1.6037380564551316e+00 3.4989161504021475e+00 9.6585020949954448e+00 0 -1 3
118 2 0.0000000000000000e+00 3.4891599835251261e+00 9.3834445474090380e+00 7.0079795687446973e+00 0 2 -1
19 2 0.0000000000000000e+00 3.6149300444498267e+00 1.0245155347232496e+01 8.3968272048764447e+00 -1 -1 -1
16 1 0.0000000000000000e+00 4.0390453513729163e+00 1.0369013955447025e+01 9.3883431698435675e+00 -1 -1 -1
24 2 0.0000000000000000e+00 4.4820830670049947e+00 1.3844990064198186e+01 4.7312097042504524e+00 -1 -1 -3
17 2 0.0000000000000000e+00 3.4729824020032112e+00 1.1115118897824294e+01 9.9586605395694843e+00 -1 -1 -1
25 2 0.0000000000000000e+00 3.2273804169089688e+00 1.2438314155064660e+01 5.0839995886867930e+00 -1 -1 -3
23 2 0.0000000000000000e+00 2.7228248747482393e+00 1.4082829837146207e+01 4.6898076175012084e+00 -1 -1 -3
21 1 0.0000000000000000e+00 3.5063748800680430e+00 1.3332834323871053e+01 4.4416853100663252e+00 -1 -1 -3
18 2 0.0000000000000000e+00 5.0656581347322795e+00 1.0658942601282646e+01 9.3701424245492415e+00 -1 -1 -1
219 2 0.0000000000000000e+00 7.2154987711014407e+00 9.7989122036949947e+00 7.9111233571859580e+00 1 1 1
73 2 0.0000000000000000e+00 9.2319564267200978e+00 1.4549063604646022e+01 7.3597837169824567e+00 0 -2 -2
180 2 0.0000000000000000e+00 1.2848403217726370e+01 1.2988043864240506e+01 5.0281280463352926e+00 -1 -3 2
75 2 0.0000000000000000e+00 1.0636938701409910e+01 1.4863153610572125e+01 8.6036757256308061e+00 0 -2 -2
71 1 0.0000000000000000e+00 9.5821477697935382e+00 1.4578909999450094e+01 8.4461476949756342e+00 0 -2 -2
74 2 0.0000000000000000e+00 9.4502425784536079e+00 1.3528390587907406e+01 8.7818251345854179e+00 0 -2 -2
72 2 0.0000000000000000e+00 8.8640965998408063e+00 1.5138567920252855e+01 9.0454757473036356e+00 0 -2 -2
260 2 0.0000000000000000e+00 1.6632929271555874e+01 1.5821953469446921e+01 6.9130860245906849e+00 -2 -2 1
256 1 0.0000000000000000e+00 1.7085713586812151e+01 1.5251779026489970e+01 6.0885855634961485e+00 -2 -2 1
258 2 0.0000000000000000e+00 1.6347857415135714e+01 1.5214313486494301e+01 5.3391949822345373e+00 -2 -2 1
85 2 0.0000000000000000e+00 1.9167326328035077e+01 1.1769864106961979e+01 9.1516388629661574e+00 -4 -1 0
187 2 0.0000000000000000e+00 1.5748986771186981e+00 1.6797100804635754e+01 5.9604917536174726e+00 0 -4 2
190 2 0.0000000000000000e+00 2.5409115049466313e-01 1.6219512507876022e+01 4.8416231070614346e+00 0 -4 2
186 1 0.0000000000000000e+00 9.4296912064607286e-01 1.5953412822834983e+01 5.6008590784002319e+00 0 -4 2
188 2 0.0000000000000000e+00 4.3127694608414890e-01 1.5342835924650281e+01 6.3921128351767580e+00 0 -4 2
189 2 0.0000000000000000e+00 1.6277194566655657e+00 1.5297848066687743e+01 5.1339626785021730e+00 0 -4 2
133 2 0.0000000000000000e+00 1.1636454179819162e+00 1.5350149245152526e+01 1.2830627042378454e+01 0 1 -1
94 2 0.0000000000000000e+00 1.0592738861583992e+01 1.7732750083134125e+01 5.7772046341668206e+00 0 1 0
142 2 0.0000000000000000e+00 1.6256539716856604e+01 1.9749098610677549e+01 6.5318377065570568e+00 0 1 -1
92 2 0.0000000000000000e+00 9.7847287411240025e+00 1.8843682004651004e+01 7.0372273748777996e+00 0 1 0
93 2 0.0000000000000000e+00 1.0433757074223312e+01 1.7092717093537495e+01 7.4602881391142226e+00 0 1 0
91 1 0.0000000000000000e+00 1.0022458193794600e+01 1.7813733343021976e+01 6.7342441922081004e+00 0 1 0
95 2 0.0000000000000000e+00 9.0707847285700840e+00 1.7437511967602120e+01 6.4019094089154178e+00 0 1 0
145 2 0.0000000000000000e+00 1.6647960553474118e+01 1.8764970443696402e+01 7.8738305743942627e+00 0 1 -1
141 1 0.0000000000000000e+00 1.5864831758896935e+01 1.8890474038479184e+01 7.0828183623273162e+00 0 1 -1
144 2 0.0000000000000000e+00 1.4889881493525582e+01 1.9039981127760086e+01 7.6012774831328347e+00 0 1 -1
143 2 0.0000000000000000e+00 1.5854773748227343e+01 1.7952725095472243e+01 6.5270943374070436e+00 0 1 -1
70 2 0.0000000000000000e+00 1.9627676113051439e+01 1.9684011340627997e+01 5.2597192469574079e+00 -1 1 -1
259 2 0.0000000000000000e+00 1.7974236951843885e+01 1.5714248731538277e+01 5.6878741749044410e+00 -2 -2 1
257 2 0.0000000000000000e+00 1.7325187482971099e+01 1.4206794248402689e+01 6.3767852211946252e+00 -2 -2 1
68 2 0.0000000000000000e+00 1.8638856832648528e+01 1.0955709147544939e+00 5.8261037015770762e+00 -1 2 -1
288 2 0.0000000000000000e+00 1.6474892912428287e+00 5.8017352205231243e-01 1.0571181228055464e+01 -1 2 0
286 1 0.0000000000000000e+00 7.1123670895625890e-01 1.9918430824567974e+01 1.0748501687703365e+01 -1 1 0
278 2 0.0000000000000000e+00 7.2798646730446706e+00 3.5748463446657421e+00 1.1085765932361522e+01 0 1 -1
276 1 0.0000000000000000e+00 6.8050173847218414e+00 2.5671954190725876e+00 1.1293726004982144e+01 0 1 -1
280 2 0.0000000000000000e+00 7.4751028807192572e+00 1.6695384065643097e+00 1.1353309143135288e+01 0 1 -1
277 2 0.0000000000000000e+00 6.2736611689350203e+00 2.6543244261291745e+00 1.2223424751567363e+01 0 1 -1
279 2 0.0000000000000000e+00 6.0072634330889851e+00 2.3258985121139601e+00 1.0568779981294913e+01 0 1 -1
245 2 0.0000000000000000e+00 1.3028732147408457e+01 3.4469223880747153e+00 9.1049871261920892e+00 1 0 1
243 2 0.0000000000000000e+00 1.2940287992920529e+01 1.9097563512303122e+00 9.7741927700801963e+00 1 0 1
241 1 0.0000000000000000e+00 1.3451473764465414e+01 2.8700780207674410e+00 9.9633262493283627e+00 1 0 1
242 2 0.0000000000000000e+00 1.3217049225368687e+01 3.3091833836728597e+00 1.0949602685733648e+01 1 0 1
303 2 0.0000000000000000e+00 3.1191252644927953e-01 2.1730731336728124e+00 9.4004825906570364e+00 0 -1 3
290 2 0.0000000000000000e+00 3.8428943531377824e-02 1.5102741619080107e-01 9.8543166681516485e+00 -1 2 0
244 2 0.0000000000000000e+00 1.4487115690064725e+01 2.7256270784347056e+00 1.0100669572350684e+01 1 0 1
298 2 0.0000000000000000e+00 1.9000581501316233e+01 4.1040138821960905e+00 1.6084524934226057e+01 -1 0 1
300 2 0.0000000000000000e+00 1.7157023619010925e+01 3.6875057652326904e+00 1.6208541223111283e+01 -1 0 1
80 2 0.0000000000000000e+00 1.6272492854913420e+01 1.7694925955900604e+00 1.2727722934632629e+01 1 1 -3
77 2 0.0000000000000000e+00 1.7852675042833575e+01 2.5266033114166899e+00 1.3283594102758114e+01 1 1 -3
76 1 0.0000000000000000e+00 1.7208586947862813e+01 2.2635586203636375e+00 1.2399267294872022e+01 1 1 -3
79 2 0.0000000000000000e+00 1.6991485512895991e+01 3.1849043138940130e+00 1.1866260725568040e+01 1 1 -3
78 2 0.0000000000000000e+00 1.7757533425041085e+01 1.5285735084063925e+00 1.1801445510350518e+01 1 1 -3
302 2 0.0000000000000000e+00 7.9367314300036185e-03 3.9838389784018657e+00 9.6192987176552940e+00 0 -1 3
267 2 0.0000000000000000e+00 2.0674360144183956e+00 8.5776641218665119e+00 9.5989584659764660e+00 1 0 -2
266 1 0.0000000000000000e+00 1.1980024596167258e+00 8.4519906495339292e+00 8.9736168618903154e+00 1 0 -2
270 2 0.0000000000000000e+00 1.3227836782791205e+00 8.9961791811375615e+00 7.9710737357599886e+00 1 0 -2
310 2 0.0000000000000000e+00 2.6761759786773864e+00 7.2731318704994576e+00 1.4271185330896181e+01 0 2 1
306 1 0.0000000000000000e+00 3.1757086622046411e+00 7.8843945690420600e+00 1.3518191121353995e+01 0 2 1
307 2 0.0000000000000000e+00 2.5125476286007351e+00 8.5260395735708023e+00 1.2893579375366818e+01 0 2 1
309 2 0.0000000000000000e+00 3.6418042222481697e+00 7.1035520395111682e+00 1.2921536051921271e+01 0 2 1
90 2 0.0000000000000000e+00 9.5356314893739267e+00 8.5484613153173648e+00 1.4087331998822318e+01 -1 0 1
87 2 0.0000000000000000e+00 9.0072657330587962e+00 8.7013079613201914e+00 1.2460178869272461e+01 -1 0 1
249 2 0.0000000000000000e+00 1.2384853075083686e+01 8.2720107522952144e+00 1.1640005780365739e+01 -2 0 3
250 2 0.0000000000000000e+00 1.3909740696186651e+01 7.4603244147289312e+00 1.1975483113188702e+01 -2 0 3
248 2 0.0000000000000000e+00 1.2400053655447357e+01 6.4776398085266766e+00 1.2100324568950599e+01 -2 0 3
246 1 0.0000000000000000e+00 1.2887603983327981e+01 7.3209748924566629e+00 1.1512833319280736e+01 -2 0 3
113 2 0.0000000000000000e+00 9.9889703288316483e+00 1.0026728229965448e+01 1.0252244584414809e+01 -2 -1 -1
247 2 0.0000000000000000e+00 1.3043870390204599e+01 7.0415391203083502e+00 1.0449977038959226e+01 -2 0 3
99 2 0.0000000000000000e+00 1.5746220384960795e+01 1.1936677235977722e+01 1.4074436522758678e+01 0 2 0
305 2 0.0000000000000000e+00 9.1563297729149229e-01 3.2993069524922425e+00 8.0869430381809835e+00 0 -1 3
301 1 0.0000000000000000e+00 6.7956495025930175e-01 3.1992098996695879e+00 9.1919706580507619e+00 0 -1 3
228 2 0.0000000000000000e+00 1.5093349765760419e+01 9.6511109733770581e+00 1.1973364584432678e+01 -2 0 -2
227 2 0.0000000000000000e+00 1.4324285051482850e+01 9.7140330079488049e+00 1.0450998206170086e+01 -2 0 -2
296 1 0.0000000000000000e+00 1.7933631624918764e+01 4.4386107687201317e+00 1.5892195587304197e+01 -1 0 1
297 2 0.0000000000000000e+00 1.7845215303357907e+01 5.3436697357782714e+00 1.6511114150158441e+01 -1 0 1
299 2 0.0000000000000000e+00 1.7826173326549991e+01 4.7011258972400993e+00 1.4787316916066922e+01 -1 0 1
209 2 0.0000000000000000e+00 1.7792658424620985e+01 1.1207169715678084e+01 1.2954587162051725e+01 -1 1 0
230 2 0.0000000000000000e+00 1.6093397436975664e+01 9.4804078821206748e+00 1.0490556990732042e+01 -2 0 -2
226 1 0.0000000000000000e+00 1.5236708780494391e+01 1.0032915852901922e+01 1.0966906777896606e+01 -2 0 -2
20 2 0.0000000000000000e+00 4.0069853025640922e+00 9.4133540775905260e+00 1.0030142151196140e+01 -1 -1 -1
83 2 0.0000000000000000e+00 8.5001478950175646e-01 1.2505784824816704e+01 8.9356458679388897e+00 -3 -1 0
207 2 0.0000000000000000e+00 1.9584585172210637e+01 1.0872014510559106e+01 1.3003817968550416e+01 -1 1 0
308 2 0.0000000000000000e+00 3.9565192455190252e+00 8.5905916272941170e+00 1.3940034039983082e+01 0 2 1
162 2 0.0000000000000000e+00 5.2019171030512315e+00 1.4911387230883586e+01 1.3650281511126655e+01 -1 -2 -1
163 2 0.0000000000000000e+00 6.7099817143883502e+00 1.5836023810809861e+01 1.4296045952123722e+01 -1 -2 -1
164 2 0.0000000000000000e+00 5.4733950469561625e+00 1.5157983477774172e+01 1.5385431599293677e+01 -1 -2 -1
89 2 0.0000000000000000e+00 9.6683499722095281e+00 1.0157530252137828e+01 1.3277220275170791e+01 -1 0 1
115 2 0.0000000000000000e+00 1.0963981787078335e+01 1.0238015582003770e+01 1.1669685302879071e+01 -2 -1 -1
149 2 0.0000000000000000e+00 9.5679791323898584e+00 1.6236225524313834e+01 1.3021460590584111e+01 0 1 0
88 2 0.0000000000000000e+00 8.0855212361023305e+00 9.4909831421040867e+00 1.3862452839100875e+01 -1 0 1
86 1 0.0000000000000000e+00 9.0817775661206213e+00 9.2260799410188525e+00 1.3405039740437894e+01 -1 0 1
97 2 0.0000000000000000e+00 1.4850474205646920e+01 1.1876609624108585e+01 1.5586695318932938e+01 0 2 0
96 1 0.0000000000000000e+00 1.5567837216991146e+01 1.2542666834877332e+01 1.4993031756891178e+01 0 2 0
112 2 0.0000000000000000e+00 1.1819398510444287e+01 1.0253415508963975e+01 1.0083860977217819e+01 -2 -1 -1
111 1 0.0000000000000000e+00 1.0870319514076888e+01 1.0507411987324220e+01 1.0653795550220012e+01 -2 -1 -1
114 2 0.0000000000000000e+00 1.0670798134660316e+01 1.1563526859154297e+01 1.0636507006156691e+01 -2 -1 -1
147 2 0.0000000000000000e+00 1.0030091785964611e+01 1.5559753907228664e+01 1.1359170333580273e+01 0 1 0
148 2 0.0000000000000000e+00 1.0363562855853885e+01 1.4630007513271455e+01 1.2834538364352577e+01 0 1 0
146 1 0.0000000000000000e+00 1.0264614950421247e+01 1.5658819492955097e+01 1.2375158233053595e+01 0 1 0
84 2 0.0000000000000000e+00 6.4855204126238608e-01 1.0879429838952138e+01 9.5960369391299079e+00 -3 -1 0
98 2 0.0000000000000000e+00 1.5195765671511536e+01 1.3530581931459675e+01 1.4941942918621361e+01 0 2 0
100 2 0.0000000000000000e+00 1.6509499312978438e+01 1.2521039286941511e+01 1.5514933162064928e+01 0 2 0
210 2 0.0000000000000000e+00 1.9010953245303803e+01 1.2588036023419427e+01 1.2501350536398311e+01 -1 1 0
206 1 0.0000000000000000e+00 1.8796128416664754e+01 1.1695878369608607e+01 1.3126446226197251e+01 -1 1 0
124 2 0.0000000000000000e+00 1.8851055609611649e+01 1.6189394720348130e+01 1.3569746871645213e+01 1 4 1
208 2 0.0000000000000000e+00 1.8955895999478880e+01 1.2068713530832138e+01 1.4196704599549090e+01 -1 1 0
121 1 0.0000000000000000e+00 1.8218527032071076e+01 1.6265890183971752e+01 1.4429165502215785e+01 1 4 1
82 2 0.0000000000000000e+00 2.7105040024561955e-01 1.1133233366906710e+01 7.8747052899409287e+00 -3 -1 0
81 1 0.0000000000000000e+00 2.1191140377158973e-01 1.1587897923751379e+01 8.8521512268483846e+00 -3 -1 0
123 2 0.0000000000000000e+00 1.7220664898760585e+01 1.5756652784697179e+01 1.4389309681514048e+01 1 4 1
131 1 0.0000000000000000e+00 6.5965522012960465e-01 1.4471789471229318e+01 1.2368752811895776e+01 0 1 -1
135 2 0.0000000000000000e+00 8.9510772505030556e-01 1.3511535394863298e+01 1.2825862461561147e+01 0 1 -1
134 2 0.0000000000000000e+00 8.8118384091726409e-01 1.4460319056017974e+01 1.1245977596612807e+01 0 1 -1
132 2 0.0000000000000000e+00 1.9597638703087135e+01 1.4522359508092684e+01 1.2548339306930385e+01 -1 1 -1
289 2 0.0000000000000000e+00 3.0702167454193430e-01 1.3225192402863420e-01 1.1764312683149074e+01 -1 2 0
185 2 0.0000000000000000e+00 5.4358122902511816e+00 1.9933621431653336e+01 9.5166115370656286e+00 -2 -1 -2
161 1 0.0000000000000000e+00 5.6192878126483636e+00 1.5599658591819033e+01 1.4423138766205485e+01 -1 -2 -1
165 2 0.0000000000000000e+00 5.1118417294714780e+00 1.6538073826005178e+01 1.4438012515220892e+01 -1 -2 -1
57 2 0.0000000000000000e+00 9.5068361984935361e+00 6.0816680751827601e-01 1.0961727024613694e+01 2 0 -1
181 1 0.0000000000000000e+00 6.0135031088454580e+00 1.9345895608831871e+01 1.0334973170151127e+01 -2 -1 -2
183 2 0.0000000000000000e+00 5.7779933995792963e+00 1.9995130130085741e+01 1.1232169397470580e+01 -2 -1 -2
182 2 0.0000000000000000e+00 7.1138820563582126e+00 1.9412321646338448e+01 1.0364762073596417e+01 -2 -1 -2
59 2 0.0000000000000000e+00 9.6220942075791438e+00 1.9896931995375738e+01 1.2662882300112981e+01 2 -1 -1
184 2 0.0000000000000000e+00 5.4952901130338221e+00 1.8316039126568185e+01 1.0485729735596614e+01 -2 -1 -2
282 2 0.0000000000000000e+00 8.4373648127082781e+00 1.6656216910232182e+01 1.6009990046113856e+01 1 1 1
285 2 0.0000000000000000e+00 7.8179595848169461e+00 1.8122309920561523e+01 1.6904563064513709e+01 1 1 1
150 2 0.0000000000000000e+00 1.1311687885575235e+01 1.6064075980207793e+01 1.2471941174377442e+01 0 1 0
60 2 0.0000000000000000e+00 9.5863882520853760e+00 1.7375408363551990e+00 1.2299265419469311e+01 2 0 -1
58 2 0.0000000000000000e+00 1.1051086876583636e+01 8.9207793137264080e-01 1.1889099779371454e+01 2 0 -1
56 1 0.0000000000000000e+00 9.9392583568421262e+00 7.8546641770808190e-01 1.1968639452421639e+01 2 0 -1
125 2 0.0000000000000000e+00 1.8000989139567306e+01 1.7296274771938553e+01 1.4721873479302953e+01 1 4 1
13 2 0.0000000000000000e+00 1.6189702206251684e+00 1.8646775005931687e+01 1.6455886224379253e+01 1 -1 0
12 2 0.0000000000000000e+00 1.1501703316680048e+00 1.9792649682474195e+01 1.7748820124444485e+01 1 -1 0
14 2 0.0000000000000000e+00 2.1564808293124225e+00 4.3839306846282616e-01 1.6391944590352452e+01 1 0 0
11 1 0.0000000000000000e+00 1.3567089412249069e+00 1.9710496905494129e+01 1.6721737946985549e+01 1 -1 0
15 2 0.0000000000000000e+00 4.7891531490894912e-01 6.3148495004174521e-02 1.6181544018682885e+01 1 0 0
47 2 0.0000000000000000e+00 9.0271969090193611e+00 3.1737009243899692e+00 2.3269000801034752e+00 0 -3 -1
46 1 0.0000000000000000e+00 9.5184417744724037e+00 3.9851211232763224e+00 1.6994391857151094e+00 0 -3 -1
50 2 0.0000000000000000e+00 1.0521777102475017e+01 4.2963334757299370e+00 2.0231028177358961e+00 0 -3 -1
154 2 0.0000000000000000e+00 6.7952243452702090e+00 2.1448352724116551e+00 1.7505872922635302e+01 2 1 1
151 1 0.0000000000000000e+00 6.5299092353945323e+00 1.5255788348748884e+00 1.8352222992803402e+01 2 1 1
155 2 0.0000000000000000e+00 6.8168852775865663e+00 4.5058226223199377e-01 1.8364576028692024e+01 2 1 1
160 2 0.0000000000000000e+00 1.5118330965778773e+01 3.4868149689777925e+00 1.6732304135943068e+01 0 0 -1
205 2 0.0000000000000000e+00 1.6858430561726600e+01 8.5488396593281202e-01 1.9603680187289093e+01 2 0 0
201 1 0.0000000000000000e+00 1.7375575203241429e+01 1.9832656234949663e+01 1.9562671733831710e+01 2 -1 0
202 2 0.0000000000000000e+00 1.7440820395599918e+01 1.9520412413914453e+01 1.8463824353280238e+01 2 -1 0
203 2 0.0000000000000000e+00 1.8342598029999994e+01 1.9834220314801851e+01 9.1699650061570992e-02 2 -1 1
212 2 0.0000000000000000e+00 3.4498460378284856e-01 6.5284870792135914e+00 1.9626356025996795e+01 2 1 2
211 1 0.0000000000000000e+00 2.9760010819141552e-01 6.5805924237908853e+00 1.8538349501024726e+01 2 1 2
214 2 0.0000000000000000e+00 1.9234179785084343e+01 6.8966842448219552e+00 1.8273971391654737e+01 1 1 2
213 2 0.0000000000000000e+00 9.4479007636097256e-01 7.4215365008163721e+00 1.8240048511571356e+01 2 1 2
48 2 0.0000000000000000e+00 8.8441549305166873e+00 4.8761263256453917e+00 1.7706538770564662e+00 0 -3 -1
195 2 0.0000000000000000e+00 6.9403200134848211e+00 9.1425852563475107e+00 6.6435233215693668e-01 -1 1 1
191 1 0.0000000000000000e+00 6.6029444860411504e+00 1.0171538460224131e+01 5.1908221452796721e-01 -1 1 1