Created with h2.pl

13718 atoms
2 atom types

0.000000 32.415120 xlo xhi
0.000000 32.415120 ylo yhi
0.000000 32.415120 zlo zhi

Masses

1 1.007940
2 1.000000

Atoms							

1 1 1.000000 0 0.000000 0.853029 0.853029 1.117618 
2 1 1.000000 0 0.000000 0.853029 0.853029 2.294500 
3 1 1.000000 0 0.000000 0.853029 0.853029 4.529736 
4 1 1.000000 0 0.000000 0.853029 0.853029 5.706618 
5 1 1.000000 0 0.000000 0.853029 0.853029 7.941854 
6 1 1.000000 0 0.000000 0.853029 0.853029 9.118735 
7 1 1.000000 0 0.000000 0.853029 0.853029 11.353971 
8 1 1.000000 0 0.000000 0.853029 0.853029 12.530853 
9 1 1.000000 0 0.000000 0.853029 0.853029 14.766089 
10 1 1.000000 0 0.000000 0.853029 0.853029 15.942971 
11 1 1.000000 0 0.000000 0.853029 0.853029 18.178207 
12 1 1.000000 0 0.000000 0.853029 0.853029 19.355089 
13 1 1.000000 0 0.000000 0.853029 0.853029 21.590325 
14 1 1.000000 0 0.000000 0.853029 0.853029 22.767207 
15 1 1.000000 0 0.000000 0.853029 0.853029 25.002443 
16 1 1.000000 0 0.000000 0.853029 0.853029 26.179325 
17 1 1.000000 0 0.000000 0.853029 0.853029 28.414561 
18 1 1.000000 0 0.000000 0.853029 0.853029 29.591443 
19 1 1.000000 0 0.000000 0.853029 0.853029 31.826679 
20 1 1.000000 0 0.000000 0.853029 2.559088 1.117618 
21 1 1.000000 0 0.000000 0.853029 2.559088 2.294500 
22 1 1.000000 0 0.000000 0.853029 2.559088 4.529736 
23 1 1.000000 0 0.000000 0.853029 2.559088 5.706618 
24 1 1.000000 0 0.000000 0.853029 2.559088 7.941854 
25 1 1.000000 0 0.000000 0.853029 2.559088 9.118735 
26 1 1.000000 0 0.000000 0.853029 2.559088 11.353971 
27 1 1.000000 0 0.000000 0.853029 2.559088 12.530853 
28 1 1.000000 0 0.000000 0.853029 2.559088 14.766089 
29 1 1.000000 0 0.000000 0.853029 2.559088 15.942971 
30 1 1.000000 0 0.000000 0.853029 2.559088 18.178207 
31 1 1.000000 0 0.000000 0.853029 2.559088 19.355089 
32 1 1.000000 0 0.000000 0.853029 2.559088 21.590325 
33 1 1.000000 0 0.000000 0.853029 2.559088 22.767207 
34 1 1.000000 0 0.000000 0.853029 2.559088 25.002443 
35 1 1.000000 0 0.000000 0.853029 2.559088 26.179325 
36 1 1.000000 0 0.000000 0.853029 2.559088 28.414561 
37 1 1.000000 0 0.000000 0.853029 2.559088 29.591443 
38 1 1.000000 0 0.000000 0.853029 2.559088 31.826679 
39 1 1.000000 0 0.000000 0.853029 4.265147 1.117618 
40 1 1.000000 0 0.000000 0.853029 4.265147 2.294500 
41 1 1.000000 0 0.000000 0.853029 4.265147 4.529736 
42 1 1.000000 0 0.000000 0.853029 4.265147 5.706618 
43 1 1.000000 0 0.000000 0.853029 4.265147 7.941854 
44 1 1.000000 0 0.000000 0.853029 4.265147 9.118735 
45 1 1.000000 0 0.000000 0.853029 4.265147 11.353971 
46 1 1.000000 0 0.000000 0.853029 4.265147 12.530853 
47 1 1.000000 0 0.000000 0.853029 4.265147 14.766089 
48 1 1.000000 0 0.000000 0.853029 4.265147 15.942971 
49 1 1.000000 0 0.000000 0.853029 4.265147 18.178207 
50 1 1.000000 0 0.000000 0.853029 4.265147 19.355089 
51 1 1.000000 0 0.000000 0.853029 4.265147 21.590325 
52 1 1.000000 0 0.000000 0.853029 4.265147 22.767207 
53 1 1.000000 0 0.000000 0.853029 4.265147 25.002443 
54 1 1.000000 0 0.000000 0.853029 4.265147 26.179325 
55 1 1.000000 0 0.000000 0.853029 4.265147 28.414561 
56 1 1.000000 0 0.000000 0.853029 4.265147 29.591443 
57 1 1.000000 0 0.000000 0.853029 4.265147 31.826679 
58 1 1.000000 0 0.000000 0.853029 5.971206 1.117618 
59 1 1.000000 0 0.000000 0.853029 5.971206 2.294500 
60 1 1.000000 0 0.000000 0.853029 5.971206 4.529736 
61 1 1.000000 0 0.000000 0.853029 5.971206 5.706618 
62 1 1.000000 0 0.000000 0.853029 5.971206 7.941854 
63 1 1.000000 0 0.000000 0.853029 5.971206 9.118735 
64 1 1.000000 0 0.000000 0.853029 5.971206 11.353971 
65 1 1.000000 0 0.000000 0.853029 5.971206 12.530853 
66 1 1.000000 0 0.000000 0.853029 5.971206 14.766089 
67 1 1.000000 0 0.000000 0.853029 5.971206 15.942971 
68 1 1.000000 0 0.000000 0.853029 5.971206 18.178207 
69 1 1.000000 0 0.000000 0.853029 5.971206 19.355089 
70 1 1.000000 0 0.000000 0.853029 5.971206 21.590325 
71 1 1.000000 0 0.000000 0.853029 5.971206 22.767207 
72 1 1.000000 0 0.000000 0.853029 5.971206 25.002443 
73 1 1.000000 0 0.000000 0.853029 5.971206 26.179325 
74 1 1.000000 0 0.000000 0.853029 5.971206 28.414561 
75 1 1.000000 0 0.000000 0.853029 5.971206 29.591443 
76 1 1.000000 0 0.000000 0.853029 5.971206 31.826679 
77 1 1.000000 0 0.000000 0.853029 7.677265 1.117618 
78 1 1.000000 0 0.000000 0.853029 7.677265 2.294500 
79 1 1.000000 0 0.000000 0.853029 7.677265 4.529736 
80 1 1.000000 0 0.000000 0.853029 7.677265 5.706618 
81 1 1.000000 0 0.000000 0.853029 7.677265 7.941854 
82 1 1.000000 0 0.000000 0.853029 7.677265 9.118735 
83 1 1.000000 0 0.000000 0.853029 7.677265 11.353971 
84 1 1.000000 0 0.000000 0.853029 7.677265 12.530853 
85 1 1.000000 0 0.000000 0.853029 7.677265 14.766089 
86 1 1.000000 0 0.000000 0.853029 7.677265 15.942971 
87 1 1.000000 0 0.000000 0.853029 7.677265 18.178207 
88 1 1.000000 0 0.000000 0.853029 7.677265 19.355089 
89 1 1.000000 0 0.000000 0.853029 7.677265 21.590325 
90 1 1.000000 0 0.000000 0.853029 7.677265 22.767207 
91 1 1.000000 0 0.000000 0.853029 7.677265 25.002443 
92 1 1.000000 0 0.000000 0.853029 7.677265 26.179325 
93 1 1.000000 0 0.000000 0.853029 7.677265 28.414561 
94 1 1.000000 0 0.000000 0.853029 7.677265 29.591443 
95 1 1.000000 0 0.000000 0.853029 7.677265 31.826679 
96 1 1.000000 0 0.000000 0.853029 9.383324 1.117618 
97 1 1.000000 0 0.000000 0.853029 9.383324 2.294500 
98 1 1.000000 0 0.000000 0.853029 9.383324 4.529736 
99 1 1.000000 0 0.000000 0.853029 9.383324 5.706618 
100 1 1.000000 0 0.000000 0.853029 9.383324 7.941854 
101 1 1.000000 0 0.000000 0.853029 9.383324 9.118735 
102 1 1.000000 0 0.000000 0.853029 9.383324 11.353971 
103 1 1.000000 0 0.000000 0.853029 9.383324 12.530853 
104 1 1.000000 0 0.000000 0.853029 9.383324 14.766089 
105 1 1.000000 0 0.000000 0.853029 9.383324 15.942971 
106 1 1.000000 0 0.000000 0.853029 9.383324 18.178207 
107 1 1.000000 0 0.000000 0.853029 9.383324 19.355089 
108 1 1.000000 0 0.000000 0.853029 9.383324 21.590325 
109 1 1.000000 0 0.000000 0.853029 9.383324 22.767207 
110 1 1.000000 0 0.000000 0.853029 9.383324 25.002443 
111 1 1.000000 0 0.000000 0.853029 9.383324 26.179325 
112 1 1.000000 0 0.000000 0.853029 9.383324 28.414561 
113 1 1.000000 0 0.000000 0.853029 9.383324 29.591443 
114 1 1.000000 0 0.000000 0.853029 9.383324 31.826679 
115 1 1.000000 0 0.000000 0.853029 11.089383 1.117618 
116 1 1.000000 0 0.000000 0.853029 11.089383 2.294500 
117 1 1.000000 0 0.000000 0.853029 11.089383 4.529736 
118 1 1.000000 0 0.000000 0.853029 11.089383 5.706618 
119 1 1.000000 0 0.000000 0.853029 11.089383 7.941854 
120 1 1.000000 0 0.000000 0.853029 11.089383 9.118735 
121 1 1.000000 0 0.000000 0.853029 11.089383 11.353971 
122 1 1.000000 0 0.000000 0.853029 11.089383 12.530853 
123 1 1.000000 0 0.000000 0.853029 11.089383 14.766089 
124 1 1.000000 0 0.000000 0.853029 11.089383 15.942971 
125 1 1.000000 0 0.000000 0.853029 11.089383 18.178207 
126 1 1.000000 0 0.000000 0.853029 11.089383 19.355089 
127 1 1.000000 0 0.000000 0.853029 11.089383 21.590325 
128 1 1.000000 0 0.000000 0.853029 11.089383 22.767207 
129 1 1.000000 0 0.000000 0.853029 11.089383 25.002443 
130 1 1.000000 0 0.000000 0.853029 11.089383 26.179325 
131 1 1.000000 0 0.000000 0.853029 11.089383 28.414561 
132 1 1.000000 0 0.000000 0.853029 11.089383 29.591443 
133 1 1.000000 0 0.000000 0.853029 11.089383 31.826679 
134 1 1.000000 0 0.000000 0.853029 12.795442 1.117618 
135 1 1.000000 0 0.000000 0.853029 12.795442 2.294500 
136 1 1.000000 0 0.000000 0.853029 12.795442 4.529736 
137 1 1.000000 0 0.000000 0.853029 12.795442 5.706618 
138 1 1.000000 0 0.000000 0.853029 12.795442 7.941854 
139 1 1.000000 0 0.000000 0.853029 12.795442 9.118735 
140 1 1.000000 0 0.000000 0.853029 12.795442 11.353971 
141 1 1.000000 0 0.000000 0.853029 12.795442 12.530853 
142 1 1.000000 0 0.000000 0.853029 12.795442 14.766089 
143 1 1.000000 0 0.000000 0.853029 12.795442 15.942971 
144 1 1.000000 0 0.000000 0.853029 12.795442 18.178207 
145 1 1.000000 0 0.000000 0.853029 12.795442 19.355089 
146 1 1.000000 0 0.000000 0.853029 12.795442 21.590325 
147 1 1.000000 0 0.000000 0.853029 12.795442 22.767207 
148 1 1.000000 0 0.000000 0.853029 12.795442 25.002443 
149 1 1.000000 0 0.000000 0.853029 12.795442 26.179325 
150 1 1.000000 0 0.000000 0.853029 12.795442 28.414561 
151 1 1.000000 0 0.000000 0.853029 12.795442 29.591443 
152 1 1.000000 0 0.000000 0.853029 12.795442 31.826679 
153 1 1.000000 0 0.000000 0.853029 14.501501 1.117618 
154 1 1.000000 0 0.000000 0.853029 14.501501 2.294500 
155 1 1.000000 0 0.000000 0.853029 14.501501 4.529736 
156 1 1.000000 0 0.000000 0.853029 14.501501 5.706618 
157 1 1.000000 0 0.000000 0.853029 14.501501 7.941854 
158 1 1.000000 0 0.000000 0.853029 14.501501 9.118735 
159 1 1.000000 0 0.000000 0.853029 14.501501 11.353971 
160 1 1.000000 0 0.000000 0.853029 14.501501 12.530853 
161 1 1.000000 0 0.000000 0.853029 14.501501 14.766089 
162 1 1.000000 0 0.000000 0.853029 14.501501 15.942971 
163 1 1.000000 0 0.000000 0.853029 14.501501 18.178207 
164 1 1.000000 0 0.000000 0.853029 14.501501 19.355089 
165 1 1.000000 0 0.000000 0.853029 14.501501 21.590325 
166 1 1.000000 0 0.000000 0.853029 14.501501 22.767207 
167 1 1.000000 0 0.000000 0.853029 14.501501 25.002443 
168 1 1.000000 0 0.000000 0.853029 14.501501 26.179325 
169 1 1.000000 0 0.000000 0.853029 14.501501 28.414561 
170 1 1.000000 0 0.000000 0.853029 14.501501 29.591443 
171 1 1.000000 0 0.000000 0.853029 14.501501 31.826679 
172 1 1.000000 0 0.000000 0.853029 16.207560 1.117618 
173 1 1.000000 0 0.000000 0.853029 16.207560 2.294500 
174 1 1.000000 0 0.000000 0.853029 16.207560 4.529736 
175 1 1.000000 0 0.000000 0.853029 16.207560 5.706618 
176 1 1.000000 0 0.000000 0.853029 16.207560 7.941854 
177 1 1.000000 0 0.000000 0.853029 16.207560 9.118735 
178 1 1.000000 0 0.000000 0.853029 16.207560 11.353971 
179 1 1.000000 0 0.000000 0.853029 16.207560 12.530853 
180 1 1.000000 0 0.000000 0.853029 16.207560 14.766089 
181 1 1.000000 0 0.000000 0.853029 16.207560 15.942971 
182 1 1.000000 0 0.000000 0.853029 16.207560 18.178207 
183 1 1.000000 0 0.000000 0.853029 16.207560 19.355089 
184 1 1.000000 0 0.000000 0.853029 16.207560 21.590325 
185 1 1.000000 0 0.000000 0.853029 16.207560 22.767207 
186 1 1.000000 0 0.000000 0.853029 16.207560 25.002443 
187 1 1.000000 0 0.000000 0.853029 16.207560 26.179325 
188 1 1.000000 0 0.000000 0.853029 16.207560 28.414561 
189 1 1.000000 0 0.000000 0.853029 16.207560 29.591443 
190 1 1.000000 0 0.000000 0.853029 16.207560 31.826679 
191 1 1.000000 0 0.000000 0.853029 17.913619 1.117618 
192 1 1.000000 0 0.000000 0.853029 17.913619 2.294500 
193 1 1.000000 0 0.000000 0.853029 17.913619 4.529736 
194 1 1.000000 0 0.000000 0.853029 17.913619 5.706618 
195 1 1.000000 0 0.000000 0.853029 17.913619 7.941854 
196 1 1.000000 0 0.000000 0.853029 17.913619 9.118735 
197 1 1.000000 0 0.000000 0.853029 17.913619 11.353971 
198 1 1.000000 0 0.000000 0.853029 17.913619 12.530853 
199 1 1.000000 0 0.000000 0.853029 17.913619 14.766089 
200 1 1.000000 0 0.000000 0.853029 17.913619 15.942971 
201 1 1.000000 0 0.000000 0.853029 17.913619 18.178207 
202 1 1.000000 0 0.000000 0.853029 17.913619 19.355089 
203 1 1.000000 0 0.000000 0.853029 17.913619 21.590325 
204 1 1.000000 0 0.000000 0.853029 17.913619 22.767207 
205 1 1.000000 0 0.000000 0.853029 17.913619 25.002443 
206 1 1.000000 0 0.000000 0.853029 17.913619 26.179325 
207 1 1.000000 0 0.000000 0.853029 17.913619 28.414561 
208 1 1.000000 0 0.000000 0.853029 17.913619 29.591443 
209 1 1.000000 0 0.000000 0.853029 17.913619 31.826679 
210 1 1.000000 0 0.000000 0.853029 19.619678 1.117618 
211 1 1.000000 0 0.000000 0.853029 19.619678 2.294500 
212 1 1.000000 0 0.000000 0.853029 19.619678 4.529736 
213 1 1.000000 0 0.000000 0.853029 19.619678 5.706618 
214 1 1.000000 0 0.000000 0.853029 19.619678 7.941854 
215 1 1.000000 0 0.000000 0.853029 19.619678 9.118735 
216 1 1.000000 0 0.000000 0.853029 19.619678 11.353971 
217 1 1.000000 0 0.000000 0.853029 19.619678 12.530853 
218 1 1.000000 0 0.000000 0.853029 19.619678 14.766089 
219 1 1.000000 0 0.000000 0.853029 19.619678 15.942971 
220 1 1.000000 0 0.000000 0.853029 19.619678 18.178207 
221 1 1.000000 0 0.000000 0.853029 19.619678 19.355089 
222 1 1.000000 0 0.000000 0.853029 19.619678 21.590325 
223 1 1.000000 0 0.000000 0.853029 19.619678 22.767207 
224 1 1.000000 0 0.000000 0.853029 19.619678 25.002443 
225 1 1.000000 0 0.000000 0.853029 19.619678 26.179325 
226 1 1.000000 0 0.000000 0.853029 19.619678 28.414561 
227 1 1.000000 0 0.000000 0.853029 19.619678 29.591443 
228 1 1.000000 0 0.000000 0.853029 19.619678 31.826679 
229 1 1.000000 0 0.000000 0.853029 21.325737 1.117618 
230 1 1.000000 0 0.000000 0.853029 21.325737 2.294500 
231 1 1.000000 0 0.000000 0.853029 21.325737 4.529736 
232 1 1.000000 0 0.000000 0.853029 21.325737 5.706618 
233 1 1.000000 0 0.000000 0.853029 21.325737 7.941854 
234 1 1.000000 0 0.000000 0.853029 21.325737 9.118735 
235 1 1.000000 0 0.000000 0.853029 21.325737 11.353971 
236 1 1.000000 0 0.000000 0.853029 21.325737 12.530853 
237 1 1.000000 0 0.000000 0.853029 21.325737 14.766089 
238 1 1.000000 0 0.000000 0.853029 21.325737 15.942971 
239 1 1.000000 0 0.000000 0.853029 21.325737 18.178207 
240 1 1.000000 0 0.000000 0.853029 21.325737 19.355089 
241 1 1.000000 0 0.000000 0.853029 21.325737 21.590325 
242 1 1.000000 0 0.000000 0.853029 21.325737 22.767207 
243 1 1.000000 0 0.000000 0.853029 21.325737 25.002443 
244 1 1.000000 0 0.000000 0.853029 21.325737 26.179325 
245 1 1.000000 0 0.000000 0.853029 21.325737 28.414561 
246 1 1.000000 0 0.000000 0.853029 21.325737 29.591443 
247 1 1.000000 0 0.000000 0.853029 21.325737 31.826679 
248 1 1.000000 0 0.000000 0.853029 23.031796 1.117618 
249 1 1.000000 0 0.000000 0.853029 23.031796 2.294500 
250 1 1.000000 0 0.000000 0.853029 23.031796 4.529736 
251 1 1.000000 0 0.000000 0.853029 23.031796 5.706618 
252 1 1.000000 0 0.000000 0.853029 23.031796 7.941854 
253 1 1.000000 0 0.000000 0.853029 23.031796 9.118735 
254 1 1.000000 0 0.000000 0.853029 23.031796 11.353971 
255 1 1.000000 0 0.000000 0.853029 23.031796 12.530853 
256 1 1.000000 0 0.000000 0.853029 23.031796 14.766089 
257 1 1.000000 0 0.000000 0.853029 23.031796 15.942971 
258 1 1.000000 0 0.000000 0.853029 23.031796 18.178207 
259 1 1.000000 0 0.000000 0.853029 23.031796 19.355089 
260 1 1.000000 0 0.000000 0.853029 23.031796 21.590325 
261 1 1.000000 0 0.000000 0.853029 23.031796 22.767207 
262 1 1.000000 0 0.000000 0.853029 23.031796 25.002443 
263 1 1.000000 0 0.000000 0.853029 23.031796 26.179325 
264 1 1.000000 0 0.000000 0.853029 23.031796 28.414561 
265 1 1.000000 0 0.000000 0.853029 23.031796 29.591443 
266 1 1.000000 0 0.000000 0.853029 23.031796 31.826679 
267 1 1.000000 0 0.000000 0.853029 24.737855 1.117618 
268 1 1.000000 0 0.000000 0.853029 24.737855 2.294500 
269 1 1.000000 0 0.000000 0.853029 24.737855 4.529736 
270 1 1.000000 0 0.000000 0.853029 24.737855 5.706618 
271 1 1.000000 0 0.000000 0.853029 24.737855 7.941854 
272 1 1.000000 0 0.000000 0.853029 24.737855 9.118735 
273 1 1.000000 0 0.000000 0.853029 24.737855 11.353971 
274 1 1.000000 0 0.000000 0.853029 24.737855 12.530853 
275 1 1.000000 0 0.000000 0.853029 24.737855 14.766089 
276 1 1.000000 0 0.000000 0.853029 24.737855 15.942971 
277 1 1.000000 0 0.000000 0.853029 24.737855 18.178207 
278 1 1.000000 0 0.000000 0.853029 24.737855 19.355089 
279 1 1.000000 0 0.000000 0.853029 24.737855 21.590325 
280 1 1.000000 0 0.000000 0.853029 24.737855 22.767207 
281 1 1.000000 0 0.000000 0.853029 24.737855 25.002443 
282 1 1.000000 0 0.000000 0.853029 24.737855 26.179325 
283 1 1.000000 0 0.000000 0.853029 24.737855 28.414561 
284 1 1.000000 0 0.000000 0.853029 24.737855 29.591443 
285 1 1.000000 0 0.000000 0.853029 24.737855 31.826679 
286 1 1.000000 0 0.000000 0.853029 26.443914 1.117618 
287 1 1.000000 0 0.000000 0.853029 26.443914 2.294500 
288 1 1.000000 0 0.000000 0.853029 26.443914 4.529736 
289 1 1.000000 0 0.000000 0.853029 26.443914 5.706618 
290 1 1.000000 0 0.000000 0.853029 26.443914 7.941854 
291 1 1.000000 0 0.000000 0.853029 26.443914 9.118735 
292 1 1.000000 0 0.000000 0.853029 26.443914 11.353971 
293 1 1.000000 0 0.000000 0.853029 26.443914 12.530853 
294 1 1.000000 0 0.000000 0.853029 26.443914 14.766089 
295 1 1.000000 0 0.000000 0.853029 26.443914 15.942971 
296 1 1.000000 0 0.000000 0.853029 26.443914 18.178207 
297 1 1.000000 0 0.000000 0.853029 26.443914 19.355089 
298 1 1.000000 0 0.000000 0.853029 26.443914 21.590325 
299 1 1.000000 0 0.000000 0.853029 26.443914 22.767207 
300 1 1.000000 0 0.000000 0.853029 26.443914 25.002443 
301 1 1.000000 0 0.000000 0.853029 26.443914 26.179325 
302 1 1.000000 0 0.000000 0.853029 26.443914 28.414561 
303 1 1.000000 0 0.000000 0.853029 26.443914 29.591443 
304 1 1.000000 0 0.000000 0.853029 26.443914 31.826679 
305 1 1.000000 0 0.000000 0.853029 28.149972 1.117618 
306 1 1.000000 0 0.000000 0.853029 28.149972 2.294500 
307 1 1.000000 0 0.000000 0.853029 28.149972 4.529736 
308 1 1.000000 0 0.000000 0.853029 28.149972 5.706618 
309 1 1.000000 0 0.000000 0.853029 28.149972 7.941854 
310 1 1.000000 0 0.000000 0.853029 28.149972 9.118735 
311 1 1.000000 0 0.000000 0.853029 28.149972 11.353971 
312 1 1.000000 0 0.000000 0.853029 28.149972 12.530853 
313 1 1.000000 0 0.000000 0.853029 28.149972 14.766089 
314 1 1.000000 0 0.000000 0.853029 28.149972 15.942971 
315 1 1.000000 0 0.000000 0.853029 28.149972 18.178207 
316 1 1.000000 0 0.000000 0.853029 28.149972 19.355089 
317 1 1.000000 0 0.000000 0.853029 28.149972 21.590325 
318 1 1.000000 0 0.000000 0.853029 28.149972 22.767207 
319 1 1.000000 0 0.000000 0.853029 28.149972 25.002443 
320 1 1.000000 0 0.000000 0.853029 28.149972 26.179325 
321 1 1.000000 0 0.000000 0.853029 28.149972 28.414561 
322 1 1.000000 0 0.000000 0.853029 28.149972 29.591443 
323 1 1.000000 0 0.000000 0.853029 28.149972 31.826679 
324 1 1.000000 0 0.000000 0.853029 29.856031 1.117618 
325 1 1.000000 0 0.000000 0.853029 29.856031 2.294500 
326 1 1.000000 0 0.000000 0.853029 29.856031 4.529736 
327 1 1.000000 0 0.000000 0.853029 29.856031 5.706618 
328 1 1.000000 0 0.000000 0.853029 29.856031 7.941854 
329 1 1.000000 0 0.000000 0.853029 29.856031 9.118735 
330 1 1.000000 0 0.000000 0.853029 29.856031 11.353971 
331 1 1.000000 0 0.000000 0.853029 29.856031 12.530853 
332 1 1.000000 0 0.000000 0.853029 29.856031 14.766089 
333 1 1.000000 0 0.000000 0.853029 29.856031 15.942971 
334 1 1.000000 0 0.000000 0.853029 29.856031 18.178207 
335 1 1.000000 0 0.000000 0.853029 29.856031 19.355089 
336 1 1.000000 0 0.000000 0.853029 29.856031 21.590325 
337 1 1.000000 0 0.000000 0.853029 29.856031 22.767207 
338 1 1.000000 0 0.000000 0.853029 29.856031 25.002443 
339 1 1.000000 0 0.000000 0.853029 29.856031 26.179325 
340 1 1.000000 0 0.000000 0.853029 29.856031 28.414561 
341 1 1.000000 0 0.000000 0.853029 29.856031 29.591443 
342 1 1.000000 0 0.000000 0.853029 29.856031 31.826679 
343 1 1.000000 0 0.000000 0.853029 31.562090 1.117618 
344 1 1.000000 0 0.000000 0.853029 31.562090 2.294500 
345 1 1.000000 0 0.000000 0.853029 31.562090 4.529736 
346 1 1.000000 0 0.000000 0.853029 31.562090 5.706618 
347 1 1.000000 0 0.000000 0.853029 31.562090 7.941854 
348 1 1.000000 0 0.000000 0.853029 31.562090 9.118735 
349 1 1.000000 0 0.000000 0.853029 31.562090 11.353971 
350 1 1.000000 0 0.000000 0.853029 31.562090 12.530853 
351 1 1.000000 0 0.000000 0.853029 31.562090 14.766089 
352 1 1.000000 0 0.000000 0.853029 31.562090 15.942971 
353 1 1.000000 0 0.000000 0.853029 31.562090 18.178207 
354 1 1.000000 0 0.000000 0.853029 31.562090 19.355089 
355 1 1.000000 0 0.000000 0.853029 31.562090 21.590325 
356 1 1.000000 0 0.000000 0.853029 31.562090 22.767207 
357 1 1.000000 0 0.000000 0.853029 31.562090 25.002443 
358 1 1.000000 0 0.000000 0.853029 31.562090 26.179325 
359 1 1.000000 0 0.000000 0.853029 31.562090 28.414561 
360 1 1.000000 0 0.000000 0.853029 31.562090 29.591443 
361 1 1.000000 0 0.000000 0.853029 31.562090 31.826679 
362 1 1.000000 0 0.000000 2.559088 0.853029 1.117618 
363 1 1.000000 0 0.000000 2.559088 0.853029 2.294500 
364 1 1.000000 0 0.000000 2.559088 0.853029 4.529736 
365 1 1.000000 0 0.000000 2.559088 0.853029 5.706618 
366 1 1.000000 0 0.000000 2.559088 0.853029 7.941854 
367 1 1.000000 0 0.000000 2.559088 0.853029 9.118735 
368 1 1.000000 0 0.000000 2.559088 0.853029 11.353971 
369 1 1.000000 0 0.000000 2.559088 0.853029 12.530853 
370 1 1.000000 0 0.000000 2.559088 0.853029 14.766089 
371 1 1.000000 0 0.000000 2.559088 0.853029 15.942971 
372 1 1.000000 0 0.000000 2.559088 0.853029 18.178207 
373 1 1.000000 0 0.000000 2.559088 0.853029 19.355089 
374 1 1.000000 0 0.000000 2.559088 0.853029 21.590325 
375 1 1.000000 0 0.000000 2.559088 0.853029 22.767207 
376 1 1.000000 0 0.000000 2.559088 0.853029 25.002443 
377 1 1.000000 0 0.000000 2.559088 0.853029 26.179325 
378 1 1.000000 0 0.000000 2.559088 0.853029 28.414561 
379 1 1.000000 0 0.000000 2.559088 0.853029 29.591443 
380 1 1.000000 0 0.000000 2.559088 0.853029 31.826679 
381 1 1.000000 0 0.000000 2.559088 2.559088 1.117618 
382 1 1.000000 0 0.000000 2.559088 2.559088 2.294500 
383 1 1.000000 0 0.000000 2.559088 2.559088 4.529736 
384 1 1.000000 0 0.000000 2.559088 2.559088 5.706618 
385 1 1.000000 0 0.000000 2.559088 2.559088 7.941854 
386 1 1.000000 0 0.000000 2.559088 2.559088 9.118735 
387 1 1.000000 0 0.000000 2.559088 2.559088 11.353971 
388 1 1.000000 0 0.000000 2.559088 2.559088 12.530853 
389 1 1.000000 0 0.000000 2.559088 2.559088 14.766089 
390 1 1.000000 0 0.000000 2.559088 2.559088 15.942971 
391 1 1.000000 0 0.000000 2.559088 2.559088 18.178207 
392 1 1.000000 0 0.000000 2.559088 2.559088 19.355089 
393 1 1.000000 0 0.000000 2.559088 2.559088 21.590325 
394 1 1.000000 0 0.000000 2.559088 2.559088 22.767207 
395 1 1.000000 0 0.000000 2.559088 2.559088 25.002443 
396 1 1.000000 0 0.000000 2.559088 2.559088 26.179325 
397 1 1.000000 0 0.000000 2.559088 2.559088 28.414561 
398 1 1.000000 0 0.000000 2.559088 2.559088 29.591443 
399 1 1.000000 0 0.000000 2.559088 2.559088 31.826679 
400 1 1.000000 0 0.000000 2.559088 4.265147 1.117618 
401 1 1.000000 0 0.000000 2.559088 4.265147 2.294500 
402 1 1.000000 0 0.000000 2.559088 4.265147 4.529736 
403 1 1.000000 0 0.000000 2.559088 4.265147 5.706618 
404 1 1.000000 0 0.000000 2.559088 4.265147 7.941854 
405 1 1.000000 0 0.000000 2.559088 4.265147 9.118735 
406 1 1.000000 0 0.000000 2.559088 4.265147 11.353971 
407 1 1.000000 0 0.000000 2.559088 4.265147 12.530853 
408 1 1.000000 0 0.000000 2.559088 4.265147 14.766089 
409 1 1.000000 0 0.000000 2.559088 4.265147 15.942971 
410 1 1.000000 0 0.000000 2.559088 4.265147 18.178207 
411 1 1.000000 0 0.000000 2.559088 4.265147 19.355089 
412 1 1.000000 0 0.000000 2.559088 4.265147 21.590325 
413 1 1.000000 0 0.000000 2.559088 4.265147 22.767207 
414 1 1.000000 0 0.000000 2.559088 4.265147 25.002443 
415 1 1.000000 0 0.000000 2.559088 4.265147 26.179325 
416 1 1.000000 0 0.000000 2.559088 4.265147 28.414561 
417 1 1.000000 0 0.000000 2.559088 4.265147 29.591443 
418 1 1.000000 0 0.000000 2.559088 4.265147 31.826679 
419 1 1.000000 0 0.000000 2.559088 5.971206 1.117618 
420 1 1.000000 0 0.000000 2.559088 5.971206 2.294500 
421 1 1.000000 0 0.000000 2.559088 5.971206 4.529736 
422 1 1.000000 0 0.000000 2.559088 5.971206 5.706618 
423 1 1.000000 0 0.000000 2.559088 5.971206 7.941854 
424 1 1.000000 0 0.000000 2.559088 5.971206 9.118735 
425 1 1.000000 0 0.000000 2.559088 5.971206 11.353971 
426 1 1.000000 0 0.000000 2.559088 5.971206 12.530853 
427 1 1.000000 0 0.000000 2.559088 5.971206 14.766089 
428 1 1.000000 0 0.000000 2.559088 5.971206 15.942971 
429 1 1.000000 0 0.000000 2.559088 5.971206 18.178207 
430 1 1.000000 0 0.000000 2.559088 5.971206 19.355089 
431 1 1.000000 0 0.000000 2.559088 5.971206 21.590325 
432 1 1.000000 0 0.000000 2.559088 5.971206 22.767207 
433 1 1.000000 0 0.000000 2.559088 5.971206 25.002443 
434 1 1.000000 0 0.000000 2.559088 5.971206 26.179325 
435 1 1.000000 0 0.000000 2.559088 5.971206 28.414561 
436 1 1.000000 0 0.000000 2.559088 5.971206 29.591443 
437 1 1.000000 0 0.000000 2.559088 5.971206 31.826679 
438 1 1.000000 0 0.000000 2.559088 7.677265 1.117618 
439 1 1.000000 0 0.000000 2.559088 7.677265 2.294500 
440 1 1.000000 0 0.000000 2.559088 7.677265 4.529736 
441 1 1.000000 0 0.000000 2.559088 7.677265 5.706618 
442 1 1.000000 0 0.000000 2.559088 7.677265 7.941854 
443 1 1.000000 0 0.000000 2.559088 7.677265 9.118735 
444 1 1.000000 0 0.000000 2.559088 7.677265 11.353971 
445 1 1.000000 0 0.000000 2.559088 7.677265 12.530853 
446 1 1.000000 0 0.000000 2.559088 7.677265 14.766089 
447 1 1.000000 0 0.000000 2.559088 7.677265 15.942971 
448 1 1.000000 0 0.000000 2.559088 7.677265 18.178207 
449 1 1.000000 0 0.000000 2.559088 7.677265 19.355089 
450 1 1.000000 0 0.000000 2.559088 7.677265 21.590325 
451 1 1.000000 0 0.000000 2.559088 7.677265 22.767207 
452 1 1.000000 0 0.000000 2.559088 7.677265 25.002443 
453 1 1.000000 0 0.000000 2.559088 7.677265 26.179325 
454 1 1.000000 0 0.000000 2.559088 7.677265 28.414561 
455 1 1.000000 0 0.000000 2.559088 7.677265 29.591443 
456 1 1.000000 0 0.000000 2.559088 7.677265 31.826679 
457 1 1.000000 0 0.000000 2.559088 9.383324 1.117618 
458 1 1.000000 0 0.000000 2.559088 9.383324 2.294500 
459 1 1.000000 0 0.000000 2.559088 9.383324 4.529736 
460 1 1.000000 0 0.000000 2.559088 9.383324 5.706618 
461 1 1.000000 0 0.000000 2.559088 9.383324 7.941854 
462 1 1.000000 0 0.000000 2.559088 9.383324 9.118735 
463 1 1.000000 0 0.000000 2.559088 9.383324 11.353971 
464 1 1.000000 0 0.000000 2.559088 9.383324 12.530853 
465 1 1.000000 0 0.000000 2.559088 9.383324 14.766089 
466 1 1.000000 0 0.000000 2.559088 9.383324 15.942971 
467 1 1.000000 0 0.000000 2.559088 9.383324 18.178207 
468 1 1.000000 0 0.000000 2.559088 9.383324 19.355089 
469 1 1.000000 0 0.000000 2.559088 9.383324 21.590325 
470 1 1.000000 0 0.000000 2.559088 9.383324 22.767207 
471 1 1.000000 0 0.000000 2.559088 9.383324 25.002443 
472 1 1.000000 0 0.000000 2.559088 9.383324 26.179325 
473 1 1.000000 0 0.000000 2.559088 9.383324 28.414561 
474 1 1.000000 0 0.000000 2.559088 9.383324 29.591443 
475 1 1.000000 0 0.000000 2.559088 9.383324 31.826679 
476 1 1.000000 0 0.000000 2.559088 11.089383 1.117618 
477 1 1.000000 0 0.000000 2.559088 11.089383 2.294500 
478 1 1.000000 0 0.000000 2.559088 11.089383 4.529736 
479 1 1.000000 0 0.000000 2.559088 11.089383 5.706618 
480 1 1.000000 0 0.000000 2.559088 11.089383 7.941854 
481 1 1.000000 0 0.000000 2.559088 11.089383 9.118735 
482 1 1.000000 0 0.000000 2.559088 11.089383 11.353971 
483 1 1.000000 0 0.000000 2.559088 11.089383 12.530853 
484 1 1.000000 0 0.000000 2.559088 11.089383 14.766089 
485 1 1.000000 0 0.000000 2.559088 11.089383 15.942971 
486 1 1.000000 0 0.000000 2.559088 11.089383 18.178207 
487 1 1.000000 0 0.000000 2.559088 11.089383 19.355089 
488 1 1.000000 0 0.000000 2.559088 11.089383 21.590325 
489 1 1.000000 0 0.000000 2.559088 11.089383 22.767207 
490 1 1.000000 0 0.000000 2.559088 11.089383 25.002443 
491 1 1.000000 0 0.000000 2.559088 11.089383 26.179325 
492 1 1.000000 0 0.000000 2.559088 11.089383 28.414561 
493 1 1.000000 0 0.000000 2.559088 11.089383 29.591443 
494 1 1.000000 0 0.000000 2.559088 11.089383 31.826679 
495 1 1.000000 0 0.000000 2.559088 12.795442 1.117618 
496 1 1.000000 0 0.000000 2.559088 12.795442 2.294500 
497 1 1.000000 0 0.000000 2.559088 12.795442 4.529736 
498 1 1.000000 0 0.000000 2.559088 12.795442 5.706618 
499 1 1.000000 0 0.000000 2.559088 12.795442 7.941854 
500 1 1.000000 0 0.000000 2.559088 12.795442 9.118735 
501 1 1.000000 0 0.000000 2.559088 12.795442 11.353971 
502 1 1.000000 0 0.000000 2.559088 12.795442 12.530853 
503 1 1.000000 0 0.000000 2.559088 12.795442 14.766089 
504 1 1.000000 0 0.000000 2.559088 12.795442 15.942971 
505 1 1.000000 0 0.000000 2.559088 12.795442 18.178207 
506 1 1.000000 0 0.000000 2.559088 12.795442 19.355089 
507 1 1.000000 0 0.000000 2.559088 12.795442 21.590325 
508 1 1.000000 0 0.000000 2.559088 12.795442 22.767207 
509 1 1.000000 0 0.000000 2.559088 12.795442 25.002443 
510 1 1.000000 0 0.000000 2.559088 12.795442 26.179325 
511 1 1.000000 0 0.000000 2.559088 12.795442 28.414561 
512 1 1.000000 0 0.000000 2.559088 12.795442 29.591443 
513 1 1.000000 0 0.000000 2.559088 12.795442 31.826679 
514 1 1.000000 0 0.000000 2.559088 14.501501 1.117618 
515 1 1.000000 0 0.000000 2.559088 14.501501 2.294500 
516 1 1.000000 0 0.000000 2.559088 14.501501 4.529736 
517 1 1.000000 0 0.000000 2.559088 14.501501 5.706618 
518 1 1.000000 0 0.000000 2.559088 14.501501 7.941854 
519 1 1.000000 0 0.000000 2.559088 14.501501 9.118735 
520 1 1.000000 0 0.000000 2.559088 14.501501 11.353971 
521 1 1.000000 0 0.000000 2.559088 14.501501 12.530853 
522 1 1.000000 0 0.000000 2.559088 14.501501 14.766089 
523 1 1.000000 0 0.000000 2.559088 14.501501 15.942971 
524 1 1.000000 0 0.000000 2.559088 14.501501 18.178207 
525 1 1.000000 0 0.000000 2.559088 14.501501 19.355089 
526 1 1.000000 0 0.000000 2.559088 14.501501 21.590325 
527 1 1.000000 0 0.000000 2.559088 14.501501 22.767207 
528 1 1.000000 0 0.000000 2.559088 14.501501 25.002443 
529 1 1.000000 0 0.000000 2.559088 14.501501 26.179325 
530 1 1.000000 0 0.000000 2.559088 14.501501 28.414561 
531 1 1.000000 0 0.000000 2.559088 14.501501 29.591443 
532 1 1.000000 0 0.000000 2.559088 14.501501 31.826679 
533 1 1.000000 0 0.000000 2.559088 16.207560 1.117618 
534 1 1.000000 0 0.000000 2.559088 16.207560 2.294500 
535 1 1.000000 0 0.000000 2.559088 16.207560 4.529736 
536 1 1.000000 0 0.000000 2.559088 16.207560 5.706618 
537 1 1.000000 0 0.000000 2.559088 16.207560 7.941854 
538 1 1.000000 0 0.000000 2.559088 16.207560 9.118735 
539 1 1.000000 0 0.000000 2.559088 16.207560 11.353971 
540 1 1.000000 0 0.000000 2.559088 16.207560 12.530853 
541 1 1.000000 0 0.000000 2.559088 16.207560 14.766089 