LAMMPS data file from restart file: timestep = 2300000, procs = 1

10950 atoms

3 atom types

3.3020149922683089e+01 8.6979850077318886e+01 xlo xhi
3.3020149922683089e+01 8.6979850077318886e+01 ylo yhi
3.3020149922683089e+01 8.6979850077318886e+01 zlo zhi

Masses

1 6.94
2 30
3 16

Atoms

5463 3 -7.4000000953674316e-01 7.0676406860351562e+01 3.7625564575195312e+01 5.0404411315917969e+01 -1 1 0
402 2 1.8500000238418579e+00 6.8157226562500000e+01 4.6085372924804688e+01 8.4884017944335938e+01 -1 0 -1
8911 3 -7.4000000953674316e-01 5.2260524749755859e+01 8.6196044921875000e+01 4.5918945312500000e+01 0 -1 1
2354 2 1.8500000238418579e+00 4.2486614227294922e+01 4.1867443084716797e+01 4.1373374938964844e+01 0 0 1
9464 3 -7.4000000953674316e-01 8.2748733520507812e+01 4.5790035247802734e+01 5.1023464202880859e+01 -1 0 1
2171 2 1.8500000238418579e+00 8.3124130249023438e+01 7.8775550842285156e+01 4.2085876464843750e+01 -1 -1 1
9378 3 -7.4000000953674316e-01 3.4525768280029297e+01 8.5904006958007812e+01 4.2582099914550781e+01 0 -1 1
3610 3 -7.4000000953674316e-01 5.1174293518066406e+01 4.6978977203369141e+01 8.3476417541503906e+01 0 0 -1
6468 3 -7.4000000953674316e-01 5.7061195373535156e+01 4.6211250305175781e+01 8.2488533020019531e+01 0 0 -1
85 1 3.7000000476837158e-01 5.2763397216796875e+01 6.5038055419921875e+01 5.3075317382812500e+01 1 -1 -1
5303 3 -7.4000000953674316e-01 5.1252948760986328e+01 3.3987667083740234e+01 3.6899776458740234e+01 0 0 0
2312 2 1.8500000238418579e+00 4.0049030303955078e+01 8.0681945800781250e+01 7.6533416748046875e+01 0 -1 0
5617 3 -7.4000000953674316e-01 5.5550880432128906e+01 3.8740242004394531e+01 4.2217643737792969e+01 0 0 0
10463 3 -7.4000000953674316e-01 4.3726249694824219e+01 3.9108455657958984e+01 8.2423873901367188e+01 0 0 0
3648 3 -7.4000000953674316e-01 4.7705844879150391e+01 4.7501720428466797e+01 4.3614498138427734e+01 0 0 0
3571 3 -7.4000000953674316e-01 3.3077461242675781e+01 4.7157432556152344e+01 3.5177570343017578e+01 0 0 0
4413 3 -7.4000000953674316e-01 5.8554069519042969e+01 8.6314773559570312e+01 8.3069923400878906e+01 0 -1 -1
4826 3 -7.4000000953674316e-01 4.6327091217041016e+01 3.6308002471923828e+01 3.5881088256835938e+01 0 0 0
4782 3 -7.4000000953674316e-01 3.5574321746826172e+01 8.5029525756835938e+01 8.3213058471679688e+01 0 -1 -1
5251 3 -7.4000000953674316e-01 5.5072334289550781e+01 4.6350387573242188e+01 3.7371910095214844e+01 0 0 0
1324 2 1.8500000238418579e+00 5.4430198669433594e+01 3.4797378540039062e+01 8.2316390991210938e+01 0 0 -1
4399 3 -7.4000000953674316e-01 7.1526687622070312e+01 3.5970573425292969e+01 3.9819705963134766e+01 0 0 0
8908 3 -7.4000000953674316e-01 3.8285278320312500e+01 3.4389781951904297e+01 8.1078247070312500e+01 0 0 0
5350 3 -7.4000000953674316e-01 4.9121482849121094e+01 7.5971771240234375e+01 7.1196746826171875e+01 0 0 -1
4161 3 -7.4000000953674316e-01 4.9853645324707031e+01 8.1712738037109375e+01 8.3921028137207031e+01 0 -1 -1
5492 3 -7.4000000953674316e-01 5.1287258148193359e+01 3.8848354339599609e+01 8.4772682189941406e+01 0 0 -1
9413 3 -7.4000000953674316e-01 3.9380481719970703e+01 3.8990364074707031e+01 8.2291503906250000e+01 0 0 0
4189 3 -7.4000000953674316e-01 6.3413795471191406e+01 8.1712753295898438e+01 8.0954917907714844e+01 0 -1 -1
2453 2 1.8500000238418579e+00 6.6429306030273438e+01 8.6979605244967829e+01 4.2237339019775391e+01 0 -1 1
2445 2 1.8500000238418579e+00 5.6901329040527344e+01 4.1405838012695312e+01 4.1148876190185547e+01 0 0 1
3897 3 -7.4000000953674316e-01 5.4464019775390625e+01 3.8337657928466797e+01 8.2126327514648438e+01 0 0 -1
5363 3 -7.4000000953674316e-01 7.1433135986328125e+01 4.6809188842773438e+01 8.6308578491210938e+01 0 0 -1
3988 3 -7.4000000953674316e-01 7.4009040832519531e+01 3.6222160339355469e+01 3.8860977172851562e+01 0 0 0
7132 3 -7.4000000953674316e-01 7.1577445983886719e+01 7.1756134033203125e+01 5.2741641998291016e+01 0 -1 0
1460 2 1.8500000238418579e+00 7.2950439453125000e+01 8.4759010314941406e+01 4.1335674285888672e+01 0 -1 0
8231 3 -7.4000000953674316e-01 7.1832977294921875e+01 7.8167129516601562e+01 4.1664703369140625e+01 0 -1 1
9415 3 -7.4000000953674316e-01 7.1584953308105469e+01 8.0696502685546875e+01 3.4151336669921875e+01 0 -1 1
3198 2 1.8500000238418579e+00 6.2591575622558594e+01 7.0954322814941406e+01 4.1823932647705078e+01 0 -1 1
2622 2 1.8500000238418579e+00 7.1352020263671875e+01 4.3797088623046875e+01 4.8986751556396484e+01 0 0 1
10188 3 -7.4000000953674316e-01 5.3369388580322266e+01 6.8009094238281250e+01 3.8717746734619141e+01 0 -1 1
4492 3 -7.4000000953674316e-01 8.1667518615722656e+01 7.9072563171386719e+01 3.8250682830810547e+01 0 -1 0
8569 3 -7.4000000953674316e-01 5.0716682434082031e+01 8.5301872253417969e+01 3.7421688079833984e+01 0 -1 1
9123 3 -7.4000000953674316e-01 7.1235145568847656e+01 4.3041988372802734e+01 4.7761669158935547e+01 0 0 1
9512 3 -7.4000000953674316e-01 8.6578384399414062e+01 6.9725265502929688e+01 4.6443225860595703e+01 0 -1 1
2910 2 1.8500000238418579e+00 7.0983703613281250e+01 8.6165313720703125e+01 7.5909797668457031e+01 0 -1 0
5300 3 -7.4000000953674316e-01 6.8747085571289062e+01 4.6335971832275391e+01 3.9461791992187500e+01 0 0 0
10461 3 -7.4000000953674316e-01 6.7920623779296875e+01 4.3101154327392578e+01 3.5736682891845703e+01 0 1 1
10439 3 -7.4000000953674316e-01 6.8144622802734375e+01 8.0497344970703125e+01 7.3878700256347656e+01 0 -1 0
3843 3 -7.4000000953674316e-01 8.4293930053710938e+01 8.2998336791992188e+01 7.8517097473144531e+01 0 -1 -1
1262 2 1.8500000238418579e+00 6.8669982910156250e+01 8.4241058349609375e+01 8.1192543029785156e+01 0 -1 -1
4947 3 -7.4000000953674316e-01 7.6517913818359375e+01 8.5675514221191406e+01 3.7188529968261719e+01 0 -1 0
7089 3 -7.4000000953674316e-01 7.5723861694335938e+01 3.8905761718750000e+01 4.0621688842773438e+01 0 0 0
6021 3 -7.4000000953674316e-01 7.0778907775878906e+01 3.3195236206054688e+01 8.3002861022949219e+01 0 1 -1
1248 2 1.8500000238418579e+00 8.4850708007812500e+01 4.2950614929199219e+01 8.2565086364746094e+01 0 1 -1
3780 3 -7.4000000953674316e-01 8.1943817138671875e+01 4.5560024261474609e+01 4.6605369567871094e+01 0 0 0
1861 2 1.8500000238418579e+00 8.6100852966308594e+01 3.6289981842041016e+01 7.4119224548339844e+01 0 0 0
3728 3 -7.4000000953674316e-01 3.8203662872314453e+01 8.4142608642578125e+01 4.2084625244140625e+01 0 -1 0
205 1 3.7000000476837158e-01 5.7569557189941406e+01 8.1793701171875000e+01 8.1592666625976562e+01 0 0 0
4912 3 -7.4000000953674316e-01 3.6140735626220703e+01 8.6308609008789062e+01 7.7731369018554688e+01 0 -1 -1
86 1 3.7000000476837158e-01 4.3018844604492188e+01 7.3290351867675781e+01 5.2874591827392578e+01 0 -1 0
9597 3 -7.4000000953674316e-01 8.5385292053222656e+01 3.4950908660888672e+01 3.6740036010742188e+01 -1 0 1
4593 3 -7.4000000953674316e-01 3.7404029846191406e+01 8.6440818786621094e+01 4.1515785217285156e+01 0 -1 0
523 2 1.8500000238418579e+00 5.4115970611572266e+01 5.1361915588378906e+01 4.0914638519287109e+01 0 0 0
558 2 1.8500000238418579e+00 8.6289123535156250e+01 8.4268646240234375e+01 8.2633102416992188e+01 -1 -1 -1
4525 3 -7.4000000953674316e-01 3.3609779357910156e+01 8.3096405029296875e+01 3.6184349060058594e+01 0 -1 0
3614 3 -7.4000000953674316e-01 5.1371582031250000e+01 4.3209854125976562e+01 4.0286846160888672e+01 0 0 0
3451 3 -7.4000000953674316e-01 4.5902477264404297e+01 3.9619667053222656e+01 4.5880470275878906e+01 0 0 0
5042 3 -7.4000000953674316e-01 5.1536266326904297e+01 3.4124309539794922e+01 3.4288570404052734e+01 0 0 0
6781 3 -7.4000000953674316e-01 5.1927684783935547e+01 3.4526062011718750e+01 7.4973892211914062e+01 0 0 0
3421 3 -7.4000000953674316e-01 6.5339218139648438e+01 4.1313529968261719e+01 8.1411163330078125e+01 0 0 -1
1094 2 1.8500000238418579e+00 5.9737983703613281e+01 3.9065383911132812e+01 4.9111972808837891e+01 0 0 0
6860 3 -7.4000000953674316e-01 6.2840648651123047e+01 4.2380672454833984e+01 4.2226528167724609e+01 0 0 0
649 2 1.8500000238418579e+00 5.3653053283691406e+01 7.5272064208984375e+01 4.8747241973876953e+01 0 -1 0
7672 3 -7.4000000953674316e-01 6.3605350494384766e+01 4.7320766448974609e+01 4.6977588653564453e+01 0 0 1
4048 3 -7.4000000953674316e-01 5.5861968994140625e+01 4.0191059112548828e+01 3.7958187103271484e+01 0 0 0
4717 3 -7.4000000953674316e-01 4.4531166076660156e+01 4.5252555847167969e+01 6.5200256347656250e+01 0 0 -1
4245 3 -7.4000000953674316e-01 7.4319694519042969e+01 3.9735046386718750e+01 8.4109802246093750e+01 0 0 -1
1140 2 1.8500000238418579e+00 5.5571949005126953e+01 3.9375045776367188e+01 3.3855060577392578e+01 0 0 0
3477 3 -7.4000000953674316e-01 5.5290439605712891e+01 8.2095352172851562e+01 7.9216621398925781e+01 0 -1 -1
1587 2 1.8500000238418579e+00 5.5225284576416016e+01 7.4478096008300781e+01 8.2224304199218750e+01 0 0 -1
232 1 3.7000000476837158e-01 7.4384353637695312e+01 6.0606765747070312e+01 3.9417255401611328e+01 -1 -1 2
9616 3 -7.4000000953674316e-01 6.3139648437500000e+01 3.6655357360839844e+01 4.9288726806640625e+01 0 0 1
20 1 3.7000000476837158e-01 3.5397449493408203e+01 4.0141777038574219e+01 6.2275676727294922e+01 0 -1 0
1181 2 1.8500000238418579e+00 7.2456634521484375e+01 5.0005775451660156e+01 3.4020057678222656e+01 0 0 0
10085 3 -7.4000000953674316e-01 7.0837165832519531e+01 3.5701801300048828e+01 4.8288875579833984e+01 0 0 1
2008 2 1.8500000238418579e+00 7.7413452148437500e+01 3.9672439575195312e+01 5.0623859405517578e+01 0 0 1
4865 3 -7.4000000953674316e-01 7.3465469360351562e+01 5.7007820129394531e+01 3.9653293609619141e+01 0 0 0
7061 3 -7.4000000953674316e-01 8.0631668090820312e+01 4.1064212799072266e+01 4.6260719299316406e+01 0 0 0
140 1 3.7000000476837158e-01 7.2590423583984375e+01 6.3516986846923828e+01 6.4312004089355469e+01 1 -1 0
3717 3 -7.4000000953674316e-01 7.5006263732910156e+01 5.6057853698730469e+01 8.3998146057128906e+01 0 0 -1
6843 3 -7.4000000953674316e-01 6.0852859497070312e+01 4.6444816589355469e+01 8.3615821838378906e+01 0 0 -1
4501 3 -7.4000000953674316e-01 7.5321281433105469e+01 3.9070827484130859e+01 3.5465671539306641e+01 0 0 0
1168 2 1.8500000238418579e+00 6.6927047729492188e+01 5.4221263885498047e+01 3.3770675659179688e+01 0 0 0
3755 3 -7.4000000953674316e-01 7.4626609802246094e+01 7.2149719238281250e+01 4.3206993103027344e+01 0 -1 0
8902 3 -7.4000000953674316e-01 6.9928108215332031e+01 3.6264030456542969e+01 3.7990962982177734e+01 0 0 1
674 2 1.8500000238418579e+00 6.9780128479003906e+01 3.8679855346679688e+01 4.0912914276123047e+01 0 0 0
6425 3 -7.4000000953674316e-01 6.3475486755371094e+01 3.4267097473144531e+01 8.0492706298828125e+01 0 0 -1
874 2 1.8500000238418579e+00 6.9619842529296875e+01 3.4829307556152344e+01 4.8834911346435547e+01 0 0 0
2924 2 1.8500000238418579e+00 6.5486877441406250e+01 4.0146694183349609e+01 3.7864730834960938e+01 0 0 1
6125 3 -7.4000000953674316e-01 7.2718444824218750e+01 4.6423469543457031e+01 3.7408721923828125e+01 0 0 0
2611 2 1.8500000238418579e+00 6.8972534179687500e+01 4.1973560333251953e+01 5.3494335174560547e+01 0 0 1
1785 2 1.8500000238418579e+00 7.8138298034667969e+01 7.5093643188476562e+01 8.1147712707519531e+01 0 -1 -1
5749 3 -7.4000000953674316e-01 7.4519020080566406e+01 4.2709087371826172e+01 4.3978679656982422e+01 0 0 0
778 2 1.8500000238418579e+00 8.0341217041015625e+01 7.8342803955078125e+01 3.8215511322021484e+01 0 -1 0
3873 3 -7.4000000953674316e-01 7.6886215209960938e+01 8.6809646606445312e+01 8.2760337829589844e+01 0 -1 -1
2642 2 1.8500000238418579e+00 6.3329612731933594e+01 7.4527145385742188e+01 4.4436439514160156e+01 0 -1 1
7382 3 -7.4000000953674316e-01 8.3787734985351562e+01 4.2949375152587891e+01 4.0130344390869141e+01 0 0 1
3363 3 -7.4000000953674316e-01 4.1877204895019531e+01 3.9562225341796875e+01 3.6086875915527344e+01 1 0 0
6832 3 -7.4000000953674316e-01 8.1519889831542969e+01 4.3059585571289062e+01 8.3206192016601562e+01 0 0 -1
5323 3 -7.4000000953674316e-01 8.3924926757812500e+01 4.6806621551513672e+01 7.9943962097167969e+01 0 0 -1
3305 3 -7.4000000953674316e-01 8.4542373657226562e+01 4.0082061767578125e+01 3.6223804473876953e+01 0 0 0
6905 3 -7.4000000953674316e-01 8.6124427795410156e+01 7.9416496276855469e+01 7.4262672424316406e+01 0 -1 -1
4427 3 -7.4000000953674316e-01 3.4216217041015625e+01 8.1493072509765625e+01 3.7955471038818359e+01 0 -1 0
3375 3 -7.4000000953674316e-01 8.1664794921875000e+01 7.5754562377929688e+01 4.0334980010986328e+01 -1 0 0
162 1 3.7000000476837158e-01 4.7618160247802734e+01 4.7390953063964844e+01 6.3284858703613281e+01 0 1 0
1670 2 1.8500000238418579e+00 7.3810150146484375e+01 3.7921028137207031e+01 4.7313976287841797e+01 -1 0 0
1091 2 1.8500000238418579e+00 4.2636451721191406e+01 3.8752769470214844e+01 3.5033245086669922e+01 0 0 0
9566 3 -7.4000000953674316e-01 8.4664688110351562e+01 7.3287979125976562e+01 7.6360923767089844e+01 -1 -1 0
4728 3 -7.4000000953674316e-01 3.8418018341064453e+01 4.2150287628173828e+01 6.9308525085449219e+01 0 0 -1
94 1 3.7000000476837158e-01 4.1729995727539062e+01 3.6607765197753906e+01 3.8939899444580078e+01 0 -1 -1
10826 3 -7.4000000953674316e-01 8.5720573425292969e+01 8.0400558471679688e+01 4.4086364746093750e+01 -1 -1 1
5580 3 -7.4000000953674316e-01 4.3054805755615234e+01 4.6742904663085938e+01 4.8367046356201172e+01 0 0 0
7098 3 -7.4000000953674316e-01 5.2222236633300781e+01 3.4638492584228516e+01 7.9734664916992188e+01 0 0 -1
5664 3 -7.4000000953674316e-01 5.4071250915527344e+01 4.8338169097900391e+01 4.3224754333496094e+01 0 0 0
4857 3 -7.4000000953674316e-01 6.5320053100585938e+01 5.0576400756835938e+01 4.8615989685058594e+01 0 0 0
93 1 3.7000000476837158e-01 4.8423873901367188e+01 4.5248580932617188e+01 7.1929595947265625e+01 -1 0 0
4289 3 -7.4000000953674316e-01 5.3025161743164062e+01 5.2209342956542969e+01 4.1595756530761719e+01 0 0 0
6219 3 -7.4000000953674316e-01 6.4646087646484375e+01 5.2292453765869141e+01 5.3297809600830078e+01 0 0 0
39 1 3.7000000476837158e-01 6.4511413574218750e+01 6.7514495849609375e+01 8.5169776916503906e+01 0 0 -1
525 2 1.8500000238418579e+00 3.4927043914794922e+01 3.4477275848388672e+01 3.8425674438476562e+01 0 0 0
7753 3 -7.4000000953674316e-01 4.2681602478027344e+01 8.4764396667480469e+01 4.7761779785156250e+01 0 -1 1
5005 3 -7.4000000953674316e-01 7.2339248657226562e+01 3.6585094451904297e+01 8.1421089172363281e+01 0 0 -1
5382 3 -7.4000000953674316e-01 6.1105964660644531e+01 4.7462036132812500e+01 4.3682132720947266e+01 0 0 0
1107 2 1.8500000238418579e+00 6.2040771484375000e+01 4.8588188171386719e+01 4.3546291351318359e+01 0 0 0
231 1 3.7000000476837158e-01 3.8476444244384766e+01 4.7803562164306641e+01 7.0279891967773438e+01 -1 1 0
4042 3 -7.4000000953674316e-01 6.6547454833984375e+01 4.6032756805419922e+01 5.1444717407226562e+01 0 0 0
4832 3 -7.4000000953674316e-01 3.7318485260009766e+01 6.2402408599853516e+01 3.4513095855712891e+01 1 0 0
7923 3 -7.4000000953674316e-01 6.8162918090820312e+01 4.0977077484130859e+01 4.2635780334472656e+01 0 0 1
6769 3 -7.4000000953674316e-01 6.5285018920898438e+01 4.8893829345703125e+01 4.0887966156005859e+01 0 0 0
5198 3 -7.4000000953674316e-01 7.3010635375976562e+01 3.8436439514160156e+01 3.4913101196289062e+01 0 0 0
3729 3 -7.4000000953674316e-01 5.7747489929199219e+01 4.1084400177001953e+01 5.6797172546386719e+01 0 0 0
8883 3 -7.4000000953674316e-01 7.5644264221191406e+01 4.4075500488281250e+01 5.2026294708251953e+01 0 0 1
4913 3 -7.4000000953674316e-01 5.9063716888427734e+01 4.3047824859619141e+01 3.8224464416503906e+01 0 0 0
5255 3 -7.4000000953674316e-01 6.4144279479980469e+01 4.9211059570312500e+01 8.4623764038085938e+01 0 0 -1
10831 3 -7.4000000953674316e-01 5.8211463928222656e+01 5.2466201782226562e+01 3.7824787139892578e+01 0 0 1
5260 3 -7.4000000953674316e-01 6.7048614501953125e+01 5.1325500488281250e+01 4.4090469360351562e+01 0 0 0
6194 3 -7.4000000953674316e-01 7.6303924560546875e+01 8.2496871948242188e+01 3.4443996429443359e+01 0 -1 0
4623 3 -7.4000000953674316e-01 7.3674446105957031e+01 4.5994785308837891e+01 3.9825355529785156e+01 0 0 0
1717 2 1.8500000238418579e+00 6.3615913391113281e+01 7.9003692626953125e+01 6.3918399810791016e+01 0 -1 0
5600 3 -7.4000000953674316e-01 5.7854152679443359e+01 8.1320358276367188e+01 3.6024848937988281e+01 0 -1 0
4402 3 -7.4000000953674316e-01 6.9821212768554688e+01 4.1809696197509766e+01 4.0312030792236328e+01 0 0 0
9209 3 -7.4000000953674316e-01 7.9024902343750000e+01 8.6175254821777344e+01 3.6876296997070312e+01 0 -1 1
4089 3 -7.4000000953674316e-01 3.5798789978027344e+01 3.8092655181884766e+01 3.9293025970458984e+01 1 0 0
8963 3 -7.4000000953674316e-01 3.6177894592285156e+01 3.3629013061523438e+01 5.0825531005859375e+01 1 0 1
7256 3 -7.4000000953674316e-01 7.8504226684570312e+01 4.1248973846435547e+01 4.4915855407714844e+01 0 0 1
2293 2 1.8500000238418579e+00 7.9810165405273438e+01 4.4055202484130859e+01 3.4942279815673828e+01 0 0 1
7356 3 -7.4000000953674316e-01 6.6425750732421875e+01 3.3710937500000000e+01 4.9753608703613281e+01 0 0 1
8594 3 -7.4000000953674316e-01 8.1293800354003906e+01 5.5437004089355469e+01 4.2357326507568359e+01 0 0 1
224 1 3.7000000476837158e-01 4.6965194702148438e+01 7.2523605346679688e+01 5.0830410003662109e+01 2 0 0
6550 3 -7.4000000953674316e-01 7.6711318969726562e+01 4.2001827239990234e+01 4.3011837005615234e+01 0 0 0
5231 3 -7.4000000953674316e-01 3.3785438537597656e+01 7.8620933532714844e+01 7.2630470275878906e+01 1 -1 -1
4282 3 -7.4000000953674316e-01 8.2592414855957031e+01 3.4872581481933594e+01 7.4281219482421875e+01 0 0 -1
4854 3 -7.4000000953674316e-01 7.7505844116210938e+01 4.2639354705810547e+01 4.7822128295898438e+01 0 0 0
400 2 1.8500000238418579e+00 8.6499084472656250e+01 5.4977508544921875e+01 3.5944095611572266e+01 0 0 0
5904 3 -7.4000000953674316e-01 8.3877716064453125e+01 6.2914768218994141e+01 8.6922866821289062e+01 -1 0 -1
5116 3 -7.4000000953674316e-01 4.7135986328125000e+01 5.1093376159667969e+01 5.7468326568603516e+01 0 0 0
270 1 3.7000000476837158e-01 7.7685333251953125e+01 5.4747337341308594e+01 6.3200565338134766e+01 0 -1 0
5729 3 -7.4000000953674316e-01 7.7881591796875000e+01 6.6560554504394531e+01 6.4756217956542969e+01 -1 0 0
2098 2 1.8500000238418579e+00 3.7944339752197266e+01 6.2511901855468750e+01 8.4919769287109375e+01 0 0 0
1352 2 1.8500000238418579e+00 3.4636333465576172e+01 3.8778568267822266e+01 3.9825653076171875e+01 0 0 0
1389 2 1.8500000238418579e+00 5.1304229736328125e+01 3.3300922393798828e+01 7.5129959106445312e+01 0 0 -1
8785 3 -7.4000000953674316e-01 8.5798057556152344e+01 5.0935722351074219e+01 3.5029899597167969e+01 -1 0 1
6155 3 -7.4000000953674316e-01 5.2135803222656250e+01 4.1960685729980469e+01 5.1421005249023438e+01 0 0 0
7226 3 -7.4000000953674316e-01 3.7749053955078125e+01 4.0038932800292969e+01 8.0741462707519531e+01 0 0 0
8126 3 -7.4000000953674316e-01 4.6826053619384766e+01 3.7437873840332031e+01 4.1472507476806641e+01 0 0 1
1334 2 1.8500000238418579e+00 4.6507759094238281e+01 4.1503868103027344e+01 8.6078948974609375e+01 0 0 -1
8804 3 -7.4000000953674316e-01 6.1364639282226562e+01 4.9916767120361328e+01 4.3500484466552734e+01 0 0 1
3551 3 -7.4000000953674316e-01 4.6938789367675781e+01 4.0449272155761719e+01 8.5026504516601562e+01 0 0 -1
8462 3 -7.4000000953674316e-01 5.0105190277099609e+01 4.3838733673095703e+01 4.2389518737792969e+01 0 0 1
5977 3 -7.4000000953674316e-01 6.8601791381835938e+01 5.0147109985351562e+01 4.8314582824707031e+01 0 0 0
994 2 1.8500000238418579e+00 5.0250061035156250e+01 7.8260467529296875e+01 4.9604419708251953e+01 0 -1 0
4488 3 -7.4000000953674316e-01 5.0556915283203125e+01 4.6823833465576172e+01 8.5878929138183594e+01 0 0 -1
3448 3 -7.4000000953674316e-01 6.0965484619140625e+01 4.8450210571289062e+01 7.0912284851074219e+01 0 0 -1
496 2 1.8500000238418579e+00 7.0340110778808594e+01 3.7232471466064453e+01 4.3426956176757812e+01 0 0 0
5201 3 -7.4000000953674316e-01 6.3892974853515625e+01 4.2079605102539062e+01 8.4721244812011719e+01 0 0 -1
6946 3 -7.4000000953674316e-01 5.6120563507080078e+01 4.3104507446289062e+01 3.3500705718994141e+01 0 0 0
4979 3 -7.4000000953674316e-01 6.6514381408691406e+01 5.0420833587646484e+01 3.9228805541992188e+01 0 0 0
4049 3 -7.4000000953674316e-01 7.2745269775390625e+01 5.4404212951660156e+01 5.5459468841552734e+01 0 0 0
2983 2 1.8500000238418579e+00 4.3362388610839844e+01 4.8994659423828125e+01 4.2123870849609375e+01 0 0 1
4972 3 -7.4000000953674316e-01 6.5674468994140625e+01 4.6398853302001953e+01 4.5953670501708984e+01 0 0 0
6547 3 -7.4000000953674316e-01 5.6578353881835938e+01 4.2137310028076172e+01 4.2666847229003906e+01 0 0 0
6873 3 -7.4000000953674316e-01 6.2112583160400391e+01 5.6754875183105469e+01 3.7864063262939453e+01 0 0 0
4998 3 -7.4000000953674316e-01 6.3168945312500000e+01 6.0855789184570312e+01 4.2171936035156250e+01 0 0 0
3805 3 -7.4000000953674316e-01 5.6767967224121094e+01 6.0876331329345703e+01 7.3661636352539062e+01 0 0 -1
7985 3 -7.4000000953674316e-01 8.1223014831542969e+01 4.5728569030761719e+01 8.0996635437011719e+01 0 0 0
6461 3 -7.4000000953674316e-01 7.1022361755371094e+01 3.9184597015380859e+01 3.3305995941162109e+01 0 0 0
3543 3 -7.4000000953674316e-01 7.2767089843750000e+01 8.6084419250488281e+01 8.4166954040527344e+01 0 -1 -1
6300 3 -7.4000000953674316e-01 6.8825439453125000e+01 4.2038722991943359e+01 5.7187458038330078e+01 0 0 0
6222 3 -7.4000000953674316e-01 6.0066406250000000e+01 4.1705226898193359e+01 3.9985561370849609e+01 0 0 0
4657 3 -7.4000000953674316e-01 6.4437446594238281e+01 5.7057022094726562e+01 4.0956207275390625e+01 0 0 0
5203 3 -7.4000000953674316e-01 7.1426086425781250e+01 4.0304481506347656e+01 3.5566596984863281e+01 0 0 0
4302 3 -7.4000000953674316e-01 7.2571823120117188e+01 4.1034744262695312e+01 5.0827827453613281e+01 0 0 0
5929 3 -7.4000000953674316e-01 5.9019412994384766e+01 5.0159778594970703e+01 8.4304771423339844e+01 0 0 -1
3861 3 -7.4000000953674316e-01 7.1059356689453125e+01 7.4107330322265625e+01 5.1975914001464844e+01 0 -1 0
6302 3 -7.4000000953674316e-01 7.5304008483886719e+01 4.7079109191894531e+01 8.3365501403808594e+01 0 0 -1
6869 3 -7.4000000953674316e-01 8.4659545898437500e+01 4.6326667785644531e+01 8.4671440124511719e+01 0 0 -1
5651 3 -7.4000000953674316e-01 6.5489486694335938e+01 5.7002807617187500e+01 8.5227035522460938e+01 0 0 -1
5226 3 -7.4000000953674316e-01 7.1452590942382812e+01 5.8315856933593750e+01 8.2102279663085938e+01 0 0 -1
1215 2 1.8500000238418579e+00 7.5862869262695312e+01 5.1320442199707031e+01 4.6363227844238281e+01 0 0 0
6534 3 -7.4000000953674316e-01 7.6985946655273438e+01 5.4219558715820312e+01 7.7122711181640625e+01 0 0 -1
1256 2 1.8500000238418579e+00 7.6968490600585938e+01 4.5745769500732422e+01 7.7642547607421875e+01 0 0 -1
3394 3 -7.4000000953674316e-01 8.5610351562500000e+01 4.6045730590820312e+01 7.8156051635742188e+01 0 0 -1
9834 3 -7.4000000953674316e-01 3.6299865722656250e+01 5.7140319824218750e+01 7.3565254211425781e+01 1 0 0
239 1 3.7000000476837158e-01 4.7473625183105469e+01 5.0011714935302734e+01 4.0934795379638672e+01 0 0 1
2891 2 1.8500000238418579e+00 4.5138885498046875e+01 8.3130294799804688e+01 8.0353660583496094e+01 1 -1 0
9897 3 -7.4000000953674316e-01 4.1855369567871094e+01 4.6658699035644531e+01 8.6895729064941406e+01 1 0 0
1681 2 1.8500000238418579e+00 8.3724075317382812e+01 4.8574741363525391e+01 7.4306320190429688e+01 0 0 -1
4686 3 -7.4000000953674316e-01 3.3951572418212891e+01 4.3834564208984375e+01 4.0555969238281250e+01 1 0 0
7072 3 -7.4000000953674316e-01 3.5815422058105469e+01 4.4228141784667969e+01 8.1070068359375000e+01 1 0 -1
3328 3 -7.4000000953674316e-01 7.8902053833007812e+01 8.4439819335937500e+01 4.1633895874023438e+01 0 -1 0
1317 2 1.8500000238418579e+00 4.3621147155761719e+01 6.1658687591552734e+01 7.7966522216796875e+01 1 0 -1
7129 3 -7.4000000953674316e-01 4.0044193267822266e+01 5.3406936645507812e+01 3.5689235687255859e+01 1 0 0
1360 2 1.8500000238418579e+00 4.1119110107421875e+01 5.6881324768066406e+01 8.0834457397460938e+01 0 0 -1
5077 3 -7.4000000953674316e-01 4.9499897003173828e+01 4.9132179260253906e+01 7.5929756164550781e+01 0 0 -1
6964 3 -7.4000000953674316e-01 4.1843223571777344e+01 4.9308860778808594e+01 3.4342403411865234e+01 1 0 0
824 2 1.8500000238418579e+00 4.1471626281738281e+01 5.4023910522460938e+01 8.1500694274902344e+01 0 0 -1
1575 2 1.8500000238418579e+00 3.8637706756591797e+01 4.8552589416503906e+01 8.5153686523437500e+01 0 0 -1
1084 2 1.8500000238418579e+00 7.1120941162109375e+01 5.9122493743896484e+01 8.5771606445312500e+01 -1 0 -1
1381 2 1.8500000238418579e+00 4.2411865234375000e+01 6.3935832977294922e+01 7.2892127990722656e+01 0 0 -1
3263 2 1.8500000238418579e+00 4.1069797515869141e+01 5.9351722717285156e+01 8.5054306030273438e+01 0 0 0
3753 3 -7.4000000953674316e-01 4.3512100219726562e+01 4.4013202667236328e+01 8.5012985229492188e+01 0 0 -1
5299 3 -7.4000000953674316e-01 5.7972068786621094e+01 5.6042800903320312e+01 8.0318710327148438e+01 0 0 -1
3506 3 -7.4000000953674316e-01 3.8580448150634766e+01 5.5012428283691406e+01 3.4249347686767578e+01 0 0 0
716 2 1.8500000238418579e+00 5.8441436767578125e+01 5.0691169738769531e+01 8.2968734741210938e+01 0 0 -1
9598 3 -7.4000000953674316e-01 4.6109249114990234e+01 3.8080184936523438e+01 4.7909797668457031e+01 0 0 1
6586 3 -7.4000000953674316e-01 4.8034042358398438e+01 4.8842784881591797e+01 7.8775199890136719e+01 0 0 -1
6417 3 -7.4000000953674316e-01 4.8788864135742188e+01 4.7262985229492188e+01 8.4086326599121094e+01 0 0 -1
5435 3 -7.4000000953674316e-01 5.4143501281738281e+01 8.6727584838867188e+01 3.3617500305175781e+01 0 -1 0
4640 3 -7.4000000953674316e-01 4.0651416778564453e+01 4.4291675567626953e+01 4.2549709320068359e+01 0 0 0
5663 3 -7.4000000953674316e-01 4.2767833709716797e+01 5.5525390625000000e+01 8.4330581665039062e+01 0 0 -1
4391 3 -7.4000000953674316e-01 4.2714527130126953e+01 4.9302223205566406e+01 3.6680767059326172e+01 0 0 0
6031 3 -7.4000000953674316e-01 4.5363807678222656e+01 4.9554042816162109e+01 4.4708705902099609e+01 0 0 0
4612 3 -7.4000000953674316e-01 5.5085166931152344e+01 6.1209743499755859e+01 8.5102745056152344e+01 0 0 -1
6588 3 -7.4000000953674316e-01 3.3819828033447266e+01 8.0690765380859375e+01 5.2998348236083984e+01 1 0 0
8486 3 -7.4000000953674316e-01 5.7737815856933594e+01 5.1136054992675781e+01 7.9857467651367188e+01 0 0 0
5687 3 -7.4000000953674316e-01 5.9189369201660156e+01 6.1987495422363281e+01 3.6689765930175781e+01 0 0 0
6956 3 -7.4000000953674316e-01 4.1081535339355469e+01 5.9364143371582031e+01 3.8219371795654297e+01 0 0 0
1109 2 1.8500000238418579e+00 5.8055019378662109e+01 5.5053878784179688e+01 7.9228988647460938e+01 0 0 -1
1179 2 1.8500000238418579e+00 3.5178718566894531e+01 4.7555950164794922e+01 7.8807289123535156e+01 0 0 -1
4898 3 -7.4000000953674316e-01 6.8046455383300781e+01 5.6640487670898438e+01 4.2246696472167969e+01 0 0 0
1456 2 1.8500000238418579e+00 5.8934730529785156e+01 3.9617485046386719e+01 3.7521354675292969e+01 0 0 0
6018 3 -7.4000000953674316e-01 7.2402297973632812e+01 5.0045383453369141e+01 3.7692157745361328e+01 0 0 0
1020 2 1.8500000238418579e+00 6.1659584045410156e+01 5.1410232543945312e+01 4.9817428588867188e+01 0 0 0
570 2 1.8500000238418579e+00 7.4199142456054688e+01 5.1962944030761719e+01 4.3967449188232422e+01 0 0 0
6951 3 -7.4000000953674316e-01 5.2189125061035156e+01 5.9964221954345703e+01 5.2093177795410156e+01 0 0 0
1296 2 1.8500000238418579e+00 5.8420280456542969e+01 5.9542778015136719e+01 3.9392726898193359e+01 0 0 0
5475 3 -7.4000000953674316e-01 4.8978096008300781e+01 5.3881519317626953e+01 4.2092750549316406e+01 0 0 0
5159 3 -7.4000000953674316e-01 5.3652355194091797e+01 5.8767753601074219e+01 4.7905750274658203e+01 0 0 0
5103 3 -7.4000000953674316e-01 6.7511398315429688e+01 5.9108909606933594e+01 3.3634025573730469e+01 0 0 0
4418 3 -7.4000000953674316e-01 6.8759567260742188e+01 5.4336387634277344e+01 5.2330440521240234e+01 0 0 0
3452 3 -7.4000000953674316e-01 4.4167793273925781e+01 4.8839595794677734e+01 4.0737030029296875e+01 0 0 0
922 2 1.8500000238418579e+00 6.0853023529052734e+01 5.5696979522705078e+01 3.7619846343994141e+01 0 0 0
4275 3 -7.4000000953674316e-01 7.6169448852539062e+01 4.6927696228027344e+01 7.8131698608398438e+01 0 0 -1
1630 2 1.8500000238418579e+00 7.0339012145996094e+01 5.4758728027343750e+01 5.2257896423339844e+01 0 0 0
3517 3 -7.4000000953674316e-01 6.7577583312988281e+01 4.8499645233154297e+01 4.0278362274169922e+01 0 0 0
2704 2 1.8500000238418579e+00 8.3866287231445312e+01 5.4760086059570312e+01 8.6097511291503906e+01 0 0 0
6619 3 -7.4000000953674316e-01 8.3268554687500000e+01 5.8652870178222656e+01 8.1665229797363281e+01 0 0 -1
5509 3 -7.4000000953674316e-01 8.0282836914062500e+01 5.0315132141113281e+01 8.1006500244140625e+01 0 0 -1
4711 3 -7.4000000953674316e-01 7.6767883300781250e+01 5.8259208679199219e+01 3.4023963928222656e+01 0 0 0
6220 3 -7.4000000953674316e-01 7.7995841979980469e+01 4.1623649597167969e+01 7.1130058288574219e+01 0 0 -1
846 2 1.8500000238418579e+00 8.4125305175781250e+01 5.5509227752685547e+01 8.3201042175292969e+01 0 0 -1
66 1 3.7000000476837158e-01 7.8976127624511719e+01 8.3116012573242188e+01 5.1544261932373047e+01 0 0 -1
5000 3 -7.4000000953674316e-01 7.7391708374023438e+01 4.9779067993164062e+01 4.0170272827148438e+01 0 0 0
4308 3 -7.4000000953674316e-01 8.5664535522460938e+01 3.6696422576904297e+01 7.2735496520996094e+01 0 0 -1
5885 3 -7.4000000953674316e-01 8.5898529052734375e+01 3.7626338958740234e+01 4.5571647644042969e+01 0 0 0
4145 3 -7.4000000953674316e-01 7.8499465942382812e+01 3.6371490478515625e+01 7.8145553588867188e+01 0 0 -1
4570 3 -7.4000000953674316e-01 3.6292083740234375e+01 6.0119857788085938e+01 3.8696613311767578e+01 1 0 0
1173 2 1.8500000238418579e+00 7.8303306579589844e+01 5.7700160980224609e+01 3.4340225219726562e+01 0 0 0
7694 3 -7.4000000953674316e-01 3.4188133239746094e+01 8.2810394287109375e+01 7.7584106445312500e+01 1 -1 0