LAMMPS data file via write_data, version 4 May 2017, timestep = 155

420 atoms
3 atom types

0.0000000000000000e+00 2.2653923264628304e+01 xlo xhi
2.1918578738841410e-01 1.9932852254455714e+01 ylo yhi
-2.8317404080785380e-01 2.8317404080785380e-01 zlo zhi

Masses

1 1
2 1
3 1

Atoms # atomic

1 2 0.0000000000000000e+00 2.2114806707013038e-01 0.0000000000000000e+00 0 0 0
2 2 5.6634808161570760e-01 1.1832938184587634e+00 0.0000000000000000e+00 0 0 0
3 2 1.1326961632314152e+00 2.2114806707013018e-01 0.0000000000000000e+00 0 0 0
4 2 1.6990442448471228e+00 1.1832938184587634e+00 0.0000000000000000e+00 0 0 0
5 2 2.2653923264628304e+00 2.2114806707013032e-01 0.0000000000000000e+00 0 0 0
6 2 2.8317404080785380e+00 1.1832938184587634e+00 0.0000000000000000e+00 0 0 0
7 2 3.3980884896942456e+00 2.2114806707013024e-01 0.0000000000000000e+00 0 0 0
8 2 3.9644365713099532e+00 1.1832938184587636e+00 0.0000000000000000e+00 0 0 0
9 2 4.5307846529256608e+00 2.2114806707013010e-01 0.0000000000000000e+00 0 0 0
10 2 5.0971327345413684e+00 1.1832938184587636e+00 0.0000000000000000e+00 0 0 0
11 2 5.6634808161570760e+00 2.2114806707013010e-01 0.0000000000000000e+00 0 0 0
12 2 6.2298288977727836e+00 1.1832938184587636e+00 0.0000000000000000e+00 0 0 0
13 2 6.7961769793884912e+00 2.2114806707013010e-01 0.0000000000000000e+00 0 0 0
14 2 7.3625250610041988e+00 1.1832938184587636e+00 0.0000000000000000e+00 0 0 0
15 2 7.9288731426199064e+00 2.2114806707013010e-01 0.0000000000000000e+00 0 0 0
16 2 8.4952212242356140e+00 1.1832938184587636e+00 0.0000000000000000e+00 0 0 0
17 2 9.0615693058513216e+00 2.2114806707013010e-01 0.0000000000000000e+00 0 0 0
18 2 9.6279173874670292e+00 1.1832938184587636e+00 0.0000000000000000e+00 0 0 0
19 2 1.0194265469082737e+01 2.2114806707013010e-01 0.0000000000000000e+00 0 0 0
20 2 1.0760613550698444e+01 1.1832938184587636e+00 0.0000000000000000e+00 0 0 0
21 2 1.1326961632314152e+01 2.2114806707013010e-01 0.0000000000000000e+00 0 0 0
22 2 1.1893309713929860e+01 1.1832938184587636e+00 0.0000000000000000e+00 0 0 0
23 2 1.2459657795545567e+01 2.2114806707013010e-01 0.0000000000000000e+00 0 0 0
24 2 1.3026005877161275e+01 1.1832938184587636e+00 0.0000000000000000e+00 0 0 0
25 2 1.3592353958776982e+01 2.2114806707013010e-01 0.0000000000000000e+00 0 0 0
26 2 1.4158702040392690e+01 1.1832938184587636e+00 0.0000000000000000e+00 0 0 0
27 2 1.4725050122008398e+01 2.2114806707013010e-01 0.0000000000000000e+00 0 0 0
28 2 1.5291398203624105e+01 1.1832938184587636e+00 0.0000000000000000e+00 0 0 0
29 2 1.5857746285239813e+01 2.2114806707013010e-01 0.0000000000000000e+00 0 0 0
30 2 1.6424094366855520e+01 1.1832938184587636e+00 0.0000000000000000e+00 0 0 0
31 2 1.6990442448471228e+01 2.2114806707013010e-01 0.0000000000000000e+00 0 0 0
32 2 1.7556790530086936e+01 1.1832938184587636e+00 0.0000000000000000e+00 0 0 0
33 2 1.8123138611702643e+01 2.2114806707013010e-01 0.0000000000000000e+00 0 0 0
34 2 1.8689486693318351e+01 1.1832938184587636e+00 0.0000000000000000e+00 0 0 0
35 2 1.9255834774934058e+01 2.2114806707013010e-01 0.0000000000000000e+00 0 0 0
36 2 1.9822182856549766e+01 1.1832938184587636e+00 0.0000000000000000e+00 0 0 0
37 2 2.0388530938165474e+01 2.2114806707013024e-01 0.0000000000000000e+00 0 0 0
38 2 2.0954879019781181e+01 1.1832938184587634e+00 0.0000000000000000e+00 0 0 0
39 2 2.1521227101396889e+01 2.2114806707013043e-01 0.0000000000000000e+00 0 0 0
40 2 2.2087575183012596e+01 1.1832938184587634e+00 0.0000000000000000e+00 0 0 0
41 2 5.5197595012095140e-17 2.1414943053865136e+00 0.0000000000000000e+00 0 0 0
42 1 5.6653050195082300e-01 3.1000166664180786e+00 0.0000000000000000e+00 0 0 0
43 2 1.1326961632314152e+00 2.1414943053865136e+00 0.0000000000000000e+00 0 0 0
44 1 1.6992713312703549e+00 3.1000339212153092e+00 0.0000000000000000e+00 0 0 0
45 2 2.2653923264628304e+00 2.1414943053865136e+00 0.0000000000000000e+00 0 0 0
46 1 2.8319979330663916e+00 3.1000568858502824e+00 0.0000000000000000e+00 0 0 0
47 2 3.3980884896942456e+00 2.1414943053865136e+00 0.0000000000000000e+00 0 0 0
48 1 3.9647072056144004e+00 3.1000829051868171e+00 0.0000000000000000e+00 0 0 0
49 2 4.5307846529256608e+00 2.1414943053865132e+00 0.0000000000000000e+00 0 0 0
50 1 5.0973978903306154e+00 3.1001089282984520e+00 0.0000000000000000e+00 0 0 0
51 2 5.6634808161570760e+00 2.1414943053865132e+00 0.0000000000000000e+00 0 0 0
52 1 6.2300706856774344e+00 3.1001320005511488e+00 0.0000000000000000e+00 0 0 0
53 2 6.7961769793884912e+00 2.1414943053865132e+00 0.0000000000000000e+00 0 0 0
54 1 7.3627281418365298e+00 3.1001497026412643e+00 0.0000000000000000e+00 0 0 0
55 2 7.9288731426199064e+00 2.1414943053865132e+00 0.0000000000000000e+00 0 0 0
56 1 8.4953743353575657e+00 3.1001604410839558e+00 0.0000000000000000e+00 0 0 0
57 2 9.0615693058513216e+00 2.1414943053865132e+00 0.0000000000000000e+00 0 0 0
58 1 9.6280143647524650e+00 3.1001635457640377e+00 0.0000000000000000e+00 0 0 0
59 2 1.0194265469082737e+01 2.1414943053865132e+00 0.0000000000000000e+00 0 0 0
60 1 1.0760653757776259e+01 3.1001591904894030e+00 0.0000000000000000e+00 0 0 0
61 2 1.1326961632314152e+01 2.1414943053865132e+00 0.0000000000000000e+00 0 0 0
62 1 1.1893297897551465e+01 3.1001481997229781e+00 0.0000000000000000e+00 0 0 0
63 2 1.2459657795545567e+01 2.1414943053865132e+00 0.0000000000000000e+00 0 0 0
64 1 1.3025951551034638e+01 3.1001318239711781e+00 0.0000000000000000e+00 0 0 0
65 2 1.3592353958776982e+01 2.1414943053865132e+00 0.0000000000000000e+00 0 0 0
66 1 1.4158618530491893e+01 3.1001115545681470e+00 0.0000000000000000e+00 0 0 0
67 2 1.4725050122008398e+01 2.1414943053865132e+00 0.0000000000000000e+00 0 0 0
68 1 1.5291301468763761e+01 3.1000890162853869e+00 0.0000000000000000e+00 0 0 0
69 2 1.5857746285239813e+01 2.1414943053865132e+00 0.0000000000000000e+00 0 0 0
70 1 1.6424001663467980e+01 3.1000659357603495e+00 0.0000000000000000e+00 0 0 0
71 2 1.6990442448471228e+01 2.1414943053865132e+00 0.0000000000000000e+00 0 0 0
72 1 1.7556718955895743e+01 3.1000441476131195e+00 0.0000000000000000e+00 0 0 0
73 2 1.8123138611702643e+01 2.1414943053865132e+00 0.0000000000000000e+00 0 0 0
74 1 1.8689451647636982e+01 3.1000255781755963e+00 0.0000000000000000e+00 0 0 0
75 2 1.9255834774934058e+01 2.1414943053865132e+00 0.0000000000000000e+00 0 0 0
76 1 1.9822196505112320e+01 3.1000121466922494e+00 0.0000000000000000e+00 0 0 0
77 2 2.0388530938165474e+01 2.1414943053865136e+00 0.0000000000000000e+00 0 0 0
78 1 2.0954948927196146e+01 3.1000055506449713e+00 0.0000000000000000e+00 0 0 0
79 2 2.1521227101396889e+01 2.1414943053865141e+00 0.0000000000000000e+00 0 0 0
80 1 2.2087703334137267e+01 3.1000069547492535e+00 0.0000000000000000e+00 0 0 0
81 1 3.1056926716504509e-04 4.0585004644184055e+00 0.0000000000000000e+00 0 0 0
82 1 5.6689331628382078e-01 5.0169857265632762e+00 0.0000000000000000e+00 0 0 0
83 1 1.1331010876667682e+00 4.0585336877518543e+00 0.0000000000000000e+00 0 0 0
84 1 1.6997107179473134e+00 5.0170595571637469e+00 0.0000000000000000e+00 0 0 0
85 1 2.2658691471408239e+00 4.0585832735991989e+00 0.0000000000000000e+00 0 0 0
86 1 2.8324913387275488e+00 5.0171576059016481e+00 0.0000000000000000e+00 0 0 0
87 1 3.3986077265334802e+00 4.0586437183143182e+00 0.0000000000000000e+00 0 0 0
88 1 3.9652274946581523e+00 5.0172690174612651e+00 0.0000000000000000e+00 0 0 0
89 1 4.5313127263524615e+00 4.0587080892871539e+00 0.0000000000000000e+00 0 0 0
90 1 5.0979153202534064e+00 5.0173813990872880e+00 0.0000000000000000e+00 0 0 0
91 1 5.6639833195247755e+00 4.0587690704404489e+00 0.0000000000000000e+00 0 0 0
92 1 6.2305551824295442e+00 5.0174824868813017e+00 0.0000000000000000e+00 0 0 0
93 1 6.7966220748571669e+00 4.0588200390400129e+00 0.0000000000000000e+00 0 0 0
94 1 7.3631519876339633e+00 5.0175617795367824e+00 0.0000000000000000e+00 0 0 0
95 1 7.9292347620768062e+00 4.0588559557915787e+00 0.0000000000000000e+00 0 0 0
96 1 8.4957150696300925e+00 5.0176118394895646e+00 0.0000000000000000e+00 0 0 0
97 1 9.0618297669257259e+00 4.0588738859603266e+00 0.0000000000000000e+00 0 0 0
98 1 9.6282574219214077e+00 5.0176289672989007e+00 0.0000000000000000e+00 0 0 0
99 1 1.0194417159454611e+01 4.0588730767572860e+00 0.0000000000000000e+00 0 0 0
100 1 1.0760794315385466e+01 5.0176131474245498e+00 0.0000000000000000e+00 0 0 0
101 1 1.1327007580768864e+01 4.0588546552053515e+00 0.0000000000000000e+00 0 0 0
102 1 1.1893341583868121e+01 5.0175674119454996e+00 0.0000000000000000e+00 0 0 0
103 1 1.2459611156068675e+01 4.0588211205885418e+00 0.0000000000000000e+00 0 0 0
104 1 1.3025913928919357e+01 5.0174969437432848e+00 0.0000000000000000e+00 0 0 0
105 1 1.3592236588154931e+01 4.0587758328652299e+00 0.0000000000000000e+00 0 0 0
106 1 1.4158523495745847e+01 5.0174082592346645e+00 0.0000000000000000e+00 0 0 0
107 1 1.4724890484932756e+01 4.0587226477181808e+00 0.0000000000000000e+00 0 0 0
108 1 1.5291178803597106e+01 5.0173086870307237e+00 0.0000000000000000e+00 0 0 0
109 1 1.5857576888353359e+01 4.0586657476126140e+00 0.0000000000000000e+00 0 0 0
110 1 1.6423884000624799e+01 5.0172061640888863e+00 0.0000000000000000e+00 0 0 0
111 1 1.6990296946466405e+01 4.0586096139851531e+00 0.0000000000000000e+00 0 0 0
112 1 1.7556638404998214e+01 5.0171091825602536e+00 0.0000000000000000e+00 0 0 0
113 1 1.8123048711157228e+01 4.0585590083330025e+00 0.0000000000000000e+00 0 0 0
114 1 1.8689436384449273e+01 5.0170266065355777e+00 0.0000000000000000e+00 0 0 0
115 1 1.9255827121600600e+01 4.0585188068824696e+00 0.0000000000000000e+00 0 0 0
116 1 1.9822267727126505e+01 5.0169670887341100e+00 0.0000000000000000e+00 0 0 0
117 1 2.0388624292977298e+01 4.0584935738800203e+00 0.0000000000000000e+00 0 0 0
118 1 2.0955118660666272e+01 5.0169379847636248e+00 0.0000000000000000e+00 0 0 0
119 1 2.1521430213723754e+01 4.0584868720623906e+00 0.0000000000000000e+00 0 0 0
120 1 2.2087973498256840e+01 5.0169439545250629e+00 0.0000000000000000e+00 0 0 0
121 1 6.5693888433665819e-04 5.9753894955957820e+00 0.0000000000000000e+00 0 0 0
122 1 5.6732815172745055e-01 6.9338399304063270e+00 0.0000000000000000e+00 0 0 0
123 1 1.1335287178365945e+00 5.9754794631117711e+00 0.0000000000000000e+00 0 0 0
124 1 1.7002170239497103e+00 6.9340002985609068e+00 0.0000000000000000e+00 0 0 0
125 1 2.2663607603415961e+00 5.9756128140497200e+00 0.0000000000000000e+00 0 0 0
126 1 2.8330530781363672e+00 6.9342120448719999e+00 0.0000000000000000e+00 0 0 0
127 1 3.3991419489134609e+00 5.9757753571666763e+00 0.0000000000000000e+00 0 0 0
128 1 3.9658260192240613e+00 6.9344537679961507e+00 0.0000000000000000e+00 0 0 0
129 1 4.5318648361825700e+00 5.9759497256682410e+00 0.0000000000000000e+00 0 0 0
130 1 5.0985283212441441e+00 6.9347011709619251e+00 0.0000000000000000e+00 0 0 0
131 1 5.6645260085061278e+00 5.9761173336292988e+00 0.0000000000000000e+00 0 0 0
132 1 6.2311560978848899e+00 6.9349290616610286e+00 0.0000000000000000e+00 0 0 0
133 1 6.7971269443565747e+00 5.9762605495489280e+00 0.0000000000000000e+00 0 0 0
134 1 7.3637111409380722e+00 6.9351139899270322e+00 0.0000000000000000e+00 0 0 0
135 1 7.9296749255956041e+00 5.9763649377635293e+00 0.0000000000000000e+00 0 0 0
136 1 8.4962030194710927e+00 6.9352373287964380e+00 0.0000000000000000e+00 0 0 0
137 1 9.0621832354873675e+00 5.9764210443253543e+00 0.0000000000000000e+00 0 0 0
138 1 9.6286498073427680e+00 6.9352878316174378e+00 0.0000000000000000e+00 0 0 0
139 1 1.0194670187278859e+01 5.9764252099845692e+00 0.0000000000000000e+00 0 0 0
140 1 1.0761076657788550e+01 6.9352626758233988e+00 0.0000000000000000e+00 0 0 0
141 1 1.1327157075090911e+01 5.9763792530010624e+00 0.0000000000000000e+00 0 0 0
142 1 1.1893512574619942e+01 6.9351667929726579e+00 0.0000000000000000e+00 0 0 0
143 1 1.2459665575239395e+01 5.9762893326393627e+00 0.0000000000000000e+00 0 0 0
144 1 1.3025986375565017e+01 6.9350110693313853e+00 0.0000000000000000e+00 0 0 0
145 1 1.3592215193397568e+01 5.9761645662970668e+00 0.0000000000000000e+00 0 0 0
146 1 1.4158522852873338e+01 6.9348103731164086e+00 0.0000000000000000e+00 0 0 0
147 1 1.4724821146400661e+01 5.9760159211600943e+00 0.0000000000000000e+00 0 0 0
148 1 1.5291139696354101e+01 6.9345821426564456e+00 0.0000000000000000e+00 0 0 0
149 1 1.5857492801384174e+01 5.9758556179168476e+00 0.0000000000000000e+00 0 0 0
150 1 1.6423845342403485e+01 6.9343457083902562e+00 0.0000000000000000e+00 0 0 0
151 1 1.6990232659392920e+01 5.9756969240409656e+00 0.0000000000000000e+00 0 0 0
152 1 1.7556637811168688e+01 6.9341219348234606e+00 0.0000000000000000e+00 0 0 0
153 1 1.8123035927190724e+01 5.9755539362099377e+00 0.0000000000000000e+00 0 0 0
154 1 1.8689504786395585e+01 6.9339324030079297e+00 0.0000000000000000e+00 0 0 0
155 1 1.9255890870078105e+01 5.9754408656724385e+00 0.0000000000000000e+00 0 0 0
156 1 1.9822425360651039e+01 6.9337974543626846e+00 0.0000000000000000e+00 0 0 0
157 1 2.0388780199969101e+01 5.9753705251759808e+00 0.0000000000000000e+00 0 0 0
158 1 2.0955373611320280e+01 6.9337330661143222e+00 0.0000000000000000e+00 0 0 0
159 1 2.1521683507254988e+01 5.9753521824721574e+00 0.0000000000000000e+00 0 0 0
160 1 2.2088323232189435e+01 6.9337475792566039e+00 0.0000000000000000e+00 0 0 0
161 1 1.1151815023353693e-03 7.8921416571122727e+00 0.0000000000000000e+00 0 0 0
162 1 5.6789887436851039e-01 8.8505576275120745e+00 0.0000000000000000e+00 0 0 0
163 1 1.1340615020344891e+00 7.8923152028921146e+00 0.0000000000000000e+00 0 0 0
164 1 1.7008494977197184e+00 8.8508369646616227e+00 0.0000000000000000e+00 0 0 0
165 1 2.2669564852467339e+00 7.8925678787693965e+00 0.0000000000000000e+00 0 0 0
166 1 2.8337429988374914e+00 8.8512007799959171e+00 0.0000000000000000e+00 0 0 0
167 1 3.3997890834793392e+00 7.8928753791925752e+00 0.0000000000000000e+00 0 0 0
168 1 3.9665700017177907e+00 8.8516188392723496e+00 0.0000000000000000e+00 0 0 0
169 1 4.5325491541722158e+00 7.8932093579911635e+00 0.0000000000000000e+00 0 0 0
170 1 5.0993179760197034e+00 8.8520570451664753e+00 0.0000000000000000e+00 0 0 0
171 1 5.6652272696563086e+00 7.8935385042762318e+00 0.0000000000000000e+00 0 0 0
172 1 6.2319722558852177e+00 8.8524768944511472e+00 0.0000000000000000e+00 0 0 0
173 1 6.7978170214800082e+00 7.8938302754648539e+00 0.0000000000000000e+00 0 0 0
174 1 7.3645207249719933e+00 8.8528366651387476e+00 0.0000000000000000e+00 0 0 0
175 1 7.9303191911043118e+00 7.8940542651579788e+00 0.0000000000000000e+00 0 0 0
176 1 8.4969615618418324e+00 8.8530963542120293e+00 0.0000000000000000e+00 0 0 0
177 1 9.0627458585593441e+00 7.8941868850969135e+00 0.0000000000000000e+00 0 0 0
178 1 9.6293104463590424e+00 8.8532254399208412e+00 0.0000000000000000e+00 0 0 0
179 1 1.0195121730902658e+01 7.8942152485172352e+00 0.0000000000000000e+00 0 0 0
180 1 1.0761602408503441e+01 8.8532092085980238e+00 0.0000000000000000e+00 0 0 0
181 1 1.1327481649719793e+01 7.8941385508356099e+00 0.0000000000000000e+00 0 0 0
182 1 1.1893886870241856e+01 8.8530505445055354e+00 0.0000000000000000e+00 0 0 0
183 1 1.2459865179342737e+01 7.8939667557582798e+00 0.0000000000000000e+00 0 0 0
184 1 1.3026218291904378e+01 8.8527674547956821e+00 0.0000000000000000e+00 0 0 0
185 1 1.3592310202433307e+01 7.8937178025905181e+00 0.0000000000000000e+00 0 0 0
186 1 1.4158645900042497e+01 8.8523887379317436e+00 0.0000000000000000e+00 0 0 0
187 1 1.4724847145311326e+01 7.8934149070498600e+00 0.0000000000000000e+00 0 0 0
188 1 1.5291205081244327e+01 8.8519503874602243e+00 0.0000000000000000e+00 0 0 0
189 1 1.5857494607334019e+01 7.8930848995638652e+00 0.0000000000000000e+00 0 0 0
190 1 1.6423911366860466e+01 8.8514936483282209e+00 0.0000000000000000e+00 0 0 0
191 1 1.6990256625068444e+01 7.8927574412240151e+00 0.0000000000000000e+00 0 0 0
192 1 1.7556757521848787e+01 8.8510636099500459e+00 0.0000000000000000e+00 0 0 0
193 1 1.8123121878813144e+01 7.8924640508501298e+00 0.0000000000000000e+00 0 0 0
194 1 1.8689714850348466e+01 8.8507060559423465e+00 0.0000000000000000e+00 0 0 0
195 1 1.9256065579477248e+01 7.8922356001392169e+00 0.0000000000000000e+00 0 0 0
196 1 1.9822740225596814e+01 8.8504608774193994e+00 0.0000000000000000e+00 0 0 0
197 1 2.0389054599310764e+01 7.8920977743942782e+00 0.0000000000000000e+00 0 0 0
198 1 2.0955788196198530e+01 8.8503534864083591e+00 0.0000000000000000e+00 0 0 0
199 1 2.1522054950758765e+01 7.8920658349416701e+00 0.0000000000000000e+00 0 0 0
200 1 2.2088823030833748e+01 8.8503894045591807e+00 0.0000000000000000e+00 0 0 0
201 1 1.7402898961801966e-03 9.8087331458102049e+00 0.0000000000000000e+00 0 0 0
202 1 5.6862550253253785e-01 1.0767129063577668e+01 0.0000000000000000e+00 0 0 0
203 1 1.1347351125604563e+00 9.8090210312609756e+00 0.0000000000000000e+00 0 0 0
204 1 1.7016010961270076e+00 1.0767553944884048e+01 0.0000000000000000e+00 0 0 0
205 1 2.2676800733457139e+00 9.8094251915038573e+00 0.0000000000000000e+00 0 0 0
206 1 2.8345388558320415e+00 1.0768094021206529e+01 0.0000000000000000e+00 0 0 0
207 1 3.4005711921286008e+00 9.8099146303251388e+00 0.0000000000000000e+00 0 0 0
208 1 3.9674359888022686e+00 1.0768719604543580e+01 0.0000000000000000e+00 0 0 0
209 1 4.5333977826109315e+00 9.8104561733570019e+00 0.0000000000000000e+00 0 0 0
210 1 5.1002760963180327e+00 1.0769398202643465e+01 0.0000000000000000e+00 0 0 0
211 1 5.6661407887052828e+00 9.8110111848429966e+00 0.0000000000000000e+00 0 0 0
212 1 6.2330282022400469e+00 1.0770087202120337e+01 0.0000000000000000e+00 0 0 0
213 1 6.7987755062394477e+00 9.8115326503110527e+00 0.0000000000000000e+00 0 0 0
214 1 7.3656514287550623e+00 1.0770727843890981e+01 0.0000000000000000e+00 0 0 0
215 1 7.9312798141889260e+00 9.8119658218493768e+00 0.0000000000000000e+00 0 0 0
216 1 8.4981076412551477e+00 1.0771244633836279e+01 0.0000000000000000e+00 0 0 0
217 1 9.0636474998261161e+00 9.8122560909429151e+00 0.0000000000000000e+00 0 0 0
218 1 9.6303843877347930e+00 1.0771559046035311e+01 0.0000000000000000e+00 0 0 0
219 1 1.0195900672859819e+01 9.8123627359180627e+00 0.0000000000000000e+00 0 0 0
220 1 1.0762516251278290e+01 1.0771614844517241e+01 0.0000000000000000e+00 0 0 0
221 1 1.1328091472906591e+01 9.8122692653101016e+00 0.0000000000000000e+00 0 0 0
222 1 1.1894584725285364e+01 1.0771394980275380e+01 0.0000000000000000e+00 0 0 0
223 1 1.2460291956550108e+01 9.8119854743716211e+00 0.0000000000000000e+00 0 0 0
224 1 1.3026697175518089e+01 1.0770922584297365e+01 0.0000000000000000e+00 0 0 0
225 1 1.3592577560562113e+01 9.8115426529845742e+00 0.0000000000000000e+00 0 0 0
226 1 1.4158957523975143e+01 1.0770251678533704e+01 0.0000000000000000e+00 0 0 0
227 1 1.4725010595311739e+01 9.8109868569230709e+00 0.0000000000000000e+00 0 0 0
228 1 1.5291439665423439e+01 1.0769456959141509e+01 0.0000000000000000e+00 0 0 0
229 1 1.5857627568713173e+01 9.8103742214932304e+00 0.0000000000000000e+00 0 0 0
230 1 1.6424169320270668e+01 1.0768628052568168e+01 0.0000000000000000e+00 0 0 0
231 1 1.6990431516954079e+01 9.8097684628141781e+00 0.0000000000000000e+00 0 0 0
232 1 1.7557116532362020e+01 1.0767864432631596e+01 0.0000000000000000e+00 0 0 0
233 1 1.8123390991250901e+01 9.8092369760472078e+00 0.0000000000000000e+00 0 0 0
234 1 1.8690204705628890e+01 1.0767262063551410e+01 0.0000000000000000e+00 0 0 0
235 1 1.9256448808830498e+01 9.8088413825519911e+00 0.0000000000000000e+00 0 0 0
236 1 1.9823340586830241e+01 1.0766888821404979e+01 0.0000000000000000e+00 0 0 0
237 1 2.0389541413400988e+01 9.8086229912274785e+00 0.0000000000000000e+00 0 0 0
238 1 2.0956458511796701e+01 1.0766759511236279e+01 0.0000000000000000e+00 0 0 0
239 1 2.1522621458778595e+01 9.8085916713182311e+00 0.0000000000000000e+00 0 0 0
240 1 2.2089529168272502e+01 1.0766851883618157e+01 0.0000000000000000e+00 0 0 0
241 1 2.5440858595377333e-03 1.1725176449724485e+01 0.0000000000000000e+00 0 0 0
242 1 5.6945959459694062e-01 1.2683596360703445e+01 0.0000000000000000e+00 0 0 0
243 1 1.1355189649219313e+00 1.1725603142335736e+01 0.0000000000000000e+00 0 0 0
244 1 1.7023827890664067e+00 1.2684167657575470e+01 0.0000000000000000e+00 0 0 0
245 1 2.2684713496063051e+00 1.1726169790097240e+01 0.0000000000000000e+00 0 0 0
246 1 2.8353214317297493e+00 1.2684869845626739e+01 0.0000000000000000e+00 0 0 0
247 1 3.4014115221528614e+00 1.1726849793467629e+01 0.0000000000000000e+00 0 0 0
248 1 3.9682847366436711e+00 1.2685690043118647e+01 0.0000000000000000e+00 0 0 0
249 1 4.5343333925353440e+00 1.1727620546655658e+01 0.0000000000000000e+00 0 0 0
250 1 5.1012595788864648e+00 1.2686617936467927e+01 0.0000000000000000e+00 0 0 0
251 1 5.6672100999124009e+00 1.1728453321807010e+01 0.0000000000000000e+00 0 0 0
252 1 6.2342050679378476e+00 1.2687631443781253e+01 0.0000000000000000e+00 0 0 0
253 1 6.7999929539663801e+00 1.1729301393807379e+01 0.0000000000000000e+00 0 0 0
254 1 7.3670487632296053e+00 1.2688678524169049e+01 0.0000000000000000e+00 0 0 0
255 1 7.9326168577620031e+00 1.1730088752185795e+01 0.0000000000000000e+00 0 0 0
256 1 8.4996909972151879e+00 1.2689657545646673e+01 0.0000000000000000e+00 0 0 0
257 1 9.0650186324858186e+00 1.1730705889838760e+01 0.0000000000000000e+00 0 0 0
258 1 9.6320279172941738e+00 1.2690401359419884e+01 0.0000000000000000e+00 0 0 0
259 1 1.0197176988949883e+01 1.1731033591325737e+01 0.0000000000000000e+00 0 0 0
260 1 1.0764025265158372e+01 1.2690719979755405e+01 0.0000000000000000e+00 0 0 0
261 1 1.1329151471753224e+01 1.1730992082437087e+01 0.0000000000000000e+00 0 0 0
262 1 1.1895793457864773e+01 1.2690499952724066e+01 0.0000000000000000e+00 0 0 0
263 1 1.2461074954083520e+01 1.1730568008302011e+01 0.0000000000000000e+00 0 0 0
264 1 1.3027557263784812e+01 1.2689744664661927e+01 0.0000000000000000e+00 0 0 0
265 1 1.3593109813371450e+01 1.1729811224797992e+01 0.0000000000000000e+00 0 0 0
266 1 1.4159562461497188e+01 1.2688557996910490e+01 0.0000000000000000e+00 0 0 0
267 1 1.4725395146103379e+01 1.1728816806025771e+01 0.0000000000000000e+00 0 0 0
268 1 1.5291979336937130e+01 1.2687112353846338e+01 0.0000000000000000e+00 0 0 0
269 1 1.5858003969640130e+01 1.1727709969544065e+01 0.0000000000000000e+00 0 0 0
270 1 1.6424834380846097e+01 1.2685627373535834e+01 0.0000000000000000e+00 0 0 0
271 1 1.6990919595491782e+01 1.1726637864021814e+01 0.0000000000000000e+00 0 0 0
272 1 1.7557997576834389e+01 1.2684345428666392e+01 0.0000000000000000e+00 0 0 0
273 1 1.8124040077451223e+01 1.1725751812758334e+01 0.0000000000000000e+00 0 0 0
274 1 1.8691233014266899e+01 1.2683475493290855e+01 0.0000000000000000e+00 0 0 0
275 1 1.9257221467828444e+01 1.1725167602985902e+01 0.0000000000000000e+00 0 0 0
276 1 1.9824402296022900e+01 1.2683041511515679e+01 0.0000000000000000e+00 0 0 0
277 1 2.0390369399207284e+01 1.1724905550220807e+01 0.0000000000000000e+00 0 0 0
278 1 2.0957468093457749e+01 1.2682973372169659e+01 0.0000000000000000e+00 0 0 0
279 1 2.1523449818304549e+01 1.1724927159323300e+01 0.0000000000000000e+00 0 0 0
280 1 2.2090449109149038e+01 1.2683182366055206e+01 0.0000000000000000e+00 0 0 0
281 1 3.4599372752678664e-03 1.3641562113178441e+01 0.0000000000000000e+00 0 0 0
282 1 5.7026645299712297e-01 1.4600072778762289e+01 0.0000000000000000e+00 0 0 0
283 1 1.1363018176625184e+00 1.3642122621820601e+01 0.0000000000000000e+00 0 0 0
284 1 1.7030304397851530e+00 1.4600744808517264e+01 0.0000000000000000e+00 0 0 0
285 1 2.2691832178537314e+00 1.3642819174389231e+01 0.0000000000000000e+00 0 0 0
286 1 2.8358920720180945e+00 1.4601540713388465e+01 0.0000000000000000e+00 0 0 0
287 1 3.4021290160499604e+00 1.3643644649633430e+01 0.0000000000000000e+00 0 0 0
288 1 3.9688713598453158e+00 1.4602477110803298e+01 0.0000000000000000e+00 0 0 0
289 1 4.5351441054704758e+00 1.3644605343002951e+01 0.0000000000000000e+00 0 0 0
290 1 5.1019693529741863e+00 1.4603583498422479e+01 0.0000000000000000e+00 0 0 0
291 1 5.6682074099496385e+00 1.3645707993168530e+01 0.0000000000000000e+00 0 0 0
292 1 6.2351598742721581e+00 1.4604888485699654e+01 0.0000000000000000e+00 0 0 0
293 1 6.8012626955016664e+00 1.3646941178415421e+01 0.0000000000000000e+00 0 0 0
294 1 7.3683745276621622e+00 1.4606397643582930e+01 0.0000000000000000e+00 0 0 0
295 1 7.9342088141787288e+00 1.3648248663869856e+01 0.0000000000000000e+00 0 0 0
296 1 8.5014805494154277e+00 1.4608055299059714e+01 0.0000000000000000e+00 0 0 0
297 1 9.0668968877652869e+00 1.3649493406156790e+01 0.0000000000000000e+00 0 0 0
298 1 9.6342620410232698e+00 1.4609684783907733e+01 0.0000000000000000e+00 0 0 0
299 1 1.0199152905272882e+01 1.3650407439181874e+01 0.0000000000000000e+00 0 0 0
300 1 1.0766413330496736e+01 1.4610836305969919e+01 0.0000000000000000e+00 0 0 0
301 1 1.1330921232704116e+01 1.3650669393063648e+01 0.0000000000000000e+00 0 0 0
302 1 1.1897841502623006e+01 1.4610930556808350e+01 0.0000000000000000e+00 0 0 0
303 1 1.2462421601307861e+01 1.3650120591395567e+01 0.0000000000000000e+00 0 0 0
304 1 1.3029018938638984e+01 1.4609761134444172e+01 0.0000000000000000e+00 0 0 0
305 1 1.3594046992755665e+01 1.3648816127477271e+01 0.0000000000000000e+00 0 0 0
306 1 1.4160647838817273e+01 1.4607529632893289e+01 0.0000000000000000e+00 0 0 0
307 1 1.4726158301286814e+01 1.3646976680611393e+01 0.0000000000000000e+00 0 0 0
308 1 1.5293172565463893e+01 1.4604737496674128e+01 0.0000000000000000e+00 0 0 0
309 1 1.5858902039329786e+01 1.3644935977195637e+01 0.0000000000000000e+00 0 0 0
310 1 1.6426542400228328e+01 1.4602024837155536e+01 0.0000000000000000e+00 0 0 0
311 1 1.6992136000094352e+01 1.3643085312965626e+01 0.0000000000000000e+00 0 0 0
312 1 1.7559955069272618e+01 1.4600235886953440e+01 0.0000000000000000e+00 0 0 0
313 1 1.8125444003110619e+01 1.3641827838397322e+01 0.0000000000000000e+00 0 0 0
314 1 1.8693119558449155e+01 1.4599324386000902e+01 0.0000000000000000e+00 0 0 0
315 1 1.9258622464532973e+01 1.3641178402937728e+01 0.0000000000000000e+00 0 0 0
316 1 1.9826034884164418e+01 1.4599040434292966e+01 0.0000000000000000e+00 0 0 0
317 1 2.0391639577074734e+01 1.3641005830730871e+01 0.0000000000000000e+00 0 0 0
318 1 2.0958793244869717e+01 1.4599158580846662e+01 0.0000000000000000e+00 0 0 0
319 1 2.1524539566888354e+01 1.3641168546895004e+01 0.0000000000000000e+00 0 0 0
320 1 2.2091487241099536e+01 1.4599530965127977e+01 0.0000000000000000e+00 0 0 0
321 1 4.3165808837657372e-03 1.5558056864296654e+01 0.0000000000000000e+00 0 0 0
322 1 5.7083714563799326e-01 1.6516708751979007e+01 0.0000000000000000e+00 0 0 0
323 1 1.1369032012442155e+00 1.5558694023524415e+01 0.0000000000000000e+00 0 0 0
324 1 1.7033478671452040e+00 1.6517390053019362e+01 0.0000000000000000e+00 0 0 0
325 1 2.2696166894760093e+00 1.5559438272441989e+01 0.0000000000000000e+00 0 0 0
326 1 2.8360390517176817e+00 1.6518173675862919e+01 0.0000000000000000e+00 0 0 0
327 1 3.4024835472607537e+00 1.5560308985846410e+01 0.0000000000000000e+00 0 0 0
328 1 3.9689280293273477e+00 1.6519102391285173e+01 0.0000000000000000e+00 0 0 0
329 1 4.5355194771089229e+00 1.5561347597079759e+01 0.0000000000000000e+00 0 0 0
330 1 5.1020300316691811e+00 1.6520241802728972e+01 0.0000000000000000e+00 0 0 0
331 1 5.6687261068083830e+00 1.5562609975559823e+01 0.0000000000000000e+00 0 0 0
332 1 6.2353553251066147e+00 1.6521676870813170e+01 0.0000000000000000e+00 0 0 0
333 1 6.8020803209306022e+00 1.5564154380715671e+01 0.0000000000000000e+00 0 0 0
334 1 7.3688969132482525e+00 1.6523504940606951e+01 0.0000000000000000e+00 0 0 0
335 1 7.9355107433004930e+00 1.5566016713593251e+01 0.0000000000000000e+00 0 0 0
336 1 8.5025988576228730e+00 1.6525815249413437e+01 0.0000000000000000e+00 0 0 0
337 1 9.0688572861916743e+00 1.5568159644275148e+01 0.0000000000000000e+00 0 0 0
338 1 9.6362867759002064e+00 1.6528628994685398e+01 0.0000000000000000e+00 0 0 0
339 1 1.0201819017728946e+01 1.5570385216229328e+01 0.0000000000000000e+00 0 0 0
340 1 1.0769583800973923e+01 1.6531845844888416e+01 0.0000000000000000e+00 0 0 0
341 1 1.1333827071325254e+01 1.5571891707346142e+01 0.0000000000000000e+00 0 0 0
342 1 1.1901384079738815e+01 1.6533906438348030e+01 0.0000000000000000e+00 0 0 0
343 1 1.2464735369608531e+01 1.5571536667850689e+01 0.0000000000000000e+00 0 0 0
344 1 1.3031616332415751e+01 1.6532264065445577e+01 0.0000000000000000e+00 0 0 0
345 1 1.3595655007692846e+01 1.5569123466092078e+01 0.0000000000000000e+00 0 0 0
346 1 1.4162673858547034e+01 1.6527452690896975e+01 0.0000000000000000e+00 0 0 0
347 1 1.4727720485417455e+01 1.5565353830287787e+01 0.0000000000000000e+00 0 0 0
348 1 1.5296922688141537e+01 1.6520776714395723e+01 0.0000000000000000e+00 0 0 0
349 1 1.5861362778086731e+01 1.5561222799294468e+01 0.0000000000000000e+00 0 0 0
350 1 1.6430601172841506e+01 1.6517208583528205e+01 0.0000000000000000e+00 0 0 0
351 1 1.6994922716392164e+01 1.5558699760506759e+01 0.0000000000000000e+00 0 0 0
352 1 1.7563499738678178e+01 1.6515675589984340e+01 0.0000000000000000e+00 0 0 0
353 1 1.8128019408521833e+01 1.5557486534354460e+01 0.0000000000000000e+00 0 0 0
354 1 1.8695872352982320e+01 1.6515215010141834e+01 0.0000000000000000e+00 0 0 0
355 1 1.9260742856192188e+01 1.5557098710840322e+01 0.0000000000000000e+00 0 0 0
356 1 1.9828039670247652e+01 1.6515278710047973e+01 0.0000000000000000e+00 0 0 0
357 1 2.0393271644052639e+01 1.5557181842904438e+01 0.0000000000000000e+00 0 0 0
358 1 2.0960186167839215e+01 1.6515618076673135e+01 0.0000000000000000e+00 0 0 0
359 1 2.1525740973565441e+01 1.5557536533469163e+01 0.0000000000000000e+00 0 0 0
360 1 2.2092409007659992e+01 1.6516113225524911e+01 0.0000000000000000e+00 0 0 0
361 1 4.8529541639103424e-03 1.7474826118864232e+01 0.0000000000000000e+00 0 0 0
362 1 5.7093835977538809e-01 1.8433654344787417e+01 0.0000000000000000e+00 0 0 0
363 1 1.1371184592334547e+00 1.7475436697267657e+01 0.0000000000000000e+00 0 0 0
364 1 1.7031721612449391e+00 1.8434245395923575e+01 0.0000000000000000e+00 0 0 0
365 1 2.2695912343467985e+00 1.7476125500853652e+01 0.0000000000000000e+00 0 0 0
366 1 2.8356286616018873e+00 1.8434926390559969e+01 0.0000000000000000e+00 0 0 0
367 1 3.4022762478393873e+00 1.7476929029147396e+01 0.0000000000000000e+00 0 0 0
368 1 3.9683006032101118e+00 1.8435747821965681e+01 0.0000000000000000e+00 0 0 0