LAMMPS (15 Feb 2016)
Running on 4 partitions of processors
Step MaxReplicaForce MaxAtomForce GradV0 GradV1 GradVc EBF EBR RDT RD1 PE1 RD2 PE2 ... RDN PEN
0    4327.2753    2746.3378    0.3387091    5.0075576    4514.5424   0.42933428   0.42323635    1.8941131            0   -3.0535948   0.33333333   -2.6242605   0.66666667   -2.7623811            1   -3.0474969 
100   0.10482184  0.085218486  0.014588241  0.066178594   0.19602237 0.0070900402 0.0022691875    2.3031875            0   -3.0535967   0.31839181   -3.0473647   0.63987598   -3.0465067            1   -3.0487759 
111  0.096708467   0.07803707  0.013922973   0.05417562    0.2023467 0.0070871172 0.0022668002    2.3052945            0   -3.0535968   0.31853431   -3.0473633   0.64178871   -3.0465096            1   -3.0487764 
Climbing replica = 3
Step MaxReplicaForce MaxAtomForce GradV0 GradV1 GradVc EBF EBR RDT RD1 PE1 RD2 PE2 ... RDN PEN
111    0.2023467    0.1777038  0.013922973   0.05417562    0.2023467 0.0070871172 0.0022668002    2.3052945            0   -3.0535968   0.31853431   -3.0473633   0.64178871   -3.0465096            1   -3.0487764 
179  0.096874474  0.090676856   0.01040177  0.023364005  0.096874474 0.0071047642 0.0022856172    2.3122768            0   -3.0535969   0.31577311   -3.0473955   0.61798541   -3.0464922            1   -3.0487778 
