LAMMPS (10 Jan 2012)
Running on 4 partitions of processors
Step MaxReplicaForce MaxAtomForce GradV0 GradV1 GradVc EBF EBR RDT RD1 PE1 RD2 PE2 ... RDN PEN
0 14.4706 10.6542 0.404678 5.00393 14.6544 0.00184975 0.000683899 0.983929 0 -3.05148 0.333333 -3.04963 0.666667 -3.04964 1 -3.05032 
100 0.306936 0.142146 0.0645404 0.189924 0.558396 0.00153707 0.00153179 1.15591 0 -3.05149 0.287862 -3.05036 0.589376 -3.04995 1 -3.05148 
200 0.108674 0.0574548 0.0438421 0.05149 0.848466 0.00145851 0.00145766 1.16921 0 -3.05149 0.296608 -3.05032 0.622995 -3.05003 1 -3.05149 
300 0.116622 0.0305167 0.0306663 0.034651 1.01168 0.00140647 0.00140608 1.17007 0 -3.05149 0.309843 -3.05026 0.641883 -3.05009 1 -3.05149 
400 0.0571062 0.0165129 0.0209893 0.0233489 1.10722 0.0013733 0.00137311 1.17045 0 -3.05149 0.319454 -3.05022 0.652519 -3.05012 1 -3.05149 
500 0.0936843 0.0214814 0.0148238 0.0166974 1.15805 0.0013547 0.00135461 1.17063 0 -3.05149 0.324916 -3.0502 0.658164 -3.05014 1 -3.05149 
600 0.0256037 0.00569449 0.00957937 0.010672 1.19522 0.00134096 0.00134092 1.17082 0 -3.05149 0.328921 -3.05019 0.662223 -3.05015 1 -3.05149 
700 0.0537028 0.0124766 0.00682065 0.00772411 1.24647 0.00133485 0.00133482 1.17089 0 -3.05149 0.330657 -3.05018 0.663973 -3.05016 1 -3.05149 
720 0.00938685 0.0029987 0.00659695 0.00738331 1.24685 0.0013344 0.00133437 1.17091 0 -3.05149 0.330771 -3.05018 0.664084 -3.05016 1 -3.05149 
Climbing replica = 3
Step MaxReplicaForce MaxAtomForce GradV0 GradV1 GradVc EBF EBR RDT RD1 PE1 RD2 PE2 ... RDN PEN
720 1.24685 1.21665 0.00659695 0.00738331 1.24685 0.0013344 0.00133437 1.17091 0 -3.05149 0.330771 -3.05018 0.664084 -3.05016 1 -3.05149 
820 0.141266 0.078847 0.00449505 0.0051238 0.141266 0.00160235 0.00160233 1.17165 0 -3.05149 0.285752 -3.05036 0.501494 -3.04989 1 -3.05149 
920 0.0431108 0.0386382 0.00357902 0.00407779 0.0120304 0.00160204 0.00160203 1.17255 0 -3.05149 0.269474 -3.05045 0.503342 -3.04989 1 -3.05149 
1020 0.0302964 0.0117196 0.0024504 0.00286103 0.0302964 0.00160193 0.00160192 1.17392 0 -3.05149 0.257973 -3.05051 0.504507 -3.04989 1 -3.05149 
1102 0.00929979 0.00561668 0.00189518 0.00224715 0.00789551 0.00160187 0.00160187 1.17439 0 -3.05149 0.255249 -3.05053 0.504922 -3.04989 1 -3.05149 
