LAMMPS (22 Dec 2022)
Running on 4 partitions of processors
    Step     MaxReplicaForce  MaxAtomForce      GradV0         GradV1         GradVc          EBF            EBR            RDT            RD1            PE1            RD2            PE2            RD3            PE3            RD4            PE4       
         0   229.26196        21515.76       2.9774577      4.4127369      233.11559      0.023301843    0.0224626      1.4763579      0              -3.048332      0.33333333     -3.0250302     0.66666667     -3.0291888     1              -3.0474928     
       100   0.11027532       0.0072949206   3.0967938      0.024201563    0.38551033     0.0017583261   0.0021866943   1.7710358      0              -3.0483469     0.31192818     -3.0465886     0.61093022     -3.0466143     1              -3.0487752     
       130   0.09954083       0.0056973977   3.0927626      0.015664388    0.37491833     0.0017573704   0.0021913201   1.7713726      0              -3.048342      0.31428487     -3.0465846     0.61762817     -3.0466296     1              -3.048776      
Climbing replica = 2
    Step     MaxReplicaForce  MaxAtomForce      GradV0         GradV1         GradVc          EBF            EBR            RDT            RD1            PE1            RD2            PE2            RD3            PE3            RD4            PE4       
       130   0.37838747       0.12267051     3.0927626      0.015664388    0.37491833     0.0017573704   0.0021913201   1.7713726      0              -3.048342      0.31428487     -3.0465846     0.61762817     -3.0466296     1              -3.048776      
       230   0.14827532       0.015635771    3.1230352      0.0083310795   0.14070676     0.0018353858   0.0022776729   1.769345       0              -3.0483349     0.39530832     -3.0464995     0.64330942     -3.046694      1              -3.0487772     
       279   0.099842536      0.0074295981   3.1400424      0.0068603912   0.095180758    0.0018424455   0.0022860594   1.7685036      0              -3.0483338     0.41228692     -3.0464914     0.65522525     -3.0467282     1              -3.0487775     
