LAMMPS (19 May 2017)
Running on 4 partitions of processors
Step MaxReplicaForce MaxAtomForce GradV0 GradV1 GradVc EBF EBR RDT RD1 PE1 RD2 PE2 ... RDN PEN
0    4327.2753    2746.3378  0.082169072    4.9967651    4514.5424   0.42933428   0.42323635    1.8941131            0   -3.0535948   0.33333333   -2.6242605   0.66666667   -2.7623811            1   -3.0474969 
87  0.095951792  0.052720902 0.0055889267  0.065110091   0.12467831 0.0071014928 0.0022798007    2.3003372            0   -3.0535967   0.32435271   -3.0473127   0.62805027   -3.0464952            1    -3.048775 
Climbing replica = 3
Step MaxReplicaForce MaxAtomForce GradV0 GradV1 GradVc EBF EBR RDT RD1 PE1 RD2 PE2 ... RDN PEN
87   0.14137297   0.11108954 0.0055889267  0.065110091   0.12467831 0.0071014928 0.0022798007    2.3003372            0   -3.0535967   0.32435271   -3.0473127   0.62805027   -3.0464952            1    -3.048775 
124  0.099582186   0.08593683 0.0044220345  0.023873731  0.091308197 0.0071061754 0.0022863931    2.3081211            0   -3.0535968   0.32223904   -3.0473329   0.61673896   -3.0464906            1    -3.048777 
