LAMMPS (10 Jan 2012)
Running on 4 partitions of processors
Step MaxReplicaForce MaxAtomForce GradV0 GradV1 GradVc EBF EBR RDT RD1 PE1 RD2 PE2 ... RDN PEN
0 4394.41 2794.68 0.412792 4.89878 4588.5 0.435986 0.429935 1.89114 0 -3.05358 0.333333 -2.61759 0.666667 -2.74485 1 -3.04753 
100 0.164918 0.117043 0.0732537 0.15376 0.168525 0.00709739 0.00227166 2.29242 0 -3.05359 0.320281 -3.04734 0.632798 -3.04649 1 -3.04876 
167 0.0994897 0.0756458 0.0581442 0.0748326 0.209589 0.00708285 0.00226221 2.30722 0 -3.05359 0.31926 -3.04735 0.643078 -3.04651 1 -3.04877 
Climbing replica = 3
Step MaxReplicaForce MaxAtomForce GradV0 GradV1 GradVc EBF EBR RDT RD1 PE1 RD2 PE2 ... RDN PEN
167 0.209589 0.180304 0.0581442 0.0748326 0.209589 0.00708285 0.00226221 2.30722 0 -3.05359 0.31926 -3.04735 0.643078 -3.04651 1 -3.04877 
267 0.15398 0.138423 0.0531882 0.0645605 0.15398 0.00709334 0.00227324 2.30913 0 -3.05359 0.319343 -3.04735 0.633026 -3.0465 1 -3.04877 
339 0.0993121 0.0884507 0.0425229 0.0483306 0.0993121 0.00710366 0.00228423 2.31323 0 -3.05359 0.316066 -3.04739 0.617532 -3.04649 1 -3.04877 
