LAMMPS (22 Dec 2022)
Running on 4 partitions of processors
    Step     MaxReplicaForce  MaxAtomForce      GradV0         GradV1         GradVc          EBF            EBR            RDT            RD1            PE1            RD2            PE2            RD3            PE3            RD4            PE4       
         0   14.104748        108.56876      0.1227071      4.999238       8.2087606      0.0018276223   0.00064050211  0.98401186     0              -3.0514921     0.33333333     -3.0496673     0.66666667     -3.0496645     1              -3.050305      
        46   0.049691778      0.001449144    0.0041836599   0.0070455894   0.94610709     0.0014279446   0.0014276971   1.1698782      0              -3.0514942     0.3026746      -3.0502925     0.63457326     -3.0500662     1              -3.0514939     
Climbing replica = 3
    Step     MaxReplicaForce  MaxAtomForce      GradV0         GradV1         GradVc          EBF            EBR            RDT            RD1            PE1            RD2            PE2            RD3            PE3            RD4            PE4       
        46   0.94646532       0.8692782      0.0041836599   0.0070455894   0.94610709     0.0014279446   0.0014276971   1.1698782      0              -3.0514942     0.3026746      -3.0502925     0.63457326     -3.0500662     1              -3.0514939     
        88   0.042941386      0.00046017358  0.0021155242   0.0031463438   0.0095074767   0.0016016953   0.0016016258   1.1725045      0              -3.0514943     0.26292929     -3.0504854     0.50610293     -3.0498926     1              -3.0514943     
