LAMMPS data file generated by get_input.py

219 atoms
3 atom types
-2.5000000000000000e+01 2.5000000000000000e+01 xlo xhi
-2.5000000000000000e+01 2.5000000000000000e+01 ylo yhi
-2.5000000000000000e+01 2.5000000000000000e+01 zlo zhi

Masses

1 1
2 1 
3 1 

Atoms

1 1 0 2.5983275747497636 -8.368052973860795 20.001288664343484
2 1 -1 -18.182868728594865 -8.079792367885453 8.253737231981816
3 1 -1 -17.437350808966414 8.120411567445771 10.747650340639332
4 1 -1 6.502476583291578 -23.497326620756837 19.948223080086798
5 1 -1 -22.528179279677296 -18.783433570718127 -17.964657736688018
6 1 -1 -9.713496019164342 18.97235576760402 -19.495620818582825
7 1 -1 -12.831976006720659 0.12265736526942561 -21.679396938423718
8 1 -1 20.909063679212295 -2.16535062758771 0.46197866620165584
9 1 -1 23.86211981166997 24.024928465132284 10.534067202515907
10 1 -1 -0.5289298325031275 23.820222457999776 -2.657199543669442
11 1 -1 9.57021229491361 11.973871502198485 3.4206509716759186
12 1 -1 -10.201559985782705 7.557482594092384 12.07004973873643
13 1 -1 4.898458045226889 2.0169997859717945 -20.765285372762087
14 1 -1 -24.086606883730077 4.424991619615298 -4.204294764756856
15 1 -1 3.6837161829600795 -4.763233144818308 -12.75873457519811
16 1 -1 -12.217842496816345 -17.720229208905618 -13.556354139556914
17 1 -1 -21.456229140133704 -7.423996317612119 -6.94398044071275
18 1 -1 13.697298849253912 8.503639732052164 8.085487457359058
19 1 -1 -5.764222710061347 11.49890485049034 -5.1113880296575935
20 1 -1 3.9944161041544426 16.928204188257893 -14.875635895409372
21 1 -1 4.509525276444776 16.63590711792657 -22.21846494992397
22 1 -1 22.115374932704306 -18.97293932558108 -23.982486000144267
23 1 -1 14.169061011408473 -16.69837647199978 13.779039228068108
24 1 -1 17.186846147657228 8.827459489898189 23.055435051390333
25 1 -1 2.9822901981431045 -16.83687718528342 -21.278623587083484
26 1 -1 16.657554689423897 -1.6217275605348647 -11.315859420404218
27 1 -1 19.215533149393543 -15.512634977936068 7.2701088767584565
28 1 -1 -8.886744157248422 -24.09644410100167 4.013016013803799
29 1 -1 20.99918340066754 4.4716257356730225 0.3847245765737597
30 1 -1 1.3442294253060716 5.601341425720583 -14.918594492786674
31 1 -1 -6.962977050326831 20.470183675946515 -16.37885865567279
32 1 -1 -9.98531733187143 9.52233798117566 -24.979630708193724
33 1 -1 -17.327989778292306 5.761352103841766 5.720220488689204
34 1 -1 5.168359673466362 -23.698812306679418 2.6199762372169744
35 1 -1 18.978042448492154 6.41188742965139 6.31975357155018
36 1 -1 -16.38534911663758 -14.8262205163943 4.125239045887575
37 1 -1 7.974455406459249 -18.88332583451115 11.00721254217055
38 1 -1 13.779816416416402 1.8581999350851426 9.104219696003227
39 1 -1 -23.90949397031401 -3.346877828308571 -10.228782973473443
40 1 -1 21.61647622174447 8.443955423089903 -19.12066464239769
41 1 -1 -8.823979405515548 14.461154001848172 16.061704411241706
42 1 -1 -2.4406878944912513 12.5535360118296 20.606764200087852
43 1 -1 -18.459404356124697 15.260951448001258 21.187332685021346
44 1 -1 2.2354003384439878 -23.350013178190736 11.369307324043625
45 1 -1 15.595889705552018 -6.6075680254604805 5.434256329408505
46 1 -1 -17.528243443870238 4.109747707896265 -1.4167331089310942
47 1 -1 2.161977144405782 -16.511059804921263 -12.186191310598671
48 1 -1 -8.685671837367341 -7.0743613044263185 -1.1561844713769105
49 1 -1 15.62258718398045 -6.559293763708908 20.556775995508488
50 1 -1 -6.965207014475155 -14.348784897390543 -14.421447863144754
51 1 -1 -12.099361509567913 -24.62785640990423 -15.839126670614329
52 1 -1 6.673854222058246 7.83575773885061 -9.714128155619994
53 1 -1 -17.413453800948826 12.386754276446203 -16.882300786608994
54 1 -1 21.8966589175091 12.485943283688762 -14.553421680298634
55 1 -1 -8.37629917390651 -24.783875012947064 7.454467809536389
56 1 -1 14.081149297694104 -21.719204113108943 -17.447225564400064
57 1 -1 4.681992702049627 1.9719544892622558 -7.823736613205725
58 1 -1 4.353171917533494 15.86928389762705 24.669680272563014
59 1 -1 23.31502072066573 -4.685724298328946 2.459643890128799
60 1 -1 7.0470920520598455 23.016693234922386 -13.139471333592677
61 1 -1 11.725555941181668 -15.809323171320772 -1.6292879532275037
62 1 -1 -20.36388898925061 -12.084932320023162 -22.816700826388757
63 1 -1 -2.492146614764735 -0.7314052253623018 -15.89959178250266
64 1 -1 -22.45303825831233 -11.27996814407809 -9.553770912146142
65 1 -1 24.76771926037101 20.128947543233757 10.528974830883733
66 1 -1 11.326213670190818 -11.624187194192492 -9.687726413467862
67 1 -1 -5.712764220166093 15.778887306376163 -0.9263244618113831
68 1 -1 -15.073201136996362 -12.372916148178115 -5.461704510273556
69 1 -1 -5.82976670348781 -4.57812040989473 9.0443548565365
70 1 -1 -5.429195387856279 1.4542054472230177 -7.397291151203568
71 1 -1 -23.385555726942343 -11.924588975396505 3.8215294321466153
72 1 -1 -1.0694104826815725 2.999945633116507 3.67092922106918
73 1 -1 12.134312161994352 1.9747455475585376 -14.895893366599623
74 1 -1 21.30950120583112 18.97294626436546 -17.520867878211376
75 1 -1 -24.356703356157063 3.594879254976714 17.172993705171677
76 1 -1 12.634233603338409 24.373499564220822 4.561976273909789
77 1 -1 -10.740243207970495 19.345205140729554 -3.3368424800818097
78 1 -1 -3.027848793907552 10.604939843027267 7.493012332728249
79 1 -1 5.000539296336658 11.770088203844622 17.227492055930185
80 1 -1 1.1585200269400353 -24.45822157176123 -12.515688997756257
81 1 -1 1.9163088584430596 -14.064330279670672 11.302445490552905
82 1 -1 -20.857041355570576 21.292791787236673 17.397470691573346
83 1 -1 -24.50473305235651 -12.741459355708756 -1.9325218065560357
84 1 -1 2.658628688373309 -1.1131226252194608 7.491603553398086
85 1 -1 -18.515435126408363 24.20642384141299 14.466889392835121
86 1 -1 19.63928177206153 9.942655640416291 8.691463646789934
87 1 -1 -7.69626451160762 11.762517043363786 -7.457263991495665
88 1 -1 1.051431093064835 -11.460307039827766 16.90304637479744
89 1 -1 0.9157815447227939 23.656751182559688 -6.538587603918376
90 1 -1 23.330169435555234 -7.293893221439802 -10.739388379883973
91 1 -1 1.3454906653067376 0.3584300740797559 8.837879234629618
92 1 -1 -21.93056639286312 -10.890279576013356 -10.412914392053596
93 1 -1 21.9136101677979 -10.780221720642636 11.543925933359859
94 1 -1 1.213289938136601 -7.171863230861625 20.734527885288102
95 1 -1 23.102370131877777 21.949933206350458 0.29281565885028016
96 1 -1 -18.917780884063298 -0.03244735062602544 23.633906995676227
97 1 -1 7.583004866601307 10.74178675512821 -4.857297835527785
98 1 -1 -7.4910066746799835 -14.168364618485734 -6.426540836249767
99 1 -1 -20.672200987670426 -8.746789722660697 11.011389790610103
100 1 -1 -18.662115132221917 -21.356740361991612 -8.735991534410413
101 2 1 11.900973676882046 6.591531431964558 19.018193594877637
102 2 1 -23.433591822114983 -18.956429005519567 4.8373984358422994
103 2 1 -11.825475204099472 -3.8206287568445134 3.1167558949026173
104 2 1 -17.49780467176259 -23.115560141825554 9.614132296727426
105 2 1 10.88916113281772 4.512200980010334 18.685489050240854
106 2 1 -22.04662313800728 23.973268925992897 -23.417792740205652
107 2 1 -13.57041123540546 17.3687874050987 21.186270978357783
108 2 1 6.586851196789095 16.27860887432974 -3.638909639278946
109 2 1 8.191448685630277 6.828880619305412 -6.347576950950089
110 2 1 -15.723292856220288 -20.484673256634117 -15.14713811293425
111 2 1 18.58081219522701 19.060706710849452 -10.295676869062909
112 2 1 -21.09194001526127 -7.739334786748358 5.417635948058724
113 2 1 -14.10404878784055 -15.769737592448523 -18.881834262561505
114 2 1 -14.644589058195612 8.84169065013063 8.611654925486256
115 2 1 -11.719050253933538 -4.9700119000832 -0.9846728956163453
116 2 1 19.498247505274143 -10.418045613133986 -22.12098182226518
117 2 1 21.857683401772697 20.157098661061575 -13.652393197742995
118 2 1 -17.623414455798407 21.873813778550875 -6.533965802006303
119 2 1 7.231785003326529 -13.925962842972222 5.360080190636602
120 2 1 -7.509430039873415 19.13541714591672 -16.23545960168472
121 2 1 -4.048249209544995 13.126195473202351 -7.156541250053138
122 2 1 -20.26837137264583 21.46366988603839 15.603080527043964
123 2 1 -4.478253524569759 -3.1812369811955783 -18.52918159641348
124 2 1 21.541019047040052 13.514999235394065 -1.8086547561089752
125 2 1 -15.223319907923727 -5.958117989814905 -7.194967640819577
126 2 1 -20.87181173003304 -7.66780336209651 20.518235718821714
127 2 1 -3.7444846073700297 21.014628245718292 7.197818215477007
128 2 1 -5.904222844268787 7.656315546673127 -1.3911802017487425
129 2 1 -21.49072414090769 -23.123923448235523 10.49453669763092
130 2 1 24.90628307456096 7.081046671281136 -14.422530828641655
131 2 1 -12.173002002514222 -23.250366655717176 -5.145802772598103
132 2 1 -19.68809858318764 4.476541650697328 6.249229323733747
133 2 1 16.85550827580734 -0.8462194407221624 18.011901711631936
134 2 1 17.289399533444858 -11.99379336569853 11.875868193611936
135 2 1 19.532020913911126 -23.053375288330326 -4.9162076250112605
136 2 1 -12.432304028989998 5.029488375070969 7.535325299264009
137 2 1 14.934807008644 8.086694342170496 19.68691014849572
138 2 1 -7.088283921093918 -23.094109864922018 16.57088328184242
139 2 1 14.77413976080318 21.343550134324772 13.996489344579572
140 2 1 -14.606423208703657 -6.928316926567433 -22.717483260149475
141 2 1 -17.139771555632173 14.533410346451518 -21.83064865887975
142 2 1 4.261830086466784 15.518968841247663 -17.791505649414617
143 2 1 -9.814793042774223 -5.120956154726329 14.054454130549104
144 2 1 8.313311590434793 3.9666876022475606 -20.677101093823236
145 2 1 10.603190079756637 -2.62347089527481 1.6661989541795634
146 2 1 -17.763718339721695 1.2541370478041287 -21.55649971308305
147 2 1 -8.538066365356812 14.81814356892842 -4.478673557614034
148 2 1 -5.809558827384787 14.611789154829552 13.287687188309562
149 2 1 8.986830839040898 -17.43898584267833 -18.08640526127862
150 2 1 -13.315275244526854 8.890431200255954 -8.708179477452443
151 2 1 -0.5407152591412618 -23.67970550599055 -24.1586910560046
152 2 1 -19.79961109336906 -16.10906604558887 -5.879899717095562
153 2 1 -23.626316306846658 9.337407355717588 -9.640842288307239
154 2 1 -18.847256196659333 -16.303517291166603 -10.786416046984721
155 2 1 13.567770091716845 -24.4927974402177 8.896906985984664
156 2 1 13.652894892068794 -24.87567116574863 21.89026113439551
157 2 1 -8.575912713332162 9.92386172372207 5.029537530028822
158 2 1 20.69339436974964 1.129252448454178 0.3584458063532807
159 2 1 -0.9971941518705947 18.317397852358788 6.795424830570379
160 2 1 23.155704681402298 15.458725773368961 17.01599672991628
161 2 1 22.278634187244123 14.642946508468171 20.543957651530896
162 2 1 9.771629496835963 -21.696904301438853 -5.259678202922196
163 2 1 5.253009955872763 17.911287158418148 15.769047957152992
164 2 1 -20.759038961257414 5.59089552770853 -12.383953925685166
165 2 1 3.2163819108147145 -4.948608591009169 -17.85036103684716
166 2 1 20.637631925250837 9.109955226257064 6.177181979863878
167 2 1 5.306344093540837 12.647347581939556 23.229957406774105
168 2 1 -24.15187998806597 17.263903348029615 -17.141028077545826
169 2 1 -15.705280442832997 -15.655358704303895 -10.488762557871972
170 2 1 -6.601131108664461 -22.50322976595015 -5.672942609306119
171 2 1 22.869179482568555 13.369592422303498 -9.378437532422556
172 2 1 -23.151055417980903 -3.928919101213168 -11.117061489640207
173 2 1 1.3592343286386246 -18.552063924235036 -15.346172149331993
174 2 1 10.23567488314778 -18.14207926130103 -1.6884247085891886
175 2 1 12.595888032974493 -1.7416169207452157 -21.786811832485718
176 2 1 -0.14792438162408672 17.11748549051584 1.2788726677139053
177 2 1 24.349235298880274 -8.664350854740949 12.4309854455257
178 2 1 -18.827147816604253 -18.80258748867273 -1.6980553939283212
179 2 1 -9.048793002383698 -1.788614428205263 -11.841289777017172
180 2 1 -22.49667217853208 -22.112076711777533 10.01393503943838
181 2 1 -16.183333848138453 1.3098533508906556 0.8096413611556166
182 2 1 -4.007575369376703 -24.447854073342157 -19.683971619997376
183 2 1 8.79123015290173 -15.890906503248287 -23.45721570121758
184 2 1 -8.557898021171628 -21.985380426316674 22.626382729361595
185 2 1 7.143974673263372 16.57516065778192 0.5907315164854055
186 2 1 7.05280226857041 6.658154377550723 17.993436860997946
187 2 1 20.98391844656716 -3.7711929542825544 -22.37222924252256
188 2 1 -8.856382807041598 -16.421301042649826 -7.682473719905396
189 2 1 -14.381919492441797 -7.667674808763277 -10.178028203828621
190 2 1 -22.93472549116592 10.072854607637751 3.756868463885592
191 2 1 9.458987867260412 17.23200182595278 -0.03503381482496337
192 2 1 11.013603635791974 19.842184408029837 -5.83598462187852
193 2 1 23.28897987479008 2.835578651649044 -20.512845011389647
194 2 1 -18.86161127148128 8.956542530565656 14.193388541103026
195 2 1 13.688477473034126 -15.973205475346514 10.952445409682397
196 2 1 2.1058159557459497 2.740725960214597 -23.72037436968614
197 2 1 20.982351847235442 7.072739454450108 -24.07322254392252
198 2 1 5.962360707177609 -19.424513569281604 22.469955103109243
199 2 1 -17.13607356062674 20.038457022813326 12.94227215395123
200 2 1 11.592617137491743 22.283887092702138 2.339699650677858
201 2 1 -1.3864952037065237 19.199632510575505 -7.684210221911414
202 2 1 -22.44476570586083 -19.66385674506424 -8.981660607669522
203 2 1 0.36547911522815824 -7.628556098996082 16.326944822668068
204 2 1 -9.766164330974753 24.38435844399602 -14.352553497163
205 2 1 -0.6310792726759544 -5.625399375968325 13.665993163571486
206 2 1 2.6795300975636103 -0.37097710463575595 15.575183407667495
207 2 1 10.68508361399715 24.638181487800373 -17.538711281692827
208 2 1 18.30809729940504 18.39121662193474 18.285926328751984
209 2 1 -11.52561870836783 -11.871004571782223 12.890674390475048
210 3 -1 16.038097437687007 -0.8308290507120688 9.140710202344948
211 3 -1 -12.071581865552927 23.77532123232212 -6.250109721970887
212 3 -1 24.179073767023887 19.6390206210449 22.20321951706368
213 3 -1 22.899159789805424 8.918385700451317 -1.1269016129923664
214 3 -1 -10.48576153865241 5.691510884812594 21.955276995406933
215 3 -1 6.272776670877239 10.035821052072265 22.22030412319301
216 3 -1 14.689947575936934 -7.785907120217196 0.5033983092114553
217 3 -1 23.173937996535116 -21.041572031861037 -21.057283440516468
218 3 -1 -6.015120142466472 6.3962924962024985 21.58241945230285
219 3 -1 -0.77667042466472 0.3962848125024985 1.582473830285