LAMMPS data file via write_data, version 27 May 2021

16 atoms
4 atom types
13 bonds
1 bond types
16 ellipsoids

-20 20 xlo xhi
-20 20 ylo yhi
-20 20 zlo zhi

Masses

1 3.1575
2 3.1575
3 3.1575
4 3.1575

Atoms # hybrid

1 1 -0.6133472972454725 -0.657478171669766 0.36065226351201896 1 1 3.7269849963023267 0 0 0
2 2 -0.45262764247356363 -1.0030650534345913 0.7258693379233347 1 1 3.7269849963023267 0 0 0
3 3 -0.0988342108522641 -1.239775807128057 1.069462285786363 1 1 3.7269849963023267 0 0 0
4 4 0.2937771854299732 -1.2579750924899842 1.4258916086606965 1 1 3.7269849963023267 0 0 0
5 1 0.6286896795685137 -1.0183343395119744 1.7689346339672825 1 1 3.7269849963023267 0 0 0
6 2 0.7901522619067926 -0.6766341805565266 2.1540160705495754 1 1 3.7269849963023267 0 0 0
7 3 0.7115777184886863 -0.40195579325143455 2.569568683291525 1 1 3.7269849963023267 0 0 0
8 4 0.46973310377005234 -0.30251697967107033 3.0668007117519216 1 1 3.7269849963023267 0 0 0
9 1 0.4056113349449848 -1.443775499211898 3.0590726503341124 2 1 3.7269849963023267 0 0 0
10 2 -0.032028429059287516 -1.2947520971164723 2.7201071151392187 2 1 3.7269849963023267 0 0 0
11 3 -0.31613855112314065 -0.908414175906161 2.4125207871782006 2 1 3.7269849963023267 0 0 0
12 4 -0.38939391251821 -0.4866605488242819 2.006177777000426 2 1 3.7269849963023267 0 0 0
13 1 -0.06232643040853296 -0.07155965522127403 1.5593206052730733 3 1 3.7269849963023267 0 0 0
14 2 0.17884090390913376 -0.05516721349427172 1.021273149730912 3 1 3.7269849963023267 0 0 0
15 3 0.4513439961906 -0.23795607383274572 0.5957328539615993 3 1 3.7269849963023267 0 0 0
16 4 0.5077649359807965 -0.5565625134533538 0.1655875784458841 3 1 3.7269849963023267 0 0 0

Velocities

1 0.05386890022865587 0.02262922525602673 0.24882291144736746 0.1772010258006941 -0.29588531700001014 -0.2624137503614725
2 -0.03995003075629463 0.26969511063701984 -0.18986454548195664 -0.030614539375968176 -0.11769518931480599 0.040074702426473215
3 -0.20784535295201376 -0.13628722357673043 -0.06062477950201746 -0.03676034584820381 -0.06308707793373186 -0.14798601576087625
4 -0.23969824181316998 -0.5624721730878831 0.032474422905036715 -0.16523645965016515 0.2860623077030974 0.33543519753105877
5 -0.16114897356828353 -0.22889697470760145 -0.13553324962649563 0.07151030852881342 -0.09415592891043179 0.13422881539312292
6 -0.04701706588477693 0.19216715585110036 0.14588242791297215 0.09218622989776322 -0.5640128930702024 0.09287105657777776
7 0.05098438305112513 -0.038459555522009595 -0.14244196285749675 0.3479046835475834 0.4244922695910593 -0.13582882604358357
8 0.37827971348411926 -0.04953992506010833 0.1626392045834847 0.0442887659636129 0.07868414126013584 -0.12713600444325032
9 0.04912038408665491 0.041260647318716696 0.012223856334495234 0.03282916621721876 -0.00012670547095256 0.155978785417696
10 0.1939216183073483 0.11075235485381942 -0.0405050516019971 -0.17008135001813812 -0.4563093565840761 -0.30318513627039506
11 -0.351360733920646 -0.18822419067535692 0.36147938199051305 -0.3708221604627426 -0.49108381825941216 0.09435948331955418
12 -0.1188642917357977 0.22355282456551884 0.009265586122144348 -0.28230100188858365 0.10276485660828892 0.10175233476780697
13 -0.1446616296238799 -0.11552059909787235 0.1331477187595642 -0.25498721890374343 0.2754663721641154 0.05806416868630132
14 0.051547120035862544 -0.36611026510775635 -0.06630782880801242 -0.11999847173316518 0.0684476892288605 0.2161595932308759
15 -0.20214244962091388 0.23341226933559608 0.008133374252278069 -0.17013911124135248 0.01870292260510287 -0.2682954134361106
16 -0.19202131162868008 -0.08105295741355378 -0.0469350810885074 0.017332107652647588 -0.32876588862807693 0.1085334141225924

Bonds

1 1 1 2
2 1 2 3
3 1 3 4
4 1 4 5
5 1 5 6
6 1 6 7
7 1 7 8
8 1 9 10
9 1 10 11
10 1 11 12
11 1 13 14
12 1 14 15
13 1 15 16

Ellipsoids

1 1.173984503142341 1.173984503142341 1.173984503142341 0.9964752158482045 -0.053253555733239796 0.011391163807102514 -0.06380787090289707
2 1.173984503142341 1.173984503142341 1.173984503142341 0.9369923833143513 0.11220716044648564 0.06732538499716349 0.3239168400846305
3 1.173984503142341 1.173984503142341 1.173984503142341 0.797964932091827 0.14473096354527873 0.18374142699366386 0.5554673737937029
4 1.173984503142341 1.173984503142341 1.173984503142341 0.5660864821344559 0.14688275499481052 0.09873742533340191 0.8051226439917721
5 1.173984503142341 1.173984503142341 1.173984503142341 0.2533023785125306 0.12062313161679827 0.08583012223905846 0.9559922359911086
6 1.173984503142341 1.173984503142341 1.173984503142341 -0.03855807343534716 0.08405913137017908 0.02236505169306371 0.9954632800204194
7 1.173984503142341 1.173984503142341 1.173984503142341 -0.45592844330248017 0.1004550065061007 -0.052524745294758785 0.8827679181910482
8 1.173984503142341 1.173984503142341 1.173984503142341 0.768021221540491 -0.009582139884533599 0.03658677589040892 -0.63930665074644
9 1.173984503142341 1.173984503142341 1.173984503142341 -0.23299975754512345 0.688686395231341 0.6747873944883376 -0.12682324016841584
10 1.173984503142341 1.173984503142341 1.173984503142341 -0.24662061871907232 0.8744456399178389 0.39370836087823996 -0.13970261209395163
11 1.173984503142341 1.173984503142341 1.173984503142341 -0.087475900850909 0.977367602388229 0.14493549113095577 -0.12686307572668784
12 1.173984503142341 1.173984503142341 1.173984503142341 -0.03181169300779214 0.9634374984140112 -0.2442360692534371 -0.10547485630879185
13 1.173984503142341 1.173984503142341 1.173984503142341 -0.032786070696572266 0.7922941528811777 -0.6084214170523915 -0.03191282109962717
14 1.173984503142341 1.173984503142341 1.173984503142341 0.047188686288341455 0.6316396208287698 -0.7737349519945348 0.011783095844627799
15 1.173984503142341 1.173984503142341 1.173984503142341 -0.05869980642620335 -0.34229358203414423 0.9376740835056508 0.012519965878508689
16 1.173984503142341 1.173984503142341 1.173984503142341 -0.08582818143150042 0.0008707732197394232 0.9939540921464659 -0.0684691735853161
