LAMMPS (2 Jul 2021)
variable number	equal 2
variable ofreq	equal 1000
variable efreq	equal 1000
variable T      equal 0.1
variable rhos   equal 0.2

units lj

dimension 3

newton on

boundary  p p p

atom_style hybrid bond ellipsoid oxdna
WARNING: Atom style hybrid defines both, per-type and per-atom masses; both must be set, but only per-atom masses will be used (../atom_vec_hybrid.cpp:157)
atom_modify sort 0 1.0

# Pair interactions require lists of neighbours to be calculated
neighbor 2.0 bin
neigh_modify every 1 delay 0 check yes

read_data data.duplex2
Reading data file ...
  orthogonal box = (-20.000000 -20.000000 -20.000000) to (20.000000 20.000000 20.000000)
  1 by 1 by 1 MPI processor grid
  reading atoms ...
  16 atoms
  reading velocities ...
  16 velocities
  scanning bonds ...
  1 = max bonds/atom
  16 ellipsoids
  reading bonds ...
  13 bonds
Finding 1-2 1-3 1-4 neighbors ...
  special bond factors lj:    0        0        0       
  special bond factors coul:  0        0        0       
     2 = max # of 1-2 neighbors
     2 = max # of 1-3 neighbors
     4 = max # of 1-4 neighbors
     6 = max # of special neighbors
  special bonds CPU = 0.000 seconds
  read_data CPU = 0.003 seconds

set atom * mass 3.1575
Setting atom values ...
  16 settings made for mass

group all type 1 4
16 atoms in group all

# oxDNA2 bond interactions - FENE backbone
bond_style oxdna2/fene
bond_coeff * 2.0 0.25 0.7564
special_bonds lj 0 1 1
Finding 1-2 1-3 1-4 neighbors ...
  special bond factors lj:    0        1        1       
  special bond factors coul:  0        0        0       
     2 = max # of 1-2 neighbors
     2 = max # of 1-3 neighbors
     4 = max # of 1-4 neighbors
     6 = max # of special neighbors
  special bonds CPU = 0.000 seconds

# oxDNA2 pair interactions
pair_style hybrid/overlay oxdna2/excv oxdna2/stk oxdna2/hbond oxdna2/xstk oxdna2/coaxstk oxdna2/dh
pair_coeff * * oxdna2/excv    2.0 0.7 0.675 2.0 0.515 0.5 2.0 0.33 0.32
pair_coeff * * oxdna2/stk     seqav ${T} 1.3523 2.6717 6.0 0.4 0.9 0.32 0.75 1.3 0 0.8 0.9 0 0.95 0.9 0 0.95 2.0 0.65 2.0 0.65
pair_coeff * * oxdna2/stk     seqav 0.1 1.3523 2.6717 6.0 0.4 0.9 0.32 0.75 1.3 0 0.8 0.9 0 0.95 0.9 0 0.95 2.0 0.65 2.0 0.65
pair_coeff * * oxdna2/hbond   seqav 0.0 8.0 0.4 0.75 0.34 0.7 1.5 0 0.7 1.5 0 0.7 1.5 0 0.7 0.46 3.141592653589793 0.7 4.0 1.5707963267948966 0.45 4.0 1.5707963267948966 0.45
pair_coeff 1 4 oxdna2/hbond   seqav 1.0678 8.0 0.4 0.75 0.34 0.7 1.5 0 0.7 1.5 0 0.7 1.5 0 0.7 0.46 3.141592653589793 0.7 4.0 1.5707963267948966 0.45 4.0 1.5707963267948966 0.45
pair_coeff 2 3 oxdna2/hbond   seqav 1.0678 8.0 0.4 0.75 0.34 0.7 1.5 0 0.7 1.5 0 0.7 1.5 0 0.7 0.46 3.141592653589793 0.7 4.0 1.5707963267948966 0.45 4.0 1.5707963267948966 0.45
pair_coeff * * oxdna2/xstk    47.5 0.575 0.675 0.495 0.655 2.25 0.791592653589793 0.58 1.7 1.0 0.68 1.7 1.0 0.68 1.5 0 0.65 1.7 0.875 0.68 1.7 0.875 0.68
pair_coeff * * oxdna2/coaxstk 58.5 0.4 0.6 0.22 0.58 2.0 2.891592653589793 0.65 1.3 0 0.8 0.9 0 0.95 0.9 0 0.95 40.0 3.116592653589793
pair_coeff * * oxdna2/dh      ${T} ${rhos} 0.815
pair_coeff * * oxdna2/dh      0.1 ${rhos} 0.815
pair_coeff * * oxdna2/dh      0.1 0.2 0.815

# NVE ensemble
fix 1 all nve/asphere
fix 2 all langevin ${T} ${T} 2.5 457145 angmom 10
fix 2 all langevin 0.1 ${T} 2.5 457145 angmom 10
fix 2 all langevin 0.1 0.1 2.5 457145 angmom 10

timestep 1e-5

#comm_style tiled
fix 3 all balance 1000 1.03 shift xyz 10 1.03
comm_modify cutoff 3.8

compute quat all property/atom quatw quati quatj quatk

compute erot all erotate/asphere
compute ekin all ke
compute epot all pe
variable erot equal c_erot
variable ekin equal c_ekin
variable epot equal c_epot
variable etot equal c_erot+c_ekin+c_epot
fix 5 all print ${efreq} "$(step)  ekin = ${ekin} |  erot = ${erot} | epot = ${epot} | etot = ${etot}" screen yes
fix 5 all print 1000 "$(step)  ekin = ${ekin} |  erot = ${erot} | epot = ${epot} | etot = ${etot}" screen yes

dump out all custom ${ofreq} out.${number}.lammpstrj id mol type x y z ix iy iz vx vy vz c_quat[1] c_quat[2] c_quat[3] c_quat[4] angmomx angmomy angmomz
dump out all custom 1000 out.${number}.lammpstrj id mol type x y z ix iy iz vx vy vz c_quat[1] c_quat[2] c_quat[3] c_quat[4] angmomx angmomy angmomz
dump out all custom 1000 out.2.lammpstrj id mol type x y z ix iy iz vx vy vz c_quat[1] c_quat[2] c_quat[3] c_quat[4] angmomx angmomy angmomz
dump_modify out sort id
dump_modify out format line "%d %d %d  %22.15le %22.15le %22.15le  %d %d %d  %22.15le %22.15le %22.15le  %22.15le %22.15le %22.15le %22.15le  %22.15le %22.15le %22.15le"

run 1000000
Neighbor list info ...
  update every 1 steps, delay 0 steps, check yes
  max neighbors/atom: 2000, page size: 100000
  master list distance cutoff = 5.6389877
  ghost atom cutoff = 5.6389877
  binsize = 2.8194939, bins = 15 15 15
  5 neighbor lists, perpetual/occasional/extra = 5 0 0
  (1) pair oxdna2/excv, perpetual
      attributes: half, newton on
      pair build: half/bin/newton
      stencil: half/bin/3d
      bin: standard
  (2) pair oxdna2/hbond, perpetual, copy from (1)
      attributes: half, newton on
      pair build: copy
      stencil: none
      bin: none
  (3) pair oxdna2/xstk, perpetual, copy from (1)
      attributes: half, newton on
      pair build: copy
      stencil: none
      bin: none
  (4) pair oxdna2/coaxstk, perpetual, copy from (1)
      attributes: half, newton on
      pair build: copy
      stencil: none
      bin: none
  (5) pair oxdna2/dh, perpetual, copy from (1)
      attributes: half, newton on
      pair build: copy
      stencil: none
      bin: none
WARNING: Communication cutoff adjusted to 5.638987723814632 (../comm.cpp:739)
0  ekin = 2.70475393009871 |  erot = 2.80172072918779 | epot = -21.0482852787267 | etot = -15.5418106194402
Per MPI rank memory allocation (min/avg/max) = 9.325 | 9.325 | 9.325 Mbytes
Step Temp E_pair E_mol TotEng Press Volume 
       0   0.12021129   -1.3610384  0.045520537   -1.1464707 5.9660461e-05        64000 
1000  ekin = 2.70391570439002 |  erot = 2.60396138194761 | epot = -20.892587006041 | etot = -15.5847099197034
2000  ekin = 2.64635320949975 |  erot = 2.53579824187029 | epot = -20.7791695875995 | etot = -15.5970181362294
3000  ekin = 2.69752120400807 |  erot = 2.55180306746824 | epot = -20.7137659040141 | etot = -15.4644416325378
4000  ekin = 2.6538821444735 |  erot = 2.47641299322465 | epot = -20.679411997643 | etot = -15.5491168599449
5000  ekin = 2.60025466050757 |  erot = 2.2039059393524 | epot = -20.6560408696723 | etot = -15.8518802698123
6000  ekin = 2.46901398821906 |  erot = 2.47310200487734 | epot = -20.6350989412901 | etot = -15.6929829481937
7000  ekin = 2.51574664182366 |  erot = 2.31213437386206 | epot = -20.6631357493118 | etot = -15.835254733626
8000  ekin = 2.59690047628267 |  erot = 2.32317845363664 | epot = -20.7152959922884 | etot = -15.7952170623691
9000  ekin = 2.48618631858407 |  erot = 2.08285633125495 | epot = -20.7950725844518 | etot = -16.2260299346128
10000  ekin = 2.52115116499232 |  erot = 2.20106084795616 | epot = -20.8992442032706 | etot = -16.1770321903222
11000  ekin = 2.43147539619193 |  erot = 2.42927619785951 | epot = -21.0249867006789 | etot = -16.1642351066275
12000  ekin = 2.45333761568574 |  erot = 2.525603071611 | epot = -21.1588492672088 | etot = -16.1799085799121
13000  ekin = 2.53951720462341 |  erot = 2.74654877006482 | epot = -21.2655112796489 | etot = -15.9794453049606
14000  ekin = 2.52874823012217 |  erot = 3.01239544645662 | epot = -21.3374765197331 | etot = -15.7963328431543
15000  ekin = 2.63126849733541 |  erot = 2.75804260501317 | epot = -21.3622375137171 | etot = -15.9729264113685
16000  ekin = 2.53351081020592 |  erot = 2.95152401468654 | epot = -21.3358982910482 | etot = -15.8508634661558
17000  ekin = 2.57894891181703 |  erot = 3.20567182477324 | epot = -21.2708322188654 | etot = -15.4862114822752
18000  ekin = 2.48912656009906 |  erot = 3.305144217587 | epot = -21.185496468772 | etot = -15.391225691086
19000  ekin = 2.54963746369463 |  erot = 3.12775559702558 | epot = -21.0796045258341 | etot = -15.4022114651139
20000  ekin = 2.70343028147048 |  erot = 3.48245634539093 | epot = -20.9620878080506 | etot = -14.7762011811892
21000  ekin = 2.7400837598076 |  erot = 3.493409766499 | epot = -20.8605728519254 | etot = -14.6270793256188
22000  ekin = 2.70619491966167 |  erot = 3.39094503970532 | epot = -20.7832212738354 | etot = -14.6860813144684
23000  ekin = 2.7697757193537 |  erot = 2.96919161110178 | epot = -20.7244407619744 | etot = -14.9854734315189
24000  ekin = 2.70661582607971 |  erot = 2.73688112318632 | epot = -20.7053645378039 | etot = -15.2618675885378
25000  ekin = 2.68754636497145 |  erot = 2.61416599169547 | epot = -20.7064779461664 | etot = -15.4047655894994
26000  ekin = 2.73235500408328 |  erot = 2.73313459064974 | epot = -20.7277379348113 | etot = -15.2622483400783
27000  ekin = 2.8077624395387 |  erot = 2.57060961199337 | epot = -20.7536767854921 | etot = -15.3753047339601
28000  ekin = 2.72026602469299 |  erot = 2.48773762184115 | epot = -20.7972439765033 | etot = -15.5892403299691
29000  ekin = 2.74993250614264 |  erot = 2.4362001954172 | epot = -20.8845224755543 | etot = -15.6983897739944
30000  ekin = 2.84727011110435 |  erot = 2.55872515142543 | epot = -21.0029391367955 | etot = -15.5969438742657
31000  ekin = 2.9373105145775 |  erot = 2.68538653493625 | epot = -21.1441658724037 | etot = -15.52146882289
32000  ekin = 3.11483472271263 |  erot = 2.71833221771894 | epot = -21.3009630690853 | etot = -15.4677961286537
33000  ekin = 3.42015689623702 |  erot = 3.01186958829681 | epot = -21.4445354747605 | etot = -15.0125089902267
34000  ekin = 3.4571497053447 |  erot = 3.34699175671052 | epot = -21.5750227937594 | etot = -14.7708813317042
35000  ekin = 3.49497749393851 |  erot = 3.14001434352617 | epot = -21.6604994386103 | etot = -15.0255076011457
36000  ekin = 3.47204675153372 |  erot = 2.84774400732494 | epot = -21.6891867301232 | etot = -15.3693959712646
37000  ekin = 3.44180301616544 |  erot = 2.56259280720516 | epot = -21.6709924941777 | etot = -15.6665966708071
38000  ekin = 3.54821034228965 |  erot = 2.44212751582536 | epot = -21.6265094810358 | etot = -15.6361716229208
39000  ekin = 3.46871818671429 |  erot = 2.39960208230661 | epot = -21.5379795382885 | etot = -15.6696592692676
40000  ekin = 3.39697091933591 |  erot = 2.06928828303171 | epot = -21.4180869184492 | etot = -15.9518277160816
41000  ekin = 3.34648089211938 |  erot = 2.10977053447759 | epot = -21.3088504303421 | etot = -15.8525990037452
42000  ekin = 3.14017175730784 |  erot = 2.61712762297436 | epot = -21.2075302208961 | etot = -15.4502308406139
43000  ekin = 3.0541271305486 |  erot = 2.16422672116187 | epot = -21.1026514185807 | etot = -15.8842975668702
44000  ekin = 2.85636525492286 |  erot = 2.23456154398502 | epot = -21.0187138708967 | etot = -15.9277870719889
45000  ekin = 2.71017763793136 |  erot = 2.20442798009884 | epot = -20.9688571562277 | etot = -16.0542515381975
46000  ekin = 2.80228666966609 |  erot = 2.3691206574228 | epot = -20.9221917036257 | etot = -15.7507843765369
47000  ekin = 2.68398029783778 |  erot = 2.30787382180577 | epot = -20.9147956898556 | etot = -15.922941570212
48000  ekin = 2.60361639221643 |  erot = 2.16759706121358 | epot = -20.9378819526189 | etot = -16.1666684991889
49000  ekin = 2.69879527332656 |  erot = 1.95331370371646 | epot = -20.9793801292352 | etot = -16.3272711521921
50000  ekin = 2.78297818082637 |  erot = 1.73866705563715 | epot = -21.0239873291857 | etot = -16.5023420927222
51000  ekin = 2.79226298145992 |  erot = 1.75750015205399 | epot = -21.0591817365136 | etot = -16.5094186029996
52000  ekin = 2.93778678358836 |  erot = 2.05248025310421 | epot = -21.1000263829064 | etot = -16.1097593462138
53000  ekin = 2.93047021956224 |  erot = 2.21318598351599 | epot = -21.1408129057595 | etot = -15.9971567026812
54000  ekin = 2.95313738597263 |  erot = 2.20797346738787 | epot = -21.1830307851601 | etot = -16.0219199317996
55000  ekin = 2.98703149924483 |  erot = 2.36965734625007 | epot = -21.2448833674046 | etot = -15.8881945219097
56000  ekin = 2.99188476268835 |  erot = 2.35374933057429 | epot = -21.3017374555428 | etot = -15.9561033622801
57000  ekin = 3.04248410594252 |  erot = 2.10923890188227 | epot = -21.3362725295754 | etot = -16.1845495217507
58000  ekin = 2.98235297495938 |  erot = 2.13409247728305 | epot = -21.3593231655095 | etot = -16.2428777132671
59000  ekin = 2.91016949839296 |  erot = 2.36822905479348 | epot = -21.3622398255744 | etot = -16.083841272388
60000  ekin = 2.97250779202342 |  erot = 2.54263250726513 | epot = -21.3342690818056 | etot = -15.8191287825171
61000  ekin = 2.96790668494248 |  erot = 2.48996902731655 | epot = -21.2724803895842 | etot = -15.8146046773252
62000  ekin = 2.94610606099048 |  erot = 2.18201665175963 | epot = -21.187919461435 | etot = -16.0597967486849
63000  ekin = 3.0271214705261 |  erot = 2.16093889178584 | epot = -21.096658489144 | etot = -15.9085981268321
64000  ekin = 3.20886369209213 |  erot = 2.06931440640059 | epot = -21.0569971647532 | etot = -15.7788190662604
65000  ekin = 3.22349334555752 |  erot = 1.93510092297445 | epot = -21.0349289183418 | etot = -15.8763346498098
66000  ekin = 3.10418207507129 |  erot = 1.94339370515853 | epot = -21.051745388243 | etot = -16.0041696080131
67000  ekin = 3.12595764700019 |  erot = 2.29857726165623 | epot = -21.10762065855 | etot = -15.6830857498936
68000  ekin = 2.99981867339099 |  erot = 2.04147368191603 | epot = -21.181198697827 | etot = -16.13990634252
69000  ekin = 2.93860333642775 |  erot = 2.09583398354869 | epot = -21.2548061558295 | etot = -16.2203688358531
70000  ekin = 2.9486279695994 |  erot = 2.02427035214611 | epot = -21.3225756079773 | etot = -16.3496772862318
71000  ekin = 2.95485075626806 |  erot = 1.98046752535274 | epot = -21.3931478839351 | etot = -16.4578296023143
72000  ekin = 3.0308352187065 |  erot = 1.64033628981958 | epot = -21.468068089369 | etot = -16.7968965808429
73000  ekin = 3.20193349232367 |  erot = 1.82676041495789 | epot = -21.5301957695023 | etot = -16.5015018622208
74000  ekin = 3.22662444253103 |  erot = 1.89227240506012 | epot = -21.5643738418553 | etot = -16.4454769942641
75000  ekin = 3.28911018830883 |  erot = 1.89872323449657 | epot = -21.5810306648803 | etot = -16.3931972420749
76000  ekin = 3.29558374515743 |  erot = 1.87444557500027 | epot = -21.5642338211322 | etot = -16.3942045009745
77000  ekin = 3.54018909072085 |  erot = 1.75729076536995 | epot = -21.5044360245146 | etot = -16.2069561684238
78000  ekin = 3.54291076978592 |  erot = 1.76974361090023 | epot = -21.4006101697986 | etot = -16.0879557891125
79000  ekin = 3.54987455874821 |  erot = 1.91515152695039 | epot = -21.2526696681999 | etot = -15.7876435825013
80000  ekin = 3.44554692397033 |  erot = 1.55785077520358 | epot = -21.1041761178578 | etot = -16.1007784186839
81000  ekin = 3.39041332540007 |  erot = 1.45777024027678 | epot = -20.9764951390216 | etot = -16.1283115733447
82000  ekin = 3.28164787796656 |  erot = 1.38380348431304 | epot = -20.899509162344 | etot = -16.2340578000644
83000  ekin = 3.27119946746379 |  erot = 1.61635220758898 | epot = -20.8682969771061 | etot = -15.9807453020534
84000  ekin = 3.23767018514775 |  erot = 1.58136727778774 | epot = -20.8558733748386 | etot = -16.0368359119031
85000  ekin = 3.19513864200058 |  erot = 1.6431910885888 | epot = -20.8419968518707 | etot = -16.0036671212813
86000  ekin = 3.24896357270198 |  erot = 1.89522046055135 | epot = -20.832806633325 | etot = -15.6886226000717
87000  ekin = 3.13174021654823 |  erot = 1.94306423894159 | epot = -20.8481262288118 | etot = -15.773321773322
88000  ekin = 3.11122085279115 |  erot = 1.78724048339196 | epot = -20.9059531901008 | etot = -16.0074918539177
89000  ekin = 3.08381661724969 |  erot = 1.63584870500641 | epot = -20.9715808309547 | etot = -16.2519155086986
90000  ekin = 3.20313125753903 |  erot = 1.94895881894579 | epot = -21.0671915523152 | etot = -15.9151014758304
91000  ekin = 3.14651785772312 |  erot = 2.26271277860547 | epot = -21.1780568094305 | etot = -15.768826173102
92000  ekin = 3.23402739820373 |  erot = 2.38502646372719 | epot = -21.3058699018424 | etot = -15.6868160399115
93000  ekin = 3.27864277718335 |  erot = 2.22426372598661 | epot = -21.4112218809901 | etot = -15.9083153778202
94000  ekin = 3.31438607736509 |  erot = 2.13604324487186 | epot = -21.5023579935933 | etot = -16.0519286713564
95000  ekin = 3.27323012344947 |  erot = 2.38178684388532 | epot = -21.6160955797709 | etot = -15.9610786124361
96000  ekin = 3.22326707535017 |  erot = 2.54544679505647 | epot = -21.7318191046087 | etot = -15.963105234202
97000  ekin = 3.23424306839042 |  erot = 2.64153427684315 | epot = -21.8458536800775 | etot = -15.9700763348439
98000  ekin = 3.20883333988349 |  erot = 2.67043755850081 | epot = -21.9495446261421 | etot = -16.0702737277578
99000  ekin = 3.11663851643525 |  erot = 2.90733596256664 | epot = -22.0486791427264 | etot = -16.0247046637246
100000  ekin = 3.03264321501914 |  erot = 2.96946233520285 | epot = -22.1457931713674 | etot = -16.1436876211454
101000  ekin = 2.95046281913209 |  erot = 2.88464070608079 | epot = -22.2018281755496 | etot = -16.3667246503367
102000  ekin = 2.85487641720306 |  erot = 3.1835231149768 | epot = -22.1945156997857 | etot = -16.1561161676059
103000  ekin = 2.83556367487533 |  erot = 3.10626911100577 | epot = -22.1286684506118 | etot = -16.1868356647307
104000  ekin = 2.74206313561178 |  erot = 2.764695345083 | epot = -22.0370967342096 | etot = -16.5303382535148
105000  ekin = 2.68691210569746 |  erot = 2.43510424243733 | epot = -21.9227484953522 | etot = -16.8007321472174
106000  ekin = 2.563230657111 |  erot = 2.04976251036808 | epot = -21.8252352950753 | etot = -17.2122421275962
107000  ekin = 2.45282193090838 |  erot = 2.35578840258503 | epot = -21.7394205256344 | etot = -16.930810192141
108000  ekin = 2.53861743899987 |  erot = 2.41441398228763 | epot = -21.6772620188416 | etot = -16.7242305975541
109000  ekin = 2.47502081207091 |  erot = 2.24593310938325 | epot = -21.6325689491034 | etot = -16.9116150276492
110000  ekin = 2.50321333342882 |  erot = 1.86407174946134 | epot = -21.6221361025481 | etot = -17.2548510196579
111000  ekin = 2.55274947911861 |  erot = 1.9335199844403 | epot = -21.6424359547629 | etot = -17.156166491204
112000  ekin = 2.57554816024176 |  erot = 1.85965001180022 | epot = -21.6646307305487 | etot = -17.2294325585067
113000  ekin = 2.58422184546734 |  erot = 1.66612606594662 | epot = -21.6825320885557 | etot = -17.4321841771417
114000  ekin = 2.63767451071977 |  erot = 1.86651684228485 | epot = -21.6875711888383 | etot = -17.1833798358337
115000  ekin = 2.55850869288988 |  erot = 1.95479352013929 | epot = -21.7088690741549 | etot = -17.1955668611257
116000  ekin = 2.59960484914043 |  erot = 1.98515359639087 | epot = -21.7399246709689 | etot = -17.1551662254376
117000  ekin = 2.6364636182488 |  erot = 2.15859263253907 | epot = -21.7790865447414 | etot = -16.9840302939536
118000  ekin = 2.6722112411998 |  erot = 2.07625368130399 | epot = -21.8132075002146 | etot = -17.0647425777108
119000  ekin = 2.9108516764533 |  erot = 1.98818490836516 | epot = -21.8375717289926 | etot = -16.9385351441741
120000  ekin = 2.93975077154826 |  erot = 1.99854094901663 | epot = -21.8494362428877 | etot = -16.9111445223229
121000  ekin = 3.04700503953791 |  erot = 2.15191677123407 | epot = -21.8526361044102 | etot = -16.6537142936382
122000  ekin = 3.01970065630796 |  erot = 2.09092735340917 | epot = -21.8688746811131 | etot = -16.7582466713959
123000  ekin = 2.9930939614465 |  erot = 1.76972828030715 | epot = -21.9045561644836 | etot = -17.14173392273
124000  ekin = 2.96321679602912 |  erot = 1.96464026140171 | epot = -21.9325819137337 | etot = -17.0047248563029
125000  ekin = 2.98312575423879 |  erot = 1.6459259375459 | epot = -21.9608904634477 | etot = -17.331838771663
126000  ekin = 2.99097949215575 |  erot = 1.75618745760134 | epot = -22.009758319428 | etot = -17.2625913696709
127000  ekin = 3.04267424627598 |  erot = 1.84781956231792 | epot = -22.0474977427294 | etot = -17.1570039341355
128000  ekin = 3.16299477926061 |  erot = 1.98570527937047 | epot = -22.1060844986599 | etot = -16.9573844400289
129000  ekin = 3.16426696344668 |  erot = 1.97746137640526 | epot = -22.1606468653278 | etot = -17.0189185254759
130000  ekin = 3.09082575381668 |  erot = 2.52059065203422 | epot = -22.1892702662505 | etot = -16.5778538603996
131000  ekin = 3.04363359740037 |  erot = 2.76905383223605 | epot = -22.1941284862536 | etot = -16.3814410566172
132000  ekin = 2.97799249868516 |  erot = 2.58737442779091 | epot = -22.1487985926417 | etot = -16.5834316661656
133000  ekin = 3.03410219436435 |  erot = 2.49151216637025 | epot = -22.0390476094715 | etot = -16.5134332487369
134000  ekin = 2.97290518441651 |  erot = 2.2795598062273 | epot = -21.9043568760917 | etot = -16.6518918854479
135000  ekin = 2.97882125899838 |  erot = 2.36516672946397 | epot = -21.7588924186334 | etot = -16.4149044301711
136000  ekin = 3.06225054874148 |  erot = 1.85004987442537 | epot = -21.6100365266532 | etot = -16.6977361034863
137000  ekin = 3.03515949013347 |  erot = 1.79133727158631 | epot = -21.4833056014437 | etot = -16.6568088397239
138000  ekin = 2.9835998684383 |  erot = 1.95427111240579 | epot = -21.3692118882268 | etot = -16.4313409073827
139000  ekin = 3.0063875676428 |  erot = 1.75390651791802 | epot = -21.2771971161582 | etot = -16.5169030305974
140000  ekin = 2.98301520290208 |  erot = 1.55293456918089 | epot = -21.2082582422558 | etot = -16.6723084701728
141000  ekin = 2.8734196918037 |  erot = 1.62004287774014 | epot = -21.1593315472341 | etot = -16.6658689776903
142000  ekin = 2.77198594269102 |  erot = 1.82883994332513 | epot = -21.1253786225533 | etot = -16.5245527365371
143000  ekin = 2.66544385214382 |  erot = 1.70763016025286 | epot = -21.1194742186353 | etot = -16.7464002062387
144000  ekin = 2.64364564452769 |  erot = 2.02089778883353 | epot = -21.1558312252306 | etot = -16.4912877918693
145000  ekin = 2.58320561695123 |  erot = 2.33928617610564 | epot = -21.1972194246105 | etot = -16.2747276315536
146000  ekin = 2.59582465616999 |  erot = 2.3913910079826 | epot = -21.2181779484858 | etot = -16.2309622843332
147000  ekin = 2.57433616776238 |  erot = 2.62068830532507 | epot = -21.2035776919776 | etot = -16.0085532188901
148000  ekin = 2.66661322554065 |  erot = 2.64858494989759 | epot = -21.1567312792458 | etot = -15.8415331038076
149000  ekin = 2.60767807433559 |  erot = 2.24435345528447 | epot = -21.1005834026183 | etot = -16.2485518729982
150000  ekin = 2.54139526377883 |  erot = 2.28883985685599 | epot = -21.0349331020295 | etot = -16.2046979813947
151000  ekin = 2.5432219413665 |  erot = 2.35864839828536 | epot = -20.9724639116438 | etot = -16.0705935719919
152000  ekin = 2.56796491103012 |  erot = 2.43023333349202 | epot = -20.9157846601099 | etot = -15.9175864155878
153000  ekin = 2.51372807626571 |  erot = 2.39277188889798 | epot = -20.8708281017583 | etot = -15.9643281365946
154000  ekin = 2.56425050300779 |  erot = 2.55681269376811 | epot = -20.8208061897131 | etot = -15.6997429929373
155000  ekin = 2.54836883214878 |  erot = 2.77382882086472 | epot = -20.7512322840953 | etot = -15.4290346310818
156000  ekin = 2.50430341115576 |  erot = 2.84536424459363 | epot = -20.6831823234819 | etot = -15.3335146677325
157000  ekin = 2.50400336317688 |  erot = 2.74300988092699 | epot = -20.6024983277716 | etot = -15.3554850836678
158000  ekin = 2.46635677816819 |  erot = 2.72725266952981 | epot = -20.3927742179115 | etot = -15.1991647702135
159000  ekin = 2.41243392896928 |  erot = 2.89017327284196 | epot = -20.3716899613963 | etot = -15.069082759585
160000  ekin = 2.44543789794338 |  erot = 2.94805496717089 | epot = -20.5757394278759 | etot = -15.1822465627616
161000  ekin = 2.48584882392466 |  erot = 3.08550000043076 | epot = -20.7243276115622 | etot = -15.1529787872068
162000  ekin = 2.63092470794183 |  erot = 2.8491277718568 | epot = -20.8061639431945 | etot = -15.3261114633959
163000  ekin = 2.72019716465021 |  erot = 2.95674331723642 | epot = -20.9203905101818 | etot = -15.2434500282951
164000  ekin = 2.85144745755517 |  erot = 2.79837544407218 | epot = -21.0599208441751 | etot = -15.4100979425478
165000  ekin = 3.01926698163447 |  erot = 2.57598017599253 | epot = -21.2160748663889 | etot = -15.6208277087619
166000  ekin = 3.15975032902628 |  erot = 2.53424140536866 | epot = -21.3722197077628 | etot = -15.6782279733678
167000  ekin = 3.28010263683412 |  erot = 2.66118639042418 | epot = -21.5168932797697 | etot = -15.5756042525114
168000  ekin = 3.30088936113461 |  erot = 2.6570801564169 | epot = -21.6596207437233 | etot = -15.7016512261718
169000  ekin = 3.47029246215378 |  erot = 2.25395751697315 | epot = -21.7742578136393 | etot = -16.0500078345124
170000  ekin = 3.70050747267213 |  erot = 2.16365167905452 | epot = -21.8748391459109 | etot = -16.0106799941843
171000  ekin = 3.84839140735074 |  erot = 1.87628165448694 | epot = -21.9555399182121 | etot = -16.2308668563744
172000  ekin = 3.95026415662084 |  erot = 1.96481352720165 | epot = -21.9987319268213 | etot = -16.0836542429988
173000  ekin = 3.92397418949719 |  erot = 2.1402486554568 | epot = -21.9962461659818 | etot = -15.9320233210278
174000  ekin = 3.91787773957962 |  erot = 2.15382550531676 | epot = -21.9649412516532 | etot = -15.8932380067568
175000  ekin = 3.92478898493225 |  erot = 1.81413864863455 | epot = -21.886058821032 | etot = -16.1471311874652
176000  ekin = 3.61843418337262 |  erot = 1.68410090365151 | epot = -21.7861032393839 | etot = -16.4835681523597
177000  ekin = 3.43777437221669 |  erot = 1.50869914434539 | epot = -21.6530103766414 | etot = -16.7065368600793
178000  ekin = 3.29404805426684 |  erot = 1.54702143204471 | epot = -21.5151124491371 | etot = -16.6740429628256
179000  ekin = 3.15559273998197 |  erot = 1.83461420036247 | epot = -21.3846264521169 | etot = -16.3944195117725
180000  ekin = 3.11144262168972 |  erot = 1.96187195470713 | epot = -21.2631791815958 | etot = -16.1898646051989
181000  ekin = 2.86058839708624 |  erot = 1.97916662782334 | epot = -21.1736204719049 | etot = -16.3338654469953
182000  ekin = 2.73358163055363 |  erot = 2.08235166110584 | epot = -21.1163854347033 | etot = -16.3004521430438
183000  ekin = 2.78667823921494 |  erot = 2.14955927554286 | epot = -21.0704997912635 | etot = -16.1342622765057
184000  ekin = 2.74700284417945 |  erot = 2.17568363892128 | epot = -21.0417241927555 | etot = -16.1190377096547
185000  ekin = 2.71206700548405 |  erot = 2.43154766133365 | epot = -21.0534073134643 | etot = -15.9097926466466
186000  ekin = 2.70473969876215 |  erot = 2.54763882184454 | epot = -21.0771037789774 | etot = -15.8247252583707
187000  ekin = 2.69011328843065 |  erot = 2.42677059090842 | epot = -21.1334063747328 | etot = -16.0165224953937
188000  ekin = 2.63139574425889 |  erot = 2.47663409366894 | epot = -21.2056416357499 | etot = -16.097611797822
189000  ekin = 2.52625691649445 |  erot = 2.36811030548791 | epot = -21.2763445168886 | etot = -16.3819772949062
190000  ekin = 2.55070314102272 |  erot = 2.46381370096652 | epot = -21.3751397733684 | etot = -16.3606229313791
191000  ekin = 2.62917079754905 |  erot = 2.67833301813017 | epot = -21.4532628428641 | etot = -16.1457590271849
192000  ekin = 2.58870583923181 |  erot = 3.04288815538947 | epot = -21.5216329873865 | etot = -15.8900389927652
193000  ekin = 2.57473296407422 |  erot = 2.98273386984086 | epot = -21.5752070232357 | etot = -16.0177401893207
194000  ekin = 2.55188197567099 |  erot = 3.53664565918049 | epot = -21.6029115846239 | etot = -15.5143839497724
195000  ekin = 2.37005947654592 |  erot = 3.88569194357652 | epot = -21.5199791042833 | etot = -15.2642276841609
196000  ekin = 2.24643312652487 |  erot = 3.89236383309535 | epot = -21.4290282307873 | etot = -15.2902312711671
197000  ekin = 2.08212744149202 |  erot = 3.73392747991439 | epot = -21.3909391389933 | etot = -15.5748842175869
198000  ekin = 1.99546802101165 |  erot = 3.31869767813113 | epot = -21.3106385880563 | etot = -15.9964728889135
199000  ekin = 1.88808259694764 |  erot = 3.05651027418447 | epot = -21.1932358978994 | etot = -16.2486430267673
200000  ekin = 1.86182600189611 |  erot = 3.12152068869523 | epot = -21.1112046099846 | etot = -16.1278579193933
201000  ekin = 1.97052135402476 |  erot = 2.56337970690565 | epot = -21.0818150370229 | etot = -16.5479139760925
202000  ekin = 1.96444489641634 |  erot = 2.52188298721402 | epot = -21.0909969362212 | etot = -16.6046690525908
203000  ekin = 2.02727163636645 |  erot = 2.40435818767017 | epot = -21.1422876293971 | etot = -16.7106578053605
204000  ekin = 2.08583315864155 |  erot = 2.40223613667972 | epot = -21.2224635405406 | etot = -16.7343942452193
205000  ekin = 2.20775264966623 |  erot = 2.45569503503469 | epot = -21.3216506287512 | etot = -16.6582029440503
206000  ekin = 2.32525581144377 |  erot = 2.44338569524376 | epot = -21.4263895154156 | etot = -16.6577480087281
207000  ekin = 2.39884741653067 |  erot = 2.19219588140532 | epot = -21.5586341308418 | etot = -16.9675908329058
208000  ekin = 2.54174161331668 |  erot = 2.0204308648262 | epot = -21.7018700931408 | etot = -17.1396976149979
209000  ekin = 2.63460295202779 |  erot = 2.00847282239007 | epot = -21.8765502984945 | etot = -17.2334745240767
210000  ekin = 2.81803535020474 |  erot = 2.15132327942402 | epot = -22.0655129469125 | etot = -17.0961543172837
211000  ekin = 2.8544966933982 |  erot = 2.00032723609075 | epot = -22.2569212397588 | etot = -17.4020973102698
212000  ekin = 2.93298840099937 |  erot = 2.18896574432212 | epot = -22.4295331026808 | etot = -17.3075789573593
213000  ekin = 3.04393339596812 |  erot = 2.16674803090446 | epot = -22.5865045861157 | etot = -17.3758231592431
214000  ekin = 3.17687786434378 |  erot = 1.93204604450799 | epot = -22.7049386266084 | etot = -17.5960147177566
215000  ekin = 3.23140803215865 |  erot = 1.91093387521926 | epot = -22.7702150399474 | etot = -17.6278731325695
216000  ekin = 3.2321341050867 |  erot = 1.86760943667555 | epot = -22.8077327389956 | etot = -17.7079891972333
217000  ekin = 3.29951241617977 |  erot = 1.99642477225946 | epot = -22.8230103446114 | etot = -17.5270731561722
218000  ekin = 3.29737584458632 |  erot = 1.96274603890206 | epot = -22.8136249789529 | etot = -17.5535030954645
219000  ekin = 3.23565881897549 |  erot = 1.94555976805405 | epot = -22.8103460409257 | etot = -17.6291274538961
220000  ekin = 3.19248478951655 |  erot = 2.14549715461575 | epot = -22.8135403395691 | etot = -17.4755583954368
221000  ekin = 3.08489658572225 |  erot = 2.35182511982449 | epot = -22.7936924594889 | etot = -17.3569707539422
222000  ekin = 2.98911659742775 |  erot = 2.24286093437224 | epot = -22.7593104849621 | etot = -17.5273329531621
223000  ekin = 2.94028114747166 |  erot = 2.45179850593562 | epot = -22.7094689680866 | etot = -17.3173893146793
224000  ekin = 2.86327223103169 |  erot = 2.45496570504129 | epot = -22.6840408073421 | etot = -17.3658028712691
225000  ekin = 2.86217589447844 |  erot = 2.64576978314389 | epot = -22.709459445995 | etot = -17.2015137683726
226000  ekin = 2.8142175090877 |  erot = 2.65054275980917 | epot = -22.7920788909686 | etot = -17.3273186220717
227000  ekin = 2.76125022534707 |  erot = 2.53291854231038 | epot = -22.8714022097528 | etot = -17.5772334420953
228000  ekin = 2.78877138535082 |  erot = 2.36581554390957 | epot = -22.9403431333366 | etot = -17.7857562040762
229000  ekin = 2.72891406599702 |  erot = 2.36761189849136 | epot = -22.9752057147159 | etot = -17.8786797502275
230000  ekin = 2.73218055588378 |  erot = 2.27179336612898 | epot = -22.9619591335889 | etot = -17.9579852115761
231000  ekin = 2.7823830406074 |  erot = 2.56004300399597 | epot = -22.90155406699 | etot = -17.5591280223866
232000  ekin = 2.70574670734559 |  erot = 2.20917728909279 | epot = -22.8024125768837 | etot = -17.8874885804453
233000  ekin = 2.64840920464763 |  erot = 2.10191715204315 | epot = -22.6817951010111 | etot = -17.9314687443204
234000  ekin = 2.61941879874187 |  erot = 1.89218225093214 | epot = -22.5506641543628 | etot = -18.0390631046888
235000  ekin = 2.59340202709238 |  erot = 1.81296941612961 | epot = -22.4559841307523 | etot = -18.0496126875304
236000  ekin = 2.51387645324674 |  erot = 1.87601834806566 | epot = -22.3602077365801 | etot = -17.9703129352677
237000  ekin = 2.48697606976272 |  erot = 1.88725598539924 | epot = -22.2423219253943 | etot = -17.8680898702323
238000  ekin = 2.4616064489039 |  erot = 1.69677740799999 | epot = -22.1532316635744 | etot = -17.9948478066705
239000  ekin = 2.42201063037743 |  erot = 1.70150164392291 | epot = -22.1281108141978 | etot = -18.0045985398974
240000  ekin = 2.37084323379681 |  erot = 1.98736224075244 | epot = -22.1423976045622 | etot = -17.7841921300129
241000  ekin = 2.37738836540311 |  erot = 2.31585984211782 | epot = -22.1830534944813 | etot = -17.4898052869604
242000  ekin = 2.41676243464672 |  erot = 2.55280142063506 | epot = -22.1811996624351 | etot = -17.2116358071533
243000  ekin = 2.33148792530111 |  erot = 2.76551405431882 | epot = -22.1959816056366 | etot = -17.0989796260167
244000  ekin = 2.38360456402189 |  erot = 2.74375775378605 | epot = -22.3530195137562 | etot = -17.2256571959482
245000  ekin = 2.33752620010225 |  erot = 2.63541001293098 | epot = -22.5037249285208 | etot = -17.5307887154876
246000  ekin = 2.25775984192194 |  erot = 2.49145900746147 | epot = -22.6039669429679 | etot = -17.8547480935845
247000  ekin = 2.20328096321392 |  erot = 2.51295988229219 | epot = -22.6897860502887 | etot = -17.9735452047826
248000  ekin = 2.11215135404835 |  erot = 2.38179652938609 | epot = -22.7654961945533 | etot = -18.2715483111189
249000  ekin = 2.18103243553736 |  erot = 2.12199506651676 | epot = -22.8086866218619 | etot = -18.5056591198078
250000  ekin = 2.00642865007526 |  erot = 2.13785268765979 | epot = -22.7981127674599 | etot = -18.6538314297248
251000  ekin = 2.0081090206787 |  erot = 2.15377771615689 | epot = -22.7541924896507 | etot = -18.5923057528151
252000  ekin = 2.04967696381119 |  erot = 2.10564030292916 | epot = -22.7175683002137 | etot = -18.5622510334734
253000  ekin = 1.97178429049489 |  erot = 2.56395759404194 | epot = -22.6833423138514 | etot = -18.1476004293146
254000  ekin = 1.89998560000768 |  erot = 2.76446346254018 | epot = -22.6525507394861 | etot = -17.9881016769382
255000  ekin = 1.92358808504112 |  erot = 2.8232180655232 | epot = -22.6339519254389 | etot = -17.8871457748746
256000  ekin = 1.88537924827498 |  erot = 2.39478935532049 | epot = -22.6063238269833 | etot = -18.3261552233879
257000  ekin = 1.89017314858349 |  erot = 2.47354789341062 | epot = -22.5844642699129 | etot = -18.2207432279188
258000  ekin = 2.03347535796395 |  erot = 2.06391667042751 | epot = -22.5636266221105 | etot = -18.4662345937191
259000  ekin = 2.08170419875311 |  erot = 1.98311262235159 | epot = -22.5595893965744 | etot = -18.4947725754697
260000  ekin = 2.15465691022503 |  erot = 1.92890944309568 | epot = -22.5702550804873 | etot = -18.4866887271666
261000  ekin = 2.18525908976661 |  erot = 1.80668043265703 | epot = -22.599603855669 | etot = -18.6076643332453
262000  ekin = 2.39558735866003 |  erot = 1.77101109907158 | epot = -22.6433503794795 | etot = -18.4767519217479
263000  ekin = 2.51566381481677 |  erot = 1.74502710268516 | epot = -22.7083481578158 | etot = -18.4476572403139
264000  ekin = 2.61294097754962 |  erot = 1.72004349105584 | epot = -22.7870727773709 | etot = -18.4540883087654
265000  ekin = 2.69751103648214 |  erot = 1.73596878524943 | epot = -22.8761138257039 | etot = -18.4426340039723
266000  ekin = 2.73317595749254 |  erot = 2.00190945895257 | epot = -22.9815854287862 | etot = -18.2465000123411
267000  ekin = 2.88777944401865 |  erot = 2.03601396733325 | epot = -23.0741467375982 | etot = -18.1503533262463
268000  ekin = 2.88428212564762 |  erot = 2.39210250452423 | epot = -23.1701763705663 | etot = -17.8937917403945
269000  ekin = 2.94011387527553 |  erot = 2.47436168171166 | epot = -23.2463195301015 | etot = -17.8318439731143
270000  ekin = 3.16907204765203 |  erot = 2.44558507843769 | epot = -23.2623613561913 | etot = -17.6477042301015
271000  ekin = 3.2333039510145 |  erot = 2.22964844922972 | epot = -23.2347949376338 | etot = -17.7718425373896
272000  ekin = 3.25903447141521 |  erot = 2.27670268800702 | epot = -23.1776976604854 | etot = -17.6419605010632
273000  ekin = 3.33084558602117 |  erot = 2.34730506518472 | epot = -23.0897292017612 | etot = -17.4115785505553
274000  ekin = 3.13365175221781 |  erot = 2.2890699134736 | epot = -22.970791629232 | etot = -17.5480699635406
275000  ekin = 3.06411601298053 |  erot = 2.05657284383674 | epot = -22.8411592683854 | etot = -17.7204704115681
276000  ekin = 3.00284299412694 |  erot = 2.41503398631215 | epot = -22.7006548358519 | etot = -17.2827778554128
277000  ekin = 2.8898853606654 |  erot = 2.56679455786094 | epot = -22.5600288715064 | etot = -17.1033489529801
278000  ekin = 2.79983988341333 |  erot = 2.44718365696948 | epot = -22.4337020220077 | etot = -17.1866784816249
279000  ekin = 2.62025699943826 |  erot = 2.34403355986967 | epot = -22.3217153271845 | etot = -17.3574247678766
280000  ekin = 2.65113378626893 |  erot = 2.38211104337873 | epot = -22.2136340723867 | etot = -17.1803892427391
281000  ekin = 2.56011045257089 |  erot = 2.14040765533486 | epot = -22.1467069298693 | etot = -17.4461888219636
282000  ekin = 2.46937295979447 |  erot = 2.08425434958574 | epot = -22.1062066499079 | etot = -17.5525793405277
283000  ekin = 2.44420819687516 |  erot = 1.88047008838871 | epot = -22.0682236162874 | etot = -17.7435453310236
284000  ekin = 2.39435456980289 |  erot = 2.14903249361598 | epot = -22.056902758128 | etot = -17.5135156947092
285000  ekin = 2.39703522509055 |  erot = 2.569646039159 | epot = -22.0888499478259 | etot = -17.1221686835764
286000  ekin = 2.43717149651546 |  erot = 2.84247600307268 | epot = -22.1412346796121 | etot = -16.861587180024
287000  ekin = 2.31664233692361 |  erot = 2.84674819551601 | epot = -22.1861386782236 | etot = -17.0227481457839
288000  ekin = 2.26607109317395 |  erot = 3.21299363478886 | epot = -22.2378784042861 | etot = -16.7588136763232
289000  ekin = 2.29584076229566 |  erot = 3.11249259323235 | epot = -22.2883115241192 | etot = -16.8799781685912
290000  ekin = 2.23049902061663 |  erot = 2.87013105088138 | epot = -22.3143401591494 | etot = -17.2137100876514
291000  ekin = 2.21755828984435 |  erot = 2.71274244030907 | epot = -22.3410646593226 | etot = -17.4107639291691
292000  ekin = 2.21317296232836 |  erot = 2.69582872791188 | epot = -22.3827626255967 | etot = -17.4737609353564
293000  ekin = 2.23081262903902 |  erot = 2.60204748252234 | epot = -22.4352222519775 | etot = -17.6023621404161
294000  ekin = 2.26311425147062 |  erot = 3.03410577179155 | epot = -22.4683441344041 | etot = -17.1711241111419
295000  ekin = 2.2812207577869 |  erot = 2.86887170599452 | epot = -22.4906039301699 | etot = -17.3405114663885
296000  ekin = 2.26383415546938 |  erot = 2.78467774936796 | epot = -22.5129720446774 | etot = -17.46446013984
297000  ekin = 2.33825045335883 |  erot = 2.98513561564366 | epot = -22.5191664894362 | etot = -17.1957804204337
298000  ekin = 2.37786827340754 |  erot = 2.85984647447039 | epot = -22.5058515980845 | etot = -17.2681368502066
299000  ekin = 2.32052037098645 |  erot = 2.6948063398296 | epot = -22.4889248916839 | etot = -17.4735981808679
300000  ekin = 2.30322327761401 |  erot = 2.72939848613212 | epot = -22.4591258064476 | etot = -17.4265040427014
301000  ekin = 2.29995331731969 |  erot = 2.60777958693871 | epot = -22.4102468930599 | etot = -17.5025139888015
302000  ekin = 2.31454372799517 |  erot = 2.67298740529846 | epot = -22.3501115787877 | etot = -17.3625804454941
303000  ekin = 2.40576357226374 |  erot = 2.41520690493574 | epot = -22.2832063980298 | etot = -17.4622359208303
304000  ekin = 2.35524162584728 |  erot = 2.05432603043706 | epot = -22.2112103404661 | etot = -17.8016426841818
305000  ekin = 2.30537591124535 |  erot = 1.98023337779147 | epot = -22.1649123466492 | etot = -17.8793030576124
306000  ekin = 2.32478727778829 |  erot = 1.89519445956113 | epot = -22.1442852026102 | etot = -17.9243034652608
307000  ekin = 2.41423624130655 |  erot = 1.91431870573649 | epot = -22.1548620004642 | etot = -17.8263070534212
308000  ekin = 2.44675290257479 |  erot = 2.31210197406235 | epot = -22.2055558309834 | etot = -17.4467009543463
309000  ekin = 2.456733741312 |  erot = 2.16129470434149 | epot = -22.2742892000813 | etot = -17.6562607544278
310000  ekin = 2.58167657763234 |  erot = 2.4384694301708 | epot = -22.3327423848014 | etot = -17.3125963769982
311000  ekin = 2.5293944901135 |  erot = 2.76106281819497 | epot = -22.3705094869024 | etot = -17.0800521785939
312000  ekin = 2.52610661112938 |  erot = 2.98071467503396 | epot = -22.3866205343165 | etot = -16.8797992481532
313000  ekin = 2.52405671654842 |  erot = 2.80377255965802 | epot = -22.4049055192042 | etot = -17.0770762429978
314000  ekin = 2.65040443727049 |  erot = 2.69900889453174 | epot = -22.3876700619105 | etot = -17.0382567301082
315000  ekin = 2.74472815623857 |  erot = 2.6634099641871 | epot = -22.3592685134382 | etot = -16.9511303930125
316000  ekin = 2.83270806183629 |  erot = 2.6834624018617 | epot = -22.3041387808826 | etot = -16.7879683171846
317000  ekin = 2.98267354986799 |  erot = 2.4999891053122 | epot = -22.2250773416344 | etot = -16.7424146864542
318000  ekin = 2.95159865011192 |  erot = 2.46437525131281 | epot = -22.1605195993969 | etot = -16.7445456979721
319000  ekin = 2.99544196834495 |  erot = 2.37119170515183 | epot = -22.0922506560632 | etot = -16.7256169825664
320000  ekin = 3.12952415968056 |  erot = 2.25302267428086 | epot = -22.0193402840265 | etot = -16.6367934500651
321000  ekin = 3.21184303812923 |  erot = 2.03139593747172 | epot = -21.9793920725106 | etot = -16.7361530969097
322000  ekin = 3.32994096856511 |  erot = 2.3411089367688 | epot = -21.9763192351684 | etot = -16.3052693298345
323000  ekin = 3.41272790799891 |  erot = 2.43631206380498 | epot = -22.014012335423 | etot = -16.1649723636191
324000  ekin = 3.63714885281377 |  erot = 1.94651241761841 | epot = -22.0887358924505 | etot = -16.5050746220183
325000  ekin = 3.64965023300859 |  erot = 1.83594979903826 | epot = -22.1597106232418 | etot = -16.674110591195
326000  ekin = 3.79931323852483 |  erot = 1.60564512903886 | epot = -22.2163199739481 | etot = -16.8113616063844
327000  ekin = 3.85106864316231 |  erot = 1.85449233215436 | epot = -22.2856422481549 | etot = -16.5800812728382
328000  ekin = 3.95505458701157 |  erot = 2.12895030409347 | epot = -22.3412351799646 | etot = -16.2572302888595
329000  ekin = 3.96560356728839 |  erot = 2.0612406639335 | epot = -22.3752736768186 | etot = -16.3484294455967
330000  ekin = 4.00004269284732 |  erot = 2.01808790805441 | epot = -22.3671090028808 | etot = -16.348978401979
331000  ekin = 3.84205146855946 |  erot = 1.89603876125722 | epot = -22.3128837484487 | etot = -16.5747935186321
332000  ekin = 3.66184063362549 |  erot = 2.39349988256161 | epot = -22.257623873614 | etot = -16.2022833574269
333000  ekin = 3.52628969259453 |  erot = 2.20415103930297 | epot = -22.1847867511299 | etot = -16.4543460192324
334000  ekin = 3.3437779801396 |  erot = 2.36266544381992 | epot = -22.1376045131504 | etot = -16.4311610891909
335000  ekin = 3.23745330446352 |  erot = 2.56905504387957 | epot = -22.1187474004986 | etot = -16.3122390521555
336000  ekin = 3.15020041660106 |  erot = 2.76447823600607 | epot = -22.1164491906296 | etot = -16.2017705380225
337000  ekin = 2.95647753165974 |  erot = 3.39203265805615 | epot = -22.1578850568599 | etot = -15.809374867144
338000  ekin = 2.77494351817581 |  erot = 3.38702940437107 | epot = -22.2028615569714 | etot = -16.0408886344245
339000  ekin = 2.56974792274936 |  erot = 3.36393768621225 | epot = -22.2430377961403 | etot = -16.3093521871787
340000  ekin = 2.54624997134424 |  erot = 3.18838906080749 | epot = -22.2696997292606 | etot = -16.5350606971088
341000  ekin = 2.4668045333309 |  erot = 3.23666697035734 | epot = -22.2714054864725 | etot = -16.5679339827843
342000  ekin = 2.41970796988159 |  erot = 3.10075257077742 | epot = -22.2625825508718 | etot = -16.7421220102128
343000  ekin = 2.39134830962094 |  erot = 2.99983011061346 | epot = -22.2626100438681 | etot = -16.8714316236337
344000  ekin = 2.40072375544815 |  erot = 3.07461576439234 | epot = -22.2332671874541 | etot = -16.7579276676136
345000  ekin = 2.47818664391052 |  erot = 3.01878606425649 | epot = -22.1765310886858 | etot = -16.6795583805188
346000  ekin = 2.42322520039713 |  erot = 2.49312120205091 | epot = -22.1072756725379 | etot = -17.1909292700899
347000  ekin = 2.50705041682168 |  erot = 2.52533205787073 | epot = -22.0719334103209 | etot = -17.0395509356285
348000  ekin = 2.5003068515947 |  erot = 2.7382550355115 | epot = -22.027067188238 | etot = -16.7885053011318
349000  ekin = 2.60963103698124 |  erot = 2.7944394998929 | epot = -21.9800449664777 | etot = -16.5759744296036
350000  ekin = 2.57407872164985 |  erot = 2.87849433187398 | epot = -21.9210551857954 | etot = -16.4684821322716
351000  ekin = 2.60900955228799 |  erot = 2.47335254246403 | epot = -21.9029016387199 | etot = -16.8205395439678
352000  ekin = 2.68632626573655 |  erot = 2.16861659144723 | epot = -21.8932933758337 | etot = -17.0383505186499
353000  ekin = 2.72806527094852 |  erot = 2.21631476958764 | epot = -21.8949965382931 | etot = -16.950616497757
354000  ekin = 2.80926057411796 |  erot = 2.29356292718611 | epot = -21.9255698630395 | etot = -16.8227463617354
355000  ekin = 2.82955370341617 |  erot = 2.23886374167674 | epot = -21.9739881370157 | etot = -16.9055706919228
356000  ekin = 2.95318161283268 |  erot = 2.20593846887515 | epot = -22.0378541396085 | etot = -16.8787340579007
357000  ekin = 3.00516452100387 |  erot = 2.39489434202986 | epot = -22.104563588431 | etot = -16.7045047253973
358000  ekin = 3.14013674094297 |  erot = 2.81648025756436 | epot = -22.1940030034409 | etot = -16.2373860049336
359000  ekin = 3.2489530732029 |  erot = 2.89756918684608 | epot = -22.289435624655 | etot = -16.142913364606
360000  ekin = 3.29499898808924 |  erot = 2.69446962924572 | epot = -22.3827935430045 | etot = -16.3933249256695
361000  ekin = 3.31826252960522 |  erot = 3.08121996997403 | epot = -22.3855376265986 | etot = -15.9860551270194
362000  ekin = 3.22507380499832 |  erot = 2.94494755594978 | epot = -22.1939077776838 | etot = -16.0238864167357
363000  ekin = 3.31998300083389 |  erot = 2.84571871387849 | epot = -22.1418339144058 | etot = -15.9761321996935
364000  ekin = 3.46138826026248 |  erot = 3.17267347021574 | epot = -22.2920001905031 | etot = -15.6579384600248
365000  ekin = 3.41685157685538 |  erot = 2.95127990795476 | epot = -22.240326005599 | etot = -15.8721945207889
366000  ekin = 3.28889153330115 |  erot = 2.68298751094344 | epot = -22.0917647614685 | etot = -16.1198857172239
367000  ekin = 3.13188043782679 |  erot = 2.32272362557638 | epot = -21.9624425815398 | etot = -16.5078385181366
368000  ekin = 3.056352336118 |  erot = 2.49179825174104 | epot = -21.8924084965124 | etot = -16.3442579086533
369000  ekin = 2.97979500179357 |  erot = 2.09677594955126 | epot = -21.8535972953644 | etot = -16.7770263440196
370000  ekin = 2.86265256457624 |  erot = 2.27837964431472 | epot = -21.8636474872586 | etot = -16.7226152783677
371000  ekin = 2.81676366518742 |  erot = 2.51005420363864 | epot = -21.8612307947671 | etot = -16.534412925941
372000  ekin = 2.89056214524153 |  erot = 2.17924443857051 | epot = -21.846592680977 | etot = -16.7767860971649
373000  ekin = 2.85702985814987 |  erot = 2.22607119851547 | epot = -21.8235708010662 | etot = -16.7404697444008
374000  ekin = 2.69116258554349 |  erot = 2.54595039875569 | epot = -21.8020300439687 | etot = -16.5649170596695
375000  ekin = 2.65367735566875 |  erot = 2.84882366948588 | epot = -21.7972775666781 | etot = -16.2947765415234
376000  ekin = 2.56541501684005 |  erot = 3.15381436306323 | epot = -21.8007765642063 | etot = -16.081547184303
377000  ekin = 2.51617117441638 |  erot = 3.34506466383927 | epot = -21.778089805669 | etot = -15.9168539674133
378000  ekin = 2.39886036582834 |  erot = 3.14706842402722 | epot = -21.738430489254 | etot = -16.1925016993984
379000  ekin = 2.32534620585577 |  erot = 2.9467038227835 | epot = -21.6782824657579 | etot = -16.4062324371187
380000  ekin = 2.15266052745912 |  erot = 3.43857095246912 | epot = -21.6038294062212 | etot = -16.0125979262929
381000  ekin = 2.13714114193708 |  erot = 3.11249169114175 | epot = -21.5367992698038 | etot = -16.2871664367249
382000  ekin = 2.05496339747551 |  erot = 3.44869747601511 | epot = -21.4764708985239 | etot = -15.9728100250333
383000  ekin = 2.03169806552591 |  erot = 3.38753191033141 | epot = -21.4173191206603 | etot = -15.998089144803
384000  ekin = 1.9536464992119 |  erot = 3.35746983585185 | epot = -21.3597667304038 | etot = -16.0486503953401
385000  ekin = 1.95295295831838 |  erot = 3.20059142565732 | epot = -21.3242192311686 | etot = -16.1706748471929
386000  ekin = 2.03545459887428 |  erot = 2.6333725467863 | epot = -21.3197581171682 | etot = -16.6509309715076
387000  ekin = 2.08744315207257 |  erot = 2.67515413940834 | epot = -21.321978305784 | etot = -16.5593810143031
388000  ekin = 2.10460844408205 |  erot = 2.63750027619817 | epot = -21.3534873824531 | etot = -16.6113786621729
389000  ekin = 2.13617356384952 |  erot = 2.49874264909337 | epot = -21.4010667143317 | etot = -16.7661505013888
390000  ekin = 2.21418863130661 |  erot = 2.61354129728509 | epot = -21.4597800849527 | etot = -16.632050156361
391000  ekin = 2.30830767897454 |  erot = 2.42155138145244 | epot = -21.5215483863443 | etot = -16.7916893259173
392000  ekin = 2.30978428581462 |  erot = 2.2702116622687 | epot = -21.5693953401795 | etot = -16.9893993920962
393000  ekin = 2.43507049787304 |  erot = 2.19525621528521 | epot = -21.6165022301659 | etot = -16.9861755170077
394000  ekin = 2.48175272100065 |  erot = 1.97403757750068 | epot = -21.643553588929 | etot = -17.1877632904276
395000  ekin = 2.57078024352525 |  erot = 1.94477022107785 | epot = -21.7032003447495 | etot = -17.1876498801464
396000  ekin = 2.63856854694526 |  erot = 2.15467094485346 | epot = -21.7518329108741 | etot = -16.9585934190754
397000  ekin = 2.67333204158292 |  erot = 2.10415530221336 | epot = -21.7874922526139 | etot = -17.0100049088176
398000  ekin = 2.71657217445487 |  erot = 2.2726087644269 | epot = -21.7955669580492 | etot = -16.8063860191674
399000  ekin = 2.74052903415942 |  erot = 1.98188508417839 | epot = -21.7850112801671 | etot = -17.0625971618293
400000  ekin = 2.72461700644057 |  erot = 1.79309630627378 | epot = -21.7479203148975 | etot = -17.2302070021832
401000  ekin = 2.67821010319014 |  erot = 1.80652566016257 | epot = -21.698608702759 | etot = -17.2138729394062
402000  ekin = 2.66678843641911 |  erot = 1.99143851830794 | epot = -21.6166886330481 | etot = -16.9584616783211
403000  ekin = 2.71498615143681 |  erot = 2.00496282624719 | epot = -21.5303765730254 | etot = -16.8104275953414
404000  ekin = 2.72798047530865 |  erot = 1.97802766069305 | epot = -21.4249267789288 | etot = -16.7189186429271
405000  ekin = 2.65655813266499 |  erot = 1.93167942695855 | epot = -21.3111486584608 | etot = -16.7229110988373
406000  ekin = 2.60702986991675 |  erot = 1.76285472093913 | epot = -21.1926812354137 | etot = -16.8227966445578
407000  ekin = 2.48234362601436 |  erot = 1.89687727619118 | epot = -21.0701942151549 | etot = -16.6909733129493
408000  ekin = 2.49227529739515 |  erot = 2.21804348518091 | epot = -20.9209091795091 | etot = -16.210590396933
409000  ekin = 2.28147512963803 |  erot = 2.33822783369873 | epot = -20.7906871723621 | etot = -16.1709842090254
410000  ekin = 2.17062635902643 |  erot = 2.33410289107436 | epot = -20.7498754299753 | etot = -16.2451461798745
411000  ekin = 2.17272870653952 |  erot = 2.2156634626659 | epot = -20.7111946304985 | etot = -16.3228024612931
412000  ekin = 2.18233973422078 |  erot = 1.95033555757298 | epot = -20.6834214582718 | etot = -16.5507461664781
413000  ekin = 2.30890718881924 |  erot = 2.0702155403649 | epot = -20.6873588522826 | etot = -16.3082361230984
414000  ekin = 2.33564543866431 |  erot = 1.99840226970565 | epot = -20.7252533334277 | etot = -16.3912056250577
415000  ekin = 2.38284289900085 |  erot = 2.11597172640873 | epot = -20.8097694536977 | etot = -16.3109548282881
416000  ekin = 2.4891981967793 |  erot = 2.33259772891817 | epot = -20.9508447049437 | etot = -16.1290487792462
417000  ekin = 2.54526036986863 |  erot = 2.55910512686791 | epot = -21.1274289862994 | etot = -16.0230634895629
418000  ekin = 2.51632809206382 |  erot = 2.72037030682962 | epot = -21.2997759305311 | etot = -16.0630775316377
419000  ekin = 2.67295573593477 |  erot = 2.7771535580359 | epot = -21.4556263294564 | etot = -16.0055170354857
420000  ekin = 2.85018483582401 |  erot = 2.31598006691945 | epot = -21.598096067305 | etot = -16.4319311645616
421000  ekin = 2.96837524337278 |  erot = 2.62682452529496 | epot = -21.7546670845078 | etot = -16.1594673158401
422000  ekin = 3.19012922154601 |  erot = 2.84396098635259 | epot = -21.9215374215571 | etot = -15.8874472136585
423000  ekin = 3.3689393550787 |  erot = 2.63026872290709 | epot = -22.0572951448105 | etot = -16.0580870668247
424000  ekin = 3.56949208720973 |  erot = 2.47035354176279 | epot = -22.1637806318818 | etot = -16.1239350029093
425000  ekin = 3.74058915148773 |  erot = 2.35112257121746 | epot = -22.2380669505818 | etot = -16.1463552278766
426000  ekin = 3.80317641902181 |  erot = 2.35606913247639 | epot = -22.2959429720038 | etot = -16.1366974205056
427000  ekin = 3.84305942013411 |  erot = 2.33548874740511 | epot = -22.3376365509407 | etot = -16.1590883834015
428000  ekin = 3.83870631322395 |  erot = 2.2350686376018 | epot = -22.3684501057755 | etot = -16.2946751549498
429000  ekin = 3.88817033525608 |  erot = 2.49183581120228 | epot = -22.3756888085917 | etot = -15.9956826621333
430000  ekin = 3.80889051818672 |  erot = 2.40484189761613 | epot = -22.357001863787 | etot = -16.1432694479841
431000  ekin = 3.77310947248888 |  erot = 2.27913524660264 | epot = -22.3205980214879 | etot = -16.2683533023964
432000  ekin = 3.52274921334614 |  erot = 2.24573259199191 | epot = -22.2753655924895 | etot = -16.5068837871515
433000  ekin = 3.46705236442825 |  erot = 2.20376216835505 | epot = -22.2487474226527 | etot = -16.5779328898694
434000  ekin = 3.31902379467507 |  erot = 2.11029295350195 | epot = -22.2098823317898 | etot = -16.7805655836127
435000  ekin = 3.17487375029743 |  erot = 2.50022517053552 | epot = -22.1671631710259 | etot = -16.4920642501929
436000  ekin = 3.02349956092827 |  erot = 2.40764251188789 | epot = -22.1302532198703 | etot = -16.6991111470541
437000  ekin = 2.82748432721598 |  erot = 2.14344362630242 | epot = -22.1006119384222 | etot = -17.1296839849038
438000  ekin = 2.76339787793433 |  erot = 2.41905080521281 | epot = -22.0957010825607 | etot = -16.9132523994136
439000  ekin = 2.67198886552451 |  erot = 2.59491616836501 | epot = -22.1135007428951 | etot = -16.8465957090056
440000  ekin = 2.51284986257016 |  erot = 2.9117422878524 | epot = -22.1427877988882 | etot = -16.7181956484656
441000  ekin = 2.50780828634469 |  erot = 2.72902768068008 | epot = -22.1697146510929 | etot = -16.9328786840681
442000  ekin = 2.44873015400854 |  erot = 2.74922432089635 | epot = -22.2054533182396 | etot = -17.0074988433347
443000  ekin = 2.38093647463518 |  erot = 2.64154199429508 | epot = -22.2472480992725 | etot = -17.2247696303423
444000  ekin = 2.38366519287148 |  erot = 2.67137923733322 | epot = -22.2750222251915 | etot = -17.2199777949868
445000  ekin = 2.40684373898667 |  erot = 2.59567738953131 | epot = -22.2857281482681 | etot = -17.2832070197501
446000  ekin = 2.36082009501203 |  erot = 2.73001014061368 | epot = -22.2789998471504 | etot = -17.1881696115246
447000  ekin = 2.36605795906938 |  erot = 2.58257112672917 | epot = -22.2960840066295 | etot = -17.347454920831
448000  ekin = 2.32165762068391 |  erot = 2.36145535918709 | epot = -22.3211882050735 | etot = -17.6380752252025
449000  ekin = 2.44203969267578 |  erot = 2.62540304636667 | epot = -22.3026387988319 | etot = -17.2351960597895
450000  ekin = 2.51099258071334 |  erot = 2.64840657329913 | epot = -22.2675924392713 | etot = -17.1081932852588
451000  ekin = 2.50793019457257 |  erot = 2.96188202684436 | epot = -22.2417686447221 | etot = -16.7719564233052
452000  ekin = 2.51543909198824 |  erot = 2.97645802250486 | epot = -22.1947639118426 | etot = -16.7028667973495
453000  ekin = 2.48027617072922 |  erot = 2.57675545715309 | epot = -22.1151189784507 | etot = -17.0580873505684
454000  ekin = 2.53738257378339 |  erot = 2.32076068281017 | epot = -22.0114335109919 | etot = -17.1532902543983
455000  ekin = 2.40824460563833 |  erot = 2.52466300048372 | epot = -21.9140685033287 | etot = -16.9811608972066
456000  ekin = 2.48089669783939 |  erot = 2.44995767624588 | epot = -21.8323732399436 | etot = -16.9015188658584
457000  ekin = 2.41775201722811 |  erot = 2.40996718790024 | epot = -21.7728619497133 | etot = -16.9451427445849
458000  ekin = 2.47981300263295 |  erot = 2.17375208123326 | epot = -21.7127229794173 | etot = -17.0591578955511
459000  ekin = 2.50098429139894 |  erot = 2.13049458828857 | epot = -21.6581010444987 | etot = -17.0266221648112
460000  ekin = 2.38145892905036 |  erot = 1.94162891941061 | epot = -21.6082620378711 | etot = -17.2851741894102
461000  ekin = 2.33337517008642 |  erot = 1.98667402531251 | epot = -21.5649964210092 | etot = -17.2449472256103
462000  ekin = 2.28227781413481 |  erot = 1.78636859811692 | epot = -21.553299713964 | etot = -17.4846533017123
463000  ekin = 2.31407904587683 |  erot = 1.75082487007371 | epot = -21.5758125934739 | etot = -17.5109086775234
464000  ekin = 2.33760733880321 |  erot = 1.97752071149075 | epot = -21.6288036107053 | etot = -17.3136755604113
465000  ekin = 2.35344133595347 |  erot = 1.91505497900073 | epot = -21.7041801943292 | etot = -17.435683879375
466000  ekin = 2.42854776892503 |  erot = 1.75072628953244 | epot = -21.7819960540276 | etot = -17.6027219955701
467000  ekin = 2.46288459947453 |  erot = 1.78816598264994 | epot = -21.8507036001179 | etot = -17.5996530179934
468000  ekin = 2.4396980237813 |  erot = 1.72898452339386 | epot = -21.9015694636242 | etot = -17.732886916449
469000  ekin = 2.54376807882599 |  erot = 1.93023555616053 | epot = -21.9541799518692 | etot = -17.4801763168827
470000  ekin = 2.63326744382486 |  erot = 1.50609058500148 | epot = -21.9819116677659 | etot = -17.8425536389396
471000  ekin = 2.65978116714098 |  erot = 1.70311641290876 | epot = -21.998720113699 | etot = -17.6358225336493
472000  ekin = 2.69971587804179 |  erot = 1.80099323522394 | epot = -22.0027803172695 | etot = -17.5020712040038
473000  ekin = 2.72512699348196 |  erot = 2.02324872686535 | epot = -22.0030224491713 | etot = -17.254646728824
474000  ekin = 2.84072412734433 |  erot = 2.2138329031493 | epot = -21.9941738614508 | etot = -16.9396168309571
475000  ekin = 2.80675445958325 |  erot = 1.90220774412446 | epot = -21.9850696381239 | etot = -17.2761074344162
476000  ekin = 2.72360114140076 |  erot = 2.00284464538919 | epot = -21.9892397336864 | etot = -17.2627939468965
477000  ekin = 2.84056500761862 |  erot = 1.91820766145647 | epot = -22.0039582079805 | etot = -17.2451855389054
478000  ekin = 2.79479136762928 |  erot = 2.33508343932093 | epot = -22.0073204493409 | etot = -16.8774456423907
479000  ekin = 2.68385324315888 |  erot = 2.16409914969165 | epot = -21.9972664623628 | etot = -17.1493140695123
480000  ekin = 2.70919062871945 |  erot = 2.2201907483767 | epot = -21.9751418417914 | etot = -17.0457604646952
481000  ekin = 2.6330738635062 |  erot = 1.99280181185983 | epot = -21.9303826423552 | etot = -17.3045069669892
482000  ekin = 2.59315858027291 |  erot = 2.21899648577234 | epot = -21.8738249716004 | etot = -17.0616699055552
483000  ekin = 2.47046920651463 |  erot = 2.31431109078724 | epot = -21.8097795572398 | etot = -17.0249992599379
484000  ekin = 2.53508822055607 |  erot = 2.47424748553176 | epot = -21.7175828393255 | etot = -16.7082471332376
485000  ekin = 2.50485650643293 |  erot = 2.32403296584754 | epot = -21.6361062693728 | etot = -16.8072167970923
486000  ekin = 2.47721144858964 |  erot = 2.13567134935031 | epot = -21.5220454766261 | etot = -16.9091626786862
487000  ekin = 2.37724853790925 |  erot = 2.18943698926396 | epot = -21.3143250794172 | etot = -16.747639552244
488000  ekin = 2.48818613181863 |  erot = 1.88306237250834 | epot = -21.3116084588732 | etot = -16.9403599545463
489000  ekin = 2.74982657944339 |  erot = 1.89187656286075 | epot = -21.4756253900937 | etot = -16.8339222477895
490000  ekin = 2.84466800424173 |  erot = 1.71237058668174 | epot = -21.5263774576827 | etot = -16.9693388667592
491000  ekin = 2.85737105202628 |  erot = 1.55281245576821 | epot = -21.5086751027887 | etot = -17.0984915949942
492000  ekin = 2.90983632457413 |  erot = 1.91497206116242 | epot = -21.5279430025227 | etot = -16.7031346167862
493000  ekin = 2.89079796015606 |  erot = 2.10766085424281 | epot = -21.550840131446 | etot = -16.5523813170471
494000  ekin = 2.90235816901099 |  erot = 1.9402922611658 | epot = -21.5811303529852 | etot = -16.7384799228084
495000  ekin = 2.87250026921876 |  erot = 1.80307251979051 | epot = -21.6111333229179 | etot = -16.9355605339086
496000  ekin = 2.90478694209697 |  erot = 1.72383486079582 | epot = -21.6487754892895 | etot = -17.0201536863967
497000  ekin = 2.79889384992107 |  erot = 1.75660961047752 | epot = -21.6748215786364 | etot = -17.1193181182378
498000  ekin = 2.74060640404801 |  erot = 1.8988825882541 | epot = -21.7102647961433 | etot = -17.0707758038412
499000  ekin = 2.80294847124193 |  erot = 2.31213970127587 | epot = -21.7484718969955 | etot = -16.6333837244777
500000  ekin = 2.83514351912353 |  erot = 2.19332479656699 | epot = -21.7847476520863 | etot = -16.7562793363958
501000  ekin = 2.85410564762311 |  erot = 2.42583012042732 | epot = -21.8174128447106 | etot = -16.5374770766602
502000  ekin = 2.87283408161098 |  erot = 2.50841092791892 | epot = -21.8423925146404 | etot = -16.4611475051105
503000  ekin = 2.94443013466673 |  erot = 2.36313582629975 | epot = -21.8519587007928 | etot = -16.5443927398264
504000  ekin = 2.98534964558837 |  erot = 2.41275211835294 | epot = -21.8136647277171 | etot = -16.4155629637758
505000  ekin = 3.10846911992697 |  erot = 2.13573452517239 | epot = -21.7537837267862 | etot = -16.5095800816869
506000  ekin = 3.09786641402197 |  erot = 2.01700572313873 | epot = -21.7049804656294 | etot = -16.5901083284687
507000  ekin = 3.16348616847778 |  erot = 1.94949346287679 | epot = -21.6672353473611 | etot = -16.5542557160065
508000  ekin = 3.07061633092948 |  erot = 2.13446212006044 | epot = -21.6350846399517 | etot = -16.4300061889618
509000  ekin = 3.12907466475355 |  erot = 2.35272620108291 | epot = -21.6205801924069 | etot = -16.1387793265704
510000  ekin = 3.0245140017856 |  erot = 2.25242701385288 | epot = -21.6251089836152 | etot = -16.3481679679767
511000  ekin = 2.94040580941495 |  erot = 2.31948438934905 | epot = -21.6216965431398 | etot = -16.3618063443758
512000  ekin = 2.94467119608466 |  erot = 2.24306810877183 | epot = -21.5962799069277 | etot = -16.4085406020712
513000  ekin = 2.87751742568546 |  erot = 2.4154144429729 | epot = -21.5773819493344 | etot = -16.284450080676
514000  ekin = 2.87859810419347 |  erot = 2.53612885093564 | epot = -21.588691061236 | etot = -16.1739641061069
515000  ekin = 2.65152076844924 |  erot = 2.70952186913726 | epot = -21.6126230255115 | etot = -16.251580387925
516000  ekin = 2.77253963034905 |  erot = 3.1111688276585 | epot = -21.6107374310228 | etot = -15.7270289730152
517000  ekin = 2.7657240217945 |  erot = 2.98569828005575 | epot = -21.5945323230587 | etot = -15.8431100212085
518000  ekin = 2.70082064566998 |  erot = 2.94453329815957 | epot = -21.5767297354903 | etot = -15.9313757916607
519000  ekin = 2.54482845466883 |  erot = 2.66065301480803 | epot = -21.5508730096676 | etot = -16.3453915401907
520000  ekin = 2.45944414333559 |  erot = 2.6059278317658 | epot = -21.5130137565194 | etot = -16.447641781418
521000  ekin = 2.40695980994573 |  erot = 2.63220992355673 | epot = -21.4828393267851 | etot = -16.4436695932826
522000  ekin = 2.52378769907125 |  erot = 2.56066497083157 | epot = -21.4628073945551 | etot = -16.3783547246523
523000  ekin = 2.47704387064472 |  erot = 2.27847516566714 | epot = -21.3936943383542 | etot = -16.6381753020423
524000  ekin = 2.45003418957747 |  erot = 2.35140218073762 | epot = -21.2843636599225 | etot = -16.4829272896075
525000  ekin = 2.36142621667719 |  erot = 2.56683372922841 | epot = -21.3738770732968 | etot = -16.4456171273912
526000  ekin = 2.41274041153331 |  erot = 2.62143474643862 | epot = -21.5186087776721 | etot = -16.4844336197002
527000  ekin = 2.51690607418066 |  erot = 2.50693092291692 | epot = -21.5243590814513 | etot = -16.5005220843537
528000  ekin = 2.54770211426161 |  erot = 2.53999552090151 | epot = -21.5164154929429 | etot = -16.4287178577798
529000  ekin = 2.4753674979034 |  erot = 2.56875642748162 | epot = -21.5117161086082 | etot = -16.4675921832232
530000  ekin = 2.5803889742549 |  erot = 3.01233807443761 | epot = -21.5190605777288 | etot = -15.9263335290363
531000  ekin = 2.6505489472462 |  erot = 2.80448099540881 | epot = -21.5589351824918 | etot = -16.1039052398368
532000  ekin = 2.6696524214408 |  erot = 2.74119638756006 | epot = -21.6464179501726 | etot = -16.2355691411717
533000  ekin = 2.72770786142475 |  erot = 2.77844536173281 | epot = -21.7626441239329 | etot = -16.2564909007754
534000  ekin = 2.64182362572746 |  erot = 3.16792870118731 | epot = -21.9259934897404 | etot = -16.1162411628256
535000  ekin = 2.66520124770206 |  erot = 3.28791712497576 | epot = -22.0889762146489 | etot = -16.1358578419711
536000  ekin = 2.62601876922119 |  erot = 3.30261897461184 | epot = -22.2457512656675 | etot = -16.3171135218345
537000  ekin = 2.69839345537191 |  erot = 3.42813769244461 | epot = -22.4210021127565 | etot = -16.29447096494
538000  ekin = 2.66760385526385 |  erot = 3.62303132590617 | epot = -22.5913550255155 | etot = -16.3007198443454
539000  ekin = 2.67321194398858 |  erot = 3.60397197005646 | epot = -22.7197786083613 | etot = -16.4425946943163
540000  ekin = 2.61847962179667 |  erot = 3.59814593067319 | epot = -22.8058567264858 | etot = -16.5892311740159
541000  ekin = 2.67186419743777 |  erot = 3.32667413558495 | epot = -22.8335693145217 | etot = -16.835030981499
542000  ekin = 2.70747491915378 |  erot = 3.01115645898026 | epot = -22.8115452943436 | etot = -17.0929139162096
543000  ekin = 2.54644874759652 |  erot = 2.82723025266318 | epot = -22.7664572430855 | etot = -17.3927782428258
544000  ekin = 2.54639384288721 |  erot = 2.5174224919614 | epot = -22.7350779454404 | etot = -17.6712616105918
545000  ekin = 2.56168013748332 |  erot = 2.65611713884728 | epot = -22.7023384195505 | etot = -17.4845411432199
546000  ekin = 2.58160534092255 |  erot = 2.38787600628631 | epot = -22.6704542470138 | etot = -17.7009728998049
547000  ekin = 2.6121146280375 |  erot = 2.34648461296519 | epot = -22.6334663710584 | etot = -17.6748671300557
548000  ekin = 2.61848748301412 |  erot = 2.5516310420712 | epot = -22.6097685172029 | etot = -17.4396499921176
549000  ekin = 2.67184047302193 |  erot = 2.60680496690199 | epot = -22.6113862974877 | etot = -17.3327408575638
550000  ekin = 2.72277931598642 |  erot = 2.65040849078687 | epot = -22.6203600824211 | etot = -17.2471722756478
551000  ekin = 2.74305353489356 |  erot = 2.80075659039589 | epot = -22.6177232617521 | etot = -17.0739131364627
552000  ekin = 2.81751360269325 |  erot = 2.75287635518204 | epot = -22.602311876728 | etot = -17.0319219188527
553000  ekin = 2.79227730256451 |  erot = 2.56192872740975 | epot = -22.5537272638578 | etot = -17.1995212338835
554000  ekin = 2.73534601403833 |  erot = 2.65053323061196 | epot = -22.4791077870334 | etot = -17.0932285423831
555000  ekin = 2.638870693299 |  erot = 2.60099744506951 | epot = -22.3836014529598 | etot = -17.1437333145913
556000  ekin = 2.5879592273157 |  erot = 2.83939231123044 | epot = -22.3242799264679 | etot = -16.8969283879218
557000  ekin = 2.47840947592946 |  erot = 2.83134609082876 | epot = -22.3241590735327 | etot = -17.0144035067744
558000  ekin = 2.40468725505368 |  erot = 2.93322561456073 | epot = -22.2772491751352 | etot = -16.9393363055208
559000  ekin = 2.41820823948318 |  erot = 2.8608918734677 | epot = -22.2036329910434 | etot = -16.9245328780926
560000  ekin = 2.3966202031316 |  erot = 2.57730341735947 | epot = -22.1373821619364 | etot = -17.1634585414453
561000  ekin = 2.41616568173939 |  erot = 2.43139941603537 | epot = -22.0606510286939 | etot = -17.2130859309192
562000  ekin = 2.32711122790915 |  erot = 2.68540878415344 | epot = -22.0362236088755 | etot = -17.0237035968129
563000  ekin = 2.40105509630183 |  erot = 2.62423602861765 | epot = -22.0398518714972 | etot = -17.0145607465777
564000  ekin = 2.50622664221487 |  erot = 2.49283482178932 | epot = -22.0598046960839 | etot = -17.0607432320797
565000  ekin = 2.51273313956233 |  erot = 2.47207361692501 | epot = -22.089921425343 | etot = -17.1051146688556
566000  ekin = 2.45555537786115 |  erot = 2.3082155714912 | epot = -22.1147098672019 | etot = -17.3509389178496
567000  ekin = 2.48507699437185 |  erot = 2.03226369059615 | epot = -22.1483465792771 | etot = -17.6310058943091
568000  ekin = 2.44600711349212 |  erot = 2.16818780091151 | epot = -22.1715613145415 | etot = -17.5573664001379
569000  ekin = 2.41496567776295 |  erot = 2.08307839560002 | epot = -22.1893617136985 | etot = -17.6913176403356
570000  ekin = 2.31032400356052 |  erot = 1.94654984481954 | epot = -22.1972672153819 | etot = -17.9403933670018
571000  ekin = 2.34174388046968 |  erot = 1.90380560996229 | epot = -22.2024778466829 | etot = -17.9569283562509
572000  ekin = 2.3161224267259 |  erot = 2.32477215739614 | epot = -22.1972617700694 | etot = -17.5563671859474
573000  ekin = 2.33747992651635 |  erot = 2.05308190482657 | epot = -22.1742687527247 | etot = -17.7837069213818
574000  ekin = 2.25296248727395 |  erot = 2.15192604028184 | epot = -22.1539412991551 | etot = -17.7490527715993
575000  ekin = 2.39237411767891 |  erot = 2.08020391847446 | epot = -22.1262092875419 | etot = -17.6536312513885
576000  ekin = 2.39920884793466 |  erot = 2.19930885642795 | epot = -22.0840646582165 | etot = -17.4855469538539
577000  ekin = 2.32808205752383 |  erot = 1.94197958979008 | epot = -22.0344723562009 | etot = -17.764410708887
578000  ekin = 2.17468587063572 |  erot = 1.9246103716915 | epot = -21.974741428262 | etot = -17.8754451859348
579000  ekin = 2.11583896079231 |  erot = 1.92936420584513 | epot = -21.9045494517252 | etot = -17.8593462850878
580000  ekin = 1.98384148142142 |  erot = 1.90081955947736 | epot = -21.8148954466249 | etot = -17.9302344057261
581000  ekin = 1.94016412525864 |  erot = 1.93233669573735 | epot = -21.7165439683881 | etot = -17.8440431473921
582000  ekin = 1.86102518896638 |  erot = 1.7934107867181 | epot = -21.6380365856677 | etot = -17.9836006099832
583000  ekin = 1.68386990762816 |  erot = 1.83679042288086 | epot = -21.5992064668102 | etot = -18.0785461363011
584000  ekin = 1.67261412505274 |  erot = 1.65634612158733 | epot = -21.5952053447533 | etot = -18.2662450981132
585000  ekin = 1.73992925735466 |  erot = 1.83366430721896 | epot = -21.6327697441748 | etot = -18.0591761796012
586000  ekin = 1.7466125540919 |  erot = 1.71213201580467 | epot = -21.7000609183771 | etot = -18.2413163484806
587000  ekin = 1.71710189718411 |  erot = 1.97098182988275 | epot = -21.768357454318 | etot = -18.0802737272511
588000  ekin = 1.86544089524886 |  erot = 1.85386980490182 | epot = -21.842568384803 | etot = -18.1232576846523
589000  ekin = 1.85071717322235 |  erot = 1.97068115142872 | epot = -21.9095983694565 | etot = -18.0882000448054
590000  ekin = 1.83374905828512 |  erot = 1.81484654719675 | epot = -21.9582171568561 | etot = -18.3096215513742
591000  ekin = 1.81469352641546 |  erot = 1.99878899767018 | epot = -21.9200659973695 | etot = -18.1065834732838
592000  ekin = 1.71363100839119 |  erot = 2.12573581394757 | epot = -21.9592135376035 | etot = -18.1198467152647
593000  ekin = 1.72614766500652 |  erot = 2.17937588775782 | epot = -22.066408920808 | etot = -18.1608853680437
594000  ekin = 1.75427689765148 |  erot = 1.98826780368093 | epot = -22.097697548866 | etot = -18.3551528475336
595000  ekin = 1.85406358952635 |  erot = 2.20206199980441 | epot = -22.122617669042 | etot = -18.0664920797113
596000  ekin = 1.84670119316226 |  erot = 2.33908153853192 | epot = -22.155983122642 | etot = -17.9702003909479
597000  ekin = 1.81732138775553 |  erot = 2.40005576098704 | epot = -22.1594075236566 | etot = -17.9420303749141
598000  ekin = 1.86775439707713 |  erot = 2.55301581891919 | epot = -22.1595993961167 | etot = -17.7388291801204
599000  ekin = 1.91773913278386 |  erot = 2.67167362163655 | epot = -22.1710888467293 | etot = -17.5816760923089
600000  ekin = 1.98736665658457 |  erot = 2.80063355631871 | epot = -22.2102053911855 | etot = -17.4222051782822
601000  ekin = 1.90702337725137 |  erot = 2.83446711181393 | epot = -22.2420925338084 | etot = -17.5006020447431
602000  ekin = 1.94976963379135 |  erot = 2.90342633891923 | epot = -22.2734691619213 | etot = -17.4202731892107
603000  ekin = 1.96641425291137 |  erot = 2.66529933433871 | epot = -22.2825393460707 | etot = -17.6508257588206
604000  ekin = 1.91858852447186 |  erot = 2.76080776072307 | epot = -22.2678256349419 | etot = -17.5884293497469
605000  ekin = 1.97193019282266 |  erot = 2.54727948628818 | epot = -22.2112173532516 | etot = -17.6920076741407
606000  ekin = 2.03197193648811 |  erot = 2.19902614177691 | epot = -22.116454437631 | etot = -17.885456359366
607000  ekin = 2.05105280435577 |  erot = 2.16675765880345 | epot = -21.9774053858555 | etot = -17.7595949226963
608000  ekin = 2.17944443921827 |  erot = 2.13131743184003 | epot = -21.8153209903606 | etot = -17.5045591193023
609000  ekin = 2.16101479212578 |  erot = 2.06129841109606 | epot = -21.6707988831026 | etot = -17.4484856798808
610000  ekin = 2.19385705617112 |  erot = 2.02131249667451 | epot = -21.5477012163144 | etot = -17.3325316634687
611000  ekin = 2.19942394637442 |  erot = 2.20280786133642 | epot = -21.4384008683113 | etot = -17.0361690606005
612000  ekin = 2.23163662761472 |  erot = 2.17565235563951 | epot = -21.3497883530462 | etot = -16.942499369792
613000  ekin = 2.34183365034038 |  erot = 1.89422502415539 | epot = -21.3091832789111 | etot = -17.0731246044153
614000  ekin = 2.41074949980773 |  erot = 1.66581051947236 | epot = -21.3121685225924 | etot = -17.2356085033123
615000  ekin = 2.45538962657627 |  erot = 1.67175711569401 | epot = -21.3797539205107 | etot = -17.2526071782405
616000  ekin = 2.54665272757666 |  erot = 1.63332091588084 | epot = -21.4744887763243 | etot = -17.2945151328668
617000  ekin = 2.69386292022066 |  erot = 1.67560230924521 | epot = -21.588417959513 | etot = -17.2189527300471
618000  ekin = 2.87435666564135 |  erot = 1.80165459029565 | epot = -21.7048752429668 | etot = -17.0288639870299
619000  ekin = 3.06032720665911 |  erot = 1.65093186491292 | epot = -21.8125402008949 | etot = -17.1012811293228
620000  ekin = 3.05516944552979 |  erot = 1.78567665314242 | epot = -21.9362157730259 | etot = -17.0953696743537
621000  ekin = 3.19482877288267 |  erot = 1.85444292415912 | epot = -22.0590109842187 | etot = -17.0097392871769
622000  ekin = 3.19833270893114 |  erot = 1.64252462622231 | epot = -22.1304552689747 | etot = -17.2895979338213
623000  ekin = 3.29734758995184 |  erot = 1.69707189360923 | epot = -22.1701112545656 | etot = -17.1756917710046
624000  ekin = 3.37713404636403 |  erot = 1.61937249977477 | epot = -22.1901329861865 | etot = -17.1936264400477
625000  ekin = 3.38380934462709 |  erot = 1.549172062804 | epot = -22.1890416607103 | etot = -17.2560602532792
626000  ekin = 3.32638739446791 |  erot = 1.56722148293845 | epot = -22.1785220524129 | etot = -17.2849131750065
627000  ekin = 3.31569249720213 |  erot = 1.71066467192283 | epot = -22.1423640777851 | etot = -17.1160069086602
628000  ekin = 3.16697776454369 |  erot = 1.85806977204786 | epot = -22.011252047656 | etot = -16.9862045110645
629000  ekin = 2.99094278818936 |  erot = 1.8634654411134 | epot = -21.934673140983 | etot = -17.0802649116802
630000  ekin = 2.90556071918741 |  erot = 2.0693130310465 | epot = -21.9350908515797 | etot = -16.9602171013458
631000  ekin = 2.7996958294494 |  erot = 2.05621242567347 | epot = -21.8486045729716 | etot = -16.9926963178487
632000  ekin = 2.67147709831681 |  erot = 2.03262561421969 | epot = -21.7549691244759 | etot = -17.0508664119394
633000  ekin = 2.65536759972765 |  erot = 2.03400136625159 | epot = -21.679933200058 | etot = -16.9905642340788
634000  ekin = 2.60619207671916 |  erot = 2.13546718822646 | epot = -21.6154557479587 | etot = -16.873796483013
635000  ekin = 2.50701558019073 |  erot = 1.74758901075266 | epot = -21.5543249117143 | etot = -17.2997203207709
636000  ekin = 2.39745600323015 |  erot = 1.85247540266627 | epot = -21.5255594300375 | etot = -17.275628024141
637000  ekin = 2.41790008828863 |  erot = 1.89421557823657 | epot = -21.5250233017188 | etot = -17.2129076351937
638000  ekin = 2.47578971863411 |  erot = 2.36571418053383 | epot = -21.5337545659548 | etot = -16.6922506667869
639000  ekin = 2.35660046082987 |  erot = 2.51353605837974 | epot = -21.54109724209 | etot = -16.6709607228804
640000  ekin = 2.45486082803945 |  erot = 2.67800600845136 | epot = -21.55281452089 | etot = -16.4199476843992
641000  ekin = 2.56928913237036 |  erot = 2.42818013926169 | epot = -21.5744429168227 | etot = -16.5769736451907
642000  ekin = 2.56519022418644 |  erot = 2.50858602525862 | epot = -21.5829619563604 | etot = -16.5091857069153
643000  ekin = 2.61438251477743 |  erot = 2.14546404075503 | epot = -21.6040625493726 | etot = -16.8442159938401
644000  ekin = 2.62186764966541 |  erot = 2.14191076230808 | epot = -21.6253516870781 | etot = -16.8615732751046
645000  ekin = 2.73445879103559 |  erot = 2.35765807621328 | epot = -21.6468161631213 | etot = -16.5546992958725
646000  ekin = 2.74844139127298 |  erot = 2.17611353686154 | epot = -21.6394622686015 | etot = -16.714907340467
647000  ekin = 2.81459539064476 |  erot = 2.08632073152515 | epot = -21.6308966078173 | etot = -16.7299804856474
648000  ekin = 2.8570092687102 |  erot = 1.92946433308234 | epot = -21.6388376034712 | etot = -16.8523640016787
649000  ekin = 2.83442652810374 |  erot = 1.81043301746399 | epot = -21.6816093302461 | etot = -17.0367497846784
650000  ekin = 2.82385635198152 |  erot = 1.98060013201552 | epot = -21.7368430060007 | etot = -16.9323865220037
651000  ekin = 2.9288560289155 |  erot = 2.12442721936488 | epot = -21.817286677495 | etot = -16.7640034292146
652000  ekin = 2.93013307398376 |  erot = 2.27578127027579 | epot = -21.8890408405104 | etot = -16.6831264962509
653000  ekin = 3.0473689812555 |  erot = 2.16776847613752 | epot = -21.9486345968612 | etot = -16.7334971394682
654000  ekin = 2.95795730372489 |  erot = 2.21678381714661 | epot = -22.0001869032544 | etot = -16.8254457823829
655000  ekin = 3.02540562074013 |  erot = 2.13692279145244 | epot = -22.0213788097185 | etot = -16.8590503975259
656000  ekin = 2.93581362686791 |  erot = 2.18988187130923 | epot = -22.010975719743 | etot = -16.8852802215659
657000  ekin = 2.76805340651513 |  erot = 2.32463835532636 | epot = -21.9890816986891 | etot = -16.8963899368476
[...]
837000  ekin = 1.55393537342694 |  erot = 2.19682771054845 | epot = -22.7054421830654 | etot = -18.95467909909
838000  ekin = 1.55395449542858 |  erot = 1.97831033841727 | epot = -22.6952408411607 | etot = -19.1629760073149
839000  ekin = 1.56966734032696 |  erot = 1.54356794703242 | epot = -22.6819663107371 | etot = -19.5687310233777
840000  ekin = 1.67828545417323 |  erot = 1.72274710399372 | epot = -22.6537987135736 | etot = -19.2527661554066
841000  ekin = 1.70756024783427 |  erot = 1.86878110711764 | epot = -22.6201854793162 | etot = -19.0438441243643
842000  ekin = 1.65445531752109 |  erot = 1.98969497305258 | epot = -22.583445805341 | etot = -18.9392955147673
843000  ekin = 1.61813041031379 |  erot = 1.94297358984934 | epot = -22.5343209800153 | etot = -18.9732169798522
844000  ekin = 1.66559589059779 |  erot = 2.07459583566505 | epot = -22.4909419629538 | etot = -18.7507502366909
845000  ekin = 1.67372319184744 |  erot = 2.01531047458982 | epot = -22.4486472588292 | etot = -18.759613592392
846000  ekin = 1.76456308419019 |  erot = 2.04286196110417 | epot = -22.3907655586718 | etot = -18.5833405133775
847000  ekin = 1.68474528716594 |  erot = 1.9506218354464 | epot = -22.3219698462716 | etot = -18.6866027236593
848000  ekin = 1.7769208083991 |  erot = 1.9490334388676 | epot = -22.2732219412012 | etot = -18.5472676939345
849000  ekin = 1.80865478838392 |  erot = 1.92750105953155 | epot = -22.254397724897 | etot = -18.5182418769815
850000  ekin = 1.81902433575234 |  erot = 1.83695743097834 | epot = -22.2895798743212 | etot = -18.6335981075905
851000  ekin = 1.89190920982903 |  erot = 1.99438142785482 | epot = -22.3706877386968 | etot = -18.484397101013
852000  ekin = 1.85572644981354 |  erot = 2.08333690914979 | epot = -22.4954803882742 | etot = -18.5564170293108
853000  ekin = 1.96819950961999 |  erot = 2.4652206393425 | epot = -22.6461768022226 | etot = -18.2127566532601
854000  ekin = 1.99027367747301 |  erot = 2.82405245762167 | epot = -22.8233134890242 | etot = -18.0089873539295
855000  ekin = 2.02041206494319 |  erot = 2.76127853932356 | epot = -22.971921387783 | etot = -18.1902307835163
856000  ekin = 1.98428835568691 |  erot = 2.89398807390395 | epot = -23.0688189336956 | etot = -18.1905425041048
857000  ekin = 1.94437625728123 |  erot = 2.75841683957984 | epot = -23.1174862513581 | etot = -18.4146931544971
858000  ekin = 1.77145748342589 |  erot = 2.97613159793736 | epot = -23.092564103994 | etot = -18.3449750226308
859000  ekin = 1.75449757825296 |  erot = 2.94820975918207 | epot = -23.0174946494386 | etot = -18.3147873120036
860000  ekin = 1.69824130829505 |  erot = 2.56619342881162 | epot = -22.913827752011 | etot = -18.6493930149043
861000  ekin = 1.61723118354539 |  erot = 2.60723394433469 | epot = -22.7817384645188 | etot = -18.5572733366387
862000  ekin = 1.65016805240501 |  erot = 2.58826826537521 | epot = -22.6306365080481 | etot = -18.3922001902679
863000  ekin = 1.62167782718969 |  erot = 2.32265511280165 | epot = -22.4833247924562 | etot = -18.5389918524648
864000  ekin = 1.64443917201354 |  erot = 2.41694169973122 | epot = -22.3437317075484 | etot = -18.2823508358037
865000  ekin = 1.62323607055498 |  erot = 2.42797649715591 | epot = -22.2339680949553 | etot = -18.1827555272444
866000  ekin = 1.52330589260455 |  erot = 2.43806006674714 | epot = -22.1297693883002 | etot = -18.1684034289485
867000  ekin = 1.53921563765445 |  erot = 2.563486299306 | epot = -22.0395837686773 | etot = -17.9368818317168
868000  ekin = 1.51596999193292 |  erot = 2.55716270739037 | epot = -21.9937420973996 | etot = -17.9206093980763
869000  ekin = 1.59814692070021 |  erot = 2.15771580624648 | epot = -21.9767818689251 | etot = -18.2209191419784
870000  ekin = 1.62438751257453 |  erot = 2.30366665730433 | epot = -22.0119463158297 | etot = -18.0838921459509
871000  ekin = 1.64699232624016 |  erot = 2.29504943911151 | epot = -22.0696451748842 | etot = -18.1276034095325
872000  ekin = 1.74936107688413 |  erot = 1.9965562018104 | epot = -22.1253859835196 | etot = -18.3794687048251
873000  ekin = 1.81958663572737 |  erot = 2.15311518593397 | epot = -22.1932828259374 | etot = -18.2205810042761
874000  ekin = 1.81429910947078 |  erot = 2.15191422066098 | epot = -22.2521915372879 | etot = -18.2859782071562
875000  ekin = 1.92774125135583 |  erot = 2.09841769816796 | epot = -22.2950199590261 | etot = -18.2688610095023
876000  ekin = 2.05205383202971 |  erot = 1.71112886964838 | epot = -22.3353847724815 | etot = -18.5722020708034
877000  ekin = 2.00183605232511 |  erot = 1.88466440539805 | epot = -22.3587375372386 | etot = -18.4722370795154
878000  ekin = 1.96978247022157 |  erot = 1.9449250442233 | epot = -22.3467650368076 | etot = -18.4320575223628
879000  ekin = 1.89978467382709 |  erot = 2.08488575038812 | epot = -22.3245187946411 | etot = -18.3398483704259
880000  ekin = 1.79316389452797 |  erot = 2.04472659118319 | epot = -22.302273163246 | etot = -18.4643826775348
881000  ekin = 1.84166442688194 |  erot = 1.91254711303943 | epot = -22.2610385402073 | etot = -18.5068270002859
882000  ekin = 1.8408423266687 |  erot = 1.89291352333735 | epot = -22.2058993058574 | etot = -18.4721434558513
883000  ekin = 1.85228381568774 |  erot = 2.04568547305987 | epot = -22.1462287912866 | etot = -18.248259502539
884000  ekin = 1.74299718480553 |  erot = 2.41541515351066 | epot = -22.0952302162198 | etot = -17.9368178779037
885000  ekin = 1.70113701127997 |  erot = 2.12494075622537 | epot = -22.062426804351 | etot = -18.2363490368456
886000  ekin = 1.65197597470454 |  erot = 2.40636683283032 | epot = -22.0395749533763 | etot = -17.9812321458414
887000  ekin = 1.60780982778138 |  erot = 2.52410870186223 | epot = -22.0426576240104 | etot = -17.9107390943668
888000  ekin = 1.62736239761613 |  erot = 2.54417200799014 | epot = -22.0837991546735 | etot = -17.9122647490673
889000  ekin = 1.56260633740652 |  erot = 2.93015784124605 | epot = -22.1644353768148 | etot = -17.6716711981622
890000  ekin = 1.59045576749902 |  erot = 2.98817840520079 | epot = -22.2639211219211 | etot = -17.6852869492213
891000  ekin = 1.56285966088235 |  erot = 3.45684679212867 | epot = -22.3811052217737 | etot = -17.3613987687627
892000  ekin = 1.54330427837286 |  erot = 3.72585516837654 | epot = -22.4833521640577 | etot = -17.2141927173083
893000  ekin = 1.59146757295502 |  erot = 3.57834579864882 | epot = -22.5732593414834 | etot = -17.4034459698796
894000  ekin = 1.62137337506942 |  erot = 3.47314499517383 | epot = -22.6375279090018 | etot = -17.5430095387586
895000  ekin = 1.66705900653875 |  erot = 3.49716948137661 | epot = -22.662497563479 | etot = -17.4982690755636
896000  ekin = 1.55030206729663 |  erot = 3.09080759429039 | epot = -22.6660259737766 | etot = -18.0249163121896
897000  ekin = 1.59716300254363 |  erot = 3.18847114591564 | epot = -22.6447094591962 | etot = -17.8590753107369
898000  ekin = 1.63846223090733 |  erot = 3.52423413884989 | epot = -22.574807009085 | etot = -17.4121106393278
899000  ekin = 1.76043242630049 |  erot = 3.57817463535837 | epot = -22.5017519688559 | etot = -17.163144907197
900000  ekin = 1.79654660125389 |  erot = 3.47500564830083 | epot = -22.4355321588433 | etot = -17.1639799092886
901000  ekin = 1.90036826124628 |  erot = 3.08289582473982 | epot = -22.3778122198785 | etot = -17.3945481338924
902000  ekin = 1.86184581507154 |  erot = 3.53323519892372 | epot = -22.3343178452086 | etot = -16.9392368312133
903000  ekin = 1.82612532908577 |  erot = 2.94106563490189 | epot = -22.2753946825534 | etot = -17.5082037185658
904000  ekin = 1.83566294124649 |  erot = 2.77276060856724 | epot = -22.2178118874787 | etot = -17.609388337665
905000  ekin = 1.98760022520663 |  erot = 2.39033190744944 | epot = -22.1879073477142 | etot = -17.8099752150581
906000  ekin = 2.03479331668647 |  erot = 2.3344228531767 | epot = -22.1683021524764 | etot = -17.7990859826132
907000  ekin = 2.13854534244443 |  erot = 2.49897360264341 | epot = -22.1329919803681 | etot = -17.4954730352803
908000  ekin = 2.29292980719163 |  erot = 2.19971547335618 | epot = -22.0946544988967 | etot = -17.6020092183489
909000  ekin = 2.26088767533455 |  erot = 2.08032511956132 | epot = -22.0656471637075 | etot = -17.7244343688116
910000  ekin = 2.24374768454178 |  erot = 2.05633395261294 | epot = -22.0263801495314 | etot = -17.7262985123767
911000  ekin = 2.21169387792337 |  erot = 2.07671300621837 | epot = -21.9687563877776 | etot = -17.6803495036359
912000  ekin = 2.26342827869161 |  erot = 2.19424965405253 | epot = -21.8985767358688 | etot = -17.4408988031247
913000  ekin = 2.25810530261834 |  erot = 2.15174616543858 | epot = -21.8202885496123 | etot = -17.4104370815554
914000  ekin = 2.22041757979622 |  erot = 2.11296431351484 | epot = -21.7659012518376 | etot = -17.4325193585265
915000  ekin = 2.305853852629 |  erot = 2.01195201885935 | epot = -21.7105872613034 | etot = -17.392781389815
916000  ekin = 2.31746417556327 |  erot = 2.26468835944155 | epot = -21.6446439232134 | etot = -17.0624913882086
917000  ekin = 2.29083855376978 |  erot = 2.35266040877599 | epot = -21.5981818982044 | etot = -16.9546829356586
918000  ekin = 2.21948812241411 |  erot = 2.67757709393344 | epot = -21.5768387043403 | etot = -16.6797734879928
919000  ekin = 2.17502484144239 |  erot = 2.50505023715529 | epot = -21.5962136981092 | etot = -16.9161386195115
920000  ekin = 2.05225364762306 |  erot = 2.28466235959607 | epot = -21.6248903594501 | etot = -17.287974352231
921000  ekin = 1.95826631852647 |  erot = 2.44785811644796 | epot = -21.6449866661346 | etot = -17.2388622311601
922000  ekin = 1.8871341631229 |  erot = 2.20407498665728 | epot = -21.6433309330804 | etot = -17.5521217833002
923000  ekin = 1.85499144920616 |  erot = 2.47959433101658 | epot = -21.6219980061721 | etot = -17.2874122259493
924000  ekin = 1.82449923254666 |  erot = 2.43607326145231 | epot = -21.5811225363952 | etot = -17.3205500423962
925000  ekin = 1.75365416618008 |  erot = 2.67043382132047 | epot = -21.5654424680592 | etot = -17.1413544805586
926000  ekin = 1.82728938436798 |  erot = 2.42568919453246 | epot = -21.5649010983419 | etot = -17.3119225194415
927000  ekin = 1.71111907930132 |  erot = 2.49634793928696 | epot = -21.5869585210727 | etot = -17.3794915024844
928000  ekin = 1.64740049787453 |  erot = 2.53788896245496 | epot = -21.6442370240126 | etot = -17.4589475636831
929000  ekin = 1.68616483039842 |  erot = 2.26272805894195 | epot = -21.7404415309293 | etot = -17.7915486415889
930000  ekin = 1.8057977284304 |  erot = 2.41185782525222 | epot = -21.8766034841673 | etot = -17.6589479304847
931000  ekin = 1.84540351564131 |  erot = 2.51429545093936 | epot = -22.0343594511133 | etot = -17.6746604845327
932000  ekin = 1.91948716688521 |  erot = 2.50789246144377 | epot = -22.2107200997812 | etot = -17.7833404714522
933000  ekin = 2.08806765098505 |  erot = 2.54053118824105 | epot = -22.3857648909732 | etot = -17.7571660517471
934000  ekin = 2.15790983141932 |  erot = 2.35997810661384 | epot = -22.5303312795937 | etot = -18.0124433415605
935000  ekin = 2.25791486609556 |  erot = 2.61090003818589 | epot = -22.6566492075146 | etot = -17.7878343032331
936000  ekin = 2.2869444991169 |  erot = 2.88785018878652 | epot = -22.7387712915836 | etot = -17.5639766036801
937000  ekin = 2.2598536597864 |  erot = 2.68904834283381 | epot = -22.7546509524987 | etot = -17.8057489498784
938000  ekin = 2.28814448881807 |  erot = 2.54450017128294 | epot = -22.6975117726393 | etot = -17.8648671125383
939000  ekin = 2.22181328679759 |  erot = 2.40773891474627 | epot = -22.5724060300531 | etot = -17.9428538285092
940000  ekin = 2.19047318059934 |  erot = 2.24413418480581 | epot = -22.3825999688773 | etot = -17.9479926034721
941000  ekin = 1.97789684715541 |  erot = 2.11351242298739 | epot = -22.1581596355232 | etot = -18.0667503653804
942000  ekin = 1.82283426551466 |  erot = 2.02814504753835 | epot = -21.924507961928 | etot = -18.073528648875
943000  ekin = 1.77337816859221 |  erot = 1.98390662003463 | epot = -21.7436762740981 | etot = -17.9863914854713
944000  ekin = 1.74129354400305 |  erot = 2.0257017281874 | epot = -21.6008012672991 | etot = -17.8338059951087
945000  ekin = 1.72896560635761 |  erot = 2.20997508037831 | epot = -21.5146553493683 | etot = -17.5757146626324
946000  ekin = 1.90743436358219 |  erot = 2.1370577421747 | epot = -21.4832307541302 | etot = -17.4387386483733
947000  ekin = 2.02837986664296 |  erot = 2.29971426385137 | epot = -21.4794165970972 | etot = -17.1513224666028
948000  ekin = 2.03783072880889 |  erot = 2.11465543087132 | epot = -21.4989322229724 | etot = -17.3464460632922
949000  ekin = 2.16990164235423 |  erot = 1.99168801462282 | epot = -21.5364977264078 | etot = -17.3749080694307
950000  ekin = 2.24527818420086 |  erot = 2.12106218398242 | epot = -21.6200851503178 | etot = -17.2537447821345
951000  ekin = 2.3597779491216 |  erot = 2.09437757436112 | epot = -21.7182967003277 | etot = -17.264141176845
952000  ekin = 2.43036880894168 |  erot = 2.60988991207291 | epot = -21.809899640086 | etot = -16.7696409190714
953000  ekin = 2.58164820046362 |  erot = 2.62403788420646 | epot = -21.9145443047519 | etot = -16.7088582200818
954000  ekin = 2.67569984169079 |  erot = 2.49812470218404 | epot = -21.9760951843484 | etot = -16.8022706404736
955000  ekin = 2.87107117646036 |  erot = 2.70877614839088 | epot = -22.0056490566724 | etot = -16.4258017318211
956000  ekin = 3.09772559509693 |  erot = 2.62503444551598 | epot = -21.9996173766588 | etot = -16.2768573360459
957000  ekin = 3.06387016722013 |  erot = 2.8302356311836 | epot = -21.9356950338747 | etot = -16.0415892354709
958000  ekin = 3.15191228693313 |  erot = 2.56018473190256 | epot = -21.7995256048421 | etot = -16.0874285860064
959000  ekin = 3.17671440940348 |  erot = 2.48421513931016 | epot = -21.6207768556515 | etot = -15.9598473069379
960000  ekin = 3.01275155897339 |  erot = 2.43167379369326 | epot = -21.4002125286164 | etot = -15.9557871759497
961000  ekin = 2.94603084982365 |  erot = 2.28503967366068 | epot = -21.1407696110672 | etot = -15.9096990875828
962000  ekin = 2.87549986152936 |  erot = 2.267647953911 | epot = -20.8628900961518 | etot = -15.7197422807115
963000  ekin = 2.72736350188626 |  erot = 2.02845193195215 | epot = -20.6025221949833 | etot = -15.8467067611448
964000  ekin = 2.55766914748418 |  erot = 1.90275324626823 | epot = -20.3671083670073 | etot = -15.9066859732549
965000  ekin = 2.42945571607617 |  erot = 1.87896821137786 | epot = -20.1665878867718 | etot = -15.8581639593178
966000  ekin = 2.30432659917244 |  erot = 2.05976948112514 | epot = -20.0345331150776 | etot = -15.67043703478
967000  ekin = 2.19239153699628 |  erot = 2.23712663138571 | epot = -19.9304749138275 | etot = -15.5009567454455
968000  ekin = 2.12056467996883 |  erot = 2.29258395929203 | epot = -19.8478936102002 | etot = -15.4347449709393
969000  ekin = 2.03082359465494 |  erot = 2.12561043987624 | epot = -19.8204193361233 | etot = -15.6639853015921
970000  ekin = 2.06263818101753 |  erot = 2.20772735706048 | epot = -19.8171007442084 | etot = -15.5467352061304
971000  ekin = 2.07242738755742 |  erot = 2.39359294752823 | epot = -19.8426078132443 | etot = -15.3765874781586
972000  ekin = 2.13593664400378 |  erot = 2.51621155234874 | epot = -19.8711039585162 | etot = -15.2189557621637
973000  ekin = 2.19239588059205 |  erot = 2.7181784623389 | epot = -19.8806125652289 | etot = -14.9700382222979
974000  ekin = 2.08126353721197 |  erot = 2.92742241693149 | epot = -19.8623774194061 | etot = -14.8536914652627
975000  ekin = 2.01107833245546 |  erot = 2.57768138393004 | epot = -19.8162471815015 | etot = -15.227487465116
976000  ekin = 1.90089112618327 |  erot = 2.56071712862275 | epot = -19.7674234084296 | etot = -15.3058151536236
977000  ekin = 1.82747564686913 |  erot = 2.56117528028768 | epot = -19.6916974382103 | etot = -15.3030465110535
978000  ekin = 1.81823178972961 |  erot = 2.21507357950853 | epot = -19.6525909549582 | etot = -15.61928558572
979000  ekin = 1.86020910008096 |  erot = 2.09761460513785 | epot = -19.6622349612071 | etot = -15.7044112559883
980000  ekin = 1.89813063132926 |  erot = 1.86971657434364 | epot = -19.6793196081291 | etot = -15.9114724024562
981000  ekin = 1.96055767456426 |  erot = 1.80588067180873 | epot = -19.7616283768556 | etot = -15.9951900304826
982000  ekin = 2.04211859099614 |  erot = 2.00657086473459 | epot = -19.8926418366081 | etot = -15.8439523808774
983000  ekin = 2.08434248544596 |  erot = 2.13281702823352 | epot = -20.0190963786513 | etot = -15.8019368649718
984000  ekin = 2.28263945352173 |  erot = 2.30206381624253 | epot = -20.1817376775087 | etot = -15.5970344077445
985000  ekin = 2.33165973691136 |  erot = 2.36792674462211 | epot = -20.3496337869149 | etot = -15.6500473053814
986000  ekin = 2.3684529633035 |  erot = 2.40477790490969 | epot = -20.5172631957864 | etot = -15.7440323275732
987000  ekin = 2.44660573334744 |  erot = 2.6065659753273 | epot = -20.6827873919967 | etot = -15.6296156833219
988000  ekin = 2.48779340096933 |  erot = 2.57507657272567 | epot = -20.8472563124355 | etot = -15.7843863387405
989000  ekin = 2.62562775055464 |  erot = 2.78753506888642 | epot = -20.9917314563947 | etot = -15.5785686369537
990000  ekin = 2.71356724749209 |  erot = 3.06120975805148 | epot = -21.1004443459753 | etot = -15.3256673404317
991000  ekin = 2.84485263345538 |  erot = 3.42057995732924 | epot = -21.1508216928481 | etot = -14.8853891020635
992000  ekin = 2.88616886571365 |  erot = 3.47043505670966 | epot = -21.1491979980383 | etot = -14.792594075615
993000  ekin = 2.86101706988292 |  erot = 3.4017274067487 | epot = -21.1075232078294 | etot = -14.8447787311978
994000  ekin = 2.90016396739777 |  erot = 3.68400469179703 | epot = -21.0544509503875 | etot = -14.4702822911927
995000  ekin = 2.84836922583208 |  erot = 3.86724891436252 | epot = -20.9907241498287 | etot = -14.2751060096341
996000  ekin = 2.87268648345994 |  erot = 3.37952872488952 | epot = -20.9186469223171 | etot = -14.6664317139676
997000  ekin = 2.84260788755105 |  erot = 3.24170863045241 | epot = -20.8185896660925 | etot = -14.734273148089
998000  ekin = 2.86644419268861 |  erot = 3.30788437737345 | epot = -20.6892589093676 | etot = -14.5149303393055
999000  ekin = 2.91762607565484 |  erot = 3.19659159186089 | epot = -20.5404731144169 | etot = -14.4262554469012
1000000  ekin = 2.92466509157894 |  erot = 2.67428308534003 | epot = -20.3978646538617 | etot = -14.7989164769428
 1000000   0.12998512   -1.3075422  0.032675661    -1.092075 0.0002012331        64000 
Loop time of 34.8089 on 1 procs for 1000000 steps with 16 atoms

Performance: 24821.244 tau/day, 28728.292 timesteps/s
99.8% CPU use with 1 MPI tasks x no OpenMP threads

MPI task timing breakdown:
Section |  min time  |  avg time  |  max time  |%varavg| %total
---------------------------------------------------------------
Pair    | 29.15      | 29.15      | 29.15      |   0.0 | 83.74
Bond    | 0.89192    | 0.89192    | 0.89192    |   0.0 |  2.56
Neigh   | 0.009135   | 0.009135   | 0.009135   |   0.0 |  0.03
Comm    | 0.3491     | 0.3491     | 0.3491     |   0.0 |  1.00
Output  | 0.15275    | 0.15275    | 0.15275    |   0.0 |  0.44
Modify  | 3.9719     | 3.9719     | 3.9719     |   0.0 | 11.41
Other   |            | 0.2836     |            |       |  0.81

Nlocal:        16.0000 ave          16 max          16 min
Histogram: 1 0 0 0 0 0 0 0 0 0
Nghost:         0.00000 ave           0 max           0 min
Histogram: 1 0 0 0 0 0 0 0 0 0
Neighs:        107.000 ave         107 max         107 min
Histogram: 1 0 0 0 0 0 0 0 0 0

Total # of neighbors = 107
Ave neighs/atom = 6.6875000
Ave special neighs/atom = 3.7500000
Neighbor list builds = 1000
Dangerous builds = 0

write_data last_config.${number}.* nocoeff
write_data last_config.2.* nocoeff
System init for write_data ...
#write_restart last_config.${number}.*
Total wall time: 0:00:34
