LAMMPS data file

1728 atoms

2 atom types

0.0   24.71947842 xlo xhi
0.0   24.71947842 ylo yhi
0.0   24.71947842 zlo zhi

Masses

1   58.69340000
2   15.99940000

Atoms # charge

1 1    1.04034270    0.00000000    0.00000000    0.00000000
2 1    1.04034270    2.05995654    2.05995654    0.00000000
3 1    1.04034270    2.05995654    0.00000000    2.05995654
4 1    1.04034270    0.00000000    2.05995654    2.05995654
5 1    1.04034270    0.00000000    0.00000000    4.11991307
6 1    1.04034270    2.05995654    2.05995654    4.11991307
7 1    1.04034270    2.05995654    0.00000000    6.17986961
8 1    1.04034270    0.00000000    2.05995654    6.17986961
9 1    1.04034270    0.00000000    0.00000000    8.23982614
10 1    1.04034270    2.05995654    2.05995654    8.23982614
11 1    1.04034270    2.05995654    0.00000000   10.29978268
12 1    1.04034270    0.00000000    2.05995654   10.29978268
13 1    1.04034270    0.00000000    0.00000000   12.35973921
14 1    1.04034270    2.05995654    2.05995654   12.35973921
15 1    1.04034270    2.05995654    0.00000000   14.41969575
16 1    1.04034270    0.00000000    2.05995654   14.41969575
17 1    1.04034270    0.00000000    0.00000000   16.47965228
18 1    1.04034270    2.05995654    2.05995654   16.47965228
19 1    1.04034270    2.05995654    0.00000000   18.53960882
20 1    1.04034270    0.00000000    2.05995654   18.53960882
21 1    1.04034270    0.00000000    0.00000000   20.59956535
22 1    1.04034270    2.05995654    2.05995654   20.59956535
23 1    1.04034270    2.05995654    0.00000000   22.65952189
24 1    1.04034270    0.00000000    2.05995654   22.65952189
25 1    1.04034270    0.00000000    4.11991307    0.00000000
26 1    1.04034270    2.05995654    6.17986961    0.00000000
27 1    1.04034270    2.05995654    4.11991307    2.05995654
28 1    1.04034270    0.00000000    6.17986961    2.05995654
29 1    1.04034270    0.00000000    4.11991307    4.11991307
30 1    1.04034270    2.05995654    6.17986961    4.11991307
31 1    1.04034270    2.05995654    4.11991307    6.17986961
32 1    1.04034270    0.00000000    6.17986961    6.17986961
33 1    1.04034270    0.00000000    4.11991307    8.23982614
34 1    1.04034270    2.05995654    6.17986961    8.23982614
35 1    1.04034270    2.05995654    4.11991307   10.29978268
36 1    1.04034270    0.00000000    6.17986961   10.29978268
37 1    1.04034270    0.00000000    4.11991307   12.35973921
38 1    1.04034270    2.05995654    6.17986961   12.35973921
39 1    1.04034270    2.05995654    4.11991307   14.41969575
40 1    1.04034270    0.00000000    6.17986961   14.41969575
41 1    1.04034270    0.00000000    4.11991307   16.47965228
42 1    1.04034270    2.05995654    6.17986961   16.47965228
43 1    1.04034270    2.05995654    4.11991307   18.53960882
44 1    1.04034270    0.00000000    6.17986961   18.53960882
45 1    1.04034270    0.00000000    4.11991307   20.59956535
46 1    1.04034270    2.05995654    6.17986961   20.59956535
47 1    1.04034270    2.05995654    4.11991307   22.65952189
48 1    1.04034270    0.00000000    6.17986961   22.65952189
49 1    1.04034270    0.00000000    8.23982614    0.00000000
50 1    1.04034270    2.05995654   10.29978268    0.00000000
51 1    1.04034270    2.05995654    8.23982614    2.05995654
52 1    1.04034270    0.00000000   10.29978268    2.05995654
53 1    1.04034270    0.00000000    8.23982614    4.11991307
54 1    1.04034270    2.05995654   10.29978268    4.11991307
55 1    1.04034270    2.05995654    8.23982614    6.17986961
56 1    1.04034270    0.00000000   10.29978268    6.17986961
57 1    1.04034270    0.00000000    8.23982614    8.23982614
58 1    1.04034270    2.05995654   10.29978268    8.23982614
59 1    1.04034270    2.05995654    8.23982614   10.29978268
60 1    1.04034270    0.00000000   10.29978268   10.29978268
61 1    1.04034270    0.00000000    8.23982614   12.35973921
62 1    1.04034270    2.05995654   10.29978268   12.35973921
63 1    1.04034270    2.05995654    8.23982614   14.41969575
64 1    1.04034270    0.00000000   10.29978268   14.41969575
65 1    1.04034270    0.00000000    8.23982614   16.47965228
66 1    1.04034270    2.05995654   10.29978268   16.47965228
67 1    1.04034270    2.05995654    8.23982614   18.53960882
68 1    1.04034270    0.00000000   10.29978268   18.53960882
69 1    1.04034270    0.00000000    8.23982614   20.59956535
70 1    1.04034270    2.05995654   10.29978268   20.59956535
71 1    1.04034270    2.05995654    8.23982614   22.65952189
72 1    1.04034270    0.00000000   10.29978268   22.65952189
73 1    1.04034270    0.00000000   12.35973921    0.00000000
74 1    1.04034270    2.05995654   14.41969575    0.00000000
75 1    1.04034270    2.05995654   12.35973921    2.05995654
76 1    1.04034270    0.00000000   14.41969575    2.05995654
77 1    1.04034270    0.00000000   12.35973921    4.11991307
78 1    1.04034270    2.05995654   14.41969575    4.11991307
79 1    1.04034270    2.05995654   12.35973921    6.17986961
80 1    1.04034270    0.00000000   14.41969575    6.17986961
81 1    1.04034270    0.00000000   12.35973921    8.23982614
82 1    1.04034270    2.05995654   14.41969575    8.23982614
83 1    1.04034270    2.05995654   12.35973921   10.29978268
84 1    1.04034270    0.00000000   14.41969575   10.29978268
85 1    1.04034270    0.00000000   12.35973921   12.35973921
86 1    1.04034270    2.05995654   14.41969575   12.35973921
87 1    1.04034270    2.05995654   12.35973921   14.41969575
88 1    1.04034270    0.00000000   14.41969575   14.41969575
89 1    1.04034270    0.00000000   12.35973921   16.47965228
90 1    1.04034270    2.05995654   14.41969575   16.47965228
91 1    1.04034270    2.05995654   12.35973921   18.53960882
92 1    1.04034270    0.00000000   14.41969575   18.53960882
93 1    1.04034270    0.00000000   12.35973921   20.59956535
94 1    1.04034270    2.05995654   14.41969575   20.59956535
95 1    1.04034270    2.05995654   12.35973921   22.65952189
96 1    1.04034270    0.00000000   14.41969575   22.65952189
97 1    1.04034270    0.00000000   16.47965228    0.00000000
98 1    1.04034270    2.05995654   18.53960882    0.00000000
99 1    1.04034270    2.05995654   16.47965228    2.05995654
100 1    1.04034270    0.00000000   18.53960882    2.05995654
101 1    1.04034270    0.00000000   16.47965228    4.11991307
102 1    1.04034270    2.05995654   18.53960882    4.11991307
103 1    1.04034270    2.05995654   16.47965228    6.17986961
104 1    1.04034270    0.00000000   18.53960882    6.17986961
105 1    1.04034270    0.00000000   16.47965228    8.23982614
106 1    1.04034270    2.05995654   18.53960882    8.23982614
107 1    1.04034270    2.05995654   16.47965228   10.29978268
108 1    1.04034270    0.00000000   18.53960882   10.29978268
109 1    1.04034270    0.00000000   16.47965228   12.35973921
110 1    1.04034270    2.05995654   18.53960882   12.35973921
111 1    1.04034270    2.05995654   16.47965228   14.41969575
112 1    1.04034270    0.00000000   18.53960882   14.41969575
113 1    1.04034270    0.00000000   16.47965228   16.47965228
114 1    1.04034270    2.05995654   18.53960882   16.47965228
115 1    1.04034270    2.05995654   16.47965228   18.53960882
116 1    1.04034270    0.00000000   18.53960882   18.53960882
117 1    1.04034270    0.00000000   16.47965228   20.59956535
118 1    1.04034270    2.05995654   18.53960882   20.59956535
119 1    1.04034270    2.05995654   16.47965228   22.65952189
120 1    1.04034270    0.00000000   18.53960882   22.65952189
121 1    1.04034270    0.00000000   20.59956535    0.00000000
122 1    1.04034270    2.05995654   22.65952189    0.00000000
123 1    1.04034270    2.05995654   20.59956535    2.05995654
124 1    1.04034270    0.00000000   22.65952189    2.05995654
125 1    1.04034270    0.00000000   20.59956535    4.11991307
126 1    1.04034270    2.05995654   22.65952189    4.11991307
127 1    1.04034270    2.05995654   20.59956535    6.17986961
128 1    1.04034270    0.00000000   22.65952189    6.17986961
129 1    1.04034270    0.00000000   20.59956535    8.23982614
130 1    1.04034270    2.05995654   22.65952189    8.23982614
131 1    1.04034270    2.05995654   20.59956535   10.29978268
132 1    1.04034270    0.00000000   22.65952189   10.29978268
133 1    1.04034270    0.00000000   20.59956535   12.35973921
134 1    1.04034270    2.05995654   22.65952189   12.35973921
135 1    1.04034270    2.05995654   20.59956535   14.41969575
136 1    1.04034270    0.00000000   22.65952189   14.41969575
137 1    1.04034270    0.00000000   20.59956535   16.47965228
138 1    1.04034270    2.05995654   22.65952189   16.47965228
139 1    1.04034270    2.05995654   20.59956535   18.53960882
140 1    1.04034270    0.00000000   22.65952189   18.53960882
141 1    1.04034270    0.00000000   20.59956535   20.59956535
142 1    1.04034270    2.05995654   22.65952189   20.59956535
143 1    1.04034270    2.05995654   20.59956535   22.65952189
144 1    1.04034270    0.00000000   22.65952189   22.65952189
145 1    1.04034270    4.11991307    0.00000000    0.00000000
146 1    1.04034270    6.17986961    2.05995654    0.00000000
147 1    1.04034270    6.17986961    0.00000000    2.05995654
148 1    1.04034270    4.11991307    2.05995654    2.05995654
149 1    1.04034270    4.11991307    0.00000000    4.11991307
150 1    1.04034270    6.17986961    2.05995654    4.11991307
151 1    1.04034270    6.17986961    0.00000000    6.17986961
152 1    1.04034270    4.11991307    2.05995654    6.17986961
153 1    1.04034270    4.11991307    0.00000000    8.23982614
154 1    1.04034270    6.17986961    2.05995654    8.23982614
155 1    1.04034270    6.17986961    0.00000000   10.29978268
156 1    1.04034270    4.11991307    2.05995654   10.29978268
157 1    1.04034270    4.11991307    0.00000000   12.35973921
158 1    1.04034270    6.17986961    2.05995654   12.35973921
159 1    1.04034270    6.17986961    0.00000000   14.41969575
160 1    1.04034270    4.11991307    2.05995654   14.41969575
161 1    1.04034270    4.11991307    0.00000000   16.47965228
162 1    1.04034270    6.17986961    2.05995654   16.47965228
163 1    1.04034270    6.17986961    0.00000000   18.53960882
164 1    1.04034270    4.11991307    2.05995654   18.53960882
165 1    1.04034270    4.11991307    0.00000000   20.59956535
166 1    1.04034270    6.17986961    2.05995654   20.59956535
167 1    1.04034270    6.17986961    0.00000000   22.65952189
168 1    1.04034270    4.11991307    2.05995654   22.65952189
169 1    1.04034270    4.11991307    4.11991307    0.00000000
170 1    1.04034270    6.17986961    6.17986961    0.00000000
171 1    1.04034270    6.17986961    4.11991307    2.05995654
172 1    1.04034270    4.11991307    6.17986961    2.05995654
173 1    1.04034270    4.11991307    4.11991307    4.11991307
174 1    1.04034270    6.17986961    6.17986961    4.11991307
175 1    1.04034270    6.17986961    4.11991307    6.17986961
176 1    1.04034270    4.11991307    6.17986961    6.17986961
177 1    1.04034270    4.11991307    4.11991307    8.23982614
178 1    1.04034270    6.17986961    6.17986961    8.23982614
179 1    1.04034270    6.17986961    4.11991307   10.29978268
180 1    1.04034270    4.11991307    6.17986961   10.29978268
181 1    1.04034270    4.11991307    4.11991307   12.35973921
182 1    1.04034270    6.17986961    6.17986961   12.35973921
183 1    1.04034270    6.17986961    4.11991307   14.41969575
184 1    1.04034270    4.11991307    6.17986961   14.41969575
185 1    1.04034270    4.11991307    4.11991307   16.47965228
186 1    1.04034270    6.17986961    6.17986961   16.47965228
187 1    1.04034270    6.17986961    4.11991307   18.53960882
188 1    1.04034270    4.11991307    6.17986961   18.53960882
189 1    1.04034270    4.11991307    4.11991307   20.59956535
190 1    1.04034270    6.17986961    6.17986961   20.59956535
191 1    1.04034270    6.17986961    4.11991307   22.65952189
192 1    1.04034270    4.11991307    6.17986961   22.65952189
193 1    1.04034270    4.11991307    8.23982614    0.00000000
194 1    1.04034270    6.17986961   10.29978268    0.00000000
195 1    1.04034270    6.17986961    8.23982614    2.05995654
196 1    1.04034270    4.11991307   10.29978268    2.05995654
197 1    1.04034270    4.11991307    8.23982614    4.11991307
198 1    1.04034270    6.17986961   10.29978268    4.11991307
199 1    1.04034270    6.17986961    8.23982614    6.17986961
200 1    1.04034270    4.11991307   10.29978268    6.17986961
201 1    1.04034270    4.11991307    8.23982614    8.23982614
202 1    1.04034270    6.17986961   10.29978268    8.23982614
203 1    1.04034270    6.17986961    8.23982614   10.29978268
204 1    1.04034270    4.11991307   10.29978268   10.29978268
205 1    1.04034270    4.11991307    8.23982614   12.35973921
206 1    1.04034270    6.17986961   10.29978268   12.35973921
207 1    1.04034270    6.17986961    8.23982614   14.41969575
208 1    1.04034270    4.11991307   10.29978268   14.41969575
209 1    1.04034270    4.11991307    8.23982614   16.47965228
210 1    1.04034270    6.17986961   10.29978268   16.47965228
211 1    1.04034270    6.17986961    8.23982614   18.53960882
212 1    1.04034270    4.11991307   10.29978268   18.53960882
213 1    1.04034270    4.11991307    8.23982614   20.59956535
214 1    1.04034270    6.17986961   10.29978268   20.59956535
215 1    1.04034270    6.17986961    8.23982614   22.65952189
216 1    1.04034270    4.11991307   10.29978268   22.65952189
217 1    1.04034270    4.11991307   12.35973921    0.00000000
218 1    1.04034270    6.17986961   14.41969575    0.00000000
219 1    1.04034270    6.17986961   12.35973921    2.05995654
220 1    1.04034270    4.11991307   14.41969575    2.05995654
221 1    1.04034270    4.11991307   12.35973921    4.11991307
222 1    1.04034270    6.17986961   14.41969575    4.11991307
223 1    1.04034270    6.17986961   12.35973921    6.17986961
224 1    1.04034270    4.11991307   14.41969575    6.17986961
225 1    1.04034270    4.11991307   12.35973921    8.23982614
226 1    1.04034270    6.17986961   14.41969575    8.23982614
227 1    1.04034270    6.17986961   12.35973921   10.29978268
228 1    1.04034270    4.11991307   14.41969575   10.29978268
229 1    1.04034270    4.11991307   12.35973921   12.35973921
230 1    1.04034270    6.17986961   14.41969575   12.35973921
231 1    1.04034270    6.17986961   12.35973921   14.41969575
232 1    1.04034270    4.11991307   14.41969575   14.41969575
233 1    1.04034270    4.11991307   12.35973921   16.47965228
234 1    1.04034270    6.17986961   14.41969575   16.47965228
235 1    1.04034270    6.17986961   12.35973921   18.53960882
236 1    1.04034270    4.11991307   14.41969575   18.53960882
237 1    1.04034270    4.11991307   12.35973921   20.59956535
238 1    1.04034270    6.17986961   14.41969575   20.59956535
239 1    1.04034270    6.17986961   12.35973921   22.65952189
240 1    1.04034270    4.11991307   14.41969575   22.65952189
241 1    1.04034270    4.11991307   16.47965228    0.00000000
242 1    1.04034270    6.17986961   18.53960882    0.00000000
243 1    1.04034270    6.17986961   16.47965228    2.05995654
244 1    1.04034270    4.11991307   18.53960882    2.05995654
245 1    1.04034270    4.11991307   16.47965228    4.11991307
246 1    1.04034270    6.17986961   18.53960882    4.11991307
247 1    1.04034270    6.17986961   16.47965228    6.17986961
248 1    1.04034270    4.11991307   18.53960882    6.17986961
249 1    1.04034270    4.11991307   16.47965228    8.23982614
250 1    1.04034270    6.17986961   18.53960882    8.23982614
251 1    1.04034270    6.17986961   16.47965228   10.29978268
252 1    1.04034270    4.11991307   18.53960882   10.29978268
253 1    1.04034270    4.11991307   16.47965228   12.35973921
254 1    1.04034270    6.17986961   18.53960882   12.35973921
255 1    1.04034270    6.17986961   16.47965228   14.41969575
256 1    1.04034270    4.11991307   18.53960882   14.41969575
257 1    1.04034270    4.11991307   16.47965228   16.47965228
258 1    1.04034270    6.17986961   18.53960882   16.47965228
259 1    1.04034270    6.17986961   16.47965228   18.53960882
260 1    1.04034270    4.11991307   18.53960882   18.53960882
261 1    1.04034270    4.11991307   16.47965228   20.59956535
262 1    1.04034270    6.17986961   18.53960882   20.59956535
263 1    1.04034270    6.17986961   16.47965228   22.65952189
264 1    1.04034270    4.11991307   18.53960882   22.65952189
265 1    1.04034270    4.11991307   20.59956535    0.00000000
266 1    1.04034270    6.17986961   22.65952189    0.00000000
267 1    1.04034270    6.17986961   20.59956535    2.05995654
268 1    1.04034270    4.11991307   22.65952189    2.05995654
269 1    1.04034270    4.11991307   20.59956535    4.11991307
270 1    1.04034270    6.17986961   22.65952189    4.11991307
271 1    1.04034270    6.17986961   20.59956535    6.17986961
272 1    1.04034270    4.11991307   22.65952189    6.17986961
273 1    1.04034270    4.11991307   20.59956535    8.23982614
274 1    1.04034270    6.17986961   22.65952189    8.23982614
275 1    1.04034270    6.17986961   20.59956535   10.29978268
276 1    1.04034270    4.11991307   22.65952189   10.29978268
277 1    1.04034270    4.11991307   20.59956535   12.35973921
278 1    1.04034270    6.17986961   22.65952189   12.35973921
279 1    1.04034270    6.17986961   20.59956535   14.41969575
280 1    1.04034270    4.11991307   22.65952189   14.41969575
281 1    1.04034270    4.11991307   20.59956535   16.47965228
282 1    1.04034270    6.17986961   22.65952189   16.47965228
283 1    1.04034270    6.17986961   20.59956535   18.53960882
284 1    1.04034270    4.11991307   22.65952189   18.53960882
285 1    1.04034270    4.11991307   20.59956535   20.59956535
286 1    1.04034270    6.17986961   22.65952189   20.59956535
287 1    1.04034270    6.17986961   20.59956535   22.65952189
288 1    1.04034270    4.11991307   22.65952189   22.65952189
289 1    1.04034270    8.23982614    0.00000000    0.00000000
290 1    1.04034270   10.29978268    2.05995654    0.00000000
291 1    1.04034270   10.29978268    0.00000000    2.05995654
292 1    1.04034270    8.23982614    2.05995654    2.05995654
293 1    1.04034270    8.23982614    0.00000000    4.11991307
294 1    1.04034270   10.29978268    2.05995654    4.11991307
295 1    1.04034270   10.29978268    0.00000000    6.17986961
296 1    1.04034270    8.23982614    2.05995654    6.17986961
297 1    1.04034270    8.23982614    0.00000000    8.23982614
298 1    1.04034270   10.29978268    2.05995654    8.23982614
299 1    1.04034270   10.29978268    0.00000000   10.29978268
300 1    1.04034270    8.23982614    2.05995654   10.29978268
301 1    1.04034270    8.23982614    0.00000000   12.35973921
302 1    1.04034270   10.29978268    2.05995654   12.35973921
303 1    1.04034270   10.29978268    0.00000000   14.41969575
304 1    1.04034270    8.23982614    2.05995654   14.41969575
305 1    1.04034270    8.23982614    0.00000000   16.47965228
306 1    1.04034270   10.29978268    2.05995654   16.47965228
307 1    1.04034270   10.29978268    0.00000000   18.53960882
308 1    1.04034270    8.23982614    2.05995654   18.53960882
309 1    1.04034270    8.23982614    0.00000000   20.59956535
310 1    1.04034270   10.29978268    2.05995654   20.59956535
311 1    1.04034270   10.29978268    0.00000000   22.65952189
312 1    1.04034270    8.23982614    2.05995654   22.65952189
313 1    1.04034270    8.23982614    4.11991307    0.00000000
314 1    1.04034270   10.29978268    6.17986961    0.00000000
315 1    1.04034270   10.29978268    4.11991307    2.05995654
316 1    1.04034270    8.23982614    6.17986961    2.05995654
317 1    1.04034270    8.23982614    4.11991307    4.11991307
318 1    1.04034270   10.29978268    6.17986961    4.11991307
319 1    1.04034270   10.29978268    4.11991307    6.17986961
320 1    1.04034270    8.23982614    6.17986961    6.17986961
321 1    1.04034270    8.23982614    4.11991307    8.23982614
322 1    1.04034270   10.29978268    6.17986961    8.23982614
323 1    1.04034270   10.29978268    4.11991307   10.29978268
324 1    1.04034270    8.23982614    6.17986961   10.29978268
325 1    1.04034270    8.23982614    4.11991307   12.35973921
326 1    1.04034270   10.29978268    6.17986961   12.35973921
327 1    1.04034270   10.29978268    4.11991307   14.41969575
328 1    1.04034270    8.23982614    6.17986961   14.41969575
329 1    1.04034270    8.23982614    4.11991307   16.47965228
330 1    1.04034270   10.29978268    6.17986961   16.47965228
331 1    1.04034270   10.29978268    4.11991307   18.53960882
332 1    1.04034270    8.23982614    6.17986961   18.53960882
333 1    1.04034270    8.23982614    4.11991307   20.59956535
334 1    1.04034270   10.29978268    6.17986961   20.59956535
335 1    1.04034270   10.29978268    4.11991307   22.65952189
336 1    1.04034270    8.23982614    6.17986961   22.65952189
337 1    1.04034270    8.23982614    8.23982614    0.00000000
338 1    1.04034270   10.29978268   10.29978268    0.00000000
339 1    1.04034270   10.29978268    8.23982614    2.05995654
340 1    1.04034270    8.23982614   10.29978268    2.05995654
341 1    1.04034270    8.23982614    8.23982614    4.11991307
342 1    1.04034270   10.29978268   10.29978268    4.11991307
343 1    1.04034270   10.29978268    8.23982614    6.17986961
344 1    1.04034270    8.23982614   10.29978268    6.17986961
345 1    1.04034270    8.23982614    8.23982614    8.23982614
346 1    1.04034270   10.29978268   10.29978268    8.23982614
347 1    1.04034270   10.29978268    8.23982614   10.29978268
348 1    1.04034270    8.23982614   10.29978268   10.29978268
349 1    1.04034270    8.23982614    8.23982614   12.35973921
350 1    1.04034270   10.29978268   10.29978268   12.35973921
351 1    1.04034270   10.29978268    8.23982614   14.41969575
352 1    1.04034270    8.23982614   10.29978268   14.41969575
353 1    1.04034270    8.23982614    8.23982614   16.47965228
354 1    1.04034270   10.29978268   10.29978268   16.47965228
355 1    1.04034270   10.29978268    8.23982614   18.53960882
356 1    1.04034270    8.23982614   10.29978268   18.53960882
357 1    1.04034270    8.23982614    8.23982614   20.59956535
358 1    1.04034270   10.29978268   10.29978268   20.59956535
359 1    1.04034270   10.29978268    8.23982614   22.65952189
360 1    1.04034270    8.23982614   10.29978268   22.65952189
361 1    1.04034270    8.23982614   12.35973921    0.00000000
362 1    1.04034270   10.29978268   14.41969575    0.00000000
363 1    1.04034270   10.29978268   12.35973921    2.05995654
364 1    1.04034270    8.23982614   14.41969575    2.05995654
365 1    1.04034270    8.23982614   12.35973921    4.11991307
366 1    1.04034270   10.29978268   14.41969575    4.11991307
367 1    1.04034270   10.29978268   12.35973921    6.17986961
368 1    1.04034270    8.23982614   14.41969575    6.17986961
369 1    1.04034270    8.23982614   12.35973921    8.23982614
370 1    1.04034270   10.29978268   14.41969575    8.23982614
371 1    1.04034270   10.29978268   12.35973921   10.29978268
372 1    1.04034270    8.23982614   14.41969575   10.29978268
373 1    1.04034270    8.23982614   12.35973921   12.35973921
374 1    1.04034270   10.29978268   14.41969575   12.35973921
375 1    1.04034270   10.29978268   12.35973921   14.41969575
376 1    1.04034270    8.23982614   14.41969575   14.41969575
377 1    1.04034270    8.23982614   12.35973921   16.47965228
378 1    1.04034270   10.29978268   14.41969575   16.47965228
379 1    1.04034270   10.29978268   12.35973921   18.53960882
380 1    1.04034270    8.23982614   14.41969575   18.53960882
381 1    1.04034270    8.23982614   12.35973921   20.59956535
382 1    1.04034270   10.29978268   14.41969575   20.59956535
383 1    1.04034270   10.29978268   12.35973921   22.65952189
384 1    1.04034270    8.23982614   14.41969575   22.65952189
385 1    1.04034270    8.23982614   16.47965228    0.00000000
386 1    1.04034270   10.29978268   18.53960882    0.00000000
387 1    1.04034270   10.29978268   16.47965228    2.05995654
388 1    1.04034270    8.23982614   18.53960882    2.05995654
389 1    1.04034270    8.23982614   16.47965228    4.11991307
390 1    1.04034270   10.29978268   18.53960882    4.11991307
391 1    1.04034270   10.29978268   16.47965228    6.17986961
392 1    1.04034270    8.23982614   18.53960882    6.17986961
393 1    1.04034270    8.23982614   16.47965228    8.23982614
394 1    1.04034270   10.29978268   18.53960882    8.23982614
395 1    1.04034270   10.29978268   16.47965228   10.29978268
396 1    1.04034270    8.23982614   18.53960882   10.29978268
397 1    1.04034270    8.23982614   16.47965228   12.35973921
398 1    1.04034270   10.29978268   18.53960882   12.35973921
399 1    1.04034270   10.29978268   16.47965228   14.41969575
400 1    1.04034270    8.23982614   18.53960882   14.41969575
401 1    1.04034270    8.23982614   16.47965228   16.47965228
402 1    1.04034270   10.29978268   18.53960882   16.47965228
403 1    1.04034270   10.29978268   16.47965228   18.53960882
404 1    1.04034270    8.23982614   18.53960882   18.53960882
405 1    1.04034270    8.23982614   16.47965228   20.59956535
406 1    1.04034270   10.29978268   18.53960882   20.59956535
407 1    1.04034270   10.29978268   16.47965228   22.65952189
408 1    1.04034270    8.23982614   18.53960882   22.65952189
409 1    1.04034270    8.23982614   20.59956535    0.00000000
410 1    1.04034270   10.29978268   22.65952189    0.00000000
411 1    1.04034270   10.29978268   20.59956535    2.05995654
412 1    1.04034270    8.23982614   22.65952189    2.05995654
413 1    1.04034270    8.23982614   20.59956535    4.11991307
414 1    1.04034270   10.29978268   22.65952189    4.11991307
415 1    1.04034270   10.29978268   20.59956535    6.17986961
416 1    1.04034270    8.23982614   22.65952189    6.17986961
417 1    1.04034270    8.23982614   20.59956535    8.23982614
418 1    1.04034270   10.29978268   22.65952189    8.23982614
419 1    1.04034270   10.29978268   20.59956535   10.29978268
420 1    1.04034270    8.23982614   22.65952189   10.29978268
421 1    1.04034270    8.23982614   20.59956535   12.35973921
422 1    1.04034270   10.29978268   22.65952189   12.35973921
423 1    1.04034270   10.29978268   20.59956535   14.41969575
424 1    1.04034270    8.23982614   22.65952189   14.41969575
425 1    1.04034270    8.23982614   20.59956535   16.47965228
426 1    1.04034270   10.29978268   22.65952189   16.47965228
427 1    1.04034270   10.29978268   20.59956535   18.53960882
428 1    1.04034270    8.23982614   22.65952189   18.53960882
429 1    1.04034270    8.23982614   20.59956535   20.59956535
430 1    1.04034270   10.29978268   22.65952189   20.59956535
431 1    1.04034270   10.29978268   20.59956535   22.65952189
432 1    1.04034270    8.23982614   22.65952189   22.65952189
433 1    1.04034270   12.35973921    0.00000000    0.00000000
434 1    1.04034270   14.41969575    2.05995654    0.00000000
435 1    1.04034270   14.41969575    0.00000000    2.05995654
436 1    1.04034270   12.35973921    2.05995654    2.05995654
437 1    1.04034270   12.35973921    0.00000000    4.11991307
438 1    1.04034270   14.41969575    2.05995654    4.11991307
439 1    1.04034270   14.41969575    0.00000000    6.17986961
440 1    1.04034270   12.35973921    2.05995654    6.17986961
441 1    1.04034270   12.35973921    0.00000000    8.23982614
442 1    1.04034270   14.41969575    2.05995654    8.23982614
443 1    1.04034270   14.41969575    0.00000000   10.29978268
444 1    1.04034270   12.35973921    2.05995654   10.29978268
445 1    1.04034270   12.35973921    0.00000000   12.35973921
446 1    1.04034270   14.41969575    2.05995654   12.35973921
447 1    1.04034270   14.41969575    0.00000000   14.41969575
448 1    1.04034270   12.35973921    2.05995654   14.41969575
449 1    1.04034270   12.35973921    0.00000000   16.47965228
450 1    1.04034270   14.41969575    2.05995654   16.47965228
451 1    1.04034270   14.41969575    0.00000000   18.53960882
452 1    1.04034270   12.35973921    2.05995654   18.53960882
453 1    1.04034270   12.35973921    0.00000000   20.59956535
454 1    1.04034270   14.41969575    2.05995654   20.59956535
455 1    1.04034270   14.41969575    0.00000000   22.65952189
456 1    1.04034270   12.35973921    2.05995654   22.65952189
457 1    1.04034270   12.35973921    4.11991307    0.00000000
458 1    1.04034270   14.41969575    6.17986961    0.00000000
459 1    1.04034270   14.41969575    4.11991307    2.05995654
460 1    1.04034270   12.35973921    6.17986961    2.05995654
461 1    1.04034270   12.35973921    4.11991307    4.11991307
462 1    1.04034270   14.41969575    6.17986961    4.11991307
463 1    1.04034270   14.41969575    4.11991307    6.17986961
464 1    1.04034270   12.35973921    6.17986961    6.17986961
465 1    1.04034270   12.35973921    4.11991307    8.23982614
466 1    1.04034270   14.41969575    6.17986961    8.23982614
467 1    1.04034270   14.41969575    4.11991307   10.29978268
468 1    1.04034270   12.35973921    6.17986961   10.29978268
469 1    1.04034270   12.35973921    4.11991307   12.35973921
470 1    1.04034270   14.41969575    6.17986961   12.35973921
471 1    1.04034270   14.41969575    4.11991307   14.41969575
472 1    1.04034270   12.35973921    6.17986961   14.41969575
473 1    1.04034270   12.35973921    4.11991307   16.47965228
474 1    1.04034270   14.41969575    6.17986961   16.47965228