alpha-al2o3                         
 
  2160  atoms
     2  atom types
 
    0.000000     24.733686  xlo xhi
    0.000000     28.560000  ylo yhi
    0.000000     25.979800  zlo zhi
 
Atoms
 
     1       1   0.0  0.00000           0.00000           4.32992
     2       1   0.0  4.12228           2.38000           4.32992
     3       1   0.0  5.49640           0.00000           8.65998
     4       1   0.0  1.37412           2.38000           8.65998
     5       1   0.0  2.74816           0.00000           0.00000
     6       1   0.0  6.87044           2.38000           0.00000
     7       1   0.0  0.00000           0.00000           1.67998
     8       1   0.0  4.12228           2.38000           1.67998
     9       1   0.0  5.49640           0.00000           6.01004
    10       1   0.0  1.37412           2.38000           6.01004
    11       1   0.0  2.74816           0.00000          10.33996
    12       1   0.0  6.87044           2.38000          10.33996
    13       1   0.0  0.00000           0.00000           8.17493
    14       1   0.0  4.12228           2.38000           8.17493
    15       1   0.0  5.49640           0.00000          12.50499
    16       1   0.0  1.37412           2.38000          12.50499
    17       1   0.0  2.74816           0.00000           3.84501
    18       1   0.0  6.87044           2.38000           3.84501
    19       1   0.0  0.00000           0.00000          10.82487
    20       1   0.0  4.12228           2.38000          10.82487
    21       1   0.0  5.49640           0.00000           2.16503
    22       1   0.0  1.37412           2.38000           2.16503
    23       1   0.0  2.74816           0.00000           6.49495
    24       1   0.0  6.87044           2.38000           6.49495
    25       2   0.0   1.26142           0.72828           3.00495
    26       2   0.0   5.38370           3.10828           3.00495
    27       2   0.0   6.75782           0.72828           7.33501
    28       2   0.0   2.63554           3.10828           7.33501
    29       2   0.0   4.00958           0.72828          11.66493
    30       2   0.0   8.13186           3.10828          11.66493
    31       2   0.0   6.98314           0.72828           3.00495
    32       2   0.0   2.86086           3.10828           3.00495
    33       2   0.0   4.23498           0.72828           7.33501
    34       2   0.0   0.11270           3.10828           7.33501
    35       2   0.0   1.48674           0.72828          11.66493
    36       2   0.0   5.60902           3.10828          11.66493
    37       2   0.0   4.12228           0.92344           3.00495
    38       2   0.0   0.00000           3.30344           3.00495
    39       2   0.0   1.37412           0.92344           7.33501
    40       2   0.0   5.49640           3.30344           7.33501
    41       2   0.0   6.87044           0.92344          11.66493
    42       2   0.0   2.74816           3.30344          11.66493
    43       2   0.0   2.86086           1.65172           9.49990
    44       2   0.0   6.98314           4.03172           9.49990
    45       2   0.0   0.11270           1.65172           0.84006
    46       2   0.0   4.23498           4.03172           0.84006
    47       2   0.0   5.60902           1.65172           5.16998
    48       2   0.0   1.48674           4.03172           5.16998
    49       2   0.0   5.38370           1.65172           9.49990
    50       2   0.0   1.26142           4.03172           9.49990
    51       2   0.0   2.63554           1.65172           0.84006
    52       2   0.0   6.75782           4.03172           0.84006
    53       2   0.0   8.13186           1.65172           5.16998
    54       2   0.0   4.00958           4.03172           5.16998
    55       2   0.0   0.00000           1.45656           9.49990
    56       2   0.0   4.12228           3.83656           9.49990
    57       2   0.0   5.49640           1.45656           0.84006
    58       2   0.0   1.37412           3.83656           0.84006
    59       2   0.0   2.74816           1.45656           5.16998
    60       2   0.0   6.87044           3.83656           5.16998
    61       1   0.0  0.00000           0.00000          17.31982
    62       1   0.0  4.12228           2.38000          17.31982
    63       1   0.0  5.49640           0.00000          21.64988
    64       1   0.0  1.37412           2.38000          21.64988
    65       1   0.0  2.74816           0.00000          12.98990
    66       1   0.0  6.87044           2.38000          12.98990
    67       1   0.0  0.00000           0.00000          14.66988
    68       1   0.0  4.12228           2.38000          14.66988
    69       1   0.0  5.49640           0.00000          18.99994
    70       1   0.0  1.37412           2.38000          18.99994
    71       1   0.0  2.74816           0.00000          23.32986
    72       1   0.0  6.87044           2.38000          23.32986
    73       1   0.0  0.00000           0.00000          21.16483
    74       1   0.0  4.12228           2.38000          21.16483
    75       1   0.0  5.49640           0.00000          25.49489
    76       1   0.0  1.37412           2.38000          25.49489
    77       1   0.0  2.74816           0.00000          16.83491
    78       1   0.0  6.87044           2.38000          16.83491
    79       1   0.0  0.00000           0.00000          23.81477
    80       1   0.0  4.12228           2.38000          23.81477
    81       1   0.0  5.49640           0.00000          15.15493
    82       1   0.0  1.37412           2.38000          15.15493
    83       1   0.0  2.74816           0.00000          19.48485
    84       1   0.0  6.87044           2.38000          19.48485
    85       2   0.0   1.26142           0.72828          15.99485
    86       2   0.0   5.38370           3.10828          15.99485
    87       2   0.0   6.75782           0.72828          20.32491
    88       2   0.0   2.63554           3.10828          20.32491
    89       2   0.0   4.00958           0.72828          24.65483
    90       2   0.0   8.13186           3.10828          24.65483
    91       2   0.0   6.98314           0.72828          15.99485
    92       2   0.0   2.86086           3.10828          15.99485
    93       2   0.0   4.23498           0.72828          20.32491
    94       2   0.0   0.11270           3.10828          20.32491
    95       2   0.0   1.48674           0.72828          24.65483
    96       2   0.0   5.60902           3.10828          24.65483
    97       2   0.0   4.12228           0.92344          15.99485
    98       2   0.0   0.00000           3.30344          15.99485
    99       2   0.0   1.37412           0.92344          20.32491
   100       2   0.0   5.49640           3.30344          20.32491
   101       2   0.0   6.87044           0.92344          24.65483
   102       2   0.0   2.74816           3.30344          24.65483
   103       2   0.0   2.86086           1.65172          22.48980
   104       2   0.0   6.98314           4.03172          22.48980
   105       2   0.0   0.11270           1.65172          13.82996
   106       2   0.0   4.23498           4.03172          13.82996
   107       2   0.0   5.60902           1.65172          18.15988
   108       2   0.0   1.48674           4.03172          18.15988
   109       2   0.0   5.38370           1.65172          22.48980
   110       2   0.0   1.26142           4.03172          22.48980
   111       2   0.0   2.63554           1.65172          13.82996
   112       2   0.0   6.75782           4.03172          13.82996
   113       2   0.0   8.13186           1.65172          18.15988
   114       2   0.0   4.00958           4.03172          18.15988
   115       2   0.0   0.00000           1.45656          22.48980
   116       2   0.0   4.12228           3.83656          22.48980
   117       2   0.0   5.49640           1.45656          13.82996
   118       2   0.0   1.37412           3.83656          13.82996
   119       2   0.0   2.74816           1.45656          18.15988
   120       2   0.0   6.87044           3.83656          18.15988
   121       1   0.0  0.00000           4.76000           4.32992
   122       1   0.0  4.12228           7.14000           4.32992
   123       1   0.0  5.49640           4.76000           8.65998
   124       1   0.0  1.37412           7.14000           8.65998
   125       1   0.0  2.74816           4.76000           0.00000
   126       1   0.0  6.87044           7.14000           0.00000
   127       1   0.0  0.00000           4.76000           1.67998
   128       1   0.0  4.12228           7.14000           1.67998
   129       1   0.0  5.49640           4.76000           6.01004
   130       1   0.0  1.37412           7.14000           6.01004
   131       1   0.0  2.74816           4.76000          10.33996
   132       1   0.0  6.87044           7.14000          10.33996
   133       1   0.0  0.00000           4.76000           8.17493
   134       1   0.0  4.12228           7.14000           8.17493
   135       1   0.0  5.49640           4.76000          12.50499
   136       1   0.0  1.37412           7.14000          12.50499
   137       1   0.0  2.74816           4.76000           3.84501
   138       1   0.0  6.87044           7.14000           3.84501
   139       1   0.0  0.00000           4.76000          10.82487
   140       1   0.0  4.12228           7.14000          10.82487
   141       1   0.0  5.49640           4.76000           2.16503
   142       1   0.0  1.37412           7.14000           2.16503
   143       1   0.0  2.74816           4.76000           6.49495
   144       1   0.0  6.87044           7.14000           6.49495
   145       2   0.0   1.26142           5.48828           3.00495
   146       2   0.0   5.38370           7.86828           3.00495
   147       2   0.0   6.75782           5.48828           7.33501
   148       2   0.0   2.63554           7.86828           7.33501
   149       2   0.0   4.00958           5.48828          11.66493
   150       2   0.0   8.13186           7.86828          11.66493
   151       2   0.0   6.98314           5.48828           3.00495
   152       2   0.0   2.86086           7.86828           3.00495
   153       2   0.0   4.23498           5.48828           7.33501
   154       2   0.0   0.11270           7.86828           7.33501
   155       2   0.0   1.48674           5.48828          11.66493
   156       2   0.0   5.60902           7.86828          11.66493
   157       2   0.0   4.12228           5.68344           3.00495
   158       2   0.0   0.00000           8.06344           3.00495
   159       2   0.0   1.37412           5.68344           7.33501
   160       2   0.0   5.49640           8.06344           7.33501
   161       2   0.0   6.87044           5.68344          11.66493
   162       2   0.0   2.74816           8.06344          11.66493
   163       2   0.0   2.86086           6.41172           9.49990
   164       2   0.0   6.98314           8.79172           9.49990
   165       2   0.0   0.11270           6.41172           0.84006
   166       2   0.0   4.23498           8.79172           0.84006
   167       2   0.0   5.60902           6.41172           5.16998
   168       2   0.0   1.48674           8.79172           5.16998
   169       2   0.0   5.38370           6.41172           9.49990
   170       2   0.0   1.26142           8.79172           9.49990
   171       2   0.0   2.63554           6.41172           0.84006
   172       2   0.0   6.75782           8.79172           0.84006
   173       2   0.0   8.13186           6.41172           5.16998
   174       2   0.0   4.00958           8.79172           5.16998
   175       2   0.0   0.00000           6.21656           9.49990
   176       2   0.0   4.12228           8.59656           9.49990
   177       2   0.0   5.49640           6.21656           0.84006
   178       2   0.0   1.37412           8.59656           0.84006
   179       2   0.0   2.74816           6.21656           5.16998
   180       2   0.0   6.87044           8.59656           5.16998
   181       1   0.0  0.00000           4.76000          17.31982
   182       1   0.0  4.12228           7.14000          17.31982
   183       1   0.0  5.49640           4.76000          21.64988
   184       1   0.0  1.37412           7.14000          21.64988
   185       1   0.0  2.74816           4.76000          12.98990
   186       1   0.0  6.87044           7.14000          12.98990
   187       1   0.0  0.00000           4.76000          14.66988
   188       1   0.0  4.12228           7.14000          14.66988
   189       1   0.0  5.49640           4.76000          18.99994
   190       1   0.0  1.37412           7.14000          18.99994
   191       1   0.0  2.74816           4.76000          23.32986
   192       1   0.0  6.87044           7.14000          23.32986
   193       1   0.0  0.00000           4.76000          21.16483
   194       1   0.0  4.12228           7.14000          21.16483
   195       1   0.0  5.49640           4.76000          25.49489
   196       1   0.0  1.37412           7.14000          25.49489
   197       1   0.0  2.74816           4.76000          16.83491
   198       1   0.0  6.87044           7.14000          16.83491
   199       1   0.0  0.00000           4.76000          23.81477
   200       1   0.0  4.12228           7.14000          23.81477
   201       1   0.0  5.49640           4.76000          15.15493
   202       1   0.0  1.37412           7.14000          15.15493
   203       1   0.0  2.74816           4.76000          19.48485
   204       1   0.0  6.87044           7.14000          19.48485
   205       2   0.0   1.26142           5.48828          15.99485
   206       2   0.0   5.38370           7.86828          15.99485
   207       2   0.0   6.75782           5.48828          20.32491
   208       2   0.0   2.63554           7.86828          20.32491
   209       2   0.0   4.00958           5.48828          24.65483
   210       2   0.0   8.13186           7.86828          24.65483
   211       2   0.0   6.98314           5.48828          15.99485
   212       2   0.0   2.86086           7.86828          15.99485
   213       2   0.0   4.23498           5.48828          20.32491
   214       2   0.0   0.11270           7.86828          20.32491
   215       2   0.0   1.48674           5.48828          24.65483
   216       2   0.0   5.60902           7.86828          24.65483
   217       2   0.0   4.12228           5.68344          15.99485
   218       2   0.0   0.00000           8.06344          15.99485
   219       2   0.0   1.37412           5.68344          20.32491
   220       2   0.0   5.49640           8.06344          20.32491
   221       2   0.0   6.87044           5.68344          24.65483
   222       2   0.0   2.74816           8.06344          24.65483
   223       2   0.0   2.86086           6.41172          22.48980
   224       2   0.0   6.98314           8.79172          22.48980
   225       2   0.0   0.11270           6.41172          13.82996
   226       2   0.0   4.23498           8.79172          13.82996
   227       2   0.0   5.60902           6.41172          18.15988
   228       2   0.0   1.48674           8.79172          18.15988
   229       2   0.0   5.38370           6.41172          22.48980
   230       2   0.0   1.26142           8.79172          22.48980
   231       2   0.0   2.63554           6.41172          13.82996
   232       2   0.0   6.75782           8.79172          13.82996
   233       2   0.0   8.13186           6.41172          18.15988
   234       2   0.0   4.00958           8.79172          18.15988
   235       2   0.0   0.00000           6.21656          22.48980
   236       2   0.0   4.12228           8.59656          22.48980
   237       2   0.0   5.49640           6.21656          13.82996
   238       2   0.0   1.37412           8.59656          13.82996
   239       2   0.0   2.74816           6.21656          18.15988
   240       2   0.0   6.87044           8.59656          18.15988
   241       1   0.0  0.00000           9.52000           4.32992
   242       1   0.0  4.12228          11.90000           4.32992
   243       1   0.0  5.49640           9.52000           8.65998
   244       1   0.0  1.37412          11.90000           8.65998
   245       1   0.0  2.74816           9.52000           0.00000
   246       1   0.0  6.87044          11.90000           0.00000
   247       1   0.0  0.00000           9.52000           1.67998
   248       1   0.0  4.12228          11.90000           1.67998
   249       1   0.0  5.49640           9.52000           6.01004
   250       1   0.0  1.37412          11.90000           6.01004
   251       1   0.0  2.74816           9.52000          10.33996
   252       1   0.0  6.87044          11.90000          10.33996
   253       1   0.0  0.00000           9.52000           8.17493
   254       1   0.0  4.12228          11.90000           8.17493
   255       1   0.0  5.49640           9.52000          12.50499
   256       1   0.0  1.37412          11.90000          12.50499
   257       1   0.0  2.74816           9.52000           3.84501
   258       1   0.0  6.87044          11.90000           3.84501
   259       1   0.0  0.00000           9.52000          10.82487
   260       1   0.0  4.12228          11.90000          10.82487
   261       1   0.0  5.49640           9.52000           2.16503
   262       1   0.0  1.37412          11.90000           2.16503
   263       1   0.0  2.74816           9.52000           6.49495
   264       1   0.0  6.87044          11.90000           6.49495
   265       2   0.0   1.26142          10.24828           3.00495
   266       2   0.0   5.38370          12.62828           3.00495
   267       2   0.0   6.75782          10.24828           7.33501
   268       2   0.0   2.63554          12.62828           7.33501
   269       2   0.0   4.00958          10.24828          11.66493
   270       2   0.0   8.13186          12.62828          11.66493
   271       2   0.0   6.98314          10.24828           3.00495
   272       2   0.0   2.86086          12.62828           3.00495
   273       2   0.0   4.23498          10.24828           7.33501
   274       2   0.0   0.11270          12.62828           7.33501
   275       2   0.0   1.48674          10.24828          11.66493
   276       2   0.0   5.60902          12.62828          11.66493
   277       2   0.0   4.12228          10.44344           3.00495
   278       2   0.0   0.00000          12.82344           3.00495
   279       2   0.0   1.37412          10.44344           7.33501
   280       2   0.0   5.49640          12.82344           7.33501
   281       2   0.0   6.87044          10.44344          11.66493
   282       2   0.0   2.74816          12.82344          11.66493
   283       2   0.0   2.86086          11.17172           9.49990
   284       2   0.0   6.98314          13.55172           9.49990
   285       2   0.0   0.11270          11.17172           0.84006
   286       2   0.0   4.23498          13.55172           0.84006
   287       2   0.0   5.60902          11.17172           5.16998
   288       2   0.0   1.48674          13.55172           5.16998
   289       2   0.0   5.38370          11.17172           9.49990
   290       2   0.0   1.26142          13.55172           9.49990
   291       2   0.0   2.63554          11.17172           0.84006
   292       2   0.0   6.75782          13.55172           0.84006
   293       2   0.0   8.13186          11.17172           5.16998
   294       2   0.0   4.00958          13.55172           5.16998
   295       2   0.0   0.00000          10.97656           9.49990
   296       2   0.0   4.12228          13.35656           9.49990
   297       2   0.0   5.49640          10.97656           0.84006
   298       2   0.0   1.37412          13.35656           0.84006
   299       2   0.0   2.74816          10.97656           5.16998
   300       2   0.0   6.87044          13.35656           5.16998
   301       1   0.0  0.00000           9.52000          17.31982
   302       1   0.0  4.12228          11.90000          17.31982
   303       1   0.0  5.49640           9.52000          21.64988
   304       1   0.0  1.37412          11.90000          21.64988
   305       1   0.0  2.74816           9.52000          12.98990
   306       1   0.0  6.87044          11.90000          12.98990
   307       1   0.0  0.00000           9.52000          14.66988
   308       1   0.0  4.12228          11.90000          14.66988
   309       1   0.0  5.49640           9.52000          18.99994
   310       1   0.0  1.37412          11.90000          18.99994
   311       1   0.0  2.74816           9.52000          23.32986
   312       1   0.0  6.87044          11.90000          23.32986
   313       1   0.0  0.00000           9.52000          21.16483
   314       1   0.0  4.12228          11.90000          21.16483
   315       1   0.0  5.49640           9.52000          25.49489
   316       1   0.0  1.37412          11.90000          25.49489
   317       1   0.0  2.74816           9.52000          16.83491
   318       1   0.0  6.87044          11.90000          16.83491
   319       1   0.0  0.00000           9.52000          23.81477
   320       1   0.0  4.12228          11.90000          23.81477
   321       1   0.0  5.49640           9.52000          15.15493
   322       1   0.0  1.37412          11.90000          15.15493
   323       1   0.0  2.74816           9.52000          19.48485
   324       1   0.0  6.87044          11.90000          19.48485
   325       2   0.0   1.26142          10.24828          15.99485
   326       2   0.0   5.38370          12.62828          15.99485
   327       2   0.0   6.75782          10.24828          20.32491
   328       2   0.0   2.63554          12.62828          20.32491
   329       2   0.0   4.00958          10.24828          24.65483
   330       2   0.0   8.13186          12.62828          24.65483
   331       2   0.0   6.98314          10.24828          15.99485
   332       2   0.0   2.86086          12.62828          15.99485
   333       2   0.0   4.23498          10.24828          20.32491
   334       2   0.0   0.11270          12.62828          20.32491
   335       2   0.0   1.48674          10.24828          24.65483
   336       2   0.0   5.60902          12.62828          24.65483
   337       2   0.0   4.12228          10.44344          15.99485
   338       2   0.0   0.00000          12.82344          15.99485
   339       2   0.0   1.37412          10.44344          20.32491
   340       2   0.0   5.49640          12.82344          20.32491
   341       2   0.0   6.87044          10.44344          24.65483
   342       2   0.0   2.74816          12.82344          24.65483
   343       2   0.0   2.86086          11.17172          22.48980
   344       2   0.0   6.98314          13.55172          22.48980
   345       2   0.0   0.11270          11.17172          13.82996
   346       2   0.0   4.23498          13.55172          13.82996
   347       2   0.0   5.60902          11.17172          18.15988
   348       2   0.0   1.48674          13.55172          18.15988
   349       2   0.0   5.38370          11.17172          22.48980
   350       2   0.0   1.26142          13.55172          22.48980
   351       2   0.0   2.63554          11.17172          13.82996
   352       2   0.0   6.75782          13.55172          13.82996
   353       2   0.0   8.13186          11.17172          18.15988
   354       2   0.0   4.00958          13.55172          18.15988
   355       2   0.0   0.00000          10.97656          22.48980
   356       2   0.0   4.12228          13.35656          22.48980
   357       2   0.0   5.49640          10.97656          13.82996
   358       2   0.0   1.37412          13.35656          13.82996
   359       2   0.0   2.74816          10.97656          18.15988
   360       2   0.0   6.87044          13.35656          18.15988
   361       1   0.0  0.00000          14.28000           4.32992
   362       1   0.0  4.12228          16.66000           4.32992
   363       1   0.0  5.49640          14.28000           8.65998
   364       1   0.0  1.37412          16.66000           8.65998
   365       1   0.0  2.74816          14.28000           0.00000
   366       1   0.0  6.87044          16.66000           0.00000
   367       1   0.0  0.00000          14.28000           1.67998
   368       1   0.0  4.12228          16.66000           1.67998
   369       1   0.0  5.49640          14.28000           6.01004
   370       1   0.0  1.37412          16.66000           6.01004
   371       1   0.0  2.74816          14.28000          10.33996
   372       1   0.0  6.87044          16.66000          10.33996
   373       1   0.0  0.00000          14.28000           8.17493
   374       1   0.0  4.12228          16.66000           8.17493
   375       1   0.0  5.49640          14.28000          12.50499
   376       1   0.0  1.37412          16.66000          12.50499
   377       1   0.0  2.74816          14.28000           3.84501
   378       1   0.0  6.87044          16.66000           3.84501
   379       1   0.0  0.00000          14.28000          10.82487
   380       1   0.0  4.12228          16.66000          10.82487
   381       1   0.0  5.49640          14.28000           2.16503
   382       1   0.0  1.37412          16.66000           2.16503
   383       1   0.0  2.74816          14.28000           6.49495
   384       1   0.0  6.87044          16.66000           6.49495
   385       2   0.0   1.26142          15.00828           3.00495
   386       2   0.0   5.38370          17.38828           3.00495
   387       2   0.0   6.75782          15.00828           7.33501
   388       2   0.0   2.63554          17.38828           7.33501
   389       2   0.0   4.00958          15.00828          11.66493
   390       2   0.0   8.13186          17.38828          11.66493
   391       2   0.0   6.98314          15.00828           3.00495
   392       2   0.0   2.86086          17.38828           3.00495
   393       2   0.0   4.23498          15.00828           7.33501
   394       2   0.0   0.11270          17.38828           7.33501
   395       2   0.0   1.48674          15.00828          11.66493
   396       2   0.0   5.60902          17.38828          11.66493
   397       2   0.0   4.12228          15.20344           3.00495
   398       2   0.0   0.00000          17.58344           3.00495
   399       2   0.0   1.37412          15.20344           7.33501
   400       2   0.0   5.49640          17.58344           7.33501
   401       2   0.0   6.87044          15.20344          11.66493
   402       2   0.0   2.74816          17.58344          11.66493
   403       2   0.0   2.86086          15.93172           9.49990
   404       2   0.0   6.98314          18.31172           9.49990
   405       2   0.0   0.11270          15.93172           0.84006
   406       2   0.0   4.23498          18.31172           0.84006
   407       2   0.0   5.60902          15.93172           5.16998
   408       2   0.0   1.48674          18.31172           5.16998
   409       2   0.0   5.38370          15.93172           9.49990
   410       2   0.0   1.26142          18.31172           9.49990
   411       2   0.0   2.63554          15.93172           0.84006
   412       2   0.0   6.75782          18.31172           0.84006
   413       2   0.0   8.13186          15.93172           5.16998
   414       2   0.0   4.00958          18.31172           5.16998
   415       2   0.0   0.00000          15.73656           9.49990
   416       2   0.0   4.12228          18.11656           9.49990
   417       2   0.0   5.49640          15.73656           0.84006
   418       2   0.0   1.37412          18.11656           0.84006
   419       2   0.0   2.74816          15.73656           5.16998
   420       2   0.0   6.87044          18.11656           5.16998
   421       1   0.0  0.00000          14.28000          17.31982
   422       1   0.0  4.12228          16.66000          17.31982
   423       1   0.0  5.49640          14.28000          21.64988
   424       1   0.0  1.37412          16.66000          21.64988
   425       1   0.0  2.74816          14.28000          12.98990
   426       1   0.0  6.87044          16.66000          12.98990
   427       1   0.0  0.00000          14.28000          14.66988
   428       1   0.0  4.12228          16.66000          14.66988
   429       1   0.0  5.49640          14.28000          18.99994
   430       1   0.0  1.37412          16.66000          18.99994
   431       1   0.0  2.74816          14.28000          23.32986
   432       1   0.0  6.87044          16.66000          23.32986
   433       1   0.0  0.00000          14.28000          21.16483
   434       1   0.0  4.12228          16.66000          21.16483
   435       1   0.0  5.49640          14.28000          25.49489
   436       1   0.0  1.37412          16.66000          25.49489
   437       1   0.0  2.74816          14.28000          16.83491
   438       1   0.0  6.87044          16.66000          16.83491
   439       1   0.0  0.00000          14.28000          23.81477
   440       1   0.0  4.12228          16.66000          23.81477
   441       1   0.0  5.49640          14.28000          15.15493
   442       1   0.0  1.37412          16.66000          15.15493
   443       1   0.0  2.74816          14.28000          19.48485
   444       1   0.0  6.87044          16.66000          19.48485
   445       2   0.0   1.26142          15.00828          15.99485
   446       2   0.0   5.38370          17.38828          15.99485
   447       2   0.0   6.75782          15.00828          20.32491