LAMMPS (30 Oct 2019)
# bcc iron in a 3d periodic box

clear
units 		metal
atom_style 	spin

dimension 	3
boundary 	p p p

# necessary for the serial algorithm (sametag)
atom_modify 	map array

lattice 	bcc 2.8665
Lattice spacing in x,y,z = 2.8665 2.8665 2.8665
region 		box block 0.0 12.0 0.0 12.0 0.0 12.0
create_box 	1 box
Created orthogonal box = (0 0 0) to (34.398 34.398 34.398)
  1 by 2 by 2 MPI processor grid
create_atoms 	1 box
Created 3456 atoms
  create_atoms CPU = 0.00089097 secs

# setting mass, mag. moments, and interactions for bcc iron

mass		1 55.845
set 		group all spin 2.2 -1.0 0.0 0.0
  3456 settings made for spin
velocity 	all create 100 4928459 rot yes dist gaussian

pair_style 	hybrid/overlay eam/alloy spin/exchange 3.5 spin/dipole/long 8.0
pair_coeff 	* * eam/alloy Fe_Mishin2006.eam.alloy Fe
pair_coeff 	* * spin/exchange exchange 3.4 0.02726 0.2171 1.841
pair_coeff	* * spin/dipole/long 8.0

neighbor 	0.1 bin
neigh_modify 	every 10 check yes delay 20

kspace_style 	pppm/dipole/spin 1.0e-4
kspace_modify 	compute yes

fix 		1 all precession/spin cubic 0.001 0.0005 1.0 0.0 0.0 0.0 1.0 0.0 0.0 0.0 1.0
fix_modify 	1 energy yes
fix 		2 all langevin/spin 0.0 0.0 21

fix 		3 all nve/spin lattice moving
timestep	0.0001

# compute and output options

compute 	out_mag    all spin
compute 	out_pe     all pe
compute 	out_ke     all ke
compute 	out_temp   all temp

variable 	magx      equal c_out_mag[1]
variable 	magy      equal c_out_mag[2]
variable 	magz      equal c_out_mag[3]
variable 	magnorm   equal c_out_mag[4]
variable 	emag      equal c_out_mag[5]
variable 	tmag      equal c_out_mag[6]

thermo_style    custom step time v_magx v_magy v_magz v_magnorm v_tmag v_emag pe etotal
thermo          50

compute 	outsp all property/atom spx spy spz sp fmx fmy fmz
dump 		1 all custom 100 dump_iron.lammpstrj type x y z c_outsp[1] c_outsp[2] c_outsp[3]

run 		100
PPPMDipoleSpin initialization ...
  G vector (1/distance) = 0.329367
  grid = 20 20 20
  stencil order = 5
  estimated absolute RMS force accuracy = 0.00175808
  estimated relative force accuracy = 0.000122092
  using double precision FFTs
  3d grid and FFT values/proc = 5625 2000
Neighbor list info ...
  update every 10 steps, delay 20 steps, check yes
  max neighbors/atom: 2000, page size: 100000
  master list distance cutoff = 8.1
  ghost atom cutoff = 8.1
  binsize = 4.05, bins = 9 9 9
  3 neighbor lists, perpetual/occasional/extra = 3 0 0
  (1) pair eam/alloy, perpetual, half/full from (2)
      attributes: half, newton on
      pair build: halffull/newton
      stencil: none
      bin: none
  (2) pair spin/exchange, perpetual
      attributes: full, newton on
      pair build: full/bin/atomonly
      stencil: full/bin/3d
      bin: standard
  (3) pair spin/dipole/long, perpetual, copy from (2)
      attributes: full, newton on
      pair build: copy
      stencil: none
      bin: none
Per MPI rank memory allocation (min/avg/max) = 10.42 | 10.42 | 10.42 Mbytes
Step Time v_magx v_magy v_magz v_magnorm v_tmag v_emag PotEng TotEng 
       0            0           -1            0            0            1 2.3173191e-37   -767.89759    -15559.59   -15514.929 
      50        0.005           -1 3.6593054e-09 -1.9379563e-09            1 4.9747018e-10   -767.88014   -15557.972   -15514.929 
     100         0.01           -1 7.3731919e-09 -3.8151563e-09            1 1.9544299e-09    -767.8301   -15553.402   -15514.929 
Loop time of 6.23322 on 4 procs for 100 steps with 3456 atoms

Performance: 0.139 ns/day, 173.145 hours/ns, 16.043 timesteps/s
99.5% CPU use with 4 MPI tasks x no OpenMP threads

MPI task timing breakdown:
Section |  min time  |  avg time  |  max time  |%varavg| %total
---------------------------------------------------------------
Pair    | 1.6633     | 1.6906     | 1.7152     |   1.4 | 27.12
Kspace  | 0.38875    | 0.41372    | 0.44184    |   3.0 |  6.64
Neigh   | 0          | 0          | 0          |   0.0 |  0.00
Comm    | 0.05118    | 0.053267   | 0.054998   |   0.6 |  0.85
Output  | 0.0070119  | 0.0070257  | 0.0070462  |   0.0 |  0.11
Modify  | 4.0616     | 4.0629     | 4.0646     |   0.1 | 65.18
Other   |            | 0.005713   |            |       |  0.09

Nlocal:    864 ave 864 max 864 min
Histogram: 4 0 0 0 0 0 0 0 0 0
Nghost:    3785 ave 3785 max 3785 min
Histogram: 4 0 0 0 0 0 0 0 0 0
Neighs:    72576 ave 72576 max 72576 min
Histogram: 4 0 0 0 0 0 0 0 0 0
FullNghs:  145152 ave 145152 max 145152 min
Histogram: 4 0 0 0 0 0 0 0 0 0

Total # of neighbors = 580608
Ave neighs/atom = 168
Neighbor list builds = 0
Dangerous builds = 0

Please see the log.cite file for references relevant to this simulation

Total wall time: 0:00:06
