# LAMMPS data file
16 atoms
16 ellipsoids
13 bonds

4 atom types
1 bond types

# System size
-20.000000 20.000000 xlo xhi
-20.000000 20.000000 ylo yhi
-20.000000 20.000000 zlo zhi

Masses

1 3.1575
2 3.1575
3 3.1575
4 3.1575

# Atom-ID, type, position, molecule-ID, ellipsoid flag, density
Atoms

1 1 -6.000000000000001e-01  0.000000000000000e+00  0.000000000000000e+00 1 1 1
2 2 -4.860249842674776e-01 -3.518234140414736e-01  3.897628551303122e-01 1 1 1
3 3 -1.874009511073395e-01 -5.699832309147915e-01  7.795257102606244e-01 1 1 1
4 4  1.824198365552941e-01 -5.715968887521518e-01  1.169288565390937e+00 1 1 1
5 1  4.829362784135484e-01 -3.560513319622209e-01  1.559051420521249e+00 1 1 1
6 2  5.999771538385027e-01 -5.235921299024461e-03  1.948814275651561e+00 1 1 1
7 3  4.890766774371325e-01  3.475687034056071e-01  2.338577130781873e+00 1 1 1
8 4  1.923677943514057e-01  5.683261666476170e-01  2.728339985912185e+00 1 1 1
9 1 -1.923677943514057e-01 -5.683261666476170e-01  2.728339985912185e+00 2 1 1
10 2 -4.890766774371324e-01 -3.475687034056071e-01  2.338577130781873e+00 2 1 1
11 3 -5.999771538385025e-01  5.235921299024461e-03  1.948814275651561e+00 2 1 1
12 4 -4.829362784135481e-01  3.560513319622207e-01  1.559051420521249e+00 2 1 1
13 1 -1.824198365552940e-01  5.715968887521514e-01  1.169288565390936e+00 2 1 1
14 2  1.874009511073395e-01  5.699832309147912e-01  7.795257102606241e-01 2 1 1
15 3  4.860249842674773e-01  3.518234140414733e-01  3.897628551303119e-01 2 1 1
16 4  5.999999999999995e-01 -3.330669073875470e-17 -3.330669073875470e-16 2 1 1

# Atom-ID, translational velocity, angular momentum
Velocities

1  0.000000000000000e+00  0.000000000000000e+00  0.000000000000000e+00  0.000000000000000e+00  0.000000000000000e+00  0.000000000000000e+00
2  0.000000000000000e+00  0.000000000000000e+00  0.000000000000000e+00  0.000000000000000e+00  0.000000000000000e+00  0.000000000000000e+00
3  0.000000000000000e+00  0.000000000000000e+00  0.000000000000000e+00  0.000000000000000e+00  0.000000000000000e+00  0.000000000000000e+00
4  0.000000000000000e+00  0.000000000000000e+00  0.000000000000000e+00  0.000000000000000e+00  0.000000000000000e+00  0.000000000000000e+00
5  0.000000000000000e+00  0.000000000000000e+00  0.000000000000000e+00  0.000000000000000e+00  0.000000000000000e+00  0.000000000000000e+00
6  0.000000000000000e+00  0.000000000000000e+00  0.000000000000000e+00  0.000000000000000e+00  0.000000000000000e+00  0.000000000000000e+00
7  0.000000000000000e+00  0.000000000000000e+00  0.000000000000000e+00  0.000000000000000e+00  0.000000000000000e+00  0.000000000000000e+00
8  0.000000000000000e+00  0.000000000000000e+00  0.000000000000000e+00  0.000000000000000e+00  0.000000000000000e+00  0.000000000000000e+00
9  0.000000000000000e+00  0.000000000000000e+00  0.000000000000000e+00  0.000000000000000e+00  0.000000000000000e+00  0.000000000000000e+00
10  0.000000000000000e+00  0.000000000000000e+00  0.000000000000000e+00  0.000000000000000e+00  0.000000000000000e+00  0.000000000000000e+00
11  0.000000000000000e+00  0.000000000000000e+00  0.000000000000000e+00  0.000000000000000e+00  0.000000000000000e+00  0.000000000000000e+00
12  0.000000000000000e+00  0.000000000000000e+00  0.000000000000000e+00  0.000000000000000e+00  0.000000000000000e+00  0.000000000000000e+00
13  0.000000000000000e+00  0.000000000000000e+00  0.000000000000000e+00  0.000000000000000e+00  0.000000000000000e+00  0.000000000000000e+00
14  0.000000000000000e+00  0.000000000000000e+00  0.000000000000000e+00  0.000000000000000e+00  0.000000000000000e+00  0.000000000000000e+00
15  0.000000000000000e+00  0.000000000000000e+00  0.000000000000000e+00  0.000000000000000e+00  0.000000000000000e+00  0.000000000000000e+00
16  0.000000000000000e+00  0.000000000000000e+00  0.000000000000000e+00  0.000000000000000e+00  0.000000000000000e+00  0.000000000000000e+00

# Atom-ID, shape, quaternion
Ellipsoids

1  1.173984503142341e+00  1.173984503142341e+00  1.173984503142341e+00  1.000000000000000e+00  0.000000000000000e+00  0.000000000000000e+00  0.000000000000000e+00
2  1.173984503142341e+00  1.173984503142341e+00  1.173984503142341e+00  9.513258223252946e-01  0.000000000000000e+00  0.000000000000000e+00  3.081869234362515e-01
3  1.173984503142341e+00  1.173984503142341e+00  1.173984503142341e+00  8.100416404457962e-01  0.000000000000000e+00  0.000000000000000e+00  5.863723567357894e-01
4  1.173984503142341e+00  1.173984503142341e+00  1.173984503142341e+00  5.899012371043606e-01  0.000000000000000e+00  0.000000000000000e+00  8.074754054847398e-01
5  1.173984503142341e+00  1.173984503142341e+00  1.173984503142341e+00  3.123349185122326e-01  0.000000000000000e+00  0.000000000000000e+00  9.499720515246527e-01
6  1.173984503142341e+00  1.173984503142341e+00  1.173984503142341e+00  4.363309284746654e-03  0.000000000000000e+00  0.000000000000000e+00  9.999904807207346e-01
7  1.173984503142341e+00  1.173984503142341e+00  1.173984503142341e+00 -3.040330609254902e-01  0.000000000000000e+00  0.000000000000000e+00  9.526614812535865e-01
8  1.173984503142341e+00  1.173984503142341e+00  1.173984503142341e+00  5.828323126827837e-01  0.000000000000000e+00  0.000000000000000e+00 -8.125924533816677e-01
9  1.173984503142341e+00  1.173984503142341e+00  1.173984503142341e+00  0.000000000000000e+00  8.125924533816681e-01  5.828323126827832e-01 -0.000000000000000e+00
10  1.173984503142341e+00  1.173984503142341e+00  1.173984503142341e+00  0.000000000000000e+00  9.526614812535864e-01  3.040330609254902e-01  0.000000000000000e+00
11  1.173984503142341e+00  1.173984503142341e+00  1.173984503142341e+00  0.000000000000000e+00  9.999904807207346e-01 -4.363309284746654e-03  0.000000000000000e+00
12  1.173984503142341e+00  1.173984503142341e+00  1.173984503142341e+00  0.000000000000000e+00  9.499720515246526e-01 -3.123349185122325e-01  0.000000000000000e+00
13  1.173984503142341e+00  1.173984503142341e+00  1.173984503142341e+00  0.000000000000000e+00  8.074754054847402e-01 -5.899012371043603e-01  0.000000000000000e+00
14  1.173984503142341e+00  1.173984503142341e+00  1.173984503142341e+00  0.000000000000000e+00  5.863723567357898e-01 -8.100416404457959e-01  0.000000000000000e+00
15  1.173984503142341e+00  1.173984503142341e+00  1.173984503142341e+00 -0.000000000000000e+00 -3.081869234362514e-01  9.513258223252948e-01  0.000000000000000e+00
16  1.173984503142341e+00  1.173984503142341e+00  1.173984503142341e+00 -0.000000000000000e+00  2.775557561562893e-17  1.000000000000000e+00 -0.000000000000000e+00

# Bond topology
Bonds

1  1  1  2
2  1  2  3
3  1  3  4
4  1  4  5
5  1  5  6
6  1  6  7
7  1  7  8
8  1  9  10
9  1  10  11
10  1  11  12
11  1  13  14
12  1  14  15
13  1  15  16
