LAMMPS (30 Jun 2020)
variable number	equal 2
variable ofreq	equal 1000
variable efreq	equal 1000
variable T      equal 0.1

units lj

dimension 3

newton off

boundary  p p p

atom_style hybrid bond ellipsoid
WARNING: Atom_style hybrid defines both pertype and peratom masses - both must be set, only peratom masses will be used (../atom_vec_hybrid.cpp:156)
atom_modify sort 0 1.0

# Pair interactions require lists of neighbours to be calculated
neighbor 1.0 bin
neigh_modify every 1 delay 0 check yes

read_data data.duplex2
  orthogonal box = (-20 -20 -20) to (20 20 20)
  1 by 2 by 2 MPI processor grid
  reading atoms ...
  16 atoms
  reading velocities ...
  16 velocities
  16 ellipsoids
  scanning bonds ...
  2 = max bonds/atom
  reading bonds ...
  13 bonds
  2 = max # of 1-2 neighbors
  2 = max # of 1-3 neighbors
  4 = max # of 1-4 neighbors
  6 = max # of special neighbors
  special bonds CPU = 0.001 seconds
  read_data CPU = 0.004 seconds

set atom * mass 3.1575
  16 settings made for mass

group all type 1 4
16 atoms in group all

# oxDNA2 bond interactions - FENE backbone
bond_style oxdna2/fene
bond_coeff * 2.0 0.25 0.7564
special_bonds lj 0 1 1
  2 = max # of 1-2 neighbors
  2 = max # of 1-3 neighbors
  4 = max # of 1-4 neighbors
  6 = max # of special neighbors
  special bonds CPU = 0.000 seconds

# oxDNA2 pair interactions
pair_style hybrid/overlay oxdna2/excv oxdna2/stk oxdna2/hbond oxdna2/xstk oxdna2/coaxstk oxdna2/dh
pair_coeff * * oxdna2/excv    2.0 0.7 0.675 2.0 0.515 0.5 2.0 0.33 0.32
pair_coeff * * oxdna2/stk     seqav ${T} 1.3523 2.6717 6.0 0.4 0.9 0.32 0.75 1.3 0 0.8 0.9 0 0.95 0.9 0 0.95 2.0 0.65 2.0 0.65
pair_coeff * * oxdna2/stk     seqav 0.1 1.3523 2.6717 6.0 0.4 0.9 0.32 0.75 1.3 0 0.8 0.9 0 0.95 0.9 0 0.95 2.0 0.65 2.0 0.65
pair_coeff * * oxdna2/hbond   seqav 0.0 8.0 0.4 0.75 0.34 0.7 1.5 0 0.7 1.5 0 0.7 1.5 0 0.7 0.46 3.141592653589793 0.7 4.0 1.5707963267948966 0.45 4.0 1.5707963267948966 0.45
pair_coeff 1 4 oxdna2/hbond   seqav 1.0678 8.0 0.4 0.75 0.34 0.7 1.5 0 0.7 1.5 0 0.7 1.5 0 0.7 0.46 3.141592653589793 0.7 4.0 1.5707963267948966 0.45 4.0 1.5707963267948966 0.45
pair_coeff 2 3 oxdna2/hbond   seqav 1.0678 8.0 0.4 0.75 0.34 0.7 1.5 0 0.7 1.5 0 0.7 1.5 0 0.7 0.46 3.141592653589793 0.7 4.0 1.5707963267948966 0.45 4.0 1.5707963267948966 0.45
pair_coeff * * oxdna2/xstk    47.5 0.575 0.675 0.495 0.655 2.25 0.791592653589793 0.58 1.7 1.0 0.68 1.7 1.0 0.68 1.5 0 0.65 1.7 0.875 0.68 1.7 0.875 0.68
pair_coeff * * oxdna2/coaxstk 58.5 0.4 0.6 0.22 0.58 2.0 2.891592653589793 0.65 1.3 0 0.8 0.9 0 0.95 0.9 0 0.95 40.0 3.116592653589793
pair_coeff * * oxdna2/dh      ${T} 1.0 0.815
pair_coeff * * oxdna2/dh      0.1 1.0 0.815

# NVE ensemble
#fix 1 all nve/dot
fix 1 all nve/dotc/langevin ${T} ${T} 0.03 457145 angmom 10
fix 1 all nve/dotc/langevin 0.1 ${T} 0.03 457145 angmom 10
fix 1 all nve/dotc/langevin 0.1 0.1 0.03 457145 angmom 10
#fix 1 all nve/asphere
#fix 2 all langevin ${T} ${T} 0.03 457145 angmom 10

timestep 1e-5

#comm_style tiled
#fix 3 all balance 10000 1.1 rcb
comm_modify cutoff 2.5

#compute mol all chunk/atom molecule
#compute mychunk all vcm/chunk mol
#fix 4 all ave/time 10000 1 10000 c_mychunk[1] c_mychunk[2] c_mychunk[3] file vcm.txt mode vector

#dump pos all xyz ${ofreq} traj.${number}.xyz

#compute quat all property/atom quatw quati quatj quatk
#dump quat all custom ${ofreq} quat.${number}.txt id c_quat[1] c_quat[2] c_quat[3] c_quat[4]
#dump_modify quat sort id
#dump_modify quat format line "%d  %13.6le  %13.6le  %13.6le  %13.6le"

compute erot all erotate/asphere
compute ekin all ke
compute epot all pe
variable erot equal c_erot
variable ekin equal c_ekin
variable epot equal c_epot
variable etot equal c_erot+c_ekin+c_epot
fix 5 all print ${efreq} "$(step)  ekin = ${ekin} |  erot = ${erot} | epot = ${epot} | etot = ${etot}" screen yes
fix 5 all print 1000 "$(step)  ekin = ${ekin} |  erot = ${erot} | epot = ${epot} | etot = ${etot}" screen yes

#dump out all custom ${ofreq} out.${number}.txt id x y z vx vy vz fx fy fz tqx tqy tqz
#dump_modify out sort id
#dump_modify out format line "%d   %13.6le %13.6le %13.6le  %13.6le %13.6le %13.6le  %13.6le %13.6le %13.6le  %13.6le %13.6le %13.6le"

run 1000000
Neighbor list info ...
  update every 1 steps, delay 0 steps, check yes
  max neighbors/atom: 2000, page size: 100000
  master list distance cutoff = 2.6274048
  ghost atom cutoff = 2.6274048
  binsize = 1.3137024, bins = 31 31 31
  6 neighbor lists, perpetual/occasional/extra = 6 0 0
  (1) pair oxdna2/excv, perpetual
      attributes: half, newton off
      pair build: half/bin/newtoff
      stencil: half/bin/3d/newtoff
      bin: standard
  (2) pair oxdna2/stk, perpetual, copy from (1)
      attributes: half, newton off
      pair build: copy
      stencil: none
      bin: none
  (3) pair oxdna2/hbond, perpetual, copy from (1)
      attributes: half, newton off
      pair build: copy
      stencil: none
      bin: none
  (4) pair oxdna2/xstk, perpetual, copy from (1)
      attributes: half, newton off
      pair build: copy
      stencil: none
      bin: none
  (5) pair oxdna2/coaxstk, perpetual, copy from (1)
      attributes: half, newton off
      pair build: copy
      stencil: none
      bin: none
  (6) pair oxdna2/dh, perpetual, copy from (1)
      attributes: half, newton off
      pair build: copy
      stencil: none
      bin: none
WARNING: Communication cutoff adjusted to 2.627404783947349 (../comm.cpp:690)
0  ekin = 0 |  erot = 0 | epot = -24.419271289937 | etot = -24.419271289937
Per MPI rank memory allocation (min/avg/max) = 8.028 | 8.085 | 8.143 Mbytes
Step Temp E_pair E_mol TotEng Press 
       0            0   -1.5358787 0.0096742456   -1.5262045 1.0127369e-05 
1000  ekin = 1.34554291364716 |  erot = 2.30525041754444 | epot = -24.3924150888896 | etot = -20.741621757698
2000  ekin = 2.15972469811184 |  erot = 2.1628675965276 | epot = -24.3548203354875 | etot = -20.0322280408481
3000  ekin = 3.26433550542939 |  erot = 2.76107866472087 | epot = -24.2947953202752 | etot = -18.269381150125
4000  ekin = 1.9203212531997 |  erot = 2.133394384253 | epot = -24.234098584123 | etot = -20.1803829466703
5000  ekin = 1.35481075814721 |  erot = 2.00854026688447 | epot = -24.1768963201279 | etot = -20.8135452950963
6000  ekin = 2.18974627635306 |  erot = 1.73271671162436 | epot = -24.1096616118305 | etot = -20.1871986238531
7000  ekin = 2.65472853187395 |  erot = 1.73258720631297 | epot = -24.0561118130561 | etot = -19.6687960748691
8000  ekin = 2.51192327964357 |  erot = 2.34132844779952 | epot = -23.9708695663488 | etot = -19.1176178389058
9000  ekin = 2.24554900802464 |  erot = 2.0522939078286 | epot = -23.874757758319 | etot = -19.5769148424658
10000  ekin = 2.36227360512089 |  erot = 1.80185994066737 | epot = -23.7793375260418 | etot = -19.6152039802535
11000  ekin = 2.03264234985168 |  erot = 1.68707706801736 | epot = -23.7396221351636 | etot = -20.0199027172945
12000  ekin = 2.66329111303325 |  erot = 2.49804687909781 | epot = -23.7366995564469 | etot = -18.5753615643158
13000  ekin = 1.89677055811531 |  erot = 2.34624821263612 | epot = -23.6591067615901 | etot = -19.4160879908387
14000  ekin = 1.91279445145792 |  erot = 2.13129118502405 | epot = -23.6468743458148 | etot = -19.6027887093328
15000  ekin = 2.41876331112169 |  erot = 2.07362128417238 | epot = -23.5767792498568 | etot = -19.0843946545628
16000  ekin = 2.76615310647131 |  erot = 1.19495009524763 | epot = -23.4862363509196 | etot = -19.5251331492006
17000  ekin = 2.45632569069911 |  erot = 2.37627186077148 | epot = -23.500787861849 | etot = -18.6681903103784
18000  ekin = 2.18348858414473 |  erot = 2.46933014500077 | epot = -23.5223047738331 | etot = -18.8694860446876
19000  ekin = 2.2074746303434 |  erot = 2.45349372324724 | epot = -23.4618353655003 | etot = -18.8008670119096
20000  ekin = 2.06964129991908 |  erot = 1.80832666230414 | epot = -23.4930879797962 | etot = -19.615120017573
21000  ekin = 2.26572194434983 |  erot = 2.76680470094409 | epot = -23.5023070260553 | etot = -18.4697803807614
22000  ekin = 2.69295306575102 |  erot = 1.86984875574017 | epot = -23.4463493063166 | etot = -18.8835474848254
23000  ekin = 1.99930153068661 |  erot = 2.27735339437466 | epot = -23.3493214662276 | etot = -19.0726665411663
24000  ekin = 2.20679650752062 |  erot = 2.98147599881873 | epot = -23.273517698415 | etot = -18.0852451920757
25000  ekin = 2.28085541692287 |  erot = 2.99165466281124 | epot = -23.2072100929465 | etot = -17.9347000132124
26000  ekin = 1.9530124305314 |  erot = 2.81680126246586 | epot = -23.0636678500934 | etot = -18.2938541570962
27000  ekin = 1.96948983508855 |  erot = 2.69266617300682 | epot = -22.9870601707012 | etot = -18.3249041626058
28000  ekin = 2.02061868464074 |  erot = 2.37038530969117 | epot = -22.9383598315964 | etot = -18.5473558372645
29000  ekin = 2.51387846128098 |  erot = 2.0265039132053 | epot = -22.888959880923 | etot = -18.3485775064367
30000  ekin = 1.95889729807242 |  erot = 2.1170713545074 | epot = -22.7896312662562 | etot = -18.7136626136764
31000  ekin = 1.81775203419098 |  erot = 2.326796842935 | epot = -22.7561124537192 | etot = -18.6115635765932
32000  ekin = 1.87947265787065 |  erot = 2.0009346769358 | epot = -22.8533570528062 | etot = -18.9729497179997
33000  ekin = 1.77435214491107 |  erot = 1.82826131933673 | epot = -22.8632647352802 | etot = -19.2606512710324
34000  ekin = 2.27098719472917 |  erot = 3.11275511420439 | epot = -22.9527052663856 | etot = -17.5689629574521
35000  ekin = 2.88921171289845 |  erot = 1.82538384737236 | epot = -23.0316569923336 | etot = -18.3170614320628
36000  ekin = 2.40471013682393 |  erot = 2.59817148723643 | epot = -23.1277697887139 | etot = -18.1248881646536
37000  ekin = 2.23499312928139 |  erot = 1.74662115184433 | epot = -23.1542126827759 | etot = -19.1725984016501
38000  ekin = 2.13875747252781 |  erot = 3.07733571118648 | epot = -23.0916051545794 | etot = -17.8755119708651
39000  ekin = 2.08901196654187 |  erot = 2.81975762995374 | epot = -23.0796147800379 | etot = -18.1708451835423
40000  ekin = 2.95155149177527 |  erot = 2.19459039829335 | epot = -23.141500571363 | etot = -17.9953586812944
41000  ekin = 2.49235596566196 |  erot = 3.45295839915509 | epot = -23.115526015811 | etot = -17.1702116509939
42000  ekin = 2.58401591894786 |  erot = 3.0976076851145 | epot = -23.0181097727229 | etot = -17.3364861686605
43000  ekin = 2.17593293893362 |  erot = 2.65403748718844 | epot = -22.8962504257564 | etot = -18.0662799996343
44000  ekin = 2.34068034665607 |  erot = 3.294882771572 | epot = -22.8143844644656 | etot = -17.1788213462375
45000  ekin = 1.87200112415306 |  erot = 3.49863859200052 | epot = -22.6989374637074 | etot = -17.3282977475538
46000  ekin = 2.60943921333194 |  erot = 2.23170007842725 | epot = -22.5884035122493 | etot = -17.7472642204901
47000  ekin = 1.89594756436345 |  erot = 3.4002587629387 | epot = -22.4938472923117 | etot = -17.1976409650096
48000  ekin = 2.49339593279701 |  erot = 2.5104785556399 | epot = -22.5372062210456 | etot = -17.5333317326087
49000  ekin = 3.2041407554348 |  erot = 2.17669016194865 | epot = -22.5688036423094 | etot = -17.1879727249259
50000  ekin = 2.93024070185999 |  erot = 1.55416219951966 | epot = -22.6087903765995 | etot = -18.1243874752199
51000  ekin = 2.8585759501124 |  erot = 2.69193261792584 | epot = -22.6228353253324 | etot = -17.0723267572942
52000  ekin = 2.3079418078843 |  erot = 1.84260643306147 | epot = -22.6230480697441 | etot = -18.4724998287983
53000  ekin = 3.1803685919024 |  erot = 1.67451273370508 | epot = -22.6834814309773 | etot = -17.8286001053698
54000  ekin = 2.6151376953128 |  erot = 1.96091197875017 | epot = -22.7484551927013 | etot = -18.1724055186384
55000  ekin = 3.1639577845443 |  erot = 2.86286196426802 | epot = -22.7917236196438 | etot = -16.7649038708315
56000  ekin = 2.52994034294643 |  erot = 3.05544364249365 | epot = -22.7651844773103 | etot = -17.1798004918702
57000  ekin = 2.40889871674401 |  erot = 3.4525690879514 | epot = -22.7113139496974 | etot = -16.849846145002
58000  ekin = 1.9363727739706 |  erot = 2.52762778976703 | epot = -22.6468058892224 | etot = -18.1828053254848
59000  ekin = 2.55505415922972 |  erot = 3.52385701835933 | epot = -22.6037443858311 | etot = -16.5248332082421
60000  ekin = 2.80945252332612 |  erot = 2.88606183204889 | epot = -22.5227874119079 | etot = -16.8272730565329
61000  ekin = 2.69750183117722 |  erot = 2.55373633146433 | epot = -22.4306469225965 | etot = -17.1794087599549
62000  ekin = 2.74494354639602 |  erot = 2.23074517653766 | epot = -22.3675792436719 | etot = -17.3918905207383
63000  ekin = 2.66335513293138 |  erot = 2.46159865380861 | epot = -22.3527707145482 | etot = -17.2278169278082
64000  ekin = 2.12832019835147 |  erot = 2.78772793164811 | epot = -22.3048690294469 | etot = -17.3888208994473
65000  ekin = 1.88429801911228 |  erot = 2.70719871478483 | epot = -22.3342736701749 | etot = -17.7427769362778
66000  ekin = 2.77106091929282 |  erot = 1.94126620531915 | epot = -22.338257942783 | etot = -17.625930818171
67000  ekin = 2.53561386235746 |  erot = 2.45901054739082 | epot = -22.3780784743028 | etot = -17.3834540645545
68000  ekin = 2.9678648663671 |  erot = 1.95502711706149 | epot = -22.4420512915713 | etot = -17.5191593081427
69000  ekin = 2.61501630036274 |  erot = 2.2429513448561 | epot = -22.3607835407198 | etot = -17.502815895501
70000  ekin = 2.41492598760663 |  erot = 2.80885610657203 | epot = -22.2905725083407 | etot = -17.066790414162
71000  ekin = 2.65062529541957 |  erot = 2.88868401392431 | epot = -22.2951070257787 | etot = -16.7557977164349
72000  ekin = 2.93273744051009 |  erot = 2.82552508252073 | epot = -22.4016757930526 | etot = -16.6434132700218
73000  ekin = 2.18922665452238 |  erot = 3.03559183860538 | epot = -22.4509770394845 | etot = -17.2261585463568
74000  ekin = 2.16074843540078 |  erot = 2.83668185121384 | epot = -22.4374624006144 | etot = -17.4400321139998
75000  ekin = 1.52329638473031 |  erot = 1.91520672578907 | epot = -22.5623153080324 | etot = -19.123812197513
76000  ekin = 1.89250964827726 |  erot = 2.83358650938892 | epot = -22.6698326202442 | etot = -17.943736462578
77000  ekin = 2.82066630152179 |  erot = 3.19779433197964 | epot = -22.7402096770599 | etot = -16.7217490435584
78000  ekin = 2.42603824235662 |  erot = 2.82319136688957 | epot = -22.7334053911689 | etot = -17.4841757819227
79000  ekin = 2.1571494738421 |  erot = 1.67722302323495 | epot = -22.7616861631187 | etot = -18.9273136660417
80000  ekin = 2.3760789053548 |  erot = 2.58372913427157 | epot = -22.6889139769023 | etot = -17.729105937276
81000  ekin = 2.73468961033338 |  erot = 1.92748741387075 | epot = -22.6388260929897 | etot = -17.9766490687856
82000  ekin = 1.90565370838817 |  erot = 1.71715050303634 | epot = -22.5547415381056 | etot = -18.9319373266811
83000  ekin = 1.63698443616271 |  erot = 1.88092293220519 | epot = -22.4792739412377 | etot = -18.9613665728698
84000  ekin = 1.65571812906993 |  erot = 2.10290321918187 | epot = -22.4031972735297 | etot = -18.6445759252779
85000  ekin = 2.40863681830855 |  erot = 2.04741059095057 | epot = -22.321221903585 | etot = -17.8651744943259
86000  ekin = 2.50560893716733 |  erot = 1.80624308622105 | epot = -22.3789065133115 | etot = -18.0670544899231
87000  ekin = 2.13576456371582 |  erot = 1.97115993651017 | epot = -22.4335511413526 | etot = -18.3266266411266
88000  ekin = 1.74897318407528 |  erot = 2.37233945814529 | epot = -22.4142028246849 | etot = -18.2928901824643
89000  ekin = 1.85559683216276 |  erot = 3.29559734355419 | epot = -22.4519626048678 | etot = -17.3007684291509
90000  ekin = 2.22181579992018 |  erot = 2.33948779846394 | epot = -22.5289826258985 | etot = -17.9676790275144
91000  ekin = 2.40596540834273 |  erot = 3.11545124680293 | epot = -22.4975752624166 | etot = -16.9761586072709
92000  ekin = 2.6773157744569 |  erot = 3.00279439655287 | epot = -22.4834827179575 | etot = -16.8033725469477
93000  ekin = 3.0427813598525 |  erot = 3.03722776158512 | epot = -22.4121259471479 | etot = -16.3321168257103
94000  ekin = 3.20507830840023 |  erot = 1.86440047317737 | epot = -22.5079833350679 | etot = -17.4385045534903
95000  ekin = 3.4839955648833 |  erot = 2.87934575393031 | epot = -22.5675869456428 | etot = -16.2042456268292
96000  ekin = 2.8873631080951 |  erot = 2.38554372248299 | epot = -22.5453635283434 | etot = -17.2724566977653
97000  ekin = 1.92899149350272 |  erot = 2.09886479790579 | epot = -22.5208382020819 | etot = -18.4929819106733
98000  ekin = 2.21420868967462 |  erot = 3.66528252896999 | epot = -22.4426781355708 | etot = -16.5631869169262
99000  ekin = 1.98238051924192 |  erot = 2.77358159119584 | epot = -22.3579409961467 | etot = -17.6019788857089
100000  ekin = 1.80278462349605 |  erot = 2.65457154995031 | epot = -22.2926900475079 | etot = -17.8353338740616
101000  ekin = 2.14042196591663 |  erot = 2.38610603254675 | epot = -22.2789462117326 | etot = -17.7524182132692
102000  ekin = 1.54923043145398 |  erot = 2.30485616158943 | epot = -22.27519637673 | etot = -18.4211097836866
103000  ekin = 1.66618004359352 |  erot = 2.82192794888076 | epot = -22.3284746660305 | etot = -17.8403666735562
104000  ekin = 1.8840390723585 |  erot = 3.37607054348826 | epot = -22.4068162519772 | etot = -17.1467066361304
105000  ekin = 2.08970806137592 |  erot = 2.01278733908098 | epot = -22.450865561264 | etot = -18.3483701608071
106000  ekin = 2.87186619049714 |  erot = 1.95029477179727 | epot = -22.46479383237 | etot = -17.6426328700756
107000  ekin = 2.28516102595382 |  erot = 1.55115426482475 | epot = -22.420448971169 | etot = -18.5841336803904
108000  ekin = 2.4440862469061 |  erot = 1.71323205815914 | epot = -22.4934628688132 | etot = -18.336144563748
109000  ekin = 2.33376449416318 |  erot = 2.92962175925398 | epot = -22.4792154966925 | etot = -17.2158292432753
110000  ekin = 2.7815613020599 |  erot = 2.36483486971455 | epot = -22.4384263756784 | etot = -17.2920302039039
111000  ekin = 2.32472851347632 |  erot = 2.09554567134105 | epot = -22.3756448055424 | etot = -17.955370620725
112000  ekin = 2.91126509700492 |  erot = 1.8278781240038 | epot = -22.2278235937356 | etot = -17.4886803727269
113000  ekin = 2.82522334536064 |  erot = 1.67936756938672 | epot = -22.2030639545535 | etot = -17.6984730398062
114000  ekin = 3.42964629994365 |  erot = 2.67287683722422 | epot = -22.3274259722919 | etot = -16.224902835124
115000  ekin = 3.0542495603856 |  erot = 1.72370226125566 | epot = -22.3530732875163 | etot = -17.575121465875
116000  ekin = 3.19934505541307 |  erot = 3.20304074939432 | epot = -22.4112422200445 | etot = -16.0088564152371
117000  ekin = 3.03942349360439 |  erot = 2.40720645224432 | epot = -22.3646852618703 | etot = -16.9180553160216
118000  ekin = 3.21704225120818 |  erot = 1.46425401673931 | epot = -22.2864155249032 | etot = -17.6051192569557
119000  ekin = 2.33989996826882 |  erot = 3.07668030790319 | epot = -22.2283862990246 | etot = -16.8118060228526
120000  ekin = 1.93772242476321 |  erot = 2.20130457047854 | epot = -22.1620199969907 | etot = -18.022993001749
121000  ekin = 1.94013950333198 |  erot = 3.08987281123525 | epot = -22.1565667857742 | etot = -17.126554471207
122000  ekin = 1.68663003450368 |  erot = 1.73461876453175 | epot = -22.2565715090021 | etot = -18.8353227099667
123000  ekin = 1.72841976989173 |  erot = 2.32750063038672 | epot = -22.3665160016578 | etot = -18.3105956013793
124000  ekin = 2.73468934475335 |  erot = 1.93313584543739 | epot = -22.378088078826 | etot = -17.7102628886353
125000  ekin = 2.77507735763211 |  erot = 1.95244582221334 | epot = -22.3863676939847 | etot = -17.6588445141392
126000  ekin = 2.04549959008918 |  erot = 1.485897173428 | epot = -22.4226219879524 | etot = -18.8912252244352
127000  ekin = 1.86410777734907 |  erot = 1.58829497411524 | epot = -22.4027380289015 | etot = -18.9503352774372
128000  ekin = 1.63329448006254 |  erot = 1.88032753965974 | epot = -22.3918784566533 | etot = -18.8782564369311
129000  ekin = 2.51522192674941 |  erot = 2.38822614049102 | epot = -22.396225517968 | etot = -17.4927774507275
130000  ekin = 1.61191166117177 |  erot = 2.81688343133435 | epot = -22.341565060394 | etot = -17.9127699678878
131000  ekin = 2.29569747740708 |  erot = 2.2886876976091 | epot = -22.2184139794107 | etot = -17.6340288043945
132000  ekin = 2.97393694467802 |  erot = 2.3613525440602 | epot = -22.1410658382525 | etot = -16.8057763495143
133000  ekin = 2.01357676743257 |  erot = 2.125828419273 | epot = -22.1312019600638 | etot = -17.9917967733582
134000  ekin = 1.56048037412857 |  erot = 2.84208065022547 | epot = -22.0682869067536 | etot = -17.6657258823995
135000  ekin = 1.79811942319758 |  erot = 2.40075843487508 | epot = -22.0853555614258 | etot = -17.8864777033532
136000  ekin = 1.63631696233012 |  erot = 2.13166656554854 | epot = -22.0879615470249 | etot = -18.3199780191463
137000  ekin = 2.36040439516093 |  erot = 1.93785486632901 | epot = -22.1234845924018 | etot = -17.8252253309118
138000  ekin = 2.94591421775872 |  erot = 1.58866111192914 | epot = -22.1783168558241 | etot = -17.6437415261363
139000  ekin = 3.17560544591524 |  erot = 2.24933296614107 | epot = -22.2966418842012 | etot = -16.8717034721449
140000  ekin = 2.24781162873235 |  erot = 3.05934139328612 | epot = -22.4681108223249 | etot = -17.1609578003064
141000  ekin = 1.89078628042285 |  erot = 3.13246933186326 | epot = -22.730922227649 | etot = -17.7076666153629
142000  ekin = 2.51033894675651 |  erot = 2.4942894309123 | epot = -22.8404165502847 | etot = -17.8357881726159
143000  ekin = 2.40438807844298 |  erot = 2.71461817456284 | epot = -22.8207220890738 | etot = -17.7017158360679
144000  ekin = 1.9307425487964 |  erot = 2.67760329085926 | epot = -22.6973757396236 | etot = -18.0890298999679
145000  ekin = 1.82681171280412 |  erot = 1.73674169257736 | epot = -22.6628534675149 | etot = -19.0993000621335
146000  ekin = 2.42423538163981 |  erot = 2.0908776294658 | epot = -22.6072904345337 | etot = -18.0921774234281
147000  ekin = 1.44607209743073 |  erot = 1.8801263906251 | epot = -22.5001275476876 | etot = -19.1739290596318
148000  ekin = 1.9349809420382 |  erot = 2.57774390934154 | epot = -22.4721664357448 | etot = -17.9594415843651
149000  ekin = 2.02370265642699 |  erot = 3.3179576458013 | epot = -22.3745153112138 | etot = -17.0328550089855
150000  ekin = 2.48124469844233 |  erot = 2.68185291250579 | epot = -22.1950329772129 | etot = -17.0319353662648
151000  ekin = 2.76319440452884 |  erot = 1.87355938382631 | epot = -21.986630645846 | etot = -17.3498768574909
152000  ekin = 2.77453107952051 |  erot = 1.77016628972892 | epot = -21.7977108098427 | etot = -17.2530134405933
153000  ekin = 3.08827014622555 |  erot = 1.80976617511255 | epot = -21.6910123469878 | etot = -16.7929760256497
154000  ekin = 2.32051051770812 |  erot = 2.18004857730092 | epot = -21.6406733490634 | etot = -17.1401142540543
155000  ekin = 1.95766873014157 |  erot = 2.67064554154836 | epot = -21.7315745360126 | etot = -17.1032602643227
156000  ekin = 2.69830438989808 |  erot = 2.24987636164771 | epot = -21.7962907570244 | etot = -16.8481100054786
157000  ekin = 3.89340900899948 |  erot = 2.73733315325155 | epot = -21.8437967078712 | etot = -15.2130545456202
158000  ekin = 2.84737207100033 |  erot = 2.70157958556583 | epot = -21.878244439129 | etot = -16.3292927825628
159000  ekin = 3.1312088996125 |  erot = 2.65375527842548 | epot = -21.8350703791794 | etot = -16.0501062011414
160000  ekin = 2.54316260055464 |  erot = 3.27950281054041 | epot = -21.8888467298127 | etot = -16.0661813187176
161000  ekin = 2.49549109190181 |  erot = 2.45028506429479 | epot = -21.8585593359585 | etot = -16.9127831797619
162000  ekin = 3.05200272259994 |  erot = 2.59164651185653 | epot = -21.8439750046483 | etot = -16.2003257701918
163000  ekin = 3.30374280597553 |  erot = 2.24193960212662 | epot = -21.8717863279577 | etot = -16.3261039198555
164000  ekin = 3.53081155329031 |  erot = 2.22419322011391 | epot = -21.8162094860939 | etot = -16.0612047126897
165000  ekin = 2.48919804649027 |  erot = 2.59105984700639 | epot = -21.7395563276218 | etot = -16.6592984341251
166000  ekin = 2.14880495285182 |  erot = 3.05770380831398 | epot = -21.6850566092694 | etot = -16.4785478481036
167000  ekin = 2.78181890034675 |  erot = 2.90402826001928 | epot = -21.5971987360122 | etot = -15.9113515756462
168000  ekin = 1.74726050172142 |  erot = 2.76898886506121 | epot = -21.490566893224 | etot = -16.9743175264414
169000  ekin = 1.8134289785439 |  erot = 2.45780601602371 | epot = -21.4680710936728 | etot = -17.1968360991052
170000  ekin = 1.69364478039988 |  erot = 2.87928997590297 | epot = -21.4668806356843 | etot = -16.8939458793814
171000  ekin = 2.14879448642638 |  erot = 1.61442218455815 | epot = -21.3172106430715 | etot = -17.553993972087
172000  ekin = 1.68431962963431 |  erot = 2.36087816720612 | epot = -21.1539793618528 | etot = -17.1087815650124
173000  ekin = 2.05784071815669 |  erot = 2.17142592689102 | epot = -21.0926393885011 | etot = -16.8633727434534
174000  ekin = 2.49611606122761 |  erot = 3.09665692560806 | epot = -20.9460348670979 | etot = -15.3532618802622
175000  ekin = 2.61673440848865 |  erot = 2.88720331620426 | epot = -20.8525764091519 | etot = -15.348638684459
176000  ekin = 2.16190213742438 |  erot = 2.672518464664 | epot = -20.8442274508468 | etot = -16.0098068487584
177000  ekin = 2.83236394902013 |  erot = 2.81489135382763 | epot = -20.925759607446 | etot = -15.2785043045983
178000  ekin = 3.17804494293424 |  erot = 1.88346790512585 | epot = -21.0677853312893 | etot = -16.0062724832292
179000  ekin = 2.33267448424065 |  erot = 2.85731052069525 | epot = -21.1181390109479 | etot = -15.928154006012
180000  ekin = 2.39061531304011 |  erot = 2.93791308776 | epot = -21.1146449531392 | etot = -15.786116552339
181000  ekin = 2.79990361156737 |  erot = 3.28891520287386 | epot = -21.0834365456108 | etot = -14.9946177311695
182000  ekin = 3.02616507870526 |  erot = 2.3341432703009 | epot = -21.0600545808659 | etot = -15.6997462318597
183000  ekin = 2.45290144562467 |  erot = 2.21141617846262 | epot = -20.911866387917 | etot = -16.2475487638297
184000  ekin = 2.56560515060991 |  erot = 2.7739810551646 | epot = -20.6989716212004 | etot = -15.3593854154259
185000  ekin = 2.17586139274635 |  erot = 1.95913868179524 | epot = -20.5985322435751 | etot = -16.4635321690335
186000  ekin = 2.07303044902321 |  erot = 3.15122816264525 | epot = -20.4965070011281 | etot = -15.2722483894597
187000  ekin = 2.44319481307615 |  erot = 1.92784212082443 | epot = -20.5124982035642 | etot = -16.1414612696636
188000  ekin = 2.28870879542405 |  erot = 2.8871121346017 | epot = -20.6323506293031 | etot = -15.4565296992773
189000  ekin = 1.68047280237829 |  erot = 3.05535775765803 | epot = -20.6378101864803 | etot = -15.901979626444
190000  ekin = 1.97184665786397 |  erot = 2.95271452778009 | epot = -20.6376534135265 | etot = -15.7130922278825
191000  ekin = 2.30626539196432 |  erot = 2.64854814117512 | epot = -20.6037323569656 | etot = -15.6489188238262
192000  ekin = 3.54976671698926 |  erot = 2.91090725702116 | epot = -20.5525508832509 | etot = -14.0918769092405
193000  ekin = 2.63938438600422 |  erot = 3.14409581682352 | epot = -20.5892132844066 | etot = -14.8057330815789
194000  ekin = 2.67903757365037 |  erot = 2.30768318132376 | epot = -20.4753987179501 | etot = -15.488677962976
195000  ekin = 1.89257615363314 |  erot = 2.64508051866103 | epot = -20.4197880125065 | etot = -15.8821313402123
196000  ekin = 2.29151017050607 |  erot = 2.32636787964875 | epot = -20.4440761857987 | etot = -15.8261981356438
197000  ekin = 2.48344018982905 |  erot = 2.5654400941963 | epot = -20.516126938087 | etot = -15.4672466540616
198000  ekin = 2.01386156849612 |  erot = 1.52779840514975 | epot = -20.537160292649 | etot = -16.9955003190031
199000  ekin = 1.50729232131931 |  erot = 2.19878124720506 | epot = -20.5584754599868 | etot = -16.8524018914625
200000  ekin = 1.64236235330806 |  erot = 2.46736341802316 | epot = -20.5387924113648 | etot = -16.4290666400336
201000  ekin = 2.627066472214 |  erot = 2.61321940355396 | epot = -20.6089911163939 | etot = -15.3687052406259
202000  ekin = 2.3129503751722 |  erot = 2.54874856259559 | epot = -20.6732219111123 | etot = -15.8115229733445
203000  ekin = 1.63961009223968 |  erot = 2.10835750593015 | epot = -20.7002051999767 | etot = -16.9522376018069
204000  ekin = 2.0558049009161 |  erot = 1.9161072834091 | epot = -20.8154459612946 | etot = -16.8435337769694
205000  ekin = 3.04603860094189 |  erot = 3.24233043438682 | epot = -20.9297600758299 | etot = -14.6413910405012
206000  ekin = 2.56775422508359 |  erot = 2.20992928465512 | epot = -21.0192669133083 | etot = -16.2415834035696
207000  ekin = 3.46597997409567 |  erot = 2.48427015330086 | epot = -21.151399026488 | etot = -15.2011488990915
208000  ekin = 2.51159742060494 |  erot = 2.22948191756652 | epot = -21.2942477400986 | etot = -16.5531684019271
209000  ekin = 3.78908644724162 |  erot = 2.17660742759513 | epot = -21.4499700336111 | etot = -15.4842761587743
210000  ekin = 3.03133642129733 |  erot = 2.21595982730352 | epot = -21.5648709610245 | etot = -16.3175747124237
211000  ekin = 1.63075564056512 |  erot = 2.12650387194819 | epot = -21.6099552204253 | etot = -17.852695707912
212000  ekin = 2.67694215598975 |  erot = 2.47186432110288 | epot = -21.8481434074352 | etot = -16.6993369303425
213000  ekin = 2.70688282449408 |  erot = 1.96666534072978 | epot = -22.1170796448084 | etot = -17.4435314795845
214000  ekin = 2.88993887341392 |  erot = 3.16392577542175 | epot = -22.1689844550676 | etot = -16.1151198062319
215000  ekin = 2.59587305508913 |  erot = 1.84775314628517 | epot = -22.0799472955547 | etot = -17.6363210941804
216000  ekin = 2.59710486720184 |  erot = 2.79170232594871 | epot = -22.123050002636 | etot = -16.7342428094855
217000  ekin = 2.50043297628753 |  erot = 1.89569946865143 | epot = -22.2232445790842 | etot = -17.8271121341452
218000  ekin = 2.42608117861514 |  erot = 2.42380011003409 | epot = -22.2442965405807 | etot = -17.3944152519314
219000  ekin = 2.31038806457503 |  erot = 2.64910389607574 | epot = -22.2862511100887 | etot = -17.3267591494379
220000  ekin = 1.69989575631519 |  erot = 2.34717348369245 | epot = -22.2936253261379 | etot = -18.2465560861303
221000  ekin = 2.0597604328414 |  erot = 2.4617257870959 | epot = -22.2693428350923 | etot = -17.747856615155
222000  ekin = 1.56778478035701 |  erot = 2.12765432596982 | epot = -22.1639011265163 | etot = -18.4684620201895
223000  ekin = 1.84761048251748 |  erot = 1.88006246465219 | epot = -22.0932628941083 | etot = -18.3655899469387
224000  ekin = 2.59436846043989 |  erot = 2.94714248251079 | epot = -22.1101977210218 | etot = -16.5686867780711
225000  ekin = 3.30446830369106 |  erot = 2.86069163428051 | epot = -22.1130335717329 | etot = -15.9478736337614
226000  ekin = 3.03148439961004 |  erot = 2.0857715841185 | epot = -22.1515480756285 | etot = -17.0342920918999
227000  ekin = 2.52473737037052 |  erot = 3.1515233037479 | epot = -22.2272979755786 | etot = -16.5510373014602
228000  ekin = 2.32773029487822 |  erot = 2.67887550863523 | epot = -22.3289846157579 | etot = -17.3223788122445
229000  ekin = 2.908632187774 |  erot = 2.89972099244786 | epot = -22.4590990625921 | etot = -16.6507458823703
230000  ekin = 2.30901008738396 |  erot = 3.48892218468534 | epot = -22.5811133380347 | etot = -16.7831810659654
231000  ekin = 2.09445974553368 |  erot = 3.10137653837903 | epot = -22.6273628788262 | etot = -17.4315265949135
232000  ekin = 2.11347252785341 |  erot = 1.99214840222577 | epot = -22.6148559367411 | etot = -18.5092350066619
233000  ekin = 2.31469131808302 |  erot = 2.82702779723524 | epot = -22.573468078272 | etot = -17.4317489629538
234000  ekin = 2.08691986790862 |  erot = 2.09006771152617 | epot = -22.5768924885421 | etot = -18.3999049091073
235000  ekin = 2.43602788311011 |  erot = 2.79756094595935 | epot = -22.5841308018507 | etot = -17.3505419727812
236000  ekin = 2.93232983655883 |  erot = 3.05945149934941 | epot = -22.5011281720659 | etot = -16.5093468361576
237000  ekin = 3.2236915032749 |  erot = 3.26810349425041 | epot = -22.3869936414794 | etot = -15.8951986439541
238000  ekin = 2.4674995923353 |  erot = 2.31630563795609 | epot = -22.3210409459325 | etot = -17.5372357156411
239000  ekin = 2.10887317283391 |  erot = 2.47562990634415 | epot = -22.3008221039947 | etot = -17.7163190248166
240000  ekin = 1.76092230208337 |  erot = 2.62077674301801 | epot = -22.2503883436816 | etot = -17.8686892985802
241000  ekin = 1.93966929781469 |  erot = 1.41063904300121 | epot = -22.2367099354244 | etot = -18.8864015946085
242000  ekin = 3.03220831764684 |  erot = 2.02809667614523 | epot = -22.2529237351145 | etot = -17.1926187413224
243000  ekin = 2.84396619393303 |  erot = 1.7910064306681 | epot = -22.2768680265869 | etot = -17.6418954019858
244000  ekin = 1.94630661585721 |  erot = 2.3722540427007 | epot = -22.2272698315535 | etot = -17.9087091729956
245000  ekin = 2.21268964174709 |  erot = 2.75899365563147 | epot = -22.1926413343766 | etot = -17.2209580369981
246000  ekin = 2.07547606015104 |  erot = 2.22089229769683 | epot = -22.119471822751 | etot = -17.8231034649032
247000  ekin = 1.58341517009487 |  erot = 3.06778333448391 | epot = -22.0033087190277 | etot = -17.3521102144489
248000  ekin = 2.1365138975527 |  erot = 3.53502738921423 | epot = -21.8495423719646 | etot = -16.1780010851977
249000  ekin = 2.17149547481658 |  erot = 3.29316066315612 | epot = -21.813933670884 | etot = -16.3492775329113
250000  ekin = 2.39365756609179 |  erot = 2.39580124119371 | epot = -21.767733544404 | etot = -16.9782747371185
251000  ekin = 1.2828204065042 |  erot = 2.24293125468609 | epot = -21.7209613352709 | etot = -18.1952096740806
252000  ekin = 1.76792385357404 |  erot = 2.13774913157991 | epot = -21.715743646839 | etot = -17.8100706616851
253000  ekin = 2.15844787240193 |  erot = 2.59910839140098 | epot = -21.6939194867273 | etot = -16.9363632229244
254000  ekin = 2.46988601582316 |  erot = 1.99393049965303 | epot = -21.6738244724958 | etot = -17.2100079570196
255000  ekin = 2.31014544453096 |  erot = 2.03140480982291 | epot = -21.6888108217887 | etot = -17.3472605674348
256000  ekin = 2.90570988017011 |  erot = 2.61779108741197 | epot = -21.6304219101588 | etot = -16.1069209425767
257000  ekin = 2.87227426842454 |  erot = 2.08598550349753 | epot = -21.5998306482426 | etot = -16.6415708763206
258000  ekin = 2.06365418401471 |  erot = 2.33103720962373 | epot = -21.5019981919811 | etot = -17.1073067983427
259000  ekin = 2.23106413601668 |  erot = 2.88992031738565 | epot = -21.4929751490585 | etot = -16.3719906956562
260000  ekin = 2.49064109684832 |  erot = 2.38083177290805 | epot = -21.4659963710747 | etot = -16.5945235013183
261000  ekin = 2.09140199827797 |  erot = 2.40209752473156 | epot = -21.4076397934529 | etot = -16.9141402704433
262000  ekin = 2.36091906713393 |  erot = 2.66652490187927 | epot = -21.359937125592 | etot = -16.3324931565788
263000  ekin = 2.2112169796158 |  erot = 2.73059503173094 | epot = -21.4187723839513 | etot = -16.4769603726046
264000  ekin = 2.28961718487933 |  erot = 2.75455515229635 | epot = -21.370776058554 | etot = -16.3266037213783
265000  ekin = 1.71596203334806 |  erot = 1.76104932073225 | epot = -21.2034176623527 | etot = -17.7264063082724
266000  ekin = 2.51424635704546 |  erot = 2.09488481391075 | epot = -21.0818656942669 | etot = -16.4727345233107
267000  ekin = 2.81393895925601 |  erot = 2.14232705328249 | epot = -21.1259701200622 | etot = -16.1697041075237
268000  ekin = 3.10191854871686 |  erot = 2.80451383793942 | epot = -21.0933882633302 | etot = -15.1869558766739
269000  ekin = 3.52550118014125 |  erot = 2.35973600910593 | epot = -21.0585255577117 | etot = -15.1732883684645
270000  ekin = 3.50731584216641 |  erot = 1.86855463358785 | epot = -21.093710946541 | etot = -15.7178404707867
271000  ekin = 3.5675331453682 |  erot = 2.0823459971557 | epot = -21.1717850302959 | etot = -15.521905887772
272000  ekin = 2.43382567191708 |  erot = 3.09591378837425 | epot = -21.2584464912718 | etot = -15.7287070309805
273000  ekin = 2.38177594135517 |  erot = 3.14028416008422 | epot = -21.3418702267283 | etot = -15.8198101252889
274000  ekin = 2.46408091312732 |  erot = 2.01407385193325 | epot = -21.3513679347441 | etot = -16.8732131696836
275000  ekin = 2.45653813926169 |  erot = 3.06780010281641 | epot = -21.3769507768006 | etot = -15.8526125347225
276000  ekin = 2.79508720985829 |  erot = 2.87011619931109 | epot = -21.3368600634473 | etot = -15.671656654278
277000  ekin = 2.21394865880382 |  erot = 2.19504097967885 | epot = -21.2606836087454 | etot = -16.8516939702627
278000  ekin = 2.75723780567064 |  erot = 3.25107227641375 | epot = -21.1755556732391 | etot = -15.1672455911547
279000  ekin = 2.50738352588257 |  erot = 1.80312795092014 | epot = -21.119949297869 | etot = -16.8094378210662
280000  ekin = 2.35419479075042 |  erot = 1.7566104351529 | epot = -21.0612865360217 | etot = -16.9504813101184
281000  ekin = 2.54091624756361 |  erot = 2.29354970120309 | epot = -21.0950091005497 | etot = -16.260543151783
282000  ekin = 2.99712896075656 |  erot = 2.42094408338315 | epot = -21.2220089565004 | etot = -15.8039359123607
283000  ekin = 2.56696810638689 |  erot = 2.10068113035835 | epot = -21.403161576838 | etot = -16.7355123400928
284000  ekin = 2.50149529685552 |  erot = 3.12894850572552 | epot = -21.5256946024495 | etot = -15.8952507998684
285000  ekin = 2.42104861452631 |  erot = 1.7773884250687 | epot = -21.6343236201921 | etot = -17.4358865805971
286000  ekin = 1.95703367775988 |  erot = 2.02947038358402 | epot = -21.6777606373854 | etot = -17.6912565760415
287000  ekin = 2.563069553437 |  erot = 2.57822888294094 | epot = -21.7096788412169 | etot = -16.568380404839
288000  ekin = 2.18408141161779 |  erot = 1.69724000161796 | epot = -21.6059228036045 | etot = -17.7246013903687
289000  ekin = 2.32975723406079 |  erot = 1.67288237726622 | epot = -21.4690249265465 | etot = -17.4663853152195
290000  ekin = 2.22773933829104 |  erot = 2.00568808096403 | epot = -21.3936416309443 | etot = -17.1602142116892
291000  ekin = 1.46140048209222 |  erot = 2.68187349132486 | epot = -21.320309661152 | etot = -17.177035687735
292000  ekin = 2.07752653885401 |  erot = 2.42042811850752 | epot = -21.2225710152689 | etot = -16.7246163579074
293000  ekin = 2.14598735312316 |  erot = 1.87232699516306 | epot = -21.1503112105659 | etot = -17.1319968622797
294000  ekin = 2.15249843510191 |  erot = 2.17548638187737 | epot = -21.1209057143321 | etot = -16.7929208973528
295000  ekin = 2.13417246804068 |  erot = 2.31578295657371 | epot = -21.023273761855 | etot = -16.5733183372406
296000  ekin = 1.52381700282724 |  erot = 2.92433462308731 | epot = -21.0839283123442 | etot = -16.6357766864297
297000  ekin = 2.45165869902145 |  erot = 2.17953392904489 | epot = -21.0491333291916 | etot = -16.4179407011252
298000  ekin = 1.77920935759369 |  erot = 2.01251348063453 | epot = -21.0971977522748 | etot = -17.3054749140465
299000  ekin = 1.87538650376616 |  erot = 1.65135039658661 | epot = -21.119277949862 | etot = -17.5925410495092
300000  ekin = 2.3167056751994 |  erot = 1.510902648654 | epot = -21.178913099451 | etot = -17.3513047755976
301000  ekin = 2.00567209290794 |  erot = 2.01270349508404 | epot = -21.2857234594098 | etot = -17.2673478714178
302000  ekin = 1.78598592595272 |  erot = 2.2354055492879 | epot = -21.3905601140029 | etot = -17.3691686387622
303000  ekin = 2.73278841880507 |  erot = 1.64856089415774 | epot = -21.3608973804115 | etot = -16.9795480674487
304000  ekin = 2.5809493598196 |  erot = 2.00558555026353 | epot = -21.400198286629 | etot = -16.8136633765459
305000  ekin = 2.43647384348742 |  erot = 2.28275438290435 | epot = -21.3863075230184 | etot = -16.6670792966266
306000  ekin = 2.14332823539982 |  erot = 2.4338461634411 | epot = -21.3233075109442 | etot = -16.7461331121032
307000  ekin = 3.21424191196812 |  erot = 3.27591538479569 | epot = -21.289790084126 | etot = -14.7996327873622
308000  ekin = 3.45838026839176 |  erot = 2.68116130354006 | epot = -21.3419403426811 | etot = -15.2023987707493
309000  ekin = 2.38041738433959 |  erot = 2.92081370932153 | epot = -21.4463399141034 | etot = -16.1451088204423
310000  ekin = 2.50977269558789 |  erot = 2.34824464102402 | epot = -21.4648074532888 | etot = -16.6067901166769
311000  ekin = 2.57488628819259 |  erot = 2.293754673538 | epot = -21.5151382155269 | etot = -16.6464972537963
312000  ekin = 2.09623150906876 |  erot = 2.93795890592974 | epot = -21.6260240426366 | etot = -16.5918336276381
313000  ekin = 1.8184499729194 |  erot = 2.28463898505893 | epot = -21.6999003790643 | etot = -17.5968114210859
314000  ekin = 2.3228324174232 |  erot = 2.19580475273396 | epot = -21.6870491287185 | etot = -17.1684119585613
315000  ekin = 1.84546653836013 |  erot = 2.13886071139629 | epot = -21.7312132691438 | etot = -17.7468860193873
316000  ekin = 2.1657114199577 |  erot = 3.03124199276298 | epot = -21.7430929234306 | etot = -16.5461395107099
317000  ekin = 2.42793755919909 |  erot = 3.57187833839244 | epot = -21.8303487369249 | etot = -15.8305328393334
318000  ekin = 2.31418145055206 |  erot = 3.02858542885927 | epot = -21.9347898317926 | etot = -16.5920229523813
319000  ekin = 2.35032973997068 |  erot = 3.16078759112674 | epot = -22.0387665246751 | etot = -16.5276491935776
320000  ekin = 1.78202525445684 |  erot = 2.83297321443624 | epot = -22.1187616541783 | etot = -17.5037631852852
321000  ekin = 2.87441941784728 |  erot = 2.26223197636944 | epot = -22.1065455913123 | etot = -16.9698941970956
322000  ekin = 2.79013397204362 |  erot = 2.68769432639935 | epot = -22.1121405540937 | etot = -16.6343122556507
323000  ekin = 2.070121980457 |  erot = 2.31830584817612 | epot = -22.1539458855415 | etot = -17.7655180569083
324000  ekin = 2.58383941134683 |  erot = 2.58296807603305 | epot = -22.1539753505051 | etot = -16.9871678631253
325000  ekin = 3.43451304817783 |  erot = 2.45405386180802 | epot = -21.938960387404 | etot = -16.0503934774181
326000  ekin = 3.49680929786584 |  erot = 2.85196633398113 | epot = -21.8204400999953 | etot = -15.4716644681484
327000  ekin = 2.68799300805475 |  erot = 2.21805195956654 | epot = -21.7892073548558 | etot = -16.8831623872345
328000  ekin = 1.81477491971657 |  erot = 2.35891534842888 | epot = -21.7275637950057 | etot = -17.5538735268602
329000  ekin = 2.19319322627006 |  erot = 2.40717958919081 | epot = -21.6826095784948 | etot = -17.0822367630339
330000  ekin = 1.87131927244382 |  erot = 2.03694340108429 | epot = -21.5934239674847 | etot = -17.6851612939566
331000  ekin = 2.37197683084608 |  erot = 1.80087022346348 | epot = -21.5641185835514 | etot = -17.3912715292419
332000  ekin = 1.69601394569048 |  erot = 2.54947032294377 | epot = -21.5986464339748 | etot = -17.3531621653406
333000  ekin = 1.59867443991714 |  erot = 2.14911483871162 | epot = -21.7162173059518 | etot = -17.9684280273231
334000  ekin = 2.25811733625553 |  erot = 2.62323988136568 | epot = -21.7749416190679 | etot = -16.8935844014467
335000  ekin = 2.93433632601273 |  erot = 3.10350297573268 | epot = -21.7966831809595 | etot = -15.7588438792141
336000  ekin = 2.76337640462581 |  erot = 2.54930710489019 | epot = -21.7180312833467 | etot = -16.4053477738307
337000  ekin = 3.19235531401951 |  erot = 3.87146146874103 | epot = -21.8022396262892 | etot = -14.7384228435286
338000  ekin = 2.33305125173566 |  erot = 2.13094194678887 | epot = -21.8068682042896 | etot = -17.3428750057651
339000  ekin = 1.71673308889604 |  erot = 2.30964121170968 | epot = -21.7941224580796 | etot = -17.7677481574739
340000  ekin = 1.59424151294027 |  erot = 3.16324993863714 | epot = -21.7679173396748 | etot = -17.0104258880973
341000  ekin = 1.69465464335694 |  erot = 3.18694861883744 | epot = -21.7067352043109 | etot = -16.8251319421165
342000  ekin = 1.81243763026219 |  erot = 2.60448215582795 | epot = -21.5993126794634 | etot = -17.1823928933732
343000  ekin = 3.08243814047349 |  erot = 2.9217466333323 | epot = -21.5855979229594 | etot = -15.5814131491536
344000  ekin = 2.94964594107348 |  erot = 3.10231272046816 | epot = -21.5506154266351 | etot = -15.4986567650935
345000  ekin = 2.34525111670595 |  erot = 2.88045261854212 | epot = -21.530734043011 | etot = -16.3050303077629
346000  ekin = 2.03136740406842 |  erot = 3.44352096435563 | epot = -21.4703041890966 | etot = -15.9954158206726
347000  ekin = 2.34515762081498 |  erot = 1.91414074840886 | epot = -21.3488386855954 | etot = -17.0895403163716
348000  ekin = 2.76763212340836 |  erot = 2.78035348102326 | epot = -21.3102796687364 | etot = -15.7622940643048
349000  ekin = 2.29342234253801 |  erot = 3.14526664575919 | epot = -21.3922932631024 | etot = -15.9536042748052
350000  ekin = 2.17828641691343 |  erot = 2.38211689163937 | epot = -21.3570978647003 | etot = -16.7966945561475
351000  ekin = 2.2787342054874 |  erot = 2.85568682453813 | epot = -21.3165609660186 | etot = -16.182139935993
352000  ekin = 2.70894563927919 |  erot = 2.77656375044279 | epot = -21.3565059314145 | etot = -15.8709965416925
353000  ekin = 1.74748047732915 |  erot = 2.14191122851256 | epot = -21.3195625770357 | etot = -17.430170871194
354000  ekin = 2.30492780756568 |  erot = 2.37159952583724 | epot = -21.3742968901642 | etot = -16.6977695567612
355000  ekin = 2.32493886573112 |  erot = 2.38411746089983 | epot = -21.339340741587 | etot = -16.6302844149561
356000  ekin = 2.9749649543268 |  erot = 2.9916655517553 | epot = -21.2468948072712 | etot = -15.2802643011891
357000  ekin = 1.79541671946026 |  erot = 2.13971792108731 | epot = -21.2216819829681 | etot = -17.2865473424205
358000  ekin = 2.06637919290965 |  erot = 1.9076530715578 | epot = -21.2447441674953 | etot = -17.2707119030278
359000  ekin = 2.02344077580052 |  erot = 2.11726163321539 | epot = -21.2183688961264 | etot = -17.0776664871105
360000  ekin = 2.64012587839158 |  erot = 2.43776362828977 | epot = -21.1472477161847 | etot = -16.0693582095033
361000  ekin = 2.41850555983882 |  erot = 2.39054736245265 | epot = -21.2133787743639 | etot = -16.4043258520724
362000  ekin = 2.2486199222758 |  erot = 2.04489136793498 | epot = -21.2088914287919 | etot = -16.9153801385811
363000  ekin = 3.21904252076974 |  erot = 1.79717950163013 | epot = -21.2620537293498 | etot = -16.24583170695
364000  ekin = 2.9845697448498 |  erot = 2.18316673460243 | epot = -21.2883338312843 | etot = -16.120597351832
365000  ekin = 2.49427392981412 |  erot = 2.31205455481896 | epot = -21.4001153296815 | etot = -16.5937868450484
366000  ekin = 2.61706523565788 |  erot = 2.20229130507574 | epot = -21.4506718008962 | etot = -16.6313152601626
367000  ekin = 2.24650816549397 |  erot = 1.87906237362998 | epot = -21.5207044850599 | etot = -17.3951339459359
368000  ekin = 2.46672276241562 |  erot = 2.37638546053105 | epot = -21.5628581383216 | etot = -16.7197499153749
369000  ekin = 2.03614635149851 |  erot = 2.85426887707092 | epot = -21.6803034764487 | etot = -16.7898882478793
370000  ekin = 2.13410724028005 |  erot = 2.17304603842012 | epot = -21.7343761700058 | etot = -17.4272228913057
371000  ekin = 2.21722409826115 |  erot = 2.11058746733929 | epot = -21.6422617131998 | etot = -17.3144501475994
372000  ekin = 1.88083333566673 |  erot = 1.90617172826127 | epot = -21.6005499693118 | etot = -17.8135449053838
373000  ekin = 1.98298204516521 |  erot = 1.78267682128409 | epot = -21.5708808628646 | etot = -17.8052219964153
374000  ekin = 2.88981201933268 |  erot = 1.90326894499807 | epot = -21.4624711307906 | etot = -16.6693901664599
375000  ekin = 2.31951869092549 |  erot = 1.92779670517485 | epot = -21.3521768069862 | etot = -17.1048614108859
376000  ekin = 2.60113015271722 |  erot = 2.31181306588444 | epot = -21.34681055463 | etot = -16.4338673360283
377000  ekin = 2.23867315344604 |  erot = 1.65923992926403 | epot = -21.2611852709131 | etot = -17.363272188203
378000  ekin = 2.38125181613766 |  erot = 2.54002618279121 | epot = -21.2390275318703 | etot = -16.3177495329414
379000  ekin = 2.06952281308678 |  erot = 2.11888196225292 | epot = -21.194025606577 | etot = -17.0056208312373
380000  ekin = 2.59961269461524 |  erot = 2.3751200788503 | epot = -21.1885781090515 | etot = -16.2138453355859
381000  ekin = 2.42019573552876 |  erot = 2.20667402504614 | epot = -21.1989968748535 | etot = -16.5721271142786
382000  ekin = 2.04746564398744 |  erot = 3.34439482672214 | epot = -21.2903574441545 | etot = -15.8984969734449
383000  ekin = 2.65699216362738 |  erot = 1.56546061375907 | epot = -21.3572338418187 | etot = -17.1347810644322
384000  ekin = 2.43156675693926 |  erot = 2.00097327452753 | epot = -21.3434156392382 | etot = -16.9108756077714
385000  ekin = 1.95152101616516 |  erot = 3.28345377140313 | epot = -21.4173973675698 | etot = -16.1824225800015
386000  ekin = 2.10919215730741 |  erot = 2.90700736383436 | epot = -21.3963452767614 | etot = -16.3801457556197
387000  ekin = 2.34448447096483 |  erot = 2.50155013212484 | epot = -21.3487258248084 | etot = -16.5026912217187
388000  ekin = 2.71771591111729 |  erot = 2.76803950274557 | epot = -21.3515918112166 | etot = -15.8658363973537
389000  ekin = 3.06825183100775 |  erot = 3.06148533146046 | epot = -21.4826430036711 | etot = -15.3529058412029
390000  ekin = 2.56997560639923 |  erot = 2.05646161654304 | epot = -21.5623801506968 | etot = -16.9359429277546
391000  ekin = 2.1110114400687 |  erot = 2.44612603817531 | epot = -21.6052888202632 | etot = -17.0481513420191
392000  ekin = 2.58328475785099 |  erot = 2.75249392862464 | epot = -21.7336094646938 | etot = -16.3978307782182
393000  ekin = 2.03977041996533 |  erot = 1.67448219405536 | epot = -21.8740604202474 | etot = -18.1598078062267
394000  ekin = 2.1229408356241 |  erot = 2.43410977254954 | epot = -21.9094739378951 | etot = -17.3524233297214
395000  ekin = 2.48696003315341 |  erot = 2.48225062557349 | epot = -21.8799685903484 | etot = -16.9107579316215
396000  ekin = 3.18909661029635 |  erot = 1.62675064803775 | epot = -21.8520000277039 | etot = -17.0361527693698
397000  ekin = 2.39161566907255 |  erot = 2.17052346752458 | epot = -21.7939512244376 | etot = -17.2318120878404
398000  ekin = 2.29946433742664 |  erot = 2.18115834594542 | epot = -21.7285069861955 | etot = -17.2478843028235
399000  ekin = 2.65449075133045 |  erot = 2.80318185995816 | epot = -21.6503181327212 | etot = -16.1926455214325
400000  ekin = 1.800915604111 |  erot = 2.76596769548035 | epot = -21.6418619272709 | etot = -17.0749786276795
401000  ekin = 2.35073130822393 |  erot = 3.1229922205774 | epot = -21.6675586342212 | etot = -16.1938351054199
402000  ekin = 3.95550191914708 |  erot = 3.58855023837881 | epot = -21.5840051268208 | etot = -14.0399529692949
403000  ekin = 3.59615502379622 |  erot = 3.44558176696768 | epot = -21.5781150073617 | etot = -14.5363782165978
404000  ekin = 2.50360365952137 |  erot = 3.01285184176069 | epot = -21.6258060641303 | etot = -16.1093505628483
405000  ekin = 2.77241560720113 |  erot = 3.10596549510783 | epot = -21.704678917892 | etot = -15.826297815583
406000  ekin = 2.33934923007339 |  erot = 2.04671975867729 | epot = -21.819104286388 | etot = -17.4330352976373
407000  ekin = 2.34277955096234 |  erot = 1.89301717692526 | epot = -21.8450916691373 | etot = -17.6092949412497
408000  ekin = 1.91561948833426 |  erot = 2.19551604353608 | epot = -21.8744041835349 | etot = -17.7632686516646
409000  ekin = 1.98819074442449 |  erot = 1.93870533007334 | epot = -21.921903026697 | etot = -17.9950069521992
410000  ekin = 1.59047218684375 |  erot = 1.93259851333214 | epot = -21.969890787558 | etot = -18.4468200873821
411000  ekin = 1.88305362601542 |  erot = 2.47249081001963 | epot = -22.0985208042931 | etot = -17.742976368258
412000  ekin = 2.51301623282815 |  erot = 2.67550740966365 | epot = -22.2078537029906 | etot = -17.0193300604988
413000  ekin = 2.81407439938451 |  erot = 3.21402559358062 | epot = -22.1310120840187 | etot = -16.1029120910536
414000  ekin = 2.79247479268938 |  erot = 2.73425265524033 | epot = -22.0977113063587 | etot = -16.570983858429
415000  ekin = 2.47916660937974 |  erot = 2.2538291443672 | epot = -22.1646477745644 | etot = -17.4316520208175
416000  ekin = 3.33232223339091 |  erot = 1.56386062957 | epot = -22.1461937000839 | etot = -17.250010837123
417000  ekin = 3.95877285814837 |  erot = 2.43917045295873 | epot = -22.0789469190762 | etot = -15.6810036079691
418000  ekin = 2.77978041892218 |  erot = 2.67961998913593 | epot = -21.9429456651673 | etot = -16.4835452571092
419000  ekin = 2.38024484823696 |  erot = 2.99229133054455 | epot = -21.8677152868896 | etot = -16.4951791081081
420000  ekin = 1.82267088279317 |  erot = 1.83608705422836 | epot = -21.870451160571 | etot = -18.2116932235495
421000  ekin = 1.36907389827089 |  erot = 1.7797704929584 | epot = -21.8376802512791 | etot = -18.6888358600498
422000  ekin = 1.39969148752264 |  erot = 2.73407059574398 | epot = -21.8945647860022 | etot = -17.7608027027356
423000  ekin = 1.56110844196111 |  erot = 3.07614792088633 | epot = -21.9244447660987 | etot = -17.2871884032512
424000  ekin = 2.34533519268149 |  erot = 2.03540102416745 | epot = -21.9949085928942 | etot = -17.6141723760453
425000  ekin = 2.30531135176125 |  erot = 2.5628563075006 | epot = -22.0442964382176 | etot = -17.1761287789557
426000  ekin = 2.08911806268394 |  erot = 3.11967927432985 | epot = -21.9925431949266 | etot = -16.7837458579128
427000  ekin = 2.15676382580403 |  erot = 2.43973499877679 | epot = -21.8818966255662 | etot = -17.2853978009854
428000  ekin = 1.77792840961357 |  erot = 1.65301904457092 | epot = -21.8564247195203 | etot = -18.4254772653358
429000  ekin = 1.64662621362122 |  erot = 2.54748287085176 | epot = -21.8025042608483 | etot = -17.6083951763753
430000  ekin = 2.65482151975961 |  erot = 2.86424448473893 | epot = -21.8233021230657 | etot = -16.3042361185671
431000  ekin = 2.76450737503174 |  erot = 1.57600071919883 | epot = -21.8149424651896 | etot = -17.474434370959
432000  ekin = 2.55825491646852 |  erot = 1.62501657592138 | epot = -21.782511983832 | etot = -17.5992404914421
433000  ekin = 2.01126969712347 |  erot = 2.46583763941079 | epot = -21.8897978226513 | etot = -17.4126904861171
434000  ekin = 3.04567132520196 |  erot = 2.70385575793897 | epot = -22.0064907697329 | etot = -16.256963686592
435000  ekin = 3.55537447133515 |  erot = 1.38977885610833 | epot = -22.1475448623269 | etot = -17.2023915348834
436000  ekin = 2.99751349357597 |  erot = 2.00759426062759 | epot = -22.1521181601551 | etot = -17.1470104059515
437000  ekin = 3.22719371512018 |  erot = 1.7857012571478 | epot = -22.1712823460501 | etot = -17.1583873737822
438000  ekin = 2.89146439117069 |  erot = 1.84455801050198 | epot = -22.1285919294041 | etot = -17.3925695277315
439000  ekin = 2.4298540579217 |  erot = 2.69925899679117 | epot = -22.1231674050022 | etot = -16.9940543502893
440000  ekin = 2.25394774327534 |  erot = 3.00779841178563 | epot = -22.1604171321029 | etot = -16.898670977042
441000  ekin = 2.90484412816846 |  erot = 2.87153501323763 | epot = -22.3059803982533 | etot = -16.5296012568472
442000  ekin = 2.09031226167651 |  erot = 1.73424350391287 | epot = -22.3736918061838 | etot = -18.5491360405944
443000  ekin = 1.88581876804904 |  erot = 2.00333583047903 | epot = -22.4253701402759 | etot = -18.5362155417478
444000  ekin = 2.07231382818727 |  erot = 2.15535274194041 | epot = -22.4449863446106 | etot = -18.2173197744829
445000  ekin = 2.10994187816787 |  erot = 2.27934343705762 | epot = -22.5011906844133 | etot = -18.1119053691878
446000  ekin = 2.42762161250135 |  erot = 2.85815816680871 | epot = -22.5326129135227 | etot = -17.2468331342127
447000  ekin = 2.18601253591574 |  erot = 2.99495256710103 | epot = -22.609768680069 | etot = -17.4288035770523
448000  ekin = 2.33389346287827 |  erot = 2.95385139208094 | epot = -22.6330370332815 | etot = -17.3452921783223
449000  ekin = 2.34940633774375 |  erot = 2.93264896913184 | epot = -22.632810074435 | etot = -17.3507547675594
450000  ekin = 1.83766660151173 |  erot = 1.69672449717286 | epot = -22.577435118717 | etot = -19.0430440200324
451000  ekin = 1.97812884417234 |  erot = 1.92764750146577 | epot = -22.5879223350906 | etot = -18.6821459894525
452000  ekin = 1.36037939407656 |  erot = 1.88463175839662 | epot = -22.5510765694841 | etot = -19.3060654170109
453000  ekin = 2.08089341129519 |  erot = 2.55704963640352 | epot = -22.3855210194734 | etot = -17.7475779717747
454000  ekin = 1.45876213242879 |  erot = 2.19347003321548 | epot = -22.2423919107779 | etot = -18.5901597451336
455000  ekin = 1.65659111626477 |  erot = 2.72276980532162 | epot = -22.0960205273875 | etot = -17.7166596058011
456000  ekin = 2.34656659310869 |  erot = 1.9986137505101 | epot = -22.0123490462426 | etot = -17.6671687026238
457000  ekin = 2.02190390619673 |  erot = 2.36256741542514 | epot = -21.9726531641996 | etot = -17.5881818425778
458000  ekin = 1.74372434205051 |  erot = 2.25707911101456 | epot = -21.9983442618521 | etot = -17.997540808787
459000  ekin = 2.51332199676583 |  erot = 2.31717011174282 | epot = -22.0772270520059 | etot = -17.2467349434973
460000  ekin = 2.2034722783839 |  erot = 2.00072694492175 | epot = -22.0506516825516 | etot = -17.846452459246
461000  ekin = 2.27677089259524 |  erot = 2.92031766851146 | epot = -21.9925449331789 | etot = -16.7954563720722
462000  ekin = 2.6185812356449 |  erot = 1.79402090094851 | epot = -22.0230696595749 | etot = -17.6104675229815
463000  ekin = 2.59249670562421 |  erot = 3.30012727643189 | epot = -21.9571457322291 | etot = -16.064521750173
464000  ekin = 2.18969352756478 |  erot = 2.37346543558646 | epot = -21.8914572439365 | etot = -17.3282982807853
465000  ekin = 2.55190117035706 |  erot = 3.6026040005498 | epot = -21.8125549491858 | etot = -15.6580497782789
466000  ekin = 1.97953104510473 |  erot = 2.88392288093832 | epot = -21.8154103020505 | etot = -16.9519563760074
467000  ekin = 1.6387129632993 |  erot = 2.61654440984279 | epot = -21.8983950281207 | etot = -17.6431376549786
468000  ekin = 1.11239222475223 |  erot = 3.3637902926771 | epot = -21.9583777645662 | etot = -17.4821952471369
469000  ekin = 1.72382156581199 |  erot = 2.77626770299012 | epot = -21.9878353154891 | etot = -17.487746046687
470000  ekin = 1.8714597310977 |  erot = 2.88190687781237 | epot = -22.0448924208381 | etot = -17.291525811928
471000  ekin = 2.74011620634609 |  erot = 2.33779564753422 | epot = -22.0936369539761 | etot = -17.0157251000958
472000  ekin = 2.69470680116255 |  erot = 2.14464177510474 | epot = -22.1704276099478 | etot = -17.3310790336805
473000  ekin = 2.28376217878235 |  erot = 2.08795770091158 | epot = -22.1987443333452 | etot = -17.8270244536512
474000  ekin = 2.23739040654538 |  erot = 2.17996427776831 | epot = -22.2112749348846 | etot = -17.7939202505709
475000  ekin = 2.52078584565558 |  erot = 2.10760071935559 | epot = -22.2127629874904 | etot = -17.5843764224793
476000  ekin = 2.21655354698253 |  erot = 1.76978147174391 | epot = -22.1154823176964 | etot = -18.12914729897
477000  ekin = 2.49538102143271 |  erot = 2.39024231683251 | epot = -22.0840161006559 | etot = -17.1983927623907
478000  ekin = 1.92447460017176 |  erot = 2.05040869255766 | epot = -22.1087248977672 | etot = -18.1338416050377
479000  ekin = 2.27800579519478 |  erot = 3.09893174949893 | epot = -22.0960233927896 | etot = -16.7190858480959
480000  ekin = 1.67638938499079 |  erot = 2.75323401987762 | epot = -22.1000079080955 | etot = -17.6703845032271
481000  ekin = 1.81944275684786 |  erot = 2.94268362469552 | epot = -22.0498104845242 | etot = -17.2876841029808
482000  ekin = 2.15574027829653 |  erot = 2.0725438892243 | epot = -22.0125690425762 | etot = -17.7842848750553
483000  ekin = 1.49597116676185 |  erot = 1.99734627551918 | epot = -21.9777307226356 | etot = -18.4844132803546
484000  ekin = 1.8484819245566 |  erot = 2.33821326463838 | epot = -22.0508318876624 | etot = -17.8641366984674
485000  ekin = 1.63994328771 |  erot = 2.49471615719057 | epot = -22.0805056177628 | etot = -17.9458461728623
486000  ekin = 1.86887650973413 |  erot = 2.15138584351099 | epot = -22.0672609747503 | etot = -18.0469986215052
487000  ekin = 2.36601044267131 |  erot = 3.10120454318392 | epot = -22.1385621074087 | etot = -16.6713471215534
488000  ekin = 2.28411726066255 |  erot = 3.25699291514219 | epot = -22.0925409557863 | etot = -16.5514307799816
489000  ekin = 2.42268424794998 |  erot = 2.54559333727918 | epot = -22.0028229962135 | etot = -17.0345454109843
490000  ekin = 2.15695777466101 |  erot = 3.5405265432528 | epot = -21.8987471713935 | etot = -16.2012628534796
491000  ekin = 2.21843295915446 |  erot = 2.48759605623037 | epot = -21.7849993207689 | etot = -17.0789703053841
492000  ekin = 2.42523259661774 |  erot = 2.76338555140187 | epot = -21.7546976439717 | etot = -16.5660794959521
493000  ekin = 1.78787643025978 |  erot = 2.27566821203155 | epot = -21.8142896153583 | etot = -17.7507449730669
494000  ekin = 2.08684832766799 |  erot = 3.00001715875608 | epot = -21.8562812315893 | etot = -16.7694157451653
495000  ekin = 2.13573322112433 |  erot = 2.49326389133065 | epot = -21.9467671324553 | etot = -17.3177700200003
496000  ekin = 2.04467628391159 |  erot = 2.6162845895522 | epot = -21.9884683374098 | etot = -17.327507463946
497000  ekin = 2.51418899377052 |  erot = 1.70810866993563 | epot = -21.9276447401884 | etot = -17.7053470764823
498000  ekin = 2.15585318171628 |  erot = 1.79538414401099 | epot = -21.8645241799653 | etot = -17.913286854238
499000  ekin = 3.01701290816369 |  erot = 1.75748039597449 | epot = -21.8892368424083 | etot = -17.1147435382701
500000  ekin = 2.75239118232731 |  erot = 2.51840040194924 | epot = -21.8902992314675 | etot = -16.6195076471909
501000  ekin = 2.67894034986861 |  erot = 3.01164832527811 | epot = -21.7709154896334 | etot = -16.0803268144867
502000  ekin = 1.89316543275823 |  erot = 3.89794024057184 | epot = -21.6531840495811 | etot = -15.862078376251
503000  ekin = 1.79271217239337 |  erot = 2.94195973795538 | epot = -21.4642442224488 | etot = -16.7295723121
504000  ekin = 1.6771855422807 |  erot = 3.03652723399754 | epot = -21.3696883509301 | etot = -16.6559755746518
505000  ekin = 2.71833858397102 |  erot = 2.13541162175611 | epot = -21.3703611232649 | etot = -16.5166109175378
506000  ekin = 2.26393943112 |  erot = 2.03997434566047 | epot = -21.3701060081751 | etot = -17.0661922313946
507000  ekin = 3.13593335317162 |  erot = 2.43613799195774 | epot = -21.4594670249601 | etot = -15.8873956798307
508000  ekin = 2.50977944502594 |  erot = 2.54754436309782 | epot = -21.6189261516985 | etot = -16.5616023435747
509000  ekin = 2.11418702736586 |  erot = 2.82587497425585 | epot = -21.7696504732974 | etot = -16.8295884716757
510000  ekin = 2.14979144320026 |  erot = 1.42702348952371 | epot = -21.8372692973069 | etot = -18.2604543645829
511000  ekin = 2.52507885024672 |  erot = 2.75237930607404 | epot = -21.9038675932379 | etot = -16.6264094369171
512000  ekin = 2.30816398580866 |  erot = 2.74440410404474 | epot = -21.9049605915963 | etot = -16.8523925017429
513000  ekin = 2.48929206456089 |  erot = 2.14820879347373 | epot = -21.8691788664222 | etot = -17.2316780083876
514000  ekin = 2.80085464362196 |  erot = 2.54503473578109 | epot = -22.0226541110001 | etot = -16.6767647315971
515000  ekin = 2.54939499554986 |  erot = 1.81858738302198 | epot = -22.114703586072 | etot = -17.7467212075001
516000  ekin = 2.82421125785514 |  erot = 2.22239822832894 | epot = -22.1991501131327 | etot = -17.1525406269486
517000  ekin = 2.04384407501393 |  erot = 2.05286256711726 | epot = -22.223660515307 | etot = -18.1269538731759
518000  ekin = 2.19097977809323 |  erot = 2.75238147912107 | epot = -22.2176385899556 | etot = -17.2742773327413
519000  ekin = 2.24039331018443 |  erot = 2.22517425402749 | epot = -22.3147614078005 | etot = -17.8491938435885
520000  ekin = 1.89059175672112 |  erot = 2.20041051856069 | epot = -22.3991443907322 | etot = -18.3081421154504
521000  ekin = 2.59226785962331 |  erot = 1.8787186288573 | epot = -22.558855864031 | etot = -18.0878693755504
522000  ekin = 3.47620702193973 |  erot = 1.77094959979111 | epot = -22.6529022954593 | etot = -17.4057456737285
523000  ekin = 2.86949346153076 |  erot = 2.45905269319727 | epot = -22.6983641285372 | etot = -17.3698179738092
524000  ekin = 2.43223643727573 |  erot = 2.35710345393931 | epot = -22.6347622840061 | etot = -17.8454223927911
525000  ekin = 1.58633727726026 |  erot = 2.6771932767998 | epot = -22.5981477078776 | etot = -18.3346171538175
526000  ekin = 1.68956829163897 |  erot = 1.56381447059437 | epot = -22.5455188933618 | etot = -19.2921361311285
527000  ekin = 2.25335664013444 |  erot = 1.91897798598234 | epot = -22.438285347212 | etot = -18.2659507210952
528000  ekin = 2.66417770052522 |  erot = 2.81695730712898 | epot = -22.4214392419194 | etot = -16.9403042342652
529000  ekin = 2.68388271083098 |  erot = 3.01210908187864 | epot = -22.4261041670352 | etot = -16.7301123743256
530000  ekin = 2.58091136149224 |  erot = 2.12874327798812 | epot = -22.2849687345625 | etot = -17.5753140950821
531000  ekin = 2.96791741143998 |  erot = 2.35396590663619 | epot = -22.1825114215506 | etot = -16.8606281034744
532000  ekin = 2.56040610657616 |  erot = 2.30869688210952 | epot = -22.1966779750303 | etot = -17.3275749863446
533000  ekin = 2.47127792277395 |  erot = 2.96337405559089 | epot = -22.2034167916881 | etot = -16.7687648133233
534000  ekin = 2.10109006711395 |  erot = 2.06160691104878 | epot = -22.2334884486858 | etot = -18.0707914705231
535000  ekin = 3.76901503112188 |  erot = 2.6463468036932 | epot = -22.2244389422279 | etot = -15.8090771074128
536000  ekin = 2.76978499488531 |  erot = 1.95801212091677 | epot = -22.1621143741426 | etot = -17.4343172583406
537000  ekin = 2.84173849615256 |  erot = 2.62706904536459 | epot = -22.0817906214053 | etot = -16.6129830798882
538000  ekin = 2.68461551572766 |  erot = 2.11438749606247 | epot = -22.0095123737601 | etot = -17.21050936197
539000  ekin = 2.71441959372568 |  erot = 2.40909357772199 | epot = -22.1283805595379 | etot = -17.0048673880902
540000  ekin = 2.43554469514557 |  erot = 2.49366634622684 | epot = -22.2721085965986 | etot = -17.3428975552261
541000  ekin = 3.40478335851234 |  erot = 2.79351301825373 | epot = -22.3438323146239 | etot = -16.1455359378578
542000  ekin = 2.43305477389315 |  erot = 2.89262463310066 | epot = -22.3528484076625 | etot = -17.0271690006687
543000  ekin = 2.33384318243661 |  erot = 2.87812814268662 | epot = -22.3517509549719 | etot = -17.1397796298486
544000  ekin = 2.20405054763978 |  erot = 1.45974147181057 | epot = -22.3200355678433 | etot = -18.656243548393
545000  ekin = 2.44190363474283 |  erot = 2.14425712944393 | epot = -22.3037584455754 | etot = -17.7175976813886
546000  ekin = 1.97349236865067 |  erot = 2.22849747468303 | epot = -22.2610854898172 | etot = -18.0590956464835
547000  ekin = 2.54002964967593 |  erot = 1.88937782138629 | epot = -22.2132220899932 | etot = -17.783814618931
548000  ekin = 1.68504847096503 |  erot = 1.6504983981354 | epot = -22.1188297609737 | etot = -18.7832828918733
549000  ekin = 1.8698904826159 |  erot = 2.68379586673466 | epot = -22.3014742550974 | etot = -17.7477879057469
550000  ekin = 1.81227590400771 |  erot = 1.59168663528122 | epot = -22.4534648123994 | etot = -19.0495022731104
551000  ekin = 2.18778306678591 |  erot = 2.27083852152173 | epot = -22.5132391469467 | etot = -18.0546175586391
552000  ekin = 2.0524867508114 |  erot = 2.50762393323791 | epot = -22.5694064381206 | etot = -18.0092957540712
553000  ekin = 2.95456875477793 |  erot = 2.14561779139538 | epot = -22.6592693777082 | etot = -17.5590828315349
554000  ekin = 2.82905646744367 |  erot = 1.93590782360605 | epot = -22.8091725556775 | etot = -18.0442082646278
555000  ekin = 2.39158205650881 |  erot = 2.26907880603287 | epot = -22.8586370928634 | etot = -18.1979762303218
556000  ekin = 2.29372548723881 |  erot = 2.58079244425137 | epot = -22.9103117359013 | etot = -18.0357938044111
557000  ekin = 2.83941059371958 |  erot = 1.46630907998336 | epot = -22.9934681858733 | etot = -18.6877485121704
558000  ekin = 2.74456573812684 |  erot = 2.01705053511004 | epot = -23.0249165386548 | etot = -18.263300265418
559000  ekin = 3.32001639007045 |  erot = 2.33065957496589 | epot = -23.0702860514081 | etot = -17.4196100863717
560000  ekin = 3.06548847901962 |  erot = 2.32403726670831 | epot = -23.0562195399467 | etot = -17.6666937942187
561000  ekin = 2.86648091511123 |  erot = 2.08496682915783 | epot = -22.9734465855435 | etot = -18.0219988412745
562000  ekin = 3.27266742525966 |  erot = 2.5148755055394 | epot = -22.8741285027176 | etot = -17.0865855719185
563000  ekin = 2.66038974520286 |  erot = 1.64110018949295 | epot = -22.8474543828021 | etot = -18.5459644481063
564000  ekin = 2.80468636683463 |  erot = 2.52664241131886 | epot = -22.8018617517494 | etot = -17.4705329735959
565000  ekin = 2.64616861412633 |  erot = 2.04566022999095 | epot = -22.7506810734506 | etot = -18.0588522293334
566000  ekin = 2.31863979249599 |  erot = 2.17936618392302 | epot = -22.753817383677 | etot = -18.255811407258
567000  ekin = 1.93243531435252 |  erot = 2.8201914219892 | epot = -22.7091974553673 | etot = -17.9565707190256
568000  ekin = 2.20145087944368 |  erot = 2.21735208955968 | epot = -22.7289431019428 | etot = -18.3101401329394
569000  ekin = 2.47195478734592 |  erot = 2.65975337798175 | epot = -22.6704691958401 | etot = -17.5387610305124
570000  ekin = 2.43702231300343 |  erot = 1.88676767986218 | epot = -22.6634145438588 | etot = -18.3396245509932
571000  ekin = 2.89036429172333 |  erot = 2.95615513706037 | epot = -22.6566784173206 | etot = -16.8101589885369
572000  ekin = 1.93616423502164 |  erot = 3.77280866215609 | epot = -22.6161904936583 | etot = -16.9072175964806
573000  ekin = 2.40449703945409 |  erot = 2.31309419006005 | epot = -22.592333216152 | etot = -17.8747419866379
574000  ekin = 1.69163306749095 |  erot = 2.32935369197413 | epot = -22.6465956635078 | etot = -18.6256089040427
575000  ekin = 1.84139068594293 |  erot = 1.86447317795677 | epot = -22.7237799324543 | etot = -19.0179160685546
576000  ekin = 3.22131124370819 |  erot = 2.95816228283025 | epot = -22.6715615977237 | etot = -16.4920880711853
577000  ekin = 2.86651980816624 |  erot = 2.88003300402859 | epot = -22.6040632784101 | etot = -16.8575104662152
578000  ekin = 2.38036632496091 |  erot = 2.76701770395377 | epot = -22.3994142750986 | etot = -17.2520302461839
579000  ekin = 2.40092915325622 |  erot = 1.9941192489901 | epot = -22.2419585433873 | etot = -17.846910141141
580000  ekin = 2.62012657675686 |  erot = 1.97778552777916 | epot = -22.0959374453144 | etot = -17.4980253407783
581000  ekin = 2.04604501901225 |  erot = 3.02029740769394 | epot = -21.969203567202 | etot = -16.9028611404958
582000  ekin = 2.17538959702762 |  erot = 3.10891247706868 | epot = -21.8431272977465 | etot = -16.5588252236502
583000  ekin = 2.1277994052252 |  erot = 2.71423548986473 | epot = -21.8070587526078 | etot = -16.9650238575179
584000  ekin = 2.99172160795183 |  erot = 2.61848378659144 | epot = -21.79936869936 | etot = -16.1891633048167
585000  ekin = 2.41567815843635 |  erot = 2.49971455295247 | epot = -21.7559519530568 | etot = -16.840559241668
586000  ekin = 3.5784340003808 |  erot = 1.99027982649426 | epot = -21.7770294519877 | etot = -16.2083156251126
587000  ekin = 3.53538631245293 |  erot = 1.96660128703793 | epot = -21.754918588089 | etot = -16.2529309885981
588000  ekin = 2.80370665446806 |  erot = 1.58935491344442 | epot = -21.7265541827784 | etot = -17.3334926148659
589000  ekin = 2.31177964330664 |  erot = 2.19607744710081 | epot = -21.7746975125222 | etot = -17.2668404221147
590000  ekin = 2.5714466329988 |  erot = 1.71442868035276 | epot = -21.7777302960456 | etot = -17.491854982694
591000  ekin = 1.90022629380971 |  erot = 3.80795912333789 | epot = -21.8668982157977 | etot = -16.1587127986501
592000  ekin = 2.10279882895952 |  erot = 2.85583901759444 | epot = -21.9108757117546 | etot = -16.9522378652007
593000  ekin = 1.66307844177278 |  erot = 2.45945798543616 | epot = -21.9477120734663 | etot = -17.8251756462574
594000  ekin = 1.85147702439684 |  erot = 2.37601059124117 | epot = -22.0726279896574 | etot = -17.8451403740194
595000  ekin = 1.62809593102861 |  erot = 2.1376140673132 | epot = -22.2629667751952 | etot = -18.4972567768534
596000  ekin = 1.85098827042652 |  erot = 1.55279926082377 | epot = -22.3598865590345 | etot = -18.9560990277842
597000  ekin = 2.21895198056269 |  erot = 2.31253848766694 | epot = -22.4199578312546 | etot = -17.8884673630249
598000  ekin = 1.87160565114506 |  erot = 3.0277507704973 | epot = -22.4911453410919 | etot = -17.5917889194496
599000  ekin = 2.84158802287444 |  erot = 2.1920185610572 | epot = -22.5193833279106 | etot = -17.4857767439789
600000  ekin = 2.63818657196383 |  erot = 2.13278760870029 | epot = -22.4344536662284 | etot = -17.6634794855643
601000  ekin = 2.95993107274926 |  erot = 3.20885509956692 | epot = -22.3072696496284 | etot = -16.1384834773122
602000  ekin = 2.94299398558342 |  erot = 2.68013224377472 | epot = -22.2188520758353 | etot = -16.5957258464772
603000  ekin = 2.59660369946999 |  erot = 2.70989416331592 | epot = -22.1609733489959 | etot = -16.85447548621
604000  ekin = 1.79240933557438 |  erot = 2.1163931677418 | epot = -22.191830604205 | etot = -18.2830281008888
605000  ekin = 1.83069958852698 |  erot = 2.27958589555072 | epot = -22.223893707794 | etot = -18.1136082237163
606000  ekin = 2.33186424204054 |  erot = 2.19630763210353 | epot = -22.1677269529972 | etot = -17.6395550788531
607000  ekin = 2.71182931402141 |  erot = 2.97109858003922 | epot = -22.1521845558164 | etot = -16.4692566617558
608000  ekin = 2.41997749037237 |  erot = 2.41608876723459 | epot = -22.1090787304487 | etot = -17.2730124728417
609000  ekin = 1.88827272588068 |  erot = 2.63293672960969 | epot = -21.998471393382 | etot = -17.4772619378917
610000  ekin = 3.00352553825308 |  erot = 2.17715232945663 | epot = -21.921125149498 | etot = -16.7404472817883
611000  ekin = 2.45802371980552 |  erot = 2.74758446810105 | epot = -21.9175611897393 | etot = -16.7119530018327
612000  ekin = 2.52205492882348 |  erot = 2.13390999483971 | epot = -21.952922358004 | etot = -17.2969574343408
613000  ekin = 3.0366403087624 |  erot = 2.11840093313595 | epot = -22.0002186117394 | etot = -16.8451773698411
614000  ekin = 2.28547905389303 |  erot = 3.00549626246339 | epot = -22.0746950370029 | etot = -16.7837197206465
615000  ekin = 1.68496895203681 |  erot = 2.6238974067784 | epot = -22.0312524650619 | etot = -17.7223861062467
616000  ekin = 1.93869933628639 |  erot = 2.84243572789263 | epot = -22.0598022720905 | etot = -17.2786672079115
617000  ekin = 2.16688154116712 |  erot = 2.51660309412659 | epot = -22.0580971291184 | etot = -17.3746124938247
618000  ekin = 3.09921969264655 |  erot = 2.74549226450141 | epot = -22.0155339259629 | etot = -16.1708219688149
619000  ekin = 3.43177694169698 |  erot = 2.12198343059748 | epot = -21.986089674814 | etot = -16.4323293025195
620000  ekin = 4.28772375093259 |  erot = 2.22706390062221 | epot = -21.9590250230057 | etot = -15.4442373714509
621000  ekin = 3.0817377949309 |  erot = 2.5715302712226 | epot = -21.9009729000649 | etot = -16.2477048339114
622000  ekin = 2.73165859080048 |  erot = 2.62811367428178 | epot = -21.8396158670716 | etot = -16.4798436019893
623000  ekin = 2.85443766883212 |  erot = 2.89934248449797 | epot = -21.6835451183467 | etot = -15.9297649650166
624000  ekin = 2.03264036935949 |  erot = 3.41736745424461 | epot = -21.5163207310271 | etot = -16.066312907423
625000  ekin = 2.93853121772536 |  erot = 2.67773115439888 | epot = -21.3838363274969 | etot = -15.7675739553726
626000  ekin = 2.62777924734508 |  erot = 2.18162282576041 | epot = -21.3730333234904 | etot = -16.5636312503849
627000  ekin = 2.31990667522995 |  erot = 2.39482401666938 | epot = -21.4354987061654 | etot = -16.7207680142661
628000  ekin = 2.22203953187498 |  erot = 2.76412791129531 | epot = -21.5952632825804 | etot = -16.6090958394101
629000  ekin = 2.21775645889425 |  erot = 1.98065436363089 | epot = -21.7562971185524 | etot = -17.5578862960273
630000  ekin = 2.47359866092386 |  erot = 2.13925319586019 | epot = -21.7758191809316 | etot = -17.1629673241476
631000  ekin = 2.05051856532003 |  erot = 1.79291928253663 | epot = -21.7853759251476 | etot = -17.9419380772909
632000  ekin = 1.64850143430096 |  erot = 3.28395498862858 | epot = -21.8317536045469 | etot = -16.8992971816173
633000  ekin = 2.35005689695082 |  erot = 2.3390788040001 | epot = -21.9523909247055 | etot = -17.2632552237546
634000  ekin = 2.35693540441333 |  erot = 2.46483135146881 | epot = -22.0188246134313 | etot = -17.1970578575491
635000  ekin = 1.98898390231468 |  erot = 3.3707265296603 | epot = -22.0674825033302 | etot = -16.7077720713553
636000  ekin = 2.50980012291046 |  erot = 2.48689559173921 | epot = -22.0698487955046 | etot = -17.073153080855
637000  ekin = 2.77498878878958 |  erot = 2.80713853773056 | epot = -21.9907400151913 | etot = -16.4086126886711
638000  ekin = 2.43806293105884 |  erot = 2.79004417520011 | epot = -22.0575076323657 | etot = -16.8294005261068
639000  ekin = 1.88083948877533 |  erot = 2.09676394462429 | epot = -22.048310763883 | etot = -18.0707073304834
640000  ekin = 2.08188388766029 |  erot = 3.35897660071801 | epot = -21.9960574959824 | etot = -16.5551970076041
641000  ekin = 2.09182696029806 |  erot = 2.24096762672331 | epot = -22.0953763111483 | etot = -17.7625817241269
642000  ekin = 2.29622874060124 |  erot = 2.6949832870016 | epot = -22.151409557085 | etot = -17.1601975294822
643000  ekin = 2.73569648066616 |  erot = 2.20073493313118 | epot = -22.0949564882595 | etot = -17.1585250744621
644000  ekin = 2.8774767032651 |  erot = 3.41751476954418 | epot = -22.1298161092011 | etot = -15.8348246363918
645000  ekin = 2.4290925856966 |  erot = 2.10618409243776 | epot = -22.0667334414767 | etot = -17.5314567633423
646000  ekin = 2.69467422761642 |  erot = 1.80008229703286 | epot = -21.8974158987303 | etot = -17.402659374081
647000  ekin = 2.50876501618975 |  erot = 2.02696268329777 | epot = -21.7872910341098 | etot = -17.2515633346223
648000  ekin = 2.30426131969587 |  erot = 1.6458501532655 | epot = -21.8921456933826 | etot = -17.9420342204213
649000  ekin = 2.59259139367702 |  erot = 1.74799625276216 | epot = -22.0338111702567 | etot = -17.6932235238175
650000  ekin = 2.70418822875775 |  erot = 2.18747773876972 | epot = -22.1379356884042 | etot = -17.2462697208768
651000  ekin = 2.13264787236381 |  erot = 3.27713220231 | epot = -22.2140357553834 | etot = -16.8042556807096
652000  ekin = 2.3441787788075 |  erot = 2.31061064519192 | epot = -22.2512463247192 | etot = -17.5964569007197
653000  ekin = 2.0783895005922 |  erot = 2.15412898001082 | epot = -22.2780657745064 | etot = -18.0455472939034
654000  ekin = 2.30897991961162 |  erot = 1.85124051868153 | epot = -22.3104418685982 | etot = -18.150221430305
655000  ekin = 2.12106061544383 |  erot = 1.78500189152084 | epot = -22.2852988882964 | etot = -18.3792363813318
656000  ekin = 2.4735695444961 |  erot = 2.3420013127236 | epot = -22.2660003992253 | etot = -17.4504295420056
657000  ekin = 2.49468968638545 |  erot = 2.86409627910532 | epot = -22.2925124601966 | etot = -16.9337264947059
658000  ekin = 2.49656210866705 |  erot = 2.87057420343463 | epot = -22.2700281258802 | etot = -16.9028918137786
659000  ekin = 3.4002230119036 |  erot = 2.78079262685479 | epot = -22.1392014132181 | etot = -15.9581857744598
660000  ekin = 2.71468183951524 |  erot = 2.00084154317764 | epot = -22.0088760160501 | etot = -17.2933526333572
661000  ekin = 2.22564214621743 |  erot = 2.53966313147986 | epot = -21.8739603827229 | etot = -17.1086551050257
[...]
835000  ekin = 2.7678557540129 |  erot = 2.75945454275209 | epot = -20.196580890927 | etot = -14.669270594162
836000  ekin = 2.53473695255286 |  erot = 2.86392788167815 | epot = -20.358210381663 | etot = -14.9595455474319
837000  ekin = 1.73656397849906 |  erot = 1.97461102829179 | epot = -20.4142699072864 | etot = -16.7030949004955
838000  ekin = 1.97190242589771 |  erot = 2.78134736415134 | epot = -20.4306923978834 | etot = -15.6774426078343
839000  ekin = 1.96899626495587 |  erot = 2.72126775666989 | epot = -20.4229760480712 | etot = -15.7327120264454
840000  ekin = 1.7171072647053 |  erot = 2.97405496575738 | epot = -20.5310188981682 | etot = -15.8398566677055
841000  ekin = 2.84263223284519 |  erot = 2.84805882649256 | epot = -20.7029997187952 | etot = -15.0123086594574
842000  ekin = 2.60852389795254 |  erot = 2.84079273136912 | epot = -20.7559161264561 | etot = -15.3065994971344
843000  ekin = 2.05482516428399 |  erot = 2.60168054731321 | epot = -20.7398205878817 | etot = -16.0833148762845
844000  ekin = 1.55484491564895 |  erot = 1.93946122833937 | epot = -20.793873895268 | etot = -17.2995677512796
845000  ekin = 2.34415562398594 |  erot = 2.33054915402977 | epot = -20.9292293378503 | etot = -16.2545245598346
846000  ekin = 2.10828138543307 |  erot = 2.31084128804075 | epot = -21.0208568932193 | etot = -16.6017342197455
847000  ekin = 2.49792342883821 |  erot = 2.62762350266534 | epot = -20.9870443583388 | etot = -15.8614974268353
848000  ekin = 2.16881569142256 |  erot = 1.47414765167355 | epot = -21.0272780430065 | etot = -17.3843146999104
849000  ekin = 2.02577069067687 |  erot = 2.48073789957305 | epot = -21.0548829559118 | etot = -16.5483743656619
850000  ekin = 2.56121323608232 |  erot = 2.68216361525941 | epot = -21.0531120198317 | etot = -15.80973516849
851000  ekin = 2.18318825014005 |  erot = 2.93699487251027 | epot = -21.072057934595 | etot = -15.9518748119447
852000  ekin = 2.47242228011125 |  erot = 2.47093974244847 | epot = -21.1036036708141 | etot = -16.1602416482544
853000  ekin = 2.39779726435527 |  erot = 2.98937612414091 | epot = -21.0464025867825 | etot = -15.6592291982864
854000  ekin = 2.33702117267764 |  erot = 2.85284252822427 | epot = -20.9556796853364 | etot = -15.7658159844345
855000  ekin = 2.34760752254692 |  erot = 2.06775496176188 | epot = -20.9732459823191 | etot = -16.5578834980103
856000  ekin = 2.50439922073455 |  erot = 2.74747347867824 | epot = -20.8640767421381 | etot = -15.6122040427253
857000  ekin = 2.54554426380173 |  erot = 3.02043559253138 | epot = -20.7373381265487 | etot = -15.1713582702156
858000  ekin = 3.06972052097933 |  erot = 2.1533020939209 | epot = -20.6779613423402 | etot = -15.45493872744
859000  ekin = 2.85296234704364 |  erot = 2.24390648873861 | epot = -20.6722067614218 | etot = -15.5753379256396
860000  ekin = 2.81550228271929 |  erot = 1.51851082884538 | epot = -20.6725383213113 | etot = -16.3385252097467
861000  ekin = 2.27514176030031 |  erot = 2.84648353799519 | epot = -20.6420712292961 | etot = -15.5204459310006
862000  ekin = 2.9987675929355 |  erot = 1.87057008174782 | epot = -20.6660164836296 | etot = -15.7966788089463
863000  ekin = 2.82347853622627 |  erot = 1.77874439342615 | epot = -20.7576165207476 | etot = -16.1553935910952
864000  ekin = 2.92188345840032 |  erot = 2.64334274850666 | epot = -20.9261206064404 | etot = -15.3608943995334
865000  ekin = 3.33407052864803 |  erot = 2.25520565932836 | epot = -21.0515135151698 | etot = -15.4622373271934
866000  ekin = 2.86068791662345 |  erot = 3.16201991362392 | epot = -21.1397264169455 | etot = -15.1170185866981
867000  ekin = 2.74707401666422 |  erot = 3.06797998358081 | epot = -21.1320468209182 | etot = -15.3169928206732
868000  ekin = 2.19562503546865 |  erot = 2.22513352423332 | epot = -21.0678608919895 | etot = -16.6471023322876
869000  ekin = 2.92239622436426 |  erot = 2.5008962182639 | epot = -21.0133576609085 | etot = -15.5900652182804
870000  ekin = 2.48942591106965 |  erot = 2.13034723792471 | epot = -20.996084603173 | etot = -16.3763114541786
871000  ekin = 2.19159342044105 |  erot = 2.37819238438806 | epot = -20.874805817807 | etot = -16.3050200129778
872000  ekin = 1.55149762269136 |  erot = 2.09773965219071 | epot = -20.8507483226038 | etot = -17.2015110477217
873000  ekin = 1.39031919518734 |  erot = 2.27780516445362 | epot = -20.9245661591995 | etot = -17.2564417995585
874000  ekin = 1.41307234618125 |  erot = 2.76889585749685 | epot = -21.0893130528338 | etot = -16.9073448491557
875000  ekin = 1.1903759815938 |  erot = 2.71897418399016 | epot = -21.2265810734678 | etot = -17.3172309078839
876000  ekin = 1.81153308354558 |  erot = 2.98976206981359 | epot = -21.2471086207564 | etot = -16.4458134673973
877000  ekin = 2.36285714663855 |  erot = 2.036005929661 | epot = -21.3279144058001 | etot = -16.9290513295006
878000  ekin = 2.12543608141368 |  erot = 1.75442210002794 | epot = -21.3225487572348 | etot = -17.4426905757932
879000  ekin = 2.27283239224876 |  erot = 2.70186511894803 | epot = -21.3124243745064 | etot = -16.3377268633096
880000  ekin = 2.68477293779859 |  erot = 2.77341018951834 | epot = -21.3544902274222 | etot = -15.8963071001053
881000  ekin = 2.87581138753759 |  erot = 2.33631707903057 | epot = -21.330399862467 | etot = -16.1182713958988
882000  ekin = 2.3286795198909 |  erot = 2.16799605433164 | epot = -21.25964008372 | etot = -16.7629645094974
883000  ekin = 2.36016075059912 |  erot = 1.97853915282771 | epot = -21.0668204006881 | etot = -16.7281204972613
884000  ekin = 2.52365942577107 |  erot = 2.24976084040446 | epot = -20.9653280828805 | etot = -16.191907816705
885000  ekin = 2.84734342605207 |  erot = 2.26485201008783 | epot = -20.9652017220512 | etot = -15.8530062859113
886000  ekin = 3.18250292594555 |  erot = 1.73451408298307 | epot = -21.0018071240468 | etot = -16.0847901151182
887000  ekin = 2.68810301741898 |  erot = 2.50208813779432 | epot = -21.0684744202113 | etot = -15.878283264998
888000  ekin = 2.15240565341107 |  erot = 2.83219210215604 | epot = -21.1767699295518 | etot = -16.1921721739847
889000  ekin = 2.16923637104046 |  erot = 2.20209706465088 | epot = -21.1021053306932 | etot = -16.7307718950019
890000  ekin = 1.7855023510616 |  erot = 2.98359580087557 | epot = -21.1862135178402 | etot = -16.4171153659031
891000  ekin = 1.64893562703222 |  erot = 2.27727861261825 | epot = -21.3185718288916 | etot = -17.3923575892411
892000  ekin = 1.96573403811713 |  erot = 2.36272783048894 | epot = -21.459073017988 | etot = -17.1306111493819
893000  ekin = 1.79366158034469 |  erot = 1.8414245936827 | epot = -21.5466572595161 | etot = -17.9115710854887
894000  ekin = 2.81388625610773 |  erot = 2.80751276121754 | epot = -21.653645549411 | etot = -16.0322465320857
895000  ekin = 2.00720208466152 |  erot = 2.75365533683677 | epot = -21.7495268499499 | etot = -16.9886694284516
896000  ekin = 1.6504129469732 |  erot = 2.56279209882525 | epot = -21.8921291347682 | etot = -17.6789240889697
897000  ekin = 1.78028626356388 |  erot = 2.35359760186793 | epot = -22.0277295687316 | etot = -17.8938457032998
898000  ekin = 1.85084740655105 |  erot = 2.39311858936893 | epot = -22.0484278013109 | etot = -17.804461805391
899000  ekin = 1.66159541585127 |  erot = 3.04237586636532 | epot = -21.9567167335553 | etot = -17.2527454513387
900000  ekin = 2.15147578839776 |  erot = 2.62380976965387 | epot = -21.9142539059027 | etot = -17.1389683478511
901000  ekin = 2.41284637562283 |  erot = 2.69705294858772 | epot = -21.9824283113928 | etot = -16.8725289871823
902000  ekin = 2.57612159273654 |  erot = 2.40607700278042 | epot = -21.9951115024172 | etot = -17.0129129069002
903000  ekin = 2.40399270595578 |  erot = 2.40563977691886 | epot = -22.0217108129385 | etot = -17.2120783300639
904000  ekin = 1.99424328949364 |  erot = 3.12247316074079 | epot = -22.0941051678023 | etot = -16.9773887175679
905000  ekin = 2.45187750521127 |  erot = 2.11892854013094 | epot = -22.0607781456761 | etot = -17.4899721003339
906000  ekin = 2.69425177422441 |  erot = 1.66991173750643 | epot = -22.0544281667485 | etot = -17.6902646550177
907000  ekin = 2.57312994796075 |  erot = 2.16897016056236 | epot = -22.0362779601713 | etot = -17.2941778516482
908000  ekin = 2.96409406517859 |  erot = 2.4024711800449 | epot = -22.0175634304182 | etot = -16.6509981851947
909000  ekin = 3.12776536145526 |  erot = 2.11994277048498 | epot = -22.0594136296836 | etot = -16.8117054977433
910000  ekin = 2.92235459450191 |  erot = 3.50321314826196 | epot = -22.1261319680945 | etot = -15.7005642253306
911000  ekin = 1.85367265839013 |  erot = 2.7340677155879 | epot = -22.1669720947937 | etot = -17.5792317208157
912000  ekin = 2.6441002333698 |  erot = 1.86322369928707 | epot = -22.1988213519214 | etot = -17.6914974192646
913000  ekin = 2.46819903214737 |  erot = 2.03086240531084 | epot = -22.3188294931139 | etot = -17.8197680556557
914000  ekin = 2.0189364132938 |  erot = 2.94279285834543 | epot = -22.3498562089308 | etot = -17.3881269372916
915000  ekin = 2.82747738433327 |  erot = 2.11633807308138 | epot = -22.3626846124428 | etot = -17.4188691550282
916000  ekin = 2.54297245214782 |  erot = 3.23310309863579 | epot = -22.4639551563544 | etot = -16.6878796055708
917000  ekin = 2.317284459617 |  erot = 2.24259984965456 | epot = -22.4622375561737 | etot = -17.9023532469021
918000  ekin = 2.08741226822699 |  erot = 2.05691148612588 | epot = -22.3736961837371 | etot = -18.2293724293842
919000  ekin = 2.60375298745589 |  erot = 2.38992198070848 | epot = -22.381600437649 | etot = -17.3879254694846
920000  ekin = 3.21906968424263 |  erot = 2.75034755110955 | epot = -22.4644247832706 | etot = -16.4950075479185
921000  ekin = 2.67870624565115 |  erot = 1.98396423697626 | epot = -22.5250790361652 | etot = -17.8624085535378
922000  ekin = 1.43278887121421 |  erot = 1.5212533647767 | epot = -22.5927230801778 | etot = -19.6386808441869
923000  ekin = 1.69060624417004 |  erot = 1.88306141910809 | epot = -22.6640058777009 | etot = -19.0903382144228
924000  ekin = 2.14344220825837 |  erot = 1.52268950055615 | epot = -22.6406273602344 | etot = -18.9744956514199
925000  ekin = 2.26099137202492 |  erot = 1.33050593263702 | epot = -22.5231436368656 | etot = -18.9316463322036
926000  ekin = 2.00910763305932 |  erot = 2.07375747532886 | epot = -22.4432067940419 | etot = -18.3603416856537
927000  ekin = 2.53244780866363 |  erot = 1.99782770480987 | epot = -22.5729932869624 | etot = -18.0427177734889
928000  ekin = 2.57222338912656 |  erot = 2.50502398255852 | epot = -22.7398443943546 | etot = -17.6625970226695
929000  ekin = 2.6604125156482 |  erot = 1.82856993040844 | epot = -22.7887212302343 | etot = -18.2997387841776
930000  ekin = 2.41305450735431 |  erot = 2.00588068310628 | epot = -22.8018421191433 | etot = -18.3829069286827
931000  ekin = 3.02564328504603 |  erot = 2.11587474765859 | epot = -22.7554011904621 | etot = -17.6138831577575
932000  ekin = 2.345493847807 |  erot = 1.88252953078422 | epot = -22.8017329710419 | etot = -18.5737095924506
933000  ekin = 2.1694502869689 |  erot = 2.85662500627744 | epot = -22.8226969360083 | etot = -17.796621642762
934000  ekin = 2.17146721978253 |  erot = 2.11951749144879 | epot = -22.863822849274 | etot = -18.5728381380427
935000  ekin = 2.34458616912959 |  erot = 2.23416576036772 | epot = -22.8574077017674 | etot = -18.2786557722701
936000  ekin = 2.28175701976408 |  erot = 2.53013652057632 | epot = -22.9767476232764 | etot = -18.164854082936
937000  ekin = 2.30615675948239 |  erot = 2.82847988543263 | epot = -23.0701138758201 | etot = -17.9354772309051
938000  ekin = 2.44231188769576 |  erot = 2.0074347584303 | epot = -23.1347662810948 | etot = -18.6850196349687
939000  ekin = 2.97733385945386 |  erot = 2.10203628017719 | epot = -23.1190097237646 | etot = -18.0396395841336
940000  ekin = 3.7421677147709 |  erot = 2.68152697601896 | epot = -23.0475806158046 | etot = -16.6238859250147
941000  ekin = 3.11295236744588 |  erot = 2.28688684379554 | epot = -22.9429748609955 | etot = -17.5431356497541
942000  ekin = 3.46623937507365 |  erot = 1.87520710821393 | epot = -22.9025531718167 | etot = -17.5611066885292
943000  ekin = 3.79173660111055 |  erot = 2.70947594186532 | epot = -22.8673682470227 | etot = -16.3661557040469
944000  ekin = 2.65981718352589 |  erot = 2.74921677045581 | epot = -22.8292657284419 | etot = -17.4202317744602
945000  ekin = 2.54666185018866 |  erot = 2.02257137114126 | epot = -22.723461570169 | etot = -18.154228348839
946000  ekin = 2.4639439434652 |  erot = 1.67047296565225 | epot = -22.5521488157529 | etot = -18.4177319066355
947000  ekin = 2.40802147360554 |  erot = 1.99436728079209 | epot = -22.4558507483505 | etot = -18.0534619939529
948000  ekin = 3.53638943439814 |  erot = 2.58008822568542 | epot = -22.320526737886 | etot = -16.2040490778025
949000  ekin = 2.98836642878581 |  erot = 2.43483192716865 | epot = -22.1062186298424 | etot = -16.6830202738879
950000  ekin = 1.8506029036585 |  erot = 3.01144415000371 | epot = -21.9461665434677 | etot = -17.0841194898055
951000  ekin = 2.24126333899115 |  erot = 2.360964782598 | epot = -21.903362150983 | etot = -17.3011340293938
952000  ekin = 2.17635665089897 |  erot = 1.66171020386367 | epot = -21.8837115918785 | etot = -18.0456447371159
953000  ekin = 2.32438986511484 |  erot = 1.96772774373572 | epot = -21.8620448131731 | etot = -17.5699272043226
954000  ekin = 1.49063234940533 |  erot = 3.34928565739799 | epot = -21.7945452107542 | etot = -16.9546272039509
955000  ekin = 1.88418951039555 |  erot = 2.69014814861619 | epot = -21.7200686498238 | etot = -17.1457309908121
956000  ekin = 1.69291601426871 |  erot = 2.1645662569751 | epot = -21.67000557149 | etot = -17.8125233002462
957000  ekin = 1.73501465937615 |  erot = 1.64299266035092 | epot = -21.6537546166965 | etot = -18.2757472969694
958000  ekin = 1.60433119962989 |  erot = 2.19178936617743 | epot = -21.6456701616229 | etot = -17.8495495958156
959000  ekin = 2.59325237116392 |  erot = 2.48228488776355 | epot = -21.6578286055141 | etot = -16.5822913465866
960000  ekin = 2.55452313966818 |  erot = 2.05772019404723 | epot = -21.6609487080123 | etot = -17.0487053742969
961000  ekin = 2.2782724554851 |  erot = 2.17961583407472 | epot = -21.6530067200073 | etot = -17.1951184304475
962000  ekin = 1.6603646541701 |  erot = 3.50991264012086 | epot = -21.6636215038227 | etot = -16.4933442095318
963000  ekin = 1.98983107474213 |  erot = 1.50487996807377 | epot = -21.607445249844 | etot = -18.1127342070281
964000  ekin = 2.1801653377091 |  erot = 2.29029841094579 | epot = -21.5573031984776 | etot = -17.0868394498227
965000  ekin = 2.10786877123582 |  erot = 2.32216595776003 | epot = -21.5484811250514 | etot = -17.1184463960556
966000  ekin = 3.14104688246034 |  erot = 3.41837947669167 | epot = -21.5824220489405 | etot = -15.0229956897885
967000  ekin = 3.05692240987348 |  erot = 2.17321453760644 | epot = -21.5249732131507 | etot = -16.2948362656708
968000  ekin = 2.05076027636617 |  erot = 2.141245653077 | epot = -21.4468841606018 | etot = -17.2548782311586
969000  ekin = 2.21533565656662 |  erot = 2.21730696558968 | epot = -21.3811315205225 | etot = -16.9484888983662
970000  ekin = 2.44655838306382 |  erot = 2.63914635686249 | epot = -21.3181700854761 | etot = -16.2324653455498
971000  ekin = 2.47235597423318 |  erot = 2.68612281916571 | epot = -21.3025617859469 | etot = -16.1440829925481
972000  ekin = 3.18960516897918 |  erot = 2.4589698172248 | epot = -21.2512287640521 | etot = -15.6026537778481
973000  ekin = 3.35448615918215 |  erot = 2.61012714046349 | epot = -21.181846043468 | etot = -15.2172327438223
974000  ekin = 2.7109696336397 |  erot = 2.1297885006349 | epot = -21.0805156487717 | etot = -16.2397575144971
975000  ekin = 1.81281242624849 |  erot = 2.07588193669119 | epot = -20.9951812472117 | etot = -17.106486884272
976000  ekin = 2.37607937449446 |  erot = 1.37987096361839 | epot = -20.8918377653923 | etot = -17.1358874272794
977000  ekin = 2.85561145367248 |  erot = 3.03617871388547 | epot = -21.0084630734088 | etot = -15.1166729058509
978000  ekin = 3.13898187042855 |  erot = 3.01123432026038 | epot = -21.0722585106273 | etot = -14.9220423199384
979000  ekin = 3.64209617929686 |  erot = 2.4613128172747 | epot = -20.9585875203481 | etot = -14.8551785237765
980000  ekin = 3.43702129901554 |  erot = 3.27336305014796 | epot = -20.899855999005 | etot = -14.1894716498415
981000  ekin = 2.95818777403214 |  erot = 2.46809133944498 | epot = -20.986328819352 | etot = -15.5600497058749
982000  ekin = 2.05833121455625 |  erot = 2.23576836357638 | epot = -21.0416114809553 | etot = -16.7475119028227
983000  ekin = 2.55525912528627 |  erot = 1.97278253435511 | epot = -21.0429704338791 | etot = -16.5149287742377
984000  ekin = 2.32118186028681 |  erot = 2.58283774029526 | epot = -21.0821921217354 | etot = -16.1781725211533
985000  ekin = 2.30313916872571 |  erot = 3.01566259403689 | epot = -21.1725352249725 | etot = -15.8537334622099
986000  ekin = 2.02463184559008 |  erot = 2.17884306421032 | epot = -21.2738965581199 | etot = -17.0704216483195
987000  ekin = 2.38600679522579 |  erot = 1.60423682215952 | epot = -21.2561563051098 | etot = -17.2659126877245
988000  ekin = 2.73915294843957 |  erot = 2.71140680891282 | epot = -21.1542786885715 | etot = -15.7037189312192
989000  ekin = 2.26683184377889 |  erot = 2.87747329962287 | epot = -21.0926545062066 | etot = -15.9483493628049
990000  ekin = 2.20939931770178 |  erot = 2.59683743799389 | epot = -21.0191461353302 | etot = -16.2129093796345
991000  ekin = 2.18257135988803 |  erot = 2.54653688104725 | epot = -20.9118811472645 | etot = -16.1827729063292
992000  ekin = 1.69790066377666 |  erot = 2.49595921156529 | epot = -20.9746634507321 | etot = -16.7808035753901
993000  ekin = 1.37402706728143 |  erot = 1.97741928391721 | epot = -21.0641158581349 | etot = -17.7126695069363
994000  ekin = 1.46483900547317 |  erot = 2.95778549110336 | epot = -21.1249692907517 | etot = -16.7023447941752
995000  ekin = 2.31288950128446 |  erot = 1.68061050856792 | epot = -21.1893866548865 | etot = -17.1958866450341
996000  ekin = 2.91614737481324 |  erot = 2.86807519675625 | epot = -21.1735004751445 | etot = -15.389277903575
997000  ekin = 3.14120073227004 |  erot = 2.13892252916595 | epot = -21.1699471293629 | etot = -15.8898238679269
998000  ekin = 2.24295362120275 |  erot = 3.02318042682039 | epot = -21.1015606373099 | etot = -15.8354265892868
999000  ekin = 2.61556215485409 |  erot = 1.7387146959943 | epot = -21.020005228283 | etot = -16.6657283774346
1000000  ekin = 2.3401430299422 |  erot = 2.86437072240568 | epot = -21.0184376568778 | etot = -15.8139239045299
 1000000   0.10400636   -1.3745197  0.060867347   -1.1673934 0.00013768636 
Loop time of 34.1939 on 4 procs for 1000000 steps with 16 atoms

Performance: 25267.628 tau/day, 29244.940 timesteps/s
99.5% CPU use with 4 MPI tasks x no OpenMP threads

MPI task timing breakdown:
Section |  min time  |  avg time  |  max time  |%varavg| %total
---------------------------------------------------------------
Pair    | 0.63601    | 12.258     | 23.186     | 288.0 | 35.85
Bond    | 0.0885     | 0.40672    | 0.6818     |  42.6 |  1.19
Neigh   | 0          | 0          | 0          |   0.0 |  0.00
Comm    | 2.65       | 2.786      | 2.9058     |   5.7 |  8.15
Output  | 1.9e-05    | 2.575e-05  | 2.8e-05    |   0.0 |  0.00
Modify  | 0.21592    | 2.7491     | 5.2145     | 132.7 |  8.04
Other   |            | 15.99      |            |       | 46.78

Nlocal:    4.0 ave 8.0 max 0.0 min
Histogram: 1 1 0 0 0 0 0 0 1 1
Nghost:    11.0 ave 14.0 max 8.0 min
Histogram: 1 1 0 0 0 0 0 0 1 1
Neighs:    41.75 ave 81.0 max 0.0 min
Histogram: 1 1 0 0 0 0 0 0 0 2

Total # of neighbors = 167
Ave neighs/atom = 10.4375
Ave special neighs/atom = 3.75
Neighbor list builds = 0
Dangerous builds = 0

#write_restart config.${number}.*
Total wall time: 0:00:34
