LAMMPS (30 Jun 2020)
variable number	equal 2
variable ofreq	equal 1000
variable efreq	equal 1000
variable T      equal 0.1

units lj

dimension 3

newton off

boundary  p p p

atom_style hybrid bond ellipsoid
WARNING: Atom_style hybrid defines both pertype and peratom masses - both must be set, only peratom masses will be used (../atom_vec_hybrid.cpp:156)
atom_modify sort 0 1.0

# Pair interactions require lists of neighbours to be calculated
neighbor 1.0 bin
neigh_modify every 1 delay 0 check yes

read_data data.duplex2
  orthogonal box = (-20 -20 -20) to (20 20 20)
  1 by 1 by 1 MPI processor grid
  reading atoms ...
  16 atoms
  reading velocities ...
  16 velocities
  16 ellipsoids
  scanning bonds ...
  2 = max bonds/atom
  reading bonds ...
  13 bonds
  2 = max # of 1-2 neighbors
  2 = max # of 1-3 neighbors
  4 = max # of 1-4 neighbors
  6 = max # of special neighbors
  special bonds CPU = 0.000 seconds
  read_data CPU = 0.002 seconds

set atom * mass 3.1575
  16 settings made for mass

group all type 1 4
16 atoms in group all

# oxDNA2 bond interactions - FENE backbone
bond_style oxdna2/fene
bond_coeff * 2.0 0.25 0.7564
special_bonds lj 0 1 1
  2 = max # of 1-2 neighbors
  2 = max # of 1-3 neighbors
  4 = max # of 1-4 neighbors
  6 = max # of special neighbors
  special bonds CPU = 0.000 seconds

# oxDNA2 pair interactions
pair_style hybrid/overlay oxdna2/excv oxdna2/stk oxdna2/hbond oxdna2/xstk oxdna2/coaxstk oxdna2/dh
pair_coeff * * oxdna2/excv    2.0 0.7 0.675 2.0 0.515 0.5 2.0 0.33 0.32
pair_coeff * * oxdna2/stk     seqav ${T} 1.3523 2.6717 6.0 0.4 0.9 0.32 0.75 1.3 0 0.8 0.9 0 0.95 0.9 0 0.95 2.0 0.65 2.0 0.65
pair_coeff * * oxdna2/stk     seqav 0.1 1.3523 2.6717 6.0 0.4 0.9 0.32 0.75 1.3 0 0.8 0.9 0 0.95 0.9 0 0.95 2.0 0.65 2.0 0.65
pair_coeff * * oxdna2/hbond   seqav 0.0 8.0 0.4 0.75 0.34 0.7 1.5 0 0.7 1.5 0 0.7 1.5 0 0.7 0.46 3.141592653589793 0.7 4.0 1.5707963267948966 0.45 4.0 1.5707963267948966 0.45
pair_coeff 1 4 oxdna2/hbond   seqav 1.0678 8.0 0.4 0.75 0.34 0.7 1.5 0 0.7 1.5 0 0.7 1.5 0 0.7 0.46 3.141592653589793 0.7 4.0 1.5707963267948966 0.45 4.0 1.5707963267948966 0.45
pair_coeff 2 3 oxdna2/hbond   seqav 1.0678 8.0 0.4 0.75 0.34 0.7 1.5 0 0.7 1.5 0 0.7 1.5 0 0.7 0.46 3.141592653589793 0.7 4.0 1.5707963267948966 0.45 4.0 1.5707963267948966 0.45
pair_coeff * * oxdna2/xstk    47.5 0.575 0.675 0.495 0.655 2.25 0.791592653589793 0.58 1.7 1.0 0.68 1.7 1.0 0.68 1.5 0 0.65 1.7 0.875 0.68 1.7 0.875 0.68
pair_coeff * * oxdna2/coaxstk 58.5 0.4 0.6 0.22 0.58 2.0 2.891592653589793 0.65 1.3 0 0.8 0.9 0 0.95 0.9 0 0.95 40.0 3.116592653589793
pair_coeff * * oxdna2/dh      ${T} 1.0 0.815
pair_coeff * * oxdna2/dh      0.1 1.0 0.815

# NVE ensemble
#fix 1 all nve/dot
fix 1 all nve/dotc/langevin ${T} ${T} 0.03 457145 angmom 10
fix 1 all nve/dotc/langevin 0.1 ${T} 0.03 457145 angmom 10
fix 1 all nve/dotc/langevin 0.1 0.1 0.03 457145 angmom 10
#fix 1 all nve/asphere
#fix 2 all langevin ${T} ${T} 0.03 457145 angmom 10

timestep 1e-5

#comm_style tiled
#fix 3 all balance 10000 1.1 rcb
comm_modify cutoff 2.5

#compute mol all chunk/atom molecule
#compute mychunk all vcm/chunk mol
#fix 4 all ave/time 10000 1 10000 c_mychunk[1] c_mychunk[2] c_mychunk[3] file vcm.txt mode vector

#dump pos all xyz ${ofreq} traj.${number}.xyz

#compute quat all property/atom quatw quati quatj quatk
#dump quat all custom ${ofreq} quat.${number}.txt id c_quat[1] c_quat[2] c_quat[3] c_quat[4]
#dump_modify quat sort id
#dump_modify quat format line "%d  %13.6le  %13.6le  %13.6le  %13.6le"

compute erot all erotate/asphere
compute ekin all ke
compute epot all pe
variable erot equal c_erot
variable ekin equal c_ekin
variable epot equal c_epot
variable etot equal c_erot+c_ekin+c_epot
fix 5 all print ${efreq} "$(step)  ekin = ${ekin} |  erot = ${erot} | epot = ${epot} | etot = ${etot}" screen yes
fix 5 all print 1000 "$(step)  ekin = ${ekin} |  erot = ${erot} | epot = ${epot} | etot = ${etot}" screen yes

#dump out all custom ${ofreq} out.${number}.txt id x y z vx vy vz fx fy fz tqx tqy tqz
#dump_modify out sort id
#dump_modify out format line "%d   %13.6le %13.6le %13.6le  %13.6le %13.6le %13.6le  %13.6le %13.6le %13.6le  %13.6le %13.6le %13.6le"

run 1000000
Neighbor list info ...
  update every 1 steps, delay 0 steps, check yes
  max neighbors/atom: 2000, page size: 100000
  master list distance cutoff = 2.6274048
  ghost atom cutoff = 2.6274048
  binsize = 1.3137024, bins = 31 31 31
  6 neighbor lists, perpetual/occasional/extra = 6 0 0
  (1) pair oxdna2/excv, perpetual
      attributes: half, newton off
      pair build: half/bin/newtoff
      stencil: half/bin/3d/newtoff
      bin: standard
  (2) pair oxdna2/stk, perpetual, copy from (1)
      attributes: half, newton off
      pair build: copy
      stencil: none
      bin: none
  (3) pair oxdna2/hbond, perpetual, copy from (1)
      attributes: half, newton off
      pair build: copy
      stencil: none
      bin: none
  (4) pair oxdna2/xstk, perpetual, copy from (1)
      attributes: half, newton off
      pair build: copy
      stencil: none
      bin: none
  (5) pair oxdna2/coaxstk, perpetual, copy from (1)
      attributes: half, newton off
      pair build: copy
      stencil: none
      bin: none
  (6) pair oxdna2/dh, perpetual, copy from (1)
      attributes: half, newton off
      pair build: copy
      stencil: none
      bin: none
WARNING: Communication cutoff adjusted to 2.627404783947349 (../comm.cpp:690)
0  ekin = 0 |  erot = 0 | epot = -24.419271289937 | etot = -24.419271289937
Per MPI rank memory allocation (min/avg/max) = 8.146 | 8.146 | 8.146 Mbytes
Step Temp E_pair E_mol TotEng Press 
       0            0   -1.5358787 0.0096742456   -1.5262045 1.0127369e-05 
1000  ekin = 1.54282272464468 |  erot = 1.71757897250772 | epot = -24.4403527731341 | etot = -21.1799510759817
2000  ekin = 1.86109566690716 |  erot = 1.93804145796026 | epot = -24.3759816748265 | etot = -20.5768445499591
3000  ekin = 2.68769182431188 |  erot = 2.14559269500086 | epot = -24.2916556822451 | etot = -19.4583711629324
4000  ekin = 2.04710303757243 |  erot = 1.48774072590987 | epot = -24.190371461807 | etot = -20.6555276983247
5000  ekin = 1.77654023802719 |  erot = 2.53418650522101 | epot = -24.1246365663843 | etot = -19.8139098231361
6000  ekin = 3.12253137872527 |  erot = 2.04028266818831 | epot = -24.0491248750916 | etot = -18.8863108281781
7000  ekin = 3.22418765752177 |  erot = 2.72037570174022 | epot = -23.9458569915548 | etot = -18.0012936322928
8000  ekin = 2.83204202112963 |  erot = 2.67060276413776 | epot = -23.9211291529766 | etot = -18.4184843677092
9000  ekin = 2.69585642754481 |  erot = 2.59559820250212 | epot = -23.8340823338302 | etot = -18.5426277037833
10000  ekin = 2.66058119525512 |  erot = 1.95965933336077 | epot = -23.7132443170725 | etot = -19.0930037884567
11000  ekin = 2.34346978235591 |  erot = 2.0608750207871 | epot = -23.5779637301072 | etot = -19.1736189269642
12000  ekin = 2.71430148816282 |  erot = 2.08352509995717 | epot = -23.4639027443831 | etot = -18.6660761562631
13000  ekin = 2.61978682102879 |  erot = 2.37135270083347 | epot = -23.3602247027812 | etot = -18.3690851809189
14000  ekin = 3.07648218347461 |  erot = 2.513719767243 | epot = -23.2345584968309 | etot = -17.6443565461133
15000  ekin = 2.98155804409324 |  erot = 1.87766202539412 | epot = -23.0833749664029 | etot = -18.2241548969156
16000  ekin = 2.18215330648447 |  erot = 2.12621179836828 | epot = -22.9601160092383 | etot = -18.6517509043856
17000  ekin = 1.85636180329758 |  erot = 2.31208745603367 | epot = -22.8022922969143 | etot = -18.633843037583
18000  ekin = 2.26768559168017 |  erot = 1.2389450409061 | epot = -22.668242963885 | etot = -19.1616123312987
19000  ekin = 2.41605854545852 |  erot = 2.44791952321404 | epot = -22.5387095337131 | etot = -17.6747314650405
20000  ekin = 2.51175765558337 |  erot = 2.15047735899709 | epot = -22.3909493829452 | etot = -17.7287143683647
21000  ekin = 2.9915110961596 |  erot = 2.41132105778464 | epot = -22.5047205397251 | etot = -17.1018883857809
22000  ekin = 3.06067007914886 |  erot = 1.83986675392832 | epot = -22.6049739626141 | etot = -17.7044371295369
23000  ekin = 2.66061083480474 |  erot = 2.22251362834379 | epot = -22.5979829967718 | etot = -17.7148585336233
24000  ekin = 2.65745533322327 |  erot = 2.79344397300952 | epot = -22.5688422615674 | etot = -17.1179429553346
25000  ekin = 2.30064465907917 |  erot = 2.20975367009042 | epot = -22.5633453862602 | etot = -18.0529470570906
26000  ekin = 1.6282588103248 |  erot = 2.51914272742421 | epot = -22.6015006270016 | etot = -18.4540990892526
27000  ekin = 1.76021840072103 |  erot = 3.70719293889859 | epot = -22.6409357152274 | etot = -17.1735243756077
28000  ekin = 2.28064774169505 |  erot = 2.34192414128161 | epot = -22.7124772012735 | etot = -18.0899053182968
29000  ekin = 2.05883865245349 |  erot = 1.85387249117169 | epot = -22.7242388348361 | etot = -18.811527691211
30000  ekin = 2.41090888362676 |  erot = 1.86304539977924 | epot = -22.6876650006964 | etot = -18.4137107172904
31000  ekin = 2.76955959719985 |  erot = 2.74117025737249 | epot = -22.6962463526981 | etot = -17.1855164981257
32000  ekin = 2.08562644954365 |  erot = 2.81609166367558 | epot = -22.7309387973059 | etot = -17.8292206840867
33000  ekin = 2.08306771838837 |  erot = 3.6412168312574 | epot = -22.671701882331 | etot = -16.9474173326852
34000  ekin = 2.32648544880974 |  erot = 3.09480128654123 | epot = -22.5637155764017 | etot = -17.1424288410507
35000  ekin = 2.32492461599899 |  erot = 2.02549181832456 | epot = -22.4811871522455 | etot = -18.1307707179219
36000  ekin = 1.9160219633488 |  erot = 1.97655634076097 | epot = -22.3849871062612 | etot = -18.4924088021514
37000  ekin = 1.57338784336504 |  erot = 2.62872199467344 | epot = -22.3528406869297 | etot = -18.1507308488912
38000  ekin = 2.21547906806797 |  erot = 2.89630123965964 | epot = -22.3056616105138 | etot = -17.1938813027862
39000  ekin = 2.55049061085212 |  erot = 2.46486573403212 | epot = -22.2602280028032 | etot = -17.244871657919
40000  ekin = 2.25628181110086 |  erot = 1.87515483835113 | epot = -22.2878959489406 | etot = -18.1564592994886
41000  ekin = 2.46478791133629 |  erot = 2.50742704532316 | epot = -22.3614598606398 | etot = -17.3892449039804
42000  ekin = 2.69217693496336 |  erot = 2.04021031621289 | epot = -22.3505245167544 | etot = -17.6181372655782
43000  ekin = 2.40211339309477 |  erot = 1.6668978842528 | epot = -22.353509525279 | etot = -18.2844982479314
44000  ekin = 2.30891568897327 |  erot = 2.40213237626172 | epot = -22.3871831090405 | etot = -17.6761350438055
45000  ekin = 1.83275065976638 |  erot = 2.26068140262528 | epot = -22.4994702091406 | etot = -18.406038146749
46000  ekin = 1.97585087518641 |  erot = 3.0186371421683 | epot = -22.4902643909032 | etot = -17.4957763735485
47000  ekin = 1.30702141485601 |  erot = 1.99592830992523 | epot = -22.4679405795691 | etot = -19.1649908547879
48000  ekin = 2.58893650014613 |  erot = 1.90050780837457 | epot = -22.5072015009757 | etot = -18.017757192455
49000  ekin = 2.30293607053961 |  erot = 2.71885537559561 | epot = -22.5026363414396 | etot = -17.4808448953044
50000  ekin = 2.47053682632632 |  erot = 3.4216531112208 | epot = -22.415032340787 | etot = -16.5228424032399
51000  ekin = 2.70972992123879 |  erot = 1.4301791663753 | epot = -22.3056750708571 | etot = -18.165765983243
52000  ekin = 3.01390456844682 |  erot = 1.97787470370191 | epot = -22.2827481318966 | etot = -17.2909688597479
53000  ekin = 2.43796472406694 |  erot = 4.25598325759163 | epot = -22.2611961774508 | etot = -15.5672481957922
54000  ekin = 2.47286167616923 |  erot = 2.3677730007818 | epot = -22.243519577301 | etot = -17.40288490035
55000  ekin = 2.25994505035907 |  erot = 1.91872181759988 | epot = -22.2996523252175 | etot = -18.1209854572585
56000  ekin = 2.3461223108806 |  erot = 2.20461695689782 | epot = -22.370356062429 | etot = -17.8196167946505
57000  ekin = 2.51587877543148 |  erot = 2.87451767129977 | epot = -22.4723343857415 | etot = -17.0819379390103
58000  ekin = 2.49925674722554 |  erot = 2.80569508565646 | epot = -22.5303780310556 | etot = -17.2254261981736
59000  ekin = 2.75080755995156 |  erot = 2.17181245800364 | epot = -22.5861118023788 | etot = -17.6634917844236
60000  ekin = 3.2849676836621 |  erot = 1.98487748777051 | epot = -22.5789662701264 | etot = -17.3091210986938
61000  ekin = 2.4147550327795 |  erot = 1.80972454908232 | epot = -22.5207352876114 | etot = -18.2962557057495
62000  ekin = 2.82665653061546 |  erot = 1.68517769072779 | epot = -22.4078181490349 | etot = -17.8959839276917
63000  ekin = 3.70002607874218 |  erot = 1.92704686824234 | epot = -22.2626867402007 | etot = -16.6356137932161
64000  ekin = 3.61736288982706 |  erot = 3.03600982585025 | epot = -22.2659045523542 | etot = -15.6125318366769
65000  ekin = 3.40363639902008 |  erot = 3.89044870099903 | epot = -22.2274777177663 | etot = -14.9333926177472
66000  ekin = 2.94418257190202 |  erot = 2.45963190668857 | epot = -22.1363667635561 | etot = -16.7325522849655
67000  ekin = 2.60477940218663 |  erot = 2.10479080523513 | epot = -22.038362895265 | etot = -17.3287926878432
68000  ekin = 2.57158327795866 |  erot = 2.46431755410219 | epot = -22.0244560205645 | etot = -16.9885551885036
69000  ekin = 2.43845102321476 |  erot = 2.85996177461682 | epot = -22.0620804569545 | etot = -16.7636676591229
70000  ekin = 3.08348233524936 |  erot = 2.49640850205841 | epot = -22.1433186271748 | etot = -16.563427789867
71000  ekin = 2.5576093427884 |  erot = 2.50957641127969 | epot = -22.2697187660694 | etot = -17.2025330120013
72000  ekin = 1.7831483145096 |  erot = 2.52806261120156 | epot = -22.3815818044114 | etot = -18.0703708787002
73000  ekin = 1.86053585113659 |  erot = 2.3350857968737 | epot = -22.4387359493251 | etot = -18.2431143013148
74000  ekin = 3.14016175467449 |  erot = 2.13186507521504 | epot = -22.447062887188 | etot = -17.1750360572984
75000  ekin = 2.60368665360454 |  erot = 2.18680067560206 | epot = -22.4438479629936 | etot = -17.653360633787
76000  ekin = 1.9633244939079 |  erot = 1.96057322365503 | epot = -22.4704022140376 | etot = -18.5465044964747
77000  ekin = 2.09841107775422 |  erot = 2.1471460143176 | epot = -22.4970899098551 | etot = -18.2515328177832
78000  ekin = 2.49484391610508 |  erot = 2.50538853212234 | epot = -22.4472882748805 | etot = -17.4470558266531
79000  ekin = 3.10058476014063 |  erot = 2.47637061915656 | epot = -22.3558276087081 | etot = -16.7788722294109
80000  ekin = 2.52610159631253 |  erot = 1.89085194000216 | epot = -22.2951000287249 | etot = -17.8781464924102
81000  ekin = 2.34286765202483 |  erot = 2.2376810918426 | epot = -22.2933034850974 | etot = -17.71275474123
82000  ekin = 1.55517061572748 |  erot = 2.02195112736337 | epot = -22.2470532436032 | etot = -18.6699315005123
83000  ekin = 2.27421747802727 |  erot = 3.34135950792192 | epot = -22.2406089881454 | etot = -16.6250320021963
84000  ekin = 2.91603956429582 |  erot = 2.09861057599124 | epot = -22.2305865946953 | etot = -17.2159364544083
85000  ekin = 3.17172070756641 |  erot = 2.91883241347319 | epot = -22.2381339647476 | etot = -16.147580843708
86000  ekin = 3.48918734688943 |  erot = 2.79711547316344 | epot = -22.2890012778608 | etot = -16.0026984578079
87000  ekin = 3.648834525211 |  erot = 2.30637362835037 | epot = -22.2817018896603 | etot = -16.3264937360989
88000  ekin = 3.16156585935194 |  erot = 2.24503314085539 | epot = -22.2225172277202 | etot = -16.8159182275129
89000  ekin = 3.32092350591891 |  erot = 1.79966969251215 | epot = -22.1549711261911 | etot = -17.03437792776
90000  ekin = 2.41383485147934 |  erot = 2.22694238351369 | epot = -21.9352492588881 | etot = -17.294472023895
91000  ekin = 1.87769980964557 |  erot = 2.50898156232204 | epot = -21.766796868726 | etot = -17.3801154967584
92000  ekin = 2.06420930396832 |  erot = 2.23853979300919 | epot = -21.6902828653619 | etot = -17.3875337683844
93000  ekin = 1.94960374605101 |  erot = 3.00245663654886 | epot = -21.6771969695753 | etot = -16.7251365869754
94000  ekin = 2.07633340602167 |  erot = 3.38669471112637 | epot = -21.7794316475531 | etot = -16.3164035304051
95000  ekin = 2.09307446139111 |  erot = 2.0811295310408 | epot = -21.9165143849258 | etot = -17.7423103924939
96000  ekin = 2.66782345206074 |  erot = 1.87453507536254 | epot = -21.9748225431664 | etot = -17.4324640157432
97000  ekin = 1.93962158410337 |  erot = 2.81228342262069 | epot = -22.0301811391172 | etot = -17.2782761323932
98000  ekin = 1.98651083318125 |  erot = 2.05358325550364 | epot = -22.1050988415859 | etot = -18.065004752901
99000  ekin = 2.50729461715162 |  erot = 3.55227490812968 | epot = -22.2148658268239 | etot = -16.1552963015426
100000  ekin = 1.87954195221303 |  erot = 2.38994009743578 | epot = -22.3826768493088 | etot = -18.11319479966
101000  ekin = 1.66917867676911 |  erot = 3.61296864361924 | epot = -22.4122779848186 | etot = -17.1301306644303
102000  ekin = 1.63707836649616 |  erot = 3.33958463197985 | epot = -22.3664797586262 | etot = -17.3898167601502
103000  ekin = 2.00216132457488 |  erot = 2.34409134088738 | epot = -22.338100531932 | etot = -17.9918478664698
104000  ekin = 2.03704734920245 |  erot = 2.74903331701925 | epot = -22.3478074938274 | etot = -17.5617268276057
105000  ekin = 1.85601249652044 |  erot = 2.00020228548217 | epot = -22.2937670136133 | etot = -18.4375522316107
106000  ekin = 1.70582694215149 |  erot = 1.90992656339968 | epot = -22.3252996603125 | etot = -18.7095461547614
107000  ekin = 2.61183521416777 |  erot = 1.56756438600251 | epot = -22.3815585845482 | etot = -18.2021589843779
108000  ekin = 2.13345133147477 |  erot = 2.1967764492834 | epot = -22.2873637709221 | etot = -17.9571359901639
109000  ekin = 2.23517703897427 |  erot = 2.12289589403282 | epot = -22.1519605830327 | etot = -17.7938876500256
110000  ekin = 1.66340581480182 |  erot = 2.52573727214601 | epot = -22.1681066766204 | etot = -17.9789635896725
111000  ekin = 2.28529122032929 |  erot = 2.24044883756493 | epot = -22.1711980210611 | etot = -17.6454579631669
112000  ekin = 2.60405127944181 |  erot = 2.43646974545776 | epot = -22.1582164438795 | etot = -17.11769541898
113000  ekin = 2.40208651796091 |  erot = 3.06270264515793 | epot = -22.1587051510952 | etot = -16.6939159879764
114000  ekin = 2.34302229470158 |  erot = 2.30426477746864 | epot = -22.1439772736805 | etot = -17.4966902015103
115000  ekin = 1.69616053999229 |  erot = 3.11049212247371 | epot = -22.1736739038021 | etot = -17.3670212413361
116000  ekin = 1.51961045217859 |  erot = 2.22203808801726 | epot = -22.2355447345615 | etot = -18.4938961943657
117000  ekin = 1.69355164638512 |  erot = 2.33913072714747 | epot = -22.2671845473364 | etot = -18.2345021738038
118000  ekin = 2.1960991163694 |  erot = 2.33815079858085 | epot = -22.2453229868293 | etot = -17.7110730718791
119000  ekin = 2.55982892523823 |  erot = 2.47378749563683 | epot = -22.2824155531543 | etot = -17.2487991322793
120000  ekin = 1.76091001620491 |  erot = 2.1741296357231 | epot = -22.2369948282136 | etot = -18.3019551762855
121000  ekin = 2.80671234452976 |  erot = 2.30128219469303 | epot = -22.2260257995407 | etot = -17.1180312603179
122000  ekin = 3.23136903340218 |  erot = 3.30036165167127 | epot = -22.2515019863338 | etot = -15.7197713012603
123000  ekin = 2.8561114897291 |  erot = 3.24294818442618 | epot = -22.2018342366988 | etot = -16.1027745625435
124000  ekin = 2.14842162472016 |  erot = 2.7693802805091 | epot = -22.0303368839078 | etot = -17.1125349786785
125000  ekin = 1.83317468651689 |  erot = 1.37271219749613 | epot = -21.8885764971633 | etot = -18.6826896131502
126000  ekin = 2.45181092117661 |  erot = 3.08753876167365 | epot = -21.8912653158441 | etot = -16.3519156329938
127000  ekin = 2.39800706812202 |  erot = 2.35255982488708 | epot = -21.8786845575463 | etot = -17.1281176645372
128000  ekin = 2.74926309150919 |  erot = 1.83113656927751 | epot = -21.8947833530885 | etot = -17.3143836923018
129000  ekin = 2.71720149007507 |  erot = 2.89223888586493 | epot = -21.888738829699 | etot = -16.279298453759
130000  ekin = 3.27436175016883 |  erot = 2.48649258221715 | epot = -21.9126051843054 | etot = -16.1517508519195
131000  ekin = 2.72616313783309 |  erot = 2.50345885992118 | epot = -21.9360367126892 | etot = -16.7064147149349
132000  ekin = 2.62485920187038 |  erot = 3.40341903141799 | epot = -21.9656374341347 | etot = -15.9373592008463
133000  ekin = 2.0325764784668 |  erot = 2.89126702157637 | epot = -21.9394295827134 | etot = -17.0155860826702
134000  ekin = 1.62930019559461 |  erot = 1.67001909466596 | epot = -21.900605038258 | etot = -18.6012857479974
135000  ekin = 2.45037614605464 |  erot = 2.12340550038047 | epot = -21.8772864662343 | etot = -17.3035048197992
136000  ekin = 2.29225558372926 |  erot = 3.05501283629331 | epot = -21.7842467542129 | etot = -16.4369783341904
137000  ekin = 2.71619061857373 |  erot = 2.45779692364663 | epot = -21.6204232926258 | etot = -16.4464357504054
138000  ekin = 3.30410447428295 |  erot = 1.73171704445596 | epot = -21.609821441089 | etot = -16.57399992235
139000  ekin = 2.77055079544968 |  erot = 1.72559500013771 | epot = -21.7720020827881 | etot = -17.2758562872007
140000  ekin = 2.72528465654122 |  erot = 2.46411811431296 | epot = -21.8660237331067 | etot = -16.6766209622525
141000  ekin = 2.78705568892822 |  erot = 2.44850479765533 | epot = -21.8731300806739 | etot = -16.6375695940903
142000  ekin = 3.51931490090282 |  erot = 3.48544343137045 | epot = -21.8228511941687 | etot = -14.8180928618954
143000  ekin = 2.59719776759383 |  erot = 2.02350560733262 | epot = -21.8096443263653 | etot = -17.1889409514388
144000  ekin = 3.74308404358447 |  erot = 3.03564456771536 | epot = -21.8085900408448 | etot = -15.029861429545
145000  ekin = 3.62659723153861 |  erot = 2.70926904415538 | epot = -21.7250027836497 | etot = -15.3891365079557
146000  ekin = 3.87407885398524 |  erot = 2.49638573472853 | epot = -21.7001271601514 | etot = -15.3296625714376
147000  ekin = 3.27961687549993 |  erot = 2.08263345163676 | epot = -21.5857141934645 | etot = -16.2234638663278
148000  ekin = 2.49678519214407 |  erot = 1.65068656472224 | epot = -21.3397240410766 | etot = -17.1922522842103
149000  ekin = 2.74324871192595 |  erot = 2.27422609775036 | epot = -21.1619902393526 | etot = -16.1445154296762
150000  ekin = 2.63493686559431 |  erot = 2.89891054679402 | epot = -21.0669519346708 | etot = -15.5331045222825
151000  ekin = 2.08067982512823 |  erot = 2.11598312084942 | epot = -20.9754508944265 | etot = -16.7787879484489
152000  ekin = 2.41049293269485 |  erot = 2.60865966337995 | epot = -20.8324522723453 | etot = -15.8132996762705
153000  ekin = 2.11771886644781 |  erot = 2.2612193836258 | epot = -20.8689010813857 | etot = -16.4899628313121
154000  ekin = 2.34048807401985 |  erot = 2.61000659349907 | epot = -20.9736996291527 | etot = -16.0232049616338
155000  ekin = 2.06125568994135 |  erot = 3.02657060603564 | epot = -20.9977701757737 | etot = -15.9099438797968
156000  ekin = 2.03103875451807 |  erot = 3.1844861824748 | epot = -20.8318196513999 | etot = -15.616294714407
157000  ekin = 2.34991277428576 |  erot = 1.91129748769811 | epot = -20.8011437796089 | etot = -16.539933517625
158000  ekin = 2.16899004769298 |  erot = 2.47810803275591 | epot = -20.8955785127325 | etot = -16.2484804322837
159000  ekin = 2.86703441642079 |  erot = 2.2901833721065 | epot = -21.0162479016245 | etot = -15.8590301130972
160000  ekin = 2.19810986416329 |  erot = 2.37335510649732 | epot = -21.1025044999173 | etot = -16.5310395292567
161000  ekin = 2.13983549244144 |  erot = 2.44280202062021 | epot = -21.204645979403 | etot = -16.6220084663414
162000  ekin = 1.75007978204456 |  erot = 2.67089623079416 | epot = -21.2587160217762 | etot = -16.8377400089375
163000  ekin = 2.22497705720617 |  erot = 2.03752809750894 | epot = -21.4065038175883 | etot = -17.1439986628732
164000  ekin = 2.74622171092286 |  erot = 1.42968886006587 | epot = -21.5464343754361 | etot = -17.3705238044474
165000  ekin = 2.65892253082074 |  erot = 2.28893669468687 | epot = -21.5542883684299 | etot = -16.6064291429223
166000  ekin = 3.28497940714848 |  erot = 2.38441021083685 | epot = -21.4831502209917 | etot = -15.8137606030064
167000  ekin = 3.03302043173269 |  erot = 2.0371493034983 | epot = -21.552220768162 | etot = -16.482051032931
168000  ekin = 3.16647476932142 |  erot = 1.85328814856002 | epot = -21.6005552665342 | etot = -16.5807923486528
169000  ekin = 2.24705103875432 |  erot = 2.66949801663851 | epot = -21.5155875234663 | etot = -16.5990384680735
170000  ekin = 2.43835864940733 |  erot = 2.49651566577791 | epot = -21.3706724967315 | etot = -16.4357981815463
171000  ekin = 1.91174741927943 |  erot = 2.39538037263751 | epot = -21.2808048923853 | etot = -16.9736771004683
172000  ekin = 2.88344950373025 |  erot = 3.21569142102288 | epot = -21.2429879136862 | etot = -15.1438469889331
173000  ekin = 2.75630897924877 |  erot = 2.14100943461477 | epot = -21.2680309804945 | etot = -16.370712566631
174000  ekin = 2.45420058414632 |  erot = 2.2332035837858 | epot = -21.3153962561354 | etot = -16.6279920882033
175000  ekin = 2.84815372525752 |  erot = 2.37845124629735 | epot = -21.2811665321372 | etot = -16.0545615605823
176000  ekin = 2.13811988096562 |  erot = 1.89602404006214 | epot = -21.3483452704796 | etot = -17.3142013494519
177000  ekin = 2.57845153047441 |  erot = 2.74101209600055 | epot = -21.3192781201108 | etot = -15.9998144936358
178000  ekin = 1.8362026158725 |  erot = 2.58532929872161 | epot = -21.2513623538897 | etot = -16.8298304392955
179000  ekin = 2.51664198429652 |  erot = 2.38535598715308 | epot = -21.3137585755744 | etot = -16.4117606041248
180000  ekin = 1.88870242540222 |  erot = 2.46307032082017 | epot = -21.4708809842583 | etot = -17.1191082380359
181000  ekin = 1.7573063317019 |  erot = 3.04206214925082 | epot = -21.4638802199926 | etot = -16.6645117390399
182000  ekin = 1.56372006631669 |  erot = 2.0482446459855 | epot = -21.4014353137661 | etot = -17.7894706014639
183000  ekin = 2.00375583158539 |  erot = 2.82586034021598 | epot = -21.4815637987258 | etot = -16.6519476269244
184000  ekin = 2.68318475320728 |  erot = 2.43685976384415 | epot = -21.5996781237133 | etot = -16.4796336066618
185000  ekin = 2.99744907214255 |  erot = 3.19569112714916 | epot = -21.6712604055259 | etot = -15.4781202062342
186000  ekin = 3.18086271329103 |  erot = 2.43694344502803 | epot = -21.700014527818 | etot = -16.0822083694989
187000  ekin = 2.64763078555984 |  erot = 3.43034775414789 | epot = -21.6568302519365 | etot = -15.5788517122288
188000  ekin = 2.86104386361227 |  erot = 3.05673704653031 | epot = -21.5997264275815 | etot = -15.6819455174389
189000  ekin = 2.64279940222614 |  erot = 1.81959052043828 | epot = -21.5371949170904 | etot = -17.074804994426
190000  ekin = 2.21943570515013 |  erot = 1.84825749826526 | epot = -21.498320200761 | etot = -17.4306269973456
191000  ekin = 2.27416889747069 |  erot = 2.0662909239644 | epot = -21.4373070550835 | etot = -17.0968472336484
192000  ekin = 2.27339562400024 |  erot = 3.1084542715957 | epot = -21.4737141732368 | etot = -16.0918642776409
193000  ekin = 1.95136295247808 |  erot = 1.8894092381771 | epot = -21.4612356964994 | etot = -17.6204635058442
194000  ekin = 2.46233473019503 |  erot = 2.02708794085746 | epot = -21.3374302301573 | etot = -16.8480075591048
195000  ekin = 3.12435057559399 |  erot = 2.09826675864205 | epot = -21.2738979568211 | etot = -16.0512806225851
196000  ekin = 2.70015718375597 |  erot = 2.5128575582669 | epot = -21.1930998936957 | etot = -15.9800851516728
197000  ekin = 2.55038574692144 |  erot = 2.07531410993401 | epot = -21.0258757995296 | etot = -16.4001759426742
198000  ekin = 2.70688003284557 |  erot = 1.79490240776514 | epot = -21.0190268968 | etot = -16.5172444561893
199000  ekin = 2.5693949791157 |  erot = 2.33188600887061 | epot = -21.0320560569424 | etot = -16.1307750689561
200000  ekin = 2.89114428387874 |  erot = 1.42209502781995 | epot = -21.0251552631878 | etot = -16.7119159514891
201000  ekin = 2.68221791581645 |  erot = 1.55638461968673 | epot = -21.0246765678572 | etot = -16.786074032354
202000  ekin = 2.26600119742896 |  erot = 2.24264658465156 | epot = -20.966213452201 | etot = -16.4575656701204
203000  ekin = 2.11315541926328 |  erot = 2.03104522736692 | epot = -20.8925289725737 | etot = -16.7483283259435
204000  ekin = 2.10598805427349 |  erot = 1.8944018028419 | epot = -20.9063507999493 | etot = -16.9059609428339
205000  ekin = 1.32797127466544 |  erot = 2.12796235386513 | epot = -20.9546930460646 | etot = -17.4987594175341
206000  ekin = 1.38118094354854 |  erot = 2.25600442653048 | epot = -20.9248899100655 | etot = -17.2877045399865
207000  ekin = 1.89847617306066 |  erot = 1.80813925076998 | epot = -21.0282211762941 | etot = -17.3216057524635
208000  ekin = 1.82509354299281 |  erot = 3.24652806561536 | epot = -21.2820126865175 | etot = -16.2103910779094
209000  ekin = 2.8041625285186 |  erot = 2.34850039993979 | epot = -21.4041461087816 | etot = -16.2514831803232
210000  ekin = 3.17398766473313 |  erot = 3.11871773439181 | epot = -21.4808635207107 | etot = -15.1881581215857
211000  ekin = 2.47010820072588 |  erot = 2.09528143227157 | epot = -21.6056990668499 | etot = -17.0403094338525
212000  ekin = 2.36989560577724 |  erot = 1.93500906628112 | epot = -21.6842526468772 | etot = -17.3793479748188
213000  ekin = 1.90065800582391 |  erot = 2.51889248061745 | epot = -21.7615899372457 | etot = -17.3420394508043
214000  ekin = 1.97423172880181 |  erot = 2.4980598759111 | epot = -21.7892459673185 | etot = -17.3169543626056
215000  ekin = 1.97168935774729 |  erot = 3.17151545304801 | epot = -21.7903331088791 | etot = -16.6471282980838
216000  ekin = 1.89146772443534 |  erot = 1.88107923457565 | epot = -21.7542848995033 | etot = -17.9817379404923
217000  ekin = 2.06396631795602 |  erot = 1.95272203440507 | epot = -21.8104294829847 | etot = -17.7937411306236
218000  ekin = 2.31997702749623 |  erot = 1.68971395254107 | epot = -21.7623319926371 | etot = -17.7526410125998
219000  ekin = 2.46685879548778 |  erot = 2.20801864234035 | epot = -21.7696248586177 | etot = -17.0947474207895
220000  ekin = 1.73830824437668 |  erot = 3.03764928140501 | epot = -21.7250063140519 | etot = -16.9490487882702
221000  ekin = 1.77900155382619 |  erot = 2.78474425452726 | epot = -21.7358321600373 | etot = -17.1720863516838
222000  ekin = 2.62686448871845 |  erot = 2.86058966709522 | epot = -21.6939796138854 | etot = -16.2065254580717
223000  ekin = 3.04452612483164 |  erot = 1.94024942191071 | epot = -21.7122663420572 | etot = -16.7274907953149
224000  ekin = 2.718937145138 |  erot = 2.42480319358565 | epot = -21.6802900448522 | etot = -16.5365497061286
225000  ekin = 2.02691300626945 |  erot = 3.37602856858266 | epot = -21.6857094668298 | etot = -16.2827678919777
226000  ekin = 2.36557492667929 |  erot = 2.39082460572007 | epot = -21.7553390008386 | etot = -16.9989394684392
227000  ekin = 2.73620885172714 |  erot = 2.63025691267084 | epot = -21.818043188201 | etot = -16.451577423803
228000  ekin = 2.08980697083006 |  erot = 2.26883720629955 | epot = -21.880544956506 | etot = -17.5219007793764
229000  ekin = 1.80144547388731 |  erot = 1.79654911472853 | epot = -21.9628584317261 | etot = -18.3648638431102
230000  ekin = 2.77451167134285 |  erot = 2.22776499369623 | epot = -21.9854420760081 | etot = -16.983165410969
231000  ekin = 3.15850107875523 |  erot = 2.7756116636273 | epot = -21.9726828438209 | etot = -16.0385701014384
232000  ekin = 1.86960416304709 |  erot = 1.70620936865288 | epot = -22.0086347294912 | etot = -18.4328211977913
233000  ekin = 1.75933775527383 |  erot = 1.56532056032101 | epot = -21.9899365513674 | etot = -18.6652782357726
234000  ekin = 2.33698261677869 |  erot = 2.05550388448924 | epot = -21.9120502409319 | etot = -17.5195637396639
235000  ekin = 1.9573829360185 |  erot = 2.52333284033808 | epot = -21.8594642182283 | etot = -17.3787484418717
236000  ekin = 2.2617849997626 |  erot = 1.90928533288046 | epot = -21.8749689452558 | etot = -17.7038986126127
237000  ekin = 2.48853198845777 |  erot = 2.64888724219513 | epot = -21.9453266234327 | etot = -16.8079073927798
238000  ekin = 2.21038428000156 |  erot = 2.7424361712651 | epot = -22.0000238560637 | etot = -17.0472034047971
239000  ekin = 2.72852713027264 |  erot = 2.49133994747208 | epot = -22.0182378682277 | etot = -16.7983707904829
240000  ekin = 3.10387064960454 |  erot = 2.19174616842279 | epot = -21.9254266959964 | etot = -16.629809877969
241000  ekin = 3.04688823533615 |  erot = 2.65417483072321 | epot = -21.8524309009232 | etot = -16.1513678348639
242000  ekin = 2.22655833358292 |  erot = 2.33728691596105 | epot = -21.775606752996 | etot = -17.211761503452
243000  ekin = 1.53720920161825 |  erot = 2.80453969203578 | epot = -21.7184041577432 | etot = -17.3766552640892
244000  ekin = 1.91538946868823 |  erot = 2.4387847070438 | epot = -21.6211228029713 | etot = -17.2669486272392
245000  ekin = 1.95684890248336 |  erot = 2.60788082483666 | epot = -21.4938704859113 | etot = -16.9291407585913
246000  ekin = 2.07153989492555 |  erot = 2.40695304198482 | epot = -21.4521110801275 | etot = -16.9736181432171
247000  ekin = 1.55669060713796 |  erot = 2.27930456834644 | epot = -21.4122603878221 | etot = -17.5762652123377
248000  ekin = 1.83803563986085 |  erot = 2.56773709137239 | epot = -21.4358565123266 | etot = -17.0300837810933
249000  ekin = 1.79842337395836 |  erot = 2.04417900475198 | epot = -21.5079955681831 | etot = -17.6653931894727
250000  ekin = 1.68165772872533 |  erot = 3.39425180338125 | epot = -21.5394505717881 | etot = -16.4635410396816
251000  ekin = 2.13109176968443 |  erot = 3.25918860829495 | epot = -21.5291832995953 | etot = -16.1389029216159
252000  ekin = 2.053654740928 |  erot = 2.53782822604964 | epot = -21.5554268525819 | etot = -16.9639438856043
253000  ekin = 1.65815317720656 |  erot = 3.2103686272941 | epot = -21.5801245998449 | etot = -16.7116027953443
254000  ekin = 2.32643739073982 |  erot = 3.10897981239372 | epot = -21.5778214253297 | etot = -16.1424042221962
255000  ekin = 2.50573519817545 |  erot = 2.76783941653296 | epot = -21.5566198260725 | etot = -16.2830452113641
256000  ekin = 1.97360306022237 |  erot = 2.62555911992843 | epot = -21.5492296987675 | etot = -16.9500675186167
257000  ekin = 2.23010041401886 |  erot = 3.26408085278294 | epot = -21.5699664805037 | etot = -16.0757852137019
258000  ekin = 2.04489236085684 |  erot = 1.84672249628675 | epot = -21.6871004150333 | etot = -17.7954855578897
259000  ekin = 2.87368351206713 |  erot = 2.78936048482183 | epot = -21.79465654858 | etot = -16.131612551691
260000  ekin = 2.90723740318823 |  erot = 2.19282117735075 | epot = -21.8510164466681 | etot = -16.7509578661291
261000  ekin = 2.76826717813612 |  erot = 2.3408102568469 | epot = -21.8996159314726 | etot = -16.7905384964896
262000  ekin = 3.52272168049175 |  erot = 1.77108921100701 | epot = -21.9183679745592 | etot = -16.6245570830604
263000  ekin = 3.08415540167847 |  erot = 2.42542153733818 | epot = -21.8525939259305 | etot = -16.3430169869139
264000  ekin = 2.24750828021794 |  erot = 2.03549249484823 | epot = -21.8644003610158 | etot = -17.5813995859496
265000  ekin = 1.9256244934252 |  erot = 2.50003397851261 | epot = -21.7368613865555 | etot = -17.3112029146177
266000  ekin = 2.39663137918843 |  erot = 3.25281234980079 | epot = -21.6911624005759 | etot = -16.0417186715867
267000  ekin = 1.71138772864696 |  erot = 2.23669516146945 | epot = -21.656773778734 | etot = -17.7086908886176
268000  ekin = 2.1012342991695 |  erot = 3.22431689054768 | epot = -21.6149417342532 | etot = -16.289390544536
269000  ekin = 1.96288847894507 |  erot = 2.78695129937916 | epot = -21.5074378362073 | etot = -16.7575980578831
270000  ekin = 2.11352321718224 |  erot = 2.66970769590072 | epot = -21.4082402788558 | etot = -16.6250093657728
271000  ekin = 2.187367149063 |  erot = 3.10651896358249 | epot = -21.2262888361409 | etot = -15.9324027234954
272000  ekin = 2.53123659603481 |  erot = 2.28031086814788 | epot = -21.0667233503151 | etot = -16.2551758861324
273000  ekin = 1.93620978534757 |  erot = 1.99248019508239 | epot = -21.0024789385132 | etot = -17.0737889580832
274000  ekin = 1.90995249837777 |  erot = 2.21197524437096 | epot = -21.0425035783664 | etot = -16.9205758356177
275000  ekin = 1.7924862003403 |  erot = 3.10053081821809 | epot = -21.0804706135493 | etot = -16.1874535949909
276000  ekin = 3.35665649861731 |  erot = 2.41114048919769 | epot = -21.0250329806457 | etot = -15.2572359928307
277000  ekin = 2.41733347319127 |  erot = 1.50728350741789 | epot = -20.9704854598112 | etot = -17.045868479202
278000  ekin = 2.53927407792784 |  erot = 2.14772203209251 | epot = -20.9597795409701 | etot = -16.2727834309497
279000  ekin = 1.9086257726176 |  erot = 2.39006859456279 | epot = -20.9691625784233 | etot = -16.6704682112429
280000  ekin = 2.3712715434438 |  erot = 3.59520758009785 | epot = -20.8511344732567 | etot = -14.884655349715
281000  ekin = 1.76900280298917 |  erot = 1.79532059184944 | epot = -20.9241533960326 | etot = -17.3598300011939
282000  ekin = 2.27081772250325 |  erot = 3.05002296036257 | epot = -20.8869696699162 | etot = -15.5661289870504
283000  ekin = 2.18678338225262 |  erot = 2.20808584908431 | epot = -20.8425952687799 | etot = -16.4477260374429
284000  ekin = 1.91967212543913 |  erot = 2.20885942937705 | epot = -20.8702716845898 | etot = -16.7417401297736
285000  ekin = 3.15534421247094 |  erot = 1.80733118017555 | epot = -21.0506046634905 | etot = -16.0879292708441
286000  ekin = 3.87414654801577 |  erot = 1.83540293712377 | epot = -21.2318072144161 | etot = -15.5222577292766
287000  ekin = 3.65199335032365 |  erot = 2.91368616965972 | epot = -21.3038992633635 | etot = -14.7382197433801
288000  ekin = 3.25566938715965 |  erot = 1.61414633945368 | epot = -21.2971542306353 | etot = -16.427338504022
289000  ekin = 2.57263419624199 |  erot = 2.78652542009298 | epot = -21.270831111226 | etot = -15.911671494891
290000  ekin = 2.70850264399552 |  erot = 2.41920167874741 | epot = -21.2832461285427 | etot = -16.1555418057998
291000  ekin = 2.06015522240602 |  erot = 2.36096794039798 | epot = -21.2800181616414 | etot = -16.8588949988374
292000  ekin = 2.28565579809197 |  erot = 2.0492309975275 | epot = -21.3390392809808 | etot = -17.0041524853614
293000  ekin = 2.24969697991474 |  erot = 2.35258801570063 | epot = -21.4487457699855 | etot = -16.8464607743701
294000  ekin = 2.93116374685755 |  erot = 2.88908330420809 | epot = -21.5301464521074 | etot = -15.7098994010417
295000  ekin = 2.66799463567933 |  erot = 2.29137040664776 | epot = -21.6929279927361 | etot = -16.733562950409
296000  ekin = 2.20703557359524 |  erot = 2.91779932622371 | epot = -21.745669704948 | etot = -16.6208348051291
297000  ekin = 2.17709774147519 |  erot = 3.31374313109423 | epot = -21.7393959864692 | etot = -16.2485551138997
298000  ekin = 2.9129468421301 |  erot = 2.35672300219859 | epot = -21.6957115365355 | etot = -16.4260416922068
299000  ekin = 3.16776997287189 |  erot = 2.2391818507998 | epot = -21.8064946029841 | etot = -16.3995427793124
300000  ekin = 3.29561200430319 |  erot = 1.38909463218868 | epot = -21.88075107193 | etot = -17.1960444354381
301000  ekin = 2.38366117761117 |  erot = 3.3087020645508 | epot = -21.8991772346975 | etot = -16.2068139925356
302000  ekin = 2.92578534773873 |  erot = 3.24773085922143 | epot = -21.8654359309133 | etot = -15.6919197239531
303000  ekin = 2.41046706286872 |  erot = 2.62044101440911 | epot = -21.8547021809442 | etot = -16.8237941036664
304000  ekin = 2.22973717088315 |  erot = 2.69550632779805 | epot = -21.7935318306645 | etot = -16.8682883319833
305000  ekin = 2.37917924648061 |  erot = 2.39025207841258 | epot = -21.7682058013904 | etot = -16.9987744764972
306000  ekin = 1.94479260294372 |  erot = 2.89926351945751 | epot = -21.7686335450968 | etot = -16.9245774226955
307000  ekin = 2.51329193607427 |  erot = 2.07893464323809 | epot = -21.710948391274 | etot = -17.1187218119617
308000  ekin = 2.81355602400968 |  erot = 2.63100444247636 | epot = -21.7026983871469 | etot = -16.2581379206609
309000  ekin = 2.33327686418279 |  erot = 2.12127029003217 | epot = -21.6762127568296 | etot = -17.2216656026146
310000  ekin = 2.52298184126179 |  erot = 3.21591454963617 | epot = -21.695142164932 | etot = -15.956245774034
311000  ekin = 2.34923515117596 |  erot = 3.03949532400544 | epot = -21.7087574865082 | etot = -16.3200270113268
312000  ekin = 1.8269200765792 |  erot = 3.25879908323384 | epot = -21.581493453196 | etot = -16.495774293383
313000  ekin = 1.63600964511319 |  erot = 2.08094899400482 | epot = -21.606397547734 | etot = -17.889438908616
314000  ekin = 2.27293762564082 |  erot = 2.5685903273234 | epot = -21.6199211148905 | etot = -16.7783931619263
315000  ekin = 2.5313505044608 |  erot = 2.13255412771189 | epot = -21.6994892370102 | etot = -17.0355846048375
316000  ekin = 1.99528950863063 |  erot = 1.8009779719585 | epot = -21.7144101219026 | etot = -17.9181426413135
317000  ekin = 2.11352183168035 |  erot = 2.00935618346838 | epot = -21.702888210866 | etot = -17.5800101957173
318000  ekin = 2.29665458459675 |  erot = 1.9218837801722 | epot = -21.6711519227436 | etot = -17.4526135579747
319000  ekin = 1.98093881438111 |  erot = 1.68246475076764 | epot = -21.5680359341469 | etot = -17.9046323689982
320000  ekin = 2.46251923881396 |  erot = 3.07047264047418 | epot = -21.5096210718397 | etot = -15.9766291925515
321000  ekin = 1.85318841838943 |  erot = 2.6741946235276 | epot = -21.5386927047478 | etot = -17.0113096628308
322000  ekin = 1.94542919328061 |  erot = 3.36132448976007 | epot = -21.462118312038 | etot = -16.1553646289973
323000  ekin = 1.92568445593302 |  erot = 2.08578688156951 | epot = -21.4990899081635 | etot = -17.487618570661
324000  ekin = 2.21374645511898 |  erot = 2.45979330983641 | epot = -21.6010648344435 | etot = -16.9275250694881
325000  ekin = 2.71973630116966 |  erot = 2.37178970012744 | epot = -21.712426807882 | etot = -16.6209008065849
326000  ekin = 1.88824000887386 |  erot = 1.92165807946833 | epot = -21.7667410841736 | etot = -17.9568429958315
327000  ekin = 3.03069091411613 |  erot = 1.66905303717587 | epot = -21.8444186282852 | etot = -17.1446746769932
328000  ekin = 2.74111841160537 |  erot = 1.91707691036631 | epot = -21.8825192055331 | etot = -17.2243238835614
329000  ekin = 2.94134490087235 |  erot = 3.13982603162578 | epot = -21.9373718647512 | etot = -15.8562009322531
330000  ekin = 2.91659917154128 |  erot = 2.01302494652939 | epot = -21.9334919050175 | etot = -17.0038677869468
331000  ekin = 2.28401437900765 |  erot = 2.04959290659006 | epot = -21.9235871145697 | etot = -17.589979828972
332000  ekin = 2.41477240701933 |  erot = 3.18206286535344 | epot = -21.9762685570111 | etot = -16.3794332846383
333000  ekin = 2.45632306729147 |  erot = 2.70981698021117 | epot = -22.0802863854372 | etot = -16.9141463379346
334000  ekin = 2.37343096192712 |  erot = 2.99538841337669 | epot = -22.1169059815891 | etot = -16.7480866062853
335000  ekin = 2.11258102220993 |  erot = 3.56563799589785 | epot = -22.1589708630881 | etot = -16.4807518449803
336000  ekin = 2.63443561655341 |  erot = 2.12835506840877 | epot = -22.135253476801 | etot = -17.3724627918388
337000  ekin = 2.74032565197819 |  erot = 2.73568544119591 | epot = -22.1162186765824 | etot = -16.6402075834083
338000  ekin = 1.84481246769261 |  erot = 2.23462418681718 | epot = -22.1932263562086 | etot = -18.1137897016988
339000  ekin = 1.56179484671187 |  erot = 2.48907003494865 | epot = -22.2362997512502 | etot = -18.1854348695896
340000  ekin = 1.46400835747893 |  erot = 4.0512188877133 | epot = -22.1550062300509 | etot = -16.6397789848587
341000  ekin = 1.68583362524713 |  erot = 2.79345882658496 | epot = -22.1357452359775 | etot = -17.6564527841454
342000  ekin = 1.96314395645267 |  erot = 2.74466248035308 | epot = -22.1973030330981 | etot = -17.4894965962924
343000  ekin = 2.66788553126356 |  erot = 3.18183761806682 | epot = -22.2887136544829 | etot = -16.4389905051526
344000  ekin = 1.78884972348303 |  erot = 2.18066038812641 | epot = -22.3196903631289 | etot = -18.3501802515195
345000  ekin = 1.54101094076145 |  erot = 1.85848281555012 | epot = -22.3637723164297 | etot = -18.9642785601181
346000  ekin = 1.69292596460904 |  erot = 1.8080316670706 | epot = -22.3281555406487 | etot = -18.827197908969
347000  ekin = 1.37586220035546 |  erot = 2.61615920278041 | epot = -22.3502414839316 | etot = -18.3582200807958
348000  ekin = 2.1379756238867 |  erot = 2.8590037384953 | epot = -22.3431546343773 | etot = -17.3461752719953
349000  ekin = 1.82920941743142 |  erot = 1.97683001829644 | epot = -22.358647853278 | etot = -18.5526084175502
350000  ekin = 1.78940567302629 |  erot = 2.50961291060183 | epot = -22.3435711705442 | etot = -18.0445525869161
351000  ekin = 1.68761490497198 |  erot = 2.81740261848487 | epot = -22.413948353252 | etot = -17.9089308297951
352000  ekin = 2.77021596792832 |  erot = 2.15256490237832 | epot = -22.5845859351651 | etot = -17.6618050648585
353000  ekin = 3.56514294827437 |  erot = 1.46623266587274 | epot = -22.6366139885995 | etot = -17.6052383744524
354000  ekin = 3.44768413783611 |  erot = 2.2508741161152 | epot = -22.5521676274445 | etot = -16.8536093734932
355000  ekin = 2.0339222695118 |  erot = 2.90917743936019 | epot = -22.5104712522892 | etot = -17.5673715434172
356000  ekin = 2.10642401704757 |  erot = 3.31919387591753 | epot = -22.5408670189009 | etot = -17.1152491259358
357000  ekin = 2.76519653125328 |  erot = 2.50858960423796 | epot = -22.5185760247454 | etot = -17.2447898892542
358000  ekin = 2.5374658712045 |  erot = 2.2647702680074 | epot = -22.5067305203673 | etot = -17.7044943811554
359000  ekin = 3.23575918003202 |  erot = 2.52804611996866 | epot = -22.5983600193657 | etot = -16.834554719365
360000  ekin = 2.59182745067507 |  erot = 1.97199586910126 | epot = -22.6431957503706 | etot = -18.0793724305942
361000  ekin = 2.61187422629997 |  erot = 2.50384597992352 | epot = -22.6889255875949 | etot = -17.5732053813714
362000  ekin = 2.38478129908564 |  erot = 3.84225576928699 | epot = -22.6416012117121 | etot = -16.4145641433395
363000  ekin = 2.88499903144359 |  erot = 1.98712884581536 | epot = -22.5277585455565 | etot = -17.6556306682975
364000  ekin = 2.24472586183289 |  erot = 1.87849655022233 | epot = -22.4027818145434 | etot = -18.2795594024882
365000  ekin = 2.04314188489358 |  erot = 2.81001232738016 | epot = -22.2276048128305 | etot = -17.3744506005568
366000  ekin = 2.26658685631362 |  erot = 1.95650208645697 | epot = -22.1895525177766 | etot = -17.966463575006
367000  ekin = 2.81568040956379 |  erot = 2.51870737095405 | epot = -22.2465449976265 | etot = -16.9121572171087
368000  ekin = 2.81607406017701 |  erot = 2.1866718839128 | epot = -22.3661835489406 | etot = -17.3634376048508
369000  ekin = 2.31666862853353 |  erot = 2.84859903953565 | epot = -22.4308123375305 | etot = -17.2655446694613
370000  ekin = 2.66612981804874 |  erot = 2.10389084208224 | epot = -22.505799930102 | etot = -17.7357792699711
371000  ekin = 2.19552758440374 |  erot = 3.61117481442869 | epot = -22.5711545036622 | etot = -16.7644521048298
372000  ekin = 1.77345963407765 |  erot = 3.42406482157981 | epot = -22.66405706261 | etot = -17.4665326069525
373000  ekin = 2.14860861324314 |  erot = 2.79097682151395 | epot = -22.7141452937347 | etot = -17.7745598589776
374000  ekin = 2.69445806056395 |  erot = 3.57889438136966 | epot = -22.860153056641 | etot = -16.5868006147074
375000  ekin = 2.40579827793462 |  erot = 2.98564029581681 | epot = -22.9188993843038 | etot = -17.5274608105523
376000  ekin = 3.36516934625557 |  erot = 3.24766546156016 | epot = -22.940715917868 | etot = -16.3278811100523
377000  ekin = 3.18983781467362 |  erot = 2.65450417571542 | epot = -22.8850374180386 | etot = -17.0406954276496
378000  ekin = 1.54656075265338 |  erot = 2.66317423977111 | epot = -22.8855901030291 | etot = -18.6758551106046
379000  ekin = 1.93839150288505 |  erot = 2.54534031143981 | epot = -22.9043634096536 | etot = -18.4206315953288
380000  ekin = 2.66254728899606 |  erot = 2.88892403669479 | epot = -22.9338385289327 | etot = -17.3823672032419
381000  ekin = 2.95357480274557 |  erot = 2.1770881328374 | epot = -22.9777297037143 | etot = -17.8470667681313
382000  ekin = 2.58828801972808 |  erot = 2.01895528744468 | epot = -22.9240694006084 | etot = -18.3168260934356
383000  ekin = 2.01537544096934 |  erot = 2.50444896556415 | epot = -22.9471970402487 | etot = -18.4273726337152
384000  ekin = 2.1008854766715 |  erot = 2.19856058469132 | epot = -22.9599217884816 | etot = -18.6604757271188
385000  ekin = 1.91384966632105 |  erot = 1.63022965207194 | epot = -22.9760629278411 | etot = -19.4319836094481
386000  ekin = 1.56010650102716 |  erot = 1.35861854215736 | epot = -23.0225779741027 | etot = -20.1038529309182
387000  ekin = 2.21264194719196 |  erot = 1.75007226671446 | epot = -23.0228562328387 | etot = -19.0601420189323
388000  ekin = 1.98740987493218 |  erot = 1.95984350341523 | epot = -22.9305477811724 | etot = -18.983294402825
389000  ekin = 2.54192883121441 |  erot = 2.33922416322361 | epot = -22.9249127695712 | etot = -18.0437597751332
390000  ekin = 2.07846479778646 |  erot = 1.88716644515798 | epot = -22.8328701541731 | etot = -18.8672389112287
391000  ekin = 1.85214179314428 |  erot = 2.41299153787073 | epot = -22.7996788423596 | etot = -18.5345455113446
392000  ekin = 2.1990161201673 |  erot = 2.89998817237143 | epot = -22.7987091159473 | etot = -17.6997048234086
393000  ekin = 2.15260515278705 |  erot = 3.19524728171092 | epot = -22.8896620280071 | etot = -17.5418095935092
394000  ekin = 1.99225032343945 |  erot = 2.14729304405154 | epot = -22.8800416390029 | etot = -18.7404982715119
395000  ekin = 2.03378474286714 |  erot = 2.5027536840914 | epot = -22.9316292594111 | etot = -18.3950908324525
396000  ekin = 2.1438632384243 |  erot = 1.95894279389406 | epot = -23.0275362016084 | etot = -18.92473016929
397000  ekin = 2.3982267029558 |  erot = 1.6520465154777 | epot = -23.1343663061977 | etot = -19.0840930877642
398000  ekin = 3.58481792746973 |  erot = 2.51392910802386 | epot = -23.2457545351658 | etot = -17.1470074996722
399000  ekin = 2.65690049350562 |  erot = 1.78819644367598 | epot = -23.3515850649259 | etot = -18.9064881277443
400000  ekin = 2.51173640894656 |  erot = 2.10904826584645 | epot = -23.4207879652203 | etot = -18.8000032904273
401000  ekin = 2.051233917874 |  erot = 2.1536921336815 | epot = -23.4762000730604 | etot = -19.2712740215049
402000  ekin = 2.43380846674055 |  erot = 2.11259263785444 | epot = -23.4648112610383 | etot = -18.9184101564433
403000  ekin = 2.53609107080855 |  erot = 2.81280118329428 | epot = -23.5344895971956 | etot = -18.1855973430928
404000  ekin = 2.18209195546023 |  erot = 2.63706526020475 | epot = -23.6211046727682 | etot = -18.8019474571032
405000  ekin = 2.45129457425945 |  erot = 2.40500271478244 | epot = -23.6324000926426 | etot = -18.7761028036007
406000  ekin = 2.21962265364597 |  erot = 2.24914950938542 | epot = -23.6519777970511 | etot = -19.1832056340197
407000  ekin = 1.98553912077512 |  erot = 2.77856927236326 | epot = -23.557236944138 | etot = -18.7931285509997
408000  ekin = 2.57635800289226 |  erot = 2.58086436198046 | epot = -23.4362831006766 | etot = -18.2790607358039
409000  ekin = 2.36933136766419 |  erot = 2.25922617215654 | epot = -23.3257538962906 | etot = -18.6971963564699
410000  ekin = 2.02248038283451 |  erot = 1.96486213113069 | epot = -23.3085205990924 | etot = -19.3211780851272
411000  ekin = 1.8788974806599 |  erot = 2.6514468933077 | epot = -23.288114132028 | etot = -18.7577697580604
412000  ekin = 1.99373261308744 |  erot = 2.68967710559433 | epot = -23.2520689125676 | etot = -18.5686591938858
413000  ekin = 2.38901265794743 |  erot = 2.64559329464322 | epot = -23.1974799245766 | etot = -18.1628739719859
414000  ekin = 2.42764537426657 |  erot = 1.75171638842505 | epot = -23.1227256481796 | etot = -18.943363885488
415000  ekin = 2.76411872449006 |  erot = 2.44214574701597 | epot = -23.1777400120228 | etot = -17.9714755405168
416000  ekin = 2.08293620051845 |  erot = 2.76581176915863 | epot = -23.186622003278 | etot = -18.337874033601
417000  ekin = 1.99975250190993 |  erot = 1.9578721634496 | epot = -23.1905597787985 | etot = -19.2329351134389
418000  ekin = 2.38311403931269 |  erot = 2.55890369849375 | epot = -23.1547990589628 | etot = -18.2127813211564
419000  ekin = 2.98411599395291 |  erot = 2.57059785409318 | epot = -23.0506701290817 | etot = -17.4959562810356
420000  ekin = 2.60188910540588 |  erot = 2.46051136519661 | epot = -22.9584750453702 | etot = -17.8960745747677
421000  ekin = 2.51721839958931 |  erot = 1.77803097918895 | epot = -22.9478270423399 | etot = -18.6525776635616
422000  ekin = 2.73215994330404 |  erot = 1.67289719515518 | epot = -22.9366997516619 | etot = -18.5316426132027
423000  ekin = 2.13301592734426 |  erot = 2.54982791014141 | epot = -22.8120609726708 | etot = -18.1292171351851
424000  ekin = 1.90609667850123 |  erot = 2.31895806505094 | epot = -22.7750025410849 | etot = -18.5499477975327
425000  ekin = 2.37363345292966 |  erot = 1.95591998920184 | epot = -22.7837602756269 | etot = -18.4542068334954
426000  ekin = 2.23506150102974 |  erot = 2.60957702289923 | epot = -22.8034248715963 | etot = -17.9587863476673
427000  ekin = 1.8858071920588 |  erot = 2.12670154749625 | epot = -22.9703036100131 | etot = -18.957794870458
428000  ekin = 1.93190556918249 |  erot = 2.45435859297294 | epot = -23.1028032345637 | etot = -18.7165390724082
429000  ekin = 1.72625681322915 |  erot = 2.16391616195066 | epot = -23.1169612720762 | etot = -19.2267882968964
430000  ekin = 2.31229851925652 |  erot = 2.14059498772528 | epot = -23.123947656521 | etot = -18.6710541495392
431000  ekin = 2.45856801873639 |  erot = 2.41565239614123 | epot = -23.1343729492306 | etot = -18.260152534353
432000  ekin = 2.80045086542028 |  erot = 2.19133218252703 | epot = -23.1425691977264 | etot = -18.1507861497791
433000  ekin = 2.20382151693237 |  erot = 1.62233615534329 | epot = -23.186811655719 | etot = -19.3606539834433
434000  ekin = 2.5912014730388 |  erot = 2.35257474145033 | epot = -23.2139624944838 | etot = -18.2701862799947
435000  ekin = 2.292878018016 |  erot = 2.54026793769998 | epot = -23.1933803471397 | etot = -18.3602343914237
436000  ekin = 2.43255475285637 |  erot = 2.74965402216776 | epot = -23.2431213562246 | etot = -18.0609125812005
437000  ekin = 1.64425595993858 |  erot = 3.23323066283653 | epot = -23.2344898707627 | etot = -18.3570032479876
438000  ekin = 1.56118873048903 |  erot = 2.60253121414272 | epot = -23.1306562811571 | etot = -18.9669363365254
439000  ekin = 2.30492577643288 |  erot = 1.9389279713903 | epot = -23.1381949153658 | etot = -18.8943411675426
440000  ekin = 2.52026113610471 |  erot = 3.04666677428385 | epot = -23.1986879717886 | etot = -17.6317600614
441000  ekin = 2.79914634628251 |  erot = 2.54581028632591 | epot = -23.1725956938593 | etot = -17.8276390612509
442000  ekin = 2.93509023618977 |  erot = 2.87676477127226 | epot = -23.1159592458781 | etot = -17.304104238416
443000  ekin = 1.96857488695096 |  erot = 1.76444429617767 | epot = -23.0441054580414 | etot = -19.3110862749127
444000  ekin = 2.00750191739409 |  erot = 2.2534047751145 | epot = -22.9735423472635 | etot = -18.712635654755
445000  ekin = 2.22546986952724 |  erot = 2.06326830023309 | epot = -22.8095964231444 | etot = -18.5208582533841
446000  ekin = 2.4450124715022 |  erot = 2.3730159305034 | epot = -22.7149791043001 | etot = -17.8969507022945
447000  ekin = 2.27692613820669 |  erot = 2.40593386102284 | epot = -22.7350457195192 | etot = -18.0521857202897
448000  ekin = 2.17715994902024 |  erot = 1.93996223845971 | epot = -22.8484345777469 | etot = -18.7313123902669
449000  ekin = 2.2196798712192 |  erot = 2.34285870025318 | epot = -22.938199826666 | etot = -18.3756612551936
450000  ekin = 2.75054977353848 |  erot = 1.97938557871968 | epot = -22.8928697422248 | etot = -18.1629343899666
451000  ekin = 2.21115355148631 |  erot = 2.13373186546172 | epot = -22.9268989776618 | etot = -18.5820135607137
452000  ekin = 2.54346617380347 |  erot = 2.35731335928095 | epot = -22.9645722362833 | etot = -18.0637927031988
453000  ekin = 2.2284644335428 |  erot = 1.78504863466535 | epot = -22.9494030803646 | etot = -18.9358900121564
454000  ekin = 2.43981950788672 |  erot = 2.59540327726185 | epot = -22.8784508334485 | etot = -17.8432280482999
455000  ekin = 2.04589395219366 |  erot = 2.7960521140105 | epot = -22.6640287607136 | etot = -17.8220826945095
456000  ekin = 2.02066497153519 |  erot = 2.51421900073603 | epot = -22.4777086012038 | etot = -17.9428246289326
457000  ekin = 2.62428771899347 |  erot = 2.43881206937848 | epot = -22.3598178635714 | etot = -17.2967180751994
458000  ekin = 2.00990487485324 |  erot = 1.99234707595584 | epot = -22.2532334283702 | etot = -18.2509814775611
459000  ekin = 1.75250109782347 |  erot = 2.49689893971802 | epot = -22.2437782516535 | etot = -17.994378214112
460000  ekin = 1.9190487289221 |  erot = 2.07624013444807 | epot = -22.2370852343625 | etot = -18.2417963709923
461000  ekin = 1.56836892852198 |  erot = 1.28974645955658 | epot = -22.2063748439499 | etot = -19.3482594558713
462000  ekin = 2.45168650095568 |  erot = 1.36025556758079 | epot = -22.3059327256893 | etot = -18.4939906571528
463000  ekin = 2.64349639743884 |  erot = 2.07826809667296 | epot = -22.4269210824658 | etot = -17.705156588354
464000  ekin = 2.67294933942793 |  erot = 3.73619931212747 | epot = -22.5513294295021 | etot = -16.1421807779467
465000  ekin = 1.95387776347697 |  erot = 2.23929165445271 | epot = -22.7354276602965 | etot = -18.5422582423668
466000  ekin = 2.13358131772513 |  erot = 2.9628231040371 | epot = -22.8413443832467 | etot = -17.7449399614844
467000  ekin = 2.46622692687387 |  erot = 2.11619893803783 | epot = -23.0236293811154 | etot = -18.4412035162037
468000  ekin = 1.99045166389675 |  erot = 1.6285380006184 | epot = -23.0932840681895 | etot = -19.4742944036743
469000  ekin = 2.49670871865504 |  erot = 2.63664907892974 | epot = -23.1383213964888 | etot = -18.0049635989041
470000  ekin = 2.92207685554493 |  erot = 3.21710942124273 | epot = -23.1429890223789 | etot = -17.0038027455912
471000  ekin = 2.36481422254557 |  erot = 1.72322177619039 | epot = -23.1018283304032 | etot = -19.0137923316673
472000  ekin = 2.18517765615792 |  erot = 2.00241070370021 | epot = -23.0699010011102 | etot = -18.8823126412521
473000  ekin = 2.37141527291476 |  erot = 2.86124879212049 | epot = -23.0301508899776 | etot = -17.7974868249423
474000  ekin = 2.18573397152438 |  erot = 2.60055996125085 | epot = -22.9109845829656 | etot = -18.1246906501904
475000  ekin = 2.39664419497567 |  erot = 2.01359105802913 | epot = -22.8103966693808 | etot = -18.400161416376
476000  ekin = 2.106779684052 |  erot = 2.60326535898524 | epot = -22.8093298667681 | etot = -18.0992848237309
477000  ekin = 2.53303116397527 |  erot = 3.55507509768021 | epot = -22.7929172799516 | etot = -16.7048110182962
478000  ekin = 2.40644412232746 |  erot = 2.73235251079285 | epot = -22.7008644942783 | etot = -17.562067861158
479000  ekin = 1.2774884884165 |  erot = 2.99242202231977 | epot = -22.6580451660686 | etot = -18.3881346553323
480000  ekin = 1.82378442133505 |  erot = 2.13912569674403 | epot = -22.6273806665075 | etot = -18.6644705484284
481000  ekin = 2.38794676527735 |  erot = 3.18394268862154 | epot = -22.652698250081 | etot = -17.0808087961821
482000  ekin = 3.20103552737715 |  erot = 2.41980408559651 | epot = -22.6098898945504 | etot = -16.9890502815768
483000  ekin = 3.03840673317681 |  erot = 2.48624445057528 | epot = -22.5747152180487 | etot = -17.0500640342966
484000  ekin = 2.70186903599877 |  erot = 2.52680102607677 | epot = -22.6043659240374 | etot = -17.3756958619618
485000  ekin = 3.27237676088605 |  erot = 2.42435226331311 | epot = -22.5971021698101 | etot = -16.9003731456109
486000  ekin = 1.96601696665902 |  erot = 1.75893246838797 | epot = -22.6399989280022 | etot = -18.9150494929552
487000  ekin = 2.62348602949564 |  erot = 2.50764223408898 | epot = -22.7315097398775 | etot = -17.6003814762928
488000  ekin = 1.75208653704965 |  erot = 2.64490018417003 | epot = -22.7893685606217 | etot = -18.3923818394021
489000  ekin = 2.08736451702833 |  erot = 2.95231225184179 | epot = -22.8795542371813 | etot = -17.8398774683112
490000  ekin = 2.30758266641326 |  erot = 2.33160202425018 | epot = -22.8824154392574 | etot = -18.2432307485939
491000  ekin = 2.48198002403303 |  erot = 2.59526090835888 | epot = -22.8753520101327 | etot = -17.7981110777408
492000  ekin = 3.28206840084522 |  erot = 2.18523064608534 | epot = -22.8554585939889 | etot = -17.3881595470583
493000  ekin = 3.37968205627646 |  erot = 2.35359230702798 | epot = -22.802471593836 | etot = -17.0691972305315
494000  ekin = 3.57469694905841 |  erot = 2.2485639294812 | epot = -22.8021092664721 | etot = -16.9788483879325
495000  ekin = 2.5052834294994 |  erot = 2.15847696242519 | epot = -22.7974611109899 | etot = -18.1337007190653
496000  ekin = 1.95424552563439 |  erot = 3.58261919463167 | epot = -22.8351163728141 | etot = -17.298251652548
497000  ekin = 2.22184693843012 |  erot = 2.46505638343575 | epot = -22.8411234790096 | etot = -18.1542201571438
498000  ekin = 1.72646972661644 |  erot = 2.39649152448662 | epot = -22.7771984845447 | etot = -18.6542372334417
499000  ekin = 2.44587532386558 |  erot = 2.82724443292545 | epot = -22.7933140861756 | etot = -17.5201943293846
500000  ekin = 2.78510450558426 |  erot = 2.23272713529476 | epot = -22.8971262576266 | etot = -17.8792946167476
501000  ekin = 2.99437147790547 |  erot = 1.97777660143103 | epot = -22.9259326262666 | etot = -17.9537845469301
502000  ekin = 2.98620318494749 |  erot = 1.79968012191087 | epot = -22.9540905110158 | etot = -18.1682072041574
503000  ekin = 2.51500641896251 |  erot = 2.88866029010492 | epot = -22.9837264072572 | etot = -17.5800596981898
504000  ekin = 2.84385497746759 |  erot = 2.69349274825329 | epot = -22.9149904805499 | etot = -17.377642754829
505000  ekin = 2.95574835602088 |  erot = 2.6026753799514 | epot = -22.9888007816538 | etot = -17.4303770456815
506000  ekin = 2.19820711369971 |  erot = 1.96723089641087 | epot = -23.0300125090253 | etot = -18.8645744989147
507000  ekin = 2.26258673474996 |  erot = 2.70466389763239 | epot = -22.9957070923465 | etot = -18.0284564599641
508000  ekin = 2.63638196787186 |  erot = 2.05040146648131 | epot = -23.0074182438498 | etot = -18.3206348094966
509000  ekin = 2.941534357322 |  erot = 2.9116561510807 | epot = -23.0604926861274 | etot = -17.2073021777247
510000  ekin = 2.26261998090286 |  erot = 2.81560695024321 | epot = -23.1751735881193 | etot = -18.0969466569732
511000  ekin = 2.89882203877689 |  erot = 2.15644204743089 | epot = -23.2976829651598 | etot = -18.242418878952
512000  ekin = 2.18248507908123 |  erot = 2.32471465184078 | epot = -23.3729111641778 | etot = -18.8657114332558
513000  ekin = 1.69088054596992 |  erot = 2.87837634409229 | epot = -23.3827433252491 | etot = -18.8134864351869
514000  ekin = 1.72555879339418 |  erot = 2.33322715253437 | epot = -23.3782683624831 | etot = -19.3194824165546
515000  ekin = 1.99840271010263 |  erot = 1.80256652461596 | epot = -23.3732611472924 | etot = -19.5722919125738
516000  ekin = 3.02857447051151 |  erot = 1.5400404903518 | epot = -23.3371239983442 | etot = -18.7685090374808
517000  ekin = 2.46355229218044 |  erot = 2.11387593279357 | epot = -23.3120503202835 | etot = -18.7346220953095
518000  ekin = 2.03623914203692 |  erot = 2.51801359135206 | epot = -23.2489994054059 | etot = -18.6947466720169
519000  ekin = 1.58667253859857 |  erot = 1.63211503072947 | epot = -23.2067561094409 | etot = -19.9879685401128
520000  ekin = 2.16324608146533 |  erot = 1.89657617078696 | epot = -23.2082678544253 | etot = -19.148445602173
521000  ekin = 1.97686811359425 |  erot = 2.0872712571421 | epot = -23.2512754061872 | etot = -19.1871360354508
522000  ekin = 2.69830866187618 |  erot = 2.1956248060682 | epot = -23.3119120700689 | etot = -18.4179786021245
523000  ekin = 2.24785090987913 |  erot = 1.67440253273743 | epot = -23.3589880036331 | etot = -19.4367345610165
524000  ekin = 2.34889284001673 |  erot = 2.1007910786486 | epot = -23.3797580192055 | etot = -18.9300741005401
525000  ekin = 2.13149576225198 |  erot = 2.0723725435025 | epot = -23.4380051055748 | etot = -19.2341367998203
526000  ekin = 2.50239998087446 |  erot = 2.25424985364477 | epot = -23.4972589637756 | etot = -18.7406091292563
527000  ekin = 3.03515775223167 |  erot = 1.80505768055502 | epot = -23.554671119079 | etot = -18.7144556862923
528000  ekin = 2.5608174763548 |  erot = 2.54328225738986 | epot = -23.5720157710688 | etot = -18.4679160373241
529000  ekin = 2.37506941472445 |  erot = 1.93007818421908 | epot = -23.5564414475786 | etot = -19.251293848635
530000  ekin = 3.3419677281169 |  erot = 3.41384036164691 | epot = -23.4493550232615 | etot = -16.6935469334977
531000  ekin = 2.4235092053109 |  erot = 2.35978294499845 | epot = -23.1490536179472 | etot = -18.3657614676379
532000  ekin = 2.58896799590229 |  erot = 1.86978691602605 | epot = -23.165039392045 | etot = -18.7062844801167
533000  ekin = 2.18027058294701 |  erot = 2.16031799038535 | epot = -23.3790946936929 | etot = -19.0385061203605
534000  ekin = 2.3479868128811 |  erot = 2.0385286250955 | epot = -23.4622625656644 | etot = -19.0757471276878
535000  ekin = 2.3782313722319 |  erot = 2.07392590496072 | epot = -23.4816815929821 | etot = -19.0295243157895
536000  ekin = 2.46212862766406 |  erot = 1.89477230721272 | epot = -23.4656032882526 | etot = -19.1087023533758
537000  ekin = 1.71194009451629 |  erot = 2.13445451003515 | epot = -23.5539827524157 | etot = -19.7075881478642
538000  ekin = 2.16675831406369 |  erot = 2.76561566966347 | epot = -23.6593643234718 | etot = -18.7269903397447
539000  ekin = 2.16624212273309 |  erot = 2.29113017698322 | epot = -23.7362705602946 | etot = -19.2788982605782
540000  ekin = 2.37614209115086 |  erot = 1.63783384730145 | epot = -23.7311087126642 | etot = -19.7171327742119
541000  ekin = 2.61201729538231 |  erot = 2.5250031626081 | epot = -23.6609998128446 | etot = -18.5239793548541
542000  ekin = 2.72899828578995 |  erot = 2.10988741791456 | epot = -23.6987729418172 | etot = -18.8598872381126
543000  ekin = 2.72077400162185 |  erot = 1.85643651604112 | epot = -23.6056812049309 | etot = -19.0284706872679
544000  ekin = 2.11785692900505 |  erot = 1.50578231047403 | epot = -23.581427161181 | etot = -19.9577879217019
545000  ekin = 1.70786262657811 |  erot = 2.5699332427333 | epot = -23.5821026874923 | etot = -19.3043068181809
546000  ekin = 2.38060529409929 |  erot = 1.86647004671163 | epot = -23.6101839511561 | etot = -19.3631086103452
547000  ekin = 2.4524914794752 |  erot = 2.45758863876476 | epot = -23.659961725937 | etot = -18.749881607697
548000  ekin = 2.39048922197387 |  erot = 2.39595923181893 | epot = -23.672341518051 | etot = -18.8858930642582
549000  ekin = 2.59237109487195 |  erot = 2.03286301955741 | epot = -23.663402955197 | etot = -19.0381688407676
550000  ekin = 1.99326412841577 |  erot = 1.84900416370414 | epot = -23.6657646794243 | etot = -19.8234963873044
551000  ekin = 2.44897958881949 |  erot = 2.02189459200062 | epot = -23.6223977807006 | etot = -19.1515235998805
552000  ekin = 2.69506011124378 |  erot = 1.4087045289661 | epot = -23.4598817431801 | etot = -19.3561171029703
553000  ekin = 1.7614112496816 |  erot = 2.61025745472483 | epot = -23.2534851194706 | etot = -18.8818164150642
554000  ekin = 2.30413102985308 |  erot = 2.33068531989324 | epot = -23.2170368597895 | etot = -18.5822205100432
555000  ekin = 3.27044533046142 |  erot = 1.64227498681914 | epot = -23.1963457102547 | etot = -18.2836253929742
556000  ekin = 2.90315678132448 |  erot = 2.59895742246943 | epot = -23.1450725642432 | etot = -17.6429583604493
557000  ekin = 2.91669736278429 |  erot = 3.16406737832137 | epot = -23.1449528769861 | etot = -17.0641881358805
558000  ekin = 2.82900232701285 |  erot = 2.71147852622196 | epot = -23.1184803827916 | etot = -17.5779995295568
559000  ekin = 2.44505587446295 |  erot = 3.29469811923283 | epot = -23.1627781618237 | etot = -17.423024168128
560000  ekin = 2.31904677659936 |  erot = 2.34795233137866 | epot = -23.1210700988646 | etot = -18.4540709908866
561000  ekin = 2.04771931333916 |  erot = 2.88228436865011 | epot = -23.024411145941 | etot = -18.0944074639517
562000  ekin = 2.23091608960519 |  erot = 3.71635453668511 | epot = -22.8944164201338 | etot = -16.9471457938435
563000  ekin = 3.1357852432065 |  erot = 2.30361462487037 | epot = -22.9661332369329 | etot = -17.5267333688561
564000  ekin = 2.43466309429864 |  erot = 2.37782011884422 | epot = -22.9389295001135 | etot = -18.1264462869706
565000  ekin = 2.74708790028088 |  erot = 2.07634713087886 | epot = -22.939331551729 | etot = -18.1158965205693
566000  ekin = 2.4222839122782 |  erot = 2.23675738705857 | epot = -22.9632631791452 | etot = -18.3042218798084
567000  ekin = 2.66083125722037 |  erot = 2.00815445030396 | epot = -23.0587738412098 | etot = -18.3897881336855
568000  ekin = 3.04192088032675 |  erot = 1.98454766740893 | epot = -23.1119399549794 | etot = -18.0854714072437
569000  ekin = 3.57500602366975 |  erot = 2.06993473480211 | epot = -23.1169833765643 | etot = -17.4720426180924
570000  ekin = 2.66021275095562 |  erot = 2.34009289778314 | epot = -23.1329733111479 | etot = -18.1326676624092
571000  ekin = 1.9492727086219 |  erot = 2.84215857351434 | epot = -23.059975766874 | etot = -18.2685444847377
572000  ekin = 2.41534745626505 |  erot = 2.40867063666104 | epot = -23.0550186086203 | etot = -18.2310005156942
573000  ekin = 1.75690848092507 |  erot = 2.3167538090557 | epot = -23.1062821980692 | etot = -19.0326199080885
574000  ekin = 2.10700070451592 |  erot = 2.59266019942445 | epot = -23.1953992541668 | etot = -18.4957383502265
575000  ekin = 2.3766207361603 |  erot = 2.79835296504546 | epot = -23.2685471976934 | etot = -18.0935734964876
576000  ekin = 2.17646651375686 |  erot = 3.28542649915204 | epot = -23.3024195314184 | etot = -17.8405265185095
577000  ekin = 2.48649787916229 |  erot = 2.29384528363048 | epot = -23.3336440834232 | etot = -18.5533009206305
578000  ekin = 2.63489334342406 |  erot = 2.38537839776846 | epot = -23.3926914947912 | etot = -18.3724197535987
579000  ekin = 2.6879639473483 |  erot = 1.70827418352421 | epot = -23.3699011030343 | etot = -18.9736629721618
580000  ekin = 2.35397680707073 |  erot = 2.85531289645877 | epot = -23.3791722262718 | etot = -18.1698825227423
581000  ekin = 2.45623723360352 |  erot = 2.60459639714713 | epot = -23.3494339765039 | etot = -18.2886003457532
582000  ekin = 2.3382526117462 |  erot = 3.2061485365379 | epot = -23.4180112490559 | etot = -17.8736101007718
583000  ekin = 1.96183434404855 |  erot = 2.8182320095548 | epot = -23.5859382554133 | etot = -18.80587190181
584000  ekin = 2.00096532862293 |  erot = 1.71661883974024 | epot = -23.6753971791609 | etot = -19.9578130107977
585000  ekin = 2.26504312453072 |  erot = 2.08207426542528 | epot = -23.7221723341546 | etot = -19.3750549441986
586000  ekin = 2.20198471634668 |  erot = 1.96863181734696 | epot = -23.6845937288944 | etot = -19.5139771952007
587000  ekin = 3.67920423738482 |  erot = 1.82482965137738 | epot = -23.6620758789199 | etot = -18.1580419901577
588000  ekin = 3.48072723000483 |  erot = 2.30687784419354 | epot = -23.5628518088072 | etot = -17.7752467346088
589000  ekin = 2.6301802350708 |  erot = 2.97022216183281 | epot = -23.3751519834186 | etot = -17.774749586515
590000  ekin = 1.60810524494739 |  erot = 2.03262567379754 | epot = -23.1930040863614 | etot = -19.5522731676165
591000  ekin = 1.81653979391832 |  erot = 1.75590363843925 | epot = -23.1286401679288 | etot = -19.5561967355713
592000  ekin = 2.57251131663395 |  erot = 2.59255636832343 | epot = -23.1517404198258 | etot = -17.9866727348685
593000  ekin = 2.43680227955855 |  erot = 1.78797812851328 | epot = -23.101945124129 | etot = -18.8771647160572
594000  ekin = 2.12130372154182 |  erot = 2.16319738901753 | epot = -23.0522428105757 | etot = -18.7677417000163
595000  ekin = 2.61503378317223 |  erot = 2.04014237870419 | epot = -23.0400690201979 | etot = -18.3848928583215
596000  ekin = 2.5838826262171 |  erot = 2.12601862315907 | epot = -23.0972897944143 | etot = -18.3873885450381
597000  ekin = 3.03557942938101 |  erot = 3.13923818214656 | epot = -23.0945090272485 | etot = -16.9196914157209
598000  ekin = 3.44798129544029 |  erot = 2.86439798217039 | epot = -23.1511239016259 | etot = -16.8387446240152
599000  ekin = 2.14574146166173 |  erot = 3.49764417749902 | epot = -23.122284004392 | etot = -17.4788983652312
600000  ekin = 2.20860876734766 |  erot = 2.50874056137532 | epot = -23.121641128369 | etot = -18.4042917996461
601000  ekin = 2.82315501435403 |  erot = 2.82784045939002 | epot = -23.0925533117084 | etot = -17.4415578379644
602000  ekin = 2.33761512592198 |  erot = 2.38145173595585 | epot = -23.0579577028674 | etot = -18.3388908409896
603000  ekin = 1.93160054442741 |  erot = 1.95556752436392 | epot = -22.9401029172158 | etot = -19.0529348484245
604000  ekin = 2.6789810993261 |  erot = 3.14412986031109 | epot = -22.910832287093 | etot = -17.0877213274558
605000  ekin = 2.71997631755228 |  erot = 2.06416447860583 | epot = -22.9239871466825 | etot = -18.1398463505244
606000  ekin = 2.99643636348445 |  erot = 2.03201196902714 | epot = -22.8415583488471 | etot = -17.8131100163355
607000  ekin = 2.88272893636888 |  erot = 2.37624693398617 | epot = -22.8254440726334 | etot = -17.5664682022784
608000  ekin = 3.65630425769789 |  erot = 2.4609503215642 | epot = -22.762585585759 | etot = -16.6453310064969
609000  ekin = 2.67762341692564 |  erot = 2.28055578469673 | epot = -22.7828567112764 | etot = -17.824677509654
610000  ekin = 2.96652133048089 |  erot = 2.13934256593668 | epot = -22.7741547643332 | etot = -17.6682908679156
611000  ekin = 3.84932586877613 |  erot = 2.13519046445732 | epot = -22.7544276213926 | etot = -16.7699112881591
612000  ekin = 2.85989656018767 |  erot = 2.46801741609839 | epot = -22.6660352466822 | etot = -17.3381212703962
613000  ekin = 2.93453113084909 |  erot = 2.15612014750899 | epot = -22.6610069845369 | etot = -17.5703557061788
614000  ekin = 2.80105508963963 |  erot = 2.03410273106392 | epot = -22.7348632778619 | etot = -17.8997054571583
615000  ekin = 2.29275813765167 |  erot = 2.37294703205248 | epot = -22.8254873753585 | etot = -18.1597822056544
616000  ekin = 1.78885710821491 |  erot = 2.46510899047625 | epot = -22.9171248890198 | etot = -18.6631587903287
617000  ekin = 2.58551875410709 |  erot = 2.5373402867597 | epot = -22.9360764839305 | etot = -17.8132174430637
618000  ekin = 2.31892663964202 |  erot = 2.68589041417607 | epot = -22.8727518088247 | etot = -17.8679347550066
619000  ekin = 1.95263551601201 |  erot = 2.00547599081928 | epot = -22.8336441658867 | etot = -18.8755326590554
620000  ekin = 2.93125230382283 |  erot = 2.17152517775752 | epot = -22.9083331407927 | etot = -17.8055556592123
621000  ekin = 2.92256345141131 |  erot = 1.69365804073587 | epot = -22.9481701549848 | etot = -18.3319486628377
622000  ekin = 2.04586667934044 |  erot = 2.52349184406704 | epot = -22.8875044323845 | etot = -18.318145908977
623000  ekin = 1.97950132185482 |  erot = 3.07798060074862 | epot = -22.8981219896543 | etot = -17.8406400670509
624000  ekin = 2.09648418588882 |  erot = 2.6543004426831 | epot = -22.9137783443298 | etot = -18.1629937157579
625000  ekin = 2.53180941807541 |  erot = 2.36094945875658 | epot = -22.9713145545226 | etot = -18.0785556776906
626000  ekin = 2.71470092938691 |  erot = 2.03801315634257 | epot = -22.9996382199111 | etot = -18.2469241341817
627000  ekin = 2.22369596417806 |  erot = 2.35283010947608 | epot = -22.9578688816797 | etot = -18.3813428080256
628000  ekin = 2.27999602854394 |  erot = 2.28859122795553 | epot = -22.8528131434533 | etot = -18.2842258869538
629000  ekin = 2.52123682351367 |  erot = 1.89626016629389 | epot = -22.7899249071395 | etot = -18.372427917332
630000  ekin = 3.09552317576679 |  erot = 2.51631689437832 | epot = -22.7146675453805 | etot = -17.1028274752354
631000  ekin = 2.38490277583395 |  erot = 3.31743656633136 | epot = -22.7264783640902 | etot = -17.0241390219248
632000  ekin = 2.58507904222623 |  erot = 2.52764941236063 | epot = -22.679176298765 | etot = -17.5664478441781
633000  ekin = 2.43449371039936 |  erot = 1.90741463354387 | epot = -22.6535443404276 | etot = -18.3116359964843
634000  ekin = 2.22577214221416 |  erot = 2.00782187507303 | epot = -22.5713359353359 | etot = -18.3377419180487
635000  ekin = 2.21828703186448 |  erot = 1.98254572604181 | epot = -22.5412406270617 | etot = -18.3404078691554
636000  ekin = 2.25203768985671 |  erot = 2.77892756814694 | epot = -22.5726302712271 | etot = -17.5416650132235
637000  ekin = 1.94361631144887 |  erot = 2.61217525293607 | epot = -22.6025759792528 | etot = -18.0467844148678
638000  ekin = 2.53948853675747 |  erot = 3.14008150742344 | epot = -22.5816815234452 | etot = -16.9021114792643
639000  ekin = 2.37754295974937 |  erot = 2.49543508367508 | epot = -22.5440763882375 | etot = -17.671098344813
640000  ekin = 2.08220370718338 |  erot = 2.2194194329635 | epot = -22.4524516894458 | etot = -18.1508285492989
641000  ekin = 2.47978319917432 |  erot = 3.55852054823509 | epot = -22.3492008411224 | etot = -16.310897093713
642000  ekin = 3.38960132344713 |  erot = 2.18185754829543 | epot = -22.2381539280913 | etot = -16.6666950563487
643000  ekin = 2.84882938996105 |  erot = 2.41327361032682 | epot = -22.1919035544934 | etot = -16.9298005542056
644000  ekin = 2.97883864641817 |  erot = 1.93798086343986 | epot = -22.1756635530162 | etot = -17.2588440431582
645000  ekin = 4.12551460905463 |  erot = 1.89960199669213 | epot = -22.1698840200029 | etot = -16.1447674142562
646000  ekin = 2.52696700152244 |  erot = 2.00637752228798 | epot = -22.1094379456324 | etot = -17.576093421822
647000  ekin = 2.55510613012742 |  erot = 2.20923063557538 | epot = -22.15306269638 | etot = -17.3887259306772
648000  ekin = 3.02954161965434 |  erot = 2.11327379217002 | epot = -22.1567476137635 | etot = -17.0139322019391
649000  ekin = 2.58451162799693 |  erot = 3.20634164199495 | epot = -22.1331170602233 | etot = -16.3422637902314
650000  ekin = 3.77201429520633 |  erot = 2.43067850654692 | epot = -22.0829669606205 | etot = -15.8802741588673
651000  ekin = 3.31373950314884 |  erot = 2.36225009565165 | epot = -21.9236843158819 | etot = -16.2476947170814
652000  ekin = 2.49269048046144 |  erot = 3.02152130835781 | epot = -21.7248332635395 | etot = -16.2106214747202
653000  ekin = 2.82562653528407 |  erot = 2.5389983180152 | epot = -21.720584398338 | etot = -16.3559595450387
654000  ekin = 2.35162706281986 |  erot = 2.1592221935512 | epot = -21.9212844347389 | etot = -17.4104351783678
655000  ekin = 2.27465971046838 |  erot = 2.12498228082651 | epot = -21.901368818889 | etot = -17.5017268275941
656000  ekin = 2.33863364839044 |  erot = 2.10521355308809 | epot = -21.9220753944062 | etot = -17.4782281929276
657000  ekin = 2.74434430715418 |  erot = 2.19004311145519 | epot = -22.136208072754 | etot = -17.2018206541446
658000  ekin = 3.04725229200292 |  erot = 2.59754076353072 | epot = -22.2930322879088 | etot = -16.6482392323752
659000  ekin = 2.86433120437707 |  erot = 3.42151787717832 | epot = -22.2980196003195 | etot = -16.0121705187641
660000  ekin = 2.91954234725913 |  erot = 1.63326659953276 | epot = -22.3386449739967 | etot = -17.7858360272048
661000  ekin = 3.21083352573749 |  erot = 1.8634965142938 | epot = -22.464255649999 | etot = -17.3899256099677
[...]
835000  ekin = 2.88530231894867 |  erot = 2.74026724638582 | epot = -22.8585460390106 | etot = -17.2329764736761
836000  ekin = 3.3206881354596 |  erot = 2.42232340907521 | epot = -22.8959173733727 | etot = -17.1529058288379
837000  ekin = 2.74147966492743 |  erot = 2.32128866347136 | epot = -22.890688089557 | etot = -17.8279197611582
838000  ekin = 3.13304582679089 |  erot = 3.19831100603569 | epot = -22.9167021580119 | etot = -16.5853453251853
839000  ekin = 2.73524310738819 |  erot = 2.61098784970539 | epot = -22.8499775738039 | etot = -17.5037466167103
840000  ekin = 2.9714125620732 |  erot = 1.43156525093809 | epot = -22.7764096370098 | etot = -18.3734318239986
841000  ekin = 2.95720011963303 |  erot = 2.67281496410328 | epot = -22.74090696109 | etot = -17.1108918773537
842000  ekin = 2.17222072547984 |  erot = 2.30477888514471 | epot = -22.7382739265758 | etot = -18.2612743159512
843000  ekin = 2.83293093637601 |  erot = 2.04166092897363 | epot = -22.7426999769084 | etot = -17.8681081115587
844000  ekin = 2.95939838423659 |  erot = 1.50200392453934 | epot = -22.7837663105733 | etot = -18.3223640017974
845000  ekin = 3.16075268425023 |  erot = 2.28217181916471 | epot = -22.7914034530237 | etot = -17.3484789496088
846000  ekin = 3.33989324329164 |  erot = 2.53602590130801 | epot = -22.7943672716087 | etot = -16.918448127009
847000  ekin = 2.14144439713513 |  erot = 2.75036646754355 | epot = -22.7256188129676 | etot = -17.8338079482889
848000  ekin = 2.4890850279473 |  erot = 2.8187435102158 | epot = -22.5834530760368 | etot = -17.2756245378737
849000  ekin = 1.98022709854769 |  erot = 2.56921409657545 | epot = -22.4587362353358 | etot = -17.9092950402127
850000  ekin = 2.04755793529054 |  erot = 1.80627828287466 | epot = -22.4428719719836 | etot = -18.5890357538184
851000  ekin = 2.09705201250659 |  erot = 1.85768714478959 | epot = -22.4344321769461 | etot = -18.4796930196499
852000  ekin = 1.70813063193921 |  erot = 1.42387240689476 | epot = -22.3764716053444 | etot = -19.2444685665104
853000  ekin = 2.00143066511545 |  erot = 3.04689486443609 | epot = -22.4103416022683 | etot = -17.3620160727168
854000  ekin = 3.02152778379787 |  erot = 2.22991487666191 | epot = -22.4965524184488 | etot = -17.245109757989
855000  ekin = 2.19608144065262 |  erot = 2.83673950685791 | epot = -22.5084193524114 | etot = -17.4755984049009
856000  ekin = 2.44947147813647 |  erot = 1.52884725004682 | epot = -22.4898702614234 | etot = -18.5115515332401
857000  ekin = 2.53343898625603 |  erot = 2.80401080702751 | epot = -22.3987166021506 | etot = -17.0612668088671
858000  ekin = 2.20262532647404 |  erot = 2.8247792069788 | epot = -22.32281615969 | etot = -17.2954116262372
859000  ekin = 2.30654937158539 |  erot = 2.3142791907112 | epot = -22.299521643743 | etot = -17.6786930814465
860000  ekin = 1.99694898863895 |  erot = 1.95028208283263 | epot = -22.3157281013929 | etot = -18.3684970299213
861000  ekin = 2.69685720778408 |  erot = 2.24433692481965 | epot = -22.308684325649 | etot = -17.3674901930452
862000  ekin = 2.86020772842225 |  erot = 2.41684858841926 | epot = -22.2875015844601 | etot = -17.0104452676185
863000  ekin = 2.60869027955544 |  erot = 3.3557429503542 | epot = -22.2313715051009 | etot = -16.2669382751913
864000  ekin = 2.90975887606274 |  erot = 2.2974711132053 | epot = -22.1986440077119 | etot = -16.9914140184438
865000  ekin = 1.92891179669311 |  erot = 2.15731612388581 | epot = -22.0985432850411 | etot = -18.0123153644622
866000  ekin = 1.96989214479485 |  erot = 1.64765168847281 | epot = -21.9980789481616 | etot = -18.380535114894
867000  ekin = 1.75216909752833 |  erot = 3.37220321936945 | epot = -21.9061232860984 | etot = -16.7817509692006
868000  ekin = 1.82818520973491 |  erot = 2.7944755326823 | epot = -21.9402402920261 | etot = -17.3175795496089
869000  ekin = 2.38093069905802 |  erot = 2.38587933771677 | epot = -22.0330352056336 | etot = -17.2662251688588
870000  ekin = 1.91335987165478 |  erot = 3.22058308836822 | epot = -22.0373177401659 | etot = -16.9033747801429
871000  ekin = 3.11763256544808 |  erot = 2.95338164044026 | epot = -21.9586151724215 | etot = -15.8876009665332
872000  ekin = 2.97998053337799 |  erot = 1.38590039691319 | epot = -21.8388889958107 | etot = -17.4730080655196
873000  ekin = 2.75061349369619 |  erot = 2.24383438401082 | epot = -21.7622218517437 | etot = -16.7677739740367
874000  ekin = 2.42548927431534 |  erot = 2.11161436912391 | epot = -21.6727594489541 | etot = -17.1356558055149
875000  ekin = 2.99029100585666 |  erot = 2.74121308538956 | epot = -21.668258099805 | etot = -15.9367540085588
876000  ekin = 2.13274848736646 |  erot = 2.23319212644067 | epot = -21.6688484321843 | etot = -17.3029078183771
877000  ekin = 1.83070881561166 |  erot = 1.60104159742216 | epot = -21.6264522455532 | etot = -18.1947018325194
878000  ekin = 2.01997766473212 |  erot = 2.72068834038241 | epot = -21.6321722158884 | etot = -16.8915062107738
879000  ekin = 1.43444304741827 |  erot = 2.17422518419202 | epot = -21.5502499158235 | etot = -17.9415816842133
880000  ekin = 2.09181756708376 |  erot = 2.57774127759727 | epot = -21.4848386835567 | etot = -16.8152798388756
881000  ekin = 1.54082374125037 |  erot = 1.98591349326851 | epot = -21.5198561888166 | etot = -17.9931189542977
882000  ekin = 2.20620241649865 |  erot = 2.64810056429068 | epot = -21.6150536961203 | etot = -16.760750715331
883000  ekin = 2.22399673754477 |  erot = 2.23146179436218 | epot = -21.6815278641887 | etot = -17.2260693322817
884000  ekin = 2.78668830976032 |  erot = 2.10129457858281 | epot = -21.7273526514588 | etot = -16.8393697631157
885000  ekin = 1.92363533860365 |  erot = 1.77572806384608 | epot = -21.7697843629897 | etot = -18.07042096054
886000  ekin = 1.99837400493853 |  erot = 3.11594950867252 | epot = -21.7880717591464 | etot = -16.6737482455354
887000  ekin = 1.98879357041702 |  erot = 2.81587324889294 | epot = -21.7924289081933 | etot = -16.9877620888833
888000  ekin = 1.92038081253069 |  erot = 2.32529355289366 | epot = -21.8608148998544 | etot = -17.61514053443
889000  ekin = 1.88062951921479 |  erot = 2.46119685782947 | epot = -21.9507114977877 | etot = -17.6088851207434
890000  ekin = 1.86004220539177 |  erot = 2.25705599329311 | epot = -22.0524916675628 | etot = -17.935393468878
891000  ekin = 2.60383186011201 |  erot = 2.35330732153708 | epot = -22.1901610904928 | etot = -17.2330219088437
892000  ekin = 2.68681495848524 |  erot = 2.69191866418566 | epot = -22.2914319616012 | etot = -16.9126983389303
893000  ekin = 2.1736025604619 |  erot = 2.9855340631332 | epot = -22.2913989289332 | etot = -17.1322623053381
894000  ekin = 2.52599407841049 |  erot = 2.45860683847711 | epot = -22.2814390199637 | etot = -17.2968381030761
895000  ekin = 2.51960337440812 |  erot = 2.45850851261114 | epot = -22.3091317035431 | etot = -17.3310198165238
896000  ekin = 1.83967907235416 |  erot = 2.78765565400226 | epot = -22.2817324681859 | etot = -17.6543977418295
897000  ekin = 2.36174473729441 |  erot = 2.02088352475316 | epot = -22.224489906849 | etot = -17.8418616448014
898000  ekin = 2.11473348088257 |  erot = 1.90142069141409 | epot = -22.1399662163227 | etot = -18.123812044026
899000  ekin = 2.62624378038804 |  erot = 2.33607099930376 | epot = -22.0408432520367 | etot = -17.0785284723449
900000  ekin = 2.11340838535732 |  erot = 2.28923228114128 | epot = -22.0429025506397 | etot = -17.6402618841411
901000  ekin = 1.91566215184365 |  erot = 1.81440527703791 | epot = -22.0776473770081 | etot = -18.3475799481266
902000  ekin = 2.56900020102358 |  erot = 2.49857156191872 | epot = -22.0064871081721 | etot = -16.9389153452298
903000  ekin = 1.85775254721542 |  erot = 2.1749013676366 | epot = -21.9440711401438 | etot = -17.9114172252918
904000  ekin = 1.86494867419599 |  erot = 2.32873664886262 | epot = -21.8931245107356 | etot = -17.699439187677
905000  ekin = 2.31980147940844 |  erot = 2.14361807880238 | epot = -21.8243901028494 | etot = -17.3609705446386
906000  ekin = 2.49848643102806 |  erot = 2.24843917975751 | epot = -21.8343535689989 | etot = -17.0874279582134
907000  ekin = 4.2050438363463 |  erot = 2.50213014445972 | epot = -21.9270462870553 | etot = -15.2198723062493
908000  ekin = 3.27389112705028 |  erot = 2.1139773414904 | epot = -22.0852225119256 | etot = -16.697354043385
909000  ekin = 2.63126952270321 |  erot = 1.92588883864824 | epot = -22.2068298128194 | etot = -17.6496714514679
910000  ekin = 2.59246919961188 |  erot = 2.91531362022026 | epot = -22.3084480522696 | etot = -16.8006652324374
911000  ekin = 2.58543295146612 |  erot = 4.35272230096969 | epot = -22.3704507138015 | etot = -15.4322954613657
912000  ekin = 3.05790216539308 |  erot = 3.70627231984866 | epot = -22.3924902932765 | etot = -15.6283158080348
913000  ekin = 2.8218125632957 |  erot = 2.17270533888476 | epot = -22.3593081791921 | etot = -17.3647902770116
914000  ekin = 2.15501507966989 |  erot = 1.21668054480496 | epot = -22.2678655505214 | etot = -18.8961699260465
915000  ekin = 1.59606056510822 |  erot = 2.96269780066395 | epot = -22.1741171670757 | etot = -17.6153588013035
916000  ekin = 2.59112654939107 |  erot = 3.74925924318435 | epot = -22.2377409731947 | etot = -15.8973551806193
917000  ekin = 3.0493203689855 |  erot = 2.87183972423686 | epot = -22.2632355232676 | etot = -16.3420754300453
918000  ekin = 2.92189281092746 |  erot = 2.63335972566601 | epot = -22.258652580422 | etot = -16.7034000438285
919000  ekin = 3.21078719192946 |  erot = 2.75946068538008 | epot = -22.2355180140143 | etot = -16.2652701367047
920000  ekin = 2.28586788874951 |  erot = 2.37332627126475 | epot = -22.2034083137746 | etot = -17.5442141537604
921000  ekin = 2.38962080413001 |  erot = 2.43664225646834 | epot = -22.185112667546 | etot = -17.3588496069477
922000  ekin = 2.30442218252457 |  erot = 2.41447890834928 | epot = -22.1365633702844 | etot = -17.4176622794105
923000  ekin = 2.49327560684184 |  erot = 2.66692243519056 | epot = -22.1215324922228 | etot = -16.9613344501904
924000  ekin = 1.53749943917136 |  erot = 2.96826475564971 | epot = -22.089501289138 | etot = -17.5837370943169
925000  ekin = 1.85839296627404 |  erot = 1.9630089146505 | epot = -22.0261958798282 | etot = -18.2047939989037
926000  ekin = 1.36443105914384 |  erot = 2.1171794932878 | epot = -22.0105979668103 | etot = -18.5289874143787
927000  ekin = 2.55078266090621 |  erot = 2.08770331246949 | epot = -22.0297469966776 | etot = -17.3912610233019
928000  ekin = 2.08687332975665 |  erot = 2.73936175158276 | epot = -22.0655836352027 | etot = -17.2393485538632
929000  ekin = 1.85843511626749 |  erot = 1.85229477009255 | epot = -22.1619339279447 | etot = -18.4512040415846
930000  ekin = 1.98312827530234 |  erot = 2.11072782324153 | epot = -22.148404885232 | etot = -18.0545487866881
931000  ekin = 2.44404037283661 |  erot = 1.87098036863263 | epot = -22.045526835582 | etot = -17.7305060941127
932000  ekin = 2.74511224055608 |  erot = 2.34428828961869 | epot = -22.0610647907213 | etot = -16.9716642605465
933000  ekin = 3.03612209957546 |  erot = 2.51767378960712 | epot = -21.9625270494876 | etot = -16.408731160305
934000  ekin = 2.94656694542126 |  erot = 2.48807264081831 | epot = -21.861447502856 | etot = -16.4268079166164
935000  ekin = 2.79277367387165 |  erot = 2.14683969082916 | epot = -21.8273290607191 | etot = -16.8877156960183
936000  ekin = 2.97180432771798 |  erot = 2.07585566252292 | epot = -21.8285478379897 | etot = -16.7808878477488
937000  ekin = 3.04681426679838 |  erot = 2.34693750557886 | epot = -21.7540345943249 | etot = -16.3602828219476
938000  ekin = 2.98753455096208 |  erot = 2.36094629864927 | epot = -21.669921719463 | etot = -16.3214408698516
939000  ekin = 2.5815116272011 |  erot = 2.28540517977038 | epot = -21.6416685543635 | etot = -16.774751747392
940000  ekin = 2.64452600431539 |  erot = 2.76444843839484 | epot = -21.5519696309499 | etot = -16.1429951882397
941000  ekin = 2.27120802986608 |  erot = 2.60471729926444 | epot = -21.4614510918559 | etot = -16.5855257627254
942000  ekin = 1.87372160611096 |  erot = 2.80847310756688 | epot = -21.3628386356793 | etot = -16.6806439220015
943000  ekin = 2.47141066321096 |  erot = 2.33779379941891 | epot = -21.363618035927 | etot = -16.5544135732972
944000  ekin = 2.13394139147127 |  erot = 1.92151741713676 | epot = -21.3251241131195 | etot = -17.2696653045115
945000  ekin = 2.55903591944463 |  erot = 2.20641057626278 | epot = -21.3689027899513 | etot = -16.6034562942439
946000  ekin = 2.36057887627665 |  erot = 2.87562563403205 | epot = -21.3642844166796 | etot = -16.1280799063709
947000  ekin = 2.06640868745843 |  erot = 1.87129277041451 | epot = -21.361667299016 | etot = -17.423965841143
948000  ekin = 1.84829667860633 |  erot = 1.37748341041347 | epot = -21.4043264064643 | etot = -18.1785463174445
949000  ekin = 1.76269317475673 |  erot = 2.31704682699621 | epot = -21.4241969105702 | etot = -17.3444569088173
950000  ekin = 1.71597192365278 |  erot = 2.24238818867182 | epot = -21.4137382130783 | etot = -17.4553781007537
951000  ekin = 1.97740353609815 |  erot = 2.3235775919709 | epot = -21.4747894560116 | etot = -17.1738083279426
952000  ekin = 2.93972459147619 |  erot = 2.7264267649198 | epot = -21.5184934927053 | etot = -15.8523421363093
953000  ekin = 2.94580120867627 |  erot = 2.3885651029181 | epot = -21.5142900777068 | etot = -16.1799237661125
954000  ekin = 3.09124464575104 |  erot = 1.98545519388255 | epot = -21.4222393978574 | etot = -16.3455395582238
955000  ekin = 3.57635828612239 |  erot = 2.07344149873787 | epot = -21.305651356955 | etot = -15.6558515720948
956000  ekin = 2.96200909778686 |  erot = 3.68175912378205 | epot = -21.157040218368 | etot = -14.5132719967991
957000  ekin = 2.9934348145403 |  erot = 2.66416955872305 | epot = -20.9768827662772 | etot = -15.3192783930138
958000  ekin = 2.66519549819093 |  erot = 2.94296814880089 | epot = -20.7784507090075 | etot = -15.1702870620156
959000  ekin = 1.92857560759304 |  erot = 2.44736991936641 | epot = -20.7023816787833 | etot = -16.3264361518238
960000  ekin = 1.49450803358212 |  erot = 3.13585226423836 | epot = -20.7120144681538 | etot = -16.0816541703333
961000  ekin = 1.95028642422207 |  erot = 2.08600574936454 | epot = -20.7117469089035 | etot = -16.6754547353169
962000  ekin = 2.02517481382584 |  erot = 1.89936067129151 | epot = -20.7773964294488 | etot = -16.8528609443315
963000  ekin = 1.81867025887159 |  erot = 2.47411932412279 | epot = -20.8447579345839 | etot = -16.5519683515895
964000  ekin = 2.82276496790393 |  erot = 2.43516586616438 | epot = -20.903922975909 | etot = -15.6459921418407
965000  ekin = 2.55108655192476 |  erot = 2.29878304255031 | epot = -20.9718606663833 | etot = -16.1219910719082
966000  ekin = 2.12011039995763 |  erot = 2.28469402857006 | epot = -21.0607245253139 | etot = -16.6559200967862
967000  ekin = 1.58231560351932 |  erot = 3.55759001366773 | epot = -21.1226021191741 | etot = -15.982696501987
968000  ekin = 1.95012246688271 |  erot = 2.37521006238884 | epot = -21.1148898184345 | etot = -16.7895572891629
969000  ekin = 2.19259023755588 |  erot = 2.45911390116742 | epot = -21.0842607955297 | etot = -16.4325566568064
970000  ekin = 1.87048303167747 |  erot = 2.95645393326851 | epot = -21.0144108895372 | etot = -16.1874739245912
971000  ekin = 1.95012477829126 |  erot = 3.07172629604582 | epot = -20.9855553455518 | etot = -15.9637042712147
972000  ekin = 1.93195517458082 |  erot = 2.56231250597297 | epot = -20.9701698825601 | etot = -16.4759022020063
973000  ekin = 2.21533845309822 |  erot = 2.92680845685574 | epot = -20.9736039159605 | etot = -15.8314570060066
974000  ekin = 2.53783851969245 |  erot = 2.68951943774763 | epot = -20.9250705852868 | etot = -15.6977126278467
975000  ekin = 3.38321286183975 |  erot = 2.3388937245268 | epot = -20.8976133286568 | etot = -15.1755067422903
976000  ekin = 2.84642762041042 |  erot = 3.11577005329036 | epot = -20.8920682645474 | etot = -14.9298705908466
977000  ekin = 2.71729658676912 |  erot = 2.5084228279903 | epot = -20.8689607108408 | etot = -15.6432412960814
978000  ekin = 1.79445054300148 |  erot = 2.07364967100101 | epot = -20.8420722556647 | etot = -16.9739720416622
979000  ekin = 1.87118885565252 |  erot = 2.21929236157499 | epot = -20.774871884918 | etot = -16.6843906676905
980000  ekin = 1.92328692629603 |  erot = 1.58075146493092 | epot = -20.7450294842512 | etot = -17.2409910930243
981000  ekin = 1.54380792071409 |  erot = 2.05666691648826 | epot = -20.8055779656275 | etot = -17.2051031284252
982000  ekin = 1.84105485043124 |  erot = 1.96437622792518 | epot = -20.9115808211874 | etot = -17.106149742831
983000  ekin = 2.72418502177569 |  erot = 1.79041563369968 | epot = -20.9354223873698 | etot = -16.4208217318945
984000  ekin = 3.62593140681741 |  erot = 2.63360144654398 | epot = -21.0391820820805 | etot = -14.7796492287191
985000  ekin = 2.94852683897972 |  erot = 2.17122506831154 | epot = -21.2107161619268 | etot = -16.0909642546355
986000  ekin = 2.8730990470673 |  erot = 2.17803097743515 | epot = -21.3376467553807 | etot = -16.2865167308783
987000  ekin = 3.37014034763591 |  erot = 2.51986025997469 | epot = -21.4044213003553 | etot = -15.5144206927447
988000  ekin = 3.46869513961502 |  erot = 3.24290721199116 | epot = -21.4574897009989 | etot = -14.7458873493927
989000  ekin = 2.84166309499202 |  erot = 2.20794524768456 | epot = -21.6064619775396 | etot = -16.556853634863
990000  ekin = 2.7961621760392 |  erot = 1.83962335779988 | epot = -21.6050150594377 | etot = -16.9692295255987
991000  ekin = 3.12373716765057 |  erot = 3.19217793832918 | epot = -21.5124956370547 | etot = -15.196580531075
992000  ekin = 3.28264042603627 |  erot = 2.63437573620237 | epot = -21.3974383725657 | etot = -15.4804222103271
993000  ekin = 3.03843938464914 |  erot = 2.2245111821208 | epot = -21.3215565657891 | etot = -16.0586059990192
994000  ekin = 3.17415651424377 |  erot = 2.79358782634793 | epot = -21.2400795485327 | etot = -15.272335207941
995000  ekin = 3.20647480868909 |  erot = 1.72566862077117 | epot = -21.1373044030639 | etot = -16.2051609736037
996000  ekin = 3.05112273650758 |  erot = 3.18000206414337 | epot = -21.0953933909242 | etot = -14.8642685902733
997000  ekin = 2.95627130723369 |  erot = 3.15916576717626 | epot = -21.0582569249376 | etot = -14.9428198505277
998000  ekin = 3.0660899917632 |  erot = 1.97683196852806 | epot = -20.9835503180559 | etot = -15.9406283577646
999000  ekin = 2.08921397127967 |  erot = 2.76365668450607 | epot = -20.9706997536924 | etot = -16.1178290979066
1000000  ekin = 2.117712793702 |  erot = 2.14107266477967 | epot = -20.9100710796761 | etot = -16.6512856211944
 1000000  0.094120569   -1.3660232  0.059143724   -1.1745224 -3.0717572e-05 
Loop time of 37.9247 on 1 procs for 1000000 steps with 16 atoms

Performance: 22782.012 tau/day, 26368.069 timesteps/s
99.5% CPU use with 1 MPI tasks x no OpenMP threads

MPI task timing breakdown:
Section |  min time  |  avg time  |  max time  |%varavg| %total
---------------------------------------------------------------
Pair    | 27.061     | 27.061     | 27.061     |   0.0 | 71.36
Bond    | 0.98271    | 0.98271    | 0.98271    |   0.0 |  2.59
Neigh   | 0          | 0          | 0          |   0.0 |  0.00
Comm    | 0.2053     | 0.2053     | 0.2053     |   0.0 |  0.54
Output  | 8e-06      | 8e-06      | 8e-06      |   0.0 |  0.00
Modify  | 9.3814     | 9.3814     | 9.3814     |   0.0 | 24.74
Other   |            | 0.2939     |            |       |  0.77

Nlocal:    16.0 ave 16.0 max 16.0 min
Histogram: 1 0 0 0 0 0 0 0 0 0
Nghost:    0.0 ave 0.0 max 0.0 min
Histogram: 1 0 0 0 0 0 0 0 0 0
Neighs:    103.0 ave 103.0 max 103.0 min
Histogram: 1 0 0 0 0 0 0 0 0 0

Total # of neighbors = 103
Ave neighs/atom = 6.4375
Ave special neighs/atom = 3.75
Neighbor list builds = 0
Dangerous builds = 0

#write_restart config.${number}.*
Total wall time: 0:00:37
