LAMMPS (27 Nov 2018)
  using 1 OpenMP thread(s) per MPI task
variable number	equal 2
variable ofreq	equal 1000
variable efreq	equal 1000

units lj

dimension 3

newton off

boundary  p p p

atom_style hybrid bond ellipsoid
atom_modify sort 0 1.0

# Pair interactions require lists of neighbours to be calculated
neighbor 1.0 bin
neigh_modify every 1 delay 0 check yes

read_data data.duplex2
  orthogonal box = (-20 -20 -20) to (20 20 20)
  1 by 2 by 2 MPI processor grid
  reading atoms ...
  16 atoms
  reading velocities ...
  16 velocities
  16 ellipsoids
  scanning bonds ...
  2 = max bonds/atom
  reading bonds ...
  13 bonds
  2 = max # of 1-2 neighbors
  2 = max # of 1-3 neighbors
  4 = max # of 1-4 neighbors
  6 = max # of special neighbors

set atom * mass 3.1575
  16 settings made for mass

group all type 1 4
16 atoms in group all

# oxDNA bond interactions - FENE backbone
bond_style oxdna2/fene
bond_coeff * 2.0 0.25 0.7564

# oxDNA pair interactions
pair_style hybrid/overlay oxdna2/excv oxdna2/stk oxdna2/hbond oxdna2/xstk oxdna2/coaxstk oxdna2/dh
pair_coeff * * oxdna2/excv    2.0 0.7 0.675 2.0 0.515 0.5 2.0 0.33 0.32
pair_coeff * * oxdna2/stk     seqav 0.1 6.0 0.4 0.9 0.32 0.6 1.3 0 0.8 0.9 0 0.95 0.9 0 0.95 2.0 0.65 2.0 0.65
pair_coeff * * oxdna2/hbond   seqav 0.0 8.0 0.4 0.75 0.34 0.7 1.5 0 0.7 1.5 0 0.7 1.5 0 0.7 0.46 3.141592653589793 0.7 4.0 1.5707963267948966 0.45 4.0 1.5707963267948966 0.45
pair_coeff 1 4 oxdna2/hbond   seqav 1.0678 8.0 0.4 0.75 0.34 0.7 1.5 0 0.7 1.5 0 0.7 1.5 0 0.7 0.46 3.141592653589793 0.7 4.0 1.5707963267948966 0.45 4.0 1.5707963267948966 0.45
pair_coeff 2 3 oxdna2/hbond   seqav 1.0678 8.0 0.4 0.75 0.34 0.7 1.5 0 0.7 1.5 0 0.7 1.5 0 0.7 0.46 3.141592653589793 0.7 4.0 1.5707963267948966 0.45 4.0 1.5707963267948966 0.45
pair_coeff * * oxdna2/xstk    47.5 0.575 0.675 0.495 0.655 2.25 0.791592653589793 0.58 1.7 1.0 0.68 1.7 1.0 0.68 1.5 0 0.65 1.7 0.875 0.68 1.7 0.875 0.68
pair_coeff * * oxdna2/coaxstk 58.5 0.4 0.6 0.22 0.58 2.0 2.891592653589793 0.65 1.3 0 0.8 0.9 0 0.95 0.9 0 0.95 40.0 3.116592653589793
pair_coeff * * oxdna2/dh      0.1 1.0 0.815

# NVE ensemble
#fix 1 all nve/dot
fix 1 all nve/dotc/langevin 0.1 0.1 0.03 457145 angmom 10
#fix 1 all nve/asphere
#fix 2 all langevin 0.1 0.1 0.03 457145 angmom 10

timestep 1e-5

#comm_style tiled
#fix 3 all balance 10000 1.1 rcb

#compute mol all chunk/atom molecule
#compute mychunk all vcm/chunk mol
#fix 4 all ave/time 10000 1 10000 c_mychunk[1] c_mychunk[2] c_mychunk[3] file vcm.txt mode vector

#dump pos all xyz ${ofreq} traj.${number}.xyz

#compute quat all property/atom quatw quati quatj quatk
#dump quat all custom ${ofreq} quat.${number}.txt id c_quat[1] c_quat[2] c_quat[3] c_quat[4]
#dump_modify quat sort id
#dump_modify quat format line "%d  %13.6le  %13.6le  %13.6le  %13.6le"

compute erot all erotate/asphere
compute ekin all ke
compute epot all pe
variable erot equal c_erot
variable ekin equal c_ekin
variable epot equal c_epot
variable etot equal c_erot+c_ekin+c_epot
fix 5 all print ${efreq} "$(step)  ekin = ${ekin} |  erot = ${erot} | epot = ${epot} | etot = ${etot}" screen yes
fix 5 all print 1000 "$(step)  ekin = ${ekin} |  erot = ${erot} | epot = ${epot} | etot = ${etot}" screen yes

#dump out all custom ${ofreq} out.${number}.txt id x y z vx vy vz fx fy fz tqx tqy tqz
#dump_modify out sort id
#dump_modify out format line "%d   %13.6le %13.6le %13.6le  %13.6le %13.6le %13.6le  %13.6le %13.6le %13.6le  %13.6le %13.6le %13.6le"

run 10000
Neighbor list info ...
  update every 1 steps, delay 0 steps, check yes
  max neighbors/atom: 2000, page size: 100000
  master list distance cutoff = 2.6274
  ghost atom cutoff = 2.6274
  binsize = 1.3137, bins = 31 31 31
  6 neighbor lists, perpetual/occasional/extra = 6 0 0
  (1) pair oxdna2/excv, perpetual
      attributes: half, newton off
      pair build: half/bin/newtoff
      stencil: half/bin/3d/newtoff
      bin: standard
  (2) pair oxdna2/stk, perpetual, copy from (1)
      attributes: half, newton off
      pair build: copy
      stencil: none
      bin: none
  (3) pair oxdna2/hbond, perpetual, copy from (1)
      attributes: half, newton off
      pair build: copy
      stencil: none
      bin: none
  (4) pair oxdna2/xstk, perpetual, copy from (1)
      attributes: half, newton off
      pair build: copy
      stencil: none
      bin: none
  (5) pair oxdna2/coaxstk, perpetual, copy from (1)
      attributes: half, newton off
      pair build: copy
      stencil: none
      bin: none
  (6) pair oxdna2/dh, perpetual, copy from (1)
      attributes: half, newton off
      pair build: copy
      stencil: none
      bin: none
Per MPI rank memory allocation (min/avg/max) = 7.777 | 7.959 | 8.142 Mbytes
Step Temp E_pair E_mol TotEng Press 
       0            0   -1.5358787 0.0096742456   -1.5262045 -7.9568629e-05 
1000  ekin = 1.34554291364716 |  erot = 2.30525041754444 | epot = -24.3924150888896 | etot = -20.741621757698
2000  ekin = 2.15972469811184 |  erot = 2.1628675965276 | epot = -24.3548203354875 | etot = -20.0322280408481
3000  ekin = 3.26433550542939 |  erot = 2.76107866472085 | epot = -24.2947953202752 | etot = -18.269381150125
4000  ekin = 1.9203212531997 |  erot = 2.13339438425299 | epot = -24.234098584123 | etot = -20.1803829466703
5000  ekin = 1.35481075814721 |  erot = 2.00854026688447 | epot = -24.1768963201279 | etot = -20.8135452950963
6000  ekin = 2.18974627635306 |  erot = 1.73271671162435 | epot = -24.1096616118305 | etot = -20.1871986238531
7000  ekin = 2.65472853187395 |  erot = 1.73258720631296 | epot = -24.0561118130561 | etot = -19.6687960748691
8000  ekin = 2.51192327964357 |  erot = 2.34132844779952 | epot = -23.9708695663488 | etot = -19.1176178389058
9000  ekin = 2.24554900802464 |  erot = 2.0522939078286 | epot = -23.874757758319 | etot = -19.5769148424658
10000  ekin = 2.36227360512089 |  erot = 1.80185994066737 | epot = -23.7793375260418 | etot = -19.6152039802535
   10000   0.10498994   -1.5020657  0.015857071   -1.3385665 -8.8930899e-05 
Loop time of 0.291642 on 4 procs for 10000 steps with 16 atoms

Performance: 29625.313 tau/day, 34288.557 timesteps/s
96.6% CPU use with 4 MPI tasks x 1 OpenMP threads

MPI task timing breakdown:
Section |  min time  |  avg time  |  max time  |%varavg| %total
---------------------------------------------------------------
Pair    | 0.0035026  | 0.1107     | 0.20674    |  28.3 | 37.96
Bond    | 0.00062203 | 0.0029532  | 0.0049176  |   3.6 |  1.01
Neigh   | 0          | 0          | 0          |   0.0 |  0.00
Comm    | 0.016712   | 0.018041   | 0.01914    |   0.7 |  6.19
Output  | 5.0306e-05 | 5.424e-05  | 5.579e-05  |   0.0 |  0.02
Modify  | 0.0013862  | 0.020914   | 0.039594   |  11.7 |  7.17
Other   |            | 0.139      |            |       | 47.65

Nlocal:    4 ave 8 max 0 min
Histogram: 1 1 0 0 0 0 0 0 1 1
Nghost:    11 ave 14 max 8 min
Histogram: 1 1 0 0 0 0 0 0 1 1
Neighs:    46 ave 89 max 0 min
Histogram: 1 1 0 0 0 0 0 0 0 2

Total # of neighbors = 184
Ave neighs/atom = 11.5
Ave special neighs/atom = 3.75
Neighbor list builds = 0
Dangerous builds = 0

#write_restart config.${number}.*
Total wall time: 0:00:00
