ITEM: TIMESTEP
0
ITEM: NUMBER OF ATOMS
284
ITEM: BOX BOUNDS pp pp pp
-2.4000000000000000e+01 2.4000000000000000e+01
-2.4000000000000000e+01 2.4000000000000000e+01
-2.4000000000000000e+01 2.4000000000000000e+01
ITEM: ATOMS id type xs ys zs
51 1 0.507407 0.497397 0.418334
1 1 0.511868 0.470841 0.423506
45 1 0.472064 0.483306 0.426355
35 1 0.510757 0.459606 0.432126
42 1 0.53542 0.468352 0.43318
19 1 0.461811 0.495058 0.440786
23 1 0.470912 0.452338 0.443905
17 1 0.524412 0.461729 0.448287
57 1 0.536054 0.46403 0.451541
7 1 0.482189 0.476078 0.445009
61 1 0.504113 0.466479 0.445438
41 1 0.516559 0.470694 0.450296
15 1 0.535103 0.468829 0.443823
58 1 0.559954 0.487661 0.448723
25 1 0.461861 0.490904 0.452904
8 1 0.514715 0.490061 0.449004
39 1 0.532923 0.496021 0.452634
10 1 0.468799 0.439735 0.45627
69 1 0.512173 0.430284 0.456292
65 1 0.466083 0.451635 0.464619
52 1 0.51264 0.445546 0.456497
37 1 0.458646 0.464278 0.454147
62 1 0.48077 0.476198 0.464765
26 1 0.51407 0.467898 0.455211
9 1 0.527516 0.466301 0.458992
54 1 0.537482 0.466897 0.465008
66 1 0.539942 0.465785 0.456656
64 1 0.489963 0.48308 0.454425
2 1 0.5035 0.485609 0.45584
24 1 0.548758 0.483516 0.455314
18 1 0.523379 0.43571 0.474354
38 1 0.536192 0.449642 0.46663
14 1 0.525404 0.464943 0.469236
5 1 0.501278 0.487355 0.472919
16 1 0.507 0.480899 0.468219
30 1 0.476309 0.494187 0.469561
49 1 0.478848 0.499155 0.46981
33 1 0.472388 0.423712 0.486072
34 1 0.480728 0.429314 0.480519
6 1 0.516159 0.422184 0.485005
31 1 0.48405 0.43098 0.486501
29 1 0.462909 0.45001 0.481863
36 1 0.532563 0.450188 0.480392
22 1 0.467174 0.458548 0.477359
53 1 0.514902 0.464587 0.477576
43 1 0.438139 0.475039 0.484235
46 1 0.531989 0.473889 0.482655
50 1 0.55559 0.468038 0.478353
27 1 0.481455 0.484113 0.479218
47 1 0.479026 0.485977 0.481279
21 1 0.494268 0.487534 0.482912
44 1 0.45723 0.495507 0.481355
20 1 0.463427 0.4915 0.479135
3 1 0.472164 0.494981 0.477075
11 1 0.540042 0.49154 0.477191
12 1 0.458426 0.437705 0.499869
13 1 0.451832 0.43942 0.499873
59 1 0.481323 0.433103 0.497339
55 1 0.488969 0.433083 0.499681
32 1 0.511807 0.436028 0.488441
63 1 0.523042 0.430624 0.490951
48 1 0.45562 0.445062 0.495235
68 1 0.542191 0.443287 0.489367
40 1 0.552653 0.442097 0.495188
28 1 0.447004 0.459987 0.496449
67 1 0.491995 0.463319 0.497131
4 1 0.443068 0.471837 0.499685
60 1 0.460382 0.466333 0.493134
56 1 0.423632 0.491293 0.496682
91 1 0.471525 0.423247 0.507822
93 1 0.546336 0.437407 0.504214
106 1 0.528031 0.448593 0.504435
116 1 0.531829 0.449734 0.506614
110 1 0.493284 0.455693 0.503547
130 1 0.551276 0.461227 0.505434
123 1 0.494405 0.470915 0.509731
128 1 0.509112 0.475774 0.500841
89 1 0.452023 0.483678 0.508214
135 1 0.46182 0.480653 0.508455
125 1 0.478599 0.488021 0.506839
97 1 0.529213 0.476954 0.507037
144 1 0.42396 0.489102 0.508897
102 1 0.495448 0.489806 0.504297
136 1 0.506961 0.491769 0.500414
72 1 0.534767 0.488735 0.504425
95 1 0.51142 0.434869 0.511658
77 1 0.531035 0.438539 0.519418
111 1 0.536807 0.442634 0.519672
85 1 0.488762 0.459323 0.513954
109 1 0.50094 0.460127 0.513858
145 1 0.463208 0.475696 0.520853
141 1 0.564753 0.46925 0.513316
83 1 0.437921 0.478651 0.51595
74 1 0.486678 0.426064 0.531742
108 1 0.500492 0.427364 0.532504
121 1 0.463713 0.450002 0.524273
132 1 0.562868 0.452551 0.523514
87 1 0.4558 0.458224 0.530465
88 1 0.519573 0.457004 0.528943
92 1 0.461968 0.466782 0.534672
113 1 0.460451 0.466633 0.531444
119 1 0.481375 0.467635 0.534076
84 1 0.539833 0.469191 0.527696
101 1 0.44046 0.476857 0.534216
103 1 0.560767 0.477253 0.52897
120 1 0.484629 0.493923 0.528578
127 1 0.571398 0.489996 0.530191
78 1 0.503834 0.439591 0.541332
122 1 0.490467 0.449081 0.540994
138 1 0.487343 0.44801 0.545591
134 1 0.495961 0.44799 0.536173
80 1 0.463842 0.455368 0.544438
137 1 0.464438 0.467844 0.54628
133 1 0.525156 0.471453 0.536286
94 1 0.562512 0.465989 0.542199
98 1 0.559973 0.470719 0.539193
126 1 0.560608 0.471711 0.538379
82 1 0.460234 0.486754 0.542123
142 1 0.477806 0.477582 0.546373
114 1 0.484787 0.482926 0.535977
112 1 0.498591 0.480129 0.535662
100 1 0.552824 0.486447 0.545535
124 1 0.554351 0.485366 0.538375
129 1 0.468118 0.489967 0.535147
71 1 0.532397 0.48954 0.538099
75 1 0.487006 0.444778 0.548055
81 1 0.495178 0.449647 0.552248
99 1 0.509705 0.446087 0.553361
107 1 0.543431 0.448645 0.54688
131 1 0.513375 0.454278 0.553409
79 1 0.510004 0.477066 0.555743
104 1 0.533338 0.486368 0.55412
86 1 0.479373 0.492943 0.551974
117 1 0.50116 0.48844 0.546704
105 1 0.486808 0.452365 0.560235
115 1 0.492134 0.456153 0.566342
96 1 0.458488 0.472575 0.566211
118 1 0.464428 0.47307 0.561965
76 1 0.537493 0.485168 0.558198
143 1 0.462049 0.493191 0.567933
90 1 0.498769 0.470671 0.571427
139 1 0.51414 0.479566 0.574081
70 1 0.529332 0.48509 0.573356
73 1 0.479958 0.489027 0.573541
140 1 0.478967 0.498884 0.575954
210 1 0.499932 0.52206 0.420856
149 1 0.492178 0.530072 0.425954
186 1 0.501211 0.526423 0.42494
198 1 0.504752 0.535636 0.428247
147 1 0.473653 0.513542 0.434047
154 1 0.482151 0.518966 0.431628
160 1 0.4906 0.518421 0.43963
190 1 0.457132 0.524113 0.433707
150 1 0.477134 0.52452 0.432731
153 1 0.50144 0.528575 0.433774
155 1 0.512725 0.539047 0.430781
148 1 0.502244 0.546871 0.432557
196 1 0.503077 0.549926 0.438991
158 1 0.554164 0.500086 0.443548
187 1 0.445292 0.518858 0.449821
182 1 0.519269 0.515933 0.447782
212 1 0.520816 0.516895 0.453175
156 1 0.525417 0.52463 0.449888
180 1 0.465136 0.537075 0.445091
185 1 0.504247 0.544255 0.45322
200 1 0.439757 0.503707 0.46276
170 1 0.568682 0.506116 0.459331
157 1 0.524604 0.5128 0.460273
165 1 0.558112 0.516648 0.462629
173 1 0.440096 0.525047 0.461559
174 1 0.454386 0.528765 0.460572
214 1 0.482796 0.524938 0.462328
192 1 0.467724 0.541607 0.459829
177 1 0.482222 0.542043 0.455415
166 1 0.552719 0.54243 0.454103
151 1 0.532073 0.554727 0.462131
181 1 0.537646 0.551821 0.454794
159 1 0.494679 0.569582 0.461105
213 1 0.50872 0.561302 0.462223
201 1 0.441275 0.508744 0.466593
188 1 0.453234 0.510906 0.470584
152 1 0.46684 0.506286 0.474925
208 1 0.431637 0.529817 0.465739
184 1 0.440662 0.537225 0.476062
204 1 0.468012 0.536809 0.474245
172 1 0.47775 0.54498 0.472897
206 1 0.457511 0.546685 0.468243
211 1 0.460396 0.547271 0.476061
179 1 0.481727 0.557236 0.46843
195 1 0.516316 0.558019 0.465136
191 1 0.465544 0.569355 0.474489
168 1 0.483623 0.576802 0.474543
176 1 0.515236 0.576673 0.472138
205 1 0.573997 0.503093 0.487416
163 1 0.454564 0.520586 0.480843
202 1 0.536801 0.521796 0.484253
167 1 0.513181 0.524939 0.483879
193 1 0.515432 0.538633 0.479759
162 1 0.558817 0.543959 0.486092
199 1 0.528692 0.551971 0.48408
171 1 0.524636 0.561818 0.480855
209 1 0.475015 0.572459 0.481279
194 1 0.438637 0.50711 0.494589
178 1 0.471163 0.508389 0.490831
169 1 0.430377 0.512276 0.488467
203 1 0.477104 0.521558 0.49011
164 1 0.553233 0.516957 0.492137
189 1 0.447554 0.534608 0.492593
207 1 0.473297 0.533121 0.499383
183 1 0.485742 0.540439 0.492307
175 1 0.520689 0.550911 0.497826
146 1 0.554653 0.557664 0.494509
197 1 0.502295 0.574046 0.490441
161 1 0.527632 0.578023 0.497405
230 1 0.498156 0.502975 0.503772
251 1 0.509123 0.502093 0.503467
217 1 0.531108 0.502728 0.511205
239 1 0.56294 0.504284 0.506245
243 1 0.554898 0.500149 0.507104
220 1 0.533479 0.513457 0.508974
234 1 0.53461 0.518376 0.508627
276 1 0.425202 0.532645 0.505945
252 1 0.52279 0.526497 0.504012
247 1 0.531358 0.533925 0.504628
258 1 0.477016 0.546509 0.510615
236 1 0.524903 0.541412 0.505807
269 1 0.540759 0.537773 0.51148
246 1 0.551866 0.541461 0.509889
244 1 0.558451 0.549682 0.500806
221 1 0.48616 0.55943 0.500175
218 1 0.487054 0.577399 0.506847
224 1 0.500064 0.575683 0.503023
279 1 0.51781 0.504572 0.5164
231 1 0.565211 0.503085 0.511648
274 1 0.474803 0.514598 0.512404
272 1 0.52628 0.517127 0.52267
266 1 0.463955 0.524633 0.512274
241 1 0.497017 0.531565 0.520191
271 1 0.533738 0.533281 0.519035
264 1 0.448734 0.537733 0.518263
250 1 0.503652 0.545349 0.51598
263 1 0.540482 0.553402 0.519741
233 1 0.489324 0.572094 0.520681
223 1 0.557298 0.507746 0.523403
256 1 0.446036 0.522859 0.52844
225 1 0.519497 0.518268 0.525831
273 1 0.519706 0.524119 0.527001
219 1 0.569824 0.525121 0.534714
265 1 0.446076 0.537546 0.532892
222 1 0.463679 0.556962 0.533585
277 1 0.461715 0.548117 0.527701
226 1 0.475976 0.569328 0.524769
270 1 0.523761 0.515006 0.539522
282 1 0.533113 0.522295 0.542394
275 1 0.467465 0.524516 0.545045
261 1 0.553115 0.537566 0.542191
249 1 0.450926 0.550933 0.538945
253 1 0.500529 0.558341 0.538726
257 1 0.4957 0.563121 0.534994
262 1 0.512994 0.564162 0.545278
237 1 0.472056 0.504555 0.555149
281 1 0.483797 0.502681 0.556513
284 1 0.535323 0.510307 0.556563
229 1 0.504433 0.513053 0.551387
254 1 0.513418 0.51694 0.551169
242 1 0.521074 0.519588 0.548941
235 1 0.554274 0.521234 0.550396
278 1 0.557576 0.514828 0.549214
238 1 0.515601 0.531934 0.55296
259 1 0.516246 0.545847 0.550668
268 1 0.480864 0.551986 0.554822
240 1 0.489224 0.548266 0.547032
267 1 0.53241 0.554028 0.550518
227 1 0.469398 0.50523 0.560857
215 1 0.472651 0.50873 0.561166
216 1 0.504016 0.505279 0.559093
260 1 0.523929 0.505755 0.564738
232 1 0.474049 0.514343 0.566904
280 1 0.472958 0.512459 0.567193
283 1 0.522095 0.522832 0.563021
228 1 0.520935 0.528871 0.560702
245 1 0.502739 0.540235 0.567523
248 1 0.53097 0.506956 0.571477
255 1 0.48597 0.536666 0.571779
ITEM: TIMESTEP
10000
ITEM: NUMBER OF ATOMS
284
ITEM: BOX BOUNDS pp pp pp
-2.4000000000000000e+01 2.4000000000000000e+01
-2.4000000000000000e+01 2.4000000000000000e+01
-2.4000000000000000e+01 2.4000000000000000e+01
ITEM: ATOMS id type xs ys zs
13 1 0.47474 0.443074 0.448781
118 1 0.529803 0.47116 0.439803
85 1 0.521356 0.45501 0.431256
76 1 0.467321 0.460426 0.43488
30 1 0.539333 0.438477 0.470646
202 1 0.541733 0.467553 0.432691
239 1 0.502146 0.468626 0.443109
157 1 0.447419 0.480959 0.453806
63 1 0.436027 0.456168 0.473566
22 1 0.519124 0.475042 0.440043
259 1 0.526792 0.427801 0.466725
184 1 0.499156 0.488875 0.432436
31 1 0.449259 0.433721 0.495683
180 1 0.487234 0.488522 0.420758
261 1 0.497531 0.452473 0.430236
107 1 0.508852 0.499757 0.452897
142 1 0.456743 0.466726 0.462225
120 1 0.503327 0.463556 0.424075
88 1 0.434452 0.446467 0.491848
104 1 0.467855 0.469662 0.42585
272 1 0.573585 0.473701 0.469054
51 1 0.511118 0.415347 0.500069
214 1 0.47007 0.421186 0.484128
101 1 0.523885 0.496162 0.426141
165 1 0.519241 0.471013 0.482866
151 1 0.572432 0.483432 0.45826
66 1 0.557191 0.449115 0.473146
211 1 0.475629 0.480431 0.470687
221 1 0.550826 0.47296 0.476405
124 1 0.558802 0.450934 0.488351
32 1 0.545387 0.473423 0.495179
203 1 0.508682 0.420163 0.473382
40 1 0.579632 0.483329 0.477661
235 1 0.45571 0.45001 0.487388
11 1 0.544715 0.495578 0.477462
267 1 0.476024 0.451657 0.469158
172 1 0.523953 0.419797 0.485992
156 1 0.489467 0.427011 0.455281
73 1 0.492888 0.440368 0.488868
55 1 0.479728 0.494493 0.444336
176 1 0.419033 0.49596 0.496742
181 1 0.535546 0.452797 0.440739
163 1 0.541354 0.472339 0.4519
128 1 0.449091 0.483485 0.46643
183 1 0.493045 0.438826 0.44853
8 1 0.44558 0.442554 0.47133
100 1 0.510141 0.443173 0.45174
217 1 0.524003 0.44244 0.454669
29 1 0.545128 0.491181 0.434836
281 1 0.544622 0.430782 0.492654
269 1 0.437546 0.465572 0.450156
110 1 0.491851 0.487461 0.458682
240 1 0.502354 0.439782 0.470741
116 1 0.459846 0.486057 0.433448
39 1 0.505045 0.455916 0.440728
245 1 0.425954 0.478933 0.48283
75 1 0.581723 0.47481 0.497863
37 1 0.426128 0.485667 0.465901
242 1 0.459727 0.433393 0.46355
112 1 0.463427 0.486214 0.482971
68 1 0.44994 0.459361 0.441631
241 1 0.57538 0.462303 0.485356
246 1 0.583818 0.493003 0.489632
49 1 0.501846 0.496486 0.478637
215 1 0.497629 0.456893 0.464389
62 1 0.518886 0.458214 0.463614
206 1 0.505271 0.487034 0.417368
57 1 0.491153 0.498509 0.419024
150 1 0.477597 0.490307 0.433797
61 1 0.440472 0.493269 0.43947
149 1 0.57101 0.497885 0.489307
41 1 0.487609 0.493624 0.496506
279 1 0.5402 0.494489 0.497424
97 1 0.528519 0.43923 0.490128
122 1 0.492938 0.478951 0.485794
25 1 0.485081 0.419265 0.475378
16 1 0.471162 0.45303 0.487051
237 1 0.549513 0.492501 0.567225
108 1 0.521434 0.449454 0.533968
268 1 0.46915 0.441229 0.546844
96 1 0.524952 0.481504 0.57871
56 1 0.563869 0.49582 0.530813
198 1 0.427672 0.490749 0.522752
280 1 0.559712 0.446544 0.507124
249 1 0.575729 0.49606 0.538393
216 1 0.475988 0.487497 0.520664
93 1 0.521222 0.468602 0.51271
200 1 0.443176 0.48517 0.55893
53 1 0.473019 0.497677 0.579685
208 1 0.491065 0.475296 0.56293
187 1 0.523178 0.423782 0.522251
10 1 0.516241 0.4445 0.504316
160 1 0.546553 0.436383 0.515004
109 1 0.500974 0.436485 0.509729
69 1 0.578221 0.46561 0.508104
14 1 0.424614 0.47827 0.502504
77 1 0.428802 0.496509 0.50006
178 1 0.455139 0.440437 0.515653
9 1 0.473394 0.482523 0.563092
106 1 0.527678 0.48196 0.527713
253 1 0.456323 0.493549 0.562943
24 1 0.427333 0.473853 0.53802
3 1 0.505568 0.418395 0.519076
126 1 0.536331 0.427978 0.526898
27 1 0.546692 0.493325 0.525567
6 1 0.470624 0.426685 0.500657
17 1 0.43508 0.46059 0.533973
195 1 0.501071 0.449706 0.539059
7 1 0.54622 0.454826 0.510623
36 1 0.477056 0.467194 0.571676
5 1 0.570031 0.481314 0.546683
139 1 0.486295 0.418004 0.509132
79 1 0.533914 0.445393 0.555355
67 1 0.459011 0.472332 0.566471
219 1 0.4917 0.49206 0.577371
60 1 0.530131 0.484763 0.56385
113 1 0.42388 0.464132 0.517524
45 1 0.458673 0.456832 0.56167
18 1 0.570409 0.479918 0.525913
86 1 0.532737 0.465059 0.566419
243 1 0.468808 0.454889 0.514396
91 1 0.552595 0.475958 0.557157
54 1 0.53142 0.419251 0.504669
277 1 0.506991 0.430606 0.543047
94 1 0.486795 0.435802 0.552819
70 1 0.512623 0.48955 0.584541
228 1 0.446104 0.464671 0.554255
171 1 0.54756 0.471267 0.536635
65 1 0.493585 0.421551 0.534551
52 1 0.551141 0.45527 0.553507
95 1 0.475957 0.426244 0.52428
102 1 0.502474 0.440768 0.556709
262 1 0.480792 0.476901 0.579029
87 1 0.435804 0.454862 0.50724
218 1 0.493134 0.458899 0.576622
80 1 0.511698 0.497287 0.569682
111 1 0.553871 0.447724 0.527074
210 1 0.436663 0.492696 0.545986
256 1 0.522422 0.455455 0.568165
224 1 0.481455 0.444927 0.532432
90 1 0.563137 0.470754 0.502793
21 1 0.498034 0.483778 0.525949
20 1 0.575177 0.491441 0.508244
189 1 0.481186 0.438803 0.502726
146 1 0.558686 0.494891 0.502129
2 1 0.475618 0.471783 0.501862
141 1 0.509961 0.499559 0.512184
169 1 0.522995 0.53442 0.425629
148 1 0.513401 0.572887 0.482304
64 1 0.578313 0.513212 0.483701
152 1 0.464679 0.51669 0.427482
15 1 0.562227 0.557473 0.493685
140 1 0.468338 0.57655 0.482603
271 1 0.512842 0.525129 0.445523
144 1 0.555011 0.536053 0.444707
12 1 0.458854 0.536226 0.436076
226 1 0.512565 0.516712 0.469856
191 1 0.461828 0.504966 0.448953
238 1 0.482637 0.529355 0.430368
84 1 0.57293 0.505134 0.467872
227 1 0.493324 0.523882 0.495139
138 1 0.574133 0.526285 0.47147
123 1 0.527713 0.551083 0.440274
258 1 0.505657 0.540091 0.435196
44 1 0.423779 0.507965 0.465155
284 1 0.471739 0.500484 0.425595
43 1 0.482038 0.575779 0.466587
186 1 0.555313 0.520021 0.44108
174 1 0.540612 0.511188 0.427464
212 1 0.496335 0.511831 0.416464
82 1 0.573734 0.505594 0.499567
47 1 0.477036 0.511592 0.441517
273 1 0.557729 0.502423 0.443632
225 1 0.436321 0.512246 0.485868
81 1 0.463851 0.538795 0.496741
89 1 0.458023 0.515581 0.492379
276 1 0.437174 0.511376 0.444945
254 1 0.478797 0.556239 0.442596
114 1 0.473937 0.559774 0.45518
222 1 0.506274 0.564165 0.44969
127 1 0.548197 0.566415 0.483318
103 1 0.519257 0.558906 0.482693
42 1 0.472873 0.516363 0.474465
162 1 0.519448 0.542869 0.49217
231 1 0.571175 0.534645 0.495412
248 1 0.553971 0.519007 0.484202
4 1 0.447163 0.509253 0.432213
74 1 0.560539 0.536688 0.46671
185 1 0.530533 0.522871 0.444779
46 1 0.539714 0.557626 0.463151
192 1 0.479237 0.541506 0.47404
275 1 0.463179 0.554462 0.483704
278 1 0.456485 0.554935 0.461649
252 1 0.427006 0.530797 0.473647
223 1 0.497543 0.552938 0.459302
58 1 0.508448 0.505446 0.421329
213 1 0.497483 0.508414 0.432819
98 1 0.55381 0.541948 0.4972
274 1 0.500644 0.573459 0.466129
233 1 0.536239 0.511718 0.461914
159 1 0.532665 0.571658 0.495735
173 1 0.42263 0.512414 0.481653
38 1 0.528065 0.560027 0.459467
125 1 0.56636 0.520759 0.454703
263 1 0.440606 0.513907 0.463738
34 1 0.460637 0.528786 0.454365
244 1 0.471284 0.556288 0.499225
168 1 0.451491 0.566492 0.47683
129 1 0.491175 0.578578 0.490451
153 1 0.461845 0.53541 0.474825
35 1 0.501116 0.557691 0.476422
194 1 0.494944 0.510214 0.461438
121 1 0.445708 0.540956 0.453933
136 1 0.539432 0.519358 0.47569
143 1 0.561752 0.55043 0.473085
250 1 0.43744 0.526588 0.458524
28 1 0.550199 0.542021 0.482073
161 1 0.480945 0.500578 0.466855
257 1 0.560084 0.500969 0.457856
131 1 0.541711 0.548361 0.498616
234 1 0.534042 0.500407 0.448446
71 1 0.431639 0.500424 0.456342
59 1 0.547854 0.567981 0.499604
145 1 0.505051 0.53711 0.5554
199 1 0.569681 0.540663 0.508081
19 1 0.545571 0.514725 0.568764
158 1 0.456287 0.555886 0.545188
117 1 0.51176 0.542235 0.519529
105 1 0.509532 0.506686 0.54771
132 1 0.565007 0.524022 0.527715
260 1 0.499086 0.569827 0.5481
264 1 0.439047 0.509042 0.505603
193 1 0.491018 0.542535 0.561374
266 1 0.439167 0.547412 0.510256
201 1 0.444447 0.541408 0.543348
229 1 0.491116 0.535577 0.52463
265 1 0.562543 0.501688 0.554191
232 1 0.51867 0.545066 0.535855
78 1 0.5274 0.548004 0.564049
72 1 0.453905 0.535567 0.556889
207 1 0.566147 0.542301 0.538388
154 1 0.443595 0.521531 0.546235
167 1 0.537446 0.509828 0.525405
179 1 0.546333 0.556419 0.533986
135 1 0.420452 0.519978 0.503167
92 1 0.498845 0.555319 0.540284
26 1 0.475002 0.522567 0.545262
197 1 0.497521 0.579383 0.515155
196 1 0.436212 0.548438 0.522937
255 1 0.504543 0.525951 0.581375
166 1 0.499302 0.510935 0.569907
175 1 0.418133 0.502405 0.515275
33 1 0.527444 0.573639 0.51048
170 1 0.531135 0.575242 0.524501
236 1 0.453888 0.559656 0.530299
190 1 0.468568 0.513411 0.576776
251 1 0.52088 0.505784 0.532644
134 1 0.49574 0.515436 0.583238
48 1 0.552208 0.53812 0.545299
283 1 0.461709 0.530452 0.562255
182 1 0.533307 0.507929 0.575079
119 1 0.55322 0.527725 0.558682
177 1 0.449393 0.561459 0.503522
147 1 0.528252 0.530152 0.57063
209 1 0.555027 0.517282 0.542522
247 1 0.455746 0.57002 0.513868
50 1 0.555514 0.557754 0.516417
164 1 0.488305 0.572968 0.52858
282 1 0.428511 0.512007 0.547294
1 1 0.463377 0.546767 0.522934
133 1 0.450095 0.529641 0.527966
23 1 0.533277 0.548507 0.554034
204 1 0.498166 0.536171 0.577861
155 1 0.481084 0.539986 0.567814
83 1 0.513112 0.508385 0.58457
115 1 0.418879 0.520239 0.519297
205 1 0.483489 0.521536 0.57462
220 1 0.510677 0.559191 0.555177
99 1 0.47787 0.555372 0.557784
270 1 0.471232 0.574139 0.50855
130 1 0.422201 0.514901 0.53175
137 1 0.542767 0.535693 0.564761
230 1 0.428294 0.52797 0.526772
188 1 0.582991 0.504622 0.515875
ITEM: TIMESTEP
20000
ITEM: NUMBER OF ATOMS
284
ITEM: BOX BOUNDS pp pp pp
-2.4000000000000000e+01 2.4000000000000000e+01
-2.4000000000000000e+01 2.4000000000000000e+01
-2.4000000000000000e+01 2.4000000000000000e+01
ITEM: ATOMS id type xs ys zs
76 1 0.485155 0.493022 0.420872
259 1 0.517898 0.441722 0.439219
216 1 0.498788 0.448126 0.432194
206 1 0.471007 0.475883 0.425518
77 1 0.481197 0.452662 0.435765
41 1 0.464991 0.432044 0.493986
57 1 0.53446 0.452119 0.441641
147 1 0.454994 0.464131 0.435995
124 1 0.512099 0.478297 0.473889
211 1 0.528671 0.474464 0.424016
97 1 0.550554 0.454223 0.448706
61 1 0.527465 0.431481 0.47135
168 1 0.468966 0.445518 0.449797
212 1 0.505996 0.449647 0.452043
250 1 0.524681 0.455335 0.470934
262 1 0.539218 0.492661 0.464077
138 1 0.502665 0.4318 0.454808
79 1 0.548272 0.436772 0.478028
120 1 0.429157 0.490541 0.454021
22 1 0.476419 0.473446 0.442507
102 1 0.569037 0.495759 0.468038
228 1 0.496879 0.412256 0.49635
263 1 0.459025 0.437663 0.466827
240 1 0.563859 0.495964 0.443192
38 1 0.486083 0.43849 0.444437
92 1 0.480398 0.465488 0.466348
181 1 0.546118 0.477773 0.434676
70 1 0.472126 0.475095 0.500066
27 1 0.490689 0.482135 0.436262
233 1 0.548892 0.441368 0.492176
48 1 0.430106 0.467143 0.46417
58 1 0.556063 0.476346 0.472859
280 1 0.44247 0.437544 0.491351
53 1 0.501777 0.426092 0.472851
81 1 0.481422 0.420817 0.484312
225 1 0.515823 0.46262 0.445824
261 1 0.539 0.43667 0.457607
281 1 0.57007 0.457343 0.48847
140 1 0.52212 0.495791 0.444987
33 1 0.495874 0.467303 0.447696
199 1 0.534359 0.470288 0.488821
224 1 0.455102 0.480072 0.428846
95 1 0.484674 0.448374 0.482533
246 1 0.514795 0.420302 0.487397
214 1 0.530203 0.42652 0.49803
273 1 0.484948 0.423083 0.464359
236 1 0.506358 0.499453 0.473697
66 1 0.420486 0.481018 0.472536
132 1 0.502029 0.466274 0.422339
192 1 0.426466 0.464514 0.484557
221 1 0.472677 0.492107 0.480913
104 1 0.45117 0.450117 0.448298
270 1 0.555241 0.473738 0.453465
275 1 0.534276 0.489675 0.481871
54 1 0.50386 0.482504 0.420652
100 1 0.458894 0.454413 0.470603
113 1 0.442287 0.447619 0.462359
29 1 0.568939 0.48668 0.484423
2 1 0.420141 0.481573 0.495755
114 1 0.486932 0.49243 0.452442
110 1 0.533792 0.491505 0.426376
49 1 0.435178 0.493855 0.472034
154 1 0.573952 0.468767 0.468713
18 1 0.458124 0.478957 0.448596
10 1 0.456099 0.49127 0.495524
184 1 0.476568 0.434545 0.475657
178 1 0.557552 0.453411 0.469596
279 1 0.457758 0.466963 0.485102
111 1 0.538853 0.468139 0.464064
222 1 0.488883 0.483445 0.472921
16 1 0.505688 0.433879 0.48936
43 1 0.522305 0.418542 0.512431
96 1 0.4546 0.42763 0.509634
135 1 0.549868 0.457862 0.510499
251 1 0.492362 0.424496 0.526523
129 1 0.581077 0.485459 0.522981
265 1 0.509904 0.472496 0.520604
256 1 0.519818 0.452269 0.506223
183 1 0.529889 0.459875 0.527834
91 1 0.545202 0.435335 0.512018
143 1 0.430041 0.486329 0.545443
126 1 0.575595 0.494544 0.539898
156 1 0.500873 0.472334 0.540882
241 1 0.515149 0.498789 0.576014
167 1 0.46315 0.483941 0.573502
231 1 0.427158 0.468251 0.512715
284 1 0.585407 0.496362 0.505326
115 1 0.470039 0.43548 0.541923
252 1 0.497047 0.448883 0.507679
176 1 0.534211 0.428662 0.518535
8 1 0.553385 0.46642 0.557249
150 1 0.449851 0.445215 0.515559
128 1 0.460701 0.448817 0.553266
209 1 0.513611 0.479928 0.500277
80 1 0.440431 0.451756 0.527065
174 1 0.420973 0.495342 0.535777
208 1 0.480241 0.484628 0.535788
136 1 0.562145 0.442334 0.502942
69 1 0.569602 0.462141 0.521261
145 1 0.461619 0.460681 0.528394
169 1 0.481023 0.469391 0.523405
227 1 0.560662 0.444577 0.520327
75 1 0.520922 0.487469 0.5314
11 1 0.575313 0.470009 0.510844
42 1 0.542277 0.491668 0.572363
267 1 0.477645 0.493884 0.581398
173 1 0.53805 0.43516 0.532834
137 1 0.501995 0.424348 0.540335
162 1 0.487118 0.470477 0.554211
67 1 0.562156 0.492333 0.553937
90 1 0.48174 0.475065 0.574241
245 1 0.547 0.472572 0.524409
4 1 0.458014 0.469335 0.560475
159 1 0.436938 0.468182 0.539005
60 1 0.508863 0.430976 0.553403
24 1 0.520446 0.475737 0.574621
6 1 0.539292 0.469327 0.569519
203 1 0.491305 0.445604 0.553286
223 1 0.425433 0.453683 0.504237
230 1 0.440916 0.489428 0.560701
155 1 0.537611 0.453808 0.561624
268 1 0.557956 0.453779 0.543207
179 1 0.510824 0.424741 0.52656
121 1 0.495088 0.45434 0.571504
72 1 0.482183 0.455719 0.539244
142 1 0.476379 0.452676 0.565472
157 1 0.50854 0.449759 0.564624
71 1 0.492497 0.497933 0.582271
109 1 0.444367 0.463899 0.503335
239 1 0.521556 0.459245 0.553636
189 1 0.453092 0.43975 0.534671
139 1 0.521556 0.445526 0.53965
195 1 0.496088 0.425411 0.506943
56 1 0.459117 0.483742 0.547378
249 1 0.541731 0.475921 0.549689
65 1 0.462542 0.49357 0.527064
39 1 0.470988 0.420957 0.505794
83 1 0.569556 0.47496 0.542065
119 1 0.560182 0.498408 0.513298
44 1 0.447901 0.487952 0.51645
12 1 0.480372 0.463295 0.505422
87 1 0.491157 0.492594 0.500485
198 1 0.510023 0.528903 0.437578
237 1 0.476362 0.551682 0.465768
3 1 0.489815 0.53127 0.467326
190 1 0.503492 0.508405 0.430826
148 1 0.571133 0.518771 0.485894
194 1 0.485732 0.534055 0.427677
106 1 0.500061 0.524191 0.421043
105 1 0.519118 0.51191 0.417496
218 1 0.459685 0.520925 0.495937
248 1 0.569539 0.550997 0.485469
123 1 0.472778 0.56828 0.457303
19 1 0.476001 0.51242 0.445437
25 1 0.458564 0.546692 0.454909
103 1 0.499686 0.552632 0.440114
193 1 0.58411 0.501926 0.483975
278 1 0.470198 0.519952 0.422512
215 1 0.535138 0.574089 0.474417
254 1 0.52158 0.512028 0.464788
253 1 0.549085 0.515257 0.479087
172 1 0.491845 0.5622 0.455078
20 1 0.554147 0.534547 0.484906
52 1 0.427855 0.540201 0.482917
118 1 0.462781 0.509337 0.46762
28 1 0.532498 0.560151 0.48949
163 1 0.459758 0.567253 0.47065
210 1 0.526636 0.539494 0.427892
15 1 0.572929 0.50737 0.458041
213 1 0.553474 0.506437 0.43321
45 1 0.452119 0.508808 0.435047
234 1 0.439136 0.524239 0.446074
217 1 0.48873 0.525839 0.442601
117 1 0.523628 0.509004 0.486986
152 1 0.553194 0.530965 0.442112
166 1 0.570457 0.532397 0.47274
258 1 0.451976 0.543237 0.494771
191 1 0.469042 0.543792 0.436517
5 1 0.439834 0.548322 0.471147
108 1 0.51382 0.566678 0.450457
30 1 0.513381 0.576347 0.485261
151 1 0.509974 0.530088 0.459805
93 1 0.445798 0.527631 0.483211
37 1 0.516829 0.542654 0.447896
14 1 0.423516 0.50147 0.496831
282 1 0.437628 0.50534 0.452556
229 1 0.468935 0.553613 0.487075
85 1 0.420762 0.509284 0.470263
219 1 0.508961 0.574927 0.467585
144 1 0.46337 0.541646 0.472513
55 1 0.497181 0.542471 0.469298
257 1 0.485495 0.51589 0.415261
242 1 0.500909 0.580474 0.477424
88 1 0.517743 0.536283 0.477753
98 1 0.47437 0.55741 0.447302
255 1 0.418794 0.523655 0.483287
73 1 0.484506 0.576222 0.481272
226 1 0.558092 0.546484 0.456771
26 1 0.556209 0.559792 0.495883
158 1 0.540026 0.550978 0.465414
235 1 0.538684 0.544582 0.483858
1 1 0.545289 0.548696 0.446831
59 1 0.530016 0.522848 0.474391
9 1 0.531383 0.529283 0.495787
23 1 0.462678 0.568998 0.495541
264 1 0.474942 0.525079 0.476826
220 1 0.482956 0.536513 0.498131
187 1 0.505047 0.501854 0.450111
94 1 0.541444 0.52345 0.444678
247 1 0.498593 0.585909 0.493897
112 1 0.501369 0.543559 0.490473
185 1 0.443982 0.558856 0.499215
197 1 0.527075 0.578919 0.495509
266 1 0.565832 0.505631 0.485654
35 1 0.469178 0.50203 0.427958
232 1 0.460408 0.537642 0.54159
133 1 0.577393 0.526266 0.522327
131 1 0.442295 0.506751 0.558148
165 1 0.479311 0.577689 0.52659
74 1 0.470031 0.51631 0.519202
17 1 0.461502 0.564817 0.530445
238 1 0.543458 0.532117 0.54527
171 1 0.465335 0.541296 0.5192
146 1 0.554845 0.53325 0.506567
46 1 0.454014 0.516251 0.53918
101 1 0.429517 0.53335 0.536532
51 1 0.524522 0.516424 0.50872
161 1 0.539144 0.506373 0.549003
200 1 0.520646 0.567555 0.541363
21 1 0.489705 0.501127 0.536517
244 1 0.554165 0.511762 0.532538
180 1 0.577157 0.53859 0.502422
122 1 0.496679 0.524736 0.548264
99 1 0.495563 0.5822 0.533725
84 1 0.449728 0.512886 0.503978
243 1 0.539749 0.551517 0.546471
50 1 0.53351 0.538439 0.514781
34 1 0.515536 0.516868 0.555632
125 1 0.517042 0.535908 0.551303
68 1 0.447018 0.548709 0.525682
274 1 0.450193 0.533863 0.558746
202 1 0.529201 0.560032 0.515347
175 1 0.49501 0.511731 0.560138
64 1 0.551726 0.514301 0.510694
277 1 0.423974 0.524841 0.52035
170 1 0.579234 0.506787 0.516913
31 1 0.480016 0.532279 0.517689
47 1 0.545057 0.568657 0.509251
207 1 0.507506 0.579069 0.505628
160 1 0.52337 0.574022 0.524984
141 1 0.477889 0.554998 0.502438
186 1 0.509258 0.539365 0.526146
63 1 0.539708 0.517008 0.565155
116 1 0.473035 0.511015 0.544733
164 1 0.506275 0.547584 0.543303
153 1 0.568168 0.540998 0.517815
204 1 0.570128 0.522295 0.544939
78 1 0.506534 0.566774 0.551009
40 1 0.560855 0.555677 0.509355
13 1 0.525856 0.511707 0.529947
149 1 0.431688 0.545623 0.511996
82 1 0.43395 0.531859 0.505357
177 1 0.479682 0.550761 0.561056
182 1 0.436101 0.513564 0.53824
86 1 0.459728 0.548658 0.552501
201 1 0.562557 0.538868 0.536659
130 1 0.485577 0.579486 0.51084
36 1 0.502994 0.516261 0.580548
271 1 0.536004 0.502262 0.510844
127 1 0.484041 0.519946 0.579222
134 1 0.422778 0.501929 0.522544
272 1 0.52919 0.510295 0.575378
188 1 0.539354 0.53568 0.56413
89 1 0.45246 0.569442 0.512862
62 1 0.484979 0.567739 0.546646
283 1 0.486116 0.5377 0.57371
205 1 0.472065 0.531891 0.559377
7 1 0.51421 0.523813 0.569033
32 1 0.474685 0.558427 0.538168
260 1 0.495329 0.522718 0.50511
107 1 0.504992 0.560007 0.506524
196 1 0.497393 0.502816 0.516912
269 1 0.458019 0.50221 0.569521
276 1 0.58267 0.522232 0.500931
ITEM: TIMESTEP
30000
ITEM: NUMBER OF ATOMS
284
ITEM: BOX BOUNDS pp pp pp
-2.4000000000000000e+01 2.4000000000000000e+01
-2.4000000000000000e+01 2.4000000000000000e+01
-2.4000000000000000e+01 2.4000000000000000e+01
ITEM: ATOMS id type xs ys zs
149 1 0.475461 0.440651 0.455458
169 1 0.495149 0.449246 0.469766
135 1 0.497687 0.460839 0.429913
243 1 0.449539 0.447786 0.46498
26 1 0.501357 0.478997 0.424969
224 1 0.483376 0.46999 0.423685
247 1 0.516531 0.466693 0.423769
133 1 0.418855 0.486366 0.484814
159 1 0.447693 0.437005 0.477999
157 1 0.459766 0.443474 0.452825
117 1 0.531932 0.457457 0.44569
184 1 0.455113 0.496277 0.42923
197 1 0.50823 0.486362 0.454464
65 1 0.560597 0.490103 0.480443
151 1 0.492884 0.444587 0.44863
72 1 0.459685 0.429869 0.487347
47 1 0.506371 0.44459 0.485503
102 1 0.460855 0.431518 0.468734
223 1 0.467356 0.461552 0.4302
25 1 0.51617 0.422438 0.480318
163 1 0.513946 0.45346 0.435229
249 1 0.539034 0.438523 0.469247
63 1 0.483117 0.421297 0.483616
11 1 0.437814 0.464046 0.46205
251 1 0.551158 0.437637 0.484495
51 1 0.567563 0.457841 0.46997
9 1 0.542521 0.480597 0.429257
225 1 0.428292 0.492833 0.465366
49 1 0.479745 0.424343 0.466283
142 1 0.474775 0.451126 0.443272
227 1 0.56734 0.480523 0.458445
200 1 0.485499 0.462925 0.481469
42 1 0.433609 0.492145 0.448262
18 1 0.524063 0.425716 0.495965
41 1 0.521203 0.441637 0.442932
93 1 0.522173 0.444383 0.483177
80 1 0.47572 0.439715 0.47964
217 1 0.425221 0.473205 0.494217
213 1 0.506362 0.430591 0.454957
96 1 0.505778 0.497882 0.499252
141 1 0.55573 0.446363 0.468362
86 1 0.530835 0.471545 0.431202
16 1 0.552281 0.46641 0.456126
83 1 0.573182 0.484309 0.474481
206 1 0.561425 0.452474 0.484591
218 1 0.425627 0.474873 0.477469
214 1 0.484023 0.47066 0.441164