LAMMPS data file via write_data, version 27 May 2021

26 atoms
8 atom types
24 bonds
1 bond types
26 ellipsoids

-20 20 xlo xhi
-20 20 ylo yhi
-20 20 zlo zhi

Masses

1 3.1575
2 3.1575
3 3.1575
4 3.1575
5 3.1575
6 3.1575
7 3.1575
8 3.1575

Atoms # hybrid

1 1 -0.5974293795290144 -0.47217734566783476 0.1149860099192362 1 1 3.7269849963023267 0 0 0
2 2 -0.3607975285447209 -0.8084200276362509 0.5005631273908187 1 1 3.7269849963023267 0 0 0
3 3 -0.1880165420620915 -0.9339012982528754 0.9372222930006777 1 1 3.7269849963023267 0 0 0
4 4 0.18789028377909187 -0.8807473585891459 1.3080750447260532 1 1 3.7269849963023267 0 0 0
5 5 0.46680288593900887 -0.6314504249974493 1.6544618495816525 1 1 3.7269849963023267 0 0 0
6 6 0.6156490001978658 -0.24344915610488765 1.9998398114466447 1 1 3.7269849963023267 0 0 0
7 7 0.5475869309223161 0.10633006738807783 2.395688109397028 1 1 3.7269849963023267 0 0 0
8 8 0.3964561058464781 0.33864915662119616 2.855380256681012 1 1 3.7269849963023267 0 0 0
9 1 0.09151778690925949 0.33572177117709545 3.2793107140407853 1 1 3.7269849963023267 0 0 0
10 2 -0.260700239272384 0.23452584272483473 3.622064753017485 1 1 3.7269849963023267 0 0 0
11 7 -0.44049173083867876 -0.04240311520575983 4.057361772274168 1 1 3.7269849963023267 0 0 0
12 8 -0.48111471327910416 -0.3913669550617015 4.465217350523367 1 1 3.7269849963023267 0 0 0
13 1 -0.3029890593292223 -0.6218232516387349 4.889919411438907 1 1 3.7269849963023267 0 0 0
14 4 0.36538593166250877 0.467104033114044 4.885957202043727 2 1 3.7269849963023267 0 0 0
15 5 0.5837256243756591 0.1432569770282543 4.587937684834979 2 1 3.7269849963023267 0 0 0
16 6 0.7270895848434721 -0.21648156960230241 4.19127441749994 2 1 3.7269849963023267 0 0 0
17 3 0.5694364623788377 -0.5971020505771416 3.7905394408535833 2 1 3.7269849963023267 0 0 0
18 4 0.32183479629572403 -0.7826674384502239 3.3981789941001397 2 1 3.7269849963023267 0 0 0
19 5 0.027943077828669855 -0.8173952163019756 2.892497591992246 2 1 3.7269849963023267 0 0 0
20 6 -0.34389471043742403 -0.6801076538339801 2.6010059142333977 2 1 3.7269849963023267 0 0 0
21 7 -0.5722337592890715 -0.31543771192866543 2.2496367888009035 2 1 3.7269849963023267 0 0 0
22 8 -0.5243059431454682 -0.018794840926191582 1.6669602274961965 2 1 3.7269849963023267 0 0 0
23 1 -0.4467049661654279 0.15318137385858244 1.1669311078565738 2 1 3.7269849963023267 0 0 0
24 2 -0.04279541944801792 0.24071675674438053 0.7924196804793574 2 1 3.7269849963023267 0 0 0
25 3 0.33688934798342335 0.1390449738629785 0.42004977704361546 2 1 3.7269849963023267 0 0 0
26 4 0.5381606093378432 -0.28366941895261566 0.04905784853961178 2 1 3.7269849963023267 0 0 0

Velocities

1 -0.1420563695014878 -0.2339928257547227 0.1871716305399088 -0.046333854442252194 0.08160574816172744 0.2791824603833533
2 0.03390382747481304 0.2912921705525512 -0.1828986721885175 0.09422531767061365 -0.044398236946770545 0.011069519340877812
3 0.05351747745964457 -0.3700026678535097 -0.01469442373794632 0.10875858697088675 0.2373869034785703 0.15028498953263314
4 0.1107696836820372 0.012571134739153464 0.23554381030898286 0.11411649786729211 -0.23899527406990237 0.11196343804383825
5 0.21949033826324368 -0.4153000294565104 0.18426481814713022 0.2497206165366295 0.2505624077277829 -0.35347918243093
6 -0.24019769428878804 -0.16423570219236758 -0.003762466815720382 0.062008045889015595 0.22340307597010978 -0.38223196779931135
7 0.12372477399377596 0.10393016373901434 0.08008946447311854 -0.15063203100274558 0.08544129561789665 -0.3233996805084572
8 0.03216353270652909 -0.1291938805451393 0.1736283537356162 -0.17577447248216746 0.11132849782859955 -0.13659117762014125
9 0.016485625003622013 0.01204732455105311 0.012268845318149781 -0.10829791072979295 0.1325154323216732 0.061321711941405295
10 -0.10017034720683878 -0.09274368063499111 0.0712704971413183 -0.08539556363371427 -0.10194584018083674 0.12395163271335013
11 0.1553620769751766 -0.017877616757193807 -0.1679552227127468 -0.11302061465460307 0.10833285249943261 -0.29004856929349787
12 -0.25308607960176693 0.05651778438229357 -0.28293751231512154 0.08875447438401544 -0.0424858854741496 0.4807657704475166
13 -0.006525152792083277 0.05278468067247092 0.0923614993309851 -0.17068957621149589 -0.21396827821680875 -0.22336174340467796
14 -0.09024428084565417 0.19407821508904713 -0.27279958154128003 0.16579397498898726 0.05605196163049078 0.18139063086724955
15 0.2329539015603435 0.08926675461196792 0.01755751945261716 0.14895763843533014 0.05566424996653055 0.038429304115211504
16 -0.012766107314323394 -0.05870276075293287 0.22459362070331024 -0.051898555487544795 0.11349183901118838 -0.35625338947479507
17 -0.20400754456760709 -0.43178141581578006 -0.05213026263746946 -0.16561150375144387 -0.08257869123336893 -0.31368221607714253
18 0.26408469209202234 0.004101215813165573 -0.11409222616552296 -0.37751548716793587 0.021230702354981583 0.23218952685038605
19 -0.2811352347889802 0.25474603468997514 0.0038005485218010606 0.2164466860189806 -0.3924452117278991 0.22754829879548555
20 -0.34129793271588454 0.05074672818229578 -0.03388446943745919 -0.1368254010552013 -0.1547809974693013 -0.03266259795645136
21 -0.25700758391191114 0.04693154859703793 0.08362546455733241 -0.08661574368141227 -0.030723569920460755 -0.18740437515161282
22 0.08529314327765061 0.10662056255177826 -0.0742729015142829 -0.4671828719407557 -0.19246067344838313 0.20137866804242557
23 -0.09337250162399305 -0.1907111010034805 0.19278254253312255 0.017795209772695803 -0.36506106427644847 0.24972052729172167
24 -0.16063305395742022 0.12278800901705311 0.0513923554335936 -0.09716260028970423 -0.26401680055506943 0.08202659665577536
25 -0.14736287972598905 0.09699085150412592 -0.20751532907712478 0.05612191742480806 -0.13929212905625324 0.034890079586931765
26 -0.060417626533246734 0.35551862988152244 -0.19673503245092067 0.014766691426271806 0.02762183997756995 -0.20597323908506235

Bonds

1 1 1 2
2 1 2 3
3 1 3 4
4 1 4 5
5 1 5 6
6 1 6 7
7 1 7 8
8 1 8 9
9 1 9 10
10 1 10 11
11 1 11 12
12 1 12 13
13 1 14 15
14 1 15 16
15 1 16 17
16 1 17 18
17 1 18 19
18 1 19 20
19 1 20 21
20 1 21 22
21 1 22 23
22 1 23 24
23 1 24 25
24 1 25 26

Ellipsoids

1 1.173984503142341 1.173984503142341 1.173984503142341 0.9970278940278272 0.0014876174054512252 0.0750547523448584 0.017319055267040844
2 1.173984503142341 1.173984503142341 1.173984503142341 0.9059171712388804 0.007913225291438054 0.04634256838354512 0.42083705406683053
3 1.173984503142341 1.173984503142341 1.173984503142341 0.7657426991864452 0.028071560533125216 0.13224385975981257 0.6287779160305484
4 1.173984503142341 1.173984503142341 1.173984503142341 0.5238981696613685 0.0516703526741727 0.1609645534282743 0.8348360887142046
5 1.173984503142341 1.173984503142341 1.173984503142341 0.30973290897949424 0.0750672191209306 0.23962885621884192 0.9170651279902646
6 1.173984503142341 1.173984503142341 1.173984503142341 -0.050269263744563454 0.08142241031464711 0.09584085715741358 0.9907865170259763
7 1.173984503142341 1.173984503142341 1.173984503142341 -0.3805122714271814 0.08965734720629535 0.057827749665601925 0.9186010683391725
8 1.173984503142341 1.173984503142341 1.173984503142341 -0.6066322463100545 0.015286960797006149 0.035984536832974555 0.7940206166563465
9 1.173984503142341 1.173984503142341 1.173984503142341 0.771660293819677 0.02607541526374929 -0.08047223278265907 -0.6303845520092687
10 1.173984503142341 1.173984503142341 1.173984503142341 0.9119628434851113 0.03686258000931541 -0.11017000132786052 -0.3934812487336936
11 1.173984503142341 1.173984503142341 1.173984503142341 0.9917294290821066 0.05835078551401739 -0.08073737536574405 -0.08092837290732445
12 1.173984503142341 1.173984503142341 1.173984503142341 0.9763527785523285 0.06753089597617556 0.004847281702108697 0.205307899901351
13 1.173984503142341 1.173984503142341 1.173984503142341 0.8553397145502984 0.1399133966151149 0.07233200118835512 0.49354462388392356
14 1.173984503142341 1.173984503142341 1.173984503142341 0.014416326682630282 -0.533642571147991 0.8442695396252617 0.04718813669228716
15 1.173984503142341 1.173984503142341 1.173984503142341 0.14095892784917538 -0.2201285495070387 0.9406003462562982 -0.21666792788520955
16 1.173984503142341 1.173984503142341 1.173984503142341 0.07323967796304806 0.05035907488974361 0.963136526452943 -0.2539053850556888
17 1.173984503142341 1.173984503142341 1.173984503142341 0.030254986187638885 0.39195467212588947 0.9164794947567249 -0.07430684019611289
18 1.173984503142341 1.173984503142341 1.173984503142341 -0.03080283760241768 0.6526511470205414 0.7481495879677094 -0.11562810865943304
19 1.173984503142341 1.173984503142341 1.173984503142341 -0.09450197979153381 0.7469150592813072 0.6556128255138505 -0.0579576833217777
20 1.173984503142341 1.173984503142341 1.173984503142341 -0.12903334341475137 0.9222523214328698 0.3501336268694509 -0.10103214950765672
21 1.173984503142341 1.173984503142341 1.173984503142341 -0.0069954457806870336 0.9888131084284681 -0.09413955816471489 -0.11548785185859346
22 1.173984503142341 1.173984503142341 1.173984503142341 0.029336230851923526 0.9805894852440379 -0.19236800606724952 -0.02404573205262194
23 1.173984503142341 1.173984503142341 1.173984503142341 0.03080980270092377 0.872234086776475 -0.4869211139732921 0.03415088124407873
24 1.173984503142341 1.173984503142341 1.173984503142341 0.007237815450514786 0.690265186998662 -0.7210993183911308 0.05913847022922672
25 1.173984503142341 1.173984503142341 1.173984503142341 0.06694683426684143 -0.46894411325316443 0.8712038661029582 -0.12889283810247346
26 1.173984503142341 1.173984503142341 1.173984503142341 0.07581973147109407 -0.10215114654759445 0.9759556607577902 -0.17699451916228467
