LAMMPS (22 Oct 2020)
Reading data file ...
  orthogonal box = (50.000000 50.000000 50.000000) to (250.00000 250.00000 250.00000)
  2 by 2 by 2 MPI processor grid
  reading atoms ...
  48 atoms
  reading velocities ...
  48 velocities
  scanning bonds ...
  8 = max bonds/atom
  scanning angles ...
  21 = max angles/atom
  scanning dihedrals ...
  33 = max dihedrals/atom
  scanning impropers ...
  29 = max impropers/atom
  reading bonds ...
  50 bonds
  reading angles ...
  84 angles
  reading dihedrals ...
  127 dihedrals
  reading impropers ...
  36 impropers
Finding 1-2 1-3 1-4 neighbors ...
  special bond factors lj:    0.0      0.0      0.0
  special bond factors coul:  0.0      0.0      0.0
     4 = max # of 1-2 neighbors
     8 = max # of 1-3 neighbors
    17 = max # of 1-4 neighbors
    46 = max # of special neighbors
  special bonds CPU = 0.000 seconds
  read_data CPU = 0.022 seconds
Read molecule template mol3:
  1 molecules
  30 atoms with max type 6
  31 bonds with max type 10
  51 angles with max type 16
  73 dihedrals with max type 19
  21 impropers with max type 7
Read molecule template mol4:
  1 molecules
  46 atoms with max type 6
  48 bonds with max type 13
  81 angles with max type 22
  121 dihedrals with max type 36
  35 impropers with max type 9
dynamic group bond_react_MASTER_group defined
dynamic group statted_grp_REACT defined
PPPM initialization ...
WARNING: System is not charge neutral, net charge = -0.0006 (../kspace.cpp:313)
  using 12-bit tables for long-range coulomb (../kspace.cpp:328)
  G vector (1/distance) = 0.20144813
  grid = 45 45 45
  stencil order = 5
  estimated absolute RMS force accuracy = 0.00053712952
  estimated relative force accuracy = 1.6175496e-06
  using double precision KISS FFT
  3d grid and FFT values/proc = 21952 12167
Neighbor list info ...
  update every 1 steps, delay 10 steps, check yes
  max neighbors/atom: 2000, page size: 100000
  master list distance cutoff = 10.5
  ghost atom cutoff = 10.5
  binsize = 5.25, bins = 39 39 39
  2 neighbor lists, perpetual/occasional/extra = 1 1 0
  (1) pair lj/class2/coul/long, perpetual
      attributes: half, newton on
      pair build: half/bin/newton
      stencil: half/bin/3d/newton
      bin: standard
  (2) fix bond/react, occasional, copy from (1)
      attributes: half, newton on
      pair build: copy
      stencil: none
      bin: none
Setting up Verlet run ...
  Unit style    : real
  Current step  : 0
  Time step     : 1.0
WARNING: Inconsistent image flags (../domain.cpp:812)
Per MPI rank memory allocation (min/avg/max) = 37.97 | 38.12 | 38.70 Mbytes
Step Temp Press Density f_rxn1[1]
       0    496.23742    0.9983211 6.4856516e-05            0
       2    672.73362   -516.54985 8.6475354e-05            1
       4     667.5039   -434.77386 8.6475354e-05            1
       6    672.39598   -362.84027 8.6475354e-05            1
       8    685.87152   -299.54792 8.6475354e-05            1
      10    691.00305   -244.43255 8.6475354e-05            1
      12    669.95405   -197.53983 8.6475354e-05            1
      14    646.37761   -158.31437 8.6475354e-05            1
      16    643.66763   -125.39769 8.6475354e-05            1
      18    667.56644   -97.573538 8.6475354e-05            1
      20    703.91664   -74.339207 8.6475354e-05            1
      22    720.06237   -55.689578 8.6475354e-05            1
      24    697.20697   -41.333247 8.6475354e-05            1
      26    674.83509   -30.383402 8.6475354e-05            1
      28    670.01312   -21.803547 8.6475354e-05            1
      30    679.49765   -15.012223 8.6475354e-05            1
      32    700.25949   -9.9961585 8.6475354e-05            1
      34    700.57498   -6.7727869 8.6475354e-05            1
      36    685.11304   -4.9950196 8.6475354e-05            1
      38    678.32094   -4.0105508 8.6475354e-05            1
      40    676.78265   -3.2337378 8.6475354e-05            1
      42    678.24749   -2.5623955 8.6475354e-05            1
      44    681.72485   -2.2286571 8.6475354e-05            1
      46    668.52658   -2.2541195 8.6475354e-05            1
      48    658.84625   -2.3473498 8.6475354e-05            1
      50    655.89802   -2.1608375 8.6475354e-05            1
      52    650.56205     -1.68496 8.6475354e-05            1
      54    666.65857   -1.3229867 8.6475354e-05            1
      56    690.98887   -1.3111684 8.6475354e-05            1
      58    712.94292   -1.4938499 8.6475354e-05            1
      60    727.24487   -1.5260071 8.6475354e-05            1
      62     718.0806   -1.2046747 8.6475354e-05            1
      64    700.02584   -0.7635068 8.6475354e-05            1
      66    688.52896  -0.53631295 8.6475354e-05            1
      68    679.79647  -0.53791747 8.6475354e-05            1
      70    694.44255   -0.5532644 8.6475354e-05            1
      72     713.0813  -0.30885385 8.6475354e-05            1
      74    721.95891     0.134531 8.6475354e-05            1
      76    742.81658   0.42479462 8.6475354e-05            1
      78    743.68772   0.45650714 8.6475354e-05            1
      80    735.07709   0.32514596 8.6475354e-05            1
      82    740.82043   0.20849187 8.6475354e-05            1
      84    734.58615   0.24802492 8.6475354e-05            1
      86    739.66066   0.25495108 8.6475354e-05            1
      88    753.76371    0.1002615 8.6475354e-05            1
      90    747.39108  -0.10177519 8.6475354e-05            1
      92    756.14087  -0.28921143 8.6475354e-05            1
      94    763.80064   -0.3136942 8.6475354e-05            1
      96    758.26501  -0.22731262 8.6475354e-05            1
      98    780.51378  -0.27873344 8.6475354e-05            1
     100    778.14888  -0.39476034 8.6475354e-05            1
     102    749.63152  -0.47648489 8.6475354e-05            1
     104    846.93279   -515.29892 0.00010809419            2
     106    826.13617   -433.34463 0.00010809419            2
     108    816.77932   -361.49619 0.00010809419            2
     110    832.98668   -298.67436 0.00010809419            2
     112    828.70355   -243.96707 0.00010809419            2
     114    829.78649   -196.94812 0.00010809419            2
     116    834.95318   -157.12951 0.00010809419            2
     118    818.14589   -123.74396 0.00010809419            2
     120    823.23317   -96.119924 0.00010809419            2
     122    827.11868   -73.432562 0.00010809419            2
     124    818.85373   -55.093931 0.00010809419            2
     126    819.83268   -40.717815 0.00010809419            2
     128     810.0448    -29.70583 0.00010809419            2
     130    811.69158    -21.50551 0.00010809419            2
     132    821.37302   -15.473802 0.00010809419            2
     134    820.66577   -10.994366 0.00010809419            2
     136    828.20766   -7.7873437 0.00010809419            2
     138    835.82332   -5.6282316 0.00010809419            2
     140    845.10867   -4.2922973 0.00010809419            2
     142    871.58701   -3.5134098 0.00010809419            2
     144    879.74364   -2.8383489 0.00010809419            2
     146    875.03242   -2.0846919 0.00010809419            2
     148    877.25151   -1.3780873 0.00010809419            2
     150    873.17469  -0.84990975 0.00010809419            2
     152    890.04002  -0.60830118 0.00010809419            2
     154    903.70012   -0.4683428 0.00010809419            2
     156    899.27359  -0.23979738 0.00010809419            2
     158    898.85893 0.0077916688 0.00010809419            2
     160    893.65077   0.16405785 0.00010809419            2
     162    891.71694   0.14137049 0.00010809419            2
     164    903.78638   0.04704286 0.00010809419            2
     166     905.9683    0.1349231 0.00010809419            2
     168    910.76595   0.40440178 0.00010809419            2
     170    922.28442    0.6891772 0.00010809419            2
     172    916.21424   0.86117662 0.00010809419            2
     174    903.02225   0.89400959 0.00010809419            2
     176    885.39888   0.97920294 0.00010809419            2
     178    870.41144    1.2525889 0.00010809419            2
     180    869.70627    1.6068325 0.00010809419            2
     182    871.11959    1.8160032 0.00010809419            2
     184     869.3783    1.7223162 0.00010809419            2
     186    864.82644      1.49422 0.00010809419            2
     188    870.53517    1.4225742 0.00010809419            2
     190    886.68548    1.5811771 0.00010809419            2
     192    891.75807    1.7148245 0.00010809419            2
     194     894.5438    1.4550304 0.00010809419            2
     196    884.78947    0.8635917 0.00010809419            2
     198    868.94073   0.33605001 0.00010809419            2
     200    875.79343   0.13232632 0.00010809419            2
     202    883.35077   0.23108222 0.00010809419            2
     204    888.58232   0.25927752 0.00010809419            2
     206    1107.5599    8637688.5 0.00012971303            3
     208    1110.7846    377601.17 0.00012971303            3
     210    1119.1946    40058.093 0.00012971303            3
     212    1133.7765    7445.8597 0.00012971303            3
     214    1135.8825    1828.4071 0.00012971303            3
     216    1158.7218    403.45537 0.00012971303            3
     218    1169.4708   -31.054599 0.00012971303            3
     220      1160.98   -156.65213 0.00012971303            3
     222    1155.6262   -176.44394 0.00012971303            3
     224    1131.1594   -167.87497 0.00012971303            3
     226    1113.9144   -147.95888 0.00012971303            3
     228    1129.7212   -122.18556 0.00012971303            3
     230    1135.2926   -98.191841 0.00012971303            3
     232    1139.5082   -76.954463 0.00012971303            3
     234    1138.3988   -58.569198 0.00012971303            3
     236    1114.7516   -43.273595 0.00012971303            3
     238     1111.675   -31.385143 0.00012971303            3
     240    1108.3656   -22.575824 0.00012971303            3
     242    1098.2288   -16.049189 0.00012971303            3
     244    1097.5592   -11.075179 0.00012971303            3
     246     1080.575   -7.2891243 0.00012971303            3
     248     1062.281   -4.8100451 0.00012971303            3
     250    1054.3602   -3.6457718 0.00012971303            3
     252    1041.5474   -3.2427207 0.00012971303            3
     254    1049.6522   -3.0128429 0.00012971303            3
     256    1067.6297   -2.6265895 0.00012971303            3
     258    1081.6873   -2.1996331 0.00012971303            3
     260    1103.2003   -2.0609219 0.00012971303            3
     262    1103.0801   -2.1514117 0.00012971303            3
     264    1118.9504   -2.2123932 0.00012971303            3
     266    1156.5552   -1.9428664 0.00012971303            3
     268    1167.8606   -1.2867254 0.00012971303            3
     270    1180.4323  -0.65452596 0.00012971303            3
     272    1182.9865   -0.2548239 0.00012971303            3
     274    1168.7598 -0.0051407959 0.00012971303            3
     276    1186.6008   0.21071708 0.00012971303            3
     278    1205.0507    0.5419248 0.00012971303            3
     280    1220.4904   0.76453778 0.00012971303            3
     282    1244.6059   0.56375436 0.00012971303            3
     284    1223.3782  0.067494738 0.00012971303            3
     286    1202.9298  -0.52770675 0.00012971303            3
     288    1189.6831  -0.93554081 0.00012971303            3
     290    1154.4315   -1.0402905 0.00012971303            3
     292    1161.4818   -1.1434855 0.00012971303            3
     294     1176.833   -1.2714623 0.00012971303            3
     296    1179.2197   -1.2607495 0.00012971303            3
     298    1207.8388   -1.0074678 0.00012971303            3
     300    1215.1726  -0.39937655 0.00012971303            3
     302    1210.3522   0.26737494 0.00012971303            3
     304    1218.4689   0.65569106 0.00012971303            3
     306    1208.8376   0.87597451 0.00012971303            3
     308    1286.4107   -509.47242 0.00015133187            4
     310    1273.3815   -427.85316 0.00015133187            4
     312    1242.1286   -356.22024 0.00015133187            4
     314    1253.4942   -293.85005 0.00015133187            4
     316    1273.6312   -239.98924 0.00015133187            4
     318    1275.0656   -193.99363 0.00015133187            4
     320    1295.9103   -155.20399 0.00015133187            4
     322    1290.9077   -122.56609 0.00015133187            4
     324    1271.6566   -95.381388 0.00015133187            4
     326    1263.8102   -73.165359 0.00015133187            4
     328    1239.1977   -55.302863 0.00015133187            4
     330    1227.6108   -41.236285 0.00015133187            4
     332    1224.4531   -30.167712 0.00015133187            4
     334    1208.0527   -21.468457 0.00015133187            4
     336    1235.9468   -14.916123 0.00015133187            4
     338    1267.1547   -10.131348 0.00015133187            4
     340    1292.5478   -6.8056873 0.00015133187            4
     342    1335.1976   -4.6458831 0.00015133187            4
     344    1331.0703   -3.2217937 0.00015133187            4
     346     1304.564   -2.4053344 0.00015133187            4
     348    1294.6672   -2.0166678 0.00015133187            4
     350     1275.671   -1.7896119 0.00015133187            4
     352     1270.708   -1.6647554 0.00015133187            4
     354    1269.5585   -1.5099971 0.00015133187            4
     356    1246.2033   -1.2754664 0.00015133187            4
     358    1255.6589    -1.126802 0.00015133187            4
     360    1268.2565  -0.97986712 0.00015133187            4
     362    1275.1167  -0.76954276 0.00015133187            4
     364    1287.7098  -0.52952795 0.00015133187            4
     366    1263.1765  -0.27860938 0.00015133187            4
     368    1232.2653  -0.18570194 0.00015133187            4
     370    1230.2485  -0.26197611 0.00015133187            4
     372    1233.9159  -0.30708265 0.00015133187            4
     374    1253.5708  -0.26988589 0.00015133187            4
     376    1282.6496  -0.19467244 0.00015133187            4
     378    1298.4463  -0.17751858 0.00015133187            4
     380    1320.5676  -0.27144792 0.00015133187            4
     382    1338.5616  -0.30891377 0.00015133187            4
     384    1351.3783  -0.18933152 0.00015133187            4
     386    1357.3252    0.0265073 0.00015133187            4
     388    1344.6374   0.20930056 0.00015133187            4
     390    1333.1019   0.27147994 0.00015133187            4
     392    1337.4623   0.32960244 0.00015133187            4
     394    1357.0506   0.53222632 0.00015133187            4
     396    1383.0145   0.84287387 0.00015133187            4
     398    1402.3315    1.0270585 0.00015133187            4
     400      1410.03   0.87301772 0.00015133187            4
     402    1397.5003   0.50658616 0.00015133187            4
     404    1371.0536   0.22338437 0.00015133187            4
     406    1355.6828   0.12299714 0.00015133187            4
     408    1349.6668  0.084479741 0.00015133187            4
     410    1534.4693   -221.57225 0.00017295071            5
     412    1543.4054   -308.97261 0.00017295071            5
     414    1532.8454   -300.08081 0.00017295071            5
     416    1533.4105   -263.77232 0.00017295071            5
     418    1537.4915   -221.76219 0.00017295071            5
     420     1530.954   -181.87958 0.00017295071            5
     422    1535.7748   -146.85737 0.00017295071            5
     424    1519.1766   -116.85102 0.00017295071            5
     426    1497.2677   -91.226974 0.00017295071            5
     428    1492.6473    -69.62357 0.00017295071            5
     430    1472.5275   -52.059519 0.00017295071            5
     432    1462.4413   -38.529891 0.00017295071            5
     434    1468.9696    -28.36966 0.00017295071            5
     436     1452.932   -20.460639 0.00017295071            5
     438    1468.2846   -14.114515 0.00017295071            5
     440    1490.4484   -9.1886317 0.00017295071            5
     442    1487.1913    -5.942928 0.00017295071            5
     444    1497.2185   -4.4123187 0.00017295071            5
     446    1478.8939   -3.8118845 0.00017295071            5
     448    1456.0017   -3.3353043 0.00017295071            5
     450    1466.4786   -2.6872974 0.00017295071            5
     452    1465.5824   -2.1548854 0.00017295071            5
     454    1464.9664   -2.2552192 0.00017295071            5
     456     1464.778   -2.8523593 0.00017295071            5
     458    1438.9393   -3.2513212 0.00017295071            5
     460    1430.9755    -3.129067 0.00017295071            5
     462    1438.8786   -2.7207139 0.00017295071            5
     464      1442.65   -2.5598392 0.00017295071            5
     466    1457.4603   -2.8627635 0.00017295071            5
     468    1456.3288   -3.1617133 0.00017295071            5
     470    1453.9005    -2.984669 0.00017295071            5
     472    1466.2228   -2.3645176 0.00017295071            5
     474    1473.5811   -1.8008842 0.00017295071            5
     476    1486.9192   -1.7752973 0.00017295071            5
     478    1486.6985   -2.0930366 0.00017295071            5
     480    1481.2602   -2.2133575 0.00017295071            5
     482    1481.1923   -1.8733217 0.00017295071            5
     484    1473.2641   -1.3520504 0.00017295071            5
     486    1471.6493   -1.1879697 0.00017295071            5
     488    1475.4712   -1.4344883 0.00017295071            5
     490    1481.9981   -1.6453745 0.00017295071            5
     492     1504.055   -1.4250176 0.00017295071            5
     494    1510.1599  -0.76544776 0.00017295071            5
     496    1496.1128  -0.15333711 0.00017295071            5
     498     1478.523  0.032710644 0.00017295071            5
     500    1442.1002  -0.01944848 0.00017295071            5
     502     1435.515  0.020833055 0.00017295071            5
     504    1435.4149   0.37469386 0.00017295071            5
     506    1428.6576   0.78486479 0.00017295071            5
     508    1431.8185    0.8019623 0.00017295071            5
     510    1421.3836   0.46585338 0.00017295071            5
     512    1529.4088    729.29069 0.00019456955            6
     514    1553.6093   -29.679404 0.00019456955            6
     516    1560.6793   -193.67199 0.00019456955            6
     518    1582.4456   -214.57181 0.00019456955            6
     520     1600.209   -196.52872 0.00019456955            6
     522    1587.5015   -168.43457 0.00019456955            6
     524    1597.8334   -139.01628 0.00019456955            6
     526    1588.3299   -110.66293 0.00019456955            6
     528    1563.7922   -85.583276 0.00019456955            6
     530    1562.5661   -65.082386 0.00019456955            6
     532    1545.9594   -48.827328 0.00019456955            6
     534    1548.1975   -36.047522 0.00019456955            6
     536    1571.1596   -25.990003 0.00019456955            6
     538    1568.3742   -18.119354 0.00019456955            6
     540    1591.6304   -12.364411 0.00019456955            6
     542    1621.6504   -8.4436521 0.00019456955            6
     544    1635.2863   -5.8931502 0.00019456955            6
     546    1668.6883   -4.3787834 0.00019456955            6
     548    1677.8643    -3.524089 0.00019456955            6
     550    1672.6149   -3.1111588 0.00019456955            6
     552     1686.192   -3.0167906 0.00019456955            6
     554    1694.1881    -3.021889 0.00019456955            6
     556     1721.201   -3.0411757 0.00019456955            6
     558    1756.9269   -2.9903902 0.00019456955            6
     560     1767.176   -2.8616056 0.00019456955            6
     562    1781.3616    -2.805622 0.00019456955            6
     564    1772.6438   -2.7043354 0.00019456955            6
     566    1752.2449   -2.4746308 0.00019456955            6
     568    1754.9931   -2.2279232 0.00019456955            6
     570    1754.7206   -2.0446367 0.00019456955            6
     572    1758.6452    -2.025602 0.00019456955            6
     574    1766.1608   -2.0914714 0.00019456955            6
     576    1761.7544   -2.0664004 0.00019456955            6
     578    1772.1189    -2.000525 0.00019456955            6
     580    1799.2454   -2.0250243 0.00019456955            6
     582     1825.067   -2.2293284 0.00019456955            6
     584    1849.5617   -2.5697748 0.00019456955            6
     586    1849.2053   -2.7732917 0.00019456955            6
     588    1836.8275   -2.7313701 0.00019456955            6
     590    1826.4569   -2.5953868 0.00019456955            6
     592    1812.2065   -2.5647921 0.00019456955            6
     594    1804.9949   -2.6702505 0.00019456955            6
     596    1803.1318   -2.6613268 0.00019456955            6
     598    1805.1361   -2.3358896 0.00019456955            6
     600     1824.188   -1.8387289 0.00019456955            6
     602    1848.6553   -1.5013544 0.00019456955            6
     604    1870.6838   -1.5441019 0.00019456955            6
     606    1874.9469   -1.8017458 0.00019456955            6
     608    1869.5686   -1.9218444 0.00019456955            6
     610     1877.623   -1.7853588 0.00019456955            6
     612    1889.4207   -1.5668847 0.00019456955            6
     614    1965.8448   -467.80498 0.00021618839            7
     616    1987.3298   -392.09435 0.00021618839            7
     618    2000.2927   -325.81873 0.00021618839            7
     620    2023.5139   -267.59947 0.00021618839            7
     622    2053.7762   -216.83693 0.00021618839            7
     624    2061.6352   -173.50374 0.00021618839            7
     626    2052.7458    -137.4578 0.00021618839            7
     628    2021.4692   -107.67926 0.00021618839            7
     630    1995.4739   -82.926012 0.00021618839            7
     632    1995.1292   -62.399746 0.00021618839            7
     634    1988.8957   -45.877721 0.00021618839            7
     636    1991.9075   -33.414941 0.00021618839            7
     638    1994.8193   -24.397758 0.00021618839            7
     640    1984.0488   -17.632089 0.00021618839            7
     642    1979.6828   -12.220819 0.00021618839            7
     644     1956.266   -7.8761194 0.00021618839            7
     646    1921.9407   -4.9132587 0.00021618839            7
     648    1906.8953   -3.4249108 0.00021618839            7
     650    1884.0064   -2.7059283 0.00021618839            7
     652    1873.4695   -1.9767323 0.00021618839            7
     654    1879.7171   -0.9043862 0.00021618839            7
     656    1864.2258   0.17074359 0.00021618839            7
     658    1879.9729   0.52626965 0.00021618839            7
     660    1914.8077   0.17422926 0.00021618839            7
     662     1951.367  -0.27150227 0.00021618839            7
     664    2003.6903  -0.40419822 0.00021618839            7
     666    2022.2638  -0.27719235 0.00021618839            7
     668    2007.5499  -0.46205565 0.00021618839            7
     670    2001.0368   -1.2081892 0.00021618839            7
     672    1989.3934   -1.9884832 0.00021618839            7
     674    2003.9186   -2.2824546 0.00021618839            7
     676    2029.3746   -1.9648526 0.00021618839            7
     678    2029.8301   -1.4595559 0.00021618839            7
     680     2039.736   -1.3563856 0.00021618839            7
     682     2030.692   -1.5588443 0.00021618839            7
     684    2012.8781   -1.6591768 0.00021618839            7
     686    2007.5676   -1.4469618 0.00021618839            7
     688    1976.2079   -1.0593207 0.00021618839            7
     690    1936.7606  -0.99860488 0.00021618839            7
     692     1917.263   -1.4227025 0.00021618839            7
     694     1898.286   -1.8944056 0.00021618839            7
     696    1908.9759   -2.0293348 0.00021618839            7
     698     1929.625   -1.7527389 0.00021618839            7
     700    1928.5094   -1.4327584 0.00021618839            7
     702    1925.3732   -1.4772437 0.00021618839            7
     704    1905.6439   -1.7140386 0.00021618839            7
     706    1892.0501   -1.7837212 0.00021618839            7
     708    1897.1334   -1.5195612 0.00021618839            7
     710    1891.8002   -1.0767969 0.00021618839            7
     712    1899.5619  -0.86887435 0.00021618839            7
     714    1905.3485  -0.94002209 0.00021618839            7
     716    2060.3083   -484.08676 0.00023780722            8
     718    2101.3468   -422.17239 0.00023780722            8
     720    2132.6048   -356.92116 0.00023780722            8
     722    2148.8483   -296.33815 0.00023780722            8
     724    2165.9219   -242.83932 0.00023780722            8
     726    2152.8378   -196.66477 0.00023780722            8
     728    2140.9769    -157.3232 0.00023780722            8
     730    2135.9583   -124.09964 0.00023780722            8
     732    2109.2748   -96.383726 0.00023780722            8
     734    2102.2854   -73.867192 0.00023780722            8
     736    2094.2383   -56.001724 0.00023780722            8
     738    2077.1035   -41.839387 0.00023780722            8
     740    2081.3509   -30.614919 0.00023780722            8
     742    2066.1613   -21.796463 0.00023780722            8
     744    2041.6068   -15.208246 0.00023780722            8
     746    2023.3105   -10.622121 0.00023780722            8
     748    1988.2601   -7.4664823 0.00023780722            8
     750    1976.5559   -5.2218916 0.00023780722            8
     752    1994.2738   -3.5641818 0.00023780722            8
     754    2015.1651   -2.4337385 0.00023780722            8
     756    2059.2266   -1.8718232 0.00023780722            8
     758    2080.4658   -1.5660802 0.00023780722            8
     760    2085.6804   -1.2208682 0.00023780722            8
     762    2111.7377  -0.80876969 0.00023780722            8
     764    2123.4038  -0.46004685 0.00023780722            8
     766    2142.9461  -0.50137367 0.00023780722            8
     768    2155.9796  -0.88504716 0.00023780722            8
     770    2137.3328   -1.2131181 0.00023780722            8
     772    2133.4178   -1.2839864 0.00023780722            8
     774    2135.5642   -1.1107438 0.00023780722            8
     776    2131.4716   -0.9763852 0.00023780722            8
     778    2141.1425   -1.1141508 0.00023780722            8
     780    2122.4577   -1.2362837 0.00023780722            8
     782     2097.188   -1.0587093 0.00023780722            8
     784    2086.4293  -0.54517591 0.00023780722            8
     786    2059.7386  0.078658205 0.00023780722            8
     788    2056.9502   0.39365487 0.00023780722            8
     790    2059.7875   0.44862285 0.00023780722            8
     792    2053.9519   0.57572021 0.00023780722            8
     794    2068.6847   0.87417066 0.00023780722            8
     796    2074.5991    1.2047124 0.00023780722            8
     798     2069.278    1.2159747 0.00023780722            8
     800    2066.7899   0.81647619 0.00023780722            8
     802     2049.668   0.38483557 0.00023780722            8
     804    2041.8371   0.23434063 0.00023780722            8
     806    2038.5434   0.39443232 0.00023780722            8
     808    2026.6223   0.58693138 0.00023780722            8
     810    2024.1624    0.5475207 0.00023780722            8
     812    2004.3173   0.49231818 0.00023780722            8
     814    1990.7789   0.70059886 0.00023780722            8
     816    1987.2131    1.2210152 0.00023780722            8
     818    2161.5038    10822.918 0.00025942606            9
     820    2177.4678    1175.2783 0.00025942606            9
     822     2184.519    57.816329 0.00025942606            9
     824    2178.3276    -139.4906 0.00025942606            9
     826     2180.645   -171.63641 0.00025942606            9
     828    2165.9354   -159.58872 0.00025942606            9
     830    2154.8716   -135.85339 0.00025942606            9
     832    2159.4294   -110.79695 0.00025942606            9
     834    2153.9831    -87.18999 0.00025942606            9
     836    2167.9422   -66.446821 0.00025942606            9
     838    2187.3361   -49.192935 0.00025942606            9
     840    2200.8082   -35.535202 0.00025942606            9
     842    2228.2294   -25.285213 0.00025942606            9
     844    2225.4003   -17.694836 0.00025942606            9
     846    2206.6625   -11.958408 0.00025942606            9
     848    2190.7535   -7.5738088 0.00025942606            9
     850    2158.8859   -4.4081209 0.00025942606            9
     852    2150.4249   -2.6693514 0.00025942606            9
     854    2146.7827   -2.1285586 0.00025942606            9
     856     2121.866   -2.0452297 0.00025942606            9
     858    2113.5398    -1.930143 0.00025942606            9
     860    2093.4925   -1.6900544 0.00025942606            9
     862    2074.3135   -1.6580782 0.00025942606            9
     864    2088.9188   -2.0758526 0.00025942606            9
     866    2087.6915   -2.5592562 0.00025942606            9
     868    2097.5344   -2.7852457 0.00025942606            9
     870    2112.2374   -2.6428098 0.00025942606            9
     872    2097.2111   -2.3002782 0.00025942606            9
     874     2106.853   -2.1636293 0.00025942606            9
     876    2129.5068   -2.1747853 0.00025942606            9
     878    2161.3576   -2.0561981 0.00025942606            9
     880    2217.5514   -1.7416833 0.00025942606            9
     882    2230.9698   -1.2884706 0.00025942606            9
     884      2211.38   -1.0467174 0.00025942606            9
     886    2187.0138   -1.1460354 0.00025942606            9
     888    2146.1106   -1.2881048 0.00025942606            9
     890    2140.9302   -1.3342717 0.00025942606            9
     892    2149.0235   -1.2373227 0.00025942606            9
     894    2134.5144   -1.1269002 0.00025942606            9
     896    2142.6185   -1.2248568 0.00025942606            9
     898    2137.3035    -1.302225 0.00025942606            9
     900    2138.4339   -1.1745745 0.00025942606            9
     902    2166.0789    -0.883737 0.00025942606            9
     904    2166.6321  -0.53814532 0.00025942606            9
     906    2163.9023   -0.4089786 0.00025942606            9
     908    2153.7644  -0.42222952 0.00025942606            9
     910    2124.8196  -0.28063037 0.00025942606            9
     912    2123.2354  0.043174822 0.00025942606            9
     914    2130.1172   0.46272084 0.00025942606            9
     916    2139.3275   0.76049317 0.00025942606            9
     918    2178.3808   0.82940816 0.00025942606            9
     920    2323.8782   -485.39314 0.0002810449           10
     922    2332.1565   -406.46688 0.0002810449           10
     924    2336.3166   -337.18565 0.0002810449           10
     926     2313.084    -276.7101 0.0002810449           10
     928    2301.6359   -224.66195 0.0002810449           10
     930    2284.8771    -180.5217 0.0002810449           10
     932    2268.3016   -143.34858 0.0002810449           10
     934    2283.2572   -112.17043 0.0002810449           10
     936    2301.3935   -86.232909 0.0002810449           10
     938    2326.6508   -65.092653 0.0002810449           10
     940    2354.0325   -48.308852 0.0002810449           10
     942    2357.0053   -35.117439 0.0002810449           10
     944    2362.4019   -24.804745 0.0002810449           10
     946    2364.5934   -16.882852 0.0002810449           10
     948    2354.2772    -11.08542 0.0002810449           10
     950    2358.2567   -7.2073771 0.0002810449           10
     952    2357.9722   -4.7692456 0.0002810449           10
     954    2370.3706   -3.2926218 0.0002810449           10
     956    2395.8214    -2.466307 0.0002810449           10
     958    2401.6564     -2.11421 0.0002810449           10
     960    2403.7092   -2.1429976 0.0002810449           10
     962    2396.0698   -2.2959924 0.0002810449           10
     964    2390.1649   -2.3157527 0.0002810449           10
     966    2404.5929   -2.1734121 0.0002810449           10
     968    2408.3192     -1.98028 0.0002810449           10
     970    2398.7909   -1.9375567 0.0002810449           10
     972    2383.6803   -2.0199738 0.0002810449           10
     974    2355.1449   -1.9574814 0.0002810449           10
     976    2346.3489   -1.6961375 0.0002810449           10
     978    2347.3597   -1.3865895 0.0002810449           10
     980    2343.0369   -1.2700218 0.0002810449           10
     982    2345.3213   -1.4297279 0.0002810449           10
     984       2327.6   -1.5695591 0.0002810449           10
     986    2318.7362   -1.4876651 0.0002810449           10
     988    2326.2577   -1.2479203 0.0002810449           10
     990     2316.612    -1.046613 0.0002810449           10
     992    2313.3503   -1.0544885 0.0002810449           10
     994    2314.0739   -1.0425882 0.0002810449           10
     996    2317.8974  -0.69797366 0.0002810449           10
     998    2349.5732 -0.086575463 0.0002810449           10
    1000    2378.2958   0.48380694 0.0002810449           10
    1002    2398.6531   0.66903819 0.0002810449           10
    1004    2417.9165   0.48507547 0.0002810449           10
    1006     2402.714     0.343508 0.0002810449           10
    1008    2387.7715   0.39591155 0.0002810449           10
    1010    2384.6905   0.48121177 0.0002810449           10
    1012    2374.5546   0.33734725 0.0002810449           10
    1014    2375.4496  -0.12992559 0.0002810449           10
    1016    2366.5143  -0.54452336 0.0002810449           10
    1018    2351.6829  -0.56192848 0.0002810449           10
    1020    2345.0219   -0.2460576 0.0002810449           10
    1022    2463.1847   -516.33252 0.00030266374           11
    1024     2454.155   -435.41186 0.00030266374           11
    1026     2437.707   -363.71737 0.00030266374           11
    1028    2408.2814   -300.48778 0.00030266374           11
    1030    2391.9754    -245.2709 0.00030266374           11
    1032     2379.439   -197.89467 0.00030266374           11
    1034    2368.5571   -158.05214 0.00030266374           11
    1036    2366.4376   -124.96986 0.00030266374           11
    1038    2352.3062   -97.480849 0.00030266374           11
    1040    2359.7206   -74.664867 0.00030266374           11
    1042     2380.554   -56.050357 0.00030266374           11
    1044    2392.3114   -41.388607 0.00030266374           11
    1046    2406.4028   -30.298934 0.00030266374           11
    1048     2397.032   -21.930411 0.00030266374           11
    1050    2388.3085   -15.453312 0.00030266374           11
    1052     2408.961   -10.487276 0.00030266374           11
    1054    2415.0795   -6.9671499 0.00030266374           11
    1056    2413.2045     -4.92205 0.00030266374           11
    1058    2402.5175   -3.9355994 0.00030266374           11
    1060    2372.7166   -3.3093623 0.00030266374           11
    1062    2379.1447   -2.6515003 0.00030266374           11
    1064     2403.202   -1.9596171 0.00030266374           11
    1066    2420.0621   -1.5615553 0.00030266374           11
    1068     2434.315   -1.6023246 0.00030266374           11
    1070    2413.6852   -1.6808363 0.00030266374           11
    1072    2390.6494   -1.4902277 0.00030266374           11
    1074    2391.2701   -1.1175681 0.00030266374           11
    1076    2384.3245  -0.86479593 0.00030266374           11
    1078    2383.5286  -0.99750191 0.00030266374           11
    1080     2361.881   -1.2538663 0.00030266374           11
    1082    2310.5086   -1.2171158 0.00030266374           11
    1084     2271.943  -0.84898316 0.00030266374           11
    1086    2245.7089  -0.41447514 0.00030266374           11
    1088    2238.5277  -0.24768594 0.00030266374           11
    1090    2250.6586  -0.33937731 0.00030266374           11
    1092    2252.3465  -0.28270513 0.00030266374           11
    1094    2257.7627   0.15192401 0.00030266374           11
    1096    2269.8741   0.81014869 0.00030266374           11
    1098    2286.5891    1.2659299 0.00030266374           11
    1100    2325.5369    1.2551156 0.00030266374           11
    1102    2346.6869    1.0727392 0.00030266374           11
    1104    2355.8688    1.0527111 0.00030266374           11
    1106    2358.3475    1.2373615 0.00030266374           11
    1108    2345.8422    1.3818899 0.00030266374           11
    1110    2353.8344    1.1564982 0.00030266374           11
    1112    2369.5181   0.66950876 0.00030266374           11
    1114     2373.066   0.29808963 0.00030266374           11
    1116    2378.6809   0.23783651 0.00030266374           11
    1118    2364.3707   0.43587025 0.00030266374           11
    1120    2348.2868   0.57308599 0.00030266374           11
    1122    2353.9119   0.50264505 0.00030266374           11
    1124    2522.0253    52021.206 0.00032428258           12
    1126    2539.0142    7338.6879 0.00032428258           12
    1128    2559.8158    1270.0735 0.00032428258           12
    1130      2561.38     145.3418 0.00032428258           12
    1132    2579.5507   -94.489179 0.00032428258           12
    1134    2589.1423   -136.27816 0.00032428258           12
    1136    2596.4703   -127.81426 0.00032428258           12
    1138    2624.7426   -107.06193 0.00032428258           12
    1140    2635.6919   -85.101749 0.00032428258           12
    1142    2646.3826   -65.610499 0.00032428258           12
    1144    2659.2678   -49.534785 0.00032428258           12
    1146    2649.6461   -36.607005 0.00032428258           12
    1148    2660.6024   -26.488565 0.00032428258           12
    1150    2670.7082   -18.659422 0.00032428258           12
    1152    2675.1501   -12.837639 0.00032428258           12
    1154    2698.7451   -8.8002486 0.00032428258           12
    1156    2707.7717   -5.9663794 0.00032428258           12
    1158    2729.6321   -3.9589674 0.00032428258           12
    1160    2770.6577   -2.6699229 0.00032428258           12
    1162    2784.6698   -1.9813875 0.00032428258           12
    1164    2793.4127   -1.7981665 0.00032428258           12
    1166    2786.6171   -1.8331689 0.00032428258           12
    1168     2763.219   -1.8406929 0.00032428258           12
    1170    2760.6924   -1.8850852 0.00032428258           12
    1172    2757.2723   -2.0886949 0.00032428258           12
    1174    2756.8909   -2.6016683 0.00032428258           12
    1176    2771.3594   -3.2945397 0.00032428258           12
    1178    2766.3013    -3.773452 0.00032428258           12
    1180    2754.5699   -3.9231145 0.00032428258           12
    1182    2743.4624   -3.8874086 0.00032428258           12
    1184    2724.9347   -3.8562824 0.00032428258           12
    1186    2722.9503   -3.8989691 0.00032428258           12
    1188     2735.073   -3.7774613 0.00032428258           12
    1190    2744.2224   -3.2658869 0.00032428258           12
    1192    2748.5938   -2.4445578 0.00032428258           12
    1194    2740.3303     -1.62823 0.00032428258           12
    1196    2731.1588   -1.1293334 0.00032428258           12
    1198    2726.6177  -0.94476657 0.00032428258           12
    1200    2729.2096  -0.85989877 0.00032428258           12
    1202    2733.9837  -0.76063952 0.00032428258           12
    1204    2729.2231   -0.7546601 0.00032428258           12
    1206    2727.2562   -1.0700876 0.00032428258           12
    1208    2720.7499   -1.6500762 0.00032428258           12
    1210    2708.6566   -2.1851417 0.00032428258           12
    1212     2701.892   -2.4148926 0.00032428258           12
    1214    2688.1758    -2.271921 0.00032428258           12
    1216    2685.2216   -1.9798955 0.00032428258           12
    1218    2706.9007   -1.7191217 0.00032428258           12
    1220    2713.4925   -1.3407824 0.00032428258           12
    1222    2738.9322  -0.77566391 0.00032428258           12
    1224    2775.5509 -0.0090904929 0.00032428258           12
    1226    2871.2813   -310.16764 0.00034590142           13
    1228    2871.5817   -331.77712 0.00034590142           13
    1230    2857.2201   -300.83945 0.00034590142           13
    1232    2837.3673    -256.8061 0.00034590142           13
    1234    2862.5084    -212.5256 0.00034590142           13
    1236    2874.7593   -172.25556 0.00034590142           13
    1238    2882.6633   -137.48854 0.00034590142           13
    1240    2909.4893   -108.42395 0.00034590142           13
    1242     2899.363   -84.307615 0.00034590142           13
    1244    2909.5571   -64.468204 0.00034590142           13
    1246    2941.0066   -48.373391 0.00034590142           13
    1248     2936.772   -35.618618 0.00034590142           13
    1250    2952.4744   -26.043372 0.00034590142           13
    1252    2969.6093   -18.874053 0.00034590142           13
    1254    2965.3037   -13.316472 0.00034590142           13
    1256    2995.4101    -9.132234 0.00034590142           13
    1258    3007.6778   -6.1946405 0.00034590142           13
    1260    2994.9045   -4.5054107 0.00034590142           13
    1262    3004.2835   -3.8873592 0.00034590142           13
    1264    3001.6362   -3.6367295 0.00034590142           13
    1266    3010.5562   -3.3538168 0.00034590142           13
    1268    3046.5006    -3.141016 0.00034590142           13
    1270    3056.1295   -3.1442573 0.00034590142           13
    1272    3073.7105   -3.4643552 0.00034590142           13
    1274    3102.7734   -3.7810315 0.00034590142           13
    1276    3117.8626   -3.7042351 0.00034590142           13
    1278    3138.7031   -3.3068889 0.00034590142           13
    1280     3141.649     -2.81218 0.00034590142           13
    1282    3120.5478   -2.4008861 0.00034590142           13
    1284     3115.974   -2.0656352 0.00034590142           13
    1286    3099.7148   -1.5004649 0.00034590142           13
    1288    3082.8778  -0.71815106 0.00034590142           13
    1290    3090.2566 -0.080564342 0.00034590142           13
    1292    3080.8676   0.15328737 0.00034590142           13
    1294    3072.2673 -0.084005595 0.00034590142           13
    1296    3068.6598  -0.48789662 0.00034590142           13
    1298    3051.4976  -0.73147096 0.00034590142           13
    1300    3050.1371  -0.91875812 0.00034590142           13
    1302    3071.9289    -1.302026 0.00034590142           13
    1304    3089.0938   -1.9004835 0.00034590142           13
    1306    3115.0464   -2.4956357 0.00034590142           13
    1308     3141.219   -2.7417336 0.00034590142           13
    1310    3156.2045   -2.5604889 0.00034590142           13
    1312    3189.7615   -2.2909175 0.00034590142           13
    1314    3229.6182   -2.2287307 0.00034590142           13
    1316    3254.1712   -2.3087605 0.00034590142           13
    1318    3288.7718   -2.2666589 0.00034590142           13
    1320    3324.0655   -1.8935613 0.00034590142           13
    1322    3340.5208   -1.3542012 0.00034590142           13
    1324    3365.0481   -1.0760891 0.00034590142           13
    1326    3370.2387   -1.0983067 0.00034590142           13
    1328    3471.4805    2014.1654 0.00036752025           14
    1330    3505.1634    330.03534 0.00036752025           14
    1332    3539.7134   -69.649334 0.00036752025           14
    1334     3566.793   -167.82115 0.00036752025           14
    1336    3604.5501   -176.10466 0.00036752025           14
    1338    3590.7429   -157.35136 0.00036752025           14
    1340    3556.3012   -131.95483 0.00036752025           14
    1342    3533.6395    -106.5047 0.00036752025           14
    1344    3490.0063   -83.120672 0.00036752025           14
    1346     3465.607   -63.491864 0.00036752025           14
    1348    3457.3149   -47.999092 0.00036752025           14
    1350    3412.3409   -35.927698 0.00036752025           14
    1352    3381.2277   -26.551014 0.00036752025           14
    1354    3349.4638   -19.272568 0.00036752025           14
    1356    3304.6611   -13.811171 0.00036752025           14
    1358    3304.3632   -10.049667 0.00036752025           14
    1360    3310.1505   -7.4676253 0.00036752025           14
    1362    3324.0496   -5.5416893 0.00036752025           14
    1364    3367.7593   -4.0623241 0.00036752025           14
    1366    3397.9879   -2.7787434 0.00036752025           14
    1368    3412.4534   -1.7492008 0.00036752025           14
    1370    3427.9927    -1.147808 0.00036752025           14
    1372    3421.2999  -0.84877502 0.00036752025           14
    1374    3431.4368  -0.77334018 0.00036752025           14
    1376    3461.4741  -0.86904112 0.00036752025           14
    1378    3483.9644   -1.1476447 0.00036752025           14
    1380    3505.0425   -1.6733489 0.00036752025           14
    1382    3494.7077   -2.2709129 0.00036752025           14
    1384    3454.6986     -2.73897 0.00036752025           14
    1386    3423.1053    -3.040692 0.00036752025           14
    1388    3393.9828   -3.1941004 0.00036752025           14
    1390    3368.8365   -3.3149273 0.00036752025           14
    1392     3357.374   -3.4753807 0.00036752025           14
    1394    3338.6876   -3.5730386 0.00036752025           14
    1396    3322.6963   -3.5669074 0.00036752025           14
    1398    3317.4036   -3.5137605 0.00036752025           14
    1400    3306.4233   -3.5036114 0.00036752025           14
    1402    3294.3469   -3.6465019 0.00036752025           14
    1404    3288.9613   -3.9285698 0.00036752025           14
    1406    3281.6542   -4.2217607 0.00036752025           14
    1408    3289.0894   -4.4494179 0.00036752025           14
    1410    3305.4438   -4.5424443 0.00036752025           14
    1412    3307.9857   -4.4630054 0.00036752025           14
    1414    3295.9878   -4.2471632 0.00036752025           14
    1416     3282.069   -3.9622413 0.00036752025           14
    1418    3269.3405   -3.6259962 0.00036752025           14
    1420    3272.8895   -3.2426864 0.00036752025           14
    1422    3294.6417   -2.7828443 0.00036752025           14
    1424     3307.614   -2.2516614 0.00036752025           14
    1426    3315.9908   -1.8186677 0.00036752025           14
    1428    3307.4338   -1.6062873 0.00036752025           14
    1430    3362.0036    591.24602 0.00038913909           15
    1432    3348.3711   -22.903151 0.00038913909           15
    1434    3339.0009   -180.94362 0.00038913909           15
    1436    3327.8309   -205.13316 0.00038913909           15
    1438    3323.8846    -188.6757 0.00038913909           15
    1440    3302.8168   -161.33916 0.00038913909           15
    1442    3280.8634   -133.06553 0.00038913909           15
    1444    3274.9669   -106.90061 0.00038913909           15
    1446    3261.4086   -83.772906 0.00038913909           15
    1448    3260.2033   -64.232762 0.00038913909           15
    1450    3256.8934   -48.308404 0.00038913909           15
    1452    3243.1338   -35.618715 0.00038913909           15
    1454      3249.12   -25.595933 0.00038913909           15
    1456    3257.8764   -17.638422 0.00038913909           15
    1458    3248.4414   -11.467315 0.00038913909           15
    1460    3237.7196   -7.1629632 0.00038913909           15
    1462    3212.5536   -4.5262728 0.00038913909           15
    1464    3207.8346   -3.1275511 0.00038913909           15
    1466    3240.6709   -2.4532209 0.00038913909           15
    1468    3274.7659   -1.9941312 0.00038913909           15
    1470    3309.7636   -1.7744811 0.00038913909           15
    1472    3319.9011   -2.0039409 0.00038913909           15
    1474    3301.7286   -2.5404117 0.00038913909           15
    1476    3304.5902    -3.015492 0.00038913909           15
    1478    3324.5802   -3.0251512 0.00038913909           15
    1480    3349.1191   -2.6296881 0.00038913909           15
    1482    3386.3334   -2.3009124 0.00038913909           15
    1484    3386.5448   -2.2135937 0.00038913909           15
    1486    3360.3384   -2.1803619 0.00038913909           15
    1488    3347.1255   -1.9008543 0.00038913909           15
    1490     3332.276   -1.2843614 0.00038913909           15
    1492    3332.4353  -0.78765054 0.00038913909           15
    1494     3362.446  -0.90165015 0.00038913909           15
    1496    3378.4951    -1.503457 0.00038913909           15
    1498    3399.9682    -2.142196 0.00038913909           15
    1500    3424.6642   -2.4001451 0.00038913909           15
    1502    3415.6927   -2.3206656 0.00038913909           15
    1504     3399.699   -2.4566927 0.00038913909           15
    1506    3380.1726   -3.0059402 0.00038913909           15
    1508    3356.1819   -3.5410815 0.00038913909           15
    1510    3372.1715   -3.5489313 0.00038913909           15
    1512    3407.3769   -2.8683598 0.00038913909           15
    1514    3422.0433   -1.9562886 0.00038913909           15
    1516    3438.5941   -1.4855083 0.00038913909           15
    1518    3429.8051   -1.4723825 0.00038913909           15
    1520     3417.385   -1.4858933 0.00038913909           15
    1522      3440.37   -1.1865901 0.00038913909           15
    1524    3458.4548  -0.67483073 0.00038913909           15
    1526    3469.3533  -0.55678882 0.00038913909           15
    1528     3490.916   -1.1714695 0.00038913909           15
    1530    3492.0061   -2.0409487 0.00038913909           15
    1532    3591.2065    933.33366 0.00041075793           16
    1534     3613.996    28.275741 0.00041075793           16
    1536    3592.9837   -172.35131 0.00041075793           16
    1538    3576.1566   -203.31573 0.00041075793           16
    1540    3569.3197    -188.5623 0.00041075793           16
    1542    3559.2173   -161.72853 0.00041075793           16
    1544    3581.5844   -132.85329 0.00041075793           16
    1546    3598.8905   -105.35356 0.00041075793           16
    1548    3591.8015   -81.305445 0.00041075793           16
    1550    3601.2781   -61.769959 0.00041075793           16
    1552    3610.8049   -46.305773 0.00041075793           16
    1554     3635.071   -33.909703 0.00041075793           16
    1556    3673.1152   -23.903242 0.00041075793           16
    1558    3674.3301   -16.196577 0.00041075793           16
    1560    3656.4931   -10.875945 0.00041075793           16
    1562    3635.4528   -7.5675014 0.00041075793           16
    1564    3605.0214   -5.4309671 0.00041075793           16
    1566    3597.8995   -3.8836753 0.00041075793           16
    1568    3589.3965   -2.7710753 0.00041075793           16
    1570    3557.0846   -2.1656742 0.00041075793           16
    1572    3522.8206   -2.1249828 0.00041075793           16
    1574    3488.0784   -2.3270696 0.00041075793           16
    1576    3468.5242   -2.3006944 0.00041075793           16
    1578    3480.3442   -1.9105952 0.00041075793           16
    1580    3502.4035   -1.4703121 0.00041075793           16
    1582    3514.5124   -1.3686635 0.00041075793           16
    1584    3529.8072   -1.6349027 0.00041075793           16
    1586    3549.9111   -1.8290023 0.00041075793           16
    1588    3581.7588   -1.6259883 0.00041075793           16
    1590    3627.3261   -1.2043943 0.00041075793           16
    1592    3670.0906    -1.032423 0.00041075793           16
    1594    3693.8859   -1.3608622 0.00041075793           16
    1596    3716.2459   -2.0059406 0.00041075793           16
    1598    3731.9525   -2.5008352 0.00041075793           16
    1600    3743.6525   -2.6784874 0.00041075793           16
    1602    3760.9905   -2.7998984 0.00041075793           16
    1604    3761.3113   -3.1223193 0.00041075793           16
    1606    3748.8697   -3.6314108 0.00041075793           16
    1608    3739.8794   -3.9850298 0.00041075793           16
    1610    3722.0372   -3.8300328 0.00041075793           16
    1612     3715.944     -3.30415 0.00041075793           16
    1614    3712.6256   -2.7922936 0.00041075793           16
    1616    3689.1991   -2.5191961 0.00041075793           16
    1618    3674.8638   -2.4644698 0.00041075793           16
    1620    3656.7564   -2.3324852 0.00041075793           16
    1622    3635.8706    -2.016391 0.00041075793           16
    1624    3634.1611   -1.7433529 0.00041075793           16
    1626    3612.7237   -1.6722602 0.00041075793           16
    1628     3577.439     -1.84882 0.00041075793           16
    1630    3562.4417    -2.128466 0.00041075793           16
    1632    3549.0826   -2.2282459 0.00041075793           16
    1634    3632.1374   -186.35031 0.00043237677           17
    1636    3648.9593   -296.79359 0.00043237677           17
    1638    3641.3738   -282.99578 0.00043237677           17
    1640    3650.8687   -244.99487 0.00043237677           17
    1642    3673.7223   -204.09587 0.00043237677           17
    1644    3690.3923   -166.23129 0.00043237677           17
    1646    3717.9157   -133.14546 0.00043237677           17
    1648    3718.0414   -104.89207 0.00043237677           17
    1650    3697.4633   -81.115712 0.00043237677           17
    1652    3705.0511    -61.49637 0.00043237677           17
    1654     3714.781   -45.659171 0.00043237677           17
    1656    3730.9613   -33.243337 0.00043237677           17
    1658    3741.1851   -23.708946 0.00043237677           17
    1660    3717.9711   -16.478718 0.00043237677           17
    1662    3701.7524   -11.228053 0.00043237677           17
    1664    3711.2786   -7.6811287 0.00043237677           17
    1666    3729.4217   -5.4701745 0.00043237677           17
    1668      3756.06    -4.196296 0.00043237677           17
    1670    3762.1859   -3.3948328 0.00043237677           17
    1672    3750.3442    -2.795002 0.00043237677           17
    1674    3750.3911   -2.3631317 0.00043237677           17
    1676     3743.935   -2.1198915 0.00043237677           17
    1678     3733.116   -2.0433621 0.00043237677           17
    1680    3711.4814   -1.9570085 0.00043237677           17
    1682    3673.0703   -1.7553287 0.00043237677           17
    1684    3640.8032   -1.6100182 0.00043237677           17
    1686    3623.5278   -1.7720453 0.00043237677           17
    1688    3609.6657   -2.2903733 0.00043237677           17
    1690    3595.0925   -2.9520482 0.00043237677           17
    1692    3574.7946   -3.4520403 0.00043237677           17
    1694    3553.4592   -3.7172417 0.00043237677           17
    1696    3550.4998   -3.9662696 0.00043237677           17
    1698    3573.0918   -4.3864824 0.00043237677           17
    1700    3608.4812   -4.8143282 0.00043237677           17
    1702    3649.7102   -4.8822052 0.00043237677           17
    1704     3691.715   -4.4058032 0.00043237677           17
    1706     3712.538   -3.5738906 0.00043237677           17
    1708    3723.8041   -2.8233117 0.00043237677           17
    1710    3728.6131   -2.3180266 0.00043237677           17
    1712    3721.5916   -1.8298925 0.00043237677           17
    1714    3722.2323    -1.145955 0.00043237677           17
    1716    3720.8412  -0.35106009 0.00043237677           17
    1718    3704.2798   0.13931625 0.00043237677           17
    1720      3691.24 0.0070879972 0.00043237677           17
    1722    3664.7923  -0.49492297 0.00043237677           17
    1724    3636.2585  -0.93235898 0.00043237677           17
    1726    3623.6805   -1.0766384 0.00043237677           17
    1728    3601.4828   -1.0674569 0.00043237677           17
    1730    3594.1993   -1.2953611 0.00043237677           17
    1732    3595.7016   -1.7010658 0.00043237677           17
    1734    3584.1108    -1.801104 0.00043237677           17
    1736    3713.9177    157.48163 0.00045399561           18
    1738    3729.1228   -244.26726 0.00045399561           18
    1740    3729.6815    -300.0614 0.00045399561           18
    1742    3750.7503   -278.25336 0.00045399561           18
    1744    3748.1243   -238.83242 0.00045399561           18
    1746    3741.9127    -197.8389 0.00045399561           18
    1748    3755.7248   -160.28928 0.00045399561           18
    1750    3749.7764   -127.74147 0.00045399561           18
    1752    3753.2746   -100.53428 0.00045399561           18
    1754    3765.3549   -78.121856 0.00045399561           18
    1756    3759.2282   -59.655351 0.00045399561           18
    1758    3775.6312   -44.626232 0.00045399561           18
    1760    3784.8396   -32.615627 0.00045399561           18
    1762    3771.0752   -23.447131 0.00045399561           18
    1764    3780.4144    -16.86878 0.00045399561           18
    1766    3782.4234     -12.0877 0.00045399561           18
    1768    3794.5104   -8.4068303 0.00045399561           18
    1770    3824.6482   -5.5286928 0.00045399561           18
    1772    3824.8005   -3.4631071 0.00045399561           18
    1774    3824.9637   -2.4005261 0.00045399561           18
    1776    3832.2073   -2.0425462 0.00045399561           18
    1778    3824.1265   -1.7381825 0.00045399561           18
    1780    3826.3354   -1.2396341 0.00045399561           18
    1782    3822.7018  -0.70624837 0.00045399561           18
    1784    3803.6551  -0.51472634 0.00045399561           18
    1786    3799.9592   -0.8237544 0.00045399561           18
    1788    3798.5286   -1.2770654 0.00045399561           18
    1790    3792.3951   -1.4626882 0.00045399561           18
    1792    3788.7063   -1.3397023 0.00045399561           18
    1794    3777.0686   -1.1815152 0.00045399561           18
    1796    3779.2508   -1.2957126 0.00045399561           18
    1798    3807.3391   -1.6056954 0.00045399561           18
    1800    3840.8603   -1.7394881 0.00045399561           18
    1802    3867.8952   -1.5119262 0.00045399561           18
    1804     3879.448   -1.1126446 0.00045399561           18
    1806    3874.0178  -0.89376073 0.00045399561           18
    1808    3870.4205   -1.0013994 0.00045399561           18
    1810    3874.9689   -1.1896861 0.00045399561           18
    1812    3882.7366   -1.1347346 0.00045399561           18
    1814    3893.4144  -0.80375709 0.00045399561           18
    1816    3892.8065  -0.43723593 0.00045399561           18
    1818    3879.6317  -0.27127498 0.00045399561           18
    1820     3863.231  -0.26927869 0.00045399561           18
    1822    3839.1828  -0.16469626 0.00045399561           18
    1824    3817.7643   0.17259437 0.00045399561           18
    1826    3814.5806   0.55900288 0.00045399561           18
    1828    3814.4881   0.73981688 0.00045399561           18
    1830     3826.593   0.61721493 0.00045399561           18
    1832    3850.1378   0.38603904 0.00045399561           18
    1834    3867.6612   0.31140301 0.00045399561           18
    1836    3881.9933   0.36675857 0.00045399561           18
    1838     4088.212    261434.69 0.00047561445           19
    1840    4096.5564    27676.737 0.00047561445           19
    1842    4116.6104    4562.7115 0.00047561445           19
    1844    4138.3331    942.30407 0.00047561445           19
    1846    4157.8346    171.41233 0.00047561445           19
    1848    4189.7389   -26.014237 0.00047561445           19
    1850    4203.2273   -76.212233 0.00047561445           19
    1852    4206.7084   -81.595913 0.00047561445           19
    1854    4214.7407   -72.613587 0.00047561445           19
    1856     4219.541   -59.566243 0.00047561445           19
    1858    4238.5637   -46.274295 0.00047561445           19
    1860    4268.5595   -34.588591 0.00047561445           19
    1862    4277.6539   -25.225003 0.00047561445           19
    1864    4285.3854    -18.06534 0.00047561445           19
    1866    4276.8633   -12.627639 0.00047561445           19
    1868     4255.485   -8.5283892 0.00047561445           19
    1870    4248.7917   -5.6394153 0.00047561445           19
    1872    4232.7796   -3.7373251 0.00047561445           19
    1874     4213.674   -2.5982718 0.00047561445           19
    1876    4196.3767   -1.8849709 0.00047561445           19
    1878    4154.9323   -1.2753507 0.00047561445           19
    1880    4121.2743  -0.82249822 0.00047561445           19
    1882    4101.6239  -0.60366804 0.00047561445           19
    1884     4076.731  -0.62133231 0.00047561445           19
    1886     4071.191  -0.92478991 0.00047561445           19
    1888    4070.5745   -1.3485064 0.00047561445           19
    1890    4073.0041   -1.8304913 0.00047561445           19
    1892     4099.534   -2.4147085 0.00047561445           19
    1894    4122.2249   -3.0099619 0.00047561445           19
    1896      4134.95   -3.5440729 0.00047561445           19
    1898     4138.662   -3.8951738 0.00047561445           19
    1900    4119.9803   -3.9477528 0.00047561445           19
    1902    4105.9779   -3.7437217 0.00047561445           19
    1904    4103.6993   -3.3264299 0.00047561445           19
    1906    4099.5993   -2.7195122 0.00047561445           19
    1908    4099.0927   -2.0152229 0.00047561445           19
    1910    4092.7303   -1.3051093 0.00047561445           19
    1912    4079.7989  -0.70887774 0.00047561445           19
    1914    4070.1861  -0.30814281 0.00047561445           19
    1916    4064.2331  -0.12483815 0.00047561445           19
    1918    4057.4172  -0.14863786 0.00047561445           19
    1920    4045.7673  -0.36919485 0.00047561445           19
    1922    4025.2377  -0.75787503 0.00047561445           19
    1924    3997.6829   -1.2270004 0.00047561445           19
    1926    3973.4154   -1.6380242 0.00047561445           19
    1928    3967.2261   -1.8579591 0.00047561445           19
    1930     3984.008   -1.8481876 0.00047561445           19
    1932    4014.2028    -1.695545 0.00047561445           19
    1934    4040.7038   -1.4466441 0.00047561445           19
    1936    4046.6823   -1.0457806 0.00047561445           19
    1938    4050.3414  -0.43691244 0.00047561445           19
    1940    4158.8456   -485.87062 0.00049723329           20
    1942    4138.6859   -406.83847 0.00049723329           20
    1944    4122.6253   -337.57463 0.00049723329           20
    1946    4101.6274   -277.34116 0.00049723329           20
    1948    4085.2854   -225.34082 0.00049723329           20
    1950    4088.9637    -181.0183 0.00049723329           20
    1952    4109.9585   -143.74698 0.00049723329           20
    1954    4141.6977    -112.7839 0.00049723329           20
    1956    4173.9013   -87.397165 0.00049723329           20
    1958    4185.8014   -66.686886 0.00049723329           20
    1960    4182.5342   -49.929089 0.00049723329           20
    1962    4173.7911   -36.539866 0.00049723329           20
    1964    4164.6792   -26.055513 0.00049723329           20
    1966      4166.91   -18.173563 0.00049723329           20
    1968    4170.7606   -12.411793 0.00049723329           20
    1970    4168.2387   -8.2434854 0.00049723329           20
    1972    4167.5496   -5.3241601 0.00049723329           20
    1974    4165.6717   -3.4268698 0.00049723329           20
    1976    4171.0255    -2.459824 0.00049723329           20
    1978    4186.2281    -2.210817 0.00049723329           20
    1980     4200.046   -2.2265372 0.00049723329           20
    1982    4214.8919   -2.1835848 0.00049723329           20
    1984    4230.6418   -1.9876854 0.00049723329           20
    1986    4242.4071   -1.7430167 0.00049723329           20
    1988    4252.8222   -1.6283597 0.00049723329           20
    1990    4255.8615   -1.5968122 0.00049723329           20
    1992    4261.9838   -1.4850549 0.00049723329           20
    1994     4280.013   -1.1801127 0.00049723329           20
    1996     4298.903  -0.75483617 0.00049723329           20
    1998    4315.3363  -0.43775783 0.00049723329           20
    2000    4312.8744  -0.26775056 0.00049723329           20
    2002    4295.4994 -0.071325246 0.00049723329           20
    2004    4276.0581   0.34550495 0.00049723329           20
    2006    4259.7706    1.0097526 0.00049723329           20
    2008    4259.7877    1.6450507 0.00049723329           20
    2010      4266.37    1.9897528 0.00049723329           20
    2012    4263.4827    2.1177927 0.00049723329           20
    2014    4268.7607    2.2393951 0.00049723329           20
    2016    4281.4665    2.4617856 0.00049723329           20
    2018    4299.8629    2.6164942 0.00049723329           20
    2020    4332.5133    2.4169235 0.00049723329           20
    2022    4350.4848    1.8843467 0.00049723329           20
    2024    4354.7043    1.2629554 0.00049723329           20
    2026    4348.8078   0.82057161 0.00049723329           20
    2028    4326.3199   0.59662969 0.00049723329           20
    2030    4306.4246   0.32430208 0.00049723329           20
    2032    4292.6428  -0.17386259 0.00049723329           20
    2034    4285.4709  -0.76060626 0.00049723329           20
    2036    4289.9933   -1.1707279 0.00049723329           20
    2038    4289.6574   -1.2615962 0.00049723329           20
    2040    4289.8823   -1.2227653 0.00049723329           20
    2042     4372.236   -484.15319 0.00051885212           21
    2044    4363.8565   -409.58287 0.00051885212           21
    2046    4374.4373   -342.09516 0.00051885212           21
    2048    4397.6019   -282.27516 0.00051885212           21
    2050    4419.5998   -230.19598 0.00051885212           21
    2052    4444.6113   -185.83214 0.00051885212           21
    2054    4463.2143   -148.62046 0.00051885212           21
    2056    4483.7739   -117.65238 0.00051885212           21
    2058    4502.9214    -92.03373 0.00051885212           21
    2060    4499.5116   -70.903642 0.00051885212           21
    2062    4485.0808   -53.819643 0.00051885212           21
    2064    4460.1892   -40.351592 0.00051885212           21
    2066    4441.3547   -29.893614 0.00051885212           21
    2068    4453.6573   -21.870035 0.00051885212           21
    2070    4471.3583    -15.74966 0.00051885212           21
    2072    4481.8502   -11.269104 0.00051885212           21
    2074    4482.5479   -8.2901014 0.00051885212           21
    2076    4458.9428   -6.4842891 0.00051885212           21
    2078    4440.2746   -5.4884006 0.00051885212           21
    2080    4430.7879   -4.8831169 0.00051885212           21
    2082    4418.2045   -4.3334616 0.00051885212           21
    2084    4420.9827   -3.8690608 0.00051885212           21
    2086    4415.2895   -3.4747959 0.00051885212           21
    2088    4403.2127   -3.0698792 0.00051885212           21
    2090    4404.9829   -2.6092157 0.00051885212           21
    2092    4394.4738   -2.0329887 0.00051885212           21
    2094     4381.445   -1.4800426 0.00051885212           21
    2096    4382.9362    -1.087972 0.00051885212           21
    2098    4380.2994  -0.77244565 0.00051885212           21
    2100    4394.8792  -0.49150427 0.00051885212           21
    2102    4420.8861  -0.20635176 0.00051885212           21
    2104    4429.8268    0.0310276 0.00051885212           21
    2106    4440.2236  0.055920203 0.00051885212           21
    2108    4439.1631 -0.098651465 0.00051885212           21
    2110    4427.5624  -0.31987022 0.00051885212           21
    2112    4425.6367  -0.54703789 0.00051885212           21
    2114    4413.4448  -0.71799966 0.00051885212           21
    2116    4390.8139  -0.88704628 0.00051885212           21
    2118    4370.4401   -1.0790848 0.00051885212           21
    2120    4341.8148   -1.1893832 0.00051885212           21
    2122    4323.8283   -1.1913674 0.00051885212           21
    2124    4316.3088   -1.0938027 0.00051885212           21
    2126    4303.2157  -0.92089888 0.00051885212           21
    2128    4293.2329  -0.72556801 0.00051885212           21
    2130    4277.4687    -0.470313 0.00051885212           21
    2132     4254.036  -0.18509838 0.00051885212           21
    2134    4238.7708 0.0079755602 0.00051885212           21
    2136    4226.4974  0.040694129 0.00051885212           21
    2138     4216.435 -0.083088073 0.00051885212           21
    2140    4210.2068  -0.27891332 0.00051885212           21
    2142    4190.1478  -0.45071942 0.00051885212           21
    2144    4358.0641    7552.2519 0.00054047096           22
    2146    4343.8669    2546.2605 0.00054047096           22
    2148    4337.8495    832.13859 0.00054047096           22
    2150    4344.8145    161.37654 0.00054047096           22
    2152     4354.659   -102.52396 0.00054047096           22
    2154     4351.261   -186.01241 0.00054047096           22
    2156    4338.2721     -196.408 0.00054047096           22
    2158    4326.0159   -183.30606 0.00054047096           22
    2160    4316.8225   -163.19657 0.00054047096           22
    2162    4315.5646   -139.65485 0.00054047096           22
    2164    4318.7228   -112.47106 0.00054047096           22
    2166    4308.7441   -86.692739 0.00054047096           22
    2168    4296.5417   -64.897163 0.00054047096           22
    2170    4295.1338   -47.217693 0.00054047096           22
    2172    4296.3245   -33.218667 0.00054047096           22
    2174    4309.7186    -22.42771 0.00054047096           22
    2176    4322.8738   -14.380445 0.00054047096           22
    2178    4325.1652   -8.7240076 0.00054047096           22
    2180    4339.5136   -5.1399194 0.00054047096           22
    2182    4359.4978    -3.125563 0.00054047096           22
    2184    4374.7235   -2.1060967 0.00054047096           22
    2186     4392.561   -1.6122362 0.00054047096           22
    2188    4391.6476   -1.3419931 0.00054047096           22
    2190    4375.4402   -1.2451958 0.00054047096           22
    2192    4370.8847   -1.2691448 0.00054047096           22
    2194    4362.5429   -1.1671537 0.00054047096           22
    2196    4357.6371  -0.78265168 0.00054047096           22
    2198    4353.2768   -0.1660927 0.00054047096           22
    2200    4327.6061    0.4949875 0.00054047096           22
    2202    4303.2649   0.97439091 0.00054047096           22
    2204    4295.6358    1.2953222 0.00054047096           22
    2206    4299.8451    1.6516724 0.00054047096           22
    2208    4331.8468    2.0778491 0.00054047096           22
    2210    4369.8179    2.4301813 0.00054047096           22
    2212    4390.4687    2.4771921 0.00054047096           22
    2214     4410.043    2.0979253 0.00054047096           22
    2216    4420.4824    1.5015737 0.00054047096           22
    2218    4428.5418    0.9293217 0.00054047096           22
    2220    4438.6351    0.4452181 0.00054047096           22
    2222    4429.7042 -0.022725602 0.00054047096           22
    2224    4410.5614  -0.57362223 0.00054047096           22
    2226    4394.6197   -1.1018693 0.00054047096           22
    2228    4377.6656    -1.356307 0.00054047096           22
    2230    4369.9848   -1.2799089 0.00054047096           22
    2232    4359.5241    -1.033239 0.00054047096           22
    2234    4329.7464  -0.87111314 0.00054047096           22
    2236    4297.4136  -0.92360827 0.00054047096           22
    2238    4274.4896   -1.0300654 0.00054047096           22
    2240    4273.3355  -0.99506577 0.00054047096           22
    2242    4299.8049  -0.84965213 0.00054047096           22
    2244    4375.9624  -0.73547198 0.00054047096           22
    2246    4419.4249   -428.66499 0.0005620898           23
    2248    4440.1921   -357.75283 0.0005620898           23
    2250    4458.4562   -295.72755 0.0005620898           23
    2252     4483.515   -241.53239 0.0005620898           23
    2254    4521.6264    -194.6715 0.0005620898           23
    2256    4558.4436   -154.95368 0.0005620898           23
    2258    4584.9658   -121.92313 0.0005620898           23
    2260    4603.2392    -94.63205 0.0005620898           23
    2262    4610.9187   -72.117113 0.0005620898           23
    2264    4620.6516    -53.81207 0.0005620898           23
    2266    4641.2237    -39.52074 0.0005620898           23
    2268     4656.112   -28.916367 0.0005620898           23
    2270    4661.2055    -21.28721 0.0005620898           23
    2272     4654.102   -15.778242 0.0005620898           23
    2274    4635.5037   -11.772833 0.0005620898           23
    2276    4629.6411   -9.0646229 0.0005620898           23
    2278    4644.5739   -7.5297271 0.0005620898           23
    2280    4672.0076   -6.7876668 0.0005620898           23
    2282    4715.8278   -6.3114881 0.0005620898           23
    2284    4756.7958   -5.5841706 0.0005620898           23
    2286    4786.6985   -4.5853628 0.0005620898           23
    2288    4809.2288   -3.3898975 0.0005620898           23
    2290    4814.2053   -2.5577365 0.0005620898           23
    2292    4817.5747   -2.0119957 0.0005620898           23
    2294    4838.8221   -1.5689555 0.0005620898           23
    2296    4875.5697   -1.1551628 0.0005620898           23
    2298    4930.9308  -0.81843584 0.0005620898           23
    2300     4984.499  -0.82134226 0.0005620898           23
    2302    5011.4719    -1.294796 0.0005620898           23
    2304    5020.5621   -2.0456668 0.0005620898           23
    2306     5009.736   -2.6179285 0.0005620898           23
    2308    4995.1273   -3.3240647 0.0005620898           23
    2310     4989.781   -4.1051438 0.0005620898           23
    2312    4987.6058   -4.6474518 0.0005620898           23
    2314    4993.5373   -5.2163273 0.0005620898           23
    2316    5013.1231   -5.3993449 0.0005620898           23
    2318    5032.7696   -5.1426741 0.0005620898           23
    2320    5052.2507   -4.7378163 0.0005620898           23
    2322     5066.676   -4.4309223 0.0005620898           23
    2324    5070.9335    -4.011325 0.0005620898           23
    2326    5075.3187    -3.575017 0.0005620898           23
    2328    5080.1483    -2.937051 0.0005620898           23
    2330    5089.0513    -2.218688 0.0005620898           23
    2332    5106.4161   -1.5761829 0.0005620898           23
    2334    5114.3901   -1.3379256 0.0005620898           23
    2336     5111.765   -1.4168282 0.0005620898           23
    2338    5109.8218   -1.3945147 0.0005620898           23
    2340    5112.3651   -1.3179987 0.0005620898           23
    2342    5129.4026   -1.1933029 0.0005620898           23
    2344     5151.596   -1.1509356 0.0005620898           23
    2346    5173.0185   -1.1910036 0.0005620898           23
    2348    5397.9032    68.928762 0.00058370864           24
    2350    5407.0266   -233.97041 0.00058370864           24
    2352    5422.5601   -279.88482 0.00058370864           24
    2354    5473.9255   -259.08824 0.00058370864           24
    2356    5488.0698   -221.76737 0.00058370864           24
    2358    5468.2353   -183.12481 0.00058370864           24
    2360    5493.5403   -147.94875 0.00058370864           24
    2362    5556.8153     -117.258 0.00058370864           24
    2364     5476.495     -91.2006 0.00058370864           24
    2366    5535.1518   -69.535188 0.00058370864           24
    2368     5463.379   -52.175894 0.00058370864           24
    2370    5406.5993   -38.635185 0.00058370864           24
    2372    5379.6399   -28.053989 0.00058370864           24
    2374    5293.9387   -19.606039 0.00058370864           24
    2376      5254.14   -12.991082 0.00058370864           24
    2378    5252.9692   -7.9447819 0.00058370864           24
    2380    5190.6301   -4.2982853 0.00058370864           24
    2382    5239.8106   -2.0984084 0.00058370864           24
    2384    5265.9434  -0.66290855 0.00058370864           24
    2386    5278.5471   0.24706688 0.00058370864           24
    2388    5310.5694   0.81491696 0.00058370864           24
    2390    5325.4843   0.83332156 0.00058370864           24
    2392     5287.052   0.65384817 0.00058370864           24
    2394    5217.4306   -0.2905052 0.00058370864           24
    2396    5151.0811   -1.3614891 0.00058370864           24
    2398    5089.4464   -2.1978833 0.00058370864           24
    2400    5096.8527   -2.5845056 0.00058370864           24
    2402    5081.1023   -2.6357504 0.00058370864           24
    2404    5112.6314   -2.7644934 0.00058370864           24
    2406    5098.9354    -2.724554 0.00058370864           24
    2408    5027.2334   -2.6826803 0.00058370864           24
    2410      4972.12   -2.1045636 0.00058370864           24
    2412    4978.4482   -1.2633463 0.00058370864           24
    2414    5015.2935   -0.8286916 0.00058370864           24
    2416     5052.309  -0.81559079 0.00058370864           24
    2418    5003.9654    -1.104621 0.00058370864           24
    2420    4973.9856   -1.5018687 0.00058370864           24
    2422    4949.7823   -1.6447218 0.00058370864           24
    2424    4901.9468   -1.5725746 0.00058370864           24
    2426     4945.389   -1.9278468 0.00058370864           24
    2428    4973.9992   -2.4855638 0.00058370864           24
    2430    4942.1022   -2.7325455 0.00058370864           24
    2432    4934.3944   -2.6684489 0.00058370864           24
    2434    4931.5278   -2.3317286 0.00058370864           24
    2436    4815.7187   -1.7602239 0.00058370864           24
    2438    4763.8819   -1.4516585 0.00058370864           24
    2440    4827.3393   -1.5296665 0.00058370864           24
    2442    4794.2051   -1.3026967 0.00058370864           24
    2444    4784.3245   -0.9623875 0.00058370864           24
    2446    4880.5328  -0.79855584 0.00058370864           24
    2448    4892.9298  -0.48521837 0.00058370864           24
    2450    5042.5229    182.15531 0.00060532748           25
    2452    5194.8177   -126.79776 0.00060532748           25
    2454    5156.6538   -209.68466 0.00060532748           25
    2456    5136.7898   -214.15629 0.00060532748           25
    2458    5190.4494   -191.92028 0.00060532748           25
    2460    5193.0372   -162.44965 0.00060532748           25
    2462    5135.1347   -132.94313 0.00060532748           25
    2464    5088.2711   -105.26975 0.00060532748           25
    2466    5044.2865   -80.777237 0.00060532748           25
    2468    5030.1682   -60.734524 0.00060532748           25
    2470    5014.4445   -44.886842 0.00060532748           25
    2472    5005.9881   -32.581621 0.00060532748           25
    2474    5084.7476   -23.310238 0.00060532748           25
    2476     5139.566   -16.306979 0.00060532748           25
    2478    5123.4439   -11.089426 0.00060532748           25
    2480    5164.1777   -7.6656601 0.00060532748           25
    2482    5166.1753   -5.6256871 0.00060532748           25
    2484    5134.5927   -4.5032297 0.00060532748           25
    2486    5177.4063   -3.9773157 0.00060532748           25
    2488    5176.7834   -3.4385437 0.00060532748           25
    2490     5169.781   -2.9064023 0.00060532748           25
    2492    5201.8608   -2.6139644 0.00060532748           25
    2494    5238.2059   -2.4480956 0.00060532748           25
    2496    5254.5338   -2.3015056 0.00060532748           25
[...]
    7416     9599.278  -0.33909427 0.0011457984           50
    7418    9441.7848   0.17134883 0.0011457984           50
    7420    9426.1066   0.68125899 0.0011457984           50
    7422    9437.1351    1.7674849 0.0011457984           50
    7424    9500.6425    3.2878942 0.0011457984           50
    7426    9535.3806    4.8936619 0.0011457984           50
    7428    9486.3862    6.1923477 0.0011457984           50
    7430    9417.2089    6.8698959 0.0011457984           50
    7432    9384.6502    6.9749972 0.0011457984           50
    7434    9322.1322    6.8304123 0.0011457984           50
    7436      9406.35    6.1073481 0.0011457984           50
    7438    9525.9922    4.9898311 0.0011457984           50
    7440    9559.5792    3.8870015 0.0011457984           50
    7442     9623.884    2.7643718 0.0011457984           50
    7444    9616.4375    1.8529093 0.0011457984           50
    7446    9582.8656    0.9840396 0.0011457984           50
    7448     9617.097 -0.024633469 0.0011457984           50
    7450    9573.3835  -0.44123727 0.0011457984           50
    7452    9476.2635   0.11013702 0.0011457984           50
    7454    9473.8768    1.2820056 0.0011457984           50
    7456    9459.0484      2.71048 0.0011457984           50
    7458    9532.4938    3.5106692 0.0011457984           50
    7460     9624.925     3.697208 0.0011457984           50
    7462    9564.9509    4.2072021 0.0011457984           50
    7464    9553.3086    5.0527198 0.0011457984           50
    7466    9551.3619    5.8525434 0.0011457984           50
    7468    9513.6267    5.6650826 0.0011457984           50
    7470    9507.7846    3.8869282 0.0011457984           50
    7472    9398.0642    1.8918919 0.0011457984           50
    7474    9341.8749   0.97413899 0.0011457984           50
    7476    9376.9782    1.4510035 0.0011457984           50
    7478    9392.1499    2.3484419 0.0011457984           50
    7480    9451.8765    2.1914005 0.0011457984           50
    7482    9511.2196    1.2607779 0.0011457984           50
    7484    9563.6374   0.88635346 0.0011457984           50
    7486    9620.0349    1.7459739 0.0011457984           50
    7488    9604.3505    3.2525131 0.0011457984           50
    7490    9590.9346    3.7425664 0.0011457984           50
    7492    9522.3988    2.8032866 0.0011457984           50
    7494    9494.9559    1.4256268 0.0011457984           50
    7496    9573.1982    1.0053352 0.0011457984           50
    7498    9601.5697    1.9606036 0.0011457984           50
    7500    9582.0828    2.6275963 0.0011457984           50
    7502    9614.3819    1.5728655 0.0011457984           50
    7504    9536.3627 -0.081088967 0.0011457984           50
    7506    9585.9946  -0.92030032 0.0011457984           50
    7508    9587.2868   0.28323303 0.0011457984           50
    7510    9528.9131    2.5152283 0.0011457984           50
    7512    9643.5854    3.4660557 0.0011457984           50
    7514    9689.8607    3.2065806 0.0011457984           50
    7516    9721.3389    2.9803491 0.0011457984           50
    7518    9777.5554    4.1047011 0.0011457984           50
    7520    9620.0088    6.8774095 0.0011457984           50
    7522    9502.8216    8.9090657 0.0011457984           50
    7524    9536.3096    8.5715993 0.0011457984           50
    7526    9430.0745    7.0672411 0.0011457984           50
    7528    9450.4065    5.7492142 0.0011457984           50
    7530    9454.0207    5.7231316 0.0011457984           50
    7532    9419.0919    5.8071811 0.0011457984           50
    7534    9539.5751    3.8208512 0.0011457984           50
    7536    9545.0205   0.35397896 0.0011457984           50
    7538    9472.4819   -2.7954424 0.0011457984           50
    7540    9417.4001   -3.9611563 0.0011457984           50
    7542    9262.3557   -2.8579227 0.0011457984           50
    7544    9297.3341    -1.755726 0.0011457984           50
    7546    9427.1736   -1.6469164 0.0011457984           50
    7548    9430.5916   -1.5166592 0.0011457984           50
    7550    9478.5136  -0.34981721 0.0011457984           50
    7552    9473.1761    2.6548766 0.0011457984           50
    7554    9341.2932    6.2584298 0.0011457984           50
    7556    9410.2365    7.8239294 0.0011457984           50
    7558    9381.6052    7.5311417 0.0011457984           50
    7560    9437.1569    6.3664849 0.0011457984           50
    7562     9542.198    5.6669502 0.0011457984           50
    7564    9477.5663    5.7225117 0.0011457984           50
    7566    9485.1494    4.6941954 0.0011457984           50
    7568    9535.1098    2.2509721 0.0011457984           50
    7570    9507.2274  -0.32454484 0.0011457984           50
    7572    9636.0736   -2.3180481 0.0011457984           50
    7574    9658.1354   -2.7226114 0.0011457984           50
    7576    9495.6354    -1.930176 0.0011457984           50
    7578    9587.4497   -1.6178495 0.0011457984           50
    7580    9622.3903   -1.3399174 0.0011457984           50
    7582    9704.3184  -0.92434441 0.0011457984           50
    7584    9926.6399  -0.15472678 0.0011457984           50
    7586    9892.8863    1.6692809 0.0011457984           50
    7588    9863.4979    3.1137697 0.0011457984           50
    7590    9906.4139    3.4536603 0.0011457984           50
    7592    9769.0965    3.4593296 0.0011457984           50
    7594      9743.17    3.0424924 0.0011457984           50
    7596    9719.9591    2.8191167 0.0011457984           50
    7598    9558.0651    3.0322152 0.0011457984           50
    7600    9645.6938    2.6112039 0.0011457984           50
    7602    9714.0215     2.185614 0.0011457984           50
    7604    9605.7654    2.3876785 0.0011457984           50
    7606    9693.6003    2.6081601 0.0011457984           50
    7608    9629.2089    3.4337647 0.0011457984           50
    7610    9551.3938    4.3618115 0.0011457984           50
    7612    9601.7189     5.042988 0.0011457984           50
    7614    9530.2921     6.231394 0.0011457984           50
    7616    9423.4273    7.5166546 0.0011457984           50
    7618    9505.4428    8.0291626 0.0011457984           50
    7620     9429.315    8.1655715 0.0011457984           50
    7622    9410.5734    7.5124718 0.0011457984           50
    7624     9483.015     6.434736 0.0011457984           50
    7626     9417.367    5.8180565 0.0011457984           50
    7628    9504.2707    4.8808406 0.0011457984           50
    7630    9708.7689    3.1972208 0.0011457984           50
    7632    9705.0142    1.4578035 0.0011457984           50
    7634    9712.5013  0.041948151 0.0011457984           50
    7636    9729.5345 -0.061359152 0.0011457984           50
    7638    9603.3866    1.3424057 0.0011457984           50
    7640    9659.7375    2.5412485 0.0011457984           50
    7642    9653.7578    3.3597609 0.0011457984           50
    7644    9526.3277    4.5019132 0.0011457984           50
    7646    9522.1426    6.4723916 0.0011457984           50
    7648    9551.1617    9.4539084 0.0011457984           50
    7650    9448.6486     12.17887 0.0011457984           50
    7652    9441.6445     12.73528 0.0011457984           50
    7654    9372.3016    11.623139 0.0011457984           50
    7656    9353.7281    10.159189 0.0011457984           50
    7658    9533.6437    9.1148105 0.0011457984           50
    7660    9720.4729    8.2979611 0.0011457984           50
    7662    9687.7535    6.5903069 0.0011457984           50
    7664    9679.7651    3.1582718 0.0011457984           50
    7666    9506.8095  -0.16657303 0.0011457984           50
    7668    9432.2748   -1.9647403 0.0011457984           50
    7670    9562.3452   -2.0511502 0.0011457984           50
    7672    9603.1776   -1.1215214 0.0011457984           50
    7674    9614.5799  -0.73355736 0.0011457984           50
    7676    9717.1466  -0.97171895 0.0011457984           50
    7678    9660.4746 -0.065105035 0.0011457984           50
    7680    9652.4727    2.1105705 0.0011457984           50
    7682    9632.6572    4.7124033 0.0011457984           50
    7684    9459.4445    6.5506091 0.0011457984           50
    7686    9459.2384    6.5399378 0.0011457984           50
    7688    9527.0273    5.8950819 0.0011457984           50
    7690    9552.6913    5.8727872 0.0011457984           50
    7692    9594.6979    6.1402731 0.0011457984           50
    7694    9507.6571    6.0382366 0.0011457984           50
    7696    9435.6211    4.6987185 0.0011457984           50
    7698    9593.5298    2.4864572 0.0011457984           50
    7700    9649.3417    1.3774067 0.0011457984           50
    7702    9733.9587    1.3621968 0.0011457984           50
    7704    9748.2134    1.6826187 0.0011457984           50
    7706    9607.2673     1.730675 0.0011457984           50
    7708    9570.3284     1.056172 0.0011457984           50
    7710    9623.4646   0.68062243 0.0011457984           50
    7712    9584.1504    1.5492829 0.0011457984           50
    7714    9727.4828    2.3647176 0.0011457984           50
    7716    9768.0882    2.5188312 0.0011457984           50
    7718    9675.8436     1.915033 0.0011457984           50
    7720    9742.4159   0.98004134 0.0011457984           50
    7722     9729.339     1.348188 0.0011457984           50
    7724    9737.0089    2.3572792 0.0011457984           50
    7726    9867.0438    2.3334077 0.0011457984           50
    7728    9685.1497     1.779699 0.0011457984           50
    7730    9541.5463    1.0959201 0.0011457984           50
    7732    9601.3202     1.360164 0.0011457984           50
    7734    9511.1979    3.3763173 0.0011457984           50
    7736    9691.0676    4.6273168 0.0011457984           50
    7738    9841.6024    4.2729278 0.0011457984           50
    7740    9648.3216    3.3438312 0.0011457984           50
    7742    9644.2115    2.2183629 0.0011457984           50
    7744     9588.828    2.5300306 0.0011457984           50
    7746    9341.8422    3.7987816 0.0011457984           50
    7748    9547.0139    3.0814107 0.0011457984           50
    7750    9527.4193    1.3593932 0.0011457984           50
    7752    9489.3054   -0.4087885 0.0011457984           50
    7754    9740.3405   -1.2673367 0.0011457984           50
    7756    9721.0147   0.00428777 0.0011457984           50
    7758    9702.5241   0.82419258 0.0011457984           50
    7760     9859.071   -0.6228219 0.0011457984           50
    7762    9650.9663   -2.3957203 0.0011457984           50
    7764    9706.9729   -3.6785526 0.0011457984           50
    7766    9818.8903   -2.8392329 0.0011457984           50
    7768    9663.4435  -0.34323863 0.0011457984           50
    7770    9803.2456   0.38943494 0.0011457984           50
    7772    9820.2274  -0.39394936 0.0011457984           50
    7774    9713.4768   -1.0733572 0.0011457984           50
    7776     9852.736  -0.42363135 0.0011457984           50
    7778    9886.2509    2.3769023 0.0011457984           50
    7780    9832.7358    4.9166992 0.0011457984           50
    7782    9932.8973     4.712252 0.0011457984           50
    7784    9796.5384    3.1448764 0.0011457984           50
    7786    9753.7015    1.9309203 0.0011457984           50
    7788    9839.8416    2.3899169 0.0011457984           50
    7790    9872.1501    3.7655463 0.0011457984           50
    7792    9953.7516    3.4859888 0.0011457984           50
    7794    10034.369    1.1698958 0.0011457984           50
    7796    9944.3003  -0.92549906 0.0011457984           50
    7798     9965.518   -1.1278296 0.0011457984           50
    7800      10012.5   0.80938361 0.0011457984           50
    7802    10034.925    2.8840295 0.0011457984           50
    7804    10097.202    3.1108041 0.0011457984           50
    7806    10109.566    2.2692514 0.0011457984           50
    7808    10070.186    2.6683711 0.0011457984           50
    7810    10086.066    5.1330175 0.0011457984           50
    7812    10101.889    8.1779122 0.0011457984           50
    7814    9955.2551    9.6584018 0.0011457984           50
    7816    9924.9784    8.6108988 0.0011457984           50
    7818    9892.9233    7.3026856 0.0011457984           50
    7820    9940.0085    7.6562588 0.0011457984           50
    7822    10043.889    9.2169653 0.0011457984           50
    7824    10040.433    10.071061 0.0011457984           50
    7826    9888.6625    8.8793367 0.0011457984           50
    7828    9843.2339    6.2958302 0.0011457984           50
    7830    9769.9935    4.9813275 0.0011457984           50
    7832    9817.1369    5.5036474 0.0011457984           50
    7834    9908.1863    6.5022137 0.0011457984           50
    7836     9836.952    6.5533027 0.0011457984           50
    7838    9823.5066    5.1861522 0.0011457984           50
    7840     9842.244     4.290555 0.0011457984           50
    7842    9807.8307    5.4702915 0.0011457984           50
    7844    9866.4119    7.5011118 0.0011457984           50
    7846    9948.1838    8.4741237 0.0011457984           50
    7848     9929.854    7.7316361 0.0011457984           50
    7850    10067.409    5.8569645 0.0011457984           50
    7852    10032.145    5.2165212 0.0011457984           50
    7854    9899.4962    6.0924898 0.0011457984           50
    7856    9921.7169     6.719158 0.0011457984           50
    7858     9916.003     6.389409 0.0011457984           50
    7860    9870.0171    5.3824146 0.0011457984           50
    7862    9982.1614    4.6911758 0.0011457984           50
    7864    9885.8857    5.9014244 0.0011457984           50
    7866    9833.4896    7.7602131 0.0011457984           50
    7868    9945.8481     8.582649 0.0011457984           50
    7870    9940.9251    8.4512902 0.0011457984           50
    7872    9955.2114    7.7609086 0.0011457984           50
    7874    9947.7609    7.5875024 0.0011457984           50
    7876     9824.999    8.1626806 0.0011457984           50
    7878    9821.2327    8.0188501 0.0011457984           50
    7880    9842.1396    6.8799344 0.0011457984           50
    7882    9763.4974    5.6291783 0.0011457984           50
    7884    9830.8014    4.8298768 0.0011457984           50
    7886     9864.651    5.1057619 0.0011457984           50
    7888    9897.6271    5.4523732 0.0011457984           50
    7890    9969.4632    4.8645946 0.0011457984           50
    7892    9905.2637    4.0683578 0.0011457984           50
    7894     9867.218    3.7625675 0.0011457984           50
    7896    9964.8143    4.1222515 0.0011457984           50
    7898    9970.8383    4.8135178 0.0011457984           50
    7900    9960.2843    4.6528207 0.0011457984           50
    7902    9929.1614    4.0045485 0.0011457984           50
    7904    9732.7455    4.4197682 0.0011457984           50
    7906    9784.6307      5.46138 0.0011457984           50
    7908    9902.0578    6.4536086 0.0011457984           50
    7910    9835.8696    6.5806316 0.0011457984           50
    7912    9816.4882    5.2605278 0.0011457984           50
    7914    9678.3646    4.2597874 0.0011457984           50
    7916    9495.2316    4.5265141 0.0011457984           50
    7918    9625.0995    4.6607196 0.0011457984           50
    7920    9667.4185    3.9419695 0.0011457984           50
    7922    9602.5767    1.8452379 0.0011457984           50
    7924    9714.4671  -0.78549348 0.0011457984           50
    7926    9600.4719   -1.3021957 0.0011457984           50
    7928    9595.5944  -0.40978783 0.0011457984           50
    7930    9671.4849   0.18383962 0.0011457984           50
    7932    9427.9403   0.13097094 0.0011457984           50
    7934    9336.0891  -0.75045689 0.0011457984           50
    7936    9377.7418  -0.37773788 0.0011457984           50
    7938    9313.8567    2.3838933 0.0011457984           50
    7940    9563.9378    4.7263846 0.0011457984           50
    7942    9725.0125    5.1314861 0.0011457984           50
    7944    9526.2488    3.8387064 0.0011457984           50
    7946    9567.6993    1.6692464 0.0011457984           50
    7948     9454.276    1.4617733 0.0011457984           50
    7950    9353.5637    2.4804377 0.0011457984           50
    7952    9601.2572    1.7746058 0.0011457984           50
    7954    9621.3707  -0.54877445 0.0011457984           50
    7956    9545.5258   -3.3532832 0.0011457984           50
    7958    9635.7985   -4.5615531 0.0011457984           50
    7960    9426.8802   -2.4111311 0.0011457984           50
    7962    9415.5196   0.10777037 0.0011457984           50
    7964    9525.2541   0.98550692 0.0011457984           50
    7966     9409.782    1.0022769 0.0011457984           50
    7968    9501.2728    1.0925635 0.0011457984           50
    7970    9566.9142    2.9916085 0.0011457984           50
    7972     9434.188    5.8343619 0.0011457984           50
    7974     9543.452    6.3023867 0.0011457984           50
    7976    9515.7435     4.393159 0.0011457984           50
    7978    9397.8265      1.67238 0.0011457984           50
    7980    9518.8853  -0.26214002 0.0011457984           50
    7982    9464.9738  -0.20322159 0.0011457984           50
    7984    9411.3658  -0.34294737 0.0011457984           50
    7986    9480.5763   -2.2898799 0.0011457984           50
    7988    9346.0022   -4.3015335 0.0011457984           50
    7990    9323.7758   -4.7818874 0.0011457984           50
    7992    9447.4591   -2.8155787 0.0011457984           50
    7994    9370.0301   0.86042184 0.0011457984           50
    7996    9414.3206     3.209964 0.0011457984           50
    7998    9443.2413    3.7897264 0.0011457984           50
    8000    9337.5805    4.2404387 0.0011457984           50
Loop time of 107.636 on 8 procs for 8000 steps with 848 atoms

Performance: 6.422 ns/day, 3.737 hours/ns, 74.325 timesteps/s
93.6% CPU use with 8 MPI tasks x no OpenMP threads

MPI task timing breakdown:
Section |  min time  |  avg time  |  max time  |%varavg| %total
---------------------------------------------------------------
Pair    | 0.0071581  | 0.99286    | 4.3913     | 151.9 |  0.92
Bond    | 0.023263   | 2.2103     | 10.081     | 229.9 |  2.05
Kspace  | 28.814     | 39.764     | 42.853     |  76.0 | 36.94
Neigh   | 6.4084     | 6.4395     | 6.4689     |   1.0 |  5.98
Comm    | 0.19227    | 0.25072    | 0.36267    |  12.4 |  0.23
Output  | 56.437     | 56.509     | 56.849     |   1.7 | 52.50
Modify  | 0.78657    | 1.4521     | 1.6493     |  23.1 |  1.35
Other   |            | 0.0172     |            |       |  0.02

Nlocal:        106.000 ave         407 max           0 min
Histogram: 5 0 0 0 1 0 1 0 0 1
Nghost:        71.1250 ave         338 max           0 min
Histogram: 5 0 1 0 1 0 0 0 0 1
Neighs:        7377.88 ave       29891 max           0 min
Histogram: 5 0 0 0 1 1 0 0 0 1

Total # of neighbors = 59023
Ave neighs/atom = 69.602594
Ave special neighs/atom = 11.443396
Neighbor list builds = 8000
Dangerous builds = 0
System init for write_data ...
PPPM initialization ...
  using 12-bit tables for long-range coulomb (../kspace.cpp:328)
  G vector (1/distance) = 0.20144813
  grid = 45 45 45
  stencil order = 5
  estimated absolute RMS force accuracy = 0.0022576485
  estimated relative force accuracy = 6.7988414e-06
  using double precision KISS FFT
  3d grid and FFT values/proc = 21952 12167
System init for write_data ...
PPPM initialization ...
  using 12-bit tables for long-range coulomb (../kspace.cpp:328)
  G vector (1/distance) = 0.20144813
  grid = 45 45 45
  stencil order = 5
  estimated absolute RMS force accuracy = 0.0022576485
  estimated relative force accuracy = 6.7988414e-06
  using double precision KISS FFT
  3d grid and FFT values/proc = 21952 12167

Please see the log.cite file for references relevant to this simulation

Total wall time: 0:01:48
