LAMMPS data file via write_data, version 28 Feb 2019, timestep = 6

400 atoms
1 atom types

0.0000000000000000e+00 6.0000000000000000e+01 xlo xhi
0.0000000000000000e+00 6.0000000000000000e+01 ylo yhi
0.0000000000000000e+00 3.0000000000000000e+00 zlo zhi

Masses

1 55.845

Atoms # spin

1 1 2.5000000000000000e+00 0.0000000000000000e+00 0.0000000000000000e+00 0.0000000000000000e+00 -3.9693242391277868e-03 -3.9693242391277929e-03 9.9998424434096433e-01 0 0 0
21 1 2.5000000000000000e+00 3.0000000000000000e+00 0.0000000000000000e+00 0.0000000000000000e+00 -1.1868011343002482e-02 -4.8145058779812530e-03 9.9991798205648519e-01 0 0 0
41 1 2.5000000000000000e+00 6.0000000000000000e+00 0.0000000000000000e+00 0.0000000000000000e+00 -1.9561861499557517e-02 -6.5828744882500201e-03 9.9978697697966845e-01 0 0 0
61 1 2.5000000000000000e+00 9.0000000000000000e+00 0.0000000000000000e+00 0.0000000000000000e+00 -2.6644762521588476e-02 -9.3989438861432541e-03 9.9960077855311480e-01 0 0 0
81 1 2.5000000000000000e+00 1.2000000000000000e+01 0.0000000000000000e+00 0.0000000000000000e+00 -3.2364838887478299e-02 -1.3362272507461704e-02 9.9938679542868891e-01 0 0 0
101 1 2.5000000000000000e+00 1.5000000000000000e+01 0.0000000000000000e+00 0.0000000000000000e+00 -3.5634992015801843e-02 -1.8429703183501425e-02 9.9919492261750509e-01 0 0 0
121 1 2.5000000000000000e+00 1.8000000000000000e+01 0.0000000000000000e+00 0.0000000000000000e+00 -3.5235119566844247e-02 -2.4270277420221115e-02 9.9908430073895971e-01 0 0 0
141 1 2.5000000000000000e+00 2.1000000000000000e+01 0.0000000000000000e+00 0.0000000000000000e+00 -3.0237916900163156e-02 -3.0163850736159143e-02 9.9908748890690546e-01 0 0 0
161 1 2.5000000000000000e+00 2.4000000000000000e+01 0.0000000000000000e+00 0.0000000000000000e+00 -2.0551704657275890e-02 -3.5058787503171429e-02 9.9917391321755789e-01 0 0 0
181 1 2.5000000000000000e+00 2.7000000000000000e+01 0.0000000000000000e+00 0.0000000000000000e+00 -7.2971667669136115e-03 -3.7860607272964066e-02 9.9925638640646097e-01 0 0 0
201 1 2.5000000000000000e+00 3.0000000000000000e+01 0.0000000000000000e+00 0.0000000000000000e+00 7.2971667669136028e-03 -3.7860607272964066e-02 9.9925638640646086e-01 0 0 0
221 1 2.5000000000000000e+00 3.3000000000000000e+01 0.0000000000000000e+00 0.0000000000000000e+00 2.0551704657275901e-02 -3.5058787503171443e-02 9.9917391321755789e-01 0 0 0
241 1 2.5000000000000000e+00 3.6000000000000000e+01 0.0000000000000000e+00 0.0000000000000000e+00 3.0237916900163156e-02 -3.0163850736159153e-02 9.9908748890690535e-01 0 0 0
261 1 2.5000000000000000e+00 3.9000000000000000e+01 0.0000000000000000e+00 0.0000000000000000e+00 3.5235119566844234e-02 -2.4270277420221108e-02 9.9908430073895960e-01 0 0 0
281 1 2.5000000000000000e+00 4.2000000000000000e+01 0.0000000000000000e+00 0.0000000000000000e+00 3.5634992015801829e-02 -1.8429703183501414e-02 9.9919492261750498e-01 0 0 0
301 1 2.5000000000000000e+00 4.5000000000000000e+01 0.0000000000000000e+00 0.0000000000000000e+00 3.2364838887478306e-02 -1.3362272507461704e-02 9.9938679542868891e-01 0 0 0
321 1 2.5000000000000000e+00 4.8000000000000000e+01 0.0000000000000000e+00 0.0000000000000000e+00 2.6644762521588494e-02 -9.3989438861432611e-03 9.9960077855311491e-01 0 0 0
341 1 2.5000000000000000e+00 5.1000000000000000e+01 0.0000000000000000e+00 0.0000000000000000e+00 1.9561861499557517e-02 -6.5828744882500201e-03 9.9978697697966856e-01 0 0 0
361 1 2.5000000000000000e+00 5.4000000000000000e+01 0.0000000000000000e+00 0.0000000000000000e+00 1.1868011343002482e-02 -4.8145058779812547e-03 9.9991798205648508e-01 0 0 0
381 1 2.5000000000000000e+00 5.7000000000000000e+01 0.0000000000000000e+00 0.0000000000000000e+00 3.9693242391277929e-03 -3.9693242391277937e-03 9.9998424434096445e-01 0 0 0
2 1 2.5000000000000000e+00 0.0000000000000000e+00 3.0000000000000000e+00 0.0000000000000000e+00 -4.8145058779812512e-03 -1.1868011343002475e-02 9.9991798205648519e-01 0 0 0
22 1 2.5000000000000000e+00 3.0000000000000000e+00 3.0000000000000000e+00 0.0000000000000000e+00 -1.4489047587394138e-02 -1.4489047587394138e-02 9.9979004545955574e-01 0 0 0
42 1 2.5000000000000000e+00 6.0000000000000000e+00 3.0000000000000000e+00 0.0000000000000000e+00 -2.4184841732588187e-02 -2.0009637034407928e-02 9.9950723251816487e-01 0 0 0
62 1 2.5000000000000000e+00 9.0000000000000000e+00 3.0000000000000000e+00 0.0000000000000000e+00 -3.3534698701154796e-02 -2.8894018478272422e-02 9.9901979944303421e-01 0 0 0
82 1 2.5000000000000000e+00 1.2000000000000000e+01 3.0000000000000000e+00 0.0000000000000000e+00 -4.1631298256624205e-02 -4.1569375222726884e-02 9.9826791095830603e-01 0 0 0
102 1 2.5000000000000000e+00 1.5000000000000000e+01 3.0000000000000000e+00 0.0000000000000000e+00 -4.6947676140268457e-02 -5.8031121465001792e-02 9.9721026100143129e-01 0 0 0
122 1 2.5000000000000000e+00 1.8000000000000000e+01 3.0000000000000000e+00 0.0000000000000000e+00 -4.7535409319668050e-02 -7.7312985281705895e-02 9.9587302763336383e-01 0 0 0
142 1 2.5000000000000000e+00 2.1000000000000000e+01 3.0000000000000000e+00 0.0000000000000000e+00 -4.1653952417990837e-02 -9.7059251840902777e-02 9.9440658177630958e-01 0 0 0
162 1 2.5000000000000000e+00 2.4000000000000000e+01 3.0000000000000000e+00 0.0000000000000000e+00 -2.8752729368399305e-02 -1.1365104497068100e-01 9.9310458690459180e-01 0 0 0
182 1 2.5000000000000000e+00 2.7000000000000000e+01 3.0000000000000000e+00 0.0000000000000000e+00 -1.0293413501576094e-02 -1.2321728304286263e-01 9.9232633079951105e-01 0 0 0
202 1 2.5000000000000000e+00 3.0000000000000000e+01 3.0000000000000000e+00 0.0000000000000000e+00 1.0293413501576086e-02 -1.2321728304286261e-01 9.9232633079951116e-01 0 0 0
222 1 2.5000000000000000e+00 3.3000000000000000e+01 3.0000000000000000e+00 0.0000000000000000e+00 2.8752729368399291e-02 -1.1365104497068100e-01 9.9310458690459180e-01 0 0 0
242 1 2.5000000000000000e+00 3.6000000000000000e+01 3.0000000000000000e+00 0.0000000000000000e+00 4.1653952417990824e-02 -9.7059251840902777e-02 9.9440658177630958e-01 0 0 0
262 1 2.5000000000000000e+00 3.9000000000000000e+01 3.0000000000000000e+00 0.0000000000000000e+00 4.7535409319668057e-02 -7.7312985281705895e-02 9.9587302763336383e-01 0 0 0
282 1 2.5000000000000000e+00 4.2000000000000000e+01 3.0000000000000000e+00 0.0000000000000000e+00 4.6947676140268443e-02 -5.8031121465001792e-02 9.9721026100143140e-01 0 0 0
302 1 2.5000000000000000e+00 4.5000000000000000e+01 3.0000000000000000e+00 0.0000000000000000e+00 4.1631298256624191e-02 -4.1569375222726877e-02 9.9826791095830592e-01 0 0 0
322 1 2.5000000000000000e+00 4.8000000000000000e+01 3.0000000000000000e+00 0.0000000000000000e+00 3.3534698701154809e-02 -2.8894018478272433e-02 9.9901979944303410e-01 0 0 0
342 1 2.5000000000000000e+00 5.1000000000000000e+01 3.0000000000000000e+00 0.0000000000000000e+00 2.4184841732588204e-02 -2.0009637034407945e-02 9.9950723251816487e-01 0 0 0
362 1 2.5000000000000000e+00 5.4000000000000000e+01 3.0000000000000000e+00 0.0000000000000000e+00 1.4489047587394149e-02 -1.4489047587394138e-02 9.9979004545955585e-01 0 0 0
382 1 2.5000000000000000e+00 5.7000000000000000e+01 3.0000000000000000e+00 0.0000000000000000e+00 4.8145058779812547e-03 -1.1868011343002482e-02 9.9991798205648519e-01 0 0 0
3 1 2.5000000000000000e+00 0.0000000000000000e+00 6.0000000000000000e+00 0.0000000000000000e+00 -6.5828744882500158e-03 -1.9561861499557527e-02 9.9978697697966856e-01 0 0 0
23 1 2.5000000000000000e+00 3.0000000000000000e+00 6.0000000000000000e+00 0.0000000000000000e+00 -2.0009637034407932e-02 -2.4184841732588200e-02 9.9950723251816498e-01 0 0 0
43 1 2.5000000000000000e+00 6.0000000000000000e+00 6.0000000000000000e+00 0.0000000000000000e+00 -3.4047077037887570e-02 -3.4047077037887577e-02 9.9884012388887977e-01 0 0 0
63 1 2.5000000000000000e+00 9.0000000000000000e+00 6.0000000000000000e+00 0.0000000000000000e+00 -4.8498220596720307e-02 -5.0241530269051260e-02 9.9755887607457838e-01 0 0 0
83 1 2.5000000000000000e+00 1.2000000000000000e+01 6.0000000000000000e+00 0.0000000000000000e+00 -6.2196104012276265e-02 -7.3954811425103587e-02 9.9532021506285684e-01 0 0 0
103 1 2.5000000000000000e+00 1.5000000000000000e+01 6.0000000000000000e+00 0.0000000000000000e+00 -7.2649992877525826e-02 -1.0567933713226435e-01 9.9174283775491956e-01 0 0 0
123 1 2.5000000000000000e+00 1.8000000000000000e+01 6.0000000000000000e+00 0.0000000000000000e+00 -7.6126593015943808e-02 -1.4398087111736477e-01 9.8664798717073865e-01 0 0 0
143 1 2.5000000000000000e+00 2.1000000000000000e+01 6.0000000000000000e+00 0.0000000000000000e+00 -6.8709104650143085e-02 -1.8428174194944069e-01 9.8046891767268973e-01 0 0 0
163 1 2.5000000000000000e+00 2.4000000000000000e+01 6.0000000000000000e+00 0.0000000000000000e+00 -4.8457456104349643e-02 -2.1884669159068457e-01 9.7455528346405618e-01 0 0 0
183 1 2.5000000000000000e+00 2.7000000000000000e+01 6.0000000000000000e+00 0.0000000000000000e+00 -1.7543173966404597e-02 -2.3902270727461428e-01 9.7085548999544657e-01 0 0 0
203 1 2.5000000000000000e+00 3.0000000000000000e+01 6.0000000000000000e+00 0.0000000000000000e+00 1.7543173966404587e-02 -2.3902270727461422e-01 9.7085548999544646e-01 0 0 0
223 1 2.5000000000000000e+00 3.3000000000000000e+01 6.0000000000000000e+00 0.0000000000000000e+00 4.8457456104349608e-02 -2.1884669159068454e-01 9.7455528346405618e-01 0 0 0
243 1 2.5000000000000000e+00 3.6000000000000000e+01 6.0000000000000000e+00 0.0000000000000000e+00 6.8709104650143044e-02 -1.8428174194944069e-01 9.8046891767268962e-01 0 0 0
263 1 2.5000000000000000e+00 3.9000000000000000e+01 6.0000000000000000e+00 0.0000000000000000e+00 7.6126593015943766e-02 -1.4398087111736474e-01 9.8664798717073865e-01 0 0 0
283 1 2.5000000000000000e+00 4.2000000000000000e+01 6.0000000000000000e+00 0.0000000000000000e+00 7.2649992877525826e-02 -1.0567933713226434e-01 9.9174283775491956e-01 0 0 0
303 1 2.5000000000000000e+00 4.5000000000000000e+01 6.0000000000000000e+00 0.0000000000000000e+00 6.2196104012276258e-02 -7.3954811425103573e-02 9.9532021506285673e-01 0 0 0
323 1 2.5000000000000000e+00 4.8000000000000000e+01 6.0000000000000000e+00 0.0000000000000000e+00 4.8498220596720307e-02 -5.0241530269051260e-02 9.9755887607457838e-01 0 0 0
343 1 2.5000000000000000e+00 5.1000000000000000e+01 6.0000000000000000e+00 0.0000000000000000e+00 3.4047077037887577e-02 -3.4047077037887577e-02 9.9884012388887966e-01 0 0 0
363 1 2.5000000000000000e+00 5.4000000000000000e+01 6.0000000000000000e+00 0.0000000000000000e+00 2.0009637034407942e-02 -2.4184841732588211e-02 9.9950723251816498e-01 0 0 0
383 1 2.5000000000000000e+00 5.7000000000000000e+01 6.0000000000000000e+00 0.0000000000000000e+00 6.5828744882500201e-03 -1.9561861499557531e-02 9.9978697697966856e-01 0 0 0
4 1 2.5000000000000000e+00 0.0000000000000000e+00 9.0000000000000000e+00 0.0000000000000000e+00 -9.3989438861432524e-03 -2.6644762521588497e-02 9.9960077855311480e-01 0 0 0
24 1 2.5000000000000000e+00 3.0000000000000000e+00 9.0000000000000000e+00 0.0000000000000000e+00 -2.8894018478272426e-02 -3.3534698701154803e-02 9.9901979944303410e-01 0 0 0
44 1 2.5000000000000000e+00 6.0000000000000000e+00 9.0000000000000000e+00 0.0000000000000000e+00 -5.0241530269051232e-02 -4.8498220596720286e-02 9.9755887607457827e-01 0 0 0
64 1 2.5000000000000000e+00 9.0000000000000000e+00 9.0000000000000000e+00 0.0000000000000000e+00 -7.3771080474423129e-02 -7.3771080474423115e-02 9.9454293792237669e-01 0 0 0
84 1 2.5000000000000000e+00 1.2000000000000000e+01 9.0000000000000000e+00 0.0000000000000000e+00 -9.8127311868331568e-02 -1.1214098437153223e-01 9.8883539089662387e-01 0 0 0
104 1 2.5000000000000000e+00 1.5000000000000000e+01 9.0000000000000000e+00 0.0000000000000000e+00 -1.1922421797550638e-01 -1.6561310406555055e-01 9.7895755046370747e-01 0 0 0
124 1 2.5000000000000000e+00 1.8000000000000000e+01 9.0000000000000000e+00 0.0000000000000000e+00 -1.2975986317850730e-01 -2.3284022614534144e-01 9.6381938504912923e-01 0 0 0
144 1 2.5000000000000000e+00 2.1000000000000000e+01 9.0000000000000000e+00 0.0000000000000000e+00 -1.2090775615411226e-01 -3.0602867088565672e-01 9.4431338394504205e-01 0 0 0
164 1 2.5000000000000000e+00 2.4000000000000000e+01 9.0000000000000000e+00 0.0000000000000000e+00 -8.7191355151399766e-02 -3.7026717261459724e-01 9.2482424734154478e-01 0 0 0
184 1 2.5000000000000000e+00 2.7000000000000000e+01 9.0000000000000000e+00 0.0000000000000000e+00 -3.1922103301157183e-02 -4.0821375936870385e-01 9.1232806927272614e-01 0 0 0
204 1 2.5000000000000000e+00 3.0000000000000000e+01 9.0000000000000000e+00 0.0000000000000000e+00 3.1922103301157155e-02 -4.0821375936870385e-01 9.1232806927272625e-01 0 0 0
224 1 2.5000000000000000e+00 3.3000000000000000e+01 9.0000000000000000e+00 0.0000000000000000e+00 8.7191355151399724e-02 -3.7026717261459718e-01 9.2482424734154478e-01 0 0 0
244 1 2.5000000000000000e+00 3.6000000000000000e+01 9.0000000000000000e+00 0.0000000000000000e+00 1.2090775615411219e-01 -3.0602867088565661e-01 9.4431338394504194e-01 0 0 0
264 1 2.5000000000000000e+00 3.9000000000000000e+01 9.0000000000000000e+00 0.0000000000000000e+00 1.2975986317850724e-01 -2.3284022614534142e-01 9.6381938504912912e-01 0 0 0
284 1 2.5000000000000000e+00 4.2000000000000000e+01 9.0000000000000000e+00 0.0000000000000000e+00 1.1922421797550635e-01 -1.6561310406555052e-01 9.7895755046370747e-01 0 0 0
304 1 2.5000000000000000e+00 4.5000000000000000e+01 9.0000000000000000e+00 0.0000000000000000e+00 9.8127311868331568e-02 -1.1214098437153228e-01 9.8883539089662398e-01 0 0 0
324 1 2.5000000000000000e+00 4.8000000000000000e+01 9.0000000000000000e+00 0.0000000000000000e+00 7.3771080474423129e-02 -7.3771080474423142e-02 9.9454293792237669e-01 0 0 0
344 1 2.5000000000000000e+00 5.1000000000000000e+01 9.0000000000000000e+00 0.0000000000000000e+00 5.0241530269051253e-02 -4.8498220596720314e-02 9.9755887607457827e-01 0 0 0
364 1 2.5000000000000000e+00 5.4000000000000000e+01 9.0000000000000000e+00 0.0000000000000000e+00 2.8894018478272443e-02 -3.3534698701154816e-02 9.9901979944303410e-01 0 0 0
384 1 2.5000000000000000e+00 5.7000000000000000e+01 9.0000000000000000e+00 0.0000000000000000e+00 9.3989438861432611e-03 -2.6644762521588494e-02 9.9960077855311480e-01 0 0 0
5 1 2.5000000000000000e+00 0.0000000000000000e+00 1.2000000000000000e+01 0.0000000000000000e+00 -1.3362272507461699e-02 -3.2364838887478299e-02 9.9938679542868880e-01 0 0 0
25 1 2.5000000000000000e+00 3.0000000000000000e+00 1.2000000000000000e+01 0.0000000000000000e+00 -4.1569375222726863e-02 -4.1631298256624198e-02 9.9826791095830603e-01 0 0 0
45 1 2.5000000000000000e+00 6.0000000000000000e+00 1.2000000000000000e+01 0.0000000000000000e+00 -7.3954811425103559e-02 -6.2196104012276245e-02 9.9532021506285673e-01 0 0 0
65 1 2.5000000000000000e+00 9.0000000000000000e+00 1.2000000000000000e+01 0.0000000000000000e+00 -1.1214098437153225e-01 -9.8127311868331554e-02 9.8883539089662398e-01 0 0 0
85 1 2.5000000000000000e+00 1.2000000000000000e+01 1.2000000000000000e+01 0.0000000000000000e+00 -1.5508313718777630e-01 -1.5508313718777628e-01 9.7565282817198595e-01 0 0 0
105 1 2.5000000000000000e+00 1.5000000000000000e+01 1.2000000000000000e+01 0.0000000000000000e+00 -1.9646003525323200e-01 -2.3830565311068275e-01 9.5111191257590177e-01 0 0 0
125 1 2.5000000000000000e+00 1.8000000000000000e+01 1.2000000000000000e+01 0.0000000000000000e+00 -2.2234110900479689e-01 -3.4758786972735528e-01 9.1090455266450188e-01 0 0 0
145 1 2.5000000000000000e+00 2.1000000000000000e+01 1.2000000000000000e+01 0.0000000000000000e+00 -2.1357380845070773e-01 -4.7013886220911955e-01 8.5636188529416402e-01 0 0 0
165 1 2.5000000000000000e+00 2.4000000000000000e+01 1.2000000000000000e+01 0.0000000000000000e+00 -1.5692234237038313e-01 -5.7886257432716870e-01 8.0018341554190886e-01 0 0 0
185 1 2.5000000000000000e+00 2.7000000000000000e+01 1.2000000000000000e+01 0.0000000000000000e+00 -5.7920936211537863e-02 -6.4295931380698856e-01 7.6370706814669809e-01 0 0 0
205 1 2.5000000000000000e+00 3.0000000000000000e+01 1.2000000000000000e+01 0.0000000000000000e+00 5.7920936211537793e-02 -6.4295931380698856e-01 7.6370706814669809e-01 0 0 0
225 1 2.5000000000000000e+00 3.3000000000000000e+01 1.2000000000000000e+01 0.0000000000000000e+00 1.5692234237038311e-01 -5.7886257432716881e-01 8.0018341554190908e-01 0 0 0
245 1 2.5000000000000000e+00 3.6000000000000000e+01 1.2000000000000000e+01 0.0000000000000000e+00 2.1357380845070767e-01 -4.7013886220911949e-01 8.5636188529416413e-01 0 0 0
265 1 2.5000000000000000e+00 3.9000000000000000e+01 1.2000000000000000e+01 0.0000000000000000e+00 2.2234110900479689e-01 -3.4758786972735528e-01 9.1090455266450188e-01 0 0 0
285 1 2.5000000000000000e+00 4.2000000000000000e+01 1.2000000000000000e+01 0.0000000000000000e+00 1.9646003525323205e-01 -2.3830565311068283e-01 9.5111191257590177e-01 0 0 0
305 1 2.5000000000000000e+00 4.5000000000000000e+01 1.2000000000000000e+01 0.0000000000000000e+00 1.5508313718777633e-01 -1.5508313718777636e-01 9.7565282817198595e-01 0 0 0
325 1 2.5000000000000000e+00 4.8000000000000000e+01 1.2000000000000000e+01 0.0000000000000000e+00 1.1214098437153229e-01 -9.8127311868331610e-02 9.8883539089662398e-01 0 0 0
345 1 2.5000000000000000e+00 5.1000000000000000e+01 1.2000000000000000e+01 0.0000000000000000e+00 7.3954811425103614e-02 -6.2196104012276265e-02 9.9532021506285684e-01 0 0 0
365 1 2.5000000000000000e+00 5.4000000000000000e+01 1.2000000000000000e+01 0.0000000000000000e+00 4.1569375222726898e-02 -4.1631298256624198e-02 9.9826791095830603e-01 0 0 0
385 1 2.5000000000000000e+00 5.7000000000000000e+01 1.2000000000000000e+01 0.0000000000000000e+00 1.3362272507461706e-02 -3.2364838887478299e-02 9.9938679542868891e-01 0 0 0
6 1 2.5000000000000000e+00 0.0000000000000000e+00 1.5000000000000000e+01 0.0000000000000000e+00 -1.8429703183501404e-02 -3.5634992015801836e-02 9.9919492261750509e-01 0 0 0
26 1 2.5000000000000000e+00 3.0000000000000000e+00 1.5000000000000000e+01 0.0000000000000000e+00 -5.8031121465001771e-02 -4.6947676140268457e-02 9.9721026100143140e-01 0 0 0
46 1 2.5000000000000000e+00 6.0000000000000000e+00 1.5000000000000000e+01 0.0000000000000000e+00 -1.0567933713226434e-01 -7.2649992877525812e-02 9.9174283775491956e-01 0 0 0
66 1 2.5000000000000000e+00 9.0000000000000000e+00 1.5000000000000000e+01 0.0000000000000000e+00 -1.6561310406555055e-01 -1.1922421797550634e-01 9.7895755046370747e-01 0 0 0
86 1 2.5000000000000000e+00 1.2000000000000000e+01 1.5000000000000000e+01 0.0000000000000000e+00 -2.3830565311068275e-01 -1.9646003525323197e-01 9.5111191257590177e-01 0 0 0
106 1 2.5000000000000000e+00 1.5000000000000000e+01 1.5000000000000000e+01 0.0000000000000000e+00 -3.1460569929723275e-01 -3.1460569929723275e-01 8.9557049300398384e-01 0 0 0
126 1 2.5000000000000000e+00 1.8000000000000000e+01 1.5000000000000000e+01 0.0000000000000000e+00 -3.6852592591640337e-01 -4.7476254409897906e-01 7.9924287212844281e-01 0 0 0
146 1 2.5000000000000000e+00 2.1000000000000000e+01 1.5000000000000000e+01 0.0000000000000000e+00 -3.6081689881382256e-01 -6.5421949001862334e-01 6.6468641058031896e-01 0 0 0
166 1 2.5000000000000000e+00 2.4000000000000000e+01 1.5000000000000000e+01 0.0000000000000000e+00 -2.6598547494087149e-01 -8.0744368404029232e-01 5.2657993146712301e-01 0 0 0
186 1 2.5000000000000000e+00 2.7000000000000000e+01 1.5000000000000000e+01 0.0000000000000000e+00 -9.7873033584060118e-02 -8.9330169771966939e-01 4.3867179775797049e-01 0 0 0
206 1 2.5000000000000000e+00 3.0000000000000000e+01 1.5000000000000000e+01 0.0000000000000000e+00 9.7873033584060007e-02 -8.9330169771966939e-01 4.3867179775797044e-01 0 0 0
226 1 2.5000000000000000e+00 3.3000000000000000e+01 1.5000000000000000e+01 0.0000000000000000e+00 2.6598547494087138e-01 -8.0744368404029232e-01 5.2657993146712301e-01 0 0 0
246 1 2.5000000000000000e+00 3.6000000000000000e+01 1.5000000000000000e+01 0.0000000000000000e+00 3.6081689881382251e-01 -6.5421949001862334e-01 6.6468641058031896e-01 0 0 0
266 1 2.5000000000000000e+00 3.9000000000000000e+01 1.5000000000000000e+01 0.0000000000000000e+00 3.6852592591640337e-01 -4.7476254409897911e-01 7.9924287212844303e-01 0 0 0
286 1 2.5000000000000000e+00 4.2000000000000000e+01 1.5000000000000000e+01 0.0000000000000000e+00 3.1460569929723281e-01 -3.1460569929723281e-01 8.9557049300398361e-01 0 0 0
306 1 2.5000000000000000e+00 4.5000000000000000e+01 1.5000000000000000e+01 0.0000000000000000e+00 2.3830565311068277e-01 -1.9646003525323205e-01 9.5111191257590177e-01 0 0 0
326 1 2.5000000000000000e+00 4.8000000000000000e+01 1.5000000000000000e+01 0.0000000000000000e+00 1.6561310406555055e-01 -1.1922421797550636e-01 9.7895755046370736e-01 0 0 0
346 1 2.5000000000000000e+00 5.1000000000000000e+01 1.5000000000000000e+01 0.0000000000000000e+00 1.0567933713226439e-01 -7.2649992877525854e-02 9.9174283775491956e-01 0 0 0
366 1 2.5000000000000000e+00 5.4000000000000000e+01 1.5000000000000000e+01 0.0000000000000000e+00 5.8031121465001820e-02 -4.6947676140268485e-02 9.9721026100143140e-01 0 0 0
386 1 2.5000000000000000e+00 5.7000000000000000e+01 1.5000000000000000e+01 0.0000000000000000e+00 1.8429703183501425e-02 -3.5634992015801836e-02 9.9919492261750498e-01 0 0 0
7 1 2.5000000000000000e+00 0.0000000000000000e+00 1.8000000000000000e+01 0.0000000000000000e+00 -2.4270277420221083e-02 -3.5235119566844234e-02 9.9908430073895960e-01 0 0 0
27 1 2.5000000000000000e+00 3.0000000000000000e+00 1.8000000000000000e+01 0.0000000000000000e+00 -7.7312985281705854e-02 -4.7535409319668043e-02 9.9587302763336372e-01 0 0 0
47 1 2.5000000000000000e+00 6.0000000000000000e+00 1.8000000000000000e+01 0.0000000000000000e+00 -1.4398087111736474e-01 -7.6126593015943766e-02 9.8664798717073854e-01 0 0 0
67 1 2.5000000000000000e+00 9.0000000000000000e+00 1.8000000000000000e+01 0.0000000000000000e+00 -2.3284022614534147e-01 -1.2975986317850727e-01 9.6381938504912923e-01 0 0 0
87 1 2.5000000000000000e+00 1.2000000000000000e+01 1.8000000000000000e+01 0.0000000000000000e+00 -3.4758786972735523e-01 -2.2234110900479681e-01 9.1090455266450177e-01 0 0 0
107 1 2.5000000000000000e+00 1.5000000000000000e+01 1.8000000000000000e+01 0.0000000000000000e+00 -4.7476254409897900e-01 -3.6852592591640326e-01 7.9924287212844292e-01 0 0 0
127 1 2.5000000000000000e+00 1.8000000000000000e+01 1.8000000000000000e+01 0.0000000000000000e+00 -5.6571145299922609e-01 -5.6571145299922598e-01 5.9995091790163058e-01 0 0 0
147 1 2.5000000000000000e+00 2.1000000000000000e+01 1.8000000000000000e+01 0.0000000000000000e+00 -5.4725458628470525e-01 -7.6968694425946660e-01 3.2877716713129740e-01 0 0 0
167 1 2.5000000000000000e+00 2.4000000000000000e+01 1.8000000000000000e+01 0.0000000000000000e+00 -3.9048923819288139e-01 -9.1777534868081290e-01 7.2156525757244322e-02 0 0 0
187 1 2.5000000000000000e+00 2.7000000000000000e+01 1.8000000000000000e+01 0.0000000000000000e+00 -1.3991724696158017e-01 -9.8714633419212083e-01 -7.7235217962726241e-02 0 0 0
207 1 2.5000000000000000e+00 3.0000000000000000e+01 1.8000000000000000e+01 0.0000000000000000e+00 1.3991724696158006e-01 -9.8714633419212106e-01 -7.7235217962726241e-02 0 0 0
227 1 2.5000000000000000e+00 3.3000000000000000e+01 1.8000000000000000e+01 0.0000000000000000e+00 3.9048923819288128e-01 -9.1777534868081279e-01 7.2156525757244322e-02 0 0 0
247 1 2.5000000000000000e+00 3.6000000000000000e+01 1.8000000000000000e+01 0.0000000000000000e+00 5.4725458628470514e-01 -7.6968694425946649e-01 3.2877716713129734e-01 0 0 0
267 1 2.5000000000000000e+00 3.9000000000000000e+01 1.8000000000000000e+01 0.0000000000000000e+00 5.6571145299922621e-01 -5.6571145299922609e-01 5.9995091790163035e-01 0 0 0
287 1 2.5000000000000000e+00 4.2000000000000000e+01 1.8000000000000000e+01 0.0000000000000000e+00 4.7476254409897917e-01 -3.6852592591640337e-01 7.9924287212844281e-01 0 0 0
307 1 2.5000000000000000e+00 4.5000000000000000e+01 1.8000000000000000e+01 0.0000000000000000e+00 3.4758786972735534e-01 -2.2234110900479692e-01 9.1090455266450188e-01 0 0 0
327 1 2.5000000000000000e+00 4.8000000000000000e+01 1.8000000000000000e+01 0.0000000000000000e+00 2.3284022614534147e-01 -1.2975986317850732e-01 9.6381938504912912e-01 0 0 0
347 1 2.5000000000000000e+00 5.1000000000000000e+01 1.8000000000000000e+01 0.0000000000000000e+00 1.4398087111736477e-01 -7.6126593015943808e-02 9.8664798717073854e-01 0 0 0
367 1 2.5000000000000000e+00 5.4000000000000000e+01 1.8000000000000000e+01 0.0000000000000000e+00 7.7312985281705909e-02 -4.7535409319668064e-02 9.9587302763336372e-01 0 0 0
387 1 2.5000000000000000e+00 5.7000000000000000e+01 1.8000000000000000e+01 0.0000000000000000e+00 2.4270277420221129e-02 -3.5235119566844247e-02 9.9908430073895971e-01 0 0 0
8 1 2.5000000000000000e+00 0.0000000000000000e+00 2.1000000000000000e+01 0.0000000000000000e+00 -3.0163850736159105e-02 -3.0237916900163149e-02 9.9908748890690535e-01 0 0 0
28 1 2.5000000000000000e+00 3.0000000000000000e+00 2.1000000000000000e+01 0.0000000000000000e+00 -9.7059251840902722e-02 -4.1653952417990810e-02 9.9440658177630958e-01 0 0 0
48 1 2.5000000000000000e+00 6.0000000000000000e+00 2.1000000000000000e+01 0.0000000000000000e+00 -1.8428174194944064e-01 -6.8709104650143071e-02 9.8046891767268973e-01 0 0 0
68 1 2.5000000000000000e+00 9.0000000000000000e+00 2.1000000000000000e+01 0.0000000000000000e+00 -3.0602867088565666e-01 -1.2090775615411221e-01 9.4431338394504205e-01 0 0 0
88 1 2.5000000000000000e+00 1.2000000000000000e+01 2.1000000000000000e+01 0.0000000000000000e+00 -4.7013886220911943e-01 -2.1357380845070767e-01 8.5636188529416413e-01 0 0 0
108 1 2.5000000000000000e+00 1.5000000000000000e+01 2.1000000000000000e+01 0.0000000000000000e+00 -6.5421949001862312e-01 -3.6081689881382245e-01 6.6468641058031908e-01 0 0 0
128 1 2.5000000000000000e+00 1.8000000000000000e+01 2.1000000000000000e+01 0.0000000000000000e+00 -7.6968694425946649e-01 -5.4725458628470514e-01 3.2877716713129745e-01 0 0 0
148 1 2.5000000000000000e+00 2.1000000000000000e+01 2.1000000000000000e+01 0.0000000000000000e+00 -7.0472416296125850e-01 -7.0472416296125850e-01 -8.2022608329090224e-02 0 0 0
168 1 2.5000000000000000e+00 2.4000000000000000e+01 2.1000000000000000e+01 0.0000000000000000e+00 -4.6907708232882805e-01 -7.8303583820847300e-01 -4.0843795968914098e-01 0 0 0
188 1 2.5000000000000000e+00 2.7000000000000000e+01 2.1000000000000000e+01 0.0000000000000000e+00 -1.6077801357100108e-01 -8.0506391360620255e-01 -5.7098382232881861e-01 0 0 0
208 1 2.5000000000000000e+00 3.0000000000000000e+01 2.1000000000000000e+01 0.0000000000000000e+00 1.6077801357100094e-01 -8.0506391360620255e-01 -5.7098382232881872e-01 0 0 0
228 1 2.5000000000000000e+00 3.3000000000000000e+01 2.1000000000000000e+01 0.0000000000000000e+00 4.6907708232882789e-01 -7.8303583820847278e-01 -4.0843795968914093e-01 0 0 0
248 1 2.5000000000000000e+00 3.6000000000000000e+01 2.1000000000000000e+01 0.0000000000000000e+00 7.0472416296125839e-01 -7.0472416296125850e-01 -8.2022608329090321e-02 0 0 0
268 1 2.5000000000000000e+00 3.9000000000000000e+01 2.1000000000000000e+01 0.0000000000000000e+00 7.6968694425946660e-01 -5.4725458628470514e-01 3.2877716713129729e-01 0 0 0
288 1 2.5000000000000000e+00 4.2000000000000000e+01 2.1000000000000000e+01 0.0000000000000000e+00 6.5421949001862334e-01 -3.6081689881382256e-01 6.6468641058031885e-01 0 0 0
308 1 2.5000000000000000e+00 4.5000000000000000e+01 2.1000000000000000e+01 0.0000000000000000e+00 4.7013886220911955e-01 -2.1357380845070770e-01 8.5636188529416402e-01 0 0 0
328 1 2.5000000000000000e+00 4.8000000000000000e+01 2.1000000000000000e+01 0.0000000000000000e+00 3.0602867088565666e-01 -1.2090775615411227e-01 9.4431338394504194e-01 0 0 0
348 1 2.5000000000000000e+00 5.1000000000000000e+01 2.1000000000000000e+01 0.0000000000000000e+00 1.8428174194944072e-01 -6.8709104650143099e-02 9.8046891767268962e-01 0 0 0
368 1 2.5000000000000000e+00 5.4000000000000000e+01 2.1000000000000000e+01 0.0000000000000000e+00 9.7059251840902791e-02 -4.1653952417990824e-02 9.9440658177630958e-01 0 0 0
388 1 2.5000000000000000e+00 5.7000000000000000e+01 2.1000000000000000e+01 0.0000000000000000e+00 3.0163850736159153e-02 -3.0237916900163146e-02 9.9908748890690535e-01 0 0 0
9 1 2.5000000000000000e+00 0.0000000000000000e+00 2.4000000000000000e+01 0.0000000000000000e+00 -3.5058787503171387e-02 -2.0551704657275887e-02 9.9917391321755789e-01 0 0 0
29 1 2.5000000000000000e+00 3.0000000000000000e+00 2.4000000000000000e+01 0.0000000000000000e+00 -1.1365104497068090e-01 -2.8752729368399281e-02 9.9310458690459180e-01 0 0 0
49 1 2.5000000000000000e+00 6.0000000000000000e+00 2.4000000000000000e+01 0.0000000000000000e+00 -2.1884669159068454e-01 -4.8457456104349608e-02 9.7455528346405629e-01 0 0 0
69 1 2.5000000000000000e+00 9.0000000000000000e+00 2.4000000000000000e+01 0.0000000000000000e+00 -3.7026717261459713e-01 -8.7191355151399724e-02 9.2482424734154478e-01 0 0 0
89 1 2.5000000000000000e+00 1.2000000000000000e+01 2.4000000000000000e+01 0.0000000000000000e+00 -5.7886257432716870e-01 -1.5692234237038305e-01 8.0018341554190908e-01 0 0 0
109 1 2.5000000000000000e+00 1.5000000000000000e+01 2.4000000000000000e+01 0.0000000000000000e+00 -8.0744368404029221e-01 -2.6598547494087144e-01 5.2657993146712301e-01 0 0 0
129 1 2.5000000000000000e+00 1.8000000000000000e+01 2.4000000000000000e+01 0.0000000000000000e+00 -9.1777534868081279e-01 -3.9048923819288128e-01 7.2156525757244433e-02 0 0 0
149 1 2.5000000000000000e+00 2.1000000000000000e+01 2.4000000000000000e+01 0.0000000000000000e+00 -7.8303583820847289e-01 -4.6907708232882789e-01 -4.0843795968914071e-01 0 0 0
169 1 2.5000000000000000e+00 2.4000000000000000e+01 2.4000000000000000e+01 0.0000000000000000e+00 -4.8741359543182999e-01 -4.8741359543182988e-01 -7.2446944309365668e-01 0 0 0
189 1 2.5000000000000000e+00 2.7000000000000000e+01 2.4000000000000000e+01 0.0000000000000000e+00 -1.6115060626850930e-01 -4.8338466373268979e-01 -8.6044741208706443e-01 0 0 0