LAMMPS data file via write_data, version 16 Mar 2018, timestep = 0

256 atoms
1 atom types

0.0000000000000000e+00 3.4675203027999999e+01 xlo xhi
0.0000000000000000e+00 3.4675203027999999e+01 ylo yhi
0.0000000000000000e+00 3.4675203027999999e+01 zlo zhi

Masses

1 1

Pair Coeffs # lj/cut

1 0.0001083 5.59

Atoms # atomic

1 1 0.0000000000000000e+00 0.0000000000000000e+00 0.0000000000000000e+00 0 0 0
2 1 4.3344003784999998e+00 4.3344003784999998e+00 0.0000000000000000e+00 0 0 0
3 1 4.3344003784999998e+00 0.0000000000000000e+00 4.3344003784999998e+00 0 0 0
4 1 0.0000000000000000e+00 4.3344003784999998e+00 4.3344003784999998e+00 0 0 0
5 1 8.6688007569999996e+00 0.0000000000000000e+00 0.0000000000000000e+00 0 0 0
6 1 1.3003201135499999e+01 4.3344003784999998e+00 0.0000000000000000e+00 0 0 0
7 1 1.3003201135499999e+01 0.0000000000000000e+00 4.3344003784999998e+00 0 0 0
8 1 8.6688007569999996e+00 4.3344003784999998e+00 4.3344003784999998e+00 0 0 0
9 1 1.7337601513999999e+01 0.0000000000000000e+00 0.0000000000000000e+00 0 0 0
10 1 2.1672001892499999e+01 4.3344003784999998e+00 0.0000000000000000e+00 0 0 0
11 1 2.1672001892499999e+01 0.0000000000000000e+00 4.3344003784999998e+00 0 0 0
12 1 1.7337601513999999e+01 4.3344003784999998e+00 4.3344003784999998e+00 0 0 0
13 1 2.6006402270999999e+01 0.0000000000000000e+00 0.0000000000000000e+00 0 0 0
14 1 3.0340802649499999e+01 4.3344003784999998e+00 0.0000000000000000e+00 0 0 0
15 1 3.0340802649499999e+01 0.0000000000000000e+00 4.3344003784999998e+00 0 0 0
16 1 2.6006402270999999e+01 4.3344003784999998e+00 4.3344003784999998e+00 0 0 0
17 1 0.0000000000000000e+00 8.6688007569999996e+00 0.0000000000000000e+00 0 0 0
18 1 4.3344003784999998e+00 1.3003201135499999e+01 0.0000000000000000e+00 0 0 0
19 1 4.3344003784999998e+00 8.6688007569999996e+00 4.3344003784999998e+00 0 0 0
20 1 0.0000000000000000e+00 1.3003201135499999e+01 4.3344003784999998e+00 0 0 0
21 1 8.6688007569999996e+00 8.6688007569999996e+00 0.0000000000000000e+00 0 0 0
22 1 1.3003201135499999e+01 1.3003201135499999e+01 0.0000000000000000e+00 0 0 0
23 1 1.3003201135499999e+01 8.6688007569999996e+00 4.3344003784999998e+00 0 0 0
24 1 8.6688007569999996e+00 1.3003201135499999e+01 4.3344003784999998e+00 0 0 0
25 1 1.7337601513999999e+01 8.6688007569999996e+00 0.0000000000000000e+00 0 0 0
26 1 2.1672001892499999e+01 1.3003201135499999e+01 0.0000000000000000e+00 0 0 0
27 1 2.1672001892499999e+01 8.6688007569999996e+00 4.3344003784999998e+00 0 0 0
28 1 1.7337601513999999e+01 1.3003201135499999e+01 4.3344003784999998e+00 0 0 0
29 1 2.6006402270999999e+01 8.6688007569999996e+00 0.0000000000000000e+00 0 0 0
30 1 3.0340802649499999e+01 1.3003201135499999e+01 0.0000000000000000e+00 0 0 0
31 1 3.0340802649499999e+01 8.6688007569999996e+00 4.3344003784999998e+00 0 0 0
32 1 2.6006402270999999e+01 1.3003201135499999e+01 4.3344003784999998e+00 0 0 0
33 1 0.0000000000000000e+00 1.7337601513999999e+01 0.0000000000000000e+00 0 0 0
34 1 4.3344003784999998e+00 2.1672001892499999e+01 0.0000000000000000e+00 0 0 0
35 1 4.3344003784999998e+00 1.7337601513999999e+01 4.3344003784999998e+00 0 0 0
36 1 0.0000000000000000e+00 2.1672001892499999e+01 4.3344003784999998e+00 0 0 0
37 1 8.6688007569999996e+00 1.7337601513999999e+01 0.0000000000000000e+00 0 0 0
38 1 1.3003201135499999e+01 2.1672001892499999e+01 0.0000000000000000e+00 0 0 0
39 1 1.3003201135499999e+01 1.7337601513999999e+01 4.3344003784999998e+00 0 0 0
40 1 8.6688007569999996e+00 2.1672001892499999e+01 4.3344003784999998e+00 0 0 0
41 1 1.7337601513999999e+01 1.7337601513999999e+01 0.0000000000000000e+00 0 0 0
42 1 2.1672001892499999e+01 2.1672001892499999e+01 0.0000000000000000e+00 0 0 0
43 1 2.1672001892499999e+01 1.7337601513999999e+01 4.3344003784999998e+00 0 0 0
44 1 1.7337601513999999e+01 2.1672001892499999e+01 4.3344003784999998e+00 0 0 0
45 1 2.6006402270999999e+01 1.7337601513999999e+01 0.0000000000000000e+00 0 0 0
46 1 3.0340802649499999e+01 2.1672001892499999e+01 0.0000000000000000e+00 0 0 0
47 1 3.0340802649499999e+01 1.7337601513999999e+01 4.3344003784999998e+00 0 0 0
48 1 2.6006402270999999e+01 2.1672001892499999e+01 4.3344003784999998e+00 0 0 0
49 1 0.0000000000000000e+00 2.6006402270999999e+01 0.0000000000000000e+00 0 0 0
50 1 4.3344003784999998e+00 3.0340802649499999e+01 0.0000000000000000e+00 0 0 0
51 1 4.3344003784999998e+00 2.6006402270999999e+01 4.3344003784999998e+00 0 0 0
52 1 0.0000000000000000e+00 3.0340802649499999e+01 4.3344003784999998e+00 0 0 0
53 1 8.6688007569999996e+00 2.6006402270999999e+01 0.0000000000000000e+00 0 0 0
54 1 1.3003201135499999e+01 3.0340802649499999e+01 0.0000000000000000e+00 0 0 0
55 1 1.3003201135499999e+01 2.6006402270999999e+01 4.3344003784999998e+00 0 0 0
56 1 8.6688007569999996e+00 3.0340802649499999e+01 4.3344003784999998e+00 0 0 0
57 1 1.7337601513999999e+01 2.6006402270999999e+01 0.0000000000000000e+00 0 0 0
58 1 2.1672001892499999e+01 3.0340802649499999e+01 0.0000000000000000e+00 0 0 0
59 1 2.1672001892499999e+01 2.6006402270999999e+01 4.3344003784999998e+00 0 0 0
60 1 1.7337601513999999e+01 3.0340802649499999e+01 4.3344003784999998e+00 0 0 0
61 1 2.6006402270999999e+01 2.6006402270999999e+01 0.0000000000000000e+00 0 0 0
62 1 3.0340802649499999e+01 3.0340802649499999e+01 0.0000000000000000e+00 0 0 0
63 1 3.0340802649499999e+01 2.6006402270999999e+01 4.3344003784999998e+00 0 0 0
64 1 2.6006402270999999e+01 3.0340802649499999e+01 4.3344003784999998e+00 0 0 0
65 1 0.0000000000000000e+00 0.0000000000000000e+00 8.6688007569999996e+00 0 0 0
66 1 4.3344003784999998e+00 4.3344003784999998e+00 8.6688007569999996e+00 0 0 0
67 1 4.3344003784999998e+00 0.0000000000000000e+00 1.3003201135499999e+01 0 0 0
68 1 0.0000000000000000e+00 4.3344003784999998e+00 1.3003201135499999e+01 0 0 0
69 1 8.6688007569999996e+00 0.0000000000000000e+00 8.6688007569999996e+00 0 0 0
70 1 1.3003201135499999e+01 4.3344003784999998e+00 8.6688007569999996e+00 0 0 0
71 1 1.3003201135499999e+01 0.0000000000000000e+00 1.3003201135499999e+01 0 0 0
72 1 8.6688007569999996e+00 4.3344003784999998e+00 1.3003201135499999e+01 0 0 0
73 1 1.7337601513999999e+01 0.0000000000000000e+00 8.6688007569999996e+00 0 0 0
74 1 2.1672001892499999e+01 4.3344003784999998e+00 8.6688007569999996e+00 0 0 0
75 1 2.1672001892499999e+01 0.0000000000000000e+00 1.3003201135499999e+01 0 0 0
76 1 1.7337601513999999e+01 4.3344003784999998e+00 1.3003201135499999e+01 0 0 0
77 1 2.6006402270999999e+01 0.0000000000000000e+00 8.6688007569999996e+00 0 0 0
78 1 3.0340802649499999e+01 4.3344003784999998e+00 8.6688007569999996e+00 0 0 0
79 1 3.0340802649499999e+01 0.0000000000000000e+00 1.3003201135499999e+01 0 0 0
80 1 2.6006402270999999e+01 4.3344003784999998e+00 1.3003201135499999e+01 0 0 0
81 1 0.0000000000000000e+00 8.6688007569999996e+00 8.6688007569999996e+00 0 0 0
82 1 4.3344003784999998e+00 1.3003201135499999e+01 8.6688007569999996e+00 0 0 0
83 1 4.3344003784999998e+00 8.6688007569999996e+00 1.3003201135499999e+01 0 0 0
84 1 0.0000000000000000e+00 1.3003201135499999e+01 1.3003201135499999e+01 0 0 0
85 1 8.6688007569999996e+00 8.6688007569999996e+00 8.6688007569999996e+00 0 0 0
86 1 1.3003201135499999e+01 1.3003201135499999e+01 8.6688007569999996e+00 0 0 0
87 1 1.3003201135499999e+01 8.6688007569999996e+00 1.3003201135499999e+01 0 0 0
88 1 8.6688007569999996e+00 1.3003201135499999e+01 1.3003201135499999e+01 0 0 0
89 1 1.7337601513999999e+01 8.6688007569999996e+00 8.6688007569999996e+00 0 0 0
90 1 2.1672001892499999e+01 1.3003201135499999e+01 8.6688007569999996e+00 0 0 0
91 1 2.1672001892499999e+01 8.6688007569999996e+00 1.3003201135499999e+01 0 0 0
92 1 1.7337601513999999e+01 1.3003201135499999e+01 1.3003201135499999e+01 0 0 0
93 1 2.6006402270999999e+01 8.6688007569999996e+00 8.6688007569999996e+00 0 0 0
94 1 3.0340802649499999e+01 1.3003201135499999e+01 8.6688007569999996e+00 0 0 0
95 1 3.0340802649499999e+01 8.6688007569999996e+00 1.3003201135499999e+01 0 0 0
96 1 2.6006402270999999e+01 1.3003201135499999e+01 1.3003201135499999e+01 0 0 0
97 1 0.0000000000000000e+00 1.7337601513999999e+01 8.6688007569999996e+00 0 0 0
98 1 4.3344003784999998e+00 2.1672001892499999e+01 8.6688007569999996e+00 0 0 0
99 1 4.3344003784999998e+00 1.7337601513999999e+01 1.3003201135499999e+01 0 0 0
100 1 0.0000000000000000e+00 2.1672001892499999e+01 1.3003201135499999e+01 0 0 0
101 1 8.6688007569999996e+00 1.7337601513999999e+01 8.6688007569999996e+00 0 0 0
102 1 1.3003201135499999e+01 2.1672001892499999e+01 8.6688007569999996e+00 0 0 0
103 1 1.3003201135499999e+01 1.7337601513999999e+01 1.3003201135499999e+01 0 0 0
104 1 8.6688007569999996e+00 2.1672001892499999e+01 1.3003201135499999e+01 0 0 0
105 1 1.7337601513999999e+01 1.7337601513999999e+01 8.6688007569999996e+00 0 0 0
106 1 2.1672001892499999e+01 2.1672001892499999e+01 8.6688007569999996e+00 0 0 0
107 1 2.1672001892499999e+01 1.7337601513999999e+01 1.3003201135499999e+01 0 0 0
108 1 1.7337601513999999e+01 2.1672001892499999e+01 1.3003201135499999e+01 0 0 0
109 1 2.6006402270999999e+01 1.7337601513999999e+01 8.6688007569999996e+00 0 0 0
110 1 3.0340802649499999e+01 2.1672001892499999e+01 8.6688007569999996e+00 0 0 0
111 1 3.0340802649499999e+01 1.7337601513999999e+01 1.3003201135499999e+01 0 0 0
112 1 2.6006402270999999e+01 2.1672001892499999e+01 1.3003201135499999e+01 0 0 0
113 1 0.0000000000000000e+00 2.6006402270999999e+01 8.6688007569999996e+00 0 0 0
114 1 4.3344003784999998e+00 3.0340802649499999e+01 8.6688007569999996e+00 0 0 0
115 1 4.3344003784999998e+00 2.6006402270999999e+01 1.3003201135499999e+01 0 0 0
116 1 0.0000000000000000e+00 3.0340802649499999e+01 1.3003201135499999e+01 0 0 0
117 1 8.6688007569999996e+00 2.6006402270999999e+01 8.6688007569999996e+00 0 0 0
118 1 1.3003201135499999e+01 3.0340802649499999e+01 8.6688007569999996e+00 0 0 0
119 1 1.3003201135499999e+01 2.6006402270999999e+01 1.3003201135499999e+01 0 0 0
120 1 8.6688007569999996e+00 3.0340802649499999e+01 1.3003201135499999e+01 0 0 0
121 1 1.7337601513999999e+01 2.6006402270999999e+01 8.6688007569999996e+00 0 0 0
122 1 2.1672001892499999e+01 3.0340802649499999e+01 8.6688007569999996e+00 0 0 0
123 1 2.1672001892499999e+01 2.6006402270999999e+01 1.3003201135499999e+01 0 0 0
124 1 1.7337601513999999e+01 3.0340802649499999e+01 1.3003201135499999e+01 0 0 0
125 1 2.6006402270999999e+01 2.6006402270999999e+01 8.6688007569999996e+00 0 0 0
126 1 3.0340802649499999e+01 3.0340802649499999e+01 8.6688007569999996e+00 0 0 0
127 1 3.0340802649499999e+01 2.6006402270999999e+01 1.3003201135499999e+01 0 0 0
128 1 2.6006402270999999e+01 3.0340802649499999e+01 1.3003201135499999e+01 0 0 0
129 1 0.0000000000000000e+00 0.0000000000000000e+00 1.7337601513999999e+01 0 0 0
130 1 4.3344003784999998e+00 4.3344003784999998e+00 1.7337601513999999e+01 0 0 0
131 1 4.3344003784999998e+00 0.0000000000000000e+00 2.1672001892499999e+01 0 0 0
132 1 0.0000000000000000e+00 4.3344003784999998e+00 2.1672001892499999e+01 0 0 0
133 1 8.6688007569999996e+00 0.0000000000000000e+00 1.7337601513999999e+01 0 0 0
134 1 1.3003201135499999e+01 4.3344003784999998e+00 1.7337601513999999e+01 0 0 0
135 1 1.3003201135499999e+01 0.0000000000000000e+00 2.1672001892499999e+01 0 0 0
136 1 8.6688007569999996e+00 4.3344003784999998e+00 2.1672001892499999e+01 0 0 0
137 1 1.7337601513999999e+01 0.0000000000000000e+00 1.7337601513999999e+01 0 0 0
138 1 2.1672001892499999e+01 4.3344003784999998e+00 1.7337601513999999e+01 0 0 0
139 1 2.1672001892499999e+01 0.0000000000000000e+00 2.1672001892499999e+01 0 0 0
140 1 1.7337601513999999e+01 4.3344003784999998e+00 2.1672001892499999e+01 0 0 0
141 1 2.6006402270999999e+01 0.0000000000000000e+00 1.7337601513999999e+01 0 0 0
142 1 3.0340802649499999e+01 4.3344003784999998e+00 1.7337601513999999e+01 0 0 0
143 1 3.0340802649499999e+01 0.0000000000000000e+00 2.1672001892499999e+01 0 0 0
144 1 2.6006402270999999e+01 4.3344003784999998e+00 2.1672001892499999e+01 0 0 0
145 1 0.0000000000000000e+00 8.6688007569999996e+00 1.7337601513999999e+01 0 0 0
146 1 4.3344003784999998e+00 1.3003201135499999e+01 1.7337601513999999e+01 0 0 0
147 1 4.3344003784999998e+00 8.6688007569999996e+00 2.1672001892499999e+01 0 0 0
148 1 0.0000000000000000e+00 1.3003201135499999e+01 2.1672001892499999e+01 0 0 0
149 1 8.6688007569999996e+00 8.6688007569999996e+00 1.7337601513999999e+01 0 0 0
150 1 1.3003201135499999e+01 1.3003201135499999e+01 1.7337601513999999e+01 0 0 0
151 1 1.3003201135499999e+01 8.6688007569999996e+00 2.1672001892499999e+01 0 0 0
152 1 8.6688007569999996e+00 1.3003201135499999e+01 2.1672001892499999e+01 0 0 0
153 1 1.7337601513999999e+01 8.6688007569999996e+00 1.7337601513999999e+01 0 0 0
154 1 2.1672001892499999e+01 1.3003201135499999e+01 1.7337601513999999e+01 0 0 0
155 1 2.1672001892499999e+01 8.6688007569999996e+00 2.1672001892499999e+01 0 0 0
156 1 1.7337601513999999e+01 1.3003201135499999e+01 2.1672001892499999e+01 0 0 0
157 1 2.6006402270999999e+01 8.6688007569999996e+00 1.7337601513999999e+01 0 0 0
158 1 3.0340802649499999e+01 1.3003201135499999e+01 1.7337601513999999e+01 0 0 0
159 1 3.0340802649499999e+01 8.6688007569999996e+00 2.1672001892499999e+01 0 0 0
160 1 2.6006402270999999e+01 1.3003201135499999e+01 2.1672001892499999e+01 0 0 0
161 1 0.0000000000000000e+00 1.7337601513999999e+01 1.7337601513999999e+01 0 0 0
162 1 4.3344003784999998e+00 2.1672001892499999e+01 1.7337601513999999e+01 0 0 0
163 1 4.3344003784999998e+00 1.7337601513999999e+01 2.1672001892499999e+01 0 0 0
164 1 0.0000000000000000e+00 2.1672001892499999e+01 2.1672001892499999e+01 0 0 0
165 1 8.6688007569999996e+00 1.7337601513999999e+01 1.7337601513999999e+01 0 0 0
166 1 1.3003201135499999e+01 2.1672001892499999e+01 1.7337601513999999e+01 0 0 0
167 1 1.3003201135499999e+01 1.7337601513999999e+01 2.1672001892499999e+01 0 0 0
168 1 8.6688007569999996e+00 2.1672001892499999e+01 2.1672001892499999e+01 0 0 0
169 1 1.7337601513999999e+01 1.7337601513999999e+01 1.7337601513999999e+01 0 0 0
170 1 2.1672001892499999e+01 2.1672001892499999e+01 1.7337601513999999e+01 0 0 0
171 1 2.1672001892499999e+01 1.7337601513999999e+01 2.1672001892499999e+01 0 0 0
172 1 1.7337601513999999e+01 2.1672001892499999e+01 2.1672001892499999e+01 0 0 0
173 1 2.6006402270999999e+01 1.7337601513999999e+01 1.7337601513999999e+01 0 0 0
174 1 3.0340802649499999e+01 2.1672001892499999e+01 1.7337601513999999e+01 0 0 0
175 1 3.0340802649499999e+01 1.7337601513999999e+01 2.1672001892499999e+01 0 0 0
176 1 2.6006402270999999e+01 2.1672001892499999e+01 2.1672001892499999e+01 0 0 0
177 1 0.0000000000000000e+00 2.6006402270999999e+01 1.7337601513999999e+01 0 0 0
178 1 4.3344003784999998e+00 3.0340802649499999e+01 1.7337601513999999e+01 0 0 0
179 1 4.3344003784999998e+00 2.6006402270999999e+01 2.1672001892499999e+01 0 0 0
180 1 0.0000000000000000e+00 3.0340802649499999e+01 2.1672001892499999e+01 0 0 0
181 1 8.6688007569999996e+00 2.6006402270999999e+01 1.7337601513999999e+01 0 0 0
182 1 1.3003201135499999e+01 3.0340802649499999e+01 1.7337601513999999e+01 0 0 0
183 1 1.3003201135499999e+01 2.6006402270999999e+01 2.1672001892499999e+01 0 0 0
184 1 8.6688007569999996e+00 3.0340802649499999e+01 2.1672001892499999e+01 0 0 0
185 1 1.7337601513999999e+01 2.6006402270999999e+01 1.7337601513999999e+01 0 0 0
186 1 2.1672001892499999e+01 3.0340802649499999e+01 1.7337601513999999e+01 0 0 0
187 1 2.1672001892499999e+01 2.6006402270999999e+01 2.1672001892499999e+01 0 0 0
188 1 1.7337601513999999e+01 3.0340802649499999e+01 2.1672001892499999e+01 0 0 0
189 1 2.6006402270999999e+01 2.6006402270999999e+01 1.7337601513999999e+01 0 0 0
190 1 3.0340802649499999e+01 3.0340802649499999e+01 1.7337601513999999e+01 0 0 0
191 1 3.0340802649499999e+01 2.6006402270999999e+01 2.1672001892499999e+01 0 0 0
192 1 2.6006402270999999e+01 3.0340802649499999e+01 2.1672001892499999e+01 0 0 0
193 1 0.0000000000000000e+00 0.0000000000000000e+00 2.6006402270999999e+01 0 0 0
194 1 4.3344003784999998e+00 4.3344003784999998e+00 2.6006402270999999e+01 0 0 0
195 1 4.3344003784999998e+00 0.0000000000000000e+00 3.0340802649499999e+01 0 0 0
196 1 0.0000000000000000e+00 4.3344003784999998e+00 3.0340802649499999e+01 0 0 0
197 1 8.6688007569999996e+00 0.0000000000000000e+00 2.6006402270999999e+01 0 0 0
198 1 1.3003201135499999e+01 4.3344003784999998e+00 2.6006402270999999e+01 0 0 0
199 1 1.3003201135499999e+01 0.0000000000000000e+00 3.0340802649499999e+01 0 0 0
200 1 8.6688007569999996e+00 4.3344003784999998e+00 3.0340802649499999e+01 0 0 0
201 1 1.7337601513999999e+01 0.0000000000000000e+00 2.6006402270999999e+01 0 0 0
202 1 2.1672001892499999e+01 4.3344003784999998e+00 2.6006402270999999e+01 0 0 0
203 1 2.1672001892499999e+01 0.0000000000000000e+00 3.0340802649499999e+01 0 0 0
204 1 1.7337601513999999e+01 4.3344003784999998e+00 3.0340802649499999e+01 0 0 0
205 1 2.6006402270999999e+01 0.0000000000000000e+00 2.6006402270999999e+01 0 0 0
206 1 3.0340802649499999e+01 4.3344003784999998e+00 2.6006402270999999e+01 0 0 0
207 1 3.0340802649499999e+01 0.0000000000000000e+00 3.0340802649499999e+01 0 0 0
208 1 2.6006402270999999e+01 4.3344003784999998e+00 3.0340802649499999e+01 0 0 0
209 1 0.0000000000000000e+00 8.6688007569999996e+00 2.6006402270999999e+01 0 0 0
210 1 4.3344003784999998e+00 1.3003201135499999e+01 2.6006402270999999e+01 0 0 0
211 1 4.3344003784999998e+00 8.6688007569999996e+00 3.0340802649499999e+01 0 0 0
212 1 0.0000000000000000e+00 1.3003201135499999e+01 3.0340802649499999e+01 0 0 0
213 1 8.6688007569999996e+00 8.6688007569999996e+00 2.6006402270999999e+01 0 0 0
214 1 1.3003201135499999e+01 1.3003201135499999e+01 2.6006402270999999e+01 0 0 0
215 1 1.3003201135499999e+01 8.6688007569999996e+00 3.0340802649499999e+01 0 0 0
216 1 8.6688007569999996e+00 1.3003201135499999e+01 3.0340802649499999e+01 0 0 0
217 1 1.7337601513999999e+01 8.6688007569999996e+00 2.6006402270999999e+01 0 0 0
218 1 2.1672001892499999e+01 1.3003201135499999e+01 2.6006402270999999e+01 0 0 0
219 1 2.1672001892499999e+01 8.6688007569999996e+00 3.0340802649499999e+01 0 0 0
220 1 1.7337601513999999e+01 1.3003201135499999e+01 3.0340802649499999e+01 0 0 0
221 1 2.6006402270999999e+01 8.6688007569999996e+00 2.6006402270999999e+01 0 0 0
222 1 3.0340802649499999e+01 1.3003201135499999e+01 2.6006402270999999e+01 0 0 0
223 1 3.0340802649499999e+01 8.6688007569999996e+00 3.0340802649499999e+01 0 0 0
224 1 2.6006402270999999e+01 1.3003201135499999e+01 3.0340802649499999e+01 0 0 0
225 1 0.0000000000000000e+00 1.7337601513999999e+01 2.6006402270999999e+01 0 0 0
226 1 4.3344003784999998e+00 2.1672001892499999e+01 2.6006402270999999e+01 0 0 0
227 1 4.3344003784999998e+00 1.7337601513999999e+01 3.0340802649499999e+01 0 0 0
228 1 0.0000000000000000e+00 2.1672001892499999e+01 3.0340802649499999e+01 0 0 0
229 1 8.6688007569999996e+00 1.7337601513999999e+01 2.6006402270999999e+01 0 0 0
230 1 1.3003201135499999e+01 2.1672001892499999e+01 2.6006402270999999e+01 0 0 0
231 1 1.3003201135499999e+01 1.7337601513999999e+01 3.0340802649499999e+01 0 0 0
232 1 8.6688007569999996e+00 2.1672001892499999e+01 3.0340802649499999e+01 0 0 0
233 1 1.7337601513999999e+01 1.7337601513999999e+01 2.6006402270999999e+01 0 0 0
234 1 2.1672001892499999e+01 2.1672001892499999e+01 2.6006402270999999e+01 0 0 0
235 1 2.1672001892499999e+01 1.7337601513999999e+01 3.0340802649499999e+01 0 0 0
236 1 1.7337601513999999e+01 2.1672001892499999e+01 3.0340802649499999e+01 0 0 0
237 1 2.6006402270999999e+01 1.7337601513999999e+01 2.6006402270999999e+01 0 0 0
238 1 3.0340802649499999e+01 2.1672001892499999e+01 2.6006402270999999e+01 0 0 0
239 1 3.0340802649499999e+01 1.7337601513999999e+01 3.0340802649499999e+01 0 0 0
240 1 2.6006402270999999e+01 2.1672001892499999e+01 3.0340802649499999e+01 0 0 0
241 1 0.0000000000000000e+00 2.6006402270999999e+01 2.6006402270999999e+01 0 0 0
242 1 4.3344003784999998e+00 3.0340802649499999e+01 2.6006402270999999e+01 0 0 0
243 1 4.3344003784999998e+00 2.6006402270999999e+01 3.0340802649499999e+01 0 0 0
244 1 0.0000000000000000e+00 3.0340802649499999e+01 3.0340802649499999e+01 0 0 0
245 1 8.6688007569999996e+00 2.6006402270999999e+01 2.6006402270999999e+01 0 0 0
246 1 1.3003201135499999e+01 3.0340802649499999e+01 2.6006402270999999e+01 0 0 0
247 1 1.3003201135499999e+01 2.6006402270999999e+01 3.0340802649499999e+01 0 0 0
248 1 8.6688007569999996e+00 3.0340802649499999e+01 3.0340802649499999e+01 0 0 0
249 1 1.7337601513999999e+01 2.6006402270999999e+01 2.6006402270999999e+01 0 0 0
250 1 2.1672001892499999e+01 3.0340802649499999e+01 2.6006402270999999e+01 0 0 0
251 1 2.1672001892499999e+01 2.6006402270999999e+01 3.0340802649499999e+01 0 0 0
252 1 1.7337601513999999e+01 3.0340802649499999e+01 3.0340802649499999e+01 0 0 0
253 1 2.6006402270999999e+01 2.6006402270999999e+01 2.6006402270999999e+01 0 0 0
254 1 3.0340802649499999e+01 3.0340802649499999e+01 2.6006402270999999e+01 0 0 0
255 1 3.0340802649499999e+01 2.6006402270999999e+01 3.0340802649499999e+01 0 0 0
256 1 2.6006402270999999e+01 3.0340802649499999e+01 3.0340802649499999e+01 0 0 0
