LAMMPS (5 Oct 2007)
# 3d metal shear simulation

units		metal
boundary	s s p

atom_style	atomic
lattice		fcc 3.52
Lattice spacing in x,y,z = 3.52 3.52 3.52
region		box block 0 16.0 0 10.0 0 2.828427
create_box	3 box
Created orthogonal box = (0 0 0) to (56.32 35.2 9.95606)
  2 by 2 by 1 processor grid

lattice		fcc 3.52 orient	x 1 0 0 orient y 0 1 1 orient z 0 -1 1 		origin 0.5 0 0 
Lattice spacing in x,y,z = 3.52 4.97803 4.97803
create_atoms	1 box
Created 1912 atoms

pair_style	eam
pair_coeff	* * Ni_u3.eam

neighbor	0.3 bin
neigh_modify	delay 5

region		lower block INF INF INF 0.9 INF INF
region		upper block INF INF 6.1 INF INF INF
group		lower region lower
264 atoms in group lower
group		upper region upper
264 atoms in group upper
group		boundary union lower upper
528 atoms in group boundary
group		mobile subtract all boundary
1384 atoms in group mobile

set		group lower type 2
  264 settings made for type
set		group upper type 3
  264 settings made for type

# void

#region		void cylinder z 8 5 2.5 INF INF
#delete_atoms	region void

# temp controllers

compute		new3d mobile temp
compute		new2d mobile temp/partial 0 1 1

# equilibrate

velocity	mobile create 300.0 5812775 temp new3d
fix		1 all nve
fix		2 boundary setforce 0.0 0.0 0.0

fix		3 mobile temp/rescale 10 300.0 300.0 10.0 1.0
fix_modify	3 temp new3d

thermo		25
thermo_modify	temp new3d

timestep	0.001
run		100
Memory usage per processor = 1.58048 Mbytes
Step Temp E_pair E_mol TotEng Press Volume 
       0          300   -8317.4367            0   -8263.8067   -7103.5557    19539.346 
      25    220.91849   -8272.7063            0   -8233.2134    5171.0015    19539.346 
      50          300   -8239.0761            0    -8185.446    13404.703     19669.87 
      75    295.11708   -8231.4059            0   -8178.6488    13741.993    19743.549 
     100          300   -8250.5856            0   -8196.9555     6735.754    19818.526 
Loop time of 0.189535 on 4 procs for 100 steps with 1912 atoms

Pair  time (%) = 0.140565 (74.163)
Neigh time (%) = 0.00305724 (1.61302)
Comm  time (%) = 0.0334975 (17.6735)
Outpt time (%) = 0.00156158 (0.823902)
Other time (%) = 0.0108537 (5.7265)

Nlocal:    478 ave 490 max 468 min
Histogram: 2 0 0 0 0 0 0 1 0 1
Nghost:    1033.75 ave 1043 max 1021 min
Histogram: 1 0 0 0 0 1 0 1 0 1
Neighs:    11508.8 ave 12218 max 10874 min
Histogram: 1 0 0 0 2 0 0 0 0 1

Total # of neighbors = 46035
Ave neighs/atom = 24.0769
Neighbor list builds = 4
Dangerous builds = 0

# shear

velocity	upper set 1.0 0 0
velocity	mobile ramp vx 0.0 1.0 y 1.4 8.6 sum yes

unfix		3
fix		3 mobile temp/rescale 10 300.0 300.0 10.0 1.0
fix_modify	3 temp new2d

dump		1 all atom 100 dump.shear
thermo		100
thermo_modify	temp new2d

reset_timestep	0
run		3000
Memory usage per processor = 1.59921 Mbytes
Step Temp E_pair E_mol TotEng Press Volume 
       0    292.46783   -8250.5856            0   -8215.7425    5714.7972    19847.781 
     100    297.48776   -8255.7637            0   -8220.3225    1519.5936    19869.252 
     200          300   -8259.5191            0   -8223.7786    407.14026    19843.233 
     300    306.85093   -8252.9546            0   -8216.3979   -1452.8459    19987.791 
     400    303.87074    -8246.296            0   -8210.0945    1276.3308    20128.061 
     500    299.00581   -8241.6473            0   -8206.0253    943.44685    20226.281 
     600          300   -8228.0773            0   -8192.3369    3740.0009     20307.41 
     700    302.55478   -8222.4773            0   -8186.4325    6034.1752    20412.441 
     800    291.55934   -8208.4477            0   -8173.7129    9870.4071     20534.96 
     900    300.04405   -8197.8106            0   -8162.0649    11858.874    20635.988 
    1000     303.4363   -8185.1721            0   -8149.0223    15860.089    20755.666 
    1100          300   -8172.7372            0   -8136.9967    19064.863    20868.017 
    1200          300   -8163.6948            0   -8127.9543     20503.74    20997.464 
    1300          300    -8157.774            0   -8122.0336     19017.48    21108.594 
    1400    301.23169   -8148.1245            0   -8112.2373    19838.433    21245.369 
    1500          300   -8137.0376            0   -8101.2972    19618.234    21361.383 
    1600          300   -8129.5673            0   -8093.8269    17832.316    21493.274 
    1700          300   -8131.9086            0   -8096.1682     15651.56    21609.288 
    1800          300   -8154.2629            0   -8118.5225    9602.8973    21725.302 
    1900          300   -8166.6747            0   -8130.9342    7079.4166    21855.971 
    2000    297.56913   -8164.1963            0   -8128.7455    6008.7168    21970.765 
    2100    307.18117   -8162.4989            0    -8125.903    5339.1594    22100.212 
    2200    307.91443   -8165.8526            0   -8129.1693     4903.917    22218.669 
    2300    307.29809   -8166.6561            0   -8130.0463    4057.1866    22343.232 
    2400    306.14212    -8165.725            0   -8129.2529    4381.5236     22462.91 
    2500    306.62123   -8166.8443            0   -8130.3151    2924.8251    22583.809 
    2600          300   -8166.6003            0   -8130.8598    2179.9998    22701.045 
    2700    309.89171   -8168.2224            0   -8131.3035    3044.4626    22836.599 
    2800    305.74412   -8166.2652            0   -8129.8404    1099.7498    22952.613 
    2900     301.2671   -8170.7739            0   -8134.8825   -2699.4417    23073.512 
    3000          300   -8171.8299            0   -8136.0895   -3656.4591    23189.527 
Loop time of 5.98471 on 4 procs for 3000 steps with 1912 atoms

Pair  time (%) = 4.36826 (72.9904)
Neigh time (%) = 0.166 (2.77374)
Comm  time (%) = 1.06441 (17.7855)
Outpt time (%) = 0.103711 (1.73293)
Other time (%) = 0.282329 (4.7175)

Nlocal:    478 ave 508 max 449 min
Histogram: 2 0 0 0 0 0 0 0 0 2
Nghost:    1006.75 ave 1064 max 959 min
Histogram: 1 1 0 0 0 0 0 1 0 1
Neighs:    11284 ave 12171 max 10415 min
Histogram: 1 0 0 1 0 0 1 0 0 1

Total # of neighbors = 45136
Ave neighs/atom = 23.6067
Neighbor list builds = 216
Dangerous builds = 0
