LAMMPS Description

     780  atoms
     520  bonds
     260  angles
     0  dihedrals
     0  impropers

     2  atom types
     1  bond types
     1  angle types

  0.0   16.000 xlo xhi
  0.0   24.000 ylo yhi
  0.0   24.000 zlo zhi

Masses

    1 15.9994
    2 1.008

Atoms
# (Note: x,y,z coordinates may overlap and can be modified later.)
1 1 1 -0.8476 0.0 0.0 0.0
2 1 2 0.4238 0.8164904 0.0 0.577359
3 1 2 0.4238 -0.8164904 0.0 0.577359
4 2 1 -0.8476 0.0 0.0 0.0
5 2 2 0.4238 0.8164904 0.0 0.577359
6 2 2 0.4238 -0.8164904 0.0 0.577359
7 3 1 -0.8476 0.0 0.0 0.0
8 3 2 0.4238 0.8164904 0.0 0.577359
9 3 2 0.4238 -0.8164904 0.0 0.577359
10 4 1 -0.8476 0.0 0.0 0.0
11 4 2 0.4238 0.8164904 0.0 0.577359
12 4 2 0.4238 -0.8164904 0.0 0.577359
13 5 1 -0.8476 0.0 0.0 0.0
14 5 2 0.4238 0.8164904 0.0 0.577359
15 5 2 0.4238 -0.8164904 0.0 0.577359
16 6 1 -0.8476 0.0 0.0 0.0
17 6 2 0.4238 0.8164904 0.0 0.577359
18 6 2 0.4238 -0.8164904 0.0 0.577359
19 7 1 -0.8476 0.0 0.0 0.0
20 7 2 0.4238 0.8164904 0.0 0.577359
21 7 2 0.4238 -0.8164904 0.0 0.577359
22 8 1 -0.8476 0.0 0.0 0.0
23 8 2 0.4238 0.8164904 0.0 0.577359
24 8 2 0.4238 -0.8164904 0.0 0.577359
25 9 1 -0.8476 0.0 0.0 0.0
26 9 2 0.4238 0.8164904 0.0 0.577359
27 9 2 0.4238 -0.8164904 0.0 0.577359
28 10 1 -0.8476 0.0 0.0 0.0
29 10 2 0.4238 0.8164904 0.0 0.577359
30 10 2 0.4238 -0.8164904 0.0 0.577359
31 11 1 -0.8476 0.0 0.0 0.0
32 11 2 0.4238 0.8164904 0.0 0.577359
33 11 2 0.4238 -0.8164904 0.0 0.577359
34 12 1 -0.8476 0.0 0.0 0.0
35 12 2 0.4238 0.8164904 0.0 0.577359
36 12 2 0.4238 -0.8164904 0.0 0.577359
37 13 1 -0.8476 0.0 0.0 0.0
38 13 2 0.4238 0.8164904 0.0 0.577359
39 13 2 0.4238 -0.8164904 0.0 0.577359
40 14 1 -0.8476 0.0 0.0 0.0
41 14 2 0.4238 0.8164904 0.0 0.577359
42 14 2 0.4238 -0.8164904 0.0 0.577359
43 15 1 -0.8476 0.0 0.0 0.0
44 15 2 0.4238 0.8164904 0.0 0.577359
45 15 2 0.4238 -0.8164904 0.0 0.577359
46 16 1 -0.8476 0.0 0.0 0.0
47 16 2 0.4238 0.8164904 0.0 0.577359
48 16 2 0.4238 -0.8164904 0.0 0.577359
49 17 1 -0.8476 0.0 0.0 0.0
50 17 2 0.4238 0.8164904 0.0 0.577359
51 17 2 0.4238 -0.8164904 0.0 0.577359
52 18 1 -0.8476 0.0 0.0 0.0
53 18 2 0.4238 0.8164904 0.0 0.577359
54 18 2 0.4238 -0.8164904 0.0 0.577359
55 19 1 -0.8476 0.0 0.0 0.0
56 19 2 0.4238 0.8164904 0.0 0.577359
57 19 2 0.4238 -0.8164904 0.0 0.577359
58 20 1 -0.8476 0.0 0.0 0.0
59 20 2 0.4238 0.8164904 0.0 0.577359
60 20 2 0.4238 -0.8164904 0.0 0.577359
61 21 1 -0.8476 0.0 0.0 0.0
62 21 2 0.4238 0.8164904 0.0 0.577359
63 21 2 0.4238 -0.8164904 0.0 0.577359
64 22 1 -0.8476 0.0 0.0 0.0
65 22 2 0.4238 0.8164904 0.0 0.577359
66 22 2 0.4238 -0.8164904 0.0 0.577359
67 23 1 -0.8476 0.0 0.0 0.0
68 23 2 0.4238 0.8164904 0.0 0.577359
69 23 2 0.4238 -0.8164904 0.0 0.577359
70 24 1 -0.8476 0.0 0.0 0.0
71 24 2 0.4238 0.8164904 0.0 0.577359
72 24 2 0.4238 -0.8164904 0.0 0.577359
73 25 1 -0.8476 0.0 0.0 0.0
74 25 2 0.4238 0.8164904 0.0 0.577359
75 25 2 0.4238 -0.8164904 0.0 0.577359
76 26 1 -0.8476 0.0 0.0 0.0
77 26 2 0.4238 0.8164904 0.0 0.577359
78 26 2 0.4238 -0.8164904 0.0 0.577359
79 27 1 -0.8476 0.0 0.0 0.0
80 27 2 0.4238 0.8164904 0.0 0.577359
81 27 2 0.4238 -0.8164904 0.0 0.577359
82 28 1 -0.8476 0.0 0.0 0.0
83 28 2 0.4238 0.8164904 0.0 0.577359
84 28 2 0.4238 -0.8164904 0.0 0.577359
85 29 1 -0.8476 0.0 0.0 0.0
86 29 2 0.4238 0.8164904 0.0 0.577359
87 29 2 0.4238 -0.8164904 0.0 0.577359
88 30 1 -0.8476 0.0 0.0 0.0
89 30 2 0.4238 0.8164904 0.0 0.577359
90 30 2 0.4238 -0.8164904 0.0 0.577359
91 31 1 -0.8476 0.0 0.0 0.0
92 31 2 0.4238 0.8164904 0.0 0.577359
93 31 2 0.4238 -0.8164904 0.0 0.577359
94 32 1 -0.8476 0.0 0.0 0.0
95 32 2 0.4238 0.8164904 0.0 0.577359
96 32 2 0.4238 -0.8164904 0.0 0.577359
97 33 1 -0.8476 0.0 0.0 0.0
98 33 2 0.4238 0.8164904 0.0 0.577359
99 33 2 0.4238 -0.8164904 0.0 0.577359
100 34 1 -0.8476 0.0 0.0 0.0
101 34 2 0.4238 0.8164904 0.0 0.577359
102 34 2 0.4238 -0.8164904 0.0 0.577359
103 35 1 -0.8476 0.0 0.0 0.0
104 35 2 0.4238 0.8164904 0.0 0.577359
105 35 2 0.4238 -0.8164904 0.0 0.577359
106 36 1 -0.8476 0.0 0.0 0.0
107 36 2 0.4238 0.8164904 0.0 0.577359
108 36 2 0.4238 -0.8164904 0.0 0.577359
109 37 1 -0.8476 0.0 0.0 0.0
110 37 2 0.4238 0.8164904 0.0 0.577359
111 37 2 0.4238 -0.8164904 0.0 0.577359
112 38 1 -0.8476 0.0 0.0 0.0
113 38 2 0.4238 0.8164904 0.0 0.577359
114 38 2 0.4238 -0.8164904 0.0 0.577359
115 39 1 -0.8476 0.0 0.0 0.0
116 39 2 0.4238 0.8164904 0.0 0.577359
117 39 2 0.4238 -0.8164904 0.0 0.577359
118 40 1 -0.8476 0.0 0.0 0.0
119 40 2 0.4238 0.8164904 0.0 0.577359
120 40 2 0.4238 -0.8164904 0.0 0.577359
121 41 1 -0.8476 0.0 0.0 0.0
122 41 2 0.4238 0.8164904 0.0 0.577359
123 41 2 0.4238 -0.8164904 0.0 0.577359
124 42 1 -0.8476 0.0 0.0 0.0
125 42 2 0.4238 0.8164904 0.0 0.577359
126 42 2 0.4238 -0.8164904 0.0 0.577359
127 43 1 -0.8476 0.0 0.0 0.0
128 43 2 0.4238 0.8164904 0.0 0.577359
129 43 2 0.4238 -0.8164904 0.0 0.577359
130 44 1 -0.8476 0.0 0.0 0.0
131 44 2 0.4238 0.8164904 0.0 0.577359
132 44 2 0.4238 -0.8164904 0.0 0.577359
133 45 1 -0.8476 0.0 0.0 0.0
134 45 2 0.4238 0.8164904 0.0 0.577359
135 45 2 0.4238 -0.8164904 0.0 0.577359
136 46 1 -0.8476 0.0 0.0 0.0
137 46 2 0.4238 0.8164904 0.0 0.577359
138 46 2 0.4238 -0.8164904 0.0 0.577359
139 47 1 -0.8476 0.0 0.0 0.0
140 47 2 0.4238 0.8164904 0.0 0.577359
141 47 2 0.4238 -0.8164904 0.0 0.577359
142 48 1 -0.8476 0.0 0.0 0.0
143 48 2 0.4238 0.8164904 0.0 0.577359
144 48 2 0.4238 -0.8164904 0.0 0.577359
145 49 1 -0.8476 0.0 0.0 0.0
146 49 2 0.4238 0.8164904 0.0 0.577359
147 49 2 0.4238 -0.8164904 0.0 0.577359
148 50 1 -0.8476 0.0 0.0 0.0
149 50 2 0.4238 0.8164904 0.0 0.577359
150 50 2 0.4238 -0.8164904 0.0 0.577359
151 51 1 -0.8476 0.0 0.0 0.0
152 51 2 0.4238 0.8164904 0.0 0.577359
153 51 2 0.4238 -0.8164904 0.0 0.577359
154 52 1 -0.8476 0.0 0.0 0.0
155 52 2 0.4238 0.8164904 0.0 0.577359
156 52 2 0.4238 -0.8164904 0.0 0.577359
157 53 1 -0.8476 0.0 0.0 0.0
158 53 2 0.4238 0.8164904 0.0 0.577359
159 53 2 0.4238 -0.8164904 0.0 0.577359
160 54 1 -0.8476 0.0 0.0 0.0
161 54 2 0.4238 0.8164904 0.0 0.577359
162 54 2 0.4238 -0.8164904 0.0 0.577359
163 55 1 -0.8476 0.0 0.0 0.0
164 55 2 0.4238 0.8164904 0.0 0.577359
165 55 2 0.4238 -0.8164904 0.0 0.577359
166 56 1 -0.8476 0.0 0.0 0.0
167 56 2 0.4238 0.8164904 0.0 0.577359
168 56 2 0.4238 -0.8164904 0.0 0.577359
169 57 1 -0.8476 0.0 0.0 0.0
170 57 2 0.4238 0.8164904 0.0 0.577359
171 57 2 0.4238 -0.8164904 0.0 0.577359
172 58 1 -0.8476 0.0 0.0 0.0
173 58 2 0.4238 0.8164904 0.0 0.577359
174 58 2 0.4238 -0.8164904 0.0 0.577359
175 59 1 -0.8476 0.0 0.0 0.0
176 59 2 0.4238 0.8164904 0.0 0.577359
177 59 2 0.4238 -0.8164904 0.0 0.577359
178 60 1 -0.8476 0.0 0.0 0.0
179 60 2 0.4238 0.8164904 0.0 0.577359
180 60 2 0.4238 -0.8164904 0.0 0.577359
181 61 1 -0.8476 0.0 0.0 0.0
182 61 2 0.4238 0.8164904 0.0 0.577359
183 61 2 0.4238 -0.8164904 0.0 0.577359
184 62 1 -0.8476 0.0 0.0 0.0
185 62 2 0.4238 0.8164904 0.0 0.577359
186 62 2 0.4238 -0.8164904 0.0 0.577359
187 63 1 -0.8476 0.0 0.0 0.0
188 63 2 0.4238 0.8164904 0.0 0.577359
189 63 2 0.4238 -0.8164904 0.0 0.577359
190 64 1 -0.8476 0.0 0.0 0.0
191 64 2 0.4238 0.8164904 0.0 0.577359
192 64 2 0.4238 -0.8164904 0.0 0.577359
193 65 1 -0.8476 0.0 0.0 0.0
194 65 2 0.4238 0.8164904 0.0 0.577359
195 65 2 0.4238 -0.8164904 0.0 0.577359
196 66 1 -0.8476 0.0 0.0 0.0
197 66 2 0.4238 0.8164904 0.0 0.577359
198 66 2 0.4238 -0.8164904 0.0 0.577359
199 67 1 -0.8476 0.0 0.0 0.0
200 67 2 0.4238 0.8164904 0.0 0.577359
201 67 2 0.4238 -0.8164904 0.0 0.577359
202 68 1 -0.8476 0.0 0.0 0.0
203 68 2 0.4238 0.8164904 0.0 0.577359
204 68 2 0.4238 -0.8164904 0.0 0.577359
205 69 1 -0.8476 0.0 0.0 0.0
206 69 2 0.4238 0.8164904 0.0 0.577359
207 69 2 0.4238 -0.8164904 0.0 0.577359
208 70 1 -0.8476 0.0 0.0 0.0
209 70 2 0.4238 0.8164904 0.0 0.577359
210 70 2 0.4238 -0.8164904 0.0 0.577359
211 71 1 -0.8476 0.0 0.0 0.0
212 71 2 0.4238 0.8164904 0.0 0.577359
213 71 2 0.4238 -0.8164904 0.0 0.577359
214 72 1 -0.8476 0.0 0.0 0.0
215 72 2 0.4238 0.8164904 0.0 0.577359
216 72 2 0.4238 -0.8164904 0.0 0.577359
217 73 1 -0.8476 0.0 0.0 0.0
218 73 2 0.4238 0.8164904 0.0 0.577359
219 73 2 0.4238 -0.8164904 0.0 0.577359
220 74 1 -0.8476 0.0 0.0 0.0
221 74 2 0.4238 0.8164904 0.0 0.577359
222 74 2 0.4238 -0.8164904 0.0 0.577359
223 75 1 -0.8476 0.0 0.0 0.0
224 75 2 0.4238 0.8164904 0.0 0.577359
225 75 2 0.4238 -0.8164904 0.0 0.577359
226 76 1 -0.8476 0.0 0.0 0.0
227 76 2 0.4238 0.8164904 0.0 0.577359
228 76 2 0.4238 -0.8164904 0.0 0.577359
229 77 1 -0.8476 0.0 0.0 0.0
230 77 2 0.4238 0.8164904 0.0 0.577359
231 77 2 0.4238 -0.8164904 0.0 0.577359
232 78 1 -0.8476 0.0 0.0 0.0
233 78 2 0.4238 0.8164904 0.0 0.577359
234 78 2 0.4238 -0.8164904 0.0 0.577359
235 79 1 -0.8476 0.0 0.0 0.0
236 79 2 0.4238 0.8164904 0.0 0.577359
237 79 2 0.4238 -0.8164904 0.0 0.577359
238 80 1 -0.8476 0.0 0.0 0.0
239 80 2 0.4238 0.8164904 0.0 0.577359
240 80 2 0.4238 -0.8164904 0.0 0.577359
241 81 1 -0.8476 0.0 0.0 0.0
242 81 2 0.4238 0.8164904 0.0 0.577359
243 81 2 0.4238 -0.8164904 0.0 0.577359
244 82 1 -0.8476 0.0 0.0 0.0
245 82 2 0.4238 0.8164904 0.0 0.577359
246 82 2 0.4238 -0.8164904 0.0 0.577359
247 83 1 -0.8476 0.0 0.0 0.0
248 83 2 0.4238 0.8164904 0.0 0.577359
249 83 2 0.4238 -0.8164904 0.0 0.577359
250 84 1 -0.8476 0.0 0.0 0.0
251 84 2 0.4238 0.8164904 0.0 0.577359
252 84 2 0.4238 -0.8164904 0.0 0.577359
253 85 1 -0.8476 0.0 0.0 0.0
254 85 2 0.4238 0.8164904 0.0 0.577359
255 85 2 0.4238 -0.8164904 0.0 0.577359
256 86 1 -0.8476 0.0 0.0 0.0
257 86 2 0.4238 0.8164904 0.0 0.577359
258 86 2 0.4238 -0.8164904 0.0 0.577359
259 87 1 -0.8476 0.0 0.0 0.0
260 87 2 0.4238 0.8164904 0.0 0.577359
261 87 2 0.4238 -0.8164904 0.0 0.577359
262 88 1 -0.8476 0.0 0.0 0.0
263 88 2 0.4238 0.8164904 0.0 0.577359
264 88 2 0.4238 -0.8164904 0.0 0.577359
265 89 1 -0.8476 0.0 0.0 0.0
266 89 2 0.4238 0.8164904 0.0 0.577359
267 89 2 0.4238 -0.8164904 0.0 0.577359
268 90 1 -0.8476 0.0 0.0 0.0
269 90 2 0.4238 0.8164904 0.0 0.577359
270 90 2 0.4238 -0.8164904 0.0 0.577359
271 91 1 -0.8476 0.0 0.0 0.0
272 91 2 0.4238 0.8164904 0.0 0.577359
273 91 2 0.4238 -0.8164904 0.0 0.577359
274 92 1 -0.8476 0.0 0.0 0.0
275 92 2 0.4238 0.8164904 0.0 0.577359
276 92 2 0.4238 -0.8164904 0.0 0.577359
277 93 1 -0.8476 0.0 0.0 0.0
278 93 2 0.4238 0.8164904 0.0 0.577359
279 93 2 0.4238 -0.8164904 0.0 0.577359
280 94 1 -0.8476 0.0 0.0 0.0
281 94 2 0.4238 0.8164904 0.0 0.577359
282 94 2 0.4238 -0.8164904 0.0 0.577359
283 95 1 -0.8476 0.0 0.0 0.0
284 95 2 0.4238 0.8164904 0.0 0.577359
285 95 2 0.4238 -0.8164904 0.0 0.577359
286 96 1 -0.8476 0.0 0.0 0.0
287 96 2 0.4238 0.8164904 0.0 0.577359
288 96 2 0.4238 -0.8164904 0.0 0.577359
289 97 1 -0.8476 0.0 0.0 0.0
290 97 2 0.4238 0.8164904 0.0 0.577359
291 97 2 0.4238 -0.8164904 0.0 0.577359
292 98 1 -0.8476 0.0 0.0 0.0
293 98 2 0.4238 0.8164904 0.0 0.577359
294 98 2 0.4238 -0.8164904 0.0 0.577359
295 99 1 -0.8476 0.0 0.0 0.0
296 99 2 0.4238 0.8164904 0.0 0.577359
297 99 2 0.4238 -0.8164904 0.0 0.577359
298 100 1 -0.8476 0.0 0.0 0.0
299 100 2 0.4238 0.8164904 0.0 0.577359
300 100 2 0.4238 -0.8164904 0.0 0.577359
301 101 1 -0.8476 0.0 0.0 0.0
302 101 2 0.4238 0.8164904 0.0 0.577359
303 101 2 0.4238 -0.8164904 0.0 0.577359
304 102 1 -0.8476 0.0 0.0 0.0
305 102 2 0.4238 0.8164904 0.0 0.577359
306 102 2 0.4238 -0.8164904 0.0 0.577359
307 103 1 -0.8476 0.0 0.0 0.0
308 103 2 0.4238 0.8164904 0.0 0.577359
309 103 2 0.4238 -0.8164904 0.0 0.577359
310 104 1 -0.8476 0.0 0.0 0.0
311 104 2 0.4238 0.8164904 0.0 0.577359
312 104 2 0.4238 -0.8164904 0.0 0.577359
313 105 1 -0.8476 0.0 0.0 0.0
314 105 2 0.4238 0.8164904 0.0 0.577359
315 105 2 0.4238 -0.8164904 0.0 0.577359
316 106 1 -0.8476 0.0 0.0 0.0
317 106 2 0.4238 0.8164904 0.0 0.577359
318 106 2 0.4238 -0.8164904 0.0 0.577359
319 107 1 -0.8476 0.0 0.0 0.0
320 107 2 0.4238 0.8164904 0.0 0.577359
321 107 2 0.4238 -0.8164904 0.0 0.577359
322 108 1 -0.8476 0.0 0.0 0.0
323 108 2 0.4238 0.8164904 0.0 0.577359
324 108 2 0.4238 -0.8164904 0.0 0.577359
325 109 1 -0.8476 0.0 0.0 0.0
326 109 2 0.4238 0.8164904 0.0 0.577359
327 109 2 0.4238 -0.8164904 0.0 0.577359
328 110 1 -0.8476 0.0 0.0 0.0
329 110 2 0.4238 0.8164904 0.0 0.577359
330 110 2 0.4238 -0.8164904 0.0 0.577359
331 111 1 -0.8476 0.0 0.0 0.0
332 111 2 0.4238 0.8164904 0.0 0.577359
333 111 2 0.4238 -0.8164904 0.0 0.577359
334 112 1 -0.8476 0.0 0.0 0.0
335 112 2 0.4238 0.8164904 0.0 0.577359
336 112 2 0.4238 -0.8164904 0.0 0.577359
337 113 1 -0.8476 0.0 0.0 0.0
338 113 2 0.4238 0.8164904 0.0 0.577359
339 113 2 0.4238 -0.8164904 0.0 0.577359
340 114 1 -0.8476 0.0 0.0 0.0
341 114 2 0.4238 0.8164904 0.0 0.577359
342 114 2 0.4238 -0.8164904 0.0 0.577359
343 115 1 -0.8476 0.0 0.0 0.0
344 115 2 0.4238 0.8164904 0.0 0.577359
345 115 2 0.4238 -0.8164904 0.0 0.577359
346 116 1 -0.8476 0.0 0.0 0.0
347 116 2 0.4238 0.8164904 0.0 0.577359
348 116 2 0.4238 -0.8164904 0.0 0.577359
349 117 1 -0.8476 0.0 0.0 0.0
350 117 2 0.4238 0.8164904 0.0 0.577359
351 117 2 0.4238 -0.8164904 0.0 0.577359
352 118 1 -0.8476 0.0 0.0 0.0
353 118 2 0.4238 0.8164904 0.0 0.577359
354 118 2 0.4238 -0.8164904 0.0 0.577359
355 119 1 -0.8476 0.0 0.0 0.0
356 119 2 0.4238 0.8164904 0.0 0.577359
357 119 2 0.4238 -0.8164904 0.0 0.577359
358 120 1 -0.8476 0.0 0.0 0.0
359 120 2 0.4238 0.8164904 0.0 0.577359
360 120 2 0.4238 -0.8164904 0.0 0.577359
361 121 1 -0.8476 0.0 0.0 0.0
362 121 2 0.4238 0.8164904 0.0 0.577359
363 121 2 0.4238 -0.8164904 0.0 0.577359
364 122 1 -0.8476 0.0 0.0 0.0
365 122 2 0.4238 0.8164904 0.0 0.577359
366 122 2 0.4238 -0.8164904 0.0 0.577359
367 123 1 -0.8476 0.0 0.0 0.0
368 123 2 0.4238 0.8164904 0.0 0.577359
369 123 2 0.4238 -0.8164904 0.0 0.577359
370 124 1 -0.8476 0.0 0.0 0.0
371 124 2 0.4238 0.8164904 0.0 0.577359
372 124 2 0.4238 -0.8164904 0.0 0.577359
373 125 1 -0.8476 0.0 0.0 0.0
374 125 2 0.4238 0.8164904 0.0 0.577359
375 125 2 0.4238 -0.8164904 0.0 0.577359
376 126 1 -0.8476 0.0 0.0 0.0
377 126 2 0.4238 0.8164904 0.0 0.577359
378 126 2 0.4238 -0.8164904 0.0 0.577359
379 127 1 -0.8476 0.0 0.0 0.0
380 127 2 0.4238 0.8164904 0.0 0.577359
381 127 2 0.4238 -0.8164904 0.0 0.577359
382 128 1 -0.8476 0.0 0.0 0.0
383 128 2 0.4238 0.8164904 0.0 0.577359
384 128 2 0.4238 -0.8164904 0.0 0.577359
385 129 1 -0.8476 0.0 0.0 0.0
386 129 2 0.4238 0.8164904 0.0 0.577359
387 129 2 0.4238 -0.8164904 0.0 0.577359
388 130 1 -0.8476 0.0 0.0 0.0
389 130 2 0.4238 0.8164904 0.0 0.577359
390 130 2 0.4238 -0.8164904 0.0 0.577359
391 131 1 -0.8476 0.0 0.0 0.0
392 131 2 0.4238 0.8164904 0.0 0.577359
393 131 2 0.4238 -0.8164904 0.0 0.577359
394 132 1 -0.8476 0.0 0.0 0.0
395 132 2 0.4238 0.8164904 0.0 0.577359
396 132 2 0.4238 -0.8164904 0.0 0.577359
397 133 1 -0.8476 0.0 0.0 0.0
398 133 2 0.4238 0.8164904 0.0 0.577359
399 133 2 0.4238 -0.8164904 0.0 0.577359
400 134 1 -0.8476 0.0 0.0 0.0
401 134 2 0.4238 0.8164904 0.0 0.577359
402 134 2 0.4238 -0.8164904 0.0 0.577359
403 135 1 -0.8476 0.0 0.0 0.0
404 135 2 0.4238 0.8164904 0.0 0.577359
405 135 2 0.4238 -0.8164904 0.0 0.577359
406 136 1 -0.8476 0.0 0.0 0.0
407 136 2 0.4238 0.8164904 0.0 0.577359
408 136 2 0.4238 -0.8164904 0.0 0.577359
409 137 1 -0.8476 0.0 0.0 0.0
410 137 2 0.4238 0.8164904 0.0 0.577359
411 137 2 0.4238 -0.8164904 0.0 0.577359
412 138 1 -0.8476 0.0 0.0 0.0
413 138 2 0.4238 0.8164904 0.0 0.577359
414 138 2 0.4238 -0.8164904 0.0 0.577359
415 139 1 -0.8476 0.0 0.0 0.0
416 139 2 0.4238 0.8164904 0.0 0.577359
417 139 2 0.4238 -0.8164904 0.0 0.577359
418 140 1 -0.8476 0.0 0.0 0.0
419 140 2 0.4238 0.8164904 0.0 0.577359
420 140 2 0.4238 -0.8164904 0.0 0.577359
421 141 1 -0.8476 0.0 0.0 0.0
422 141 2 0.4238 0.8164904 0.0 0.577359
423 141 2 0.4238 -0.8164904 0.0 0.577359
424 142 1 -0.8476 0.0 0.0 0.0
425 142 2 0.4238 0.8164904 0.0 0.577359
426 142 2 0.4238 -0.8164904 0.0 0.577359
427 143 1 -0.8476 0.0 0.0 0.0
428 143 2 0.4238 0.8164904 0.0 0.577359
429 143 2 0.4238 -0.8164904 0.0 0.577359
430 144 1 -0.8476 0.0 0.0 0.0
431 144 2 0.4238 0.8164904 0.0 0.577359
432 144 2 0.4238 -0.8164904 0.0 0.577359
433 145 1 -0.8476 0.0 0.0 0.0
434 145 2 0.4238 0.8164904 0.0 0.577359
435 145 2 0.4238 -0.8164904 0.0 0.577359
436 146 1 -0.8476 0.0 0.0 0.0
437 146 2 0.4238 0.8164904 0.0 0.577359
438 146 2 0.4238 -0.8164904 0.0 0.577359
439 147 1 -0.8476 0.0 0.0 0.0
440 147 2 0.4238 0.8164904 0.0 0.577359
441 147 2 0.4238 -0.8164904 0.0 0.577359
442 148 1 -0.8476 0.0 0.0 0.0
443 148 2 0.4238 0.8164904 0.0 0.577359
444 148 2 0.4238 -0.8164904 0.0 0.577359
445 149 1 -0.8476 0.0 0.0 0.0
446 149 2 0.4238 0.8164904 0.0 0.577359
447 149 2 0.4238 -0.8164904 0.0 0.577359
448 150 1 -0.8476 0.0 0.0 0.0
449 150 2 0.4238 0.8164904 0.0 0.577359
450 150 2 0.4238 -0.8164904 0.0 0.577359
451 151 1 -0.8476 0.0 0.0 0.0
452 151 2 0.4238 0.8164904 0.0 0.577359
453 151 2 0.4238 -0.8164904 0.0 0.577359
454 152 1 -0.8476 0.0 0.0 0.0
455 152 2 0.4238 0.8164904 0.0 0.577359
456 152 2 0.4238 -0.8164904 0.0 0.577359
457 153 1 -0.8476 0.0 0.0 0.0
458 153 2 0.4238 0.8164904 0.0 0.577359
459 153 2 0.4238 -0.8164904 0.0 0.577359
460 154 1 -0.8476 0.0 0.0 0.0
461 154 2 0.4238 0.8164904 0.0 0.577359
462 154 2 0.4238 -0.8164904 0.0 0.577359
463 155 1 -0.8476 0.0 0.0 0.0
464 155 2 0.4238 0.8164904 0.0 0.577359
465 155 2 0.4238 -0.8164904 0.0 0.577359
466 156 1 -0.8476 0.0 0.0 0.0
467 156 2 0.4238 0.8164904 0.0 0.577359
468 156 2 0.4238 -0.8164904 0.0 0.577359
469 157 1 -0.8476 0.0 0.0 0.0
470 157 2 0.4238 0.8164904 0.0 0.577359
471 157 2 0.4238 -0.8164904 0.0 0.577359
472 158 1 -0.8476 0.0 0.0 0.0
473 158 2 0.4238 0.8164904 0.0 0.577359
474 158 2 0.4238 -0.8164904 0.0 0.577359
475 159 1 -0.8476 0.0 0.0 0.0
476 159 2 0.4238 0.8164904 0.0 0.577359
477 159 2 0.4238 -0.8164904 0.0 0.577359
478 160 1 -0.8476 0.0 0.0 0.0
479 160 2 0.4238 0.8164904 0.0 0.577359
480 160 2 0.4238 -0.8164904 0.0 0.577359
481 161 1 -0.8476 0.0 0.0 0.0
482 161 2 0.4238 0.8164904 0.0 0.577359
483 161 2 0.4238 -0.8164904 0.0 0.577359
484 162 1 -0.8476 0.0 0.0 0.0
485 162 2 0.4238 0.8164904 0.0 0.577359
486 162 2 0.4238 -0.8164904 0.0 0.577359
487 163 1 -0.8476 0.0 0.0 0.0
488 163 2 0.4238 0.8164904 0.0 0.577359
489 163 2 0.4238 -0.8164904 0.0 0.577359
490 164 1 -0.8476 0.0 0.0 0.0
491 164 2 0.4238 0.8164904 0.0 0.577359
492 164 2 0.4238 -0.8164904 0.0 0.577359
493 165 1 -0.8476 0.0 0.0 0.0
494 165 2 0.4238 0.8164904 0.0 0.577359
495 165 2 0.4238 -0.8164904 0.0 0.577359
496 166 1 -0.8476 0.0 0.0 0.0
497 166 2 0.4238 0.8164904 0.0 0.577359
498 166 2 0.4238 -0.8164904 0.0 0.577359
499 167 1 -0.8476 0.0 0.0 0.0
500 167 2 0.4238 0.8164904 0.0 0.577359
501 167 2 0.4238 -0.8164904 0.0 0.577359
502 168 1 -0.8476 0.0 0.0 0.0
503 168 2 0.4238 0.8164904 0.0 0.577359
504 168 2 0.4238 -0.8164904 0.0 0.577359
505 169 1 -0.8476 0.0 0.0 0.0
506 169 2 0.4238 0.8164904 0.0 0.577359
507 169 2 0.4238 -0.8164904 0.0 0.577359
508 170 1 -0.8476 0.0 0.0 0.0
509 170 2 0.4238 0.8164904 0.0 0.577359
510 170 2 0.4238 -0.8164904 0.0 0.577359
511 171 1 -0.8476 0.0 0.0 0.0
512 171 2 0.4238 0.8164904 0.0 0.577359
513 171 2 0.4238 -0.8164904 0.0 0.577359
514 172 1 -0.8476 0.0 0.0 0.0
515 172 2 0.4238 0.8164904 0.0 0.577359
516 172 2 0.4238 -0.8164904 0.0 0.577359
517 173 1 -0.8476 0.0 0.0 0.0
518 173 2 0.4238 0.8164904 0.0 0.577359
519 173 2 0.4238 -0.8164904 0.0 0.577359
520 174 1 -0.8476 0.0 0.0 0.0
521 174 2 0.4238 0.8164904 0.0 0.577359
522 174 2 0.4238 -0.8164904 0.0 0.577359
523 175 1 -0.8476 0.0 0.0 0.0
524 175 2 0.4238 0.8164904 0.0 0.577359
525 175 2 0.4238 -0.8164904 0.0 0.577359
526 176 1 -0.8476 0.0 0.0 0.0
527 176 2 0.4238 0.8164904 0.0 0.577359
528 176 2 0.4238 -0.8164904 0.0 0.577359
529 177 1 -0.8476 0.0 0.0 0.0
530 177 2 0.4238 0.8164904 0.0 0.577359
531 177 2 0.4238 -0.8164904 0.0 0.577359
532 178 1 -0.8476 0.0 0.0 0.0
533 178 2 0.4238 0.8164904 0.0 0.577359
534 178 2 0.4238 -0.8164904 0.0 0.577359
535 179 1 -0.8476 0.0 0.0 0.0
536 179 2 0.4238 0.8164904 0.0 0.577359
537 179 2 0.4238 -0.8164904 0.0 0.577359
538 180 1 -0.8476 0.0 0.0 0.0
539 180 2 0.4238 0.8164904 0.0 0.577359
540 180 2 0.4238 -0.8164904 0.0 0.577359
541 181 1 -0.8476 0.0 0.0 0.0
542 181 2 0.4238 0.8164904 0.0 0.577359
543 181 2 0.4238 -0.8164904 0.0 0.577359
544 182 1 -0.8476 0.0 0.0 0.0
545 182 2 0.4238 0.8164904 0.0 0.577359
546 182 2 0.4238 -0.8164904 0.0 0.577359
547 183 1 -0.8476 0.0 0.0 0.0
548 183 2 0.4238 0.8164904 0.0 0.577359
549 183 2 0.4238 -0.8164904 0.0 0.577359
550 184 1 -0.8476 0.0 0.0 0.0
551 184 2 0.4238 0.8164904 0.0 0.577359
552 184 2 0.4238 -0.8164904 0.0 0.577359
553 185 1 -0.8476 0.0 0.0 0.0
554 185 2 0.4238 0.8164904 0.0 0.577359
555 185 2 0.4238 -0.8164904 0.0 0.577359
556 186 1 -0.8476 0.0 0.0 0.0
557 186 2 0.4238 0.8164904 0.0 0.577359
558 186 2 0.4238 -0.8164904 0.0 0.577359
559 187 1 -0.8476 0.0 0.0 0.0
560 187 2 0.4238 0.8164904 0.0 0.577359
561 187 2 0.4238 -0.8164904 0.0 0.577359
562 188 1 -0.8476 0.0 0.0 0.0
563 188 2 0.4238 0.8164904 0.0 0.577359
564 188 2 0.4238 -0.8164904 0.0 0.577359
565 189 1 -0.8476 0.0 0.0 0.0
566 189 2 0.4238 0.8164904 0.0 0.577359
567 189 2 0.4238 -0.8164904 0.0 0.577359
568 190 1 -0.8476 0.0 0.0 0.0
569 190 2 0.4238 0.8164904 0.0 0.577359
570 190 2 0.4238 -0.8164904 0.0 0.577359
571 191 1 -0.8476 0.0 0.0 0.0
572 191 2 0.4238 0.8164904 0.0 0.577359
573 191 2 0.4238 -0.8164904 0.0 0.577359
574 192 1 -0.8476 0.0 0.0 0.0
575 192 2 0.4238 0.8164904 0.0 0.577359
576 192 2 0.4238 -0.8164904 0.0 0.577359
577 193 1 -0.8476 0.0 0.0 0.0
578 193 2 0.4238 0.8164904 0.0 0.577359
579 193 2 0.4238 -0.8164904 0.0 0.577359
580 194 1 -0.8476 0.0 0.0 0.0
581 194 2 0.4238 0.8164904 0.0 0.577359
582 194 2 0.4238 -0.8164904 0.0 0.577359
583 195 1 -0.8476 0.0 0.0 0.0
584 195 2 0.4238 0.8164904 0.0 0.577359
585 195 2 0.4238 -0.8164904 0.0 0.577359
586 196 1 -0.8476 0.0 0.0 0.0
587 196 2 0.4238 0.8164904 0.0 0.577359
588 196 2 0.4238 -0.8164904 0.0 0.577359
589 197 1 -0.8476 0.0 0.0 0.0
590 197 2 0.4238 0.8164904 0.0 0.577359
591 197 2 0.4238 -0.8164904 0.0 0.577359
592 198 1 -0.8476 0.0 0.0 0.0
593 198 2 0.4238 0.8164904 0.0 0.577359
594 198 2 0.4238 -0.8164904 0.0 0.577359
595 199 1 -0.8476 0.0 0.0 0.0
596 199 2 0.4238 0.8164904 0.0 0.577359
597 199 2 0.4238 -0.8164904 0.0 0.577359
598 200 1 -0.8476 0.0 0.0 0.0
599 200 2 0.4238 0.8164904 0.0 0.577359
600 200 2 0.4238 -0.8164904 0.0 0.577359
601 201 1 -0.8476 0.0 0.0 0.0
602 201 2 0.4238 0.8164904 0.0 0.577359
603 201 2 0.4238 -0.8164904 0.0 0.577359
604 202 1 -0.8476 0.0 0.0 0.0
605 202 2 0.4238 0.8164904 0.0 0.577359
606 202 2 0.4238 -0.8164904 0.0 0.577359
607 203 1 -0.8476 0.0 0.0 0.0
608 203 2 0.4238 0.8164904 0.0 0.577359
609 203 2 0.4238 -0.8164904 0.0 0.577359
610 204 1 -0.8476 0.0 0.0 0.0
611 204 2 0.4238 0.8164904 0.0 0.577359
612 204 2 0.4238 -0.8164904 0.0 0.577359
613 205 1 -0.8476 0.0 0.0 0.0
614 205 2 0.4238 0.8164904 0.0 0.577359
615 205 2 0.4238 -0.8164904 0.0 0.577359
616 206 1 -0.8476 0.0 0.0 0.0
617 206 2 0.4238 0.8164904 0.0 0.577359
618 206 2 0.4238 -0.8164904 0.0 0.577359
619 207 1 -0.8476 0.0 0.0 0.0
620 207 2 0.4238 0.8164904 0.0 0.577359
621 207 2 0.4238 -0.8164904 0.0 0.577359
622 208 1 -0.8476 0.0 0.0 0.0
623 208 2 0.4238 0.8164904 0.0 0.577359
624 208 2 0.4238 -0.8164904 0.0 0.577359
625 209 1 -0.8476 0.0 0.0 0.0
626 209 2 0.4238 0.8164904 0.0 0.577359
627 209 2 0.4238 -0.8164904 0.0 0.577359
628 210 1 -0.8476 0.0 0.0 0.0
629 210 2 0.4238 0.8164904 0.0 0.577359
630 210 2 0.4238 -0.8164904 0.0 0.577359
631 211 1 -0.8476 0.0 0.0 0.0
632 211 2 0.4238 0.8164904 0.0 0.577359
633 211 2 0.4238 -0.8164904 0.0 0.577359
634 212 1 -0.8476 0.0 0.0 0.0
635 212 2 0.4238 0.8164904 0.0 0.577359
636 212 2 0.4238 -0.8164904 0.0 0.577359
637 213 1 -0.8476 0.0 0.0 0.0
638 213 2 0.4238 0.8164904 0.0 0.577359
639 213 2 0.4238 -0.8164904 0.0 0.577359
640 214 1 -0.8476 0.0 0.0 0.0
641 214 2 0.4238 0.8164904 0.0 0.577359
642 214 2 0.4238 -0.8164904 0.0 0.577359
643 215 1 -0.8476 0.0 0.0 0.0
644 215 2 0.4238 0.8164904 0.0 0.577359
645 215 2 0.4238 -0.8164904 0.0 0.577359
646 216 1 -0.8476 0.0 0.0 0.0
647 216 2 0.4238 0.8164904 0.0 0.577359
648 216 2 0.4238 -0.8164904 0.0 0.577359
649 217 1 -0.8476 0.0 0.0 0.0
650 217 2 0.4238 0.8164904 0.0 0.577359
651 217 2 0.4238 -0.8164904 0.0 0.577359
652 218 1 -0.8476 0.0 0.0 0.0
653 218 2 0.4238 0.8164904 0.0 0.577359
654 218 2 0.4238 -0.8164904 0.0 0.577359
655 219 1 -0.8476 0.0 0.0 0.0
656 219 2 0.4238 0.8164904 0.0 0.577359
657 219 2 0.4238 -0.8164904 0.0 0.577359
658 220 1 -0.8476 0.0 0.0 0.0
659 220 2 0.4238 0.8164904 0.0 0.577359
660 220 2 0.4238 -0.8164904 0.0 0.577359
661 221 1 -0.8476 0.0 0.0 0.0
662 221 2 0.4238 0.8164904 0.0 0.577359
663 221 2 0.4238 -0.8164904 0.0 0.577359
664 222 1 -0.8476 0.0 0.0 0.0
665 222 2 0.4238 0.8164904 0.0 0.577359
666 222 2 0.4238 -0.8164904 0.0 0.577359
667 223 1 -0.8476 0.0 0.0 0.0
668 223 2 0.4238 0.8164904 0.0 0.577359
669 223 2 0.4238 -0.8164904 0.0 0.577359
670 224 1 -0.8476 0.0 0.0 0.0
671 224 2 0.4238 0.8164904 0.0 0.577359
672 224 2 0.4238 -0.8164904 0.0 0.577359
673 225 1 -0.8476 0.0 0.0 0.0
674 225 2 0.4238 0.8164904 0.0 0.577359
675 225 2 0.4238 -0.8164904 0.0 0.577359
676 226 1 -0.8476 0.0 0.0 0.0
677 226 2 0.4238 0.8164904 0.0 0.577359
678 226 2 0.4238 -0.8164904 0.0 0.577359
679 227 1 -0.8476 0.0 0.0 0.0
680 227 2 0.4238 0.8164904 0.0 0.577359
681 227 2 0.4238 -0.8164904 0.0 0.577359
682 228 1 -0.8476 0.0 0.0 0.0
683 228 2 0.4238 0.8164904 0.0 0.577359
684 228 2 0.4238 -0.8164904 0.0 0.577359
685 229 1 -0.8476 0.0 0.0 0.0
686 229 2 0.4238 0.8164904 0.0 0.577359
687 229 2 0.4238 -0.8164904 0.0 0.577359
688 230 1 -0.8476 0.0 0.0 0.0
689 230 2 0.4238 0.8164904 0.0 0.577359
690 230 2 0.4238 -0.8164904 0.0 0.577359
691 231 1 -0.8476 0.0 0.0 0.0
692 231 2 0.4238 0.8164904 0.0 0.577359
693 231 2 0.4238 -0.8164904 0.0 0.577359
694 232 1 -0.8476 0.0 0.0 0.0
695 232 2 0.4238 0.8164904 0.0 0.577359
696 232 2 0.4238 -0.8164904 0.0 0.577359
697 233 1 -0.8476 0.0 0.0 0.0
698 233 2 0.4238 0.8164904 0.0 0.577359
699 233 2 0.4238 -0.8164904 0.0 0.577359
700 234 1 -0.8476 0.0 0.0 0.0
701 234 2 0.4238 0.8164904 0.0 0.577359
702 234 2 0.4238 -0.8164904 0.0 0.577359
703 235 1 -0.8476 0.0 0.0 0.0
704 235 2 0.4238 0.8164904 0.0 0.577359
705 235 2 0.4238 -0.8164904 0.0 0.577359
706 236 1 -0.8476 0.0 0.0 0.0
707 236 2 0.4238 0.8164904 0.0 0.577359
708 236 2 0.4238 -0.8164904 0.0 0.577359
709 237 1 -0.8476 0.0 0.0 0.0
710 237 2 0.4238 0.8164904 0.0 0.577359
711 237 2 0.4238 -0.8164904 0.0 0.577359
712 238 1 -0.8476 0.0 0.0 0.0
713 238 2 0.4238 0.8164904 0.0 0.577359
714 238 2 0.4238 -0.8164904 0.0 0.577359
715 239 1 -0.8476 0.0 0.0 0.0
716 239 2 0.4238 0.8164904 0.0 0.577359
717 239 2 0.4238 -0.8164904 0.0 0.577359
718 240 1 -0.8476 0.0 0.0 0.0
719 240 2 0.4238 0.8164904 0.0 0.577359
720 240 2 0.4238 -0.8164904 0.0 0.577359
721 241 1 -0.8476 0.0 0.0 0.0
722 241 2 0.4238 0.8164904 0.0 0.577359
723 241 2 0.4238 -0.8164904 0.0 0.577359
724 242 1 -0.8476 0.0 0.0 0.0
725 242 2 0.4238 0.8164904 0.0 0.577359
726 242 2 0.4238 -0.8164904 0.0 0.577359
727 243 1 -0.8476 0.0 0.0 0.0
728 243 2 0.4238 0.8164904 0.0 0.577359
729 243 2 0.4238 -0.8164904 0.0 0.577359
730 244 1 -0.8476 0.0 0.0 0.0
731 244 2 0.4238 0.8164904 0.0 0.577359
732 244 2 0.4238 -0.8164904 0.0 0.577359
733 245 1 -0.8476 0.0 0.0 0.0
734 245 2 0.4238 0.8164904 0.0 0.577359
735 245 2 0.4238 -0.8164904 0.0 0.577359
736 246 1 -0.8476 0.0 0.0 0.0
737 246 2 0.4238 0.8164904 0.0 0.577359
738 246 2 0.4238 -0.8164904 0.0 0.577359
739 247 1 -0.8476 0.0 0.0 0.0
740 247 2 0.4238 0.8164904 0.0 0.577359
741 247 2 0.4238 -0.8164904 0.0 0.577359
742 248 1 -0.8476 0.0 0.0 0.0
743 248 2 0.4238 0.8164904 0.0 0.577359
744 248 2 0.4238 -0.8164904 0.0 0.577359
745 249 1 -0.8476 0.0 0.0 0.0
746 249 2 0.4238 0.8164904 0.0 0.577359
747 249 2 0.4238 -0.8164904 0.0 0.577359
748 250 1 -0.8476 0.0 0.0 0.0
749 250 2 0.4238 0.8164904 0.0 0.577359
750 250 2 0.4238 -0.8164904 0.0 0.577359
751 251 1 -0.8476 0.0 0.0 0.0
752 251 2 0.4238 0.8164904 0.0 0.577359
753 251 2 0.4238 -0.8164904 0.0 0.577359
754 252 1 -0.8476 0.0 0.0 0.0
755 252 2 0.4238 0.8164904 0.0 0.577359
756 252 2 0.4238 -0.8164904 0.0 0.577359
757 253 1 -0.8476 0.0 0.0 0.0
758 253 2 0.4238 0.8164904 0.0 0.577359
759 253 2 0.4238 -0.8164904 0.0 0.577359
760 254 1 -0.8476 0.0 0.0 0.0
761 254 2 0.4238 0.8164904 0.0 0.577359
762 254 2 0.4238 -0.8164904 0.0 0.577359
763 255 1 -0.8476 0.0 0.0 0.0
764 255 2 0.4238 0.8164904 0.0 0.577359
765 255 2 0.4238 -0.8164904 0.0 0.577359
766 256 1 -0.8476 0.0 0.0 0.0
767 256 2 0.4238 0.8164904 0.0 0.577359
768 256 2 0.4238 -0.8164904 0.0 0.577359
769 257 1 -0.8476 0.0 0.0 0.0
770 257 2 0.4238 0.8164904 0.0 0.577359
771 257 2 0.4238 -0.8164904 0.0 0.577359
772 258 1 -0.8476 0.0 0.0 0.0
773 258 2 0.4238 0.8164904 0.0 0.577359
774 258 2 0.4238 -0.8164904 0.0 0.577359
775 259 1 -0.8476 0.0 0.0 0.0
776 259 2 0.4238 0.8164904 0.0 0.577359
777 259 2 0.4238 -0.8164904 0.0 0.577359
778 260 1 -0.8476 0.0 0.0 0.0
779 260 2 0.4238 0.8164904 0.0 0.577359
780 260 2 0.4238 -0.8164904 0.0 0.577359

Bonds

1 1 1 2
2 1 1 3
3 1 4 5
4 1 4 6
5 1 7 8
6 1 7 9
7 1 10 11
8 1 10 12
9 1 13 14
10 1 13 15
11 1 16 17
12 1 16 18
13 1 19 20
14 1 19 21
15 1 22 23
16 1 22 24
17 1 25 26
18 1 25 27
19 1 28 29
20 1 28 30
21 1 31 32
22 1 31 33
23 1 34 35
24 1 34 36
25 1 37 38
26 1 37 39
27 1 40 41
28 1 40 42
29 1 43 44
30 1 43 45
31 1 46 47
32 1 46 48
33 1 49 50
34 1 49 51
35 1 52 53
36 1 52 54
37 1 55 56
38 1 55 57
39 1 58 59
40 1 58 60
41 1 61 62
42 1 61 63
43 1 64 65
44 1 64 66
45 1 67 68
46 1 67 69
47 1 70 71
48 1 70 72
49 1 73 74
50 1 73 75
51 1 76 77
52 1 76 78
53 1 79 80
54 1 79 81
55 1 82 83
56 1 82 84
57 1 85 86
58 1 85 87
59 1 88 89
60 1 88 90
61 1 91 92
62 1 91 93
63 1 94 95
64 1 94 96
65 1 97 98
66 1 97 99
67 1 100 101
68 1 100 102
69 1 103 104
70 1 103 105
71 1 106 107
72 1 106 108
73 1 109 110
74 1 109 111
75 1 112 113
76 1 112 114
77 1 115 116
78 1 115 117
79 1 118 119
80 1 118 120
81 1 121 122
82 1 121 123
83 1 124 125
84 1 124 126
85 1 127 128
86 1 127 129
87 1 130 131
88 1 130 132
89 1 133 134
90 1 133 135
91 1 136 137
92 1 136 138
93 1 139 140
94 1 139 141
95 1 142 143
96 1 142 144
97 1 145 146
98 1 145 147
99 1 148 149
100 1 148 150
101 1 151 152
102 1 151 153
103 1 154 155
104 1 154 156
105 1 157 158