LAMMPS data file via write_data, version 8 Feb 2023, timestep = 8000

200 atoms
1 atom types

-3.4945130603740377 3.4945130603740377 xlo xhi
-3.4945130603740377 3.4945130603740377 ylo yhi
-3.4945130603740377 3.4945130603740377 zlo zhi

Masses

1 1

Pair Coeffs # lj/cut

1 1 1

Atoms # atomic

141 1 -1.763209980389579 -2.6156484242195064 -2.931843780833984 2 0 0
152 1 -1.5928871542954757 3.3501884422702433 -1.8656866405706811 -1 -2 0
49 1 -2.7539752553137182 -3.2181862303090325 -3.2982185001231508 0 1 0
113 1 -0.7003027892165357 -2.1799819378730754 -2.999588953057854 -1 0 0
147 1 -0.9066147762335637 -3.0721536393085946 -3.451497569202878 0 1 0
25 1 -0.8348129272923334 -3.2010555139777104 -2.4342714727995403 -1 0 1
7 1 -1.155032969500839 -2.109409697780318 -2.01960214884411 -1 0 1
122 1 -0.11210230788570166 -2.6275713274626975 -1.900506384406081 1 0 -1
55 1 0.23346664931542635 -2.573966195106371 -3.0437128589517024 -1 0 -1
95 1 0.716981854784511 -1.7560064219465084 -1.6999612600924723 0 2 -1
105 1 1.1248014998718883 -1.7403082354703703 -3.356758018801178 0 0 0
84 1 2.225043764737794 -2.1031554472806464 -3.42558560520243 0 0 0
65 1 -2.8977942390562763 -2.1977837904725823 -3.370623324950664 0 -1 0
175 1 -3.151432241251456 -0.37515180280237564 3.4437485581764316 0 0 0
173 1 -2.3157350741156972 -0.12943144237356516 -2.753320161369244 1 0 1
174 1 -1.4393153013859372 -1.4595317956467175 -2.895392195630071 -1 0 -1
189 1 -0.9035292808774392 -0.8049470303120404 -2.0013910310988474 0 0 2
171 1 -0.09043747063992294 -1.5712222691835853 -2.3464524824680155 0 2 -1
9 1 -0.38933479997274456 -0.745737254721562 -3.0928316849953847 0 0 1
37 1 0.8181444837942082 -0.7091668788083872 -2.594933610756206 1 0 1
170 1 1.3754078695474516 -0.09950193181623739 -3.3522400330808644 -1 1 0
69 1 1.8294621328196188 -1.0504767914076205 -2.8686605757666803 0 -2 0
11 1 3.053917621871791 -1.2494689141836135 -3.2389748560412586 -1 2 1
132 1 2.7977059570311695 -0.2496088420677755 -3.341775035063612 0 0 0
190 1 3.4919178496580034 0.673724849434539 3.4160908466980175 -1 0 -1
146 1 -0.6231884714133011 0.14913282842463038 -2.641949381637644 2 1 2
135 1 -1.5674517925968012 0.6290709302591437 -2.3856462153486317 1 0 0
183 1 -0.49431360672463004 1.4890871743231773 -2.7350680810605428 1 0 0
74 1 0.37022638217671316 0.08409992531451556 -3.033741105582725 1 -1 1
26 1 0.4574609043057575 1.0299917975368564 -2.3172978982485737 0 -1 1
28 1 1.1181699312197082 1.1244486490934802 -3.1866832135712855 0 -1 -1
29 1 -2.5977690868714194 2.5288932865762908 -3.4450145823917615 1 -1 0
60 1 -1.7983398047844672 3.3151201773371946 -2.9557747417019304 1 1 0
35 1 -2.341675516391612 2.5752707942079995 -2.1932303039293837 1 -1 0
172 1 -1.5906394201515217 2.0015866768978423 -2.97713376733703 0 0 2
90 1 -0.9570316941978154 2.7341944347748575 -2.39704430602322 0 -1 1
41 1 0.17097469683906785 3.422589740764926 -2.7250117611585174 0 0 1
102 1 -2.1834144246935057 -1.9708341062049972 -1.651792998752301 1 -1 -1
19 1 -2.799899482947646 -2.4762586983196475 -0.30170497621753223 1 1 -1
193 1 -1.8524344777477728 -2.9040612754975954 -0.9352876177978476 1 1 0
76 1 -0.14754768813509733 -2.534237145454477 -0.5903298333231304 0 0 0
104 1 -1.4292162927828058 -1.8887180032986757 -0.7510048521253992 0 0 -1
14 1 -0.7531800111600084 -3.202737076324235 -1.3992046647831564 -1 0 1
188 1 1.0895178734825146 -2.3416281855941414 0.09937021752979631 -1 0 0
157 1 1.53648073670157 -2.278353849103656 -0.9969007844888839 -1 -1 1
64 1 3.2685116460755688 -1.7040641958682559 -0.168149877537844 0 1 0
196 1 3.243226770875574 -2.735431073745969 -0.24543333692900807 0 2 1
120 1 -2.7480834527815015 -1.2726347498238166 -0.7010605053509458 2 1 1
166 1 -2.5409778907446827 -0.09698240322803402 -1.3435121782531134 0 1 0
30 1 -2.536346720442665 -0.46539641115594493 0.008770351469747525 1 -1 0
80 1 -1.716490207148261 -0.7528793181105096 -0.6170398381312646 0 0 1
17 1 -0.8652064576231921 -1.1974714632304932 -0.15888843807113082 -2 0 0
98 1 -0.5496242692202938 -0.5939149881300675 -0.9303624863402448 -1 0 0
6 1 -0.45332547354146785 -1.6738816451677578 -1.1232699958219994 2 0 0
140 1 0.09381666738090248 -0.533597973200848 -1.8865070415277823 -1 0 0
106 1 0.5488648307350995 -1.2535162508826685 -0.8256886196074045 -1 0 0
36 1 0.7889198394938511 -0.3476398702185327 -0.04547023889787161 1 -1 0
24 1 1.3300945978662577 -0.35153772413771023 -0.9700284287655409 1 -1 0
81 1 2.0630098337462903 -0.9138666208698583 -0.13962068859670462 -1 0 1
91 1 -3.4535066291698033 -0.4796384079540839 -0.5221884185889151 1 -1 -1
164 1 -1.8003776637651108 1.3095354466285742 -0.9389018844249196 0 0 1
87 1 -1.8547858498275616 0.3065099544053662 -0.4980768850921695 0 -1 1
145 1 -3.090772587596814 0.5837989607708169 -0.6251810283740868 0 -2 -1
111 1 -2.534664983415859 1.34688446772606 0.11460128889340086 1 1 1
79 1 -1.380899470765548 0.24370827853097413 -1.4854169578503262 0 1 0
162 1 -1.1815902722068103 1.6597770188121743 -1.9852434376303232 0 0 1
112 1 -0.32558743037491716 0.7106169572157139 -1.615285962267308 0 0 0
56 1 -0.8283072702254036 0.4564624534306639 -0.5700689028075459 0 0 1
182 1 0.04863074266364189 0.7978824700683131 -0.008284573593351257 0 1 -1
177 1 -0.6481696376748467 1.7650890642565358 -0.05338043165294714 0 1 -1
137 1 0.32639925685778487 -0.05353328668133155 -0.9586895874383917 -1 1 -1
165 1 0.9387159980444888 0.2522291776639033 -1.8478441123660552 0 0 0
3 1 1.0844300875316264 0.6025889724525081 -0.4582563908829376 0 -1 1
194 1 0.8662415299163716 1.2219273986337442 -1.3857941220556813 0 1 -1
158 1 2.0486184184859972 0.9634063040985638 -0.3354215045861158 0 0 0
42 1 -1.5693584560601268 2.9075068816274467 -0.8387140667909673 0 1 -1
99 1 -1.6113116181616747 2.147179220461499 0.1775215873578245 0 -1 0
72 1 -0.6293873725016741 2.630010118252137 -0.9564776518035689 1 -1 0
38 1 -2.8640470065198236 -2.2435586739017785 1.3910743129711478 1 0 1
143 1 -3.0743396057883414 -3.212849746838124 0.5259359570888149 1 1 0
58 1 -1.9981958681612715 -3.1822656548185346 0.09920225142503952 0 0 0
144 1 -2.279979967578157 -3.0851896187054515 1.4084093697981352 0 1 0
151 1 -2.0216078245666655 -2.2216580360079643 0.7457122321748793 0 1 2
130 1 -0.17493166269242383 -2.4315359476317373 0.444080856211588 -1 1 0
149 1 -1.3750250274960272 -1.974930490228725 1.5829454078902832 1 1 0
115 1 -1.2118995350185076 -2.9035919135907267 0.8179968023020373 1 1 0
126 1 -0.25733050703242866 -2.3407760209116555 1.6674720764378244 0 1 -1
123 1 0.5187414713973443 -1.8755931680751559 1.2290889493691715 -1 1 -1
92 1 3.2842270894719214 -2.336991573654636 0.7621232582722934 0 2 -1
142 1 2.8537576665436712 -3.369110508718591 0.5560526759827451 1 1 0
1 1 2.08557845839204 -2.010493903326111 0.46603456602394955 0 -1 0
12 1 -2.813558556370972 -1.5225310581093578 0.39881007051362743 0 0 1
200 1 -2.620780645842095 -0.6334500549042138 1.1697962611458572 -1 0 0
117 1 -2.3409262065663707 -1.4262844598718953 1.577896400637549 0 0 0
199 1 -1.6721028915736709 -0.3937836671461621 1.764496832035196 1 -1 1
119 1 -1.3702172421751233 -0.982726844411586 0.8109159599445125 0 -1 0
118 1 -1.22523977151256 0.049111500972962366 0.34422431168243056 0 1 0
179 1 -0.48400468992080004 -1.5634732075160336 0.9724005879568145 -1 3 1
153 1 -0.7754078116015299 -0.12746028844271876 1.3139844087365358 1 1 0
31 1 -0.21960550339589976 -0.3692535839546128 0.27760883173133294 0 -1 0
154 1 1.1892001894282327 -1.234463776085168 0.4980011557336487 -1 2 0
198 1 0.208959161472621 -0.7925251742172552 1.1981697813594612 0 0 1
133 1 0.2021894978277857 -1.321629803385425 0.21342138424976495 1 1 1
8 1 1.290866486655316 -0.32315323656178685 1.238429676489808 0 0 0
43 1 1.4755875560077207 -1.5038423322367462 1.5696783276393578 -1 -1 1
178 1 2.5595353005590473 -1.8548623704973153 1.5265130435507075 1 1 0
156 1 3.10009336795942 -1.1347768292920712 0.7103971454931245 0 -1 0
195 1 3.0488535895478486 -0.3819070637556806 1.6994009663148437 1 0 2
32 1 2.1785721999000907 -0.8868183892594861 1.0608219538420214 1 0 -1
75 1 -3.330023312049968 -0.13053199225722137 0.5772143324801579 1 -1 0
138 1 -2.126928513622699 0.2705982397065681 0.9031685365715656 0 1 -1
103 1 -2.5233875332738447 1.119832203926971 1.7143082124863906 -1 1 0
89 1 -1.5625051595744621 1.0842527403417836 0.48114251556352683 0 0 -1
73 1 -1.3841491529474708 0.7735632155517752 1.4917172788469495 0 -2 0
93 1 -0.8459409435273203 1.6986071717879083 1.233579181789839 0 -1 0
22 1 0.23130054165086983 0.3973595019638049 1.136265889331469 -1 0 -1
181 1 1.6715679048902568 0.38189497066002065 0.5813616713777726 -1 1 -1
125 1 0.7657348058398646 1.4638634812356126 0.3595929949039634 0 1 0
129 1 1.187621376432971 0.7432781269466477 1.4756104377419834 -1 0 0
186 1 0.12119836338531766 1.4258158866314226 1.7139997055217806 1 1 0
44 1 3.246466614044557 0.935266979887072 0.09504504915790167 -1 -1 1
139 1 2.294764083473655 0.2623628592978102 1.523064327633417 -1 2 0
85 1 2.6715078057197426 -0.13923978779568133 0.48921080221894214 1 0 1
100 1 2.179445623029225 1.1813699866412055 0.929258254331208 0 1 0
59 1 3.199013987449739 0.7056213255691308 1.3011789902622373 0 -1 1
184 1 -3.3541957825280964 1.6540170153788636 1.314525393258615 0 0 1
116 1 -2.5607854807212633 2.8662954762956563 0.2561876654735037 1 0 0
94 1 -2.209938696472392 1.817908573668992 0.9714554983444477 0 0 0
16 1 3.462148790854558 2.750688132987863 1.1678814516580918 0 -2 1
127 1 -0.6724215018270191 2.910608435174655 0.1393721830184081 0 -1 0
39 1 -1.4963936644183389 2.8490269023893804 1.0397387839630663 0 -2 0
109 1 1.2282064333649392 2.002097356660932 1.219647219360347 -1 1 0
13 1 -0.038761589919005045 2.283368111259498 0.6285508805046305 -1 -1 1
68 1 1.8122507294414043 2.919628635322565 1.388388027502655 0 0 1
187 1 2.839543107439997 1.9712312705165291 0.44701965347775696 0 1 0
150 1 2.6350933896773805 2.228885886643039 1.6430472643318494 0 -1 1
101 1 -2.9845915106276357 -2.643240276070094 2.6131611879137338 1 3 1
180 1 -2.4664624391703636 3.2461534604898077 2.2991216200041777 1 -1 1
131 1 -2.1198879143055582 -2.5254800707290985 2.2468458013290475 1 0 0
88 1 -1.8261664412558902 -3.2761989619835945 3.0217607589697706 0 1 -1
51 1 -1.7527244407627123 -2.1114193587023125 3.178648460302574 0 0 -1
121 1 -0.8632847382707834 -2.364486787477818 2.5298242427842235 -1 1 -1
50 1 -1.3127850841438964 -3.332989957578539 1.7903541140988317 0 1 0
63 1 1.6040989853168577 -2.8917377487223326 2.9749125296584396 -1 1 0
27 1 0.22872838010698016 -2.994984028716655 2.6653598205127595 0 0 1
10 1 0.9362147196804173 -2.581105523755157 1.9878669654444103 0 0 1
185 1 0.06742724446398485 -1.8726052150227481 3.179787889614259 -2 1 -1
62 1 0.9381874848569671 3.2183812476038773 2.122950032967029 0 0 0
108 1 3.2075816395574557 -2.6473251670969744 3.3899630726255054 1 1 -1
168 1 -3.4886505297786643 -3.024902771510678 1.648075348189236 0 1 -2
96 1 2.193516168781477 -3.220451114036294 2.031971070369377 -2 2 -1
57 1 2.897670474066688 -1.7869273194590956 2.7802854592878443 1 0 0
155 1 2.0203257801003764 -2.093908363815807 2.3651374010253265 0 0 -1
70 1 -2.289198729241698 -1.0693505000499786 3.3341581014665116 0 1 1
86 1 3.4317154036170927 -1.33629793948954 1.5868690985104916 -2 0 0
4 1 -2.642034929204445 -0.5735696636076526 2.24988074624273 0 0 -1
148 1 -2.7958435550832177 -1.6271830272245196 2.4651167378398258 0 0 0
197 1 -1.6297637248397103 -1.2496732630952756 2.4653302717640746 0 -1 -1
23 1 -1.4165843839294037 -0.23332219410733462 -3.3887252652014874 0 0 -1
78 1 -0.8539129642965406 -1.4368914881460948 3.1097976169270467 1 -1 1
134 1 -0.7681520363929484 -1.1354013495310054 1.8538106613640677 -1 0 0
66 1 -0.23373724912576396 -0.5882558302750734 2.5656269999794135 -1 -1 -1
160 1 -1.1132775718863501 0.16126595419727965 2.3994619853672896 0 0 0
18 1 0.6168554097448792 -0.8675105647197154 3.3233443940314107 0 -1 -2
5 1 0.21124689546372627 -1.527936340282886 2.128421015823146 0 -1 -1
167 1 1.157996163161525 -1.3890474926504965 2.5930120556899743 0 1 -1
176 1 0.7227757787132028 -0.4265054817409199 2.130677354553178 0 0 0
77 1 2.0007502274099562 -0.6930768409753575 2.0562080526704536 0 -1 1
136 1 2.059758900185651 -1.052357318680519 3.1194387358517117 0 -1 -2
163 1 3.3650479388293877 -0.7812523229666395 2.7231341802578797 -1 -1 0
53 1 -2.3141819292399695 1.20855609162257 -3.127003289906138 -1 -1 1
34 1 -2.2520285035649175 0.34377072469492165 3.2433897655354262 1 0 -1
82 1 -3.1361148993392707 0.2917712829104399 2.508598507937298 0 -1 -1
47 1 -2.903472142580087 1.2996380231419302 2.6614912616951822 0 1 0
159 1 -1.8421866316781088 1.3742261871908503 2.7832166426856038 0 0 0
161 1 -1.2319440636738626 0.9387211724622819 -3.4892930122068617 1 0 2
33 1 -0.4449542140900899 0.2769280403688486 3.289217283277774 0 -1 -1
191 1 -0.8687075277531521 1.281273999295463 2.3493691514045447 1 -1 0
20 1 -0.12835229617409075 0.4001437971686418 2.091186274425671 1 0 -1
21 1 1.5590447736292827 0.23116165627532026 2.4331182207698356 1 0 -1
83 1 0.6019872094726322 0.17868421219256525 2.965010196172179 0 -2 0
107 1 -0.09314344901480053 1.8386195873289717 2.9198165047206524 -1 1 0
97 1 0.9500008570521725 1.1147256892756756 2.5445482565685626 0 -1 -1
15 1 2.6866827472081427 0.05611542822496954 2.621280841687164 -1 0 -1
40 1 2.0535009935702107 1.3482348414084473 2.153119101811638 0 0 0
110 1 3.037377950690711 1.1454318013031137 2.4602998295324308 0 0 -2
54 1 2.1368310833242825 0.6989281938007096 3.190545712320829 0 -1 -1
71 1 -2.6906257490825327 2.3188264822083675 1.851572369390678 0 -1 -1
45 1 -1.8822606439217724 2.5464355632785174 2.887157746831732 1 0 -1
2 1 -1.527738763941238 2.1784215473644295 1.8498426738676617 1 -2 -1
67 1 -1.014923597719753 2.0522310481028465 3.091487536680741 1 0 0
192 1 -0.8672155474955553 3.087168735274927 2.6165250257240618 1 0 1
124 1 -0.37769468839105996 2.5506571887551175 1.8053870882842125 1 -1 -1
46 1 -0.2092884053324724 2.562694157698328 -3.2372195292692605 1 -1 -1
114 1 -0.2001222858286487 -3.429888000295159 1.8301280696628333 0 0 0
61 1 0.5140644440329998 2.208326878392573 2.2153556959139413 -1 -2 0
169 1 1.5629071468921552 2.2983930760888316 2.2366483189031316 0 0 0
128 1 -3.438885935852406 3.376929578988928 3.002455750479755 1 0 -2
52 1 -3.4549495641597217 2.178628786705743 2.923210719991474 0 -1 0
48 1 2.502392696348409 2.9340155922847346 2.5991521468190113 0 0 -1
