LAMMPS (28 Mar 2023)
Running on 2 partitions of processors
