LAMMPS (14 Aug 2013)
Reading data file ...
  orthogonal box = (-37.835 -16.215 -16.215) to (37.835 16.215 16.215)
  4 by 1 by 1 MPI processor grid
  1288 atoms
  1288 velocities
Lattice spacing in x,y,z = 5.405 5.405 5.405
1000 atoms in group internal
288 atoms in group ghost
Lattice spacing in x,y,z = 5.405 5.405 5.405
ATC: constructing thermal coupling with parameter file Ar_thermal.mat
 ATC: peratom PE compute created with ID: 3
 ATC: 1 materials defined from Ar_thermal.mat
 ATC: created uniform mesh with 28 nodes, 7 unique nodes, and 6 elements
 ATC: created nodeset lbc with 1 nodes
 ATC: created nodeset rbc with 1 nodes
Setting up run ...
Memory usage per processor = 49.3207 Mbytes
Step CPU TotEng PotEng AtC[1] Temp AtC[2] 
     0       0   -994.32071   -1292.1036    1073.0916         99.9          100 
   200       1    -1039.357    -1337.438    1073.0916          100          100 
   400     1.9   -1063.9771   -1362.0581    1073.0916          100          100 
   600     2.9   -1077.6783   -1375.7593    1073.0916          100          100 
   800     3.8    -1088.068    -1386.149    1073.0916          100          100 
  1000     5.8   -1087.7336   -1385.8146    1073.0916          100          100 
  1200     6.7   -1093.3541   -1391.4351    1073.0916          100          100 
  1400       8    -1092.143    -1390.224    1073.0916          100          100 
  1600     8.9   -1092.6395   -1390.7205    1073.0916          100          100 
  1800     9.9   -1098.4744   -1396.5554    1073.0916          100          100 
  2000      11   -1096.3326   -1394.4136    1073.0916          100          100 
Loop time of 10.7926 on 4 procs for 2000 steps with 1288 atoms

Pair  time (%) = 4.54746 (42.1348)
Neigh time (%) = 1.91457 (17.7396)
Comm  time (%) = 1.38715 (12.8527)
Outpt time (%) = 0.00288278 (0.0267106)
Other time (%) = 2.94058 (27.2462)

Nlocal:    322 ave 349 max 294 min
Histogram: 2 0 0 0 0 0 0 0 0 2
Nghost:    3306 ave 4004 max 2612 min
Histogram: 2 0 0 0 0 0 0 0 0 2
Neighs:    59447.5 ave 61515 max 57250 min
Histogram: 2 0 0 0 0 0 0 0 0 2
FullNghs:  118895 ave 123082 max 114432 min
Histogram: 1 1 0 0 0 0 0 0 0 2

Total # of neighbors = 475580
Ave neighs/atom = 369.239
Neighbor list builds = 200
Dangerous builds = 0
 ATC: Warning : text output can create _LARGE_ files
 ATC: output custom names:

Setting up run ...
Memory usage per processor = 56.0218 Mbytes
Step CPU TotEng PotEng AtC[1] Temp AtC[2] 
     0       0   -1096.3326   -1394.4136    1073.0916          100          100 
   100    0.53   -1097.1297   -1393.4516    1075.1972    99.409862    100.23926 
   200       1   -1096.0757    -1399.305    1075.4399    101.72715    100.33007 
   300     1.6   -1092.2745    -1395.827    1078.6046    101.83557    100.65429 
   400     2.1   -1090.7478   -1387.1617    1078.4832    99.440713    100.71601 
   500     2.6   -1094.2309   -1405.4917      1082.77    104.42152    101.12986 
   600     3.1   -1092.5375   -1398.2596    1088.0437    102.56341    101.62253 
   700     3.7   -1092.1714   -1403.4837    1093.2974    104.43883     102.1136 
   800     4.2   -1088.0883   -1402.5474    1099.5467     105.4945     102.6842 
   900     4.7   -1096.5611   -1407.2614    1106.6337     104.2335    103.32171 
  1000     5.2   -1096.0664   -1410.5711    1107.5876    105.50984    103.46933 
  1100     5.7   -1093.3795   -1398.4056     1109.412    102.32995    103.68648 
  1200     6.9   -1094.9691   -1405.2381    1110.9358    104.08883    103.87963 
  1300     8.4     -1099.21   -1406.5076    1109.7276    103.09197    103.85455 
  1400     9.5   -1096.4599    -1409.163    1112.0859     104.9054    104.11435 
  1500      15   -1093.8693   -1402.2613    1115.3316    103.45912    104.44504 
  1600      16   -1099.7654   -1418.4301    1116.8226    106.90538    104.63556 
  1700      22   -1096.8766   -1410.0213    1122.0201    105.05356    105.12214 
  1800      26   -1097.6888   -1415.4839    1123.5055    106.61369    105.31222 
  1900      29   -1091.0457   -1407.4814     1127.847    106.15762    105.73043 
  2000      29     -1087.88   -1410.9303     1132.576     108.3767    106.17959 
Loop time of 29.4659 on 4 procs for 2000 steps with 1288 atoms

Pair  time (%) = 5.39338 (18.3038)
Neigh time (%) = 2.56404 (8.7017)
Comm  time (%) = 6.58258 (22.3396)
Outpt time (%) = 0.115528 (0.392073)
Other time (%) = 14.8104 (50.2628)

Nlocal:    322 ave 357 max 288 min
Histogram: 1 1 0 0 0 0 0 0 1 1
Nghost:    3290.75 ave 4029 max 2581 min
Histogram: 2 0 0 0 0 0 0 0 0 2
Neighs:    59412.5 ave 63932 max 55464 min
Histogram: 1 0 1 0 0 0 1 0 0 1
FullNghs:  118825 ave 127926 max 110803 min
Histogram: 1 0 1 0 0 0 1 0 0 1

Total # of neighbors = 475300
Ave neighs/atom = 369.022
Neighbor list builds = 200
Dangerous builds = 0
Setting up run ...
Memory usage per processor = 56.0218 Mbytes
Step CPU TotEng PotEng AtC[1] Temp AtC[2] 
  2000       0     -1087.88   -1410.9303     1132.576     108.3767    106.17959 
  2100     7.9   -1091.2838   -1411.7447    1136.7596    107.50799    106.51412 
  2200     9.3   -1087.4168   -1410.7195      1140.19    108.46135    106.78813 
  2300      10   -1083.8716   -1416.0271    1148.7049    111.43128    107.46826 
  2400      19   -1091.2629   -1419.2548     1154.945     110.0345     107.9667 
  2500      21   -1085.6579   -1412.5054    1159.6405    109.65056    108.34175 
  2600      22   -1087.4854   -1415.3304     1163.337    109.98522    108.63701 
  2700      23   -1085.9108   -1418.0071    1166.5382     111.4114    108.89271 
  2800      24   -1086.1867   -1409.9525    1170.0101    108.61673    109.17004 
  2900      26   -1087.6424    -1414.342    1170.7793    109.60095    109.23147 
  3000      28   -1086.4899   -1406.3424    1168.9883    107.30389    109.08841 
  3100      33   -1088.2206    -1415.602    1168.5555    109.82968    109.05384 
  3200      34   -1088.1639   -1405.8117    1167.0205    106.56424    108.93124 
  3300      35   -1092.1189   -1412.2062    1164.7511    107.38266    108.74997 
  3400      43   -1089.7001   -1409.1671    1163.2716    107.17456    108.63179 
  3500      45   -1096.5551   -1411.0879    1159.1282    105.51925    108.30083 
  3600      45     -1094.65   -1413.2194    1154.2549    106.87345    107.91157 
  3700      46   -1096.9933   -1406.3656    1150.9523      103.788    107.64778 
  3800      47   -1091.9401    -1404.356    1147.2503    104.80904    107.35207 
  3900      47    -1087.998   -1407.1701    1146.0989    107.07564     107.2601 
  4000      50   -1095.8818   -1411.8326    1144.6278    105.99494     107.1426 
  4100      54   -1097.5819   -1412.4007    1144.1232    105.61516    107.10229 
  4200      56   -1098.6452   -1408.5634    1143.4876    103.97114    107.05152 
  4300      57   -1092.6405   -1406.6538    1140.8735    105.34494    106.84272 
  4400      58   -1093.7564   -1406.7458    1139.2442    105.00146    106.71258 
  4500      58   -1095.6025   -1411.6037    1139.2304    106.01182    106.71148 
  4600      60   -1104.0547   -1417.3245    1140.0447    105.09552    106.77652 
  4700      69   -1099.1767    -1415.132    1138.1578    105.99644     106.6258 
  4800      70   -1104.7266   -1421.7194    1137.6765    106.34453    106.58735 
  4900      71   -1099.3521   -1416.1386    1139.6396    106.27528    106.74416 
  5000      73   -1102.0311   -1422.1342    1140.1617    107.38796    106.78586 
  5100      75   -1099.9553   -1423.0918    1142.2784     108.4056    106.95494 
  5200      80   -1097.3863   -1421.3598    1145.6828    108.68639    107.22687 
  5300      81   -1094.5474   -1415.4736    1148.3123     107.6641     107.4369 
  5400      82   -1101.9624   -1416.5216    1148.1412    105.52807    107.42323 
  5500      83   -1099.6507   -1418.3752    1146.1342    106.92544    107.26292 
  5600      91    -1085.351   -1412.4144    1149.2494    109.72299    107.51175 
  5700      92   -1089.1937   -1408.3714    1151.8951     107.0775    107.72308 
  5800      92   -1098.7444   -1422.1218    1152.7943    108.48641     107.7949 
  5900      94   -1089.3746   -1412.4578    1153.8446     108.3877     107.8788 
  6000   1e+02   -1095.5262   -1420.9521    1156.6272    109.17363    108.10106 
Loop time of 103.93 on 4 procs for 4000 steps with 1288 atoms

Pair  time (%) = 12.9055 (12.4175)
Neigh time (%) = 6.4635 (6.21906)
Comm  time (%) = 23.7367 (22.839)
Outpt time (%) = 0.16248 (0.156335)
Other time (%) = 60.6623 (58.3681)

Nlocal:    322 ave 379 max 280 min
Histogram: 1 1 0 0 0 1 0 0 0 1
Nghost:    3294 ave 4103 max 2559 min
Histogram: 2 0 0 0 0 0 0 0 1 1
Neighs:    59569 ave 71977 max 55076 min
Histogram: 3 0 0 0 0 0 0 0 0 1
FullNghs:  119138 ave 143935 max 110133 min
Histogram: 3 0 0 0 0 0 0 0 0 1

Total # of neighbors = 476552
Ave neighs/atom = 369.994
Neighbor list builds = 400
Dangerous builds = 0
