LAMMPS data file from restart file: timestep = 0, procs = 1

1288 atoms

2 atom types

-3.7835000000000001e+01 3.7835000000000001e+01 xlo xhi
-1.6215000000000000e+01 1.6215000000000000e+01 ylo yhi
-1.6215000000000000e+01 1.6215000000000000e+01 zlo zhi

Masses

1 39.95
2 39.95

Pair Coeffs

1 0.238 3.405
2 0.238 3.405

Atoms

1 1 -3.6483750000000001e+01 -1.4863750000000000e+01 -1.4863750000000000e+01 0 0 0
2 1 -3.3781250000000000e+01 -1.2161250000000001e+01 -1.4863750000000000e+01 0 0 0
3 1 -3.3781250000000000e+01 -1.4863750000000000e+01 -1.2161250000000001e+01 0 0 0
4 1 -3.6483750000000001e+01 -1.2161250000000001e+01 -1.2161250000000001e+01 0 0 0
5 1 3.3781250000000000e+01 -1.4863750000000000e+01 -1.4863750000000000e+01 0 0 0
6 1 3.6483750000000001e+01 -1.2161250000000001e+01 -1.4863750000000000e+01 0 0 0
7 1 3.6483750000000001e+01 -1.4863750000000000e+01 -1.2161250000000001e+01 0 0 0
8 1 3.3781250000000000e+01 -1.2161250000000001e+01 -1.2161250000000001e+01 0 0 0
9 1 -3.6483750000000001e+01 -9.4587500000000002e+00 -1.4863750000000000e+01 0 0 0
10 1 -3.3781250000000000e+01 -6.7562499999999996e+00 -1.4863750000000000e+01 0 0 0
11 1 -3.3781250000000000e+01 -9.4587500000000002e+00 -1.2161250000000001e+01 0 0 0
12 1 -3.6483750000000001e+01 -6.7562499999999996e+00 -1.2161250000000001e+01 0 0 0
13 1 3.3781250000000000e+01 -9.4587500000000002e+00 -1.4863750000000000e+01 0 0 0
14 1 3.6483750000000001e+01 -6.7562499999999996e+00 -1.4863750000000000e+01 0 0 0
15 1 3.6483750000000001e+01 -9.4587500000000002e+00 -1.2161250000000001e+01 0 0 0
16 1 3.3781250000000000e+01 -6.7562499999999996e+00 -1.2161250000000001e+01 0 0 0
17 1 -3.6483750000000001e+01 -4.0537500000000000e+00 -1.4863750000000000e+01 0 0 0
18 1 -3.3781250000000000e+01 -1.3512500000000001e+00 -1.4863750000000000e+01 0 0 0
19 1 -3.3781250000000000e+01 -4.0537500000000000e+00 -1.2161250000000001e+01 0 0 0
20 1 -3.6483750000000001e+01 -1.3512500000000001e+00 -1.2161250000000001e+01 0 0 0
21 1 3.3781250000000000e+01 -4.0537500000000000e+00 -1.4863750000000000e+01 0 0 0
22 1 3.6483750000000001e+01 -1.3512500000000001e+00 -1.4863750000000000e+01 0 0 0
23 1 3.6483750000000001e+01 -4.0537500000000000e+00 -1.2161250000000001e+01 0 0 0
24 1 3.3781250000000000e+01 -1.3512500000000001e+00 -1.2161250000000001e+01 0 0 0
25 1 -3.6483750000000001e+01 1.3512500000000001e+00 -1.4863750000000000e+01 0 0 0
26 1 -3.3781250000000000e+01 4.0537500000000000e+00 -1.4863750000000000e+01 0 0 0
27 1 -3.3781250000000000e+01 1.3512500000000001e+00 -1.2161250000000001e+01 0 0 0
28 1 -3.6483750000000001e+01 4.0537500000000000e+00 -1.2161250000000001e+01 0 0 0
29 1 3.3781250000000000e+01 1.3512500000000001e+00 -1.4863750000000000e+01 0 0 0
30 1 3.6483750000000001e+01 4.0537500000000000e+00 -1.4863750000000000e+01 0 0 0
31 1 3.6483750000000001e+01 1.3512500000000001e+00 -1.2161250000000001e+01 0 0 0
32 1 3.3781250000000000e+01 4.0537500000000000e+00 -1.2161250000000001e+01 0 0 0
33 1 -3.6483750000000001e+01 6.7562500000000005e+00 -1.4863750000000000e+01 0 0 0
34 1 -3.3781250000000000e+01 9.4587500000000002e+00 -1.4863750000000000e+01 0 0 0
35 1 -3.3781250000000000e+01 6.7562500000000005e+00 -1.2161250000000001e+01 0 0 0
36 1 -3.6483750000000001e+01 9.4587500000000002e+00 -1.2161250000000001e+01 0 0 0
37 1 3.3781250000000000e+01 6.7562500000000005e+00 -1.4863750000000000e+01 0 0 0
38 1 3.6483750000000001e+01 9.4587500000000002e+00 -1.4863750000000000e+01 0 0 0
39 1 3.6483750000000001e+01 6.7562500000000005e+00 -1.2161250000000001e+01 0 0 0
40 1 3.3781250000000000e+01 9.4587500000000002e+00 -1.2161250000000001e+01 0 0 0
41 1 -3.6483750000000001e+01 1.2161250000000001e+01 -1.4863750000000000e+01 0 0 0
42 1 -3.3781250000000000e+01 1.4863750000000001e+01 -1.4863750000000000e+01 0 0 0
43 1 -3.3781250000000000e+01 1.2161250000000001e+01 -1.2161250000000001e+01 0 0 0
44 1 -3.6483750000000001e+01 1.4863750000000001e+01 -1.2161250000000001e+01 0 0 0
45 1 3.3781250000000000e+01 1.2161250000000001e+01 -1.4863750000000000e+01 0 0 0
46 1 3.6483750000000001e+01 1.4863750000000001e+01 -1.4863750000000000e+01 0 0 0
47 1 3.6483750000000001e+01 1.2161250000000001e+01 -1.2161250000000001e+01 0 0 0
48 1 3.3781250000000000e+01 1.4863750000000001e+01 -1.2161250000000001e+01 0 0 0
49 1 -3.6483750000000001e+01 -1.4863750000000000e+01 -9.4587500000000002e+00 0 0 0
50 1 -3.3781250000000000e+01 -1.2161250000000001e+01 -9.4587500000000002e+00 0 0 0
51 1 -3.3781250000000000e+01 -1.4863750000000000e+01 -6.7562499999999996e+00 0 0 0
52 1 -3.6483750000000001e+01 -1.2161250000000001e+01 -6.7562499999999996e+00 0 0 0
53 1 3.3781250000000000e+01 -1.4863750000000000e+01 -9.4587500000000002e+00 0 0 0
54 1 3.6483750000000001e+01 -1.2161250000000001e+01 -9.4587500000000002e+00 0 0 0
55 1 3.6483750000000001e+01 -1.4863750000000000e+01 -6.7562499999999996e+00 0 0 0
56 1 3.3781250000000000e+01 -1.2161250000000001e+01 -6.7562499999999996e+00 0 0 0
57 1 -3.6483750000000001e+01 -9.4587500000000002e+00 -9.4587500000000002e+00 0 0 0
58 1 -3.3781250000000000e+01 -6.7562499999999996e+00 -9.4587500000000002e+00 0 0 0
59 1 -3.3781250000000000e+01 -9.4587500000000002e+00 -6.7562499999999996e+00 0 0 0
60 1 -3.6483750000000001e+01 -6.7562499999999996e+00 -6.7562499999999996e+00 0 0 0
61 1 3.3781250000000000e+01 -9.4587500000000002e+00 -9.4587500000000002e+00 0 0 0
62 1 3.6483750000000001e+01 -6.7562499999999996e+00 -9.4587500000000002e+00 0 0 0
63 1 3.6483750000000001e+01 -9.4587500000000002e+00 -6.7562499999999996e+00 0 0 0
64 1 3.3781250000000000e+01 -6.7562499999999996e+00 -6.7562499999999996e+00 0 0 0
65 1 -3.6483750000000001e+01 -4.0537500000000000e+00 -9.4587500000000002e+00 0 0 0
66 1 -3.3781250000000000e+01 -1.3512500000000001e+00 -9.4587500000000002e+00 0 0 0
67 1 -3.3781250000000000e+01 -4.0537500000000000e+00 -6.7562499999999996e+00 0 0 0
68 1 -3.6483750000000001e+01 -1.3512500000000001e+00 -6.7562499999999996e+00 0 0 0
69 1 3.3781250000000000e+01 -4.0537500000000000e+00 -9.4587500000000002e+00 0 0 0
70 1 3.6483750000000001e+01 -1.3512500000000001e+00 -9.4587500000000002e+00 0 0 0
71 1 3.6483750000000001e+01 -4.0537500000000000e+00 -6.7562499999999996e+00 0 0 0
72 1 3.3781250000000000e+01 -1.3512500000000001e+00 -6.7562499999999996e+00 0 0 0
73 1 -3.6483750000000001e+01 1.3512500000000001e+00 -9.4587500000000002e+00 0 0 0
74 1 -3.3781250000000000e+01 4.0537500000000000e+00 -9.4587500000000002e+00 0 0 0
75 1 -3.3781250000000000e+01 1.3512500000000001e+00 -6.7562499999999996e+00 0 0 0
76 1 -3.6483750000000001e+01 4.0537500000000000e+00 -6.7562499999999996e+00 0 0 0
77 1 3.3781250000000000e+01 1.3512500000000001e+00 -9.4587500000000002e+00 0 0 0
78 1 3.6483750000000001e+01 4.0537500000000000e+00 -9.4587500000000002e+00 0 0 0
79 1 3.6483750000000001e+01 1.3512500000000001e+00 -6.7562499999999996e+00 0 0 0
80 1 3.3781250000000000e+01 4.0537500000000000e+00 -6.7562499999999996e+00 0 0 0
81 1 -3.6483750000000001e+01 6.7562500000000005e+00 -9.4587500000000002e+00 0 0 0
82 1 -3.3781250000000000e+01 9.4587500000000002e+00 -9.4587500000000002e+00 0 0 0
83 1 -3.3781250000000000e+01 6.7562500000000005e+00 -6.7562499999999996e+00 0 0 0
84 1 -3.6483750000000001e+01 9.4587500000000002e+00 -6.7562499999999996e+00 0 0 0
85 1 3.3781250000000000e+01 6.7562500000000005e+00 -9.4587500000000002e+00 0 0 0
86 1 3.6483750000000001e+01 9.4587500000000002e+00 -9.4587500000000002e+00 0 0 0
87 1 3.6483750000000001e+01 6.7562500000000005e+00 -6.7562499999999996e+00 0 0 0
88 1 3.3781250000000000e+01 9.4587500000000002e+00 -6.7562499999999996e+00 0 0 0
89 1 -3.6483750000000001e+01 1.2161250000000001e+01 -9.4587500000000002e+00 0 0 0
90 1 -3.3781250000000000e+01 1.4863750000000001e+01 -9.4587500000000002e+00 0 0 0
91 1 -3.3781250000000000e+01 1.2161250000000001e+01 -6.7562499999999996e+00 0 0 0
92 1 -3.6483750000000001e+01 1.4863750000000001e+01 -6.7562499999999996e+00 0 0 0
93 1 3.3781250000000000e+01 1.2161250000000001e+01 -9.4587500000000002e+00 0 0 0
94 1 3.6483750000000001e+01 1.4863750000000001e+01 -9.4587500000000002e+00 0 0 0
95 1 3.6483750000000001e+01 1.2161250000000001e+01 -6.7562499999999996e+00 0 0 0
96 1 3.3781250000000000e+01 1.4863750000000001e+01 -6.7562499999999996e+00 0 0 0
97 1 -3.6483750000000001e+01 -1.4863750000000000e+01 -4.0537500000000000e+00 0 0 0
98 1 -3.3781250000000000e+01 -1.2161250000000001e+01 -4.0537500000000000e+00 0 0 0
99 1 -3.3781250000000000e+01 -1.4863750000000000e+01 -1.3512500000000001e+00 0 0 0
100 1 -3.6483750000000001e+01 -1.2161250000000001e+01 -1.3512500000000001e+00 0 0 0
101 1 3.3781250000000000e+01 -1.4863750000000000e+01 -4.0537500000000000e+00 0 0 0
102 1 3.6483750000000001e+01 -1.2161250000000001e+01 -4.0537500000000000e+00 0 0 0
103 1 3.6483750000000001e+01 -1.4863750000000000e+01 -1.3512500000000001e+00 0 0 0
104 1 3.3781250000000000e+01 -1.2161250000000001e+01 -1.3512500000000001e+00 0 0 0
105 1 -3.6483750000000001e+01 -9.4587500000000002e+00 -4.0537500000000000e+00 0 0 0
106 1 -3.3781250000000000e+01 -6.7562499999999996e+00 -4.0537500000000000e+00 0 0 0
107 1 -3.3781250000000000e+01 -9.4587500000000002e+00 -1.3512500000000001e+00 0 0 0
108 1 -3.6483750000000001e+01 -6.7562499999999996e+00 -1.3512500000000001e+00 0 0 0
109 1 3.3781250000000000e+01 -9.4587500000000002e+00 -4.0537500000000000e+00 0 0 0
110 1 3.6483750000000001e+01 -6.7562499999999996e+00 -4.0537500000000000e+00 0 0 0
111 1 3.6483750000000001e+01 -9.4587500000000002e+00 -1.3512500000000001e+00 0 0 0
112 1 3.3781250000000000e+01 -6.7562499999999996e+00 -1.3512500000000001e+00 0 0 0
113 1 -3.6483750000000001e+01 -4.0537500000000000e+00 -4.0537500000000000e+00 0 0 0
114 1 -3.3781250000000000e+01 -1.3512500000000001e+00 -4.0537500000000000e+00 0 0 0
115 1 -3.3781250000000000e+01 -4.0537500000000000e+00 -1.3512500000000001e+00 0 0 0
116 1 -3.6483750000000001e+01 -1.3512500000000001e+00 -1.3512500000000001e+00 0 0 0
117 1 3.3781250000000000e+01 -4.0537500000000000e+00 -4.0537500000000000e+00 0 0 0
118 1 3.6483750000000001e+01 -1.3512500000000001e+00 -4.0537500000000000e+00 0 0 0
119 1 3.6483750000000001e+01 -4.0537500000000000e+00 -1.3512500000000001e+00 0 0 0
120 1 3.3781250000000000e+01 -1.3512500000000001e+00 -1.3512500000000001e+00 0 0 0
121 1 -3.6483750000000001e+01 1.3512500000000001e+00 -4.0537500000000000e+00 0 0 0
122 1 -3.3781250000000000e+01 4.0537500000000000e+00 -4.0537500000000000e+00 0 0 0
123 1 -3.3781250000000000e+01 1.3512500000000001e+00 -1.3512500000000001e+00 0 0 0
124 1 -3.6483750000000001e+01 4.0537500000000000e+00 -1.3512500000000001e+00 0 0 0
125 1 3.3781250000000000e+01 1.3512500000000001e+00 -4.0537500000000000e+00 0 0 0
126 1 3.6483750000000001e+01 4.0537500000000000e+00 -4.0537500000000000e+00 0 0 0
127 1 3.6483750000000001e+01 1.3512500000000001e+00 -1.3512500000000001e+00 0 0 0
128 1 3.3781250000000000e+01 4.0537500000000000e+00 -1.3512500000000001e+00 0 0 0
129 1 -3.6483750000000001e+01 6.7562500000000005e+00 -4.0537500000000000e+00 0 0 0
130 1 -3.3781250000000000e+01 9.4587500000000002e+00 -4.0537500000000000e+00 0 0 0
131 1 -3.3781250000000000e+01 6.7562500000000005e+00 -1.3512500000000001e+00 0 0 0
132 1 -3.6483750000000001e+01 9.4587500000000002e+00 -1.3512500000000001e+00 0 0 0
133 1 3.3781250000000000e+01 6.7562500000000005e+00 -4.0537500000000000e+00 0 0 0
134 1 3.6483750000000001e+01 9.4587500000000002e+00 -4.0537500000000000e+00 0 0 0
135 1 3.6483750000000001e+01 6.7562500000000005e+00 -1.3512500000000001e+00 0 0 0
136 1 3.3781250000000000e+01 9.4587500000000002e+00 -1.3512500000000001e+00 0 0 0
137 1 -3.6483750000000001e+01 1.2161250000000001e+01 -4.0537500000000000e+00 0 0 0
138 1 -3.3781250000000000e+01 1.4863750000000001e+01 -4.0537500000000000e+00 0 0 0
139 1 -3.3781250000000000e+01 1.2161250000000001e+01 -1.3512500000000001e+00 0 0 0
140 1 -3.6483750000000001e+01 1.4863750000000001e+01 -1.3512500000000001e+00 0 0 0
141 1 3.3781250000000000e+01 1.2161250000000001e+01 -4.0537500000000000e+00 0 0 0
142 1 3.6483750000000001e+01 1.4863750000000001e+01 -4.0537500000000000e+00 0 0 0
143 1 3.6483750000000001e+01 1.2161250000000001e+01 -1.3512500000000001e+00 0 0 0
144 1 3.3781250000000000e+01 1.4863750000000001e+01 -1.3512500000000001e+00 0 0 0
145 1 -3.6483750000000001e+01 -1.4863750000000000e+01 1.3512500000000001e+00 0 0 0
146 1 -3.3781250000000000e+01 -1.2161250000000001e+01 1.3512500000000001e+00 0 0 0
147 1 -3.3781250000000000e+01 -1.4863750000000000e+01 4.0537500000000000e+00 0 0 0
148 1 -3.6483750000000001e+01 -1.2161250000000001e+01 4.0537500000000000e+00 0 0 0
149 1 3.3781250000000000e+01 -1.4863750000000000e+01 1.3512500000000001e+00 0 0 0
150 1 3.6483750000000001e+01 -1.2161250000000001e+01 1.3512500000000001e+00 0 0 0
151 1 3.6483750000000001e+01 -1.4863750000000000e+01 4.0537500000000000e+00 0 0 0
152 1 3.3781250000000000e+01 -1.2161250000000001e+01 4.0537500000000000e+00 0 0 0
153 1 -3.6483750000000001e+01 -9.4587500000000002e+00 1.3512500000000001e+00 0 0 0
154 1 -3.3781250000000000e+01 -6.7562499999999996e+00 1.3512500000000001e+00 0 0 0
155 1 -3.3781250000000000e+01 -9.4587500000000002e+00 4.0537500000000000e+00 0 0 0
156 1 -3.6483750000000001e+01 -6.7562499999999996e+00 4.0537500000000000e+00 0 0 0
157 1 3.3781250000000000e+01 -9.4587500000000002e+00 1.3512500000000001e+00 0 0 0
158 1 3.6483750000000001e+01 -6.7562499999999996e+00 1.3512500000000001e+00 0 0 0
159 1 3.6483750000000001e+01 -9.4587500000000002e+00 4.0537500000000000e+00 0 0 0
160 1 3.3781250000000000e+01 -6.7562499999999996e+00 4.0537500000000000e+00 0 0 0
161 1 -3.6483750000000001e+01 -4.0537500000000000e+00 1.3512500000000001e+00 0 0 0
162 1 -3.3781250000000000e+01 -1.3512500000000001e+00 1.3512500000000001e+00 0 0 0
163 1 -3.3781250000000000e+01 -4.0537500000000000e+00 4.0537500000000000e+00 0 0 0
164 1 -3.6483750000000001e+01 -1.3512500000000001e+00 4.0537500000000000e+00 0 0 0
165 1 3.3781250000000000e+01 -4.0537500000000000e+00 1.3512500000000001e+00 0 0 0
166 1 3.6483750000000001e+01 -1.3512500000000001e+00 1.3512500000000001e+00 0 0 0
167 1 3.6483750000000001e+01 -4.0537500000000000e+00 4.0537500000000000e+00 0 0 0
168 1 3.3781250000000000e+01 -1.3512500000000001e+00 4.0537500000000000e+00 0 0 0
169 1 -3.6483750000000001e+01 1.3512500000000001e+00 1.3512500000000001e+00 0 0 0
170 1 -3.3781250000000000e+01 4.0537500000000000e+00 1.3512500000000001e+00 0 0 0
171 1 -3.3781250000000000e+01 1.3512500000000001e+00 4.0537500000000000e+00 0 0 0
172 1 -3.6483750000000001e+01 4.0537500000000000e+00 4.0537500000000000e+00 0 0 0
173 1 3.3781250000000000e+01 1.3512500000000001e+00 1.3512500000000001e+00 0 0 0
174 1 3.6483750000000001e+01 4.0537500000000000e+00 1.3512500000000001e+00 0 0 0
175 1 3.6483750000000001e+01 1.3512500000000001e+00 4.0537500000000000e+00 0 0 0
176 1 3.3781250000000000e+01 4.0537500000000000e+00 4.0537500000000000e+00 0 0 0
177 1 -3.6483750000000001e+01 6.7562500000000005e+00 1.3512500000000001e+00 0 0 0
178 1 -3.3781250000000000e+01 9.4587500000000002e+00 1.3512500000000001e+00 0 0 0
179 1 -3.3781250000000000e+01 6.7562500000000005e+00 4.0537500000000000e+00 0 0 0
180 1 -3.6483750000000001e+01 9.4587500000000002e+00 4.0537500000000000e+00 0 0 0
181 1 3.3781250000000000e+01 6.7562500000000005e+00 1.3512500000000001e+00 0 0 0
182 1 3.6483750000000001e+01 9.4587500000000002e+00 1.3512500000000001e+00 0 0 0
183 1 3.6483750000000001e+01 6.7562500000000005e+00 4.0537500000000000e+00 0 0 0
184 1 3.3781250000000000e+01 9.4587500000000002e+00 4.0537500000000000e+00 0 0 0
185 1 -3.6483750000000001e+01 1.2161250000000001e+01 1.3512500000000001e+00 0 0 0
186 1 -3.3781250000000000e+01 1.4863750000000001e+01 1.3512500000000001e+00 0 0 0
187 1 -3.3781250000000000e+01 1.2161250000000001e+01 4.0537500000000000e+00 0 0 0
188 1 -3.6483750000000001e+01 1.4863750000000001e+01 4.0537500000000000e+00 0 0 0
189 1 3.3781250000000000e+01 1.2161250000000001e+01 1.3512500000000001e+00 0 0 0
190 1 3.6483750000000001e+01 1.4863750000000001e+01 1.3512500000000001e+00 0 0 0
191 1 3.6483750000000001e+01 1.2161250000000001e+01 4.0537500000000000e+00 0 0 0
192 1 3.3781250000000000e+01 1.4863750000000001e+01 4.0537500000000000e+00 0 0 0
193 1 -3.6483750000000001e+01 -1.4863750000000000e+01 6.7562500000000005e+00 0 0 0
194 1 -3.3781250000000000e+01 -1.2161250000000001e+01 6.7562500000000005e+00 0 0 0
195 1 -3.3781250000000000e+01 -1.4863750000000000e+01 9.4587500000000002e+00 0 0 0
196 1 -3.6483750000000001e+01 -1.2161250000000001e+01 9.4587500000000002e+00 0 0 0
197 1 3.3781250000000000e+01 -1.4863750000000000e+01 6.7562500000000005e+00 0 0 0
198 1 3.6483750000000001e+01 -1.2161250000000001e+01 6.7562500000000005e+00 0 0 0
199 1 3.6483750000000001e+01 -1.4863750000000000e+01 9.4587500000000002e+00 0 0 0
200 1 3.3781250000000000e+01 -1.2161250000000001e+01 9.4587500000000002e+00 0 0 0
201 1 -3.6483750000000001e+01 -9.4587500000000002e+00 6.7562500000000005e+00 0 0 0
202 1 -3.3781250000000000e+01 -6.7562499999999996e+00 6.7562500000000005e+00 0 0 0
203 1 -3.3781250000000000e+01 -9.4587500000000002e+00 9.4587500000000002e+00 0 0 0
204 1 -3.6483750000000001e+01 -6.7562499999999996e+00 9.4587500000000002e+00 0 0 0
205 1 3.3781250000000000e+01 -9.4587500000000002e+00 6.7562500000000005e+00 0 0 0
206 1 3.6483750000000001e+01 -6.7562499999999996e+00 6.7562500000000005e+00 0 0 0
207 1 3.6483750000000001e+01 -9.4587500000000002e+00 9.4587500000000002e+00 0 0 0
208 1 3.3781250000000000e+01 -6.7562499999999996e+00 9.4587500000000002e+00 0 0 0
209 1 -3.6483750000000001e+01 -4.0537500000000000e+00 6.7562500000000005e+00 0 0 0
210 1 -3.3781250000000000e+01 -1.3512500000000001e+00 6.7562500000000005e+00 0 0 0
211 1 -3.3781250000000000e+01 -4.0537500000000000e+00 9.4587500000000002e+00 0 0 0
212 1 -3.6483750000000001e+01 -1.3512500000000001e+00 9.4587500000000002e+00 0 0 0
213 1 3.3781250000000000e+01 -4.0537500000000000e+00 6.7562500000000005e+00 0 0 0
214 1 3.6483750000000001e+01 -1.3512500000000001e+00 6.7562500000000005e+00 0 0 0
215 1 3.6483750000000001e+01 -4.0537500000000000e+00 9.4587500000000002e+00 0 0 0
216 1 3.3781250000000000e+01 -1.3512500000000001e+00 9.4587500000000002e+00 0 0 0
217 1 -3.6483750000000001e+01 1.3512500000000001e+00 6.7562500000000005e+00 0 0 0
218 1 -3.3781250000000000e+01 4.0537500000000000e+00 6.7562500000000005e+00 0 0 0
219 1 -3.3781250000000000e+01 1.3512500000000001e+00 9.4587500000000002e+00 0 0 0
220 1 -3.6483750000000001e+01 4.0537500000000000e+00 9.4587500000000002e+00 0 0 0
221 1 3.3781250000000000e+01 1.3512500000000001e+00 6.7562500000000005e+00 0 0 0
222 1 3.6483750000000001e+01 4.0537500000000000e+00 6.7562500000000005e+00 0 0 0
223 1 3.6483750000000001e+01 1.3512500000000001e+00 9.4587500000000002e+00 0 0 0
224 1 3.3781250000000000e+01 4.0537500000000000e+00 9.4587500000000002e+00 0 0 0
225 1 -3.6483750000000001e+01 6.7562500000000005e+00 6.7562500000000005e+00 0 0 0
226 1 -3.3781250000000000e+01 9.4587500000000002e+00 6.7562500000000005e+00 0 0 0
227 1 -3.3781250000000000e+01 6.7562500000000005e+00 9.4587500000000002e+00 0 0 0
228 1 -3.6483750000000001e+01 9.4587500000000002e+00 9.4587500000000002e+00 0 0 0
229 1 3.3781250000000000e+01 6.7562500000000005e+00 6.7562500000000005e+00 0 0 0
230 1 3.6483750000000001e+01 9.4587500000000002e+00 6.7562500000000005e+00 0 0 0
231 1 3.6483750000000001e+01 6.7562500000000005e+00 9.4587500000000002e+00 0 0 0
232 1 3.3781250000000000e+01 9.4587500000000002e+00 9.4587500000000002e+00 0 0 0
233 1 -3.6483750000000001e+01 1.2161250000000001e+01 6.7562500000000005e+00 0 0 0
234 1 -3.3781250000000000e+01 1.4863750000000001e+01 6.7562500000000005e+00 0 0 0
235 1 -3.3781250000000000e+01 1.2161250000000001e+01 9.4587500000000002e+00 0 0 0
236 1 -3.6483750000000001e+01 1.4863750000000001e+01 9.4587500000000002e+00 0 0 0
237 1 3.3781250000000000e+01 1.2161250000000001e+01 6.7562500000000005e+00 0 0 0
238 1 3.6483750000000001e+01 1.4863750000000001e+01 6.7562500000000005e+00 0 0 0
239 1 3.6483750000000001e+01 1.2161250000000001e+01 9.4587500000000002e+00 0 0 0
240 1 3.3781250000000000e+01 1.4863750000000001e+01 9.4587500000000002e+00 0 0 0
241 1 -3.6483750000000001e+01 -1.4863750000000000e+01 1.2161250000000001e+01 0 0 0
242 1 -3.3781250000000000e+01 -1.2161250000000001e+01 1.2161250000000001e+01 0 0 0
243 1 -3.3781250000000000e+01 -1.4863750000000000e+01 1.4863750000000001e+01 0 0 0
244 1 -3.6483750000000001e+01 -1.2161250000000001e+01 1.4863750000000001e+01 0 0 0
245 1 3.3781250000000000e+01 -1.4863750000000000e+01 1.2161250000000001e+01 0 0 0
246 1 3.6483750000000001e+01 -1.2161250000000001e+01 1.2161250000000001e+01 0 0 0
247 1 3.6483750000000001e+01 -1.4863750000000000e+01 1.4863750000000001e+01 0 0 0
248 1 3.3781250000000000e+01 -1.2161250000000001e+01 1.4863750000000001e+01 0 0 0
249 1 -3.6483750000000001e+01 -9.4587500000000002e+00 1.2161250000000001e+01 0 0 0
250 1 -3.3781250000000000e+01 -6.7562499999999996e+00 1.2161250000000001e+01 0 0 0
251 1 -3.3781250000000000e+01 -9.4587500000000002e+00 1.4863750000000001e+01 0 0 0
252 1 -3.6483750000000001e+01 -6.7562499999999996e+00 1.4863750000000001e+01 0 0 0
253 1 3.3781250000000000e+01 -9.4587500000000002e+00 1.2161250000000001e+01 0 0 0
254 1 3.6483750000000001e+01 -6.7562499999999996e+00 1.2161250000000001e+01 0 0 0
255 1 3.6483750000000001e+01 -9.4587500000000002e+00 1.4863750000000001e+01 0 0 0
256 1 3.3781250000000000e+01 -6.7562499999999996e+00 1.4863750000000001e+01 0 0 0
257 1 -3.6483750000000001e+01 -4.0537500000000000e+00 1.2161250000000001e+01 0 0 0
258 1 -3.3781250000000000e+01 -1.3512500000000001e+00 1.2161250000000001e+01 0 0 0
259 1 -3.3781250000000000e+01 -4.0537500000000000e+00 1.4863750000000001e+01 0 0 0
260 1 -3.6483750000000001e+01 -1.3512500000000001e+00 1.4863750000000001e+01 0 0 0
261 1 3.3781250000000000e+01 -4.0537500000000000e+00 1.2161250000000001e+01 0 0 0
262 1 3.6483750000000001e+01 -1.3512500000000001e+00 1.2161250000000001e+01 0 0 0
263 1 3.6483750000000001e+01 -4.0537500000000000e+00 1.4863750000000001e+01 0 0 0
264 1 3.3781250000000000e+01 -1.3512500000000001e+00 1.4863750000000001e+01 0 0 0
265 1 -3.6483750000000001e+01 1.3512500000000001e+00 1.2161250000000001e+01 0 0 0
266 1 -3.3781250000000000e+01 4.0537500000000000e+00 1.2161250000000001e+01 0 0 0
267 1 -3.3781250000000000e+01 1.3512500000000001e+00 1.4863750000000001e+01 0 0 0
268 1 -3.6483750000000001e+01 4.0537500000000000e+00 1.4863750000000001e+01 0 0 0
269 1 3.3781250000000000e+01 1.3512500000000001e+00 1.2161250000000001e+01 0 0 0
270 1 3.6483750000000001e+01 4.0537500000000000e+00 1.2161250000000001e+01 0 0 0
271 1 3.6483750000000001e+01 1.3512500000000001e+00 1.4863750000000001e+01 0 0 0
272 1 3.3781250000000000e+01 4.0537500000000000e+00 1.4863750000000001e+01 0 0 0
273 1 -3.6483750000000001e+01 6.7562500000000005e+00 1.2161250000000001e+01 0 0 0
274 1 -3.3781250000000000e+01 9.4587500000000002e+00 1.2161250000000001e+01 0 0 0
275 1 -3.3781250000000000e+01 6.7562500000000005e+00 1.4863750000000001e+01 0 0 0
276 1 -3.6483750000000001e+01 9.4587500000000002e+00 1.4863750000000001e+01 0 0 0
277 1 3.3781250000000000e+01 6.7562500000000005e+00 1.2161250000000001e+01 0 0 0
278 1 3.6483750000000001e+01 9.4587500000000002e+00 1.2161250000000001e+01 0 0 0
279 1 3.6483750000000001e+01 6.7562500000000005e+00 1.4863750000000001e+01 0 0 0
280 1 3.3781250000000000e+01 9.4587500000000002e+00 1.4863750000000001e+01 0 0 0
281 1 -3.6483750000000001e+01 1.2161250000000001e+01 1.2161250000000001e+01 0 0 0
282 1 -3.3781250000000000e+01 1.4863750000000001e+01 1.2161250000000001e+01 0 0 0
283 1 -3.3781250000000000e+01 1.2161250000000001e+01 1.4863750000000001e+01 0 0 0
284 1 -3.6483750000000001e+01 1.4863750000000001e+01 1.4863750000000001e+01 0 0 0
285 1 3.3781250000000000e+01 1.2161250000000001e+01 1.2161250000000001e+01 0 0 0
286 1 3.6483750000000001e+01 1.4863750000000001e+01 1.2161250000000001e+01 0 0 0
287 1 3.6483750000000001e+01 1.2161250000000001e+01 1.4863750000000001e+01 0 0 0
288 1 3.3781250000000000e+01 1.4863750000000001e+01 1.4863750000000001e+01 0 0 0
289 2 -3.0875000000000000e+01 -1.4625000000000000e+01 -1.4625000000000000e+01 0 0 0
290 2 -2.4375000000000000e+01 -1.4625000000000000e+01 -1.4625000000000000e+01 0 0 0
291 2 -1.7875000000000000e+01 -1.4625000000000000e+01 -1.4625000000000000e+01 0 0 0
292 2 -1.1375000000000000e+01 -1.4625000000000000e+01 -1.4625000000000000e+01 0 0 0
293 2 -4.8750000000000000e+00 -1.4625000000000000e+01 -1.4625000000000000e+01 0 0 0
294 2 1.6250000000000000e+00 -1.4625000000000000e+01 -1.4625000000000000e+01 0 0 0
295 2 8.1250000000000000e+00 -1.4625000000000000e+01 -1.4625000000000000e+01 0 0 0
296 2 1.4625000000000000e+01 -1.4625000000000000e+01 -1.4625000000000000e+01 0 0 0
297 2 2.1125000000000000e+01 -1.4625000000000000e+01 -1.4625000000000000e+01 0 0 0
298 2 2.7625000000000000e+01 -1.4625000000000000e+01 -1.4625000000000000e+01 0 0 0
299 2 -2.7625000000000000e+01 -1.1375000000000000e+01 -1.4625000000000000e+01 0 0 0
300 2 -3.0875000000000000e+01 -8.1250000000000000e+00 -1.4625000000000000e+01 0 0 0
301 2 -2.1125000000000000e+01 -1.1375000000000000e+01 -1.4625000000000000e+01 0 0 0
302 2 -2.4375000000000000e+01 -8.1250000000000000e+00 -1.4625000000000000e+01 0 0 0
303 2 -1.4625000000000000e+01 -1.1375000000000000e+01 -1.4625000000000000e+01 0 0 0
304 2 -1.7875000000000000e+01 -8.1250000000000000e+00 -1.4625000000000000e+01 0 0 0
305 2 -8.1250000000000000e+00 -1.1375000000000000e+01 -1.4625000000000000e+01 0 0 0
306 2 -1.1375000000000000e+01 -8.1250000000000000e+00 -1.4625000000000000e+01 0 0 0
307 2 -1.6250000000000000e+00 -1.1375000000000000e+01 -1.4625000000000000e+01 0 0 0
308 2 -4.8750000000000000e+00 -8.1250000000000000e+00 -1.4625000000000000e+01 0 0 0
309 2 4.8750000000000000e+00 -1.1375000000000000e+01 -1.4625000000000000e+01 0 0 0
310 2 1.6250000000000000e+00 -8.1250000000000000e+00 -1.4625000000000000e+01 0 0 0
311 2 1.1375000000000000e+01 -1.1375000000000000e+01 -1.4625000000000000e+01 0 0 0
312 2 8.1250000000000000e+00 -8.1250000000000000e+00 -1.4625000000000000e+01 0 0 0
313 2 1.7875000000000000e+01 -1.1375000000000000e+01 -1.4625000000000000e+01 0 0 0
314 2 1.4625000000000000e+01 -8.1250000000000000e+00 -1.4625000000000000e+01 0 0 0
315 2 2.4375000000000000e+01 -1.1375000000000000e+01 -1.4625000000000000e+01 0 0 0
316 2 2.1125000000000000e+01 -8.1250000000000000e+00 -1.4625000000000000e+01 0 0 0
317 2 3.0875000000000000e+01 -1.1375000000000000e+01 -1.4625000000000000e+01 0 0 0
318 2 2.7625000000000000e+01 -8.1250000000000000e+00 -1.4625000000000000e+01 0 0 0
319 2 -2.7625000000000000e+01 -4.8750000000000000e+00 -1.4625000000000000e+01 0 0 0
320 2 -3.0875000000000000e+01 -1.6250000000000000e+00 -1.4625000000000000e+01 0 0 0
321 2 -2.1125000000000000e+01 -4.8750000000000000e+00 -1.4625000000000000e+01 0 0 0
322 2 -2.4375000000000000e+01 -1.6250000000000000e+00 -1.4625000000000000e+01 0 0 0
323 2 -1.4625000000000000e+01 -4.8750000000000000e+00 -1.4625000000000000e+01 0 0 0
324 2 -1.7875000000000000e+01 -1.6250000000000000e+00 -1.4625000000000000e+01 0 0 0
325 2 -8.1250000000000000e+00 -4.8750000000000000e+00 -1.4625000000000000e+01 0 0 0
326 2 -1.1375000000000000e+01 -1.6250000000000000e+00 -1.4625000000000000e+01 0 0 0
327 2 -1.6250000000000000e+00 -4.8750000000000000e+00 -1.4625000000000000e+01 0 0 0
328 2 -4.8750000000000000e+00 -1.6250000000000000e+00 -1.4625000000000000e+01 0 0 0
329 2 4.8750000000000000e+00 -4.8750000000000000e+00 -1.4625000000000000e+01 0 0 0
330 2 1.6250000000000000e+00 -1.6250000000000000e+00 -1.4625000000000000e+01 0 0 0
331 2 1.1375000000000000e+01 -4.8750000000000000e+00 -1.4625000000000000e+01 0 0 0
332 2 8.1250000000000000e+00 -1.6250000000000000e+00 -1.4625000000000000e+01 0 0 0
333 2 1.7875000000000000e+01 -4.8750000000000000e+00 -1.4625000000000000e+01 0 0 0
334 2 1.4625000000000000e+01 -1.6250000000000000e+00 -1.4625000000000000e+01 0 0 0
335 2 2.4375000000000000e+01 -4.8750000000000000e+00 -1.4625000000000000e+01 0 0 0
336 2 2.1125000000000000e+01 -1.6250000000000000e+00 -1.4625000000000000e+01 0 0 0
337 2 3.0875000000000000e+01 -4.8750000000000000e+00 -1.4625000000000000e+01 0 0 0
338 2 2.7625000000000000e+01 -1.6250000000000000e+00 -1.4625000000000000e+01 0 0 0
339 2 -2.7625000000000000e+01 1.6250000000000000e+00 -1.4625000000000000e+01 0 0 0
340 2 -3.0875000000000000e+01 4.8750000000000000e+00 -1.4625000000000000e+01 0 0 0
341 2 -2.1125000000000000e+01 1.6250000000000000e+00 -1.4625000000000000e+01 0 0 0
342 2 -2.4375000000000000e+01 4.8750000000000000e+00 -1.4625000000000000e+01 0 0 0
343 2 -1.4625000000000000e+01 1.6250000000000000e+00 -1.4625000000000000e+01 0 0 0
344 2 -1.7875000000000000e+01 4.8750000000000000e+00 -1.4625000000000000e+01 0 0 0
345 2 -8.1250000000000000e+00 1.6250000000000000e+00 -1.4625000000000000e+01 0 0 0
346 2 -1.1375000000000000e+01 4.8750000000000000e+00 -1.4625000000000000e+01 0 0 0
347 2 -1.6250000000000000e+00 1.6250000000000000e+00 -1.4625000000000000e+01 0 0 0
348 2 -4.8750000000000000e+00 4.8750000000000000e+00 -1.4625000000000000e+01 0 0 0
349 2 4.8750000000000000e+00 1.6250000000000000e+00 -1.4625000000000000e+01 0 0 0
350 2 1.6250000000000000e+00 4.8750000000000000e+00 -1.4625000000000000e+01 0 0 0
351 2 1.1375000000000000e+01 1.6250000000000000e+00 -1.4625000000000000e+01 0 0 0
352 2 8.1250000000000000e+00 4.8750000000000000e+00 -1.4625000000000000e+01 0 0 0
353 2 1.7875000000000000e+01 1.6250000000000000e+00 -1.4625000000000000e+01 0 0 0
354 2 1.4625000000000000e+01 4.8750000000000000e+00 -1.4625000000000000e+01 0 0 0
355 2 2.4375000000000000e+01 1.6250000000000000e+00 -1.4625000000000000e+01 0 0 0
356 2 2.1125000000000000e+01 4.8750000000000000e+00 -1.4625000000000000e+01 0 0 0
357 2 3.0875000000000000e+01 1.6250000000000000e+00 -1.4625000000000000e+01 0 0 0
358 2 2.7625000000000000e+01 4.8750000000000000e+00 -1.4625000000000000e+01 0 0 0
359 2 -2.7625000000000000e+01 8.1250000000000000e+00 -1.4625000000000000e+01 0 0 0
360 2 -3.0875000000000000e+01 1.1375000000000000e+01 -1.4625000000000000e+01 0 0 0