LAMMPS (24 Dec 2020)
Processor partition = 2
OMP_NUM_THREADS environment is not set. Defaulting to 1 thread. (src/comm.cpp:94)
  using 1 OpenMP thread(s) per MPI task
units lj
atom_style atomic
atom_modify map yes
boundary f f f
region mybox block -5.0 5.0 -5.0 5.0 -5.0 5.0
create_box 1 mybox
Created orthogonal box = (-5.0000000 -5.0000000 -5.0000000) to (5.0000000 5.0000000 5.0000000)
  1 by 1 by 1 MPI processor grid
create_atoms 1 single 0.0 0.0 0.0 units box
Created 1 atoms
  create_atoms CPU = 0.000 seconds
pair_style zero 2.0 nocoeff
pair_coeff * *
mass 1 1.0
timestep 0.2

#thermo_style custom step ke pe etotal

fix 1 all spring/self 1.0 xyz
fix_modify 1 energy yes
#fix 2 all nve
velocity all set 0.1 0.1 0.1

fix 4 all pimd3 method nmpimd ensemble nvt temp 0.5 thermostat SVR 975481
#fix 4 all pimd2 method nmpimd thermostat baoab 975481 fmass 1.0 temp 1.0
#fix 4 all pimd3 method nmpimd ensemble nve

thermo_style custom step f_4[1] f_4[2] f_4[3] f_4[4] f_4[5] f_4[6] f_4[7] f_4[8] f_4[9]
thermo 100

run 1000000
Neighbor list info ...
  update every 1 steps, delay 10 steps, check yes
  max neighbors/atom: 2000, page size: 100000
  master list distance cutoff = 2.3
  ghost atom cutoff = 2.3
  binsize = 1.15, bins = 9 9 9
  1 neighbor lists, perpetual/occasional/extra = 1 0 0
  (1) pair zero, perpetual
      attributes: half, newton on
      pair build: half/bin/atomonly/newton
      stencil: half/bin/3d/newton
      bin: standard
Per MPI rank memory allocation (min/avg/max) = 3.047 | 3.047 | 3.047 Mbytes
Step f_4[1] f_4[2] f_4[3] f_4[4] f_4[5] f_4[6] f_4[7] f_4[8] f_4[9] 
       0            0            0            0            0            3           -0         0.75        0.002       0.0015 
     100    2.9779352    3.5121773   0.20519819    6.6953106  -0.51217729   0.20519819   0.75891431 -0.00047825032 0.0011074322 
     200     1.703852    4.3007765    1.5494266    7.5540551   -1.3007765    1.5494266   0.76039074 -0.0019001354 -0.0015780717 
     300    4.9475195   0.71075267 0.0067767285    5.6650489    2.2892473 0.0067767285   0.75209992 0.0015216471 0.0014906464 
     400    2.8955487   0.83310923   0.86859761    4.5972556    2.1668908   0.86859761   0.75261682 0.00086552877 -0.00023196157 
     500    2.4296091     3.048606   0.33352272    5.8117378 -0.048605988   0.33352272   0.75897462 -0.00025475247 0.0008509038 
     600    3.8075419    6.8706467    2.4756792    13.153868   -3.8706467    2.4756792   0.76835926 -0.0042308839 -0.0034146399 
     700    2.6416958    4.4231888   0.88231242     7.947197   -1.4231888   0.88231242     0.762549 -0.0015370008 -0.00023952684 
     800    2.1122232    1.6444257  0.071250559    3.8278995    1.3555743  0.071250559   0.75518575 0.00085621583 0.0013678704 
     900    3.6623529    4.1154575    2.4151839    10.192994   -1.1154575    2.4151839   0.76246165 -0.0023537609 -0.0033054444 
    1000    4.2737464    1.9446134  0.019892574    6.2382524    1.0553866  0.019892574   0.75536878 0.00069032935 0.0014709524 
    1100    2.5453303    1.0480894   0.15049416    3.7439139    1.9519106   0.15049416   0.75219017 0.0012009443  0.001203392 
    1200    1.2265884     2.920696    2.0439854    6.1912697  0.079304004    2.0439854   0.75755579 -0.0013097876 -0.0025728592 
    1300    3.5998877    3.1725303   0.23597588    7.0083939  -0.17253028   0.23597588   0.75990752 -0.00027233744 0.0010478633 
    1400    1.4883727    4.9611181  0.013745312    6.4632361   -1.9611181  0.013745312   0.76289068 -0.0013165756 0.0014982907 
    1500    1.8749462    1.6006489   0.27650054    3.7520956    1.3993511   0.27650054   0.75397889 0.00074856706 0.00095495671 
    1600    2.5122625    3.4205784     0.172863    6.1057039  -0.42057842     0.172863     0.760736 -0.00039562761  0.001175746 
    1700    3.6734229    1.6045728    0.9794818    6.2574775    1.3954272    0.9794818   0.75336002 0.00027729693 -0.00045224355 
    1800     3.502516    1.2611436   0.44320162    5.2068613    1.7388564   0.44320162   0.75372063 0.00086376983 0.00062103802 
    1900    1.7642394     1.827513 0.0063612794    3.5981137     1.172487 0.0063612794   0.75558081 0.00077741712 0.0014984391 
    2000    3.7414823    1.6524432     1.037268    6.4311935    1.3475568     1.037268   0.75328553 0.00020685924 -0.0005679649 
    2100    3.3158503    3.6711604   0.26983482    7.2568456  -0.67116043   0.26983482   0.76162066 -0.00062733017 0.00098357167 
    2200    3.9626413   0.81972583   0.14396787     4.926335    2.1802742   0.14396787   0.75227826 0.0013575375 0.0012166208 
    2300    2.6801692   0.44120727    2.6540208    5.7753972    2.5587927    2.6540208   0.75095224 -6.3485359e-05 -0.003806137 
    2400    3.9239807    1.4947778    3.0499105     8.468669    1.5052222    3.0499105   0.75377886 -0.0010297922 -0.0045922634 
    2500    3.8957648    1.9408418   0.35799303    6.1945996    1.0591582   0.35799303    0.7553113 0.00046744345 0.00079463655 
    2600    0.5893145    2.8210099   0.45574984    3.8660742   0.17899011   0.45574984   0.75857487 -0.00018450648 0.00060565006 
    2700    1.4594002    2.0810859   0.13799535    3.6784814   0.91891413   0.13799535   0.75461528 0.00052061252 0.0012332399 
    2800    2.6914661    3.1554813  0.052043587    5.8989909  -0.15548129  0.052043587   0.75806038 -0.00013834992 0.0014120336 
    2900    2.5396593    1.7780682   0.10427011    4.4219976    1.2219318   0.10427011   0.75543609 0.00074510778 0.0013023319 
    3000    3.9505027    1.7477642   0.12201533    5.8202822    1.2522358   0.12201533   0.75540104 0.00075348034 0.0012667714 
    3100    2.8130602    3.3563338    3.4406559    9.6100499  -0.35633378    3.4406559   0.75722681 -0.0025313265 -0.0053668582 
    3200    1.3955336    5.5091556   0.13945719    7.0441464   -2.5091556   0.13945719   0.76434409 -0.0017657419 0.0012497738 
    3300    2.8642711    1.5526479    1.7881263    6.2050453    1.4473521    1.7881263    0.7539278 -0.00022718285 -0.0020683971 
    3400    1.5936814    1.0164146  0.025946713    2.6360427    1.9835854  0.025946713    0.7523467 0.0013050924    0.0014528 
    3500   0.73354798    1.6284386  0.055289939    2.4172766    1.3715614  0.055289939    0.7544876 0.00087751428 0.0013983953 
    3600    5.9781925   0.84834233  0.021937816    6.8484726    2.1516577  0.021937816   0.75254444 0.0014198132 0.0014612133 
    3700    2.5435419     2.014524   0.86902934    5.4270952   0.98547598   0.86902934   0.75569686 7.7631093e-05 -0.00022666495 
    3800    3.4708933    3.7787047 0.0099807673    7.2595788  -0.77870474 0.0099807673   0.75891302 -0.00052579034 0.0014978645 
    3900    5.8262992   0.61698833  0.003566398     6.446854    2.3830117  0.003566398   0.75164392 0.0015862968 0.0014961551 
    4000   0.71421799    1.9738746   0.49041725    3.1785099    1.0261254   0.49041725   0.75610263 0.00035713874 0.00053137076 
    4100    2.3140998    1.9928437  0.036694006    4.3436375    1.0071563  0.036694006   0.75561848 0.00064697486  0.001437849 
    4200    2.6432568     1.929335   0.61270382    5.1852956     1.070665   0.61270382   0.75609124 0.00030530744 0.00028677484 
    4300    2.6056539    1.3519701    1.9571273    5.9147513    1.6480299    1.9571273   0.75417472 -0.00020606492 -0.0024059051 
    4400   0.80630909    3.1844289  0.010007754    4.0007457  -0.18442886  0.010007754   0.75936681 -0.00012962441 0.0014987181 
    4500    4.2113712    2.5526717    1.6947163    8.4587592   0.44732832    1.6947163   0.75407052 -0.00083159201 -0.0018812916 
    4600    1.7198021     2.992993    2.1219756    6.8347708 0.0070069876    2.1219756   0.75740124 -0.0014099791 -0.0027291488 
    4700   0.91858811    3.8452035   0.79816403    5.5619556   -0.8452035   0.79816403   0.75994677 -0.0010955784 -7.6434532e-05 
    4800    1.6024456    2.2887922   0.56280762    4.4540454   0.71120782   0.56280762   0.75557886 9.8933464e-05 0.00038554247 
    4900    1.7975808    2.2000667   0.62333796    4.6209855   0.79993326   0.62333796   0.75695524 0.0001177302 0.00026723456 
    5000    3.0903127    2.0257308    2.1206268    7.2366703   0.97426924    2.1206268   0.75458434 -0.0007642384 -0.002732085 
    5100    2.5182419    1.2999793   0.64075973    4.4589809    1.7000207   0.64075973   0.75218842 0.00070617399 0.00022285738 
    5200    1.1422939    1.7116006   0.15876242    3.0126569    1.2883994   0.15876242   0.75478524 0.0007530913 0.0011920456 
    5300    3.1112082    1.0635253    0.1419191    4.3166526    1.9364747    0.1419191   0.75267357 0.0011963704 0.0012215089 
    5400    3.3423711    1.5904124  0.094271949    5.0270555    1.4095876  0.094271949   0.75478243 0.00087687709  0.001321021 
    5500    5.1262846    1.5596049   0.79734345    7.4832329    1.4403951   0.79734345   0.75487884 0.00042870111 -8.4929222e-05 
    5600    2.7249143     1.679291   0.25967401    4.6638793     1.320709   0.25967401   0.75415296 0.00070735667 0.00098895791 
    5700    3.2841759    2.6537271    1.1543033    7.0922062   0.34627293    1.1543033   0.75654143 -0.00053868689 -0.00079552366 
    5800    5.5599083   0.32451995   0.76028232    6.6447106      2.67548   0.76028232   0.75091593 0.0012767985 -1.8732772e-05 
    5900    2.6067641    1.4137335   0.13548664    4.1559842    1.5862665   0.13548664   0.75353581 0.00096718659 0.0012360984 
    6000    3.1254474   0.32214191   0.91970853    4.3672979    2.6778581   0.91970853   0.75064391 0.0011720997 -0.00033812924 
    6100    3.8610523    1.6217948  0.015576145    5.4984233    1.3782052  0.015576145   0.75402211 0.00090841935 0.0014768919 
    6200    0.6553963    4.1897946   0.12366067    4.9688516   -1.1897946   0.12366067   0.76213035 -0.00087563686 0.0012769394 
    6300    4.2482108   0.57299635   0.09544895    4.9166561    2.4270037   0.09544895   0.75181427 0.0015543698 0.0013127306 
    6400   0.60442833    2.3634279  0.051448189    3.0193044   0.63657209  0.051448189   0.75716108 0.0003900826 0.0014114258 
    6500    2.9421068    1.0375496    1.5097317    5.4893881    1.9624504    1.5097317   0.75199527 0.00030181247 -0.0015154728 
    6600    4.3625045    2.2779427   0.86051508    7.5009623   0.72205727   0.86051508   0.75670278 -9.230521e-05 -0.00020762461 
    6700    2.8137524    2.7836198   0.35210522    5.9494774   0.21638022   0.35210522   0.75591993 -9.0483334e-05 0.00080762942 
    6800    1.4351208    2.1957425  0.088808611    3.7196719   0.80425754  0.088808611   0.75602573 0.00047696595 0.0013344342 
    6900    4.3701026    2.3411768     1.785904    8.4971834   0.65882322     1.785904   0.75692084 -0.00075138716 -0.0020579662 
    7000    1.0394401    4.5984586  0.060735929    5.6986346   -1.5984586  0.060735929   0.76102571 -0.0011061297 0.0014005796 
    7100    1.0914205    2.0991963   0.23859418     3.429211   0.90080371   0.23859418   0.75661883 0.00044147302 0.0010360493 
    7200    3.7623395    4.6117278   0.31779535    8.6918626   -1.6117278   0.31779535   0.76225923 -0.0012863488 0.00088892777 
    7300    1.3813493    2.1877778   0.25615201     3.825279   0.81222224   0.25615201   0.75571495 0.00037071349 0.00099912588 
    7400    2.6190346    3.3514598   0.11865306    6.0891475  -0.35145978   0.11865306     0.758626 -0.00031340856 0.0012799459 
    7500    2.1007255    3.4656524   0.21528812    5.7816659  -0.46565235   0.21528812   0.76095762 -0.00045396031  0.001091339 
    7600    2.9462604   0.78825279   0.42642899    4.1609422    2.2117472   0.42642899    0.7515081 0.0011902121 0.00065015823 
    7700     2.879168   0.24981149  0.039227387    3.1682069    2.7501885  0.039227387   0.75060672 0.0018073074 0.0014227587 
    7800     1.865999    1.2752695    1.1512502    4.2925186    1.7247305    1.1512502   0.75312217 0.00038232023 -0.00079625607 
    7900    4.4176553    2.8931117    8.6415291    15.952296   0.10688829    8.6415291   0.75562569 -0.0056897605 -0.015771807 
    8000   0.37366441   0.62888771   0.63028416    1.6328363    2.3711123   0.63028416   0.75137059 0.0011605521 0.00024217287 
    8100    3.9565843    1.5737556    1.6606313    7.1909712    1.4262444    1.6606313   0.75407555 -0.00015625793 -0.0018131114 
    8200    1.1316665     5.848046    0.7099408    7.6896533    -2.848046    0.7099408    0.7636085 -0.0023719912 0.00010733539 
    8300     1.129622    3.1897154   0.23001175    4.5493491  -0.18971535   0.23001175   0.75593403 -0.00027981807 0.0010518446 
    8400    9.7266404   0.88058781   0.71028083    11.317509    2.1194122   0.71028083   0.75224685 0.00093942091 8.3932021e-05 
    8500    3.3164822    3.1575747   0.26913767    6.7431946  -0.15757467   0.26913767   0.75978865 -0.0002844749 0.00098130196 
    8600    1.3749037    2.0923355    6.7397965    10.207036   0.90766449    6.7397965   0.75621011 -0.003888088 -0.011967173 
    8700   0.87563175    1.3134017    5.1849698    7.3740032    1.6865983    5.1849698   0.75283994 -0.0023322477 -0.0088642597 
    8800    1.2083453     1.266574  0.054392531    2.5293118     1.733426  0.054392531   0.75248983 0.0011193557 0.0013961946 
    8900    1.5564848     2.700686    1.2990957    5.5562665     0.299314    1.2990957   0.75603587 -0.00066652113 -0.0010861197 
    9000    2.2086845    1.1554731   0.96682262    4.3309802    1.8445269   0.96682262   0.75233276 0.00058513622 -0.00042897972 
    9100    1.6752915   0.87767703   0.72341286    3.2763814     2.122323   0.72341286   0.75272916 0.00093260674 5.8632589e-05 
    9200    0.6310826    2.6459374   0.33213392    3.6091539   0.35406257   0.33213392   0.75661104 1.4619105e-05 0.00084895424 
    9300    2.1071236    1.1202875  0.062578144    3.2899893    1.8797125  0.062578144   0.75178471 0.0012114229 0.0013784131 
    9400    5.3392802     1.298939    2.8157592    9.4539784     1.701061    2.8157592   0.75378022 -0.00074313212 -0.0041239579 
    9500    1.0994227    5.9739778   0.16323492    7.2366354   -2.9739778   0.16323492   0.76398344 -0.0020914752  0.001201497 
    9600    5.3685954   0.30894996    0.8458462    6.5233916      2.69105    0.8458462   0.75063747 0.0012301359 -0.00019041746 
    9700     4.837919    2.7228284   0.72821503    8.2889624   0.27717163   0.72821503   0.75806356 -0.0003006956 5.9697061e-05 
    9800   0.92675475   0.39219412    2.0864957    3.4054446    2.6078059    2.0864957    0.7511861 0.00034754013 -0.0026706192 
    9900     4.479026    2.2824298   0.16939802    6.9308539   0.71757016   0.16939802    0.7552161 0.00036544809 0.0011716362 
   10000    4.5252137      2.05969    1.3350985    7.9200022   0.94031003    1.3350985   0.75356373 -0.0002631923 -0.0011630695 
   10100    2.5817506    1.9209391   0.58051029       5.0832    1.0790609   0.58051029    0.7551238 0.00033236704 0.00034922702 
   10200   0.66796422    1.4082838    2.4216988    4.4979469    1.5917162    2.4216988   0.75361053 -0.00055332177 -0.0033361766 
   10300    3.5904886    2.0234298  0.019145838    5.6330642   0.97657024  0.019145838   0.75485924 0.00063828293 0.0014714268 
   10400   0.69604142    2.8184907 0.0089706741    3.5235028   0.18150928 0.0089706741   0.75756721 0.00011502574 0.0014971931 
   10500    3.7121578    2.2192282   0.38157397      6.31296   0.78077177   0.38157397   0.75516859 0.00026613187 0.00074718924 
   10600    4.2822485    4.3464838   0.93683442    9.5655667   -1.3464838   0.93683442   0.75950976 -0.0015222121 -0.0003546493 
   10700    2.9556003    1.9169149   0.89985723    5.7723724    1.0830851   0.89985723   0.75605876 0.00012215194 -0.00028759694 
   10800    1.2674658    1.5580731    1.9109963    4.7365352    1.4419269    1.9109963   0.75476811 -0.00031271292 -0.0023124563 
   10900    2.3825593    1.0985926    2.8295603    6.3107122    1.9014074    2.8295603   0.75302632 -0.00061876857 -0.0041530679 
   11000    1.3831766   0.12280346    1.6555607    3.1615408    2.8771965    1.6555607   0.75031005 0.00081442389 -0.0018105013 
   11100    5.7545657    0.8085552    1.2053512     7.768472    2.1914448    1.2053512   0.75230284 0.00065739575 -0.00090609669 
   11200    2.9103786    1.9258519   0.54927543    5.3855059    1.0741481   0.54927543   0.75489441 0.00034991512 0.00041123797 
   11300    2.6101648     2.125733  0.003928091     4.739826   0.87426699  0.003928091   0.75379866 0.00058022593 0.0014997411 
   11400    3.8581435    1.4807377   0.47369065    5.8125719    1.5192623   0.47369065   0.75345949 0.00069704778 0.00055953766 
   11500    3.2732867    2.2041151   0.79313037    6.2705321   0.79588493   0.79313037   0.75656447 1.8363739e-06 -7.3131797e-05 
   11600    2.3175614    3.2714739   0.26870851    5.8577437  -0.27147386   0.26870851   0.75759516 -0.00036012158 0.00097777329 
   11700    3.2853972    3.2135285  0.025141268    6.5240669  -0.21352845  0.025141268   0.75691178 -0.00015911315  0.001463541 
   11800    4.2842459    1.2488141  0.056462219    5.5895223    1.7511859  0.056462219   0.75321819 0.0011298158 0.0013935119 
   11900    2.1614331    3.8043437   0.89113492    6.8569117  -0.80434366   0.89113492   0.76065961 -0.0011303191 -0.00026095062 
   12000    3.3156892    1.3185393   0.04515028    4.6793788    1.6814607   0.04515028   0.75354681 0.0010908736 0.0014167931 
   12100    6.8046843   0.41484172   0.45375411    7.6732801    2.5851583   0.45375411   0.75125913 0.0014209361 0.00059501004 
   12200    2.1318462    2.7704161  0.025266833    4.9275291   0.22958388  0.025266833   0.75489138 0.00013621137 0.0014592491 
   12300    1.1515365    3.0134869  0.098375394    4.2633988  -0.01348688  0.098375394   0.75773376 -7.4574849e-05 0.0013187167 
   12400    5.6706495    2.2348579   0.19300531    8.0985127   0.76514209   0.19300531   0.75684807 0.00038142451 0.0011276855 
   12500    4.0120537    0.4833316   0.75287176    5.2482571    2.5166684   0.75287176   0.75134438 0.0011758644 -3.0547606e-06 
   12600    4.5087465   0.14811729    1.5912371    6.2481009    2.8518827    1.5912371   0.75045093 0.0008404304 -0.0016815724 
   12700    1.2412453    5.7287043   0.46630438     7.436254   -2.7287043   0.46630438   0.76498248 -0.0021300058 0.00059735619 
   12800    2.2245313    2.2812696   0.13471905    4.6405199   0.71873044   0.13471905   0.75631134 0.00038934093 0.0012431846 
   12900    3.4660738    1.3628761    1.2599427    6.0888925    1.6371239    1.2599427   0.75413713 0.00025145416 -0.001011611 
   13000    2.5901972    3.0667985   0.67086887    6.3278645 -0.066798471   0.67086887    0.7582144 -0.00049177823 0.00017469105 
   13100    2.4214756    2.0013552    2.0153405    6.4381713   0.99864481    2.0153405   0.75588905 -0.00067779713 -0.0025189029 
   13200    3.0789697    2.0970113    1.5497869    6.7257679   0.90298872    1.5497869   0.75518607 -0.00043119881 -0.0015892017 
   13300    1.5445246    3.8407702   0.50482241    5.8901172  -0.84077022   0.50482241   0.76182969 -0.00089706176 0.00051401456 
   13400    2.3686688    1.7824087    1.9211331    6.0722106    1.2175913    1.9211331   0.75323806 -0.00046902786  -0.00233579 
   13500    3.4459019    2.8606739   0.47133171    6.7779075   0.13932612   0.47133171   0.75870857 -0.00022133705 0.00057475373 
   13600      3.50241    2.5009223   0.21282615    6.2161585   0.49907766   0.21282615   0.75566079 0.00019083434 0.0010856693 
   13700    3.2449084     1.078509  0.017626809    4.3410442     1.921491  0.017626809   0.75188961 0.0012692428 0.0014685256 
   13800    1.4619502    3.1326691   0.74824808    5.3428674  -0.13266909   0.74824808   0.75990763 -0.00058727811 2.3319105e-05 
   13900    1.2307047     3.057432   0.62192856    4.9100652 -0.057431964   0.62192856   0.75891965 -0.00045290702 0.00027398218 
   14000    3.6732205   0.88078801   0.98937298    5.5433815     2.119212   0.98937298   0.75260632 0.00075322601 -0.00047353333 
   14100    2.9265918    1.4624772   0.15799654    4.5470655    1.5375228   0.15799654   0.75260646 0.00091968415 0.0011892198 
   14200    3.2544603    1.6007129    2.7782842    7.6334573    1.3992871    2.7782842   0.75505742 -0.00091933137 -0.0040464535 
   14300    1.4523038    2.0340332  0.023878007    3.5102151   0.96596679  0.023878007   0.75551877 0.00062805919 0.0014632815 
   14400    1.2912325    4.5251404   0.10789309     5.924266   -1.5251404   0.10789309   0.76384215 -0.001088689 0.0013118981 
   14500    1.9279283    4.7671346   0.55233618    7.2473991   -1.7671346   0.55233618   0.76197081 -0.0015463139 0.00041926927 
   14600    2.9138049    1.5901672    4.1738886    8.6778608    1.4098328    4.1738886   0.75284608 -0.0018427039 -0.0068420851 
   14700    2.2867621      2.20233 0.0068756816    4.4959677   0.79767004 0.0068756816    0.7535195 0.00052719624 0.0014932876 
   14800    1.1759527    3.0062187    5.4627241    9.6448955 -0.0062186987    5.4627241   0.75713907 -0.0036459619  -0.00941117 
   14900    2.6439042    2.1362753   0.74924203    5.5294215   0.86372475   0.74924203   0.75536034 7.6321815e-05 1.2236637e-05 
   15000    5.6710682   0.01686331   0.15214189    5.8400734    2.9831367   0.15214189   0.75004957 0.0018873299 0.0011958154 
   15100    2.9990188    2.8434267   0.06523211    5.9076776   0.15657328   0.06523211   0.75853592 6.089411e-05 0.0013866076 
   15200    3.4906796   0.97624334  0.012982798    4.4799058    2.0237567  0.012982798   0.75308763 0.0013405159 0.0014802097 
   15300    5.2772027    2.2408388    1.3712111    8.8892526   0.75916119    1.3712111   0.75657846 -0.00040803331 -0.0012292654 
   15400    3.5785467    1.8354792    7.1807909    12.594817    1.1645208    7.1807909   0.75545991 -0.0040108467 -0.012850662 
   15500    3.8861271    1.6413174    2.9478908    8.4753353    1.3586826    2.9478908   0.75474088 -0.0010594721 -0.0043862998 
   15600   0.99421465    3.7263497  0.021969341    4.7425337  -0.72634971  0.021969341   0.76002906 -0.00049887937 0.0014761194 
   15700    2.3544949     3.416409    1.4387412    7.2096451  -0.41640901    1.4387412   0.76073849 -0.0012367668 -0.0013560055 
   15800    3.2277612    3.2093238   0.53895285    6.9760378   -0.2093238   0.53895285   0.75998007 -0.0004988511 0.00044205445 
   15900   0.51425211    3.4256372    1.4662997     5.406189  -0.42563721    1.4662997   0.75959947 -0.0012612913 -0.0014134004 
   16000    4.0895738    1.1709021    3.8021316    9.0626075    1.8290979    3.8021316   0.75262869 -0.0013153558 -0.0060990058 
   16100    2.1708986    2.6980762   0.60771491    5.4766896   0.30192384   0.60771491   0.75615974 -0.00020386072 0.00029688965 
   16200    3.2391545     3.998147   0.01308337    7.2503848  -0.99814697   0.01308337   0.75813692 -0.00067415356 0.0014901071 
   16300    2.8606182   0.72714555    1.0968964    4.6846601    2.2728545    1.0968964   0.75217066 0.00078397204 -0.00068945145 
   16400    4.6324398    1.8037037   0.16137079    6.5975143    1.1962963   0.16137079   0.75550556 0.00068995032 0.0011882695 
   16500    2.6373711    1.1517955  0.047964304    3.8371308    1.8482045  0.047964304   0.75243527 0.0012001601 0.0014089419 
   16600    4.6749886    2.2709643   0.52420845    7.4701614   0.72903569   0.52420845   0.75714631 0.00013655149 0.00046587573 
   16700    8.1266177   0.15701019   0.60146878    8.8850967    2.8429898   0.60146878   0.75042601 0.0014943474 0.00029791446 
   16800    3.2390891   0.48244374    2.1718221    5.8933549    2.5175563    2.1718221   0.75152215 0.00023048941   -0.0028406 
   16900    3.9019619    1.3421713   0.61588138    5.8600145    1.6578287   0.61588138   0.75331007 0.00069463157 0.0002748574 
   17000    1.9198139    2.7037656    2.7180618    7.3416413   0.29623439    2.7180618   0.75846716 -0.0016145516 -0.0039191893 
   17100    2.9162675   0.60048905   0.81724341    4.3339999     2.399511   0.81724341   0.75175176  0.001054845 -0.00013098331 
   17200    5.8433884    2.2644245   0.20845448    8.3162673   0.73557552   0.20845448   0.75668803 0.00035141403 0.0010964671 
   17300    4.9429013    2.4705469   0.12088031    7.5343285    0.5294531   0.12088031   0.75396721 0.00027238186 0.0012661738 
   17400    5.2018672    1.1162721   0.89852786    7.2166671    1.8837279   0.89852786   0.75338909 0.00065680003 -0.00029027754 
   17500     5.130396    2.3229188  0.042908364    7.4962232   0.67708115  0.042908364   0.75496857 0.00042278186 0.0014241204 
   17600    3.7686576    4.3651397   0.58550403    8.7193013   -1.3651397   0.58550403   0.76351467 -0.0013004291 0.00035602128 
   17700   0.88828001    3.2987263   0.15418095    4.3411872  -0.29872625   0.15418095   0.75920563 -0.00030193813 0.0012100494 
   17800    3.1258755    1.6495592  0.079283706    4.8547184    1.3504408  0.079283706   0.75285812 0.00084743808 0.0013471488 
   17900    1.5753477    1.6703109    1.8144925    5.0601512    1.3296891    1.8144925   0.75454964 -0.00032320229 -0.0021198858 
   18000    7.2907489     1.712721   0.10326479    9.1067347     1.287279   0.10326479   0.75486121 0.0007893428 0.0013031928 
   18100     2.361929    1.2225439   0.11233823    3.6968111    1.7774561   0.11233823   0.75347255 0.0011100786 0.0012822686 
   18200     2.838365    3.6856343   0.01631637    6.5403157  -0.68563432   0.01631637   0.75939215 -0.00046796713 0.0014861516 
   18300    3.5352651    3.1061871  0.037347647    6.6787998  -0.10618712  0.037347647   0.75969068 -9.5689843e-05 0.0014446861 
   18400    3.6203673    1.8517993   0.38703995    5.8592066    1.1482007   0.38703995   0.75469037 0.00050744048 0.00073530085 
   18500    3.8981348   0.81450349 0.0076081459    4.7202465    2.1854965 0.0076081459   0.75257872 0.0014519256 0.0014899411 
   18600    3.1476604    1.2398766   0.35048464    4.7380217    1.7601234   0.35048464   0.75391676 0.00093975917 0.00080686422 
   18700    1.1268223    4.4441358   0.94711808    6.5180762   -1.4441358   0.94711808   0.76339468 -0.0015941693 -0.00036744679 
   18800    3.4207131    4.4768241   0.12417197    8.0217093   -1.4768241   0.12417197   0.75802118 -0.0010673307 0.0012676984 
   18900    2.7658809    1.6068968     2.725691    7.0984686    1.3931032     2.725691   0.75503129 -0.00088839181 -0.0039413194 
   19000    0.9565062    4.0026296    4.8056862    9.7648221   -1.0026296    4.8056862   0.75901016 -0.0038722106 -0.0080933521 
   19100     5.054453   0.65865598    1.8103329    7.5234419     2.341344    1.8103329   0.75166844 0.00035400738 -0.002117329 
   19200     4.564441    1.4661786   0.17845982    6.2090795    1.5338214   0.17845982   0.75440794 0.00090357437 0.0011518962 
   19300    1.2965337    2.8930466   0.62963449    4.8192148   0.10695345   0.62963449   0.75841139 -0.00034845402 0.00025755381 
   19400    3.9652658    4.2470055   0.19365336    8.4059246   -1.2470055   0.19365336    0.7626993 -0.00096043921 0.0011380919 
   19500    6.0118984    3.5285718    1.2249049    10.765375  -0.52857181    1.2249049   0.76116172 -0.0011689845 -0.00092748644 
   19600    4.9454477   0.37335549    2.3030586    7.6218618    2.6266445    2.3030586   0.75115614 0.00021572391 -0.003103805 
   19700    2.8838586    3.7872603  0.087738751    6.7588576  -0.78726028  0.087738751   0.75614065 -0.00058333268 0.0013368038 
   19800    1.7382976    3.8442622    2.4272119    8.0097717  -0.84426221    2.4272119    0.7600832 -0.0021809828 -0.0033342574 
   19900     2.335162    4.3094572    1.7079001    8.3525193   -1.3094572    1.7079001    0.7585139 -0.0020115715 -0.0018987724 
   20000     3.043953   0.99475151    1.9560474    5.9947519    2.0052485    1.9560474   0.75310674 3.2800709e-05 -0.0024058814 
   20100   0.75898581    2.7100109    1.5471767    5.0161734   0.28998907    1.5471767   0.75762774 -0.00083812506 -0.0015790978 
   20200   0.90800963    3.0512802    3.8445988    7.8038886 -0.051280176    3.8445988   0.75741101 -0.0025972526 -0.0061743755 
   20300     3.285607   0.70763893   0.16968646    4.1629324    2.2923611   0.16968646   0.75118607 0.0014151164 0.0011629992 
   20400    4.5022326    2.7125406  0.085874063    7.3006473    0.2874594  0.085874063   0.75858808 0.00013439023  0.001345428 
   20500    2.9043698   0.51907273  0.014123208    3.4375658    2.4809273  0.014123208   0.75095365  0.001644536 0.0014736609 
   20600    2.8523889    3.6302121  0.007954411    6.4905554   -0.6302121  0.007954411   0.75795239 -0.00042544434  0.001499996 
   20700    2.0813196    2.0711258   0.82381486    4.9762602    0.9288742   0.82381486   0.75623343 7.0039562e-05 -0.00013516287 
   20800    3.1219916    5.5123186   0.53948432    9.1737945   -2.5123186   0.53948432   0.76713117 -0.0020345353 0.0004552937 
   20900    3.5719567    3.7735638  0.067291379     7.412812  -0.77356384  0.067291379   0.75894774 -0.00056057015 0.0013833127 
   21000   0.98027542   0.67351544   0.84931177    2.5031026    2.3264846   0.84931177   0.75191063 0.00098478186 -0.00019480227 
   21100    3.0926131    1.9999875   0.18796467    5.2805652    1.0000125   0.18796467   0.75624583 0.00054136525 0.0011365623 
   21200    3.4077467    1.5024762    1.2929462    6.2031691    1.4975238    1.2929462   0.75460567 0.00013638506 -0.0010766811 
   21300    4.5088752    1.8501729   0.49704012    6.8560882    1.1498271   0.49704012   0.75408234 0.0004351913 0.00051408443 
   21400    3.9344928    2.1647663 0.0061591464    6.1054183   0.83523371 0.0061591464   0.75608392 0.00055271637 0.0014998496 
   21500    2.0908304    1.8609095    1.4250965    5.3768364    1.1390905    1.4250965   0.75556711 -0.00019067067 -0.0013390588 
   21600    2.8272862    2.5537807   0.16641013    5.5474771   0.44621931   0.16641013   0.75683205 0.00018653946 0.0011808438 
   21700     2.391231   0.82201682    4.0048057    7.2180535    2.1779832    4.0048057   0.75251158 -0.0012178817 -0.0065045882 
   21800    2.6884093    1.2682752  0.094192537     4.050877    1.7317248  0.094192537   0.75206033 0.0010916882 0.0013157356 
   21900    2.3186886    2.3983632   0.13566273    4.8527145   0.60163683   0.13566273   0.75703983 0.0003106494 0.0012427542 
   22000    3.9525037    0.3021584   0.13946188     4.394124    2.6978416   0.13946188   0.75078327 0.0017055865 0.0012226428 
   22100    6.5798892    3.3727827   0.31752374    10.270196  -0.37278271   0.31752374   0.75569181 -0.0004602043 0.00087633614 
   22200    3.9968222   0.87274765  0.094040285    4.9636102    2.1272524  0.094040285    0.7518914 0.0013554747 0.0013157022 
   22300    1.5256836    3.4629777   0.24551288    5.2341742  -0.46297771   0.24551288   0.76052088 -0.00047232706  0.001030016 
   22400    3.3178769    1.4653653    1.8308289    6.6140711    1.5346347    1.8308289   0.75278101 -0.00019746281 -0.0021560958 
   22500    1.5935823    1.0055106   0.57602616    3.1751191    1.9944894   0.57602616   0.75256318 0.00094564218 0.00035307403 
   22600    1.4644766    2.1553483   0.40938902    4.0292139   0.84465168   0.40938902   0.75643584 0.0002901751 0.00069409364 
   22700    4.3892394    3.9804969   0.43436679    8.8041032  -0.98049693   0.43436679   0.75716562 -0.00094324248 0.00064559765 
   22800    3.1489193   0.35336444  0.067847406    3.5701311    2.6466356  0.067847406   0.75081593 0.0017191921 0.0013659371 
   22900     4.369142     1.513829    0.1550704    6.0380414     1.486171    0.1550704   0.75421886 0.00088740038 0.0011982969 
   23000    4.3515822    1.9074716  0.035691017    6.2947449    1.0925284  0.035691017   0.75590378 0.00070455823 0.0014404255 
   23100    2.1612533   0.55774335  0.026923678    2.7459203    2.4422567  0.026923678   0.75143719  0.001610222  0.001449027 
   23200    3.2302177    1.1695507   0.06487897    4.4646474    1.8304493   0.06487897   0.75314678 0.0011770469 0.0013765356 
   23300    3.4058329    1.3197948    1.6110614    6.3366892    1.6802052    1.6110614   0.75346938 4.6095836e-05 -0.0017151841 
   23400    4.2273208   0.72983126  0.020704008     4.977856    2.2701687  0.020704008   0.75216959 0.0014996432 0.0014629312 
   23500     1.587419    2.4635837     1.294083    5.3450856   0.53641634     1.294083   0.75549174 -0.0005051111 -0.0010771825 
   23600    2.9294982    3.1784049     1.552372    7.6602751  -0.17840494     1.552372   0.75861396 -0.0011538513 -0.0015875161 
   23700    1.1596159   0.99301777    0.2251736    2.3778072    2.0069822    0.2251736   0.75210336 0.0011878724 0.0010538595 
   23800    2.7049321    1.2893779  0.005477927    3.9997879    1.7106221  0.005477927   0.75389416 0.0011367628 0.0014968325 
   23900    1.6557883    1.5799531 0.0047816502    3.2405231    1.4200469 0.0047816502   0.75359527 0.00094351018 0.0014976272 
   24000    2.8923656    3.3399274     1.597967    7.8302601  -0.33992745     1.597967    0.7580904 -0.0012919296 -0.0016797532 
   24100    2.8762434     2.146504 0.0068857169    5.0296331   0.85349605 0.0068857169   0.75672022 0.00056440689  0.001499669 
   24200    1.6511392    4.3107147   0.49613176    6.4579856   -1.3107147   0.49613176   0.75723799 -0.0012045643 0.00052221246 
   24300    2.9481045   0.80716973    3.6830816    7.4383557    2.1928303    3.6830816   0.75184328 -0.00099350086 -0.0058624766 
   24400    1.2123522    3.1828136   0.21832815     4.613494  -0.18281357   0.21832815   0.75765385 -0.00026742782 0.0010786514 
   24500    4.0279726   0.55495374   0.38501926    4.9679456    2.4450463   0.38501926   0.75175668 0.0013733513 0.00073347483 
   24600    3.5188668   0.47292434  0.080714937     4.072506    2.5270757  0.080714937   0.75138293 0.0016309071  0.001341336 
   24700    1.2170632    2.1854719    2.2348034    5.6373385   0.81452806    2.2348034   0.75566075 -0.00094685022 -0.0029582853 
   24800    2.9360171     2.107456     1.521146     6.564619   0.89254401     1.521146   0.75571605 -0.00041906797 -0.0015308598 
   24900   0.86046198    3.3558115   0.20688627    4.4231598  -0.35581154   0.20688627   0.75954057 -0.00037513187 0.0011053086 
   25000    2.7145012    1.5293612   0.64506892    4.8889313    1.4706388   0.64506892   0.75464628 0.00055037994 0.00021915472 
   25100    3.5918833    2.0172404  0.026241702    5.6353654   0.98275959  0.026241702    0.7553401 0.00063767859 0.0014581968 
   25200    5.0163288   0.74176212   0.11873617    5.8768271    2.2582379   0.11873617   0.75233314 0.0014263345 0.0012671939 
   25300    2.3819816    3.7423035  0.024854847    6.1491399  -0.74230349  0.024854847   0.75999066 -0.00051143889 0.0014702716 
   25400    1.3927956    1.8327943   0.38287469    3.6084646    1.1672057   0.38287469   0.75447768 0.00052288733 0.00074320598 
   25500    1.2270224    2.8099137   0.12811202    4.1650481   0.19008627   0.12811202   0.75763463 4.131617e-05 0.0012590452 
   25600    2.9358736    0.7970411  0.086645096    3.8195598    2.2029589  0.086645096   0.75250789 0.0014108759 0.0013317256 
   25700    3.6105118    1.2414782   0.55762242    5.4096125    1.7585218   0.55762242   0.75274275 0.00080059956 0.00039024066 
   25800    4.9286683    1.4764729 0.0096847252    6.4148259    1.5235271 0.0096847252   0.75452899 0.0010092282 0.0014896885 
   25900     1.688331   0.96565739    1.4306378    4.0846262    2.0343426    1.4306378   0.75255017 0.00040246985 -0.0013561753 
   26000    5.4668493    1.6751245   0.12544955    7.2674233    1.3248755   0.12544955   0.75528903 0.00079961732 0.0012596789 
   26100    2.4844169    1.6333098   0.65295544    4.7706822    1.3666902   0.65295544   0.75446399 0.00047582315 0.00020301711 
   26200    1.4317536    1.8718634    0.6093854    3.9130024    1.1281366    0.6093854   0.75570323 0.00034583414 0.00029263566 
   26300    2.4801409     5.324648  0.047818747    7.8526076    -2.324648  0.047818747   0.76055651 -0.0015816445 0.0014254755 
   26400   0.32104712    2.9977176  0.019583084    3.3383479 0.0022823568  0.019583084   0.75797637 -1.1533818e-05 0.0014767866 
   26500    6.2658193    2.5094024   0.33443632     9.109658   0.49059763   0.33443632   0.75504043 0.00010410754 0.00084120821 
   26600    2.2581854    5.3471074  0.049521993    7.6548147   -2.3471074  0.049521993   0.76348767 -0.0015977529 0.0014279313 
   26700   0.76386739    5.5386649   0.13903816    6.4415705   -2.5386649   0.13903816   0.76671206 -0.0017851354 0.0012553478 
   26800    4.6335807    1.2081562    1.6927929    7.5345298    1.7918438    1.6927929   0.75207279 6.6033936e-05 -0.0018814402 
   26900    3.1893046    0.7123949 0.0032964503    3.9049959    2.2876051 0.0032964503   0.75223734 0.0015228724 0.0014978818 
   27000    4.6563108    1.9929284    2.5358023    9.1850415    1.0070716    2.5358023    0.7550806 -0.0010191538 -0.0035614434 
   27100    1.9161972    1.4849186  0.014940104    3.4160559    1.5150814  0.014940104   0.75409647 0.0010000942 0.0014783127 
   27200   0.85837901    2.2874402   0.87748957    4.0233088   0.71255983   0.87748957   0.75491445 -0.00010995316 -0.00024515024 
   27300    2.7158062    2.4227007  0.056167131    5.1946741   0.57729927  0.056167131    0.7561241 0.00034742143 0.0013999139 
   27400    4.1028807      3.85432 0.0097104619    7.9669111  -0.85431999 0.0097104619   0.75678283 -0.0005760203 0.0014941447 
   27500    1.4856711    2.7169416   0.24734074    4.4499534   0.28305839   0.24734074   0.75691964 2.3811767e-05 0.0010191578 
   27600    4.0175063   0.91926638  0.034783159    4.9715558    2.0807336  0.034783159   0.75285664  0.001363967  0.001436147 
   27700    7.8060112   0.44882303  0.076386887    8.3312212     2.551177  0.076386887   0.75116257 0.0016498601 0.0013495514 
   27800     4.962318    2.6986255    2.9305822    10.591526   0.30137452    2.9305822   0.75853035 -0.0017528051 -0.0043441038 
   27900    2.9133161    4.7594773  0.018373102    7.6911666   -1.7594773  0.018373102   0.76238814 -0.0011852336 0.0014880301 
   28000    2.4329953    3.2412428    0.7574338    6.4316719  -0.24124281    0.7574338   0.75970658 -0.00066578441 4.5455523e-06 
   28100    4.4445647    1.4463896   0.14698085    6.0379351    1.5536104   0.14698085   0.75457761 0.00093775303 0.0012151935 
   28200    2.8212488    2.1648302    1.3827234    6.3688024   0.83516979    1.3827234    0.7568152 -0.00036503573 -0.0012518164 
   28300     1.201136    3.6234669    1.9650086    6.7896114  -0.62346685    1.9650086   0.75735396 -0.0017256503 -0.0024153092 
   28400   0.88825353     4.470129   0.83969625    6.1980788    -1.470129   0.83969625   0.76414986 -0.0015398835 -0.00015109277 
   28500    3.3832825    1.9593628   0.34398964     5.686635    1.0406372   0.34398964    0.7546737 0.00046443168 0.00082136812 
   28600    1.3648065    2.1460376  0.025336154    3.5361803   0.85396236  0.025336154   0.75633808 0.00055241747 0.0014620039 
   28700    3.5938482    1.1075523   0.01207438    4.7134749    1.8924477   0.01207438   0.75269584 0.0012535822 0.0014812429 
   28800    3.9766989    1.8884676    0.1240793    5.9892457    1.1115324    0.1240793    0.7532429 0.00065830207 0.0012583272 
   28900    5.8569822   0.97773606  0.083230347    6.9179486    2.0222639  0.083230347   0.75282073 0.0012926891 0.0013391808 
   29000    1.9306141    1.2811126  0.080980369    3.2927071    1.7188874  0.080980369   0.75390006  0.001091938 0.0013458394 
   29100    2.5030538    2.6364928   0.51943906    5.6589857   0.36350717   0.51943906    0.7582074 -0.00010395459 0.00047753668 
   29200    3.4764805   0.38470944   0.75098823    4.6121781    2.6152906   0.75098823   0.75070929 0.0012428682 -5.5788221e-07 
   29300    2.4838437    4.5038695   0.13910948    7.1268227   -1.5038695   0.13910948   0.76104119 -0.0010953193 0.0012438634 
   29400    2.2852428   0.14010103   0.50549035    2.9308342     2.859899   0.50549035   0.75044294 0.0015696057 0.00048990518 
   29500    1.7487024    1.8063882   0.19780297    3.7528936    1.1936118   0.19780297   0.75571213 0.00066387252 0.0011158183 
   29600    5.3964138    2.1626004   0.63748865    8.1965028   0.83739961   0.63748865   0.75674273 0.00013327398 0.00023850816 
   29700    2.1944187    2.5079571   0.41458874    5.1169646   0.49204288   0.41458874   0.75520075 5.1636094e-05 0.00068122401 
   29800    1.2888139    5.0199452   0.86861134    7.1773704   -2.0199452   0.86861134   0.75917187 -0.0019257044 -0.00021887894 
   29900    1.3850194    3.1815238    5.8225505    10.389094  -0.18152375    5.8225505   0.75962469 -0.0040027162 -0.010125852 
   30000    1.9354853    2.2917683  0.011596448      4.23885   0.70823174  0.011596448   0.75507037 0.00046442353 0.0014869478 
   30100    3.8145985    2.3126551   0.18823269    6.3154863   0.68734491   0.18823269   0.75670069 0.00033274148  0.001136936 
   30200    1.4033953    4.0130102   0.08360954     5.500015   -1.0130102   0.08360954   0.76034869 -0.0007310798 0.0013534783 
   30300    2.3423248     5.526049  0.020221008    7.8885949    -2.526049  0.020221008   0.76587648 -0.0016975134 0.0014913109 
   30400     3.940722   0.73215545  0.078857508    4.7517349    2.2678446  0.078857508   0.75231819 0.0014593247 0.0013469214 
   30500    2.4694159   0.88383801   0.78810486    4.1413587     2.116162   0.78810486   0.75200665 0.00088537142 -7.2196423e-05 
   30600    5.3151229   0.62590467   0.79852956    6.7395572    2.3740953   0.79852956   0.75194413 0.0010503772 -9.3170861e-05 
   30700    1.6940265    2.9236934  0.088441208    4.7061611  0.076306618  0.088441208   0.75699318 -8.0897267e-06 0.0013371039 
   30800    6.0839384    1.2234048   0.39435327    7.7016965    1.7765952   0.39435327   0.75386711 0.00092149463 0.00071902767 
   30900    5.4213099    0.4832253     1.766967    7.6715022    2.5167747     1.766967   0.75142486 0.0004998718 -0.0020310843 
   31000    4.3247544    1.3731293    1.3146638    7.0125475    1.6268707    1.3146638   0.75417223 0.00020813794 -0.0011209831 
   31100    3.5343179   0.96186082    1.3025175    5.7986962    2.0381392    1.3025175   0.75231264 0.00049041446 -0.0011004097 
   31200     2.147007    1.2018844     5.700306    9.0491974    1.7981156     5.700306   0.75306868 -0.0026014602 -0.0098944746 
   31300    4.0163908    1.2764157   0.72536609    6.0181726    1.7235843   0.72536609   0.75403345 0.0006654788 5.7334713e-05 
   31400    3.6915388    3.5146075   0.12442188    7.3305681  -0.51460748   0.12442188    0.7603894 -0.00042601957  0.001271935 
   31500    0.5350272    1.9625945    0.6577542    3.1553759    1.0374055    0.6577542   0.75382766 0.00025310087 0.00019214691 
   31600    6.0636834    1.6977386    4.0772218    11.838644    1.3022614    4.0772218   0.75293409 -0.0018499736 -0.0066485753 
   31700     2.136927    3.8302342   0.68117592    6.6483371  -0.83023418   0.68117592   0.76210456 -0.0010076067 0.00016185727 
   31800    1.3915346    1.4086446   0.40620815    3.2063874    1.5913554   0.40620815   0.75330822 0.00079009814 0.00069420014 
   31900     2.473399    3.8733327    1.3064796    7.6532113  -0.87333272    1.3064796   0.76023391 -0.0014532082 -0.0010924914 
   32000    5.3504214    1.1989875   0.87596085    7.4253698    1.8010125   0.87596085    0.7526342 0.00061670111 -0.00024665329 
   32100    2.5839848    1.3870401 0.0071402426    3.9781651    1.6129599 0.0071402426   0.75417147 0.0010705465 0.0014940625 
   32200    1.3994145     2.300852  0.006532302    3.7067988   0.69914798  0.006532302   0.75628163 0.00046174378 0.0014994987 
   32300    1.0035272    4.7776576    1.3049764    7.0861612   -1.7776576    1.3049764   0.76486393 -0.0020550894 -0.0010802249 
   32400    3.5391178    1.1805895   0.37119819    5.0909054    1.8194105   0.37119819   0.75373081 0.00096547489 0.00076506523 
   32500    1.0742257    2.1959894  0.037970365    3.3081855   0.80401061  0.037970365    0.7539025 0.00051069349 0.0014318643 
   32600     2.319914    2.3377363     1.205175    5.8628253   0.66226371     1.205175   0.75621306 -0.00036194087 -0.00089792391 
   32700    4.6903457    2.3555035    1.7595405    8.8053898   0.64449645    1.7595405    0.7573709 -0.00074336273 -0.0020043393 
   32800    1.9044572      1.11611   0.30413342    3.3247006      1.88389   0.30413342   0.75338644  0.001053171 0.00089850605 
   32900   0.33111601     3.934223    5.8069641    10.072303  -0.93422302    5.8069641   0.76069946 -0.0044941247 -0.010092529 
   33000    3.2954491    1.0305752   0.16138807    4.4874123    1.9694248   0.16138807   0.75278699 0.0012053578 0.0011827978 
   33100    1.8176576    3.6558996  0.062159516    5.5357167  -0.65589963  0.062159516    0.7597633 -0.0004787061 0.0013952076 
   33200    7.8689739    1.7232265    1.0152087    10.607409    1.2767735    1.0152087   0.75346938 0.00017437657 -0.00052347856 
   33300    3.1467018   0.79722115    0.1739228    4.1178458    2.2027788    0.1739228   0.75248921 0.0013525707 0.0011571328 
   33400    3.9624624    1.0092819  0.019679943    4.9914243    1.9907181  0.019679943   0.75298414 0.0013140254 0.0014666084 
   33500    2.7829094   0.72205555   0.59322752    4.0981925    2.2779445   0.59322752   0.75228024 0.0011231446 0.00031810544 
   33600     5.073791    1.0699168   0.08364685    6.2273547    1.9300832   0.08364685   0.75252729 0.0012309575 0.0013377609 
   33700    2.7218173    1.5953788 0.0049153411    4.3221115    1.4046212 0.0049153411   0.75388628 0.00093313721 0.0014979419 
   33800    3.2502167    1.8282464 0.0055462827    5.0840094    1.1717536 0.0055462827   0.75533461 0.00077747151 0.0014995767 
   33900    2.9285336   0.19220124   0.31201236    3.4327472    2.8077988   0.31201236    0.7504489 0.0016638576 0.00087687308 
   34000    4.0671802    2.2836011   0.21928222    6.5700635   0.71639891   0.21928222   0.75437745 0.00033141112 0.0010701905 
   34100    1.7480356    2.0555602   0.34090558    4.1445015   0.94443977   0.34090558   0.75521087 0.00040235613 0.00082861058 
   34200    3.4416514    1.7116465  0.052536074     5.205834    1.2883535  0.052536074   0.75528518 0.00082387829 0.0014054982 
   34300    2.6316519    3.0930759   0.67358338    6.3983111 -0.093075901   0.67358338   0.75979352 -0.00051110619 0.00017242029 
   34400    1.5467673    1.6346038   0.24705726    3.4284284    1.3653962   0.24705726   0.75379367 0.00074555928 0.0010134728 
   34500    3.2738913    1.7397588    2.3525588     7.366209    1.2602412    2.3525588   0.75370343 -0.00072821175 -0.0031977107 
   34600    2.1867222     1.684955  0.026416125    3.8980933     1.315045  0.026416125   0.75441765 0.00085908594 0.0014560031 
   34700    5.5118123    2.3320247    0.1235501    7.9673871   0.66797529    0.1235501    0.7556456 0.00036295013  0.001264191 
   34800    3.6112579     2.431342    5.9358567    11.978457     0.568658    5.9358567   0.75412876 -0.0035781324 -0.010363456 
   34900    2.5688555    3.4791504    1.3048631    7.3528689  -0.47915038    1.3048631   0.75962974 -0.0011893423 -0.0010904667 
   35000    3.1148396    0.8199059     0.164436    4.0991815    2.1800941     0.164436   0.75237814 0.0013437721 0.0011758843 
   35100    4.7354282   0.61230491   0.27769546    5.6254286    2.3876951   0.27769546   0.75193832 0.0014066664 0.00094848571 
   35200   0.43135632    1.8095232   0.29341874    2.5342982    1.1904768   0.29341874   0.75570506 0.00059803873 0.00092457264 
   35300    4.4581709    1.6445412   0.54492112    6.6476332    1.3554588   0.54492112   0.75448149 0.00054035847 0.00041912074 
   35400    4.3271959    2.3126048   0.12407323    6.7638739   0.68739518   0.12407323   0.75703125 0.00037554796  0.001265916 
   35500     6.250628    0.5974621   0.12371037    6.9718004    2.4025379   0.12371037   0.75097635 0.0015192184  0.001254532 
   35600    1.3085726     5.657743   0.25987663    7.2261922    -2.657743   0.25987663   0.76409823 -0.0019450798 0.0010084432 
   35700    6.9902704    2.1824641   0.10121938    9.2739538   0.81753594   0.10121938   0.75680844 0.00047754437 0.0013111781 
   35800    2.3545378    1.0037357   0.16467319    3.5229467    1.9962643   0.16467319   0.75241433 0.0012210607 0.0011754823 
   35900    2.5882123    3.0099759  0.098890217    5.6970785 -0.009975948  0.098890217   0.75914486 -7.2577443e-05 0.0013205093 
   36000    5.6432368    1.6466844    1.2100332    8.4999544    1.3533156    1.2100332   0.75431984 9.5521591e-05 -0.00091142682 
   36100     4.864078   0.86311056 0.0050734071     5.732262    2.1368894 0.0050734071   0.75272999 0.0014212107 0.0014953132 
   36200    5.7038807    1.0934249  0.023500343    6.8208059    1.9065751  0.023500343    0.7524022 0.0012553832 0.0014578037 
   36300     7.713941     2.697157   0.16045496    10.571553   0.30284303   0.16045496   0.75808207 9.4925378e-05 0.0011952542 
   36400    1.4602305   0.74119956  0.065212429    2.2666425    2.2588004  0.065212429   0.75140418  0.001462392 0.0013723835 
   36500    3.9995352    1.3784435   0.14485413    5.5228328    1.6215565   0.14485413   0.75226608 0.00098446822 0.0012148239 
   36600    1.3066941    2.3576958  0.055424469    3.7198144   0.64230422  0.055424469   0.75629767 0.00039125317 0.0014017464 
   36700    5.8881595    0.3940288  0.041485099    6.3236734    2.6059712  0.041485099   0.75095615 0.0017096574 0.0014189421 
   36800    4.4390528    2.2245539   0.64329748    7.3069042   0.77544607   0.64329748   0.75692778 8.8099062e-05 0.00022726061 
   36900    1.5779849    3.2142446     2.845504    7.6377335  -0.21424462     2.845504   0.75737062 -0.0020398324 -0.0041762667 
   37000    5.2768887   0.75278862   0.28837988    6.3180572    2.2472114   0.28837988   0.75150209 0.0013058877 0.00092624441 
   37100    3.3624858    1.6895381   0.11668884    5.1687127    1.3104619   0.11668884   0.75514531 0.0007958487 0.0012769129 
   37200     3.441756    4.6654134   0.56914273    8.6763121   -1.6654134   0.56914273   0.75760638 -0.0014897041 0.00037692729 
   37300    2.2784042    1.0859485  0.019325208    3.3836779    1.9140515  0.019325208   0.75306832 0.0012631509 0.0014674862 
   37400    1.9246328    3.7064234   0.19846487    5.8295211  -0.70642341   0.19846487    0.7573385 -0.00060325885 0.0011177473 
   37500    3.8764751    3.0851266    2.5382611    9.4998628 -0.085126603    2.5382611   0.75976821 -0.0017489251 -0.0035569858 
   37600   0.66955744    3.6135219   0.33845807    4.6215374  -0.61352186   0.33845807   0.75895885 -0.00063465329 0.00084100155 
   37700    2.0604463     3.456084   0.77717702    6.2937072  -0.45608396   0.77717702   0.75976706 -0.00082217399 -3.4819926e-05 
   37800    1.9296328    4.4786964    1.9838827     8.392212   -1.4786964    1.9838827   0.75744439 -0.0023083861 -0.0024528766 
   37900    5.9806397    1.7571375  0.044237266    7.7820144    1.2428625  0.044237266   0.75491446 0.0007990835 0.0014213544 
   38000    2.1380777   0.82087072   0.72803288    3.6869813    2.1791293   0.72803288   0.75199066 0.0009673976 4.7915546e-05 
   38100    2.6044064    2.4383005   0.54941428    5.5921212    0.5616995   0.54941428   0.75482513 8.1901512e-06 0.0004108217 
   38200    1.3581922    1.9756915   0.27437449    3.6082583    1.0243085   0.27437449   0.75376489 0.00049995598 0.00095878081 
   38300    3.3170307    1.3090897    0.1277966     4.753917    1.6909103    0.1277966   0.75404791 0.0010420758 0.0012525026 
   38400    2.1583673    3.2342228   0.54258409    5.9351742   -0.2342228   0.54258409   0.76017061 -0.00051787126 0.00043517304 
   38500    2.0659518    1.0172311    0.4277805    3.5109634    1.9827689    0.4277805   0.75314861  0.001036659 0.00065073622 
   38600    2.2465307    2.6935825     1.362557    6.3026701   0.30641754     1.362557   0.75630727 -0.00070409294 -0.0012124994 
   38700    2.1496683    3.7586456   0.12832854    6.0366424  -0.75864557   0.12832854   0.75904556 -0.00059131607 0.0012614341 
   38800    4.3640752    0.5004452   0.30204763     5.166568    2.4995548   0.30204763   0.75155908 0.0014650048 0.00089902291 
   38900    2.6484861   0.99289812   0.65368548    4.2950697    2.0071019   0.65368548   0.75313251 0.0009022776 0.00019889406 
   39000    2.8220595   0.95330274    1.4323273    5.2076896    2.0466973    1.4323273    0.7515218 0.00040957995 -0.0013616111 
   39100    1.6762236    2.0682789   0.27670656    4.0212091   0.93172112   0.27670656   0.75498396 0.00043667638 0.00095655479 
   39200    3.7903366    3.2644005    0.1960313    7.2507684  -0.26440051    0.1960313   0.75814727 -0.00030695454 0.0011242319 
   39300    2.9364784    1.1188199    1.9387591    5.9940574    1.8811801    1.9387591   0.75353706 -3.8385977e-05 -0.002370444 
   39400    2.8884144   0.87907066    2.9125175    6.6800026    2.1209293    2.9125175   0.75276533 -0.00052772544 -0.0043195043 
   39500    1.9353969    3.2579694    3.4088207    8.6021869  -0.25796937    3.4088207   0.75947942 -0.0024445267 -0.0052986826 
   39600    5.9414042    1.2979898   0.15139897     7.390793    1.7020102   0.15139897   0.75350106 0.0010337408 0.0012042042 
   39700   0.39179696    2.4469086   0.67095673    3.5096623   0.55309143   0.67095673   0.75635935 -7.8576868e-05 0.00017080525 
   39800     4.924516    0.6280005    1.8705811    7.4230975    2.3719995    1.8705811   0.75176476 0.00033427896 -0.0022376326 
   39900    3.1176478    4.6391118    1.2901103    9.0468699   -1.6391118    1.2901103   0.76362094 -0.0019528147 -0.0010529787 
   40000    3.2103368    2.2865752  0.036944332    5.5338563   0.71342477  0.036944332    0.7572395 0.00045098696 0.0014405903 
   40100     5.463633    1.1399958 0.0065304152    6.6101593    1.8600042 0.0065304152   0.75320502 0.0012356492 0.0014933492 
   40200    2.8246884    3.5931241    4.7885054    11.206318  -0.59312407    4.7885054   0.75865601 -0.003587753 -0.0080596988 
   40300   0.98897052    2.0899359   0.64338202    3.7222884   0.91006413   0.64338202   0.75512818 0.00017778807 0.00022349231 
   40400    4.0202484   0.45081916    0.5982638    5.0693314    2.5491808    0.5982638    0.7514155 0.0013006114 0.00030630339 
   40500    3.4165159    2.3429068   0.87087464    6.6302974   0.65709316   0.87087464   0.75465358 -0.00014252099 -0.00023244212 
   40600    4.4290515     3.443246 0.0084110845    7.8807086    -0.443246 0.0084110845   0.75835785 -0.00030110472 0.0014998935 
   40700   0.36524117    7.3518432   0.77515592    8.4922403   -4.3518432   0.77515592   0.76698881 -0.0034179994 -1.633421e-05 
   40800    2.6754001   0.39949935    1.0964931    4.1713925    2.6005006    1.0964931   0.75124664 0.0010026717 -0.00069049296 
   40900    1.0339305    4.6992879   0.19354515    5.9267636   -1.6992879   0.19354515   0.76484791 -0.0012618887 0.0011426055 
   41000    3.6489305    2.3591398  0.082781675    6.0908519   0.64086024  0.082781675   0.75738249 0.00037205238 0.0013492016 
   41100    2.6858615    3.3218279    1.2121885    7.2198778   -0.3218279    1.2121885   0.76048516 -0.0010226776 -0.00090340659 
   41200    1.9787284    1.0222838   0.16804302    3.1690551    1.9777162   0.16804302   0.75300261 0.0012064488 0.0011699192 
   41300    3.9157833    1.9450778  0.056808889    5.9176699    1.0549222  0.056808889   0.75495146 0.0006654089 0.0013962851 
   41400    3.3334325    3.3532568    2.2211224    8.9078118  -0.35325684    2.2211224   0.75983389 -0.0017162529 -0.0029225771 
   41500    2.9248735     1.660602    0.3364756     4.921951     1.339398    0.3364756   0.75494704 0.00066861496 0.00083694289 
   41600    7.4409104   0.71112881 0.0018599199    8.1538991    2.2888712 0.0018599199   0.75177292 0.0015246742  0.001499826 
   41700    4.5431795    1.9525016    1.4297073    7.9253884    1.0474984    1.4297073   0.75610826 -0.00025480593 -0.0013471982 
   41800    1.1095264    2.5642387   0.86024526    4.5340103   0.43576132   0.86024526   0.75697411 -0.00028298929 -0.00020654229 
   41900    5.6650675    3.2052802   0.14545371    9.0158014   -0.2052802   0.14545371   0.75887584 -0.00023382261 0.0012268442 
   42000    1.6187242   0.86792561   0.49566062    2.9823104    2.1320744   0.49566062   0.75266667 0.0010909425 0.0005140121 
   42100    0.7080443     4.500733    0.6130353    5.8218127    -1.500733    0.6130353   0.76249673 -0.0014091789 0.00029892285 
   42200    3.8874874    5.1077578   0.11770658    9.1129518   -2.1077578   0.11770658   0.76609813 -0.0014836429 0.0012967831 
   42300    2.1307493    2.6505076    2.8992395    7.6804964   0.34949236    2.8992395   0.75530269 -0.0016998314 -0.0042878736 
   42400    3.7260339    1.4948372   0.24938655    5.4702576    1.5051628   0.24938655   0.75472389 0.00083718415 0.0010106747 
   42500    2.5265431   0.79845747    1.0929405     4.417941    2.2015425    1.0929405   0.75240579 0.00073906805 -0.00068106933 
   42600    2.2278464    6.4473959    1.9812925    10.656535   -3.4473959    1.9812925   0.76335305 -0.0036191256 -0.0024358789 
   42700    3.0992272    2.2357375  0.055342385    5.3903071   0.76426249  0.055342385   0.75557991 0.0004726134 0.0014004751 
   42800     5.062703    1.0207272    1.8540412    7.9374714    1.9792728    1.8540412   0.75239527 8.3487757e-05 -0.0022032918 
   42900    2.7125985    0.7461281   0.91238274    4.3711093    2.2538719   0.91238274   0.75218257 0.00089432611 -0.00032040034 
   43000    3.2403787    3.0250427   0.18399089    6.4494123 -0.025042718   0.18399089   0.75913467 -0.00013935574 0.0011502876 
   43100    2.4105167     6.495553    0.1776955    9.0837652    -3.495553    0.1776955   0.76641032 -0.0024488323 0.0011774296 
   43200     2.774169    1.8367008   0.58789513    5.1987649    1.1632992   0.58789513   0.75535488 0.00038360272 0.00033491951 
   43300    2.6142296    1.5344293   0.19008985    4.3387488    1.4655707   0.19008985   0.75350886 0.00085032058  0.001126838 
   43400   0.73163263     1.302983   0.79214151    2.8267571     1.697017   0.79214151   0.75299924 0.00060325036 -7.8284544e-05 
   43500   0.80568429      2.04125  0.051379699     2.898314   0.95874996  0.051379699   0.75358044 0.00060491351 0.0014044015 
   43600    4.2789292    1.5663401  0.054602774    5.8998721    1.4336599  0.054602774   0.75486908 0.00091937142 0.0014005326 
   43700    3.6747602    1.0999398   0.05634107     4.831041    1.9000602   0.05634107   0.75318798 0.0012291461 0.0013936938 
   43800    2.5540959    4.5423268   0.29701466    7.3934373   -1.5423268   0.29701466   0.76229338 -0.0012262276 0.00093055744 
   43900    2.3256281    3.9888453    6.5757319    12.890205  -0.98884525    6.5757319     0.757417 -0.0050430514  -0.01163663 
   44000    3.6217875    2.8061066    1.3297957    7.7576898   0.19389337    1.3297957   0.75821417 -0.0007572682 -0.001143163 
   44100    3.1857009    1.5771255   0.53064576    5.2934722    1.4228745   0.53064576    0.7546767 0.00059481918 0.00044806189 
   44200    1.3366415     3.951624    0.3058799    5.5941454  -0.95162405    0.3058799   0.76025817 -0.00083833597 0.00090875653 
   44300    3.8692523    4.3568073   0.94292369    9.1689832   -1.3568073   0.94292369   0.76253255 -0.001533154 -0.00036078226 
   44400    3.5683808   0.75753096   0.52808335    4.8539951     2.242469   0.52808335   0.75239016 0.0011429238 0.00044861363 
   44500    2.0168326    5.0834698   0.74373576    7.8440382   -2.0834698   0.74373576   0.76081727 -0.0018848037 3.4163013e-05 
   44600    1.3775706    2.6715918   0.94973924    4.9989016   0.32840817   0.94973924   0.75624731 -0.00041422071 -0.00038698387 
   44700    3.9995967    3.8761819  0.072990635    7.9487693  -0.87618194  0.072990635   0.76063581 -0.00063278172 0.0013752904 
   44800    3.9302277    1.3165477 0.0050095522     5.251785    1.6834523 0.0050095522   0.75233544 0.0011189618 0.0014946518 
   44900    3.0045023    4.4748014   0.26659358    7.7458972   -1.4748014   0.26659358   0.76416375  -0.00116093 0.00099514034 
   45000    1.0563983    1.2572916  0.038497643    2.3521876    1.7427084  0.038497643    0.7537246 0.0011361405 0.0014304539 
   45100    3.1092454    2.3176063   0.76686035    6.1937121   0.68239368   0.76686035   0.75609277 -5.6311119e-05 -2.1535165e-05 
   45200    4.5334234   0.19154648  0.024071317    4.7490412    2.8084535  0.024071317   0.75043456 0.0018562548 0.0014527265 
   45300   0.19451773    2.3515714    3.8001386    6.3462277   0.64842859    3.8001386   0.75575562  -0.00210114 -0.0060887659 
   45400    3.1364084    2.4606597  0.021384637    5.6184528   0.53934028  0.021384637   0.75423793 0.00034530376 0.0014657066 
   45500    3.7481853    0.6174788   0.32690667    4.6925708    2.3825212   0.32690667   0.75190389 0.0013704097 0.00084999442 
   45600    6.8050656    1.3233885  0.066126953    8.1945811    1.6766115  0.066126953   0.75415896 0.0010736564  0.001376064 
   45700    2.1916283    1.8364596  0.093014838    4.1211028    1.1635404  0.093014838   0.75473345 0.0007136837 0.0013234372 
   45800    3.6130552   0.31973264    2.1881883    6.1209761    2.6802674    2.1881883   0.75095066 0.00032805268 -0.0028744754 
   45900     1.146032    4.3569248    2.1514272    7.6543839   -1.3569248    2.1514272   0.76342941 -0.0023389013 -0.0027759955 
   46000    2.3310188    2.1072047    2.1352856     6.573509   0.89279529    2.1352856   0.75553536 -0.00082832685 -0.0027595004 
   46100   0.45899646    6.0215065   0.12593222    6.6064351   -3.0215065   0.12593222   0.76325655 -0.0020982925 0.0012746487 
   46200    2.4074988   0.76097372    0.2973769    3.4658495    2.2390263    0.2973769   0.75228658 0.0012944329 0.00090981935 
   46300    8.5080931    1.5962729   0.04930387     10.15367    1.4037271   0.04930387   0.75300688 0.00090294881  0.001407406 
   46400    1.9228282      3.42335  0.024262491    5.3704406  -0.42334998  0.024262491   0.75966868 -0.00029840831 0.0014708124 
   46500    3.4997831    2.0372487   0.38755773    5.9245895    0.9627513   0.38755773   0.75645007 0.00038346238 0.00073778467 
   46600    4.4389902    2.2145969  0.015544413    6.6691316   0.78540308  0.015544413   0.75701202 0.00051323911 0.0014829352 
   46700     3.663139    2.1369861  0.017141874     5.817267   0.86301389  0.017141874   0.75648971 0.00056391468 0.0014786957 
   46800    1.2179189    3.8383166   0.84245139    5.8986869  -0.83831659   0.84245139   0.76145075 -0.001120512 -0.00016200129 
   46900    1.6459531   0.73850616   0.92143273     3.305892    2.2614938   0.92143273   0.75216305 0.00089337407 -0.00033853935 
   47000    1.7229428     5.099059    1.6474993    8.4695011    -2.099059    1.6474993   0.76374823 -0.0024977055 -0.0017675021 
   47100     3.514478   0.72474713  0.010707914     4.249933    2.2752529  0.010707914   0.75205496 0.0015096966 0.0014826941 
   47200   0.26223729    5.1817481   0.18601461         5.63   -2.1817481   0.18601461   0.76392478 -0.0015785085 0.0011558203 
   47300    4.3855473    1.8591036    1.2409892      7.48564    1.1408964    1.2409892   0.75361201 -6.6728501e-05 -0.00097475435 
   47400    2.0106777    3.3244166    1.0046587    6.3397531  -0.32441663    1.0046587   0.75878959 -0.00088605024 -0.00049173829 
   47500    4.1512627    4.1267672    3.2064795    11.484509   -1.1267672    3.2064795    0.7627001 -0.0028888311 -0.0048875588 
   47600    1.9652887    1.8487613    1.1939918    5.0080418    1.1512387    1.1939918   0.75563766 -2.8502054e-05 -0.00087670825 
   47700    1.7449223     3.570586   0.30072662    5.6162349  -0.57058597   0.30072662   0.75814076 -0.00058087506 0.00091482828 
   47800    5.5616642    3.2382046   0.10924382    8.9091126  -0.23820462   0.10924382   0.75643357 -0.00023163229 0.0012943795 
   47900    4.2310076    2.9803738  0.097415034    7.3087965  0.019626156  0.097415034   0.75842913 -5.1859252e-05 0.0013220282 
   48000   0.11989992    6.4252681    2.1046498    8.6498179   -3.4252681    2.1046498   0.76762183 -0.003686612 -0.002674056 
   48100    2.7677901    1.7953718   0.45418175    5.0173437    1.2046282   0.45418175   0.75497993 0.00050029764 0.00060159636 
   48200    2.4107024    1.2130081   0.16765574    3.7913662    1.7869919   0.16765574   0.75276506 0.0010795575 0.0011702186 
   48300    1.1198163    1.5298026   0.47549649    3.1251153    1.4701974   0.47549649    0.7540126 0.00066313397 0.00055703223 
   48400    1.8821809     3.916522  0.021386452    5.8200894  -0.91652205  0.021386452   0.76152685 -0.00062527233 0.0014802808 
   48500    3.1982063    0.1372031   0.10988441    3.4452938    2.8627969   0.10988441   0.75031787  0.001835275 0.0012808669 
   48600    1.7513544    3.5703014   0.45181025     5.773466  -0.57030138   0.45181025   0.76116162 -0.00068140775 0.00061870275 
   48700    2.2424141    2.2780183    1.0945554    5.6149878   0.72198169    1.0945554   0.75556221 -0.00024838251 -0.00067798646 
   48800    6.0805737   0.52147302     3.737193     10.33924     2.478527     3.737193   0.75164925 -0.00083911068 -0.0059710875 
   48900    1.6998268    1.1390863   0.17302584    3.0119389    1.8609137   0.17302584   0.75309993 0.0011252586 0.0011601482 
   49000    7.4689751   0.14645881   0.10557983    7.7210137    2.8535412   0.10557983   0.75046167 0.0018319742 0.0012897637 
   49100    1.8872403    2.8034761    3.0890039    7.7797203   0.19652393    3.0890039    0.7587944  -0.00192832 -0.004660419 
   49200    2.4723084    4.6387756   0.11178208    7.2228661   -1.6387756   0.11178208   0.76367978 -0.0011670385 0.0013037954 
   49300     3.173214   0.43028937    1.4837757    5.0872791    2.5697106    1.4837757   0.75104826 0.00072395662 -0.0014654549 
   49400    7.5611824    2.5534127   0.71256641    10.827161    0.4465873   0.71256641   0.75447305 -0.00017731941 8.3813291e-05 
   49500    3.3409421     2.234625    2.1846541    7.7602212     0.765375    2.1846541   0.75671708 -0.0009461861 -0.0028558741 
   49600    2.7490581    3.3577526  0.063899337    6.1707101  -0.35775263  0.063899337   0.75756129 -0.00028110131 0.0013873239 
   49700    2.4897658    2.8383128    1.0682984    6.3963769    0.1616872    1.0682984   0.75816622 -0.00060440744 -0.00062026427 
   49800    3.9124299   0.94883483   0.16387549    5.0251402    2.0511652   0.16387549   0.75193898 0.0012581931  0.001176127 
   49900    4.9596543   0.38314544 0.0083342776     5.351134    2.6168546 0.0083342776   0.75099405 0.0017390135 0.0014853195 
   50000    2.3972263    3.1427118   0.42254163    5.9624797  -0.14271177   0.42254163    0.7595074 -0.0003768356 0.00067393155 
   50100    2.9406381     2.291822   0.11918255    5.3516427   0.70817798   0.11918255   0.75631077 0.00039266362 0.0012742564 
   50200    5.4347286    2.1846771   0.12181762    7.7412233   0.81532292   0.12181762   0.75378959 0.00046233686 0.0012639439 
   50300    1.2431235    4.3031609   0.98731027    6.5335947   -1.3031609   0.98731027   0.76262905 -0.0015269808 -0.00044936244 
   50400   0.63656646    2.2927268  0.029438684     2.958732   0.70727315  0.029438684   0.75695163 0.00045188964 0.0014550259 
   50500    4.5520517    2.2179519   0.69616262    7.4661662    0.7820481   0.69616262   0.75533381 5.7256989e-05 0.00011834238 
   50600    3.4165436    5.1224829   0.81593463    9.3549612   -2.1224829   0.81593463   0.76322088 -0.001958945 -0.00010542749 
   50700    1.6404599   0.79912455  0.087653269    2.5272377    2.2008755  0.087653269   0.75246746 0.0014088148 0.0013296284 
   50800    2.3495856    2.2894341  0.085254663    4.7242743   0.71056593  0.085254663    0.7549842 0.00041687418 0.0013394591 
   50900    4.2180547      2.41453  0.050035805    6.6826205   0.58547001  0.050035805   0.75751769 0.00035695613 0.0014149638 
   51000    1.3554543    3.8085381    1.0257682    6.1897606  -0.80853806    1.0257682   0.76119049 -0.0012228709 -0.00052915551 
   51100    1.1824345    1.4120221 0.0062774901     2.600734    1.5879779 0.0062774901   0.75293599  0.001054467  0.001493317 
   51200    3.2134159    1.1579527   0.34545246    4.7168211    1.8420473   0.34545246   0.75252749 0.00099772987 0.00081415006 
   51300    4.3472695    1.2577123   0.76305143    6.3680332    1.7422877   0.76305143   0.75366312 0.0006528242 -1.8776623e-05 
   51400    2.7425469    2.8325942   0.11176066    5.6869017   0.16740584   0.11176066    0.7560004 3.7096787e-05 0.0012884795 
   51500   0.59229584    1.5229211  0.091231587    2.2064485    1.4770789  0.091231587   0.75306576 0.00092389823 0.0013236684 
   51600    1.2593589    8.4534278   0.10912936     9.821916   -5.4534278   0.10912936    0.7654872 -0.0037083714 0.0013127157 
   51700    1.4641728    3.5158724    2.6884991    7.6685443  -0.51587244    2.6884991   0.76101637 -0.0021362477 -0.0038549655 
   51800     3.591988    4.2259273   0.40627848    8.2241938   -1.2259273   0.40627848    0.7600616 -0.0010881372 0.00070756624 
   51900   0.89670304    2.0865971    1.0668577    4.0501578   0.91340293    1.0668577   0.75515313 -0.00010230319 -0.00062340916 
   52000    4.6685101    3.8494069  0.059608653    8.5775256  -0.84940687  0.059608653   0.76013283 -0.00060601035 0.0014010484 
   52100    1.2436771   0.92610838    0.2230025     2.392788    2.0738916    0.2230025   0.75272575 0.0012339261 0.0010594465 
   52200    4.0359077    1.0143617  0.083729738    5.1339991    1.9856383  0.083729738   0.75176353  0.001267939 0.0013360676 
   52300    3.9648818    1.0890409   0.54257609    5.5964988    1.9109591   0.54257609   0.75234999 0.00091225532 0.00041954779 
   52400    2.2618354     2.912655   0.46894167    5.6434321  0.087344952   0.46894167   0.75804638 -0.00025439781 0.00057820942 
   52500    1.5103909    1.8250072   0.66833977    4.0037379    1.1749928   0.66833977   0.75577447 0.00033776868 0.00017486941 
   52600    1.9565733    3.4112889  0.033151135    5.4010133   -0.4112889  0.033151135   0.76022727 -0.00029629336 0.0014541523 
   52700    1.5993294    2.5357487   0.10266979    4.2377479   0.46425128   0.10266979   0.75728608 0.00024105433 0.0013092326 
   52800   0.95756503     5.072221   0.14968955    6.1794756    -2.072221   0.14968955   0.76588642 -0.0014812737 0.0012323937 
   52900    2.8746678    1.4596609   0.44954926    4.7838779    1.5403391   0.44954926    0.7543556 0.00072719326 0.00060961267 
   53000    2.7379191    1.3338682   0.18504146    4.2568288    1.6661318   0.18504146   0.75284484 0.00098739354 0.0011356068 
   53100    3.7691025    3.4908665  0.010460622    7.2704297  -0.49086652  0.010460622   0.76038112 -0.0003342181  0.001499841 
   53200    2.8147719    1.6623342   0.13289804    4.6100042    1.3376658   0.13289804   0.75425013 0.0008031785 0.0012427042 
   53300      3.65351    1.3152864    1.8439027    6.8126991    1.6847136    1.8439027   0.75415244 -0.00010612607 -0.0021795005 
   53400    1.4738676   0.65902951  0.011397469    2.1442946    2.3409705  0.011397469   0.75156237 0.0015530487 0.0014803298 
   53500    2.7640815    2.5127047    1.1771278     6.453914   0.48729532    1.1771278   0.75634259 -0.0004598883 -0.00084157034 
   53600     2.085419     3.062336   0.11950138    5.2672564 -0.062336023   0.11950138   0.75862974 -0.00012122494 0.0012782567 
   53700    7.5240727   0.20693884    6.7502967    14.481308    2.7930612    6.7502967   0.75065452 -0.002638157 -0.011999284 
   53800    2.5322503   0.40077442 0.0050090858    2.9380338    2.5992256 0.0050090858   0.75084767 0.0017294777 0.0014916772 
   53900      1.93954    2.2582268    0.5429354    4.7407022   0.74177321    0.5429354   0.75667913 0.00013255855 0.00042748747 
   54000    1.0933043    2.0960896   0.10661862    3.2960126   0.90391038   0.10661862   0.75517034 0.00053152784 0.0012971034 
   54100    1.6058573    4.9058825    0.5746581    7.0863979   -1.9058825    0.5746581   0.76544724 -0.0016536938 0.00038157829 
   54200    2.5857067   0.33893804    1.2637684    4.1884132     2.661062    1.2637684   0.75104426 0.00093152904 -0.0010254483 
   54300    3.2471479    1.6517188   0.05916541    4.9580321    1.3482812   0.05916541   0.75515963 0.00085941053 0.0013919884 
   54400    2.6594064    1.1241667   0.10876645    3.8923395    1.8758333   0.10876645   0.75347144 0.0011780446   0.00128941 
   54500    1.8511241    2.5285385  0.027968082    4.4076307   0.47146151  0.027968082   0.75800519 0.00029566228 0.0014600742 
   54600    3.0382122    1.0695121   0.40323673     4.510961    1.9304879   0.40323673   0.75170275 0.0010181674 0.00069693205 
   54700    5.3674838   0.18331243   0.24424789    5.7950441    2.8166876   0.24424789   0.75057845 0.0017149598 0.0010126611 
   54800    3.1151118    1.9218259    1.8741136    6.9110513    1.0781741    1.8741136   0.75607549 -0.00053062636 -0.0022360763 
   54900    4.3421037   0.60438421    1.6501275    6.5966154    2.3956158    1.6501275   0.75145486 0.0004969922 -0.0017973453 
   55000    2.1057817    4.4363387    1.1634337    7.7055542   -1.4363387    1.1634337   0.76284626 -0.0017331817 -0.00080117499 
   55100    1.5204291     2.601575    2.9726504    7.0946545   0.39842504    2.9726504   0.75640224 -0.0017161502 -0.0044324963 
   55200    4.1778426    3.2376496   0.07667813    7.4921703  -0.23764963   0.07667813   0.75998179 -0.00020955184 0.0013666073 
   55300    1.7366574    8.0949681  0.039698146    9.8713236   -5.0949681  0.039698146   0.76997572 -0.0034231108 0.0014605551 
   55400    2.3356748    1.9956547   0.33924386    4.6705734    1.0043453   0.33924386   0.75362306 0.00044340097 0.00082875841 
   55500    1.4463345    1.9915025   0.73981066    4.1776477    1.0084975   0.73981066   0.75464968 0.00017912456 2.9678045e-05 
   55600    3.6175067     2.233093   0.84654728    6.6971469   0.76690705   0.84654728   0.75695336 -5.3093491e-05 -0.00017918785 
   55700    1.2478032    2.9899914    5.0656452    9.3034398  0.010008644    5.0656452   0.75857633 -0.0033704244 -0.0086141378 
   55800    5.1387833   0.86244271   0.92039864    6.9216246    2.1375573   0.92039864   0.75165453 0.0008114391 -0.00033748824 
   55900    1.6437121     2.587801    2.3162229    6.5477359   0.41219904    2.3162229   0.75748087 -0.0012693492 -0.003117484 
   56000    1.9571442    1.0607803   0.76415206    3.7820765    1.9392197   0.76415206   0.75280082 0.00078337846 -2.270248e-05 
   56100    3.3798599    2.9698612   0.80741152    7.1571326   0.03013879   0.80741152   0.75597565 -0.00051818182 -0.00010287175 
   56200    2.5075442    1.3314069  0.060634822    3.8995859    1.6685931  0.060634822   0.75338029 0.0010719722 0.0013854909 
   56300    2.1161436    0.7682671   0.08728652    2.9716972    2.2317329   0.08728652   0.75178507 0.0014296309 0.0013289971 
   56400    4.4077157    3.3555841  0.046142696    7.8094424  -0.35558405  0.046142696   0.76031937 -0.00026781783 0.0014283534 
   56500    4.3550548    2.2969818   0.47395552    7.1259921   0.70301821   0.47395552   0.75641212 0.00015270846 0.0005649132 
   56600     2.555379    1.7382317  0.055635411    4.3492461    1.2617683  0.055635411   0.75529903 0.00080408861 0.0013993272 
   56700    1.1120253    2.4185009   0.11825927    3.6487854   0.58149911   0.11825927   0.75593879 0.00030882656  0.001275359 
   56800    1.8383717    2.8141168   0.40969812    5.0621866   0.18588321   0.40969812   0.75727529 -0.00014920994 0.00069515434 
   56900    3.4320858    1.5327546    1.6320739    6.5969143    1.4672454    1.6320739   0.75453788 -0.00010988568 -0.001755072 
   57000    1.4605554    1.1062521    1.5449819    4.1117894    1.8937479    1.5449819   0.75257752 0.00023251063 -0.0015848088 
   57100    3.3518874    2.3468203    2.5239912    8.2226989   0.65317966    2.5239912   0.75519591 -0.0012472077 -0.0035375905 
   57200    2.1266357    2.0271925   0.70691227    4.8607405   0.97280746   0.70691227   0.75442269 0.00017726346 9.5020855e-05 
   57300    3.0472792   0.56447148    1.3297893      4.94154    2.4355285    1.3297893   0.75147965 0.00073715948 -0.0011566193 
   57400      4.29259    1.7702223   0.40219272     6.465005    1.2297777   0.40219272    0.7541497 0.00055172334 0.00070391396 
   57500    2.6597541   0.85439794  0.075662265    3.5898143    2.1456021  0.075662265   0.75184481 0.0013799599 0.0013523651 
   57600    2.5123648    2.7253364  0.023470118    5.2611713   0.27466361  0.023470118   0.75543293 0.00016746233 0.0014639256 
   57700    2.7525216    1.2885597    2.1369526    6.1780339    1.7114403    2.1369526    0.7540692 -0.00028367488 -0.0027657668 
   57800    4.6722777   0.51349925   0.26828568    5.4540626    2.4865007   0.26828568   0.75161223   0.00147881 0.00096665312 
   57900    2.5855193    3.4968995   0.74939182    6.8318107  -0.49689952   0.74939182   0.75908412 -0.0008308609 1.9384595e-05 
   58000    3.4346316    1.3913462    1.7211257    6.5471034    1.6086538    1.7211257   0.75334255 -7.4981237e-05 -0.0019355662 
   58100   0.83367826    2.2719728   0.37390832    3.4795594   0.72802718   0.37390832   0.75504437 0.00023607924 0.00076227211 
   58200    2.5157471    3.7355137  0.028611053    6.2798718  -0.73551369  0.028611053   0.75814689 -0.00050941649 0.0014590717 
   58300    4.1616639    1.1230481  0.046758727    5.3314707    1.8769519  0.046758727     0.752274 0.0012201288 0.0014110306 
   58400    2.3267325    2.8260342   0.17462469    5.3273914   0.17396584   0.17462469   0.75655572 -4.3923258e-07 0.0011638621 
   58500    2.4313432    1.5757497  0.018359195    4.0254521    1.4242503  0.018359195   0.75364608 0.00093726073 0.0014705738 
   58600    1.5264932    2.8543494   0.36360938     4.744452   0.14565057   0.36360938   0.75549613 -0.00014530587 0.0007837735 
   58700    4.2012728    2.1367707   0.56741226    6.9054558   0.86322929   0.56741226   0.75671181 0.00019721135 0.00037859909 
   58800    1.5040037    1.2848791   0.65669729    3.4455801    1.7151209   0.65669729   0.75394521 0.00070561577 0.00019449584 
   58900    2.3184034    4.9140944   0.56631173    7.7988096   -1.9140944   0.56631173   0.76297982 -0.0016536041 0.00039333618 
   59000    1.9774058    1.0907129   0.17320185    3.2413205    1.9092871   0.17320185   0.75268599 0.0011573902 0.0011589683 
   59100    3.6291642    3.5394544   0.18216238     7.350781  -0.53945441   0.18216238   0.75833609 -0.00048107786 0.0011523474 
   59200    3.8609072    1.0991911    2.0684513    7.0285497    1.9008089    2.0684513   0.75265312 -0.00011176163 -0.0026315963 
   59300    1.8294292    1.6390076   0.61349578    4.0819326    1.3609924   0.61349578   0.75333117 0.00049833105 0.00027967077 
   59400    1.8200051    1.6664562  0.033571048    3.5200324    1.3335438  0.033571048   0.75430859 0.00086664847 0.0014414751 
   59500    3.4581446    1.0080569 0.0089522413    4.4751537    1.9919431 0.0089522413   0.75257981 0.0013219939 0.0014872551 
   59600    1.4213965    1.6529008   0.98260402    4.0569013    1.3470992   0.98260402   0.75410997 0.00024299679 -0.0004569881 
   59700    2.1577727   0.99938761   0.25206273    3.4092231    2.0006124   0.25206273   0.75227477 0.0011656998 0.0010004241 
   59800    4.4321102    2.4470135   0.26645249    7.1455762   0.55298647   0.26645249   0.75774729 0.00019102266 0.00098258961 
   59900    1.1056993    3.2334462   0.60113517    4.9402806  -0.23344616   0.60113517   0.76007953 -0.00055638755 0.00031788873 
   60000    3.0782392     2.130059 0.0055058177     5.213804   0.86994102 0.0055058177    0.7554098 0.00057629014  0.001499808 
   60100    3.4897041    3.0721342   0.38097369     6.942812  -0.07213422   0.38097369   0.75822764 -0.00030207194 0.00075450789 
   60200    7.2497561    1.3265171   0.58700749    9.1632807    1.6734829   0.58700749   0.75345276 0.00072431693 0.00033289054 
   60300     2.108883    1.9111204     3.066695    7.0866984    1.0888796     3.066695   0.75590349 -0.0013185436 -0.004621583 
   60400    2.8352637   0.63967018   0.37271393    3.8476478    2.3603298   0.37271393   0.75139221 0.0013250773 0.00075735656 
   60500    2.6445963    1.8755183  0.069558927    4.5896735    1.1244817  0.069558927   0.75543894 0.00070328187   0.00137176 
   60600    1.1948218    1.3692573   0.01657827    2.5806574    1.6307427   0.01657827   0.75419653 0.0010761096 0.0014752365 
   60700     1.364192    2.6519074  0.017312674    4.0334121   0.34809258  0.017312674   0.75839668 0.00022051994  0.001482168 
   60800    3.8831647    2.8286486  0.046726755    6.7585401   0.17135137  0.046726755   0.75841094 8.3083075e-05 0.0014233684 
[...]
  985500    0.9971717     3.424173    0.1526563     4.574001  -0.42417297    0.1526563   0.76036802 -0.00038455285 0.0012154234 
  985600     2.534227    1.3145938   0.60466699    4.4534878    1.6854062   0.60466699   0.75367736 0.00072049281 0.00029802075 
  985700    2.9855546   0.66025903    1.2216535    4.8674671     2.339741    1.2216535   0.75148922 0.00074539165 -0.00094032856 
  985800    2.7424103    1.4679268   0.47349391     4.683831    1.5320732   0.47349391   0.75443098 0.0007057195 0.00056187414 
  985900    3.2711268   0.82144683   0.15993774    4.2525114    2.1785532   0.15993774   0.75196152 0.0013457436 0.0011840476 
  986000     2.406094    1.2482407    0.6664055    4.3207402    1.7517593    0.6664055   0.75379525 0.00072356919 0.00017477948 
  986100     3.423269   0.32383169   0.16228988    3.9093905    2.6761683   0.16228988   0.75069091  0.001675919 0.0011768021 
  986200    1.3459134    2.4675606    2.2295759    6.0430499    0.5324394    2.2295759   0.75778826 -0.0011314243 -0.0029435753 
  986300    3.9797478     2.906895    5.5398606    12.426503   0.09310502    5.5398606   0.75691405 -0.0036311704 -0.009565893 
  986400     4.376896   0.92554015  0.013223233    5.3156594    2.0744598  0.013223233   0.75257856 0.0013741577 0.0014787107 
  986500    2.3574532    2.3215971  0.016549793    4.6956001   0.67840289  0.016549793   0.75448552 0.0004412354 0.0014758715 
  986600    1.7929206    3.4839083   0.42734677    5.7041757  -0.48390834   0.42734677   0.76064875 -0.00060750341 0.00066660396 
  986700    1.9545374    3.6080373   0.34379117    5.9063659  -0.60803729   0.34379117   0.75788568 -0.00063455231 0.00082818902 
  986800    2.9292954    1.8649619  0.019836153    4.8140935    1.1350381  0.019836153   0.75435471 0.00074346798 0.0014690371 
  986900    2.8780882    1.8165001   0.69373302    5.3883214    1.1834999   0.69373302    0.7551992 0.00032651124 0.00012293236 
  987000    6.9139568   0.62353888    1.6352267    9.1727224    2.3764611    1.6352267   0.75143086 0.0004941563 -0.0017675916 
  987100     3.455322    2.1916068    0.9767829    6.6237117   0.80839322    0.9767829   0.75474642 -0.00011225978 -0.00044407294 
  987200    3.2765773    3.7034496    2.0245613    9.0045882  -0.70344962    2.0245613   0.76104972 -0.001818674 -0.0025270232 
  987300    3.2228433    1.0827351    2.3557277    6.6613061    1.9172649    2.3557277   0.75339932 -0.00029230855 -0.0032046568 
  987400   0.61710627    5.6880608   0.50044007    6.8056071   -2.6880608   0.50044007   0.76585626 -0.0021256672 0.00053083239 
  987500    2.6863153    1.9383562  0.042757085    4.6674286    1.0616438  0.042757085    0.7546161 0.00067925778  0.001423718 
  987600    1.9077878    7.6221959    3.5358989    13.065883   -4.6221959    3.5358989   0.77288605 -0.0054387299 -0.0055260258 
  987700    3.9268753   0.68244346  0.028612725    4.6379314    2.3175565  0.028612725   0.75114843 0.0015259625 0.0014450714 
  987800    2.8965199   0.42844055   0.18052332    3.5054837    2.5715594   0.18052332    0.7511567 0.0015940241 0.0011412668 
  987900    6.8416153     1.513933  0.093210293    8.4487586     1.486067  0.093210293   0.75290291 0.00092857113 0.0013193852 
  988000    2.2781352    3.2105994    1.9074262    7.3961608   -0.2105994    1.9074262   0.75759349 -0.0014120171 -0.0022996655 
  988100    2.3620579    6.3019866    2.1191704    10.783215   -3.3019866    2.1191704   0.76748466 -0.0036141047 -0.0027033715 
  988200    4.9411377   0.82389981    0.1513964    5.9164339    2.1761002    0.1513964   0.75200674 0.0013498025 0.0012012207 
  988300    4.2015777    1.5962192  0.069855006    5.8676518    1.4037808  0.069855006   0.75476296 0.00088928389 0.0013698159 
  988400   0.85283411    5.1737997   0.70014419     6.726778   -2.1737997   0.70014419   0.76260371 -0.0019159626 0.00012491904 
  988500    3.4209353    2.8469496    1.3002868    7.5681717    0.1530504    1.3002868   0.75719487 -0.00076482424 -0.0010861838 
  988600    4.9411583    1.1052347  0.063924083    6.1103171    1.8947653  0.063924083   0.75329437 0.0012205608 0.0013787406 
  988700    3.0856426    1.5575845    2.1575435    6.8007707    1.4424155    2.1575435   0.75350741 -0.00047675204 -0.0028080722 
  988800     3.895879    1.2019843   0.77463569     5.872499    1.7980157   0.77463569   0.75378278 0.00068225335 -4.170583e-05 
  988900    1.3188298   0.90424566  0.080496927    2.3035724    2.0957543  0.080496927   0.75283596 0.0013435049 0.0013446781 
  989000    3.3980507    2.3641181   0.31361468    6.0757834   0.63588191   0.31361468   0.75576752 0.00021484482 0.00088430569 
  989100    2.9786323    4.8156986    2.5606986     10.35503   -1.8156986    2.5606986   0.76141744 -0.0029175982 -0.0035985624 
  989200    1.9517847    1.0249837   0.75004651    3.7268149    1.9750163   0.75004651   0.75272168 0.00081664653 5.3503389e-06 
  989300    2.7583569    3.9008193   0.20120708    6.8603833  -0.90081932   0.20120708   0.76186711 -0.00073468427 0.0011213201 
  989400   0.79597286    4.9341244   0.79087741    6.5209747   -1.9341244   0.79087741   0.76399245 -0.0018166679 -5.3769921e-05 
  989500    3.2674876   0.36325529   0.65303929    4.2837822    2.6367447   0.65303929   0.75068944 0.0013224703 0.0001953003 
  989600    2.0546104    1.6947287   0.83737474    4.5867138    1.3052713   0.83737474   0.75467786 0.00031193103 -0.00016539375 
  989700   0.94419558    1.0718531   0.16875565    2.1848043    1.9281469   0.16875565   0.75313996 0.0011729275 0.0011687686 
  989800    2.2763364    1.4497074    1.4781016    5.2041454    1.5502926    1.4781016   0.75424151 4.8127331e-05 -0.0014477202 
  989900    3.0182106    3.0390661  0.064327447    6.1216041 -0.039066083  0.064327447   0.75792106 -6.8929019e-05 0.0013871872 
  990000     1.995646    2.4134691   0.18474937    4.5938645    0.5865309   0.18474937   0.75601162 0.00026785435 0.0011425245 
  990100    2.0809379    3.3679794  0.010565643    5.4594829  -0.36797935  0.010565643   0.75728016 -0.00025236333  0.001493429 
  990200    2.5558072     1.754519  0.078685067    4.3890112     1.245481  0.078685067   0.75462061 0.00077786397 0.0013518711 
  990300     1.156293    4.2583202   0.53627505    5.9508882   -1.2583202   0.53627505   0.76054768 -0.0011963968 0.00044854525 
  990400    2.0533053    5.0438654  0.071301989    7.1684727   -2.0438654  0.071301989   0.75926439 -0.0014101116 0.0013759248 
  990500    4.9034916   0.76654477   0.37624303    6.0462794    2.2334552   0.37624303   0.75200893 0.0012381415 0.0007515318 
  990600    3.5757527    1.4273938    1.8370958    6.8402423    1.5726062    1.8370958   0.75440485 -0.0001763264 -0.0021653818 
  990700    4.8798832   0.63773401    1.7947875    7.3124047     2.362266    1.7947875   0.75120963 0.00037831897 -0.0020871558 
  990800    4.5521282    2.1264542   0.84007332    7.5186557   0.87354583   0.84007332   0.75646388 2.2315008e-05 -0.00016721888 
  990900    1.3051058    6.5045762    1.3406851    9.1503672   -3.5045762    1.3406851   0.76712148 -0.0032301742 -0.0011471273 
  991000    6.3302279    1.1303406  0.078065755    7.5386343    1.8696594  0.078065755   0.75288479 0.0011943957 0.0013496381 
  991100    4.1056873     2.726998    0.1283836     6.961069     0.273002    0.1283836   0.75496104 9.6412263e-05 0.0012531549 
  991200    3.4254596     1.703244   0.12421161    5.2529152     1.296756   0.12421161   0.75510424 0.00078169626 0.0012617853 
  991300    1.6824987    1.5322234    2.1588526    5.3735747    1.4677766    2.1588526   0.75455689 -0.00046071734 -0.0028085914 
  991400    1.2273613    5.7471796   0.32065352    7.2951944   -2.7471796   0.32065352   0.76398479 -0.0020452221 0.00088666255 
  991500    7.3964646   0.67569784  0.060856203    8.1330187    2.3243022  0.060856203   0.75170291  0.001508964 0.0013816934 
  991600    3.4849567    2.6527588    1.9582468    8.0959623   0.34724121    1.9582468   0.75736148 -0.0010740037 -0.0024017706 
  991700    4.3226222     2.631775  0.012346644    6.9667438   0.36822497  0.012346644   0.75787949 0.00023725222 0.0014910657 
  991800    4.0111484    2.6744429   0.23736683    6.9229581    0.3255571   0.23736683   0.75575294 5.8793513e-05 0.0010367722 
  991900    1.5367558    1.4830625   0.34419997    3.3640183    1.5169375   0.34419997   0.75300108 0.00078182501 0.00081760221 
  992000    2.3017507    4.6977925     2.133205    9.1327482   -1.6977925     2.133205   0.76478148 -0.0025539983 -0.0027368471 
  992100    3.0053305    3.9537958  0.036213029    6.9953394  -0.95379578  0.036213029   0.75854985 -0.00066000587 0.0014446736 
  992200    3.3508639     2.091778   0.85495957    6.2976015   0.90822196   0.85495957   0.75334685 3.5508257e-05 -0.00020322544 
  992300   0.99584826    4.3539767   0.46044103     5.810266   -1.3539767   0.46044103   0.76240465 -0.0012096118 0.00060392725 
  992400    1.2991168    1.0403987    3.8897143    6.2292298    1.9596013    3.8897143   0.75182103 -0.001286742 -0.0062757865 
  992500    3.3946823    2.2854083  0.009390964    5.6894817   0.71459166  0.009390964   0.75606383 0.0004701338 0.0014933457 
  992600    6.6799224   0.95850872    1.5658609     9.204292    2.0414913    1.5658609   0.75235661 0.00031708691 -0.0016270086 
  992700    3.4616858    2.8619742   0.17745433    6.5011144   0.13802582   0.17745433   0.75842903 -2.6285675e-05 0.0011619494 
  992800    2.6148415    1.2550715 0.0097000093     3.879613    1.7449285 0.0097000093   0.75376355  0.001156819 0.0014881271 
  992900    1.2756584     2.996658   0.27572304    4.5480394 0.0033420499   0.27572304   0.75740036 -0.00018158732 0.00096335464 
  993000    1.9394466    1.5434423  0.015897402    3.4987863    1.4565577  0.015897402   0.75435218 0.0009604402 0.0014769096 
  993100     2.377425    5.7149495   0.23684085    8.3292153   -2.7149495   0.23684085   0.76331239 -0.0019678602 0.0010529431 
  993200     5.350226   0.54356889    1.2278644    7.1216593    2.4564311    1.2278644   0.75168277 0.00081904446 -0.00095236331 
  993300    2.8319036    3.9140394  0.028815176    6.7747582  -0.91403937  0.028815176   0.76063157 -0.0006285697 0.0014636328 
  993400    3.7833752   0.54443033   0.01196296    4.3397685    2.4555697   0.01196296   0.75169004 0.0016290711 0.0014794542 
  993500    4.8884836    0.1792674  0.097486781    5.1652378    2.8207326  0.097486781   0.75053325 0.0018154972 0.0013060929 
  993600    3.4451261    2.3453313    1.2906229    7.0810803   0.65466866    1.2906229   0.75667187 -0.00042396949 -0.0010679021 
  993700    4.9722774   0.53034659   0.89052564    6.3931496    2.4696534   0.89052564   0.75119291 0.0010527518 -0.00027866546 
  993800    3.3667212    3.2747152  0.028108325    6.6695448  -0.27471525  0.028108325   0.76028562 -0.00020188238 0.0014643546 
  993900    4.1201476   0.16181004  0.061837589    4.3437952      2.83819  0.061837589   0.75030015 0.0018509016 0.0013769251 
  994000    6.7818908    2.2516755   0.53412236    9.5676886   0.74832452   0.53412236    0.7556729 0.00014280144 0.00044310109 
  994100    4.1568646   0.57837071   0.37170354    5.1069388    2.4216293   0.37170354   0.75173461 0.0013666172 0.00076006215 
  994200    1.5955533    3.4999761  0.060428047    5.1559575  -0.49997608  0.060428047    0.7590549 -0.00037360275 0.0013972537 
  994300    2.4362408    2.4718607   0.70874833    5.6168498    0.5281393   0.70874833   0.75720085 -0.00012040602 9.6905046e-05 
  994400    5.9880056    1.0041091  0.008482967    7.0005977    1.9958909  0.008482967   0.75287597 0.0013249386  0.001488786 
  994500    3.0807149    2.9829537   0.80268128    6.8663499  0.017046262   0.80268128   0.75926058 -0.00052375668 -8.6841405e-05 
  994600    1.3717081   0.09320665   0.13329363    1.5982083    2.9067933   0.13329363   0.75026001 0.0018489998 0.0012339328 
  994700    2.4165863    4.0648462   0.72665626    7.2080888   -1.0648462   0.72665626   0.75949638 -0.001194335 6.5680247e-05 
  994800    3.9081356   0.31345458   0.93066824    5.1522584    2.6865454   0.93066824   0.75098912 0.0011705848 -0.00035935824 
  994900    3.5670158    0.9381294  0.010787168    4.5159323    2.0618706  0.010787168   0.75148605  0.001367389 0.0014813978 
  995000    0.4708485    8.9806841  0.023972794    9.4755054   -5.9806841  0.023972794   0.77210073 -0.0040031046 0.0014962559 
  995100     3.141443    4.3715602  0.024795898    7.5377991   -1.3715602  0.024795898   0.76218538 -0.0009309041  0.001474779 
  995200     4.827624    1.5056422    0.6652599    6.9985262    1.4943578    0.6652599   0.75476259 0.00055273191 0.00017900539 
  995300    3.1051709    5.4250523   0.26835396    8.7985771   -2.4250523   0.26835396   0.76670057 -0.0017956042 0.00099669322 
  995400    4.9461245    2.4672549  0.073552994    7.4869324   0.53274513  0.073552994   0.75589222 0.00030612809 0.0013646785 
  995500    5.1559279    1.5308238    1.1836673    7.8704189    1.4691762    1.1836673   0.75304493 0.0001903393 -0.00086124475 
  995600    3.5303739    3.9530508    1.0816527    8.5650774  -0.95305077    1.0816527   0.76003895 -0.001356469 -0.00064322752 
  995700    3.6746076   0.46729651   0.27236764    4.4142718    2.5327035   0.27236764   0.75087139 0.0015068906 0.00095700751 
  995800    7.4868448    1.0902163   0.09123163    8.6682927    1.9097837   0.09123163   0.75255879 0.0012123681 0.0013226543 
  995900    4.5147406   0.77716399    5.9990599    11.290965     2.222836    5.9990599   0.75236997 -0.0025174826  -0.01049338 
  996000    1.8883077      2.19887    1.5743978    5.6615756   0.80112999    1.5743978   0.75521089 -0.00051551187 -0.0016383738 
  996100    1.3532151     2.822389   0.36613349    4.5417376     0.177611   0.36613349   0.75725788 -0.00012568166 0.00078224877 
  996200    3.5882195    1.3743826   0.15082329    5.1134254    1.6256174   0.15082329   0.75270255 0.00098319607 0.0012037585 
  996300    6.4448127    1.3989993   0.62855901     8.472371    1.6010007   0.62855901    0.7544126 0.00064829449 0.00025170719 
  996400    1.8558462    2.6282187  0.017149129    4.5012141   0.37178126  0.017149129    0.7570099 0.00023642142 0.0014797216 
  996500    3.7538651    3.8479984    1.6540275    9.2558909  -0.84799836    1.6540275   0.76127813 -0.0016680172 -0.0017854987 
  996600   0.94985503    3.7007779    2.1070137    6.7576467  -0.70077794    2.1070137   0.76116822 -0.0018718611 -0.0026916911 
  996700    1.9577682    1.0734529    1.2940015    4.3252225    1.9265471    1.2940015    0.7533874 0.00042169711 -0.0010812281 
  996800     1.289727    3.2078566    6.6152074    11.112791  -0.20785661    6.6152074   0.75896746 -0.0045487093  -0.01171248 
  996900    5.5530486   0.60903311    2.0768103    8.2388921    2.3909669    2.0768103   0.75098455 0.0002094377 -0.0026516516 
  997000    5.6342177    1.8810324    0.1243005    7.6395506    1.1189676    0.1243005     0.755783 0.00066311141  0.001262965 
  997100    3.3812453     2.753433   0.45927907    6.5939573   0.24656699   0.45927907   0.75758417 -0.00014180805 0.00059661022 
  997200    3.0076465    2.0683369   0.15402278    5.2300061   0.93166313   0.15402278   0.75415969 0.0005184269 0.0012002738 
  997300    3.6649083    2.6120997  0.050608515    6.3276165   0.38790026  0.050608515   0.75825317 0.00022486117 0.0014152893 
  997400    3.0220798    0.3451182    1.2866903    4.6538883    2.6548818    1.2866903    0.7507555 0.00091212767 -0.0010718696 
  997500    1.3674286    2.0617268  0.065955737    3.4951111   0.93827319  0.065955737   0.75650496 0.00058154497 0.0013810984 
  997600    1.6630788     3.657192   0.47686284    5.7971336    -0.657192   0.47686284   0.75972117 -0.00075603656 0.00056571665 
  997700    3.7232056    1.1301594 0.0039488114    4.8573137    1.8698406 0.0039488114   0.75354019 0.0012439279 0.0014991828 
  997800    2.4461035    3.1392621  0.017335971    5.6027016  -0.13926207  0.017335971   0.75917715 -0.00010439869 0.0014836824 
  997900    2.5209089    3.1604923   0.23604197    5.9174432  -0.16049232   0.23604197   0.75841913 -0.00026435619 0.0010447543 
  998000     5.282818    1.7980501   0.61082662    7.6916948    1.2019499   0.61082662   0.75457809 0.00039408219 0.00028750294 
  998100    2.5069559    2.6146697    1.2356343    6.3572599    0.3853303    1.2356343   0.75620295 -0.00056686931 -0.00095886262 
  998200    2.2701358    3.1719371   0.45091392    5.8929868  -0.17193713   0.45091392   0.76004289 -0.00041523404 0.00061825794 
  998300    1.2980111    2.3859789  0.055096371    3.7390864   0.61402108  0.055096371   0.75596847 0.00037261647 0.0014017442 
  998400    1.4350074    2.4227628    2.3854451    6.2432154   0.57723717    2.3854451   0.75670387 -0.001205472 -0.0032574826 
  998500    4.0481197    1.5530152   0.33439981    5.9355347    1.4469848   0.33439981   0.75351876 0.00074172332 0.0008382379 
  998600    6.2044504    1.3496567    1.2096397    8.7637468    1.6503433    1.2096397   0.75387694 0.00029380237 -0.00091152558 
  998700    2.5727173    3.6403204   0.28998606    6.5030238  -0.64032042   0.28998606   0.76064097 -0.00062020432 0.00094130981 
  998800    2.1256385    3.2835461   0.55250748     5.961692  -0.28354605   0.55250748    0.7575046 -0.00055736903 0.00040999422 
  998900   0.85517973      3.87358    0.8408633     5.569623     -0.87358    0.8408633   0.76170695 -0.0011429622 -0.00015831271 
  999000    3.2330808    1.3452488    1.5182462    6.0965758    1.6547512    1.5182462   0.75380651 9.100333e-05 -0.0015288793 
  999100    5.2583208   0.52553143  0.045745271    5.8295975    2.4744686  0.045745271   0.75166144 0.0016191489 0.0014118323 
  999200     4.773361    3.3559965   0.01802823    8.1473858  -0.35599651   0.01802823   0.76018581 -0.00024934982 0.0014843152 
  999300    3.6866815   0.75734398   0.80978754    5.2538131     2.242656   0.80978754   0.75144473 0.00095524565 -0.00011668561 
  999400    3.9283719     2.366321    5.7496735    12.044366   0.63367901    5.7496735   0.75630486 -0.003410663 -0.0099867372 
  999500    6.3862915  0.035896794   0.01186309    6.4340513    2.9641032   0.01186309   0.75010262 0.0019681601 0.0014764791 
  999600    3.4795949    1.6155366    2.2903686    7.3855001    1.3844634    2.2903686   0.75503219 -0.0006039368 -0.0030706729 
  999700    1.3530141    1.6509773    1.4754426     4.479434    1.3490227    1.4754426   0.75515988 -8.4279928e-05 -0.0014405655 
  999800    1.4947906    3.7982027   0.56463651    5.8576298  -0.79820273   0.56463651   0.75742001 -0.00090855949  0.000385567 
  999900    2.6655208    2.1402204    4.1104031    8.9161443   0.85977956    4.1104031   0.75361327 -0.0021670823 -0.0067135796 
 1000000   0.65850601    3.5109788  0.015049716    4.1845345  -0.51097881  0.015049716   0.75839331 -0.00035068568 0.0014866872 
Loop time of 25.4542 on 1 procs for 1000000 steps with 1 atoms

Performance: 678865555.941 tau/day, 39286.201 timesteps/s
99.6% CPU use with 1 MPI tasks x 1 OpenMP threads

MPI task timing breakdown:
Section |  min time  |  avg time  |  max time  |%varavg| %total
---------------------------------------------------------------
Pair    | 0.050262   | 0.050262   | 0.050262   |   0.0 |  0.20
Neigh   | 0.17198    | 0.17198    | 0.17198    |   0.0 |  0.68
Comm    | 0.08724    | 0.08724    | 0.08724    |   0.0 |  0.34
Output  | 0.050905   | 0.050905   | 0.050905   |   0.0 |  0.20
Modify  | 24.94      | 24.94      | 24.94      |   0.0 | 97.98
Other   |            | 0.1539     |            |       |  0.60

Nlocal:        1.00000 ave           1 max           1 min
Histogram: 1 0 0 0 0 0 0 0 0 0
Nghost:         0.00000 ave           0 max           0 min
Histogram: 1 0 0 0 0 0 0 0 0 0
Neighs:         0.00000 ave           0 max           0 min
Histogram: 1 0 0 0 0 0 0 0 0 0

Total # of neighbors = 0
Ave neighs/atom = 0.0000000
Neighbor list builds = 97341
Dangerous builds = 84881
Total wall time: 0:00:25
