LAMMPS data file from restart file: timestep = 2000, procs = 4

16000 atoms

2 atom types

-7.5000000000000000e+00 7.5000000000000000e+00 xlo xhi
-7.5000000000000000e+00 7.5000000000000000e+00 ylo yhi
-1.1851851849999999e+01 1.1851851849999999e+01 zlo zhi

Masses

1 1
2 1

Atoms

15061 2 -7.4456449129110087e+00 -6.7769806640125987e+00 -1.1271038127550577e+01 1 0 1
11049 2 -7.2188484603795384e+00 -7.4111383356680509e+00 -1.1449440172577875e+01 0 1 1
3522 1 -7.0040791266682305e+00 -7.2339059395856680e+00 -1.1734001215165776e+01 0 1 0
9803 2 -6.3162424674384265e+00 -7.3018313129555406e+00 -1.1227206487294380e+01 0 1 0
5465 1 -5.8052629975718064e+00 -7.3149632166191445e+00 -1.1413944804455991e+01 0 1 1
9755 2 -5.6375526318460079e+00 -6.8597114752798554e+00 -1.1143028318857995e+01 1 0 1
8909 2 -5.1970536578123419e+00 -7.4420230171701975e+00 -1.1282321486529671e+01 1 0 1
2402 1 -5.1378509970371038e+00 -6.8985980641461158e+00 -1.1792712693206525e+01 1 0 0
1825 1 -4.3105096378757173e+00 -7.2673334945798835e+00 -1.1554042436790853e+01 1 1 1
177 1 -3.8301346676751304e+00 -6.9202883289486854e+00 -1.1573577493882665e+01 0 1 1
9904 2 -3.4496321200768194e+00 -7.4383454335859538e+00 -1.1617158824755442e+01 0 0 1
6861 1 -3.1103016232449647e+00 -7.0000410674143945e+00 -1.1640484563425838e+01 0 0 0
14057 2 -2.4223784551808905e+00 -7.2682367112138859e+00 -1.1755769577493927e+01 0 1 0
5445 1 -2.2030032404069884e+00 -6.7944760975907181e+00 -1.1625259183143616e+01 0 1 0
3179 1 -1.3945569887090898e+00 -7.0293250142534260e+00 -1.1524681488904967e+01 0 1 1
10668 2 -7.8289044092606941e-01 -7.1309280798509738e+00 -1.1462164032695926e+01 0 1 0
11217 2 -1.9649382915377672e-01 -6.7570982732405129e+00 -1.1119536462544012e+01 0 1 1
3555 1 1.2679894135998120e-02 -7.2699646991106706e+00 -1.1459422904357924e+01 0 1 0
10567 2 6.6465910736440903e-01 -6.9836228917134369e+00 -1.1700715967062326e+01 0 1 0
15290 2 1.2600724506782650e+00 -7.4466179755631066e+00 -1.1324865987149545e+01 0 0 1
7358 1 1.2253297640431842e+00 -7.0880939500951712e+00 -1.1718910509188619e+01 0 0 1
13979 2 1.9440057275393683e+00 -6.9491547351271850e+00 -1.1467339133021177e+01 0 0 0
7025 1 3.1127956258278160e+00 -7.4685322040635853e+00 -1.1742402731691893e+01 0 1 0
15253 2 3.8915818899651806e+00 -7.4458541694519811e+00 -1.1144978887825568e+01 0 0 0
4192 1 3.8681931430839271e+00 -6.8344340945662241e+00 -1.1805250359359702e+01 0 0 1
2706 1 4.2703284461447035e+00 -7.4799916420576986e+00 -1.1421094630352476e+01 0 1 1
13872 2 5.1243016819624145e+00 -7.3871048177677894e+00 -1.1567967180379938e+01 0 0 1
14565 2 4.7797559047781810e+00 -7.2017011103618689e+00 -1.1129699449344324e+01 0 1 1
13672 2 5.3573881347093844e+00 -6.8453195665899376e+00 -1.1330515584615911e+01 0 1 0
9032 2 6.6615948964841332e+00 -7.2097789265811514e+00 -1.1386248792774166e+01 -1 1 0
1040 1 7.2319222999696535e+00 -7.0735642185427094e+00 -1.1555526830947242e+01 -1 0 0
2040 1 -6.6952305258404508e+00 -6.6048546771436012e+00 -1.1585598566672141e+01 1 1 0
12227 2 -5.9004255787789521e+00 -6.2651006654328985e+00 -1.1832311106918823e+01 0 0 0
3529 1 -6.0419426663965501e+00 -6.1933178407559950e+00 -1.1571981212572288e+01 0 0 0
12222 2 -5.1191278897819377e+00 -6.3132583747014257e+00 -1.1480522657780439e+01 0 0 1
2869 1 -4.3476848903462484e+00 -6.2200425411269382e+00 -1.1690428162075341e+01 1 0 0
7821 1 -3.2952214939887119e+00 -6.1150307607067225e+00 -1.1519570498160480e+01 1 0 0
3137 1 -2.5312778996070673e+00 -6.0346183998575897e+00 -1.1644708660811665e+01 0 0 0
8494 2 -2.9647698474010902e+00 -6.5480261673025524e+00 -1.1323354130941429e+01 0 0 1
3536 1 -1.7615955079159493e+00 -6.2298012791419062e+00 -1.1155228512764049e+01 0 0 0
12537 2 -1.3106865423736422e+00 -6.3906427501506009e+00 -1.1710566446303581e+01 0 0 0
3262 1 -4.8323914170580889e-01 -6.3152200422683533e+00 -1.1264828223871929e+01 0 1 1
9503 2 2.5787841879973128e-01 -6.4285741258117035e+00 -1.1838206761324871e+01 0 1 0
6590 1 1.1331345167099132e+00 -6.1830637914881708e+00 -1.1588211391569931e+01 0 0 1
720 1 1.7805607326837403e+00 -6.3252411321350390e+00 -1.1812999334279310e+01 0 0 0
14919 2 2.1452821818328580e+00 -6.1958202220842926e+00 -1.1160225594072106e+01 0 0 1
15117 2 2.9149825834793486e+00 -6.6339350335372176e+00 -1.1513060931021991e+01 0 0 1
4925 1 3.7686234438437944e+00 -6.1314965510153794e+00 -1.1182387227900067e+01 -1 0 0
6939 1 3.3023137025835614e+00 -6.6277975622096861e+00 -1.1506675618622895e+01 0 1 1
3307 1 4.5348630262115757e+00 -6.3970119212030800e+00 -1.1751075514911495e+01 0 0 0
11767 2 4.0692370113063125e+00 -6.6073866876437339e+00 -1.1322530399900378e+01 0 1 0
13314 2 5.8424112294598833e+00 -6.1238102877054201e+00 -1.1453677081373627e+01 0 0 1
3445 1 5.6015837851903871e+00 -6.5524320219110539e+00 -1.1622547192323831e+01 0 0 1
4217 1 6.3187679251821249e+00 -6.6075800545072312e+00 -1.1516695420460970e+01 -1 1 1
15500 2 6.2853128923674744e+00 -6.1129113911611750e+00 -1.1168568752479814e+01 -1 0 0
7307 1 -7.4084442865183346e+00 -5.7244169625678287e+00 -1.1613000536862554e+01 0 1 1
8761 2 -6.3440620153138658e+00 -5.4727506684056850e+00 -1.1548667325877886e+01 0 1 1
2467 1 -6.7830848977823113e+00 -5.7164740746360030e+00 -1.1747940881132086e+01 0 0 1
11868 2 -4.9933978031992874e+00 -5.6095042194676612e+00 -1.1263972673426176e+01 0 0 0
5175 1 -4.9149226921356233e+00 -5.7050511662250285e+00 -1.1849996499080369e+01 0 0 1
5382 1 -4.1334963548194956e+00 -5.4042559285381886e+00 -1.1563780386413752e+01 0 1 1
5078 1 -3.5302426147177806e+00 -5.6872966606427831e+00 -1.1605536577448234e+01 0 0 0
14455 2 -2.4763688716098229e+00 -5.4141117089345583e+00 -1.1318851138445440e+01 0 0 1
1659 1 -1.9942397113879125e+00 -5.4514613263845151e+00 -1.1249482255035796e+01 0 1 1
15127 2 -1.3915885987108563e+00 -5.4645108307570291e+00 -1.1116878970680173e+01 0 0 0
2534 1 -1.1015061321754112e+00 -5.8153458055983229e+00 -1.1394529980154859e+01 0 0 0
7854 1 -7.7647192605025861e-01 -5.4292136669542685e+00 -1.1647295111555600e+01 0 0 0
14847 2 -2.0151935763997958e-01 -5.7258956579237674e+00 -1.1834693841509827e+01 0 0 1
11106 2 5.8416036045622122e-01 -5.9831863779708163e+00 -1.1266127307678714e+01 0 0 1
9166 2 1.5680948245596187e+00 -5.3574711146670300e+00 -1.1470085292997966e+01 0 0 1
1503 1 1.3408805271446458e+00 -5.6858379286619707e+00 -1.1252089388852847e+01 0 0 0
12075 2 2.5444800424852478e+00 -5.3062261132874706e+00 -1.1740552511511002e+01 1 0 1
5875 1 3.2310289718939678e+00 -5.3994856980026293e+00 -1.1483892851584201e+01 0 0 1
9358 2 3.3131508627608093e+00 -5.8827806926459489e+00 -1.1763273110462686e+01 0 0 1
11189 2 4.3801657192974597e+00 -5.9576826906415752e+00 -1.1405515995801304e+01 0 0 0
11734 2 4.3847910214639940e+00 -5.4301098780570349e+00 -1.1225613796937637e+01 0 1 1
9335 2 5.1442767628776584e+00 -5.7927977595334470e+00 -1.1421135202083034e+01 -1 1 0
5222 1 5.9841814832457931e+00 -5.4471776206708888e+00 -1.1201099324517541e+01 0 1 0
440 1 6.5931483357581246e+00 -5.7623635592443483e+00 -1.1611929947485788e+01 0 1 0
14459 2 7.0982629362830041e+00 -5.8312136254692550e+00 -1.1134777203388120e+01 0 1 1
15973 2 -7.1307857714745069e+00 -5.1009509286548669e+00 -1.1407047903361931e+01 1 0 0
6909 1 -6.4969072659548832e+00 -4.5016972093074328e+00 -1.1223921856695792e+01 1 0 0
1971 1 -6.6569055593160007e+00 -4.8516323563837096e+00 -1.1670768405243987e+01 1 0 0
6745 1 -5.7266133849510172e+00 -4.8723482490319858e+00 -1.1175379235186693e+01 1 0 0
7865 1 -4.9496770612867280e+00 -4.7637624019652804e+00 -1.1564177924161909e+01 1 1 0
9160 2 -4.3525011933688331e+00 -4.8920951142803473e+00 -1.1322215378283223e+01 0 0 1
14826 2 -3.5709078589017342e+00 -4.8495665259022172e+00 -1.1722835015791528e+01 0 0 0
5060 1 -2.8599586371411130e+00 -5.2185773403001443e+00 -1.1498074717341696e+01 0 1 1
2389 1 -1.4886911436791646e+00 -4.8648838602271214e+00 -1.1737781441314795e+01 0 0 1
227 1 -1.7536841193494348e+00 -4.6003634583594550e+00 -1.1259347907743669e+01 0 0 1
9561 2 -1.1458233750101978e+00 -4.7064378382449172e+00 -1.1510025446797272e+01 0 0 0
2826 1 -5.0659586649254973e-01 -4.5357934971730209e+00 -1.1515157211626450e+01 0 0 0
9073 2 -2.1798956663036266e-02 -5.0878941204878512e+00 -1.1364511667359832e+01 0 1 1
7619 1 5.6260109904070132e-01 -5.0868137052041957e+00 -1.1511514043577607e+01 0 1 1
3660 1 1.2300018353728630e+00 -4.7229531523827655e+00 -1.1567312368983034e+01 0 0 0
1956 1 2.1013180684683652e+00 -4.6410104448918608e+00 -1.1500174784082605e+01 0 0 0
9581 2 2.4268948909731543e+00 -5.1936498669445701e+00 -1.1199996995765538e+01 0 0 0
6553 1 3.8067478391753444e+00 -4.5243992941280879e+00 -1.1313845789912669e+01 0 0 1
15652 2 3.3227919253292337e+00 -4.7049339278416848e+00 -1.1498172251673445e+01 0 1 0
10655 2 4.2077595887063568e+00 -4.5945336579451510e+00 -1.1471198230493162e+01 -1 1 1
3198 1 4.0550309542504372e+00 -5.2127094543685235e+00 -1.1587173744135733e+01 0 0 0
9012 2 5.6375574613573773e+00 -4.7223747451794420e+00 -1.1690318163401374e+01 0 0 0
5348 1 5.4572526288197611e+00 -5.0812570087373494e+00 -1.1427556431420767e+01 0 0 0
13249 2 6.2471991588814344e+00 -5.0475283571597576e+00 -1.1471274681283248e+01 0 0 0
1774 1 6.3585958967105984e+00 -4.5485586354005116e+00 -1.1130611314992025e+01 0 1 1
5773 1 6.7590181392956499e+00 -5.1316342089359051e+00 -1.1780474530453169e+01 0 1 0
11686 2 6.8842507996693971e+00 -5.0200771395489667e+00 -1.1150617425174715e+01 -1 0 0
4938 1 -7.4499276844490829e+00 -4.4326536226900526e+00 -1.1592958600373775e+01 1 0 1
5157 1 -7.1712944222239923e+00 -3.8399302485988556e+00 -1.1200559086576661e+01 1 0 0
6840 1 -6.1367703183720881e+00 -3.8734333768527169e+00 -1.1616031888224441e+01 1 0 0
458 1 -5.5016624146241941e+00 -4.1434203029058736e+00 -1.1665327539662597e+01 0 1 1
1231 1 -4.9212156093687662e+00 -3.9295055500474430e+00 -1.1168436414929193e+01 0 0 0
15068 2 -4.0105782380306092e+00 -4.1988395773066980e+00 -1.1348721686741987e+01 0 1 1
5481 1 -3.4650297608778371e+00 -4.3234885569489458e+00 -1.1514900731370149e+01 0 0 1
7963 1 -2.6789093596848255e+00 -4.4381005725426643e+00 -1.1213402511240957e+01 0 0 1
5874 1 -1.9493498458722636e+00 -3.9793184060061715e+00 -1.1791047709570023e+01 0 0 0
9244 2 -2.1705064436529886e+00 -4.0813549837807122e+00 -1.1168277469530667e+01 0 0 1
7416 1 -1.2617471578303809e+00 -3.8449018977177576e+00 -1.1201849445317123e+01 0 0 0
13748 2 -1.3524191329728597e+00 -3.7991607016521840e+00 -1.1636662132734745e+01 0 0 1
10850 2 -6.6307702118350098e-01 -4.0912702512107018e+00 -1.1674665539279099e+01 0 0 1
1053 1 1.8362602015053331e-01 -4.3289459825841607e+00 -1.1785271715218650e+01 0 1 1
13971 2 6.4645264547066217e-01 -4.4576673995721849e+00 -1.1638905938438455e+01 0 0 1
14501 2 1.4369973934140245e+00 -4.3961374467285239e+00 -1.1178635335503271e+01 0 0 1
8058 2 2.3927899219734248e+00 -4.0884496006566158e+00 -1.1821023976741417e+01 0 1 1
7994 1 3.0964080395972871e+00 -4.1838546715669143e+00 -1.1717597144577180e+01 0 0 0
10128 2 4.0536718673825787e+00 -3.8157046208264984e+00 -1.1802035292298683e+01 0 0 1
2335 1 4.7547297351671105e+00 -4.3327960958974616e+00 -1.1272695224779197e+01 0 0 0
9144 2 5.8954073101294346e+00 -3.7743545187852572e+00 -1.1578072274478773e+01 -1 0 0
2794 1 6.2561364125341097e+00 -3.8572527099522045e+00 -1.1139786602358246e+01 0 0 0
15804 2 7.1981232354488309e+00 -4.1489357552880213e+00 -1.1349725820283153e+01 -1 1 1
13383 2 -7.0552398762666728e+00 -3.3335272133269176e+00 -1.1408383235654297e+01 0 1 1
14073 2 -6.3308808531290097e+00 -3.4768975798105366e+00 -1.1415639499838116e+01 0 0 1
13152 2 -5.0185099315760535e+00 -3.7150872976575151e+00 -1.1565189103961343e+01 0 0 0
3711 1 -4.7657161110350108e+00 -3.0878440456753826e+00 -1.1648988741756765e+01 0 0 0
9196 2 -4.3600383258807289e+00 -3.5341246591306130e+00 -1.1833635986071148e+01 0 0 0
3623 1 -4.1686745508048197e+00 -3.1233499407490792e+00 -1.1267296112772728e+01 0 0 0
10528 2 -4.1183810849464093e+00 -3.4845841468315206e+00 -1.1122446151597556e+01 0 0 0
12352 2 -3.6093365307790979e+00 -3.1242408367656367e+00 -1.1726292274269374e+01 0 0 1
5204 1 -2.9127592172873871e+00 -3.5483898211505625e+00 -1.1538261956006712e+01 0 0 1
15740 2 -2.5392239988322585e+00 -3.1580631830918029e+00 -1.1603446730746711e+01 1 0 1
6867 1 -2.1008761120988728e+00 -3.4862800770341531e+00 -1.1335104564267803e+01 0 0 0
1528 1 -1.3311274863006617e+00 -3.0012416744016992e+00 -1.1752173545321877e+01 0 0 0
2088 1 -5.4571464105827827e-01 -3.2161291379922132e+00 -1.1269624422312026e+01 0 0 1
11187 2 4.9307845922767629e-02 -3.4963700168884055e+00 -1.1439935981035156e+01 0 0 0
5055 1 4.5289117954582814e-01 -3.3621361615684644e+00 -1.1200416509236389e+01 0 0 0
14448 2 8.2367699220073176e-01 -3.0093900677615855e+00 -1.1777402580269138e+01 0 0 0
7360 1 1.3410919543737090e+00 -3.6159467871858735e+00 -1.1396464219522679e+01 0 0 1
10411 2 1.9291201938798894e+00 -3.1499219133822587e+00 -1.1358916628608119e+01 0 0 0
1881 1 2.0112810779101524e+00 -3.5942220846459580e+00 -1.1682459101019989e+01 0 0 0
8791 2 2.8021134677744448e+00 -3.4792037907772904e+00 -1.1185133699663666e+01 -1 1 0
5345 1 3.3549926932354706e+00 -3.4839034962599644e+00 -1.1471488565024545e+01 0 0 1
8873 2 4.4262759590834131e+00 -3.7294946841820757e+00 -1.1122627691971054e+01 0 0 1
11917 2 4.6368594779848804e+00 -3.1365014605149582e+00 -1.1459230300937543e+01 0 0 1
7676 1 5.3508795446555411e+00 -3.6118621281911754e+00 -1.1333912530825156e+01 0 0 0
8770 2 5.2347205884095658e+00 -3.1137088567486821e+00 -1.1762852589485881e+01 -1 0 1
15605 2 6.1338861987469819e+00 -3.1957768819631278e+00 -1.1642871886152506e+01 0 0 0
2549 1 6.9982781544995820e+00 -3.6263741129623814e+00 -1.1463019588233738e+01 -1 0 1
11529 2 6.7878455927975381e+00 -3.2782754406990846e+00 -1.1184980705257436e+01 -1 0 0
1266 1 -7.2511934774565328e+00 -2.6089280279359257e+00 -1.1267219159994182e+01 0 0 0
9327 2 -6.2110582315521734e+00 -2.8472162240287031e+00 -1.1728160463121316e+01 1 0 1
12536 2 -5.5160510121102373e+00 -2.7721168789922479e+00 -1.1639457063894026e+01 0 0 0
904 1 -5.7547194305088656e+00 -2.3664071891026275e+00 -1.1223638545967415e+01 0 0 0
1290 1 -5.1268055964946164e+00 -2.2742176381026993e+00 -1.1430097676358272e+01 0 0 1
1342 1 -3.9626879604011855e+00 -2.4494358469298532e+00 -1.1589162630640148e+01 0 0 0
11004 2 -3.3798113263912852e+00 -2.3803992504566085e+00 -1.1278000580517281e+01 0 0 1
3159 1 -2.6061604862903494e+00 -2.2928120631606905e+00 -1.1131182039320784e+01 1 0 1
488 1 -2.2073867091293882e+00 -2.7743257406641231e+00 -1.1759570733212508e+01 0 0 1
14879 2 -1.3146556732828272e+00 -2.4103070213790176e+00 -1.1355513693819638e+01 0 0 0
4313 1 -6.7163490885700827e-01 -2.3248410191322564e+00 -1.1260642870306095e+01 0 0 0
15095 2 -4.1327989103734097e-01 -2.6937278443560064e+00 -1.1316161611320007e+01 0 0 0
7814 1 2.8727504680622123e-01 -2.5290110082334665e+00 -1.1312074500155912e+01 0 0 1
3583 1 1.3301644691948902e+00 -2.7852621736939378e+00 -1.1260725726854508e+01 0 0 1
1328 1 2.1691262987010589e+00 -2.6907829911139229e+00 -1.1374820360530279e+01 0 0 1
3866 1 3.0087923702453385e+00 -2.6235441930422829e+00 -1.1349565177594549e+01 0 0 0
11158 2 3.8553579192667393e+00 -2.9643228308849858e+00 -1.1553691905300427e+01 0 0 0
11501 2 4.3105349999488087e+00 -2.2934300348030399e+00 -1.1395866292464909e+01 -1 0 1
15152 2 5.2199666125286841e+00 -2.8814318545515367e+00 -1.1215628982051143e+01 -1 1 1
739 1 4.7177418065391112e+00 -2.6077345725094476e+00 -1.1797302198511215e+01 0 0 0
6323 1 6.0822721811988449e+00 -2.6776167809508795e+00 -1.1140470080098765e+01 0 0 1
12186 2 7.1974279241790091e+00 -2.9120867578442788e+00 -1.1687895816726970e+01 0 0 1
4341 1 -7.3280383583578024e+00 -1.5416916312200537e+00 -1.1576003187543558e+01 0 0 1
9815 2 -5.7831874156525194e+00 -1.8151556999166267e+00 -1.1770831320966085e+01 0 0 1
2599 1 -5.0925495797853806e+00 -1.6275429076885501e+00 -1.1211880734679294e+01 0 0 0
13286 2 -4.0336968865405760e+00 -1.9754820742446264e+00 -1.1308706802795639e+01 0 0 0
11971 2 -2.7055544931119355e+00 -1.8467720860763841e+00 -1.1417732846072770e+01 0 0 0
6842 1 -2.2064925056160245e+00 -1.6465179675843467e+00 -1.1617054575561136e+01 0 0 0
13663 2 -1.5071390734487360e+00 -1.6209829207353066e+00 -1.1784732768275937e+01 0 0 0
1966 1 -5.4847219741421738e-01 -1.5983610422182035e+00 -1.1667357906660436e+01 0 0 0
12021 2 4.1947342028494330e-02 -2.1520179065333913e+00 -1.1513158310877893e+01 0 1 1
10140 2 8.8899072587592598e-01 -1.9519645835127641e+00 -1.1391755233153873e+01 0 0 1
7906 1 1.5543170202683805e+00 -1.7665797224826150e+00 -1.1246100851671619e+01 0 0 0
8201 2 1.9046362327097732e+00 -2.0018197909407007e+00 -1.1365879060116228e+01 0 0 1
7251 1 2.5907289781247664e+00 -1.7698513039252883e+00 -1.1360486363558556e+01 0 0 1
9117 2 3.4785681353837696e+00 -1.8434351838915339e+00 -1.1488822599049206e+01 0 0 0
9923 2 5.2395502417804112e+00 -2.1710329807695667e+00 -1.1500581698293095e+01 0 0 0
3481 1 4.8978044434483472e+00 -1.8830368146630472e+00 -1.1158344886949735e+01 -1 0 1
15524 2 5.7747297837030427e+00 -1.6001060812294816e+00 -1.1489402431553952e+01 0 1 0
7187 1 5.5866723771232127e+00 -2.1598295295279959e+00 -1.1249058684780756e+01 0 0 0
7248 1 6.7601999104347907e+00 -1.7036926635317970e+00 -1.1288877539814509e+01 -1 0 0
12889 2 6.4069082763466341e+00 -1.5818651281717853e+00 -1.1163983054845534e+01 -1 0 0
14573 2 7.3864541005807922e+00 -1.7837764737858539e+00 -1.1244302330354300e+01 0 0 0
7445 1 7.0985008052314020e+00 -2.1977985562367861e+00 -1.1489784152726825e+01 0 0 1
2979 1 -6.4728563393852312e+00 -1.4489979083154334e+00 -1.1404002973617944e+01 0 0 0
413 1 -5.8139716790334397e+00 -9.3644584024083832e-01 -1.1178984984128736e+01 1 0 0
8118 2 -5.8658863670394510e+00 -1.3846251366731432e+00 -1.1237722974269060e+01 0 0 0
10967 2 -5.2309930643615115e+00 -1.1472941588490724e+00 -1.1713786138742980e+01 0 0 0
8425 2 -4.2063715986696648e+00 -1.2068590999511533e+00 -1.1550677147898943e+01 0 0 1
15728 2 -2.6422837880903942e+00 -9.7663415553550192e-01 -1.1797449036214839e+01 0 0 0
2672 1 -3.0412978091498166e+00 -9.7178761381062795e-01 -1.1325350067806992e+01 0 0 0
13240 2 -2.0885165839820781e+00 -1.1995865106089565e+00 -1.1445092617828401e+01 0 0 1
15048 2 -1.1940742770836947e+00 -9.8814599526062041e-01 -1.1328860866035251e+01 0 0 0
12458 2 -3.6304317296631021e-02 -1.1678448050136392e+00 -1.1393581139312161e+01 0 0 1
1834 1 -1.9538026451548587e-01 -9.6145376388272896e-01 -1.1798412197705142e+01 0 0 1
6072 1 4.9656166653205658e-01 -1.3020388478082681e+00 -1.1294975944157619e+01 0 0 1
10648 2 1.2481964070414207e+00 -9.0234598551580869e-01 -1.1117378566663518e+01 0 0 0
12307 2 1.4746621548213728e+00 -1.3929138156533702e+00 -1.1637758176159247e+01 0 0 0
8099 2 2.3189619122906895e+00 -1.2486108813794703e+00 -1.1547255424493290e+01 0 0 1
1708 1 1.9130025472433994e+00 -8.2580117562746325e-01 -1.1845184223679739e+01 0 0 0
6665 1 2.7165699674568184e+00 -1.1110294876788205e+00 -1.1485342546651305e+01 0 0 0
10418 2 3.1745576901734047e+00 -1.1299275545681764e+00 -1.1821280795916298e+01 0 0 0
5953 1 3.6580331619237523e+00 -1.3264490427403901e+00 -1.1418815059159847e+01 0 0 0
12651 2 4.0542119343847025e+00 -1.2143614602623090e+00 -1.1192937141516675e+01 0 0 1
13980 2 4.8550213108612210e+00 -1.1015648338773600e+00 -1.1643067136677661e+01 0 0 0
5386 1 4.8388923368071879e+00 -8.8296442661544938e-01 -1.1297048846513281e+01 0 0 0
4531 1 6.1864150881300022e+00 -9.3857574990636661e-01 -1.1342598057268287e+01 -1 0 0
14077 2 6.8001291689563521e+00 -1.1873902962777061e+00 -1.1330264664219969e+01 0 0 0
15793 2 -7.1636065253781984e+00 -7.3377895227896595e-01 -1.1390544685725899e+01 1 0 0
141 1 -7.4620401917319592e+00 -4.1998099135538321e-03 -1.1247969540697564e+01 1 0 1
9261 2 -6.3873168184274185e+00 -6.1106763313631440e-01 -1.1485626255894219e+01 0 0 1
5231 1 -6.1295274770617310e+00 -1.8935512378882587e-02 -1.1317093282704832e+01 1 0 0
10415 2 -5.4923544545155538e+00 -3.5365444539829816e-01 -1.1333217997344356e+01 0 0 1
2362 1 -4.9968530690291351e+00 -6.9627859714720519e-01 -1.1228410535622514e+01 1 0 1
13266 2 -4.5655493074831455e+00 -4.0645929465893293e-01 -1.1330560284848289e+01 0 0 0
1127 1 -3.8841172077272192e+00 -5.8474529913159168e-01 -1.1734414943464522e+01 0 0 0
14292 2 -1.8179628273961554e+00 -1.3323133856809524e-01 -1.1145311653253632e+01 0 0 0
12325 2 -2.3641510934471053e+00 -2.6316581917806747e-01 -1.1566876019839599e+01 0 0 0
1741 1 -1.5721360998882830e+00 -6.8184772462102539e-01 -1.1768796475519620e+01 0 0 0
1913 1 -7.4053893518534719e-01 -4.3881851581053594e-01 -1.1428646091428435e+01 0 1 1
3927 1 7.3660990387746705e-02 -1.4741722441974514e-01 -1.1316136406090116e+01 0 0 1
12554 2 2.3590587951805911e-01 -3.4031462594954698e-01 -1.1612954539903805e+01 0 0 0
3438 1 9.3163408106972478e-01 -6.5422945147062139e-01 -1.1517172705604100e+01 0 0 0
11889 2 1.6371444240689383e+00 -7.3165399263398900e-01 -1.1473322675430321e+01 0 0 0
15223 2 2.8507231824840926e+00 -2.4979293692308904e-01 -1.1484286313367491e+01 0 0 0
6509 1 3.4855984270590601e+00 -4.9391125476217279e-01 -1.1734213905680265e+01 -1 0 0
2843 1 3.3329692563006583e+00 -5.4597686443224624e-01 -1.1138783150993541e+01 0 0 0
6687 1 4.3401600008983117e+00 -2.5468180287125580e-01 -1.1459896103121006e+01 0 0 0
8972 2 4.6928687835808329e+00 -2.4011324722532157e-01 -1.1849906835841068e+01 0 0 0
787 1 5.8403812647362283e+00 -2.3785494932936294e-01 -1.1140247215888293e+01 0 0 1
10917 2 5.5566317342732647e+00 -6.7624590267338902e-01 -1.1696305181276626e+01 0 0 0
1225 1 6.6486328207044139e+00 -5.0206529043064363e-01 -1.1258493797828397e+01 0 0 0
13588 2 6.9323598735912997e+00 -3.2600255782966631e-01 -1.1216848581549000e+01 0 0 0
14689 2 -7.0226752540479316e+00 -6.8425035851040699e+00 -1.0406164796670099e+01 0 0 0
5429 1 -7.4511391296051670e+00 -6.7963062248750523e+00 -1.0575919545516758e+01 0 0 1
4383 1 -6.4533059688699934e+00 -6.9356230000819563e+00 -1.1016010504505498e+01 0 1 0
13704 2 -5.8004408190225734e+00 -7.2757478357724032e+00 -1.0432760704268983e+01 0 0 0
4667 1 -4.9686062822614012e+00 -6.8214918579423269e+00 -1.1092866356673598e+01 0 0 1
13243 2 -5.0358880551881837e+00 -7.2789847803090977e+00 -1.0416794763903058e+01 0 0 0
13576 2 -4.4444060614205849e+00 -7.1737506695988307e+00 -1.0898832864295802e+01 0 0 0
3351 1 -3.4863030552463301e+00 -6.8133895751212679e+00 -1.0514458207719219e+01 0 0 1
14423 2 -3.7247857782587741e+00 -7.2047744198741386e+00 -1.1066850811929443e+01 0 0 1
5454 1 -2.5128928033238327e+00 -6.7814007745675235e+00 -1.0865803709584767e+01 0 0 0
4489 1 -2.9949013291356343e+00 -7.3722574466152331e+00 -1.0775188118357093e+01 0 1 1
316 1 -2.0392797366189273e+00 -7.4751607615944140e+00 -1.0987321659625188e+01 0 0 0
9747 2 -1.4171421895378900e+00 -7.0357803143486342e+00 -1.1027615205762341e+01 0 1 1
1756 1 -6.3705461978717859e-01 -7.0146275577386303e+00 -1.0811499875573347e+01 0 1 0
8922 2 -1.0544354518004535e+00 -7.3296378972109570e+00 -1.0454401475003836e+01 0 0 0
1486 1 7.6854118702974428e-01 -7.1203033053346934e+00 -1.0542797405710671e+01 0 0 1
1289 1 1.5576868337690966e+00 -7.4303934776257181e+00 -1.0454671711296200e+01 0 0 0
15020 2 2.1949478622358480e+00 -6.8268954254712702e+00 -1.0733359328133286e+01 0 0 0
1591 1 2.3040927910355808e+00 -7.3710653424979435e+00 -1.0801623195294809e+01 0 0 0
15661 2 3.1400706260855507e+00 -6.7615602067828400e+00 -1.0577923719281047e+01 0 0 0
3996 1 2.8081880181146448e+00 -7.1417975906598814e+00 -1.0810977233166163e+01 0 1 0
4622 1 3.5137492184407186e+00 -7.0633603825456124e+00 -1.0942033575164910e+01 0 0 1
2112 1 4.3466056932233954e+00 -7.4374286454094083e+00 -1.0440806202416592e+01 0 1 0
14988 2 4.2049901090541795e+00 -6.9050848480341909e+00 -1.0455538685566651e+01 0 0 0
6721 1 5.5546256297276368e+00 -7.4723806155541430e+00 -1.0544241003165194e+01 -1 0 0
2143 1 5.7732640438696619e+00 -7.1329316487866468e+00 -1.1045958598735565e+01 0 1 1
15336 2 6.0902979491071694e+00 -7.2412173800523281e+00 -1.0607336316425304e+01 0 0 0
5330 1 6.6060708308744136e+00 -6.9115427135549083e+00 -1.0600002899373338e+01 0 0 1
11915 2 7.0292821170182771e+00 -6.9694264154643184e+00 -1.0645461786432358e+01 -1 1 0
8420 2 -6.9485207629732670e+00 -6.1711560570699922e+00 -1.1058343384636542e+01 1 1 0
7627 1 -6.5864483565685079e+00 -6.2395965959495383e+00 -1.0801799737353280e+01 0 0 0
8764 2 -6.0002160408166345e+00 -6.1273743994119076e+00 -1.0888562031728465e+01 1 1 0
14495 2 -5.0065195333032912e+00 -6.2057289197341845e+00 -1.0504668779954452e+01 1 0 0
4395 1 -5.2420291884538619e+00 -6.6114837669323325e+00 -1.0488333459716443e+01 0 0 0
12047 2 -4.0983894020471858e+00 -6.4360842913381253e+00 -1.1060663558645521e+01 1 1 1
3003 1 -3.9959616864832590e+00 -6.0528760673568360e+00 -1.0795936993433397e+01 0 1 0
14877 2 -3.4220923290710914e+00 -6.5104546658221603e+00 -1.0858351019008220e+01 0 0 1
2986 1 -2.7894952285302876e+00 -6.3613030628662797e+00 -1.0471898960091817e+01 0 0 1
8433 2 -2.1827308331378865e+00 -6.1591777991053300e+00 -1.0865520814330948e+01 0 0 0
11851 2 -1.5751241657693460e+00 -6.2815042875656744e+00 -1.0713797960317049e+01 0 0 1
13248 2 -9.0050137097953442e-01 -6.2949818608527144e+00 -1.0670802095001175e+01 0 0 1
252 1 2.5143269142347952e-01 -6.1706130860891832e+00 -1.1106278371097794e+01 0 1 0
10485 2 6.5034728119821184e-01 -6.7117300703218215e+00 -1.1006563538221778e+01 0 1 0
2145 1 1.1655640914531280e+00 -6.0732063285496629e+00 -1.0507279663198343e+01 0 0 1
12677 2 1.3603799802070287e+00 -6.5290220821659499e+00 -1.0925360816047036e+01 0 0 0
4524 1 2.4385745518804041e+00 -6.1625115146263481e+00 -1.0951852404686406e+01 0 1 1
9331 2 3.8175965373879097e+00 -6.0769423164892356e+00 -1.0497727263143000e+01 0 1 1
5423 1 4.6761216739371774e+00 -6.5782491985022284e+00 -1.0870252083788451e+01 0 1 0
10807 2 4.7524827612541207e+00 -6.1037004712512335e+00 -1.0476298818539748e+01 0 0 0
3982 1 5.5395061310270037e+00 -6.3568191669325129e+00 -1.0888321432128432e+01 0 0 0
6555 1 6.4655710303986265e+00 -6.0956726358983975e+00 -1.0440565373596304e+01 0 1 0
1470 1 7.0543650901518777e+00 -6.2807086063058257e+00 -1.0979763756188683e+01 0 1 1
7807 1 -7.1752067836639881e+00 -5.4917643423771674e+00 -1.0900121669240958e+01 0 1 0
12017 2 -7.1707240849057667e+00 -5.8289636678764127e+00 -1.0466317289848044e+01 0 0 0
1345 1 -6.3479425265464187e+00 -5.5896643275691638e+00 -1.0760955164957442e+01 1 0 0
6143 1 -5.5573530968326059e+00 -5.2592604866427628e+00 -1.0566797672649196e+01 0 0 0
14235 2 -5.6489031532048113e+00 -5.3255143421312168e+00 -1.1043252411052801e+01 0 1 1
3590 1 -5.2118091132576971e+00 -5.9374964579064802e+00 -1.1055657180841264e+01 0 1 0
5261 1 -4.6780096054524236e+00 -5.7878809374496427e+00 -1.0371879623415113e+01 0 1 0
8230 2 -4.2279898662161886e+00 -5.5267809843714826e+00 -1.0700419208422447e+01 0 0 1
15491 2 -3.3463623134112770e+00 -5.4387220893411881e+00 -1.1051065381406072e+01 1 0 1
3622 1 -3.1113940506356310e+00 -5.7083236403116100e+00 -1.0852921365894582e+01 0 0 0
10702 2 -2.6828696929432199e+00 -5.7865305699964376e+00 -1.0500792622084401e+01 1 0 1
4611 1 -1.7330359931123589e+00 -5.5221604538996312e+00 -1.0439781194418721e+01 0 1 1
2392 1 -8.7612604543289829e-01 -5.7967056901595324e+00 -1.0557531853316048e+01 0 0 0
11599 2 -3.2882105509511655e-01 -5.7374927434559311e+00 -1.1029332586072655e+01 0 0 1
7607 1 -1.6288138279877365e-01 -5.5282366355011652e+00 -1.0741836948117465e+01 0 0 1
11984 2 7.2588929146507630e-01 -5.9401392241945059e+00 -1.0428907508671335e+01 0 1 0
9010 2 1.0813002702965249e+00 -5.3365240619628214e+00 -1.1002094755985347e+01 0 1 0
5001 1 1.7540039961614853e+00 -5.8841325353539391e+00 -1.0472682351197353e+01 0 1 0
6810 1 2.0824765384333630e+00 -5.4068499651524764e+00 -1.0830263089399979e+01 0 1 0
11803 2 3.0119849716747185e+00 -5.9686859769722727e+00 -1.0882739835388628e+01 0 0 1
546 1 3.2705142195982941e+00 -5.6192771631812075e+00 -1.0619238311814433e+01 -1 1 1
14490 2 3.6945349622072734e+00 -5.3282899844568172e+00 -1.0895611415111206e+01 0 1 0
548 1 4.2178708037305501e+00 -5.8956045877930388e+00 -1.0543460503042118e+01 -1 1 0
2438 1 5.3059898078978707e+00 -5.8125573101311465e+00 -1.0424191859469211e+01 0 0 0
2631 1 5.0166757238624839e+00 -5.4345521081482255e+00 -1.0995290263786579e+01 -1 0 0
6618 1 6.6977910885056859e+00 -5.4601008621801972e+00 -1.0511300912324250e+01 -1 0 0
2114 1 -7.2515455244258948e+00 -4.5084040656818871e+00 -1.0372328720335222e+01 0 0 0
14353 2 -7.1683375720347957e+00 -4.5452171891555864e+00 -1.0815639181910647e+01 0 1 0
8129 2 -6.5004518233192110e+00 -4.9335972041446823e+00 -1.0860309952280245e+01 0 0 1
4325 1 -6.2551760386927899e+00 -4.7110903700952464e+00 -1.0416963897502658e+01 1 0 0
10922 2 -5.5679938620052400e+00 -4.5873805628398943e+00 -1.0953651552106745e+01 0 0 0
8113 2 -4.7959724489511668e+00 -5.0743624853938760e+00 -1.0639014347557321e+01 0 0 0
13229 2 -3.8981149969700981e+00 -4.7709592755416850e+00 -1.0636468251493156e+01 0 0 1
6301 1 -3.3958568534250637e+00 -4.9296658481817968e+00 -1.0915542626478699e+01 0 1 1
13749 2 -2.8730143236885208e+00 -4.6907665396208316e+00 -1.1083436195794521e+01 0 0 0
1516 1 -2.3066725619110091e+00 -5.1670279813134838e+00 -1.0421036830484397e+01 0 0 1
12480 2 -2.2293142856038872e+00 -4.7306260355144278e+00 -1.0550185905113921e+01 0 0 0
2674 1 -1.3568415342260332e+00 -4.5803254061559828e+00 -1.0560492083427892e+01 0 1 1
9268 2 -1.4017434481713258e+00 -5.0589310985936873e+00 -1.0380031452615471e+01 0 0 1
14857 2 -7.1811652209628030e-01 -4.9353496576116607e+00 -1.0837896205903599e+01 1 1 1
11664 2 3.1998003077790038e-01 -5.0631629363455462e+00 -1.0650343914182894e+01 0 1 0
3362 1 9.0356356908037749e-01 -4.8983147436029748e+00 -1.0694716343437909e+01 0 0 0
1259 1 1.7043589692242211e+00 -5.0356438700695154e+00 -1.0731249613206300e+01 0 0 0
15018 2 2.1003639669593204e+00 -4.5479687868405971e+00 -1.0387225760620822e+01 0 0 0
10433 2 3.0585191171849706e+00 -4.9475502593157454e+00 -1.0806531421140594e+01 0 0 0
15116 2 2.5377818651945478e+00 -5.1013106792573222e+00 -1.0400477404402769e+01 0 1 0
3747 1 3.5921451189021805e+00 -4.6388850067616501e+00 -1.0664934383147710e+01 0 0 0