LAMMPS (17 Apr 2024 - Development - patch_17Apr2024-174-g749e259294-modified)
# LAMMPS input file in real units via oxdna lj2real.py, date 2024-05-19
variable number	equal 1
variable ofreq	equal 1000
variable efreq	equal 1000
variable T      equal 300.0
variable rhos   equal 0.2

units real

dimension 3

newton on

boundary  p p p

atom_style hybrid bond ellipsoid oxdna
WARNING: Atom style hybrid defines both, per-type and per-atom masses; both must be set, but only per-atom masses will be used (../atom_vec_hybrid.cpp:132)
atom_modify sort 0 8.518

# Pair interactions require lists of neighbours to be calculated
neighbor 17.036 bin
neigh_modify every 1 delay 0 check yes

read_data data.duplex1
Reading data file ...
  orthogonal box = (-170 -170 -170) to (170 170 170)
  1 by 1 by 1 MPI processor grid
  reading atoms ...
  10 atoms
  reading velocities ...
  10 velocities
  scanning bonds ...
  1 = max bonds/atom
  10 ellipsoids
  orthogonal box = (-170 -170 -170) to (170 170 170)
  1 by 1 by 1 MPI processor grid
  reading bonds ...
  8 bonds
Finding 1-2 1-3 1-4 neighbors ...
  special bond factors lj:    0        0        0       
  special bond factors coul:  0        0        0       
     2 = max # of 1-2 neighbors
     2 = max # of 1-3 neighbors
     2 = max # of 1-4 neighbors
     4 = max # of special neighbors
  special bonds CPU = 0.000 seconds
  read_data CPU = 0.009 seconds

set atom * mass 315.8376
Setting atom values ...
  10 settings made for mass

group all type 1 4
10 atoms in group all

# oxDNA2 bond interactions - FENE backbone
bond_style oxdna2/fene
bond_coeff * 11.92337812042065 2.1295 6.4430152
special_bonds lj 0 1 1
Finding 1-2 1-3 1-4 neighbors ...
  special bond factors lj:    0        1        1       
  special bond factors coul:  0        0        0       
     2 = max # of 1-2 neighbors
     2 = max # of 1-3 neighbors
     2 = max # of 1-4 neighbors
     4 = max # of special neighbors
  special bonds CPU = 0.000 seconds

# oxDNA2 pair interactions
pair_style hybrid/overlay oxdna2/excv oxdna2/stk oxdna2/hbond oxdna2/xstk oxdna2/coaxstk oxdna2/dh
pair_coeff * * oxdna2/excv 11.92337812042065 5.9626 5.74965 11.92337812042065 4.38677 4.259 11.92337812042065 2.81094 2.72576
pair_coeff * * oxdna2/stk seqav ${T} 8.06199211612242 0.005309213 0.70439070204273 3.4072 7.6662 2.72576 6.3885 1.3 0.0 0.8 0.9 0.0 0.95 0.9 0.0 0.95 2.0 0.65 2.0 0.65
pair_coeff * * oxdna2/stk seqav 300 8.06199211612242 0.005309213 0.70439070204273 3.4072 7.6662 2.72576 6.3885 1.3 0.0 0.8 0.9 0.0 0.95 0.9 0.0 0.95 2.0 0.65 2.0 0.65
pair_coeff * * oxdna2/hbond seqav 0.0 0.93918760272364 3.4072 6.3885 2.89612 5.9626 1.5 0.0 0.7 1.5 0 0.7 1.5 0 0.7 0.46 3.141592654 0.7 4.0 1.570796327 0.45 4.0 1.570796327 0.45
pair_coeff 1 4 oxdna2/hbond seqav 6.36589157849259 0.93918760272364 3.4072 6.3885 2.89612 5.9626 1.5 0 0.7 1.5 0.0 0.7 1.5 0 0.7 0.46 3.141592654 0.7 4.0 1.570796327 0.45 4.0 1.570796327 0.45
pair_coeff 2 3 oxdna2/hbond seqav 6.36589157849259 0.93918760272364 3.4072 6.3885 2.89612 5.9626 1.5 0 0.7 1.5 0.0 0.7 1.5 0 0.7 0.46 3.141592654 0.7 4.0 1.570796327 0.45 4.0 1.570796327 0.45
pair_coeff * * oxdna2/xstk 3.9029021145006 4.89785 5.74965 4.21641 5.57929 2.25 0.791592654 0.58 1.7 1.0 0.68 1.7 1.0 0.68 1.5 0 0.65 1.7 0.875 0.68 1.7 0.875 0.68
pair_coeff * * oxdna2/coaxstk 4.80673207785863 3.4072 5.1108 1.87396 4.94044 2.0 2.891592653589793 0.65 1.3 0 0.8 0.9 0 0.95 0.9 0 0.95 40.0 3.116592653589793
pair_coeff * * oxdna2/dh ${T} ${rhos} 0.815
pair_coeff * * oxdna2/dh 300 ${rhos} 0.815
pair_coeff * * oxdna2/dh 300 0.2 0.815

# NVE ensemble
fix 1 all nve/asphere
#fix 2 all langevin ${T} ${T} 4265.0 457145 angmom 10

timestep 0.01706

#comm_style tiled
fix 3 all balance 1000 1.03 shift xyz 10 1.03
comm_modify cutoff 32.4

compute quat all property/atom quatw quati quatj quatk

compute erot all erotate/asphere
compute ekin all ke
compute epot all pe
variable erot equal c_erot
variable ekin equal c_ekin
variable epot equal c_epot
variable etot equal c_erot+c_ekin+c_epot
fix 5 all print ${efreq} "$(step)  ekin = ${ekin} |  erot = ${erot} | epot = ${epot} | etot = ${etot}" screen yes
fix 5 all print 1000 "$(step)  ekin = ${ekin} |  erot = ${erot} | epot = ${epot} | etot = ${etot}" screen yes

dump out all custom ${ofreq} out.${number}.lammpstrj id mol type x y z ix iy iz vx vy vz c_quat[1] c_quat[2] c_quat[3] c_quat[4] angmomx angmomy angmomz
dump out all custom 1000 out.${number}.lammpstrj id mol type x y z ix iy iz vx vy vz c_quat[1] c_quat[2] c_quat[3] c_quat[4] angmomx angmomy angmomz
dump out all custom 1000 out.1.lammpstrj id mol type x y z ix iy iz vx vy vz c_quat[1] c_quat[2] c_quat[3] c_quat[4] angmomx angmomy angmomz
dump_modify out sort id
dump_modify out format line "%d %d %d  %22.15le %22.15le %22.15le  %d %d %d  %22.15le %22.15le %22.15le  %22.15le %22.15le %22.15le %22.15le  %22.15le %22.15le %22.15le"

run 1000000
Generated 0 of 6 mixed pair_coeff terms from geometric mixing rule
Neighbor list info ...
  update: every = 1 steps, delay = 0 steps, check = yes
  max neighbors/atom: 2000, page size: 100000
  master list distance cutoff = 48.032697
  ghost atom cutoff = 48.032697
  binsize = 24.016348, bins = 15 15 15
  5 neighbor lists, perpetual/occasional/extra = 5 0 0
  (1) pair oxdna2/excv, perpetual
      attributes: half, newton on
      pair build: half/bin/newton
      stencil: half/bin/3d
      bin: standard
  (2) pair oxdna2/hbond, perpetual, copy from (1)
      attributes: half, newton on
      pair build: copy
      stencil: none
      bin: none
  (3) pair oxdna2/xstk, perpetual, copy from (1)
      attributes: half, newton on
      pair build: copy
      stencil: none
      bin: none
  (4) pair oxdna2/coaxstk, perpetual, copy from (1)
      attributes: half, newton on
      pair build: copy
      stencil: none
      bin: none
  (5) pair oxdna2/dh, perpetual, copy from (1)
      attributes: half, newton on
      pair build: copy
      stencil: none
      bin: none
WARNING: Communication cutoff adjusted to 48.03269686950012 (../comm.cpp:739)
0  ekin = 6.60687273927977 |  erot = 16.7817849122513 | epot = -73.3220946463642 | etot = -49.9334369948331
Per MPI rank memory allocation (min/avg/max) = 7.445 | 7.445 | 7.445 Mbytes
   Step          Temp          E_pair         E_mol          TotEng         Press          Volume    
         0   246.27432     -79.708623      6.3865285     -66.715222     -0.044062421    39304000     
1000  ekin = 6.41530681673926 |  erot = 17.3249659795569 | epot = -73.6737097924625 | etot = -49.9334369961663
2000  ekin = 6.27960997228419 |  erot = 17.8454841526973 | epot = -74.0585311228698 | etot = -49.9334369978883
3000  ekin = 6.20339572000348 |  erot = 18.3141946085155 | epot = -74.4510273282071 | etot = -49.9334369996881
4000  ekin = 6.18541696870776 |  erot = 18.7042662877837 | epot = -74.8231202577462 | etot = -49.9334370012548
5000  ekin = 6.22079685461299 |  erot = 18.9945001618931 | epot = -75.1487340188923 | etot = -49.9334370023862
6000  ekin = 6.30238619195772 |  erot = 19.1711640282348 | epot = -75.4069872232165 | etot = -49.933437003024
7000  ekin = 6.42181744516985 |  erot = 19.2282392613116 | epot = -75.5834937096768 | etot = -49.9334370031954
8000  ekin = 6.5702083768984 |  erot = 19.1666965396848 | epot = -75.670341919563 | etot = -49.9334370029798
9000  ekin = 6.73869975295017 |  erot = 18.9934225090914 | epot = -75.6655592644387 | etot = -49.9334370023971
10000  ekin = 6.91896362918058 |  erot = 18.720482841468 | epot = -75.5728834721419 | etot = -49.9334370014934
11000  ekin = 7.10364142561688 |  erot = 18.3641504994904 | epot = -75.4012289254607 | etot = -49.9334370003534
12000  ekin = 7.28657388923056 |  erot = 17.9433928027825 | epot = -75.1634036911466 | etot = -49.9334369991335
13000  ekin = 7.46274124826267 |  erot = 17.4778556704808 | epot = -74.8740339167287 | etot = -49.9334369979852
14000  ekin = 7.62796631031633 |  erot = 16.985794378233 | epot = -74.5471976856215 | etot = -49.9334369970722
15000  ekin = 7.77853508999226 |  erot = 16.4826987969597 | epot = -74.1946708831607 | etot = -49.9334369962087
16000  ekin = 7.91091226447414 |  erot = 15.9810202779915 | epot = -73.8253695379244 | etot = -49.9334369954588
17000  ekin = 8.02167864528801 |  erot = 15.4888629495771 | epot = -73.4439785905236 | etot = -49.9334369956585
18000  ekin = 8.10771648329849 |  erot = 15.0085330298885 | epot = -73.0496865092416 | etot = -49.9334369960546
19000  ekin = 8.16663757201098 |  erot = 14.5368419756962 | epot = -72.6369165441952 | etot = -49.933436996488
20000  ekin = 8.19737361822045 |  erot = 14.069473517068 | epot = -72.2002841320777 | etot = -49.9334369967892
21000  ekin = 8.200840326377 |  erot = 13.6028244433726 | epot = -71.7371017665554 | etot = -49.9334369968058
22000  ekin = 8.18058151811635 |  erot = 13.1355858369993 | epot = -71.2496043515412 | etot = -49.9334369964255
23000  ekin = 8.14330066835266 |  erot = 12.6698318997777 | epot = -70.7465695637165 | etot = -49.9334369955862
24000  ekin = 8.09918346860519 |  erot = 12.2114790537769 | epot = -70.2440995166709 | etot = -49.9334369942888
25000  ekin = 8.06188796651942 |  erot = 11.7700779899392 | epot = -69.7654029490659 | etot = -49.9334369926073
26000  ekin = 8.04803038217859 |  erot = 11.357977539424 | epot = -69.3394449122889 | etot = -49.9334369906863
27000  ekin = 8.07613224077752 |  erot = 10.9889629668064 | epot = -68.9985321963396 | etot = -49.9334369887557
28000  ekin = 8.16468286004856 |  erot = 10.6764628926903 | epot = -68.7745827398655 | etot = -49.9334369871266
29000  ekin = 8.32943276357165 |  erot = 10.4314466403616 | epot = -68.6943163900859 | etot = -49.9334369861526
30000  ekin = 8.58019899558303 |  erot = 10.260206659823 | epot = -68.7738426415863 | etot = -49.9334369861802
31000  ekin = 8.91780959359565 |  erot = 10.1623429442233 | epot = -69.0135895252605 | etot = -49.9334369874415
32000  ekin = 9.33207993074479 |  erot = 10.1294239012755 | epot = -69.3949408219811 | etot = -49.9334369899608
33000  ekin = 9.80167373728905 |  erot = 10.1460133617213 | epot = -69.8811240921766 | etot = -49.9334369931663
34000  ekin = 10.296255703772 |  erot = 10.1906808991803 | epot = -70.4203736002083 | etot = -49.933436997256
35000  ekin = 10.7808236403015 |  erot = 10.2363285925375 | epot = -70.950589233993 | etot = -49.9334370011539
36000  ekin = 11.2209991001448 |  erot = 10.2573020893315 | epot = -71.4117381937016 | etot = -49.9334370042253
37000  ekin = 11.5878770725935 |  erot = 10.233920295851 | epot = -71.7552343744929 | etot = -49.9334370060484
38000  ekin = 11.8612836540756 |  erot = 10.1555553859583 | epot = -71.9502760465432 | etot = -49.9334370065093
39000  ekin = 12.0309099424617 |  erot = 10.0214706213655 | epot = -71.985817569609 | etot = -49.9334370057818
40000  ekin = 12.0955556066702 |  erot = 9.83943808382945 | epot = -71.8684306947124 | etot = -49.9334370042128
41000  ekin = 12.0612052446598 |  erot = 9.62294084167585 | epot = -71.617583088525 | etot = -49.9334370021893
42000  ekin = 11.9387239948167 |  erot = 9.38805049860224 | epot = -71.2602114934562 | etot = -49.9334370000373
43000  ekin = 11.7417170850644 |  erot = 9.15084162780929 | epot = -70.8259957108611 | etot = -49.9334369979874
44000  ekin = 11.4847881035009 |  erot = 8.92568438359922 | epot = -70.3439094834557 | etot = -49.9334369963556
45000  ekin = 11.1822274471315 |  erot = 8.72337977254416 | epot = -69.8390442145234 | etot = -49.9334369948477
46000  ekin = 10.8470862022847 |  erot = 8.55290687697305 | epot = -69.3334300728894 | etot = -49.9334369936317
47000  ekin = 10.4905994457614 |  erot = 8.42173082249889 | epot = -68.8457672609551 | etot = -49.9334369926948
48000  ekin = 10.1219833658041 |  erot = 8.33574076580856 | epot = -68.3911611235985 | etot = -49.9334369919859
49000  ekin = 9.74860996204229 |  erot = 8.29978137994427 | epot = -67.9818283334164 | etot = -49.9334369914298
50000  ekin = 9.37652878062106 |  erot = 8.3181429829463 | epot = -67.6281087545116 | etot = -49.9334369909443
51000  ekin = 9.01124628424547 |  erot = 8.39494797706923 | epot = -67.3396312517619 | etot = -49.9334369904472
52000  ekin = 8.65861585992268 |  erot = 8.53436345461162 | epot = -67.1264163044102 | etot = -49.9334369898759
53000  ekin = 8.32565221212492 |  erot = 8.74055503681473 | epot = -66.9996442381288 | etot = -49.9334369891891
54000  ekin = 8.02107164181931 |  erot = 9.01735593163919 | epot = -66.9718645619368 | etot = -49.9334369884783
55000  ekin = 7.75537320775564 |  erot = 9.36712982138555 | epot = -67.0559400169756 | etot = -49.9334369878344
56000  ekin = 7.54033857901023 |  erot = 9.78947615586548 | epot = -67.263251722307 | etot = -49.9334369874313
57000  ekin = 7.38797148977987 |  erot = 10.2796726902731 | epot = -67.6010811675105 | etot = -49.9334369874576
58000  ekin = 7.30907596761463 |  erot = 10.8272746456741 | epot = -68.0697876013461 | etot = -49.9334369880574
59000  ekin = 7.31183154532697 |  erot = 11.4154638702662 | epot = -68.6607324048616 | etot = -49.9334369892684
60000  ekin = 7.40073708729543 |  erot = 12.0215350766978 | epot = -69.3557091550092 | etot = -49.933436991016
61000  ekin = 7.57612697427838 |  erot = 12.6184730514599 | epot = -70.1280370189361 | etot = -49.9334369931978
62000  ekin = 7.83421085835969 |  erot = 13.1768169062567 | epot = -70.9444647601164 | etot = -49.9334369955
63000  ekin = 8.16736345530171 |  erot = 13.6689818833254 | epot = -71.7697823361826 | etot = -49.9334369975555
64000  ekin = 8.56437270810164 |  erot = 14.0716865201635 | epot = -72.5694962279815 | etot = -49.9334369997164
65000  ekin = 9.01149485546105 |  erot = 14.3654371918515 | epot = -73.310369048807 | etot = -49.9334370014944
66000  ekin = 9.49327902442042 |  erot = 14.5383989864003 | epot = -73.9651150135785 | etot = -49.9334370027578
67000  ekin = 9.99325449816094 |  erot = 14.5878691516415 | epot = -74.5145606532497 | etot = -49.9334370034473
68000  ekin = 10.4944771426633 |  erot = 14.5206532270625 | epot = -74.9485673733188 | etot = -49.933437003593
69000  ekin = 10.9798545698929 |  erot = 14.3522752904606 | epot = -75.2655668636681 | etot = -49.9334370033147
70000  ekin = 11.4322492583888 |  erot = 14.1050236216679 | epot = -75.4707098828583 | etot = -49.9334370028015
71000  ekin = 11.8344774050144 |  erot = 13.8051158639603 | epot = -75.5730302711275 | etot = -49.9334370021529
72000  ekin = 12.1694138303341 |  erot = 13.4802146493531 | epot = -75.5830654819228 | etot = -49.9334370022356
73000  ekin = 12.4176450109615 |  erot = 13.1540122377618 | epot = -75.5050942510562 | etot = -49.9334370023328
74000  ekin = 12.5615004066025 |  erot = 12.844248053038 | epot = -75.3391854623092 | etot = -49.9334370026687
75000  ekin = 12.5860719279485 |  erot = 12.5626890441996 | epot = -75.0821979751944 | etot = -49.9334370030463
76000  ekin = 12.4812201739639 |  erot = 12.3157495780693 | epot = -74.7304067552152 | etot = -49.933437003182
77000  ekin = 12.2439814422807 |  erot = 12.1061362624702 | epot = -74.2835547075503 | etot = -49.9334370027995
78000  ekin = 11.8805929734489 |  erot = 11.9347890944435 | epot = -73.7488190696168 | etot = -49.9334370017243
79000  ekin = 11.407513143564 |  erot = 11.8023493789743 | epot = -73.1432995224891 | etot = -49.9334369999508
80000  ekin = 10.8509854812392 |  erot = 11.7096658028891 | epot = -72.4940882817776 | etot = -49.9334369976493
81000  ekin = 10.2450327503611 |  erot = 11.6573342346762 | epot = -71.8358039801528 | etot = -49.9334369951155
82000  ekin = 9.62812700027476 |  erot = 11.6446829926405 | epot = -71.2062469856182 | etot = -49.933436992703
83000  ekin = 9.03903873930662 |  erot = 11.6687532921685 | epot = -70.6412290222223 | etot = -49.9334369907472
84000  ekin = 8.51249186343724 |  erot = 11.7236867864198 | epot = -70.1696156393611 | etot = -49.9334369895041
85000  ekin = 8.07528521987734 |  erot = 11.8007513441408 | epot = -69.8094735531451 | etot = -49.933436989127
86000  ekin = 7.74350481028741 |  erot = 11.888905733036 | epot = -69.5658475329518 | etot = -49.9334369896284
87000  ekin = 7.52120913163795 |  erot = 11.9758324996818 | epot = -69.4304786226217 | etot = -49.9334369913019
88000  ekin = 7.39850764773337 |  erot = 12.0479648689118 | epot = -69.3799095098051 | etot = -49.93343699316
89000  ekin = 7.35699193773618 |  erot = 12.0941781544058 | epot = -69.3846070872457 | etot = -49.9334369951037
90000  ekin = 7.37367999758399 |  erot = 12.1080231759532 | epot = -69.4151401703038 | etot = -49.9334369967666
91000  ekin = 7.42410695857772 |  erot = 12.0887796846358 | epot = -69.4463236410925 | etot = -49.9334369978791
92000  ekin = 7.48574151827147 |  erot = 12.042064982234 | epot = -69.4612434988297 | etot = -49.9334369983243
93000  ekin = 7.5403711898821 |  erot = 11.9791807163969 | epot = -69.4529889044436 | etot = -49.9334369981646
94000  ekin = 7.57533062469026 |  erot = 11.9152823419623 | epot = -69.4240499641669 | etot = -49.9334369975144
95000  ekin = 7.58377941253783 |  erot = 11.8670735491572 | epot = -69.3842899582943 | etot = -49.9334369965993
96000  ekin = 7.56434675210399 |  erot = 11.8500107777802 | epot = -69.3477945255051 | etot = -49.9334369956209
97000  ekin = 7.52038731169875 |  erot = 11.8759317072189 | epot = -69.3297560136748 | etot = -49.9334369947572
98000  ekin = 7.45894830728074 |  erot = 11.9513447834672 | epot = -69.3437300849006 | etot = -49.9334369941527
99000  ekin = 7.3894451101094 |  erot = 12.0764734057244 | epot = -69.3993555097599 | etot = -49.9334369939261
100000  ekin = 7.32205635827605 |  erot = 12.2450152227774 | epot = -69.5005085752216 | etot = -49.9334369941681
101000  ekin = 7.26597138620094 |  erot = 12.4445407770089 | epot = -69.6439491581323 | etot = -49.9334369949225
102000  ekin = 7.22778180819636 |  erot = 12.6574945089323 | epot = -69.8187133132872 | etot = -49.9334369961585
103000  ekin = 7.21040494123207 |  erot = 12.8628067179971 | epot = -70.0066486569777 | etot = -49.9334369977485
104000  ekin = 7.21287832486989 |  erot = 13.0381084092498 | epot = -70.1844237335803 | etot = -49.9334369994605
105000  ekin = 7.23115719659566 |  erot = 13.1624311874587 | epot = -70.3270253850435 | etot = -49.9334370009891
106000  ekin = 7.25975107867426 |  erot = 13.2191029175833 | epot = -70.4122909982755 | etot = -49.9334370020179
107000  ekin = 7.29377758656529 |  erot = 13.1984000366873 | epot = -70.4256146255374 | etot = -49.9334370022848
108000  ekin = 7.33090314151437 |  erot = 13.0994774135712 | epot = -70.3638175567295 | etot = -49.933437001644
109000  ekin = 7.37271454696904 |  erot = 12.9312031783767 | epot = -70.2373547254362 | etot = -49.9334370000905
110000  ekin = 7.42526209058348 |  erot = 12.7117380447812 | epot = -70.0704371331194 | etot = -49.9334369977548
111000  ekin = 7.49872514941575 |  erot = 12.4669230054386 | epot = -69.8990851497371 | etot = -49.9334369948828
112000  ekin = 7.60628796279973 |  erot = 12.2276899311231 | epot = -69.7674148857286 | etot = -49.9334369918058
113000  ekin = 7.76235901185271 |  erot = 12.0267610902749 | epot = -69.7225570910432 | etot = -49.9334369889156
114000  ekin = 7.98027485026653 |  erot = 11.8949023522835 | epot = -69.8086141891872 | etot = -49.9334369866372
115000  ekin = 8.27045851930279 |  erot = 11.8569578160189 | epot = -70.0608533199909 | etot = -49.9334369846692
116000  ekin = 8.64333470390531 |  erot = 11.927372525046 | epot = -70.5041442140703 | etot = -49.933436985119
117000  ekin = 9.09183845377715 |  erot = 12.108244816281 | epot = -71.1335202571184 | etot = -49.9334369870603
118000  ekin = 9.59711279490118 |  erot = 12.3880852370698 | epot = -71.9186350224121 | etot = -49.9334369904412
119000  ekin = 10.1316662415165 |  erot = 12.7420777955395 | epot = -72.8071810320392 | etot = -49.9334369949833
120000  ekin = 10.6612602592498 |  erot = 13.1344486371313 | epot = -73.7291458965887 | etot = -49.9334370002077
121000  ekin = 11.1480057224142 |  erot = 13.5226300221742 | epot = -74.6040727500911 | etot = -49.9334370055027
122000  ekin = 11.5541779480657 |  erot = 13.8626563199417 | epot = -75.3502712782362 | etot = -49.9334370102287
123000  ekin = 11.8461299089274 |  erot = 14.1149357811302 | epot = -75.8945027038779 | etot = -49.9334370138204
124000  ekin = 11.9977139994366 |  erot = 14.2494171746183 | epot = -76.1805681899317 | etot = -49.9334370158768
125000  ekin = 11.9927642881939 |  erot = 14.2492577099009 | epot = -76.175459014312 | etot = -49.9334370162172
126000  ekin = 11.8263836634494 |  erot = 14.1123955938888 | epot = -75.8722162722326 | etot = -49.9334370148943
127000  ekin = 11.5049845403692 |  erot = 13.8508742683788 | epot = -75.2892958209089 | etot = -49.9334370121609
128000  ekin = 11.0452237618988 |  erot = 13.48823800404 | epot = -74.4668987743424 | etot = -49.9334370084036
129000  ekin = 10.4721243932075 |  erot = 13.0556836611653 | epot = -73.4612450584324 | etot = -49.9334370040595
130000  ekin = 9.81675568764214 |  erot = 12.5878092612813 | epot = -72.3380019484647 | etot = -49.9334369995413
131000  ekin = 9.11382601710269 |  erot = 12.1187210112526 | epot = -71.165984023543 | etot = -49.9334369951877
132000  ekin = 8.3994419110073 |  erot = 11.6790046180508 | epot = -70.011883520305 | etot = -49.9334369912469
133000  ekin = 7.70914257803186 |  erot = 11.2937451501986 | epot = -68.936324716116 | etot = -49.9334369878856
134000  ekin = 7.0759988527824 |  erot = 10.9811951880483 | epot = -67.9906310260634 | etot = -49.9334369852327
135000  ekin = 6.52777388754256 |  erot = 10.75096079726 | epot = -67.2121716681418 | etot = -49.9334369833392
136000  ekin = 6.08771006340461 |  erot = 10.6081410500038 | epot = -66.6292880956376 | etot = -49.9334369822292
137000  ekin = 5.77298785581476 |  erot = 10.552372604197 | epot = -66.2587974419407 | etot = -49.9334369819289
138000  ekin = 5.59354954718462 |  erot = 10.5779497433281 | epot = -66.1049362729332 | etot = -49.9334369824205
139000  ekin = 5.55166881072913 |  erot = 10.6745917743557 | epot = -66.1596975687036 | etot = -49.9334369836187
140000  ekin = 5.64223691297485 |  erot = 10.8284932797371 | epot = -66.4041671780735 | etot = -49.9334369853615
141000  ekin = 5.85383891387405 |  erot = 11.0237191850704 | epot = -66.8109950863643 | etot = -49.9334369874198
142000  ekin = 6.17049552359047 |  erot = 11.2439004345778 | epot = -67.3478329477023 | etot = -49.9334369895341
143000  ekin = 6.57375238284704 |  erot = 11.4740276162674 | epot = -67.9812169905818 | etot = -49.9334369914673
144000  ekin = 7.04468895168924 |  erot = 11.701994075136 | epot = -68.680120019886 | etot = -49.9334369930608
145000  ekin = 7.56544773358585 |  erot = 11.9199568354569 | epot = -69.4188415632307 | etot = -49.9334369941879
146000  ekin = 8.1200495304631 |  erot = 12.1239691631675 | epot = -70.1774556887215 | etot = -49.933436995091
147000  ekin = 8.69445128023778 |  erot = 12.3121155932595 | epot = -70.9400038693255 | etot = -49.9334369958282
148000  ekin = 9.27603993874859 |  erot = 12.4837480427639 | epot = -71.6932249780922 | etot = -49.9334369965798
149000  ekin = 9.85285670508252 |  erot = 12.6377352950257 | epot = -72.4240289976087 | etot = -49.9334369975005
150000  ekin = 10.4128357127046 |  erot = 12.7710161831569 | epot = -73.1172888945392 | etot = -49.9334369986777
151000  ekin = 10.9432663251774 |  erot = 12.8778265161479 | epot = -73.7545298414573 | etot = -49.933437000132
152000  ekin = 11.4305853782861 |  erot = 12.9496878240708 | epot = -74.3137102041522 | etot = -49.9334370017953
153000  ekin = 11.8605190183234 |  erot = 12.9761831588472 | epot = -74.7701391807206 | etot = -49.9334370035501
154000  ekin = 12.2185434955891 |  erot = 12.9462452354484 | epot = -75.0982257362823 | etot = -49.9334370052448
155000  ekin = 12.4906128205059 |  erot = 12.8496668717377 | epot = -75.2737166989594 | etot = -49.9334370067158
156000  ekin = 12.6641064725816 |  erot = 12.6785919431794 | epot = -75.2761354235628 | etot = -49.9334370078019
157000  ekin = 12.7289594615905 |  erot = 12.4288160114449 | epot = -75.0912124813834 | etot = -49.933437008348
158000  ekin = 12.6789226204095 |  erot = 12.1008375004914 | epot = -74.7131971291116 | etot = -49.9334370082108
159000  ekin = 12.5128394530715 |  erot = 11.7006734245223 | epot = -74.1469498848661 | etot = -49.9334370072723
160000  ekin = 12.2357211071562 |  erot = 11.2404384839248 | epot = -73.4095965965446 | etot = -49.9334370054637
161000  ekin = 11.8593038686461 |  erot = 10.7386616356059 | epot = -72.5314025070534 | etot = -49.9334370028014
162000  ekin = 11.4017680282997 |  erot = 10.2201339236183 | epot = -71.5553389513339 | etot = -49.9334369994158
163000  ekin = 10.8864473298725 |  erot = 9.71510625265767 | epot = -70.5349905780806 | etot = -49.9334369955505
164000  ekin = 10.339639107013 |  erot = 9.25770793160017 | epot = -69.5307840301537 | etot = -49.9334369915405
165000  ekin = 9.78791680577074 |  erot = 8.8835941059149 | epot = -68.60494789944 | etot = -49.9334369877544
166000  ekin = 9.25550622083803 |  erot = 8.62702487817795 | epot = -67.8159680835519 | etot = -49.9334369845359
167000  ekin = 8.76224456450922 |  erot = 8.51776140061236 | epot = -67.2134429472672 | etot = -49.9334369821456
168000  ekin = 8.32243639262824 |  erot = 8.57826893241441 | epot = -66.8341423057718 | etot = -49.9334369807292
169000  ekin = 7.94465566391787 |  erot = 8.82168625048319 | epot = -66.6997788947134 | etot = -49.9334369803124
170000  ekin = 7.63232945982425 |  erot = 9.25084013989436 | epot = -66.8166065805367 | etot = -49.9334369808181
171000  ekin = 7.38529238380702 |  erot = 9.85836147101373 | epot = -67.1770908361287 | etot = -49.9334369813079
172000  ekin = 7.20610015415374 |  erot = 10.627083624393 | epot = -67.766620762232 | etot = -49.9334369836853
173000  ekin = 7.08749525316584 |  erot = 11.5302525574929 | epot = -68.5511847971414 | etot = -49.9334369864827
174000  ekin = 7.01847526595513 |  erot = 12.5352232664751 | epot = -69.4871355219803 | etot = -49.93343698955
175000  ekin = 6.9877080022007 |  erot = 13.6056336792489 | epot = -70.526778674216 | etot = -49.9334369927664
176000  ekin = 6.98383597858348 |  erot = 14.7031290903658 | epot = -71.6204020649724 | etot = -49.9334369960231
177000  ekin = 6.99559888535589 |  erot = 15.7890361276343 | epot = -72.7180720121957 | etot = -49.9334369992054
178000  ekin = 7.01192097921241 |  erot = 16.8261106927661 | epot = -73.7714686741545 | etot = -49.933437002176
179000  ekin = 7.02209184959173 |  erot = 17.7804349003769 | epot = -74.7359637547449 | etot = -49.9334370047763
180000  ekin = 7.01611155414299 |  erot = 18.6234022668396 | epot = -75.572950827824 | etot = -49.9334370068414
181000  ekin = 6.98519719010984 |  erot = 19.333556749081 | epot = -76.2521909474248 | etot = -49.9334370082339
182000  ekin = 6.92238544527395 |  erot = 19.8970971418282 | epot = -76.7529195977555 | etot = -49.9334370106533
183000  ekin = 6.8222759254291 |  erot = 20.2982684170427 | epot = -77.0539813535497 | etot = -49.9334370110779
184000  ekin = 6.68055376617427 |  erot = 20.5336568135041 | epot = -77.1476475904154 | etot = -49.9334370107371
185000  ekin = 6.49623294826009 |  erot = 20.6104471437531 | epot = -77.0401171017118 | etot = -49.9334370096986
186000  ekin = 6.27250921536155 |  erot = 20.5422446873304 | epot = -76.7481909107548 | etot = -49.9334370080628
187000  ekin = 6.01720154751464 |  erot = 20.3471328407271 | epot = -76.2977713941871 | etot = -49.9334370059454
188000  ekin = 5.74286684715253 |  erot = 20.0458090594969 | epot = -75.7221129101206 | etot = -49.9334370034712
189000  ekin = 5.46641873149874 |  erot = 19.6593652976558 | epot = -75.0592210301649 | etot = -49.9334370010103
190000  ekin = 5.20811212014894 |  erot = 19.2080076862205 | epot = -74.3495568046836 | etot = -49.9334369983141
191000  ekin = 4.98983337888069 |  erot = 18.7117448291952 | epot = -73.6350152038308 | etot = -49.9334369957549
192000  ekin = 4.83291851070295 |  erot = 18.1889644778813 | epot = -72.9553199820979 | etot = -49.9334369935137
193000  ekin = 4.75584764391605 |  erot = 17.6560155879572 | epot = -72.3453002236067 | etot = -49.9334369917334
194000  ekin = 4.77223428975476 |  erot = 17.1270435377863 | epot = -71.8327148180403 | etot = -49.9334369904993
195000  ekin = 4.88948018807988 |  erot = 16.6140592370741 | epot = -71.4369764149749 | etot = -49.933436989821
196000  ekin = 5.10830059790741 |  erot = 16.127174742192 | epot = -71.1689123297485 | etot = -49.9334369896491
197000  ekin = 5.42311350132857 |  erot = 15.6748848012688 | epot = -71.0314352924944 | etot = -49.933436989897
198000  ekin = 5.823101864179 |  erot = 15.264261134288 | epot = -71.0207999889323 | etot = -49.9334369904653
199000  ekin = 6.29365371082596 |  erot = 14.9009682646058 | epot = -71.1280589666963 | etot = -49.9334369912645
200000  ekin = 6.81787606879633 |  erot = 14.5890840258131 | epot = -71.3403970868379 | etot = -49.9334369922284
201000  ekin = 7.37794822150507 |  erot = 14.330785798856 | epot = -71.6421710136752 | etot = -49.9334369933141
202000  ekin = 7.95618720633075 |  erot = 14.1260142258945 | epot = -72.0156384267148 | etot = -49.9334369944895
203000  ekin = 8.53580140319485 |  erot = 13.9722340620995 | epot = -72.4414724610252 | etot = -49.9334369957309
204000  ekin = 9.10137690711189 |  erot = 13.8643800543707 | epot = -72.8991939584906 | etot = -49.9334369970081
205000  ekin = 9.63916729956463 |  erot = 13.7950217250094 | epot = -73.3676260228628 | etot = -49.9334369982888
206000  ekin = 10.1372494437201 |  erot = 13.7547335571646 | epot = -73.8254200004191 | etot = -49.9334369995343
207000  ekin = 10.5855843060113 |  erot = 13.7326036344487 | epot = -74.2516249411772 | etot = -49.9334370007172
208000  ekin = 10.9759973534346 |  erot = 13.7167490933405 | epot = -74.6261834485714 | etot = -49.9334370017963
209000  ekin = 11.3020857284075 |  erot = 13.695034284837 | epot = -74.9305570159883 | etot = -49.9334370027438
210000  ekin = 11.5590623102062 |  erot = 13.6557304747736 | epot = -75.1482297885136 | etot = -49.9334370035338
211000  ekin = 11.7435554570199 |  erot = 13.5881804316498 | epot = -75.265172892812 | etot = -49.9334370041423
212000  ekin = 11.8533937432468 |  erot = 13.4834670393969 | epot = -75.2702977872005 | etot = -49.9334370045568
213000  ekin = 11.887405437966 |  erot = 13.3351971168151 | epot = -75.1560395594847 | etot = -49.9334370047037
214000  ekin = 11.8452570406668 |  erot = 13.1395898321962 | epot = -74.918283877557 | etot = -49.9334370046941
215000  ekin = 11.7273549851562 |  erot = 12.8956103790907 | epot = -74.5564023687286 | etot = -49.9334370044816
216000  ekin = 11.5348514637304 |  erot = 12.6051585142611 | epot = -74.073446982084 | etot = -49.9334370040925
217000  ekin = 11.2698546386903 |  erot = 12.2726360414478 | epot = -73.4759276836659 | etot = -49.9334370035278
218000  ekin = 10.9360036470647 |  erot = 11.9044881932643 | epot = -72.773928843055 | etot = -49.933437002726
219000  ekin = 10.5395729894744 |  erot = 11.509107893732 | epot = -71.9821178847383 | etot = -49.9334370015319
220000  ekin = 10.0911390958416 |  erot = 11.0974113407827 | epot = -71.12198743634 | etot = -49.9334369997158
221000  ekin = 9.60752759203925 |  erot = 10.6840231535665 | epot = -70.2249877426727 | etot = -49.9334369970669
222000  ekin = 9.11332798616989 |  erot = 10.2884385364029 | epot = -69.3352035161138 | etot = -49.933436993541
223000  ekin = 8.64094443085901 |  erot = 9.93507521512023 | epot = -68.5094566353819 | etot = -49.9334369894026
224000  ekin = 8.22827965338114 |  erot = 9.65121040808671 | epot = -67.8129270467276 | etot = -49.9334369852597
225000  ekin = 7.91390905933865 |  erot = 9.4625831391754 | epot = -67.3099291804781 | etot = -49.933436981964
226000  ekin = 7.73074804872823 |  erot = 9.38753011757196 | epot = -67.0517151464721 | etot = -49.9334369801719
227000  ekin = 7.70009206552193 |  erot = 9.43243479453588 | epot = -67.0659638403967 | etot = -49.9334369803389
228000  ekin = 7.82788964264707 |  erot = 9.58936456546829 | epot = -67.3506911902218 | etot = -49.9334369821065
229000  ekin = 8.10285729533807 |  erot = 9.8405603901581 | epot = -67.8768546713476 | etot = -49.9334369858514
230000  ekin = 8.50059317628578 |  erot = 10.1544474914862 | epot = -68.5884776580864 | etot = -49.9334369903144
231000  ekin = 8.98918217097307 |  erot = 10.493400619592 | epot = -69.4160197853243 | etot = -49.9334369947592
232000  ekin = 9.53377851904017 |  erot = 10.8217737549011 | epot = -70.2889892725772 | etot = -49.9334369986359
233000  ekin = 10.1004633099863 |  erot = 11.1105033366914 | epot = -71.1444036483326 | etot = -49.9334370016548
234000  ekin = 10.658612255984 |  erot = 11.3394799942009 | epot = -71.9315292539596 | etot = -49.9334370037748
235000  ekin = 11.1819014328097 |  erot = 11.497727774584 | epot = -72.6130662125069 | etot = -49.9334370051133
236000  ekin = 11.6484473656525 |  erot = 11.5820119850608 | epot = -73.1638963565643 | etot = -49.9334370058509
237000  ekin = 12.0359802131749 |  erot = 11.5953554338433 | epot = -73.5647726545056 | etot = -49.9334370074873
238000  ekin = 12.321983609933 |  erot = 11.5429422765501 | epot = -73.7983628944192 | etot = -49.9334370079361
239000  ekin = 12.4929747866312 |  erot = 11.4297860561661 | epot = -73.8561978508111 | etot = -49.9334370080138
240000  ekin = 12.5412393847429 |  erot = 11.2618516717113 | epot = -73.7365280640656 | etot = -49.9334370076113
241000  ekin = 12.4660778052252 |  erot = 11.0462123362422 | epot = -73.4457271480737 | etot = -49.9334370066063
242000  ekin = 12.2750005609617 |  erot = 10.7914527512415 | epot = -72.9998903170961 | etot = -49.9334370048929
243000  ekin = 11.9845096947868 |  erot = 10.5081603107686 | epot = -72.4261070080167 | etot = -49.9334370024614
244000  ekin = 11.619935904703 |  erot = 10.2090471828747 | epot = -71.7624200869649 | etot = -49.9334369993872
245000  ekin = 11.2141782120078 |  erot = 9.90860612972147 | epot = -71.0562213376396 | etot = -49.9334369959104
246000  ekin = 10.804980066499 |  erot = 9.62226262065129 | epot = -70.3606796795521 | etot = -49.9334369924019
247000  ekin = 10.4306724668814 |  erot = 9.36498469828495 | epot = -69.7290941544644 | etot = -49.9334369892981
248000  ekin = 10.125200565836 |  erot = 9.14967551152589 | epot = -69.2083130643903 | etot = -49.9334369870284
249000  ekin = 9.91424863501087 |  erot = 8.98570765839854 | epot = -68.8333932790368 | etot = -49.9334369856274
250000  ekin = 9.81343088344703 |  erot = 8.87752109616444 | epot = -68.6243889655634 | etot = -49.933436985952
251000  ekin = 9.81990124694966 |  erot = 8.82321712561382 | epot = -68.5765553598857 | etot = -49.9334369873223
252000  ekin = 9.91845576760695 |  erot = 8.81663197784401 | epot = -68.6685247348515 | etot = -49.9334369894006
253000  ekin = 10.0857195322844 |  erot = 8.84890482127693 | epot = -68.868061345352 | etot = -49.9334369917907
254000  ekin = 10.2944154464787 |  erot = 8.9101104579529 | epot = -69.1379628985692 | etot = -49.9334369941377
255000  ekin = 10.5172797771479 |  erot = 8.99090198885701 | epot = -69.4416187622177 | etot = -49.9334369962128
256000  ekin = 10.7298060333095 |  erot = 9.08318965779443 | epot = -69.7464326890098 | etot = -49.9334369979058
257000  ekin = 10.9117548400263 |  erot = 9.1804779576833 | epot = -70.025669796896 | etot = -49.9334369991865
258000  ekin = 11.0477221380872 |  erot = 9.27819694071016 | epot = -70.2593560788573 | etot = -49.93343700006
259000  ekin = 11.1271588600366 |  erot = 9.3738110386782 | epot = -70.4344068992479 | etot = -49.9334370005331
260000  ekin = 11.1442779893458 |  erot = 9.4669885218801 | epot = -70.5447035117415 | etot = -49.9334370005156
261000  ekin = 11.0980856586657 |  erot = 9.56016701500807 | epot = -70.5916896739926 | etot = -49.9334370003188
262000  ekin = 10.9907927218987 |  erot = 9.6547424746047 | epot = -70.5789721960225 | etot = -49.9334369995191
263000  ekin = 10.829537817859 |  erot = 9.75638049585076 | epot = -70.5193553118446 | etot = -49.9334369981348
264000  ekin = 10.6274954670403 |  erot = 9.87566396380612 | epot = -70.4365964270687 | etot = -49.9334369962223
265000  ekin = 10.4029385010147 |  erot = 10.0259787584343 | epot = -70.3623542534473 | etot = -49.9334369939982
266000  ekin = 10.177674265685 |  erot = 10.2209385120995 | epot = -70.332049769659 | etot = -49.9334369918746
267000  ekin = 9.97447897986438 |  erot = 10.4715477508096 | epot = -70.3794637208708 | etot = -49.9334369901968
268000  ekin = 9.81397218089898 |  erot = 10.783566213847 | epot = -70.5309753841286 | etot = -49.9334369893826
269000  ekin = 9.71175762398395 |  erot = 11.1545990385867 | epot = -70.7997936521916 | etot = -49.9334369896209
270000  ekin = 9.67524675614636 |  erot = 11.5728282294546 | epot = -71.1815119767635 | etot = -49.9334369911626
271000  ekin = 9.70205034561283 |  erot = 12.0171639615848 | epot = -71.6526513009489 | etot = -49.9334369937513
272000  ekin = 9.78119590231133 |  erot = 12.4591961343094 | epot = -72.1738290335957 | etot = -49.9334369969749
273000  ekin = 9.89551530292975 |  erot = 12.8671360105974 | epot = -72.6960883138096 | etot = -49.9334370002824
274000  ekin = 10.0251036095154 |  erot = 13.2107359457393 | epot = -73.1692765583682 | etot = -49.9334370031136
275000  ekin = 10.1509497125671 |  erot = 13.4661171078288 | epot = -73.5505038254265 | etot = -49.9334370050306
276000  ekin = 10.2579077802687 |  erot = 13.6195042883016 | epot = -73.8108490743552 | etot = -49.9334370057849
277000  ekin = 10.3365003461945 |  erot = 13.6692293787605 | epot = -73.9391667302955 | etot = -49.9334370053404
278000  ekin = 10.3834483774443 |  erot = 13.6258475790822 | epot = -73.9427329603463 | etot = -49.9334370038198
279000  ekin = 10.4011507785854 |  erot = 13.5106897711507 | epot = -73.8452775512667 | etot = -49.9334370015306
280000  ekin = 10.3964398124889 |  erot = 13.3527125117199 | epot = -73.6825893230131 | etot = -49.9334369988043
281000  ekin = 10.3779527890289 |  erot = 13.1828376404639 | epot = -73.4942274264354 | etot = -49.9334369969425
282000  ekin = 10.353053740349 |  erot = 13.0291459793179 | epot = -73.3156367147798 | etot = -49.933436995113
283000  ekin = 10.3270589211616 |  erot = 12.9150697625823 | epot = -73.1755656779524 | etot = -49.9334369942086
284000  ekin = 10.3012154521609 |  erot = 12.8544062464692 | epot = -73.0890586931095 | etot = -49.9334369944795
285000  ekin = 10.2715544103098 |  erot = 12.8490241982299 | epot = -73.0540156044443 | etot = -49.9334369959046
286000  ekin = 10.2290782152144 |  erot = 12.8892797632598 | epot = -73.0517949765399 | etot = -49.9334369980656
287000  ekin = 10.1619978630747 |  erot = 12.9580079590597 | epot = -73.0534428222849 | etot = -49.9334370001504
288000  ekin = 10.0601300944718 |  erot = 13.0376429488846 | epot = -73.0312100445667 | etot = -49.9334370012103
289000  ekin = 9.9202215965333 |  erot = 13.1179600214046 | epot = -72.9716186185634 | etot = -49.9334370006255
290000  ekin = 9.74965131749658 |  erot = 13.2006151946271 | epot = -72.88370351062 | etot = -49.9334369984963
291000  ekin = 9.56608911179359 |  erot = 13.2978259857956 | epot = -72.7973520932151 | etot = -49.9334369956259
292000  ekin = 9.39289303103483 |  erot = 13.4260428295556 | epot = -72.7523728535721 | etot = -49.9334369929817
293000  ekin = 9.25289876825675 |  erot = 13.5983001411125 | epot = -72.7846359009115 | etot = -49.9334369915422
294000  ekin = 9.16176985520236 |  erot = 13.8176522641868 | epot = -72.9128591109228 | etot = -49.9334369915336
295000  ekin = 9.12570783653474 |  erot = 14.0757418165381 | epot = -73.1348866458706 | etot = -49.9334369927977
296000  ekin = 9.14197328684946 |  erot = 14.3545965147092 | epot = -73.4300067964787 | etot = -49.93343699492
297000  ekin = 9.20093046429169 |  erot = 14.6305016956108 | epot = -73.7648691574402 | etot = -49.9334369975377
298000  ekin = 9.28824464342762 |  erot = 14.876884200274 | epot = -74.0985658445748 | etot = -49.9334370008732
299000  ekin = 9.38785334981351 |  erot = 15.06438864853 | epot = -74.3856790018754 | etot = -49.9334370035319
300000  ekin = 9.48165911896817 |  erot = 15.1708080545938 | epot = -74.5859041795344 | etot = -49.9334370059724
301000  ekin = 9.55009456870998 |  erot = 15.1800632839154 | epot = -74.6635948608319 | etot = -49.9334370082066
302000  ekin = 9.57201526805398 |  erot = 15.0823927221944 | epot = -74.5878450007561 | etot = -49.9334370105077
303000  ekin = 9.52471361885221 |  erot = 14.8708920500091 | epot = -74.3290426817247 | etot = -49.9334370128634
304000  ekin = 9.3848129445937 |  erot = 14.5406211738014 | epot = -73.8588711334674 | etot = -49.9334370150724
305000  ekin = 9.13228587662142 |  erot = 14.0911381302414 | epot = -73.1568610219493 | etot = -49.9334370150865
306000  ekin = 8.75533716881437 |  erot = 13.5286285172573 | epot = -72.2174027016023 | etot = -49.9334370155306
307000  ekin = 8.24994820430533 |  erot = 12.8613386577027 | epot = -71.0447238754311 | etot = -49.933437013423
308000  ekin = 7.64566207604119 |  erot = 12.1187367066719 | epot = -69.6978357833361 | etot = -49.9334370006229
309000  ekin = 6.2156324931436 |  erot = 10.8308134934805 | epot = -66.9798826118175 | etot = -49.9334366251935
310000  ekin = 6.98208788798062 |  erot = 9.38517955465197 | epot = -66.3007041395672 | etot = -49.9334366969346
311000  ekin = 8.46519197710877 |  erot = 8.64607863222307 | epot = -67.0447073767795 | etot = -49.9334367674477
312000  ekin = 8.66431616582106 |  erot = 8.18423138032177 | epot = -66.7819843262754 | etot = -49.9334367801326
313000  ekin = 8.81657453316169 |  erot = 7.84806509572883 | epot = -66.5980764070179 | etot = -49.9334367781274
314000  ekin = 8.92571410839843 |  erot = 7.64505956838057 | epot = -66.5042104526831 | etot = -49.9334367759041
315000  ekin = 9.01908200767406 |  erot = 7.5768080611827 | epot = -66.5293268431115 | etot = -49.9334367742548
316000  ekin = 9.12426361176407 |  erot = 7.636994446041 | epot = -66.6946948314336 | etot = -49.9334367736285
317000  ekin = 9.26338621518957 |  erot = 7.81017000722538 | epot = -67.0069929987641 | etot = -49.9334367763492
318000  ekin = 9.44365313231158 |  erot = 8.06449733144152 | epot = -67.4415872427621 | etot = -49.933436779009
319000  ekin = 9.65799853893101 |  erot = 8.35781040128967 | epot = -67.9492457228302 | etot = -49.9334367826095
320000  ekin = 9.89196359099104 |  erot = 8.64893573871685 | epot = -68.4743361164125 | etot = -49.9334367867046
321000  ekin = 10.1233187755671 |  erot = 8.89745069024987 | epot = -68.9542062564504 | etot = -49.9334367906335
322000  ekin = 10.3265544624694 |  erot = 9.06891954454781 | epot = -69.3289108006577 | etot = -49.9334367936406
323000  ekin = 10.4783638188737 |  erot = 9.14041960358909 | epot = -69.5522202175213 | etot = -49.9334367950585
324000  ekin = 10.5626654861856 |  erot = 9.10522153543596 | epot = -69.601323816133 | etot = -49.9334367945114
325000  ekin = 10.5736671949011 |  erot = 8.97511339417776 | epot = -69.4822173812585 | etot = -49.9334367921796
326000  ekin = 10.5161587200511 |  erot = 8.77895419858394 | epot = -69.2285497068497 | etot = -49.9334367882147
327000  ekin = 10.4032259690655 |  erot = 8.56034165158809 | epot = -68.8970044041409 | etot = -49.9334367834874
328000  ekin = 10.2524292214703 |  erot = 8.37036212265312 | epot = -68.5562281228988 | etot = -49.9334367787753
329000  ekin = 10.0824546438466 |  erot = 8.25940958185304 | epot = -68.2753010004092 | etot = -49.9334367747096
330000  ekin = 9.90858228192529 |  erot = 8.27090994172877 | epot = -68.1129289954878 | etot = -49.9334367718337
331000  ekin = 9.74053523959285 |  erot = 8.43704440644498 | epot = -68.111016416305 | etot = -49.9334367702672
332000  ekin = 9.5832675956993 |  erot = 8.77502618163514 | epot = -68.2917305473884 | etot = -49.933436770054
333000  ekin = 9.43734454313999 |  erot = 9.28570909296637 | epot = -68.6564904072819 | etot = -49.9334367711755
334000  ekin = 9.30005714166466 |  erot = 9.95274790624692 | epot = -69.1862418212745 | etot = -49.9334367733629
335000  ekin = 9.16539195140551 |  erot = 10.7463546200975 | epot = -69.8451833478333 | etot = -49.9334367763303
336000  ekin = 9.02588570624398 |  erot = 11.6261652905678 | epot = -70.5854877765507 | etot = -49.9334367797389
337000  ekin = 8.87412067608633 |  erot = 12.5449700956801 | epot = -71.352527555002 | etot = -49.9334367832356
338000  ekin = 8.70391892935481 |  erot = 13.4530941766686 | epot = -72.0904498925114 | etot = -49.933436786488
339000  ekin = 8.51126560344778 |  erot = 14.3027075314279 | epot = -72.7474099241017 | etot = -49.933436789226
340000  ekin = 8.29488691398144 |  erot = 15.0515581550066 | epot = -73.279881860252 | etot = -49.9334367912639
341000  ekin = 8.05646205380861 |  erot = 15.6657657386799 | epot = -73.6556645849945 | etot = -49.9334367925061
342000  ekin = 7.80050981598768 |  erot = 16.1215554932821 | epot = -73.8555021022001 | etot = -49.9334367929303
343000  ekin = 7.53404165582677 |  erot = 16.4060559812044 | epot = -73.8735344295911 | etot = -49.9334367925598
344000  ekin = 7.26609676908326 |  erot = 16.5174328472112 | epot = -73.716966407732 | etot = -49.9334367914375
345000  ekin = 7.00725922449378 |  erot = 16.4646262362322 | epot = -73.4053222503422 | etot = -49.9334367896163
346000  ekin = 6.76919816417592 |  erot = 16.2668142751609 | epot = -72.9694492265047 | etot = -49.9334367871679
347000  ekin = 6.56418602316429 |  erot = 15.9525180661041 | epot = -72.4501408734789 | etot = -49.9334367842106
348000  ekin = 6.40447863711508 |  erot = 15.5581119659908 | epot = -71.8960273840418 | etot = -49.9334367809359
349000  ekin = 6.30143449814258 |  erot = 15.1255022274318 | epot = -71.3603735031937 | etot = -49.9334367776193
350000  ekin = 6.26433457359998 |  erot = 14.6988992514292 | epot = -70.8966705996324 | etot = -49.9334367746033
351000  ekin = 6.29901365146538 |  erot = 14.3208623426265 | epot = -70.5533127663415 | etot = -49.9334367722497
352000  ekin = 6.40655985354301 |  erot = 14.0280287207505 | epot = -70.3680253451799 | etot = -49.9334367708864
353000  ekin = 6.58240652259401 |  erot = 13.8470668708989 | epot = -70.3629101642376 | etot = -49.9334367707447
354000  ekin = 6.81609810135423 |  erot = 13.7914168213438 | epot = -70.5409516946199 | etot = -49.9334367719218
355000  ekin = 7.09188628775341 |  erot = 13.8593469648778 | epot = -70.8846700269776 | etot = -49.9334367743463
356000  ekin = 7.39015539571547 |  erot = 14.033790526784 | epot = -71.3573827002662 | etot = -49.9334367777667
357000  ekin = 7.68951512332416 |  erot = 14.2842611187699 | epot = -71.9072130238669 | etot = -49.9334367817729
358000  ekin = 7.96924870687132 |  erot = 14.5707976474229 | epot = -72.4734831401511 | etot = -49.9334367858569
359000  ekin = 8.21171431832055 |  erot = 14.8493901180684 | epot = -72.9945412258931 | etot = -49.9334367895041
360000  ekin = 8.40434316521794 |  erot = 15.0779079482545 | epot = -73.4156879057477 | etot = -49.9334367922752
361000  ekin = 8.54093730786224 |  erot = 15.223459117279 | epot = -73.6978332181802 | etot = -49.9334367930389
362000  ekin = 8.62176162458319 |  erot = 15.2683190552292 | epot = -73.8235174732548 | etot = -49.9334367934425
363000  ekin = 8.65376226171469 |  erot = 15.2009231864222 | epot = -73.7881222408683 | etot = -49.9334367927313
364000  ekin = 8.65006194495836 |  erot = 15.0202219537552 | epot = -73.6037206897987 | etot = -49.9334367910852
365000  ekin = 8.62864344793139 |  erot = 14.7344841776847 | epot = -73.2965644144207 | etot = -49.9334367888046
366000  ekin = 8.6102681648128 |  erot = 14.358711776373 | epot = -72.9024167274443 | etot = -49.9334367862585
367000  ekin = 8.61582393192208 |  erot = 13.9116488824808 | epot = -72.4609095982182 | etot = -49.9334367838153
368000  ekin = 8.66349013751643 |  erot = 13.4130591643207 | epot = -72.0099860836059 | etot = -49.9334367817688
369000  ekin = 8.76619052284205 |  erot = 12.8818627722083 | epot = -71.5814900753351 | etot = -49.9334367802848
370000  ekin = 8.9297841248867 |  erot = 12.335453757501 | epot = -71.1986746617711 | etot = -49.9334367793833
371000  ekin = 9.15232413557797 |  erot = 11.7901096915281 | epot = -70.8758706060768 | etot = -49.9334367789707
372000  ekin = 9.42449522042301 |  erot = 11.2619930178438 | epot = -70.619925017159 | etot = -49.9334367788923
373000  ekin = 9.73107815945971 |  erot = 10.7680247395864 | epot = -70.4325396780453 | etot = -49.9334367789992
374000  ekin = 10.0531002399327 |  erot = 10.3260325847661 | epot = -70.31256960388 | etot = -49.9334367791812
375000  ekin = 10.3702930598053 |  erot = 9.95400537168857 | epot = -70.2577352108591 | etot = -49.9334367793653
376000  ekin = 10.6635382209248 |  erot = 9.66873204743242 | epot = -70.2657070478751 | etot = -49.9334367795179
377000  ekin = 10.9144304196578 |  erot = 9.48336618941097 | epot = -70.3312333902978 | etot = -49.933436781229
378000  ekin = 11.1033255489941 |  erot = 9.40465442429995 | epot = -70.4414167547152 | etot = -49.9334367814212
379000  ekin = 11.2228479612869 |  erot = 9.43497166219466 | epot = -70.5912564051334 | etot = -49.9334367816518
380000  ekin = 11.2715765588452 |  erot = 9.57046136396965 | epot = -70.775474704902 | etot = -49.9334367820871
381000  ekin = 11.2520704290781 |  erot = 9.80028776495387 | epot = -70.9857949768612 | etot = -49.9334367828293
382000  ekin = 11.1693057444479 |  erot = 10.1070539322048 | epot = -71.2097964605076 | etot = -49.9334367838549
383000  ekin = 11.0296540359228 |  erot = 10.4684110619645 | epot = -71.4315018829166 | etot = -49.9334367850292
384000  ekin = 10.8406006584011 |  erot = 10.8594456848222 | epot = -71.6334831293848 | etot = -49.9334367861616
385000  ekin = 10.6110745203043 |  erot = 11.2550567348661 | epot = -71.7995680421826 | etot = -49.9334367870122
386000  ekin = 10.3514833909804 |  erot = 11.6320380412179 | epot = -71.9169582201447 | etot = -49.9334367879464
387000  ekin = 10.0722200977276 |  erot = 11.9687897481463 | epot = -71.9744466347428 | etot = -49.933436788869
388000  ekin = 9.78227942381133 |  erot = 12.2453759804225 | epot = -71.961092194011 | etot = -49.9334367897772
389000  ekin = 9.48904126172454 |  erot = 12.4455699112058 | epot = -71.8680479631065 | etot = -49.9334367901762
390000  ekin = 9.1988011058867 |  erot = 12.5588554599197 | epot = -71.69109335618 | etot = -49.9334367903736
391000  ekin = 8.91824243206977 |  erot = 12.5805139316136 | epot = -71.4321931531813 | etot = -49.9334367894979
392000  ekin = 8.6575772689696 |  erot = 12.5171399947339 | epot = -71.1081540510193 | etot = -49.9334367873158
393000  ekin = 8.43231332351752 |  erot = 12.3882397426851 | epot = -70.7539898501723 | etot = -49.9334367839697
394000  ekin = 8.26247251141758 |  erot = 12.2242334615178 | epot = -70.4201427530229 | etot = -49.9334367800876
395000  ekin = 8.16904684405228 |  erot = 12.0605939409215 | epot = -70.1630775616218 | etot = -49.9334367766481
396000  ekin = 8.16818394388909 |  erot = 11.9294338996869 | epot = -70.031054618239 | etot = -49.933436774663
397000  ekin = 8.26509438251318 |  erot = 11.8511087055234 | epot = -70.0496398628365 | etot = -49.9334367747999
398000  ekin = 8.4501402415728 |  erot = 11.8286142934125 | epot = -70.2121913121361 | etot = -49.9334367771509
399000  ekin = 8.6987524085071 |  erot = 11.846535735853 | epot = -70.4787249255838 | etot = -49.9334367812237
400000  ekin = 8.97515584924223 |  erot = 11.8745399217494 | epot = -70.7831325571628 | etot = -49.9334367861712
401000  ekin = 9.23841273736301 |  erot = 11.8739232099274 | epot = -71.0457727383469 | etot = -49.9334367910566
402000  ekin = 9.44890872719654 |  erot = 11.8053354457279 | epot = -71.1876809679463 | etot = -49.9334367950219
403000  ekin = 9.57405438450813 |  erot = 11.6363946720643 | epot = -71.1438858539035 | etot = -49.9334367973311
404000  ekin = 9.59280070366271 |  erot = 11.348515161749 | epot = -70.8747526628665 | etot = -49.9334367974547
405000  ekin = 9.49859029588226 |  erot = 10.9420390046576 | epot = -70.3740660957269 | etot = -49.9334367951871
406000  ekin = 9.30027519156631 |  erot = 10.4381532175857 | epot = -69.6718651999802 | etot = -49.9334367908282
407000  ekin = 9.02027468745294 |  erot = 9.87620869145151 | epot = -68.829920164067 | etot = -49.9334367851625
408000  ekin = 8.69009310249533 |  erot = 9.30670442543022 | epot = -67.9302343071319 | etot = -49.9334367792063
409000  ekin = 8.34449651482889 |  erot = 8.78220945751285 | epot = -67.0601427462141 | etot = -49.9334367738723
410000  ekin = 8.01620286719442 |  erot = 8.34920326966272 | epot = -66.2988429065481 | etot = -49.9334367696909
411000  ekin = 7.53291151045996 |  erot = 8.08116831510292 | epot = -65.5475166514788 | etot = -49.9334368259159
412000  ekin = 6.47552839017785 |  erot = 8.45821289457424 | epot = -64.8671779820466 | etot = -49.9334366972945
413000  ekin = 6.24399442167419 |  erot = 8.99561848801201 | epot = -65.1730495934361 | etot = -49.9334366837499
414000  ekin = 6.18550934222112 |  erot = 9.11685651465889 | epot = -65.2358025415366 | etot = -49.9334366846566
415000  ekin = 6.1970619114856 |  erot = 9.37263397423855 | epot = -65.5031325721667 | etot = -49.9334366864426
416000  ekin = 6.27056156934871 |  erot = 9.74301767920604 | epot = -65.9470159374523 | etot = -49.9334366888976
417000  ekin = 6.39375612507792 |  erot = 10.2017877091225 | epot = -66.5289805260413 | etot = -49.9334366918408
418000  ekin = 6.55151386108778 |  erot = 10.718082412043 | epot = -67.2030329682449 | etot = -49.9334366951141
419000  ekin = 6.72687533385979 |  erot = 11.2579372105315 | epot = -67.918249242961 | etot = -49.9334366985696
420000  ekin = 6.90190857992248 |  erot = 11.7859069157866 | epot = -68.6212521977214 | etot = -49.9334367020123
421000  ekin = 7.05869608070453 |  erot = 12.2671743403912 | epot = -69.2593071262431 | etot = -49.9334367051474
422000  ekin = 7.18084994342412 |  erot = 12.6704427611134 | epot = -69.7847294121138 | etot = -49.9334367075762
423000  ekin = 7.25563872116252 |  erot = 12.9714590209572 | epot = -70.1605344510282 | etot = -49.9334367089085
424000  ekin = 7.27613764929304 |  erot = 13.1562785232249 | epot = -70.3658528814317 | etot = -49.9334367089138
425000  ekin = 7.24240438622737 |  erot = 13.2229033437658 | epot = -70.3987444377231 | etot = -49.93343670773
426000  ekin = 7.16102366031047 |  erot = 13.1802284318522 | epot = -70.274688797831 | etot = -49.9334367056683
427000  ekin = 7.04323569563786 |  erot = 13.0453653110875 | epot = -70.0220377098918 | etot = -49.9334367031664
428000  ekin = 6.90252931709374 |  erot = 12.8399447979979 | epot = -69.6759108156912 | etot = -49.9334367005996
429000  ekin = 6.75380655237967 |  erot = 12.5877583897435 | epot = -69.2750016367889 | etot = -49.9334366946657
430000  ekin = 6.63643931616211 |  erot = 12.3309009158442 | epot = -68.9007769264406 | etot = -49.9334366944343
431000  ekin = 6.56250777539762 |  erot = 12.0862249118176 | epot = -68.5821693817337 | etot = -49.9334366945185
432000  ekin = 6.5277574398518 |  erot = 11.8551418290415 | epot = -68.3163359638447 | etot = -49.9334366949515
433000  ekin = 6.52644586082078 |  erot = 11.6363446464993 | epot = -68.0962272029283 | etot = -49.9334366956083
434000  ekin = 6.54730069025438 |  erot = 11.4229959688113 | epot = -67.9037333576921 | etot = -49.9334366986264
435000  ekin = 6.57899083359961 |  erot = 11.2084874067099 | epot = -67.7209149390926 | etot = -49.9334366987831
436000  ekin = 6.61931202197556 |  erot = 10.9928671140558 | epot = -67.5456158350846 | etot = -49.9334366990532
437000  ekin = 6.66568526291941 |  erot = 10.775445555649 | epot = -67.3745675179758 | etot = -49.9334366994074
438000  ekin = 6.71519766409353 |  erot = 10.5550626355899 | epot = -67.2036969994775 | etot = -49.9334366997941
439000  ekin = 6.76486690072993 |  erot = 10.3306264414445 | epot = -67.0289300423136 | etot = -49.9334367001391
440000  ekin = 6.81204485682425 |  erot = 10.1018252021667 | epot = -66.8473067593426 | etot = -49.9334367003517
441000  ekin = 6.8549402585791 |  erot = 9.86991417524556 | epot = -66.6582911341317 | etot = -49.9334367003071
442000  ekin = 6.89316565875409 |  erot = 9.63860472644123 | epot = -66.4652070851976 | etot = -49.9334367000023
443000  ekin = 6.92830085529117 |  erot = 9.41426089210217 | epot = -66.2759984467657 | etot = -49.9334366993723
444000  ekin = 6.96427254047519 |  erot = 9.20573448271171 | epot = -66.1034437216294 | etot = -49.9334366984425
445000  ekin = 7.00734929586298 |  erot = 9.02391831398023 | epot = -65.9647043071521 | etot = -49.9334366973089
446000  ekin = 7.06567994298367 |  erot = 8.88054940607855 | epot = -65.8796660452047 | etot = -49.9334366961425
447000  ekin = 7.1482693853796 |  erot = 8.78650081534135 | epot = -65.868206895892 | etot = -49.933436695171
448000  ekin = 7.26342746668263 |  erot = 8.74982299478608 | epot = -65.9466871561162 | etot = -49.9334366946475
449000  ekin = 7.41688893788363 |  erot = 8.77375650823683 | epot = -66.1240821409159 | etot = -49.9334366947954
450000  ekin = 7.60996195055461 |  erot = 8.85525305879979 | epot = -66.3986517051257 | etot = -49.9334366957713
451000  ekin = 7.83859627200689 |  erot = 8.98479300395988 | epot = -66.7568259731909 | etot = -49.9334366972242
452000  ekin = 8.0953465489177 |  erot = 9.14858392352467 | epot = -67.1773671722438 | etot = -49.9334366998015
453000  ekin = 8.36501912235157 |  erot = 9.32480175710959 | epot = -67.6232575823023 | etot = -49.9334367028412
454000  ekin = 8.62787482253606 |  erot = 9.48861390841596 | epot = -68.0499254368547 | etot = -49.9334367059027
455000  ekin = 8.86318683153801 |  erot = 9.61656796363323 | epot = -68.4131915036411 | etot = -49.9334367084699
456000  ekin = 9.05301422109849 |  erot = 9.6906953996789 | epot = -68.677146330813 | etot = -49.9334367100356
457000  ekin = 9.18315881760864 |  erot = 9.70061032941657 | epot = -68.8172058578391 | etot = -49.9334367108139
458000  ekin = 9.2473908388488 |  erot = 9.64764046615366 | epot = -68.8284680142724 | etot = -49.9334367092699
459000  ekin = 9.25548953030117 |  erot = 9.54869554441728 | epot = -68.7376217810851 | etot = -49.9334367063667
460000  ekin = 9.22729166752555 |  erot = 9.43094677910707 | epot = -68.5916751492618 | etot = -49.9334367026292
461000  ekin = 9.18866313207529 |  erot = 9.32746380432218 | epot = -68.4495636352403 | etot = -49.9334366988429
462000  ekin = 9.16559319440608 |  erot = 9.27112965794425 | epot = -68.3701595482546 | etot = -49.9334366959043
463000  ekin = 9.17773873091335 |  erot = 9.28803491834508 | epot = -68.3992103437155 | etot = -49.9334366944571
464000  ekin = 9.2334219753185 |  erot = 9.39218062503575 | epot = -68.5590392952285 | etot = -49.9334366948742
465000  ekin = 9.32780582036065 |  erot = 9.58246294342806 | epot = -68.8437054607551 | etot = -49.9334366969664
466000  ekin = 9.44464021675435 |  erot = 9.84368987463132 | epot = -69.2217667915085 | etot = -49.9334367001228
467000  ekin = 9.56120377684457 |  erot = 10.1507714878392 | epot = -69.6454119681725 | etot = -49.9334367034887
468000  ekin = 9.65468489576676 |  erot = 10.4750886621804 | epot = -70.0632102642043 | etot = -49.9334367062572
469000  ekin = 9.70785696604834 |  erot = 10.7910978191503 | epot = -70.4323914930665 | etot = -49.9334367078679
470000  ekin = 9.71262212180167 |  erot = 11.0813447197958 | epot = -70.7274035497418 | etot = -49.9334367081443
471000  ekin = 9.67073883343496 |  erot = 11.3387370682914 | epot = -70.9429126090358 | etot = -49.9334367073094
472000  ekin = 9.59191180300086 |  erot = 11.5659397722493 | epot = -71.091288280938 | etot = -49.9334367056878
473000  ekin = 9.49111612470798 |  erot = 11.7727565997472 | epot = -71.1973094282183 | etot = -49.9334367037631
474000  ekin = 9.38501610880983 |  erot = 11.9729251611027 | epot = -71.291377971837 | etot = -49.9334367019244
475000  ekin = 9.2888723293099 |  erot = 12.181090667979 | epot = -71.4033996977682 | etot = -49.9334367004792
476000  ekin = 9.21413109738119 |  erot = 12.4104297276944 | epot = -71.5579975245924 | etot = -49.9334366995168
477000  ekin = 9.16769186030955 |  erot = 12.6713688993763 | epot = -71.7724974587973 | etot = -49.9334366991115
478000  ekin = 9.15149095806687 |  erot = 12.9706692103864 | epot = -72.0555968677338 | etot = -49.9334366992806
479000  ekin = 9.16265639589747 |  erot = 13.3106560519201 | epot = -72.4067491478423 | etot = -49.9334367000247
480000  ekin = 9.19406563261028 |  erot = 13.6885767380482 | epot = -72.8160790719721 | etot = -49.9334367013136
481000  ekin = 9.2351814536897 |  erot = 14.0963491431014 | epot = -73.2649672998307 | etot = -49.9334367030397
482000  ekin = 9.27324003577829 |  erot = 14.5212080502509 | epot = -73.7278847910061 | etot = -49.9334367049769
483000  ekin = 9.29487863766067 |  erot = 14.9475327813956 | epot = -74.1758481259226 | etot = -49.9334367068663
484000  ekin = 9.28813070974468 |  erot = 15.3594466797463 | epot = -74.5810140977087 | etot = -49.9334367082177
485000  ekin = 9.24449800631886 |  erot = 15.7449638956355 | epot = -74.922898610798 | etot = -49.9334367088436
486000  ekin = 9.16033951363167 |  erot = 16.0979673630931 | epot = -75.1917435854299 | etot = -49.9334367087052
487000  ekin = 9.03726433394301 |  erot = 16.4183746409746 | epot = -75.3890756829008 | etot = -49.9334367079832
488000  ekin = 8.88140769757311 |  erot = 16.7103217583947 | epot = -75.5251661629628 | etot = -49.933436706995
489000  ekin = 8.7019310328288 |  erot = 16.9791336192718 | epot = -75.614501358161 | etot = -49.9334367060604
490000  ekin = 8.50932564387278 |  erot = 17.2283334637251 | epot = -75.6710958130029 | etot = -49.933436705405
491000  ekin = 8.3140279783916 |  erot = 17.4577039709126 | epot = -75.7051686544105 | etot = -49.9334367051063
492000  ekin = 8.12558483923703 |  erot = 17.6628124157463 | epot = -75.721833960107 | etot = -49.9334367051237
493000  ekin = 7.95231204431639 |  erot = 17.8358133610015 | epot = -75.7215621106728 | etot = -49.9334367053549
494000  ekin = 7.80119073598954 |  erot = 17.9669524473278 | epot = -75.7015798890239 | etot = -49.9334367057066
495000  ekin = 7.67769081998003 |  erot = 18.0460778615326 | epot = -75.6572053876598 | etot = -49.9334367061471
496000  ekin = 7.58531059409856 |  erot = 18.0636363740809 | epot = -75.5823836748914 | etot = -49.9334367067119
497000  ekin = 7.52485262514337 |  erot = 18.0110549918106 | epot = -75.469344324409 | etot = -49.933436707455
498000  ekin = 7.49373543820694 |  erot = 17.8809293893934 | epot = -75.308101535769 | etot = -49.9334367081687
499000  ekin = 7.48617782568836 |  erot = 17.6689103471237 | epot = -75.0885248818445 | etot = -49.9334367090325
500000  ekin = 7.49347216210361 |  erot = 17.3741777344968 | epot = -74.8010866062347 | etot = -49.9334367096343
501000  ekin = 7.50537969957539 |  erot = 17.0010883509615 | epot = -74.4399047602053 | etot = -49.9334367096683
502000  ekin = 7.51248513612193 |  erot = 16.5621897687607 | epot = -74.0081116138094 | etot = -49.9334367089268
503000  ekin = 7.50819446611848 |  erot = 16.0791838293679 | epot = -73.5208150028627 | etot = -49.9334367073763
504000  ekin = 7.49011586233679 |  erot = 15.5818683068884 | epot = -73.0054208743933 | etot = -49.9334367051681
505000  ekin = 7.46056991976306 |  erot = 15.1049042921301 | epot = -72.4989109145597 | etot = -49.9334367026665
506000  ekin = 7.426166883467 |  erot = 14.6834712564166 | epot = -72.0430748400303 | etot = -49.9334367001468
507000  ekin = 7.39661274013544 |  erot = 14.3486660365891 | epot = -71.6787154748017 | etot = -49.9334366980772
508000  ekin = 7.38281606554088 |  erot = 14.122381305526 | epot = -71.4386340679655 | etot = -49.9334366968986
509000  ekin = 7.39402992167344 |  erot = 14.0119926345969 | epot = -71.3394592535313 | etot = -49.9334366972609
510000  ekin = 7.4348791744664 |  erot = 14.00645497061 | epot = -71.3747708439857 | etot = -49.9334366989093
511000  ekin = 7.50576717999883 |  erot = 14.0784238742641 | epot = -71.5176277562898 | etot = -49.9334367020268
512000  ekin = 7.60119561215965 |  erot = 14.1838211434744 | epot = -71.7184534619007 | etot = -49.9334367062666
513000  ekin = 7.71044568681027 |  erot = 14.2667319445938 | epot = -71.9106143423502 | etot = -49.9334367109461
514000  ekin = 7.81978747766632 |  erot = 14.2680211759095 | epot = -72.0212453686759 | etot = -49.9334367151001
515000  ekin = 7.91595150928813 |  erot = 14.136730975867 | epot = -71.9861192028066 | etot = -49.9334367176515
516000  ekin = 7.99023839626997 |  erot = 13.8421209123312 | epot = -71.765796026329 | etot = -49.9334367177278
517000  ekin = 8.04205550960352 |  erot = 13.3828818541575 | epot = -71.3583740787928 | etot = -49.9334367150318
518000  ekin = 8.08036426889702 |  erot = 12.7898538339902 | epot = -70.8036548129272 | etot = -49.93343671004
519000  ekin = 8.12206393604817 |  erot = 12.1205081667034 | epot = -70.1760088066211 | etot = -49.9334367038696
520000  ekin = 8.18764894630583 |  erot = 11.4468759977119 | epot = -69.5679616418748 | etot = -49.9334366978571
521000  ekin = 8.29566353773327 |  erot = 10.8412363962021 | epot = -69.0703366270684 | etot = -49.933436693133
522000  ekin = 8.45774428961541 |  erot = 10.3639645179526 | epot = -68.7551454979472 | etot = -49.9334366903792
523000  ekin = 8.6754707032932 |  erot = 10.0559571765564 | epot = -68.6648645696558 | etot = -49.9334366898061
524000  ekin = 8.93944864495669 |  erot = 9.93579310878289 | epot = -68.8086784449968 | etot = -49.9334366912572
525000  ekin = 9.23044472106861 |  erot = 10.0004752135613 | epot = -69.1643566289846 | etot = -49.9334366943547
526000  ekin = 9.52203491653689 |  erot = 10.2283307207382 | epot = -69.6838023358922 | etot = -49.9334366986171
527000  ekin = 9.78409599190119 |  erot = 10.5829813010738 | epot = -70.3005139965033 | etot = -49.9334367035283
528000  ekin = 9.98654469592338 |  erot = 11.0178490698024 | epot = -70.937830474285 | etot = -49.9334367085592
529000  ekin = 10.1029539601439 |  erot = 11.4811633033496 | epot = -71.5175539766437 | etot = -49.9334367131502
530000  ekin = 10.1138818470412 |  erot = 11.9216268521526 | epot = -71.9689454159113 | etot = -49.9334367167174
531000  ekin = 10.009768376633 |  erot = 12.2946121702543 | epot = -72.2378172656133 | etot = -49.933436718726
532000  ekin = 9.79306563777554 |  erot = 12.5680717027124 | epot = -72.2945740593142 | etot = -49.9334367188263
533000  ekin = 9.47905160959907 |  erot = 12.7267270062226 | epot = -72.1392153328171 | etot = -49.9334367169954
534000  ekin = 9.09480598113199 |  erot = 12.7731458504705 | epot = -71.8013885451888 | etot = -49.9334367135863
535000  ekin = 8.67621596356743 |  erot = 12.725246773648 | epot = -71.3348994464545 | etot = -49.9334367092391
536000  ekin = 8.26347380199202 |  erot = 12.6111100069009 | epot = -70.808020513579 | etot = -49.9334367046861
537000  ekin = 7.8959905961062 |  erot = 12.4628737027919 | epot = -70.2923009994712 | etot = -49.933436700573
538000  ekin = 7.60773288315974 |  erot = 12.3114435936331 | epot = -69.8526131741348 | etot = -49.933436697342
539000  ekin = 7.42371159250873 |  erot = 12.1829376490021 | epot = -69.5400859367383 | etot = -49.9334366952274
540000  ekin = 7.35791077724687 |  erot = 12.0968490256268 | epot = -69.3881964971777 | etot = -49.933436694304
541000  ekin = 7.41256804382714 |  erot = 12.0653576080474 | epot = -69.4113623464303 | etot = -49.9334366945558
542000  ekin = 7.57853605040992 |  erot = 12.0931906687774 | epot = -69.6051634151016 | etot = -49.9334366959142
543000  ekin = 7.83646941911308 |  erot = 12.1777647790372 | epot = -69.9476708963917 | etot = -49.9334366982414
544000  ekin = 8.15871763039278 |  erot = 12.3097728230818 | epot = -70.4019271547725 | etot = -49.9334367012979
545000  ekin = 8.51194808021862 |  erot = 12.4746658403755 | epot = -70.9200506252934 | etot = -49.9334367046993
546000  ekin = 8.8605554298828 |  erot = 12.6554193667532 | epot = -71.4494115045595 | etot = -49.9334367079235
547000  ekin = 9.17075161999858 |  erot = 12.8364725166206 | epot = -71.9406608470137 | etot = -49.9334367103946
548000  ekin = 9.41490179012599 |  erot = 13.0079503310952 | epot = -72.3562888328661 | etot = -49.9334367116449
549000  ekin = 9.57534656746483 |  erot = 13.1686979374105 | epot = -72.6774812163388 | etot = -49.9334367114634
550000  ekin = 9.64686209048007 |  erot = 13.3267810142535 | epot = -72.9070798147103 | etot = -49.9334367099767
551000  ekin = 9.63715286761366 |  erot = 13.4970109715298 | epot = -73.0676005467461 | etot = -49.9334367076027
552000  ekin = 9.56521103056892 |  erot = 13.6962041250842 | epot = -73.1948518605964 | etot = -49.9334367049433
553000  ekin = 9.45778037494705 |  erot = 13.9376030903696 | epot = -73.328820167963 | etot = -49.9334367026464
554000  ekin = 9.34444856540419 |  erot = 14.2259329985704 | epot = -73.5038182652631 | etot = -49.9334367012885
555000  ekin = 9.25213586068647 |  erot = 14.554187341061 | epot = -73.739759903013 | etot = -49.9334367012655
556000  ekin = 9.19999740124744 |  erot = 14.9027731790121 | epot = -74.0362072829663 | etot = -49.9334367027067
557000  ekin = 9.19858106847623 |  erot = 15.2418626002227 | epot = -74.3738803739402 | etot = -49.9334367052413
558000  ekin = 9.24425546373156 |  erot = 15.533160676273 | epot = -74.7108528491238 | etot = -49.9334367091192
559000  ekin = 9.31861665860527 |  erot = 15.7359099530683 | epot = -74.9879633247355 | etot = -49.9334367130619
560000  ekin = 9.39695059709786 |  erot = 15.8150009569878 | epot = -75.1453882704714 | etot = -49.9334367163857
561000  ekin = 9.45314011700227 |  erot = 15.7467098708858 | epot = -75.1332867063792 | etot = -49.9334367184911
562000  ekin = 9.46443250758529 |  erot = 15.5232568984784 | epot = -74.9211261250191 | etot = -49.9334367189554
563000  ekin = 9.41516469943674 |  erot = 15.1567249816826 | epot = -74.5053263982394 | etot = -49.9334367171201
564000  ekin = 9.2988962721603 |  erot = 14.679911962652 | epot = -73.912244948898 | etot = -49.9334367140856
565000  ekin = 9.11880310151717 |  erot = 14.1400031739803 | epot = -73.1922429852183 | etot = -49.9334367097209
566000  ekin = 8.88664822048603 |  erot = 13.5965040768085 | epot = -72.4165890018559 | etot = -49.9334367045614
567000  ekin = 8.62095363305963 |  erot = 13.1147978259198 | epot = -71.669188158177 | etot = -49.9334366991976
568000  ekin = 8.34502941995043 |  erot = 12.7577046249881 | epot = -71.0361707402981 | etot = -49.9334366953595
569000  ekin = 8.08308251282 |  erot = 12.5716587303351 | epot = -70.5881779352045 | etot = -49.9334366920495
570000  ekin = 7.85931792269072 |  erot = 12.5845592067786 | epot = -70.3773138203158 | etot = -49.9334366908465
571000  ekin = 7.69515957546865 |  erot = 12.7948834197769 | epot = -70.4234796877068 | etot = -49.9334366924613
572000  ekin = 7.60396111741565 |  erot = 13.1643540858181 | epot = -70.7017519004431 | etot = -49.9334366972093
573000  ekin = 7.58730164850477 |  erot = 13.6192730323247 | epot = -71.1400113849128 | etot = -49.9334367040834
574000  ekin = 7.63520361153434 |  erot = 14.0643105452094 | epot = -71.6329508680247 | etot = -49.933436711281
575000  ekin = 7.73080156106132 |  erot = 14.404463219706 | epot = -72.0687014975707 | etot = -49.9334367168034
576000  ekin = 7.85689248431528 |  erot = 14.5664691504383 | epot = -72.3567983545794 | etot = -49.9334367198259
577000  ekin = 8.00091593729851 |  erot = 14.5094673832397 | epot = -72.4438200405807 | etot = -49.9334367200425
578000  ekin = 8.15665258261498 |  erot = 14.2276209559758 | epot = -72.3177102566093 | etot = -49.9334367180185
579000  ekin = 8.3230672805737 |  erot = 13.7443245549161 | epot = -72.0008285501224 | etot = -49.9334367146326
580000  ekin = 8.50340996044298 |  erot = 13.1029754975957 | epot = -71.5398221682012 | etot = -49.9334367101625
581000  ekin = 8.70208311700319 |  erot = 12.3569061227087 | epot = -70.9924259462229 | etot = -49.933436706511
582000  ekin = 8.91777039447199 |  erot = 11.5600287828267 | epot = -70.4112358805434 | etot = -49.9334367032448
583000  ekin = 9.14731913957018 |  erot = 10.7633073833908 | epot = -69.8440632235177 | etot = -49.9334367005567
584000  ekin = 9.38577210814637 |  erot = 10.0114551308019 | epot = -69.3306639375173 | etot = -49.9334366985691
585000  ekin = 9.62647735599204 |  erot = 9.34056459161516 | epot = -68.9004786449768 | etot = -49.9334366973696
586000  ekin = 9.86132138676436 |  erot = 8.77626879101596 | epot = -68.5710268748042 | etot = -49.9334366970239
587000  ekin = 10.0810752649587 |  erot = 8.33235621298659 | epot = -68.3468681754879 | etot = -49.9334366975425
588000  ekin = 10.2759188426479 |  erot = 8.01010405478541 | epot = -68.2194595962795 | etot = -49.9334366988462
589000  ekin = 10.43624228336 |  erot = 7.79886753304834 | epot = -68.168546517119 | etot = -49.9334367007106
590000  ekin = 10.5537937400067 |  erot = 7.67891225367106 | epot = -68.1661426964501 | etot = -49.9334367027724
591000  ekin = 10.6230840083969 |  erot = 7.62453842355608 | epot = -68.1810591364585 | etot = -49.9334367045055
592000  ekin = 10.6427223551157 |  erot = 7.61008622174455 | epot = -68.1862452824154 | etot = -49.9334367055552
593000  ekin = 10.6162293457351 |  erot = 7.61530634627727 | epot = -68.1649723976566 | etot = -49.9334367056442
594000  ekin = 10.5518689631683 |  erot = 7.62911861510402 | epot = -68.1144242830922 | etot = -49.93343670482
595000  ekin = 10.4613549146823 |  erot = 7.650415752318 | epot = -68.0452073703874 | etot = -49.933436703387
596000  ekin = 10.3577397595494 |  erot = 7.68597457794617 | epot = -67.9771510392671 | etot = -49.9334367017716
597000  ekin = 10.2530110984654 |  erot = 7.74702054973694 | epot = -67.9334683485737 | etot = -49.9334367003713
598000  ekin = 10.1558396073476 |  erot = 7.84502642243173 | epot = -67.9343027292742 | etot = -49.9334366994949
599000  ekin = 10.0716456764075 |  erot = 7.98815266721895 | epot = -67.9932350426329 | etot = -49.9334366990064
600000  ekin = 10.0026338981048 |  erot = 8.18253713499505 | epot = -68.1186077321048 | etot = -49.9334366990049
601000  ekin = 9.9465416303757 |  erot = 8.4316149653268 | epot = -68.3115932944627 | etot = -49.9334366987602
602000  ekin = 9.90213772018176 |  erot = 8.73434308375233 | epot = -68.569917503502 | etot = -49.9334366995679
603000  ekin = 9.86461425681278 |  erot = 9.08804689167329 | epot = -68.8860978487964 | etot = -49.9334367003103
604000  ekin = 9.82582394717072 |  erot = 9.49104521651916 | epot = -69.2503058646016 | etot = -49.9334367009117
605000  ekin = 9.77966552475125 |  erot = 9.9415333824285 | epot = -69.6546356086235 | etot = -49.9334367014437
606000  ekin = 9.72222592517299 |  erot = 10.436343641288 | epot = -70.0920062686126 | etot = -49.9334367021516
607000  ekin = 9.65083110473504 |  erot = 10.9682113934829 | epot = -70.5524792017389 | etot = -49.933436703521
608000  ekin = 9.56210695279333 |  erot = 11.5218646669735 | epot = -71.0174083255685 | etot = -49.9334367058017
609000  ekin = 9.44922522117037 |  erot = 12.0704423054806 | epot = -71.4531042366018 | etot = -49.9334367099509
610000  ekin = 9.30054046556791 |  erot = 12.5719096406634 | epot = -71.8058868203983 | etot = -49.9334367141669
611000  ekin = 9.09998277424836 |  erot = 12.9832358346057 | epot = -72.0166553266324 | etot = -49.9334367177783
612000  ekin = 8.83381798259864 |  erot = 13.2691152694793 | epot = -72.0363699714124 | etot = -49.9334367193345
613000  ekin = 8.49783282731314 |  erot = 13.414589684441 | epot = -71.8458592296283 | etot = -49.9334367178742
614000  ekin = 8.10282385727302 |  erot = 13.4329804231671 | epot = -71.4692409939147 | etot = -49.9334367134746
615000  ekin = 7.67548430528516 |  erot = 13.3639670456124 | epot = -70.9728880581183 | etot = -49.9334367072208
616000  ekin = 7.25407898481442 |  erot = 13.262840089535 | epot = -70.4503557749773 | etot = -49.9334367006279
617000  ekin = 6.88089060447721 |  erot = 13.1866181608887 | epot = -70.0009454603655 | etot = -49.9334366949995
618000  ekin = 6.59435266196333 |  erot = 13.1829361442925 | epot = -69.7107254973559 | etot = -49.9334366911
619000  ekin = 6.42302569827092 |  erot = 13.2842954579373 | epot = -69.6407578453999 | etot = -49.9334366891917
620000  ekin = 6.38233280983342 |  erot = 13.5068914944185 | epot = -69.8226609933339 | etot = -49.9334366890821
621000  ekin = 6.47407410483647 |  erot = 13.8532244874395 | epot = -70.2607352827156 | etot = -49.9334366904396
622000  ekin = 6.68823289727533 |  erot = 14.3148945806224 | epot = -70.9365641707564 | etot = -49.9334366928586
623000  ekin = 7.00613993426487 |  erot = 14.8751185926057 | epot = -71.8146952230231 | etot = -49.9334366961525
624000  ekin = 7.40369975383096 |  erot = 15.5093236026734 | epot = -72.8464600565627 | etot = -49.9334367000584
625000  ekin = 7.85341892223183 |  erot = 16.1852180464119 | epot = -73.9720736735381 | etot = -49.9334367048943
626000  ekin = 8.3247191464959 |  erot = 16.8599319289476 | epot = -75.1180877863636 | etot = -49.9334367109201
627000  ekin = 8.78345982127621 |  erot = 17.4776172005326 | epot = -76.1945137397578 | etot = -49.933436717949
628000  ekin = 9.19295493480404 |  erot = 17.9720241171089 | epot = -77.098415776807 | etot = -49.9334367248941
629000  ekin = 9.51863748532577 |  erot = 18.277577695659 | epot = -77.7296519108455 | etot = -49.9334367298608
630000  ekin = 9.73601789211593 |  erot = 18.3475811088937 | epot = -78.0170357280482 | etot = -49.9334367270385
631000  ekin = 9.84717031281614 |  erot = 18.1774007977026 | epot = -77.9580078353464 | etot = -49.9334367248276
632000  ekin = 9.86514165733081 |  erot = 17.7977961670695 | epot = -77.5963745439655 | etot = -49.9334367195651
633000  ekin = 9.80741211217903 |  erot = 17.2626321533498 | epot = -77.0034809786532 | etot = -49.9334367131244
634000  ekin = 9.69704834103309 |  erot = 16.6375206673787 | epot = -76.2680057157435 | etot = -49.9334367073317
635000  ekin = 9.55480062391363 |  erot = 15.9824182747172 | epot = -75.4706556018311 | etot = -49.9334367032003
636000  ekin = 9.39443376917515 |  erot = 15.3418801349166 | epot = -74.6697506049049 | etot = -49.9334367008132
637000  ekin = 9.22207208580399 |  erot = 14.7441119803263 | epot = -73.8996207657959 | etot = -49.9334366996656
638000  ekin = 9.03836092904166 |  erot = 14.2055872728542 | epot = -73.1773849009799 | etot = -49.9334366990841
639000  ekin = 8.8417163270326 |  erot = 13.7372137345686 | epot = -72.5123667601041 | etot = -49.9334366985029
640000  ekin = 8.63137043882056 |  erot = 13.349384650894 | epot = -71.9141917872882 | etot = -49.9334366975736
641000  ekin = 8.40954916880241 |  erot = 13.0548513789787 | epot = -71.3978372439612 | etot = -49.9334366961801
642000  ekin = 8.18255898209297 |  erot = 12.8693803232604 | epot = -70.9853759997537 | etot = -49.9334366944003
643000  ekin = 7.96078880308601 |  erot = 12.8106076124347 | epot = -70.704833107984 | etot = -49.9334366924633
644000  ekin = 7.75858397891552 |  erot = 12.8950460234403 | epot = -70.5870666930887 | etot = -49.933436690733
645000  ekin = 7.59153605354468 |  erot = 13.1346881329385 | epot = -70.6596608761689 | etot = -49.9334366896857
646000  ekin = 7.47142193123396 |  erot = 13.5357483886143 | epot = -70.9406070094471 | etot = -49.9334366895989
647000  ekin = 7.40688255491842 |  erot = 14.0938074621893 | epot = -71.4341267079668 | etot = -49.9334366908591
648000  ekin = 7.3947726178549 |  erot = 14.7853448582563 | epot = -72.1135541745222 | etot = -49.9334366984109
649000  ekin = 7.4121514857368 |  erot = 15.5579695688721 | epot = -72.9035577587517 | etot = -49.9334367041428
650000  ekin = 7.43748369392265 |  erot = 16.3522656883523 | epot = -73.7231860927432 | etot = -49.9334367104683
651000  ekin = 7.44712966937429 |  erot = 17.1032791639312 | epot = -74.483845549307 | etot = -49.9334367160015
652000  ekin = 7.42218365699006 |  erot = 17.7519733432185 | epot = -75.1075937196553 | etot = -49.9334367194467
653000  ekin = 7.35498154078593 |  erot = 18.2566315884541 | epot = -75.5450498494635 | etot = -49.9334367202235
654000  ekin = 7.25177127174499 |  erot = 18.5983433686537 | epot = -75.7835513591201 | etot = -49.9334367187214
[...]
838000  ekin = 7.93910809389695 |  erot = 14.5528008610036 | epot = -72.4253456580786 | etot = -49.9334367031781
839000  ekin = 8.07122306545806 |  erot = 14.8302605050907 | epot = -72.8349202762384 | etot = -49.9334367056896
840000  ekin = 8.24446554245613 |  erot = 15.0313446269342 | epot = -73.2092468770139 | etot = -49.9334367076236
841000  ekin = 8.44565195540588 |  erot = 15.1405292661537 | epot = -73.519617930121 | etot = -49.9334367085615
842000  ekin = 8.66328937917652 |  erot = 15.1548179229557 | epot = -73.7515440104965 | etot = -49.9334367083643
843000  ekin = 8.88920706298556 |  erot = 15.0843018301085 | epot = -73.9069456003348 | etot = -49.9334367072407
844000  ekin = 9.11892160117401 |  erot = 14.9490168367877 | epot = -74.0013751436466 | etot = -49.9334367056848
845000  ekin = 9.35084016251588 |  erot = 14.7729101071697 | epot = -74.0571869739696 | etot = -49.933436704284
846000  ekin = 9.58480624628363 |  erot = 14.5769727650674 | epot = -74.0952157148617 | etot = -49.9334367035107
847000  ekin = 9.8206237614369 |  erot = 14.3739562461313 | epot = -74.1280167111316 | etot = -49.9334367035633
848000  ekin = 10.0570459044803 |  erot = 14.1664338893114 | epot = -74.1569164981109 | etot = -49.9334367043192
849000  ekin = 10.2914310228556 |  erot = 13.9486330727968 | epot = -74.173500801075 | etot = -49.9334367054227
850000  ekin = 10.5200017144501 |  erot = 13.7110119884877 | epot = -74.1644504093867 | etot = -49.9334367064489
851000  ekin = 10.7384803463952 |  erot = 13.4455029514379 | epot = -74.1174200049113 | etot = -49.9334367070782
852000  ekin = 10.9428323035626 |  erot = 13.1491363434633 | epot = -74.0254053542589 | etot = -49.933436707233
853000  ekin = 11.1299150795726 |  erot = 12.8245768787165 | epot = -73.8879286653589 | etot = -49.9334367070697
854000  ekin = 11.2979634934996 |  erot = 12.4776173939312 | epot = -73.7090175942955 | etot = -49.9334367068647
855000  ekin = 11.446963766486 |  erot = 12.1131194458193 | epot = -73.4935199191607 | etot = -49.9334367068554
856000  ekin = 11.5790087135869 |  erot = 11.7315500672944 | epot = -73.2439954879912 | etot = -49.9334367071099
857000  ekin = 11.6987080004869 |  erot = 11.3281299265531 | epot = -72.9602746332953 | etot = -49.9334367062553
858000  ekin = 11.8142530289385 |  erot = 10.9010311211914 | epot = -72.6487208568911 | etot = -49.9334367067612
859000  ekin = 11.9332104305785 |  erot = 10.4445616965651 | epot = -72.3112088339654 | etot = -49.9334367068218
860000  ekin = 12.0636090870968 |  erot = 9.95521311091518 | epot = -71.9522589041542 | etot = -49.9334367061422
861000  ekin = 12.2139179049763 |  erot = 9.44036583172 | epot = -71.5877204413513 | etot = -49.933436704655
862000  ekin = 12.391130281263 |  erot = 8.9208765703492 | epot = -71.2454435542372 | etot = -49.933436702625
863000  ekin = 12.598273363369 |  erot = 8.42930400292008 | epot = -70.9610140669502 | etot = -49.9334367006611
864000  ekin = 12.8318528049167 |  erot = 8.00321132292829 | epot = -70.7685008274049 | etot = -49.9334366995598
865000  ekin = 13.0802810160704 |  erot = 7.67501011472909 | epot = -70.6887278307169 | etot = -49.9334366999175
866000  ekin = 13.3258003937865 |  erot = 7.46434239413089 | epot = -70.7235794880246 | etot = -49.9334367001073
867000  ekin = 13.548377705783 |  erot = 7.37573702207222 | epot = -70.8575514307207 | etot = -49.9334367028655
868000  ekin = 13.7260761155972 |  erot = 7.39264351064997 | epot = -71.0521563312952 | etot = -49.9334367050481
869000  ekin = 13.8458058821776 |  erot = 7.49414572990457 | epot = -71.273388318019 | etot = -49.9334367059369
870000  ekin = 13.9046600884751 |  erot = 7.66358743008096 | epot = -71.5016842267386 | etot = -49.9334367081826
871000  ekin = 13.8960585003033 |  erot = 7.88733345656331 | epot = -71.7168286646253 | etot = -49.9334367077587
872000  ekin = 13.8246751720193 |  erot = 8.15489545473567 | epot = -71.9130073339425 | etot = -49.9334367071876
873000  ekin = 13.70113616587 |  erot = 8.45583645754306 | epot = -72.0904093301495 | etot = -49.9334367067364
874000  ekin = 13.5424081255089 |  erot = 8.77750687619779 | epot = -72.2533517069094 | etot = -49.9334367052027
875000  ekin = 13.364190489811 |  erot = 9.10395551733118 | epot = -72.4015827123183 | etot = -49.933436705176
876000  ekin = 13.1761666319066 |  erot = 9.41896925806077 | epot = -72.5285725947969 | etot = -49.9334367048295
877000  ekin = 12.9897331534367 |  erot = 9.70973691408539 | epot = -72.6329067716059 | etot = -49.9334367040838
878000  ekin = 12.8170836818953 |  erot = 9.96795108601403 | epot = -72.7184714714438 | etot = -49.9334367035344
879000  ekin = 12.6680681077531 |  erot = 10.1869039997319 | epot = -72.7884088107404 | etot = -49.9334367032554
880000  ekin = 12.5485677830274 |  erot = 10.3601722386594 | epot = -72.8421767252551 | etot = -49.9334367035683
881000  ekin = 12.4586640762231 |  erot = 10.4797974742248 | epot = -72.8718982550598 | etot = -49.933436704612
882000  ekin = 12.3916540725039 |  erot = 10.5354740122097 | epot = -72.8605647909174 | etot = -49.9334367062038
883000  ekin = 12.3349006013609 |  erot = 10.5163792200971 | epot = -72.7847165294059 | etot = -49.9334367079479
884000  ekin = 12.2717096495915 |  erot = 10.4148307307057 | epot = -72.6199770892637 | etot = -49.9334367089665
885000  ekin = 12.1859999116201 |  erot = 10.2325314578994 | epot = -72.3519680787271 | etot = -49.9334367092076
886000  ekin = 12.0660600096115 |  erot = 9.98113360769406 | epot = -71.980630324473 | etot = -49.9334367071675
887000  ekin = 11.9066640242377 |  erot = 9.6901712661992 | epot = -71.5302719955779 | etot = -49.9334367051409
888000  ekin = 11.7031668866559 |  erot = 9.40001854992544 | epot = -71.0366221380879 | etot = -49.9334367015065
889000  ekin = 11.4630530596602 |  erot = 9.15343792230301 | epot = -70.5499276801541 | etot = -49.9334366981909
890000  ekin = 11.1987209292475 |  erot = 8.98605396726837 | epot = -70.1182115922942 | etot = -49.9334366957783
891000  ekin = 10.9233111473723 |  erot = 8.92029234139208 | epot = -69.7770401832348 | etot = -49.9334366944704
892000  ekin = 10.6492398279326 |  erot = 8.9636967632536 | epot = -69.5463732853673 | etot = -49.9334366941811
893000  ekin = 10.3877929473946 |  erot = 9.11033168293226 | epot = -69.4315613249835 | etot = -49.9334366946567
894000  ekin = 10.1494275349717 |  erot = 9.34401274065503 | epot = -69.4268769711849 | etot = -49.9334366955582
895000  ekin = 9.94444446382653 |  erot = 9.64226259668959 | epot = -69.5201437570929 | etot = -49.9334366965768
896000  ekin = 9.78365577870636 |  erot = 9.98061881069167 | epot = -69.6977112867597 | etot = -49.9334366973616
897000  ekin = 9.67858194017933 |  erot = 10.3366132204216 | epot = -69.9486318584305 | etot = -49.9334366978296
898000  ekin = 9.6407556754075 |  erot = 10.6919016544823 | epot = -70.2660940279635 | etot = -49.9334366980736
899000  ekin = 9.68004571013824 |  erot = 11.0326643700505 | epot = -70.6461467785237 | etot = -49.933436698335
900000  ekin = 9.8024271898829 |  erot = 11.3484734122085 | epot = -71.0843373009746 | etot = -49.9334366988832
901000  ekin = 10.007986784063 |  erot = 11.6305317086353 | epot = -71.5719551925862 | etot = -49.933436699888
902000  ekin = 10.2899129379698 |  erot = 11.8702049217355 | epot = -72.0935545610795 | etot = -49.9334367013742
903000  ekin = 10.6348280319913 |  erot = 12.0586224303205 | epot = -72.6268871654605 | etot = -49.9334367031487
904000  ekin = 11.0243272478932 |  erot = 12.1875535945646 | epot = -73.1453175474375 | etot = -49.9334367049797
905000  ekin = 11.4372262793892 |  erot = 12.2506292974529 | epot = -73.6212922834563 | etot = -49.9334367066141
906000  ekin = 11.8518934289044 |  erot = 12.2446242605752 | epot = -74.0299543973563 | etot = -49.9334367078767
907000  ekin = 12.2481266389513 |  erot = 12.1701657665229 | epot = -74.3517291141781 | etot = -49.9334367087038
908000  ekin = 12.6082582209791 |  erot = 12.0316322967078 | epot = -74.5733272268279 | etot = -49.933436709141
909000  ekin = 12.9174455820492 |  erot = 11.8363878400004 | epot = -74.6872701313401 | etot = -49.9334367092905
910000  ekin = 13.1633580106047 |  erot = 11.5937735119854 | epot = -74.6905682318431 | etot = -49.9334367092529
911000  ekin = 13.3356415622142 |  erot = 11.3143470993626 | epot = -74.5834253706471 | etot = -49.9334367090702
912000  ekin = 13.4255965683533 |  erot = 11.0097178909071 | epot = -74.3687511679624 | etot = -49.9334367087019
913000  ekin = 13.4301864973424 |  erot = 10.6932440964711 | epot = -74.0568672999605 | etot = -49.9334367061471
914000  ekin = 13.3769940126618 |  erot = 10.381150040337 | epot = -73.6915807589639 | etot = -49.9334367059651
915000  ekin = 13.2641557141759 |  erot = 10.0882130478249 | epot = -73.2858054674931 | etot = -49.9334367054924
916000  ekin = 13.083731249746 |  erot = 9.83018237256223 | epot = -72.8473503271071 | etot = -49.9334367047989
917000  ekin = 12.8312481509851 |  erot = 9.62294454968242 | epot = -72.3876294047193 | etot = -49.9334367040518
918000  ekin = 12.5057291533616 |  erot = 9.48024983838272 | epot = -71.9194156951615 | etot = -49.9334367034172
919000  ekin = 12.1093169179554 |  erot = 9.41163285917544 | epot = -71.454386480755 | etot = -49.9334367036241
920000  ekin = 11.6422865005983 |  erot = 9.4228704721618 | epot = -70.9985936755887 | etot = -49.9334367028286
921000  ekin = 11.1169457294429 |  erot = 9.514662295109 | epot = -70.5650447264617 | etot = -49.9334367019098
922000  ekin = 10.5550472139444 |  erot = 9.68352501372713 | epot = -70.1720089283649 | etot = -49.9334367006934
923000  ekin = 9.9844185002954 |  erot = 9.92400943517147 | epot = -69.841864634638 | etot = -49.9334366991712
924000  ekin = 9.43763475523603 |  erot = 10.2296922496116 | epot = -69.6007637024335 | etot = -49.933436697586
925000  ekin = 8.94863290040244 |  erot = 10.5929212895396 | epot = -69.4749908862795 | etot = -49.9334366963374
926000  ekin = 8.54812299742005 |  erot = 11.0037296099244 | epot = -69.4852893031122 | etot = -49.9334366957678
927000  ekin = 8.25958093088927 |  erot = 11.4489178473815 | epot = -69.641935474274 | etot = -49.9334366960032
928000  ekin = 8.11336972325164 |  erot = 11.9118540030811 | epot = -69.9586604228524 | etot = -49.9334366965196
929000  ekin = 8.06162796660943 |  erot = 12.3783092989675 | epot = -70.3733740128366 | etot = -49.9334367472596
930000  ekin = 8.11332481183543 |  erot = 12.8482520257223 | epot = -70.895013541658 | etot = -49.9334367041002
931000  ekin = 8.66218356996854 |  erot = 13.2899790803943 | epot = -71.8855994294646 | etot = -49.9334367791019
932000  ekin = 9.18948394929502 |  erot = 13.6579503933937 | epot = -72.7808710530944 | etot = -49.9334367104058
933000  ekin = 9.79417016819129 |  erot = 13.9483173135533 | epot = -73.6759241999521 | etot = -49.9334367182075
934000  ekin = 10.4207852551743 |  erot = 14.1310962186981 | epot = -74.4853181967703 | etot = -49.9334367228978
935000  ekin = 10.9969920694641 |  erot = 14.1631931276504 | epot = -75.093621923519 | etot = -49.9334367264045
936000  ekin = 11.4754171702331 |  erot = 14.0243625871049 | epot = -75.4332164854376 | etot = -49.9334367280997
937000  ekin = 11.8281157943456 |  erot = 13.7138200009248 | epot = -75.4753725230786 | etot = -49.9334367278082
938000  ekin = 12.0415685892963 |  erot = 13.2461818683037 | epot = -75.2211871836312 | etot = -49.9334367260311
939000  ekin = 12.1145829475088 |  erot = 12.6496470029733 | epot = -74.6976666731298 | etot = -49.9334367226477
940000  ekin = 12.0589112708443 |  erot = 11.9625634903661 | epot = -73.9549114795609 | etot = -49.9334367183504
941000  ekin = 11.8960551689468 |  erot = 11.2288423346464 | epot = -73.0583342172008 | etot = -49.9334367136076
942000  ekin = 11.6544532360424 |  erot = 10.4934965270017 | epot = -72.0813864718405 | etot = -49.9334367087965
943000  ekin = 11.3669373501322 |  erot = 9.79913167085404 | epot = -71.0995057251855 | etot = -49.9334367041992
944000  ekin = 11.0683221478185 |  erot = 9.18351181827745 | epot = -70.1852706661439 | etot = -49.933436700048
945000  ekin = 10.7929590514068 |  erot = 8.67788366901733 | epot = -69.4042794169999 | etot = -49.9334366965758
946000  ekin = 10.5720940702729 |  erot = 8.30555132209777 | epot = -68.8110820864227 | etot = -49.9334366940521
947000  ekin = 10.4310260783002 |  erot = 8.08030170258283 | epot = -68.4447644736504 | etot = -49.9334366927674
948000  ekin = 10.3863587495399 |  erot = 8.00467877120116 | epot = -68.3244742136991 | etot = -49.933436692958
949000  ekin = 10.4439698322496 |  erot = 8.06864252758099 | epot = -68.4460490545133 | etot = -49.9334366946827
950000  ekin = 10.598452795292 |  erot = 8.24950150873035 | epot = -68.7813910017548 | etot = -49.9334366977324
951000  ekin = 10.8345056212614 |  erot = 8.5138596436384 | epot = -69.2818019665296 | etot = -49.9334367016298
952000  ekin = 11.1300987905274 |  erot = 8.8216613045093 | epot = -69.8851968007775 | etot = -49.9334367057407
953000  ekin = 11.4620681607316 |  erot = 9.13289977438979 | epot = -70.5284046438654 | etot = -49.933436708744
954000  ekin = 11.8086055714806 |  erot = 9.4135197269894 | epot = -71.1555620100664 | etot = -49.9334367115964
955000  ekin = 12.1486594941153 |  erot = 9.63629965817728 | epot = -71.7183958656255 | etot = -49.9334367133329
956000  ekin = 12.4666814283435 |  erot = 9.78498285355642 | epot = -72.1851009958388 | etot = -49.9334367139389
957000  ekin = 12.752812250665 |  erot = 9.85475378778989 | epot = -72.5410027520365 | etot = -49.9334367135817
958000  ekin = 13.0020596902843 |  erot = 9.8508529027434 | epot = -72.7863493055655 | etot = -49.9334367125379
959000  ekin = 13.2129949609978 |  erot = 9.78594808492665 | epot = -72.9323797570477 | etot = -49.9334367111232
960000  ekin = 13.386355352903 |  erot = 9.67694964920652 | epot = -72.9967417117402 | etot = -49.9334367096307
961000  ekin = 13.5237851668172 |  erot = 9.54187021018372 | epot = -72.9990920853052 | etot = -49.9334367083043
962000  ekin = 13.6268083007112 |  erot = 9.39714419112168 | epot = -72.9573891991588 | etot = -49.9334367073259
963000  ekin = 13.6960515852032 |  erot = 9.25563590622512 | epot = -72.8851241982366 | etot = -49.9334367068083
964000  ekin = 13.7307368676617 |  erot = 9.12544546212204 | epot = -72.7896190365701 | etot = -49.9334367067864
965000  ekin = 13.7285055349355 |  erot = 9.00957498535981 | epot = -72.6715172275034 | etot = -49.9334367072082
966000  ekin = 13.6856873973586 |  erot = 8.90650288407777 | epot = -72.5256269893647 | etot = -49.9334367079283
967000  ekin = 13.5981291274025 |  erot = 8.81166698277597 | epot = -72.3432328188808 | etot = -49.9334367087023
968000  ekin = 13.4626202702827 |  erot = 8.71972454046795 | epot = -72.1157815199747 | etot = -49.933436709224
969000  ekin = 13.2787926259635 |  erot = 8.6272346515121 | epot = -71.8394639866604 | etot = -49.9334367091848
970000  ekin = 13.0511641583548 |  erot = 8.5351728251111 | epot = -71.5197736918128 | etot = -49.9334367083469
971000  ekin = 12.790835500682 |  erot = 8.45057810222288 | epot = -71.1748503095307 | etot = -49.9334367066258
972000  ekin = 12.5173507601806 |  erot = 8.38683939062077 | epot = -70.8376268546144 | etot = -49.933436703813
973000  ekin = 12.2569030872258 |  erot = 8.36165046190401 | epot = -70.5519902501752 | etot = -49.9334367010454
974000  ekin = 12.0353982668027 |  erot = 8.39463180026175 | epot = -70.3634667673624 | etot = -49.933436700298
975000  ekin = 11.8648555977054 |  erot = 8.50590727188915 | epot = -70.3041995676637 | etot = -49.9334366980691
976000  ekin = 11.7661195446294 |  erot = 8.70975852592755 | epot = -70.4093147672376 | etot = -49.9334366966806
977000  ekin = 11.7571606517114 |  erot = 9.01267063325535 | epot = -70.7032679815678 | etot = -49.933436696601
978000  ekin = 11.845389677532 |  erot = 9.41117900038229 | epot = -71.1900053760384 | etot = -49.9334366981241
979000  ekin = 12.0246267634795 |  erot = 9.89054975636928 | epot = -71.8486132217867 | etot = -49.9334367019379
980000  ekin = 12.2724364415925 |  erot = 10.4232069351304 | epot = -72.6290800834547 | etot = -49.9334367067319
981000  ekin = 12.5527115600464 |  erot = 10.9725890066009 | epot = -73.4587372787754 | etot = -49.9334367121281
982000  ekin = 12.8238225598972 |  erot = 11.4997645673148 | epot = -74.2570238444359 | etot = -49.9334367172239
983000  ekin = 13.045203571924 |  erot = 11.9687211335461 | epot = -74.9473614266356 | etot = -49.9334367211654
984000  ekin = 13.1839520713158 |  erot = 12.3525268370734 | epot = -75.4699156317595 | etot = -49.9334367233703
985000  ekin = 13.2192870396381 |  erot = 12.6377038113229 | epot = -75.7904275746255 | etot = -49.9334367236645
986000  ekin = 13.1441636152014 |  erot = 12.8254874258286 | epot = -75.9030877633242 | etot = -49.9334367222941
987000  ekin = 12.9766251566426 |  erot = 12.9392834379791 | epot = -75.8493453138261 | etot = -49.9334367192044
988000  ekin = 12.7467127334457 |  erot = 13.0092102946402 | epot = -75.689359745868 | etot = -49.9334367177821
989000  ekin = 12.4647507864812 |  erot = 13.0461973424281 | epot = -75.4443848452174 | etot = -49.933436716308
990000  ekin = 12.1432494339013 |  erot = 13.0601008151106 | epot = -75.1367869639831 | etot = -49.9334367149712
991000  ekin = 11.795493288751 |  erot = 13.0588078295985 | epot = -74.7877378321365 | etot = -49.933436713787
992000  ekin = 11.4345194694535 |  erot = 13.0486939332186 | epot = -74.4166501153588 | etot = -49.9334367126867
993000  ekin = 11.0720454472705 |  erot = 13.0357017586968 | epot = -74.0411839179347 | etot = -49.9334367119674
994000  ekin = 10.7167466984444 |  erot = 13.0266560979782 | epot = -73.6768395070751 | etot = -49.9334367106526
995000  ekin = 10.3805428790882 |  erot = 13.0301107637155 | epot = -73.3440903524007 | etot = -49.933436709597
996000  ekin = 10.0742873843687 |  erot = 13.0528189026738 | epot = -73.0605429959124 | etot = -49.9334367088698
997000  ekin = 9.80713376389113 |  erot = 13.0983026561973 | epot = -72.8388731285729 | etot = -49.9334367084844
998000  ekin = 9.58681345291487 |  erot = 13.1663837795911 | epot = -72.68663394091 | etot = -49.9334367084041
999000  ekin = 9.41957302295624 |  erot = 13.2537863500049 | epot = -72.6067960815235 | etot = -49.9334367085624
1000000  ekin = 9.30950418584537 |  erot = 13.3558388696135 | epot = -72.5987797643175 | etot = -49.9334367088586
   1000000   347.01619     -80.374455      7.7756755     -63.289276      0.11518501     39304000     
Loop time of 19.3079 on 1 procs for 1000000 steps with 10 atoms

Performance: 76.341 ns/day, 0.314 hours/ns, 51792.277 timesteps/s, 517.923 katom-step/s
99.8% CPU use with 1 MPI tasks x no OpenMP threads

MPI task timing breakdown:
Section |  min time  |  avg time  |  max time  |%varavg| %total
---------------------------------------------------------------
Pair    | 15.904     | 15.904     | 15.904     |   0.0 | 82.37
Bond    | 0.68326    | 0.68326    | 0.68326    |   0.0 |  3.54
Neigh   | 0.011182   | 0.011182   | 0.011182   |   0.0 |  0.06
Comm    | 0.45393    | 0.45393    | 0.45393    |   0.0 |  2.35
Output  | 0.12567    | 0.12567    | 0.12567    |   0.0 |  0.65
Modify  | 1.6705     | 1.6705     | 1.6705     |   0.0 |  8.65
Other   |            | 0.459      |            |       |  2.38

Nlocal:             10 ave          10 max          10 min
Histogram: 1 0 0 0 0 0 0 0 0 0
Nghost:              0 ave           0 max           0 min
Histogram: 1 0 0 0 0 0 0 0 0 0
Neighs:             37 ave          37 max          37 min
Histogram: 1 0 0 0 0 0 0 0 0 0

Total # of neighbors = 37
Ave neighs/atom = 3.7
Ave special neighs/atom = 3.6
Neighbor list builds = 1000
Dangerous builds = 0

write_data last_config.${number}.* nocoeff
write_data last_config.1.* nocoeff
System init for write_data ...
Generated 0 of 6 mixed pair_coeff terms from geometric mixing rule
#write_restart last_config.${number}.*
Total wall time: 0:00:19
