LAMMPS (4 May 2022)
units           lj
dimension       3
boundary        m m m
atom_style      bpm/sphere
special_bonds   lj 0.0 1.0 1.0 coul 1.0 1.0 1.0
newton          on off
comm_modify     vel yes cutoff 3.3
region          box block -15 15 -15 15 0 60.0
create_box      1 box bond/types 1 extra/bond/per/atom 15 extra/special/per/atom 50
Created orthogonal box = (-15 -15 0) to (15 15 60)
  1 by 1 by 4 MPI processor grid

molecule        my_mol "rect.mol"
Read molecule template my_mol:
  1 molecules
  0 fragments
  63 atoms with max type 1
  297 bonds with max type 1
  0 angles with max type 0
  0 dihedrals with max type 0
  0 impropers with max type 0
region          wall_cyl cylinder z 0.0 0.0 10.0 EDGE EDGE side in
region          dropzone cylinder z 0.0 0.0 10.0 40.0 50.0 side in

pair_style      gran/hertz/history 1.0 NULL 0.5 NULL 0.1 1
bond_style      bpm/rotational
pair_coeff      1 1
bond_coeff      1 1.0 0.2 0.01 0.01 2.0 0.4 0.02 0.02 0.2 0.04 0.002 0.002

compute         nbond all nbond/atom
compute         tbond all reduce sum c_nbond
compute         bond_ids all property/local batom1 batom2
compute         bond_properties all bond/local dist b1

compute_modify  thermo_temp dynamic/dof yes

fix             1 all wall/gran hertz/history 1.0 NULL 0.5 NULL 0.1 1 zplane 0.0 NULL
fix             2 all wall/gran/region hertz/history 1.0 NULL 0.5 NULL 0.1 1 region wall_cyl
fix             3 all gravity 1e-4 vector 0 0 -1
fix             4 all deposit 40 0 1500 712511343 mol my_mol region dropzone near 2.0 vz -0.05 -0.05
fix             5 all nve/bpm/sphere

timestep        0.05
thermo_style    custom step ke pe pxx pyy pzz c_tbond
thermo          100
#dump            1 all custom 500 atomDump id radius x y z c_nbond mol
#dump            2 all local 500 bondDump c_bond_ids[*] c_bond_properties[*]
#dump_modify     2 colname 1 "id1" colname 2 "id2" colname 3 "r" colname 4 "r0"

run             100000
Generated 0 of 0 mixed pair_coeff terms from geometric mixing rule
Neighbor list info ...
  update every 1 steps, delay 10 steps, check yes
  max neighbors/atom: 2000, page size: 100000
  master list distance cutoff = 1.3
  ghost atom cutoff = 3.3
  binsize = 0.65, bins = 47 47 93
  1 neighbor lists, perpetual/occasional/extra = 1 0 0
  (1) pair gran/hertz/history, perpetual
      attributes: half, newton on, size, history
      pair build: half/size/bin/newton
      stencil: half/bin/3d
      bin: standard
Per MPI rank memory allocation (min/avg/max) = 6.515 | 6.515 | 6.515 Mbytes
   Step         KinEng         PotEng          Pxx            Pyy            Pzz          c_tbond    
         0  -0              0              0              0              0              0            
       100   0.0018331948   0              1.2795343e-05  1.3162764e-05  6.0889226e-06  9.4285714    
       200   0.0025933558   0             -9.7246963e-07  4.2628093e-07  2.254606e-06   9.4285714    
       300   0.0036964813   0             -5.214277e-06   9.6942542e-06  8.1928448e-07  9.4285714    
       400   0.0060104433   0              2.3353405e-05  1.8273171e-05  1.2647691e-05  9.4285714    
       500   0.0074435972   0             -1.7839575e-05  3.8686256e-06 -5.120219e-06   9.4285714    
       600   0.0077862298   0              3.8676586e-06  1.3499487e-05  4.1914953e-06  9.4285714    
       700   0.0075577591   0              2.995232e-06   1.2051677e-05  4.8789862e-06  9.4285714    
       800   0.0073958844   0             -1.4258432e-05  1.2272397e-05 -6.8630878e-06  9.4285714    
       900   0.007553697    0              9.9219152e-06  1.2918228e-05  8.8713909e-06  9.4285714    
      1000   0.0075815901   0             -6.1095276e-06  1.2607282e-05 -2.1917025e-06  9.4285714    
      1100   0.0075277384   0             -5.4044191e-06  1.0815313e-05 -3.3464998e-06  9.4285714    
      1200   0.0075026507   0              6.9770766e-06  1.3988236e-05  8.5114688e-06  9.4285714    
      1300   0.0075665473   0             -4.6433628e-06  8.6190703e-06 -3.8381153e-06  9.4285714    
      1400   0.0076224701   0              1.1589382e-06  7.9617716e-06  1.1941326e-06  9.4285714    
      1500   0.007603467    0              3.5774148e-06  1.3039063e-05  5.2641947e-06  9.4285714    
      1600   0.0059810407   0              4.8299936e-06  1.5343107e-05  4.8809408e-06  9.4285714    
      1700   0.0080230318   0              7.7953676e-06  2.5215962e-05  1.2492975e-05  9.4285714    
      1800   0.0087482398   0              4.7318071e-06  1.9559769e-05  4.2711986e-07  9.4285714    
      1900   0.0086877574   0              4.8038566e-06  1.8020212e-05  2.1297032e-06  9.4285714    
      2000   0.0086771118   0              6.1316671e-06  2.6348435e-05  8.9167408e-06  9.4285714    
      2100   0.0084670091   0              5.0586292e-06  1.9876458e-05  4.6539619e-06  9.4285714    
      2200   0.0083650907   0              9.4046949e-06  1.9264472e-05  1.0344742e-05  9.4285714    
      2300   0.0083549595   0              6.3002517e-06  2.0954839e-05  3.9631836e-06  9.4285714    
      2400   0.0083151535   0              4.9801292e-06  1.2138211e-05  6.2493867e-06  9.4285714    
      2500   0.0083898757   0              6.8667997e-06  1.9182698e-05  9.8363046e-06  9.4285714    
      2600   0.0084145705   0              4.1851e-06     1.8890376e-05  5.497773e-06   9.4285714    
      2700   0.0082712696   0              4.9701934e-06  1.7886474e-05  8.3184582e-06  9.4285714    
      2800   0.0073688706   0              1.144302e-05   1.3902577e-05  9.8542094e-06  9.4285714    
      2900   0.0072732669   0              8.2228374e-06  1.2550063e-05  8.7486939e-06  9.4285714    
      3000   0.0072225948   0              1.1788696e-05  1.6856873e-05  1.0219519e-05  9.4285714    
      3100   0.0048244969   0              2.6913622e-05  2.6037751e-05  1.5435674e-05  9.4285714    
      3200   0.0045717035   0              2.3464139e-05  2.1215606e-05  1.7659066e-05  9.4285714    
      3300   0.0047679567   0              6.5564192e-06  1.2866169e-05  1.4234937e-05  9.4285714    
      3400   0.0048448212   0              2.6268527e-06  9.1565649e-06  1.2387928e-05  9.4285714    
      3500   0.0048364711   0              2.8817245e-06  1.0066061e-05  1.1158512e-05  9.4285714    
      3600   0.0047125947   0              4.936496e-06   1.4195118e-05  1.5418285e-05  9.4285714    
      3700   0.0045641049   0              5.9769788e-06  9.8945153e-06  2.0158644e-05  9.4285714    
      3800   0.0045540235   0              6.1868269e-06  9.9425305e-06  1.6312008e-05  9.4285714    
      3900   0.0047271202   0              4.6825739e-06  1.3424496e-05  1.3234307e-05  9.4285714    
      4000   0.0049115261   0              5.5722312e-06  9.2060522e-06  1.6284048e-05  9.4285714    
      4100   0.0046819157   0              7.2200038e-06  1.0870694e-05  1.0519325e-05  9.4285714    
      4200   0.0035133816   0              3.6321041e-05  4.1100939e-05  1.8321255e-05  9.4285714    
      4300   0.0031933917   0              2.4951011e-05  2.5521457e-05  2.588421e-05   9.4285714    
      4400   0.0033515272   0             -5.6220845e-06 -2.4430502e-06  1.0942893e-05  9.4285714    
      4500   0.0034928951   0              6.2053481e-06  4.7764245e-06  1.991749e-05   9.4285714    
      4600   0.0029992338   0              2.369557e-06   4.59349e-06    2.0911379e-05  9.4285714    
      4700   0.0030650658   0             -2.7066449e-06  1.83391e-06    6.7096837e-06  9.4285714    
      4800   0.0031180382   0              3.4620044e-06  3.3494935e-06  1.7175961e-05  9.4285714    
      4900   0.0030365003   0              3.6295178e-06  6.2514468e-06  1.3401316e-05  9.4285714    
      5000   0.0030259714   0              5.1566588e-06  1.3494605e-05  9.7456367e-06  9.4285714    
      5100   0.0030499975   0              6.7608769e-06  1.9415863e-05  1.2078691e-05  9.4285714    
      5200   0.003005436    0              6.7275739e-06  2.0656574e-05  5.906659e-06   9.4285714    
      5300   0.0030000941   0              6.9641454e-06  1.54531e-05    1.7021736e-05  9.4285714    
      5400   0.0031465827   0              6.540246e-06   1.0837198e-05  1.0192016e-05  9.4285714    
      5500   0.0031981585   0              4.9292412e-06  4.6915838e-06  3.029257e-06   9.4285714    
      5600   0.0031525115   0              4.3125052e-06  2.8841432e-06  1.9324111e-05  9.4285714    
      5700   0.0032128781   0              5.1973159e-06  4.7261232e-06  1.5155154e-05  9.4285714    
      5800   0.0030092855   0              5.1574375e-06  1.3330205e-06  1.6470501e-05  9.4285714    
      5900   0.0025015767   0              9.468608e-06   6.3045435e-06  3.0961055e-05  9.4285714    
      6000   0.0024438438   0              8.0212466e-06  1.0032087e-05  2.8378471e-05  9.4285714    
      6100   0.0023816456   0              3.7802286e-06 -3.8999559e-06  1.8398107e-05  9.4285714    
      6200   0.0024459343   0              5.9964052e-07  8.2000754e-07  1.6404949e-05  9.4285714    
      6300   0.0025205884   0              4.7129599e-06  8.6972388e-06  2.9892106e-05  9.4285714    
      6400   0.0033754198   0              6.5856871e-06  2.3744673e-05  2.4721217e-05  9.4285714    
      6500   0.0037812296   0              1.376462e-07   2.0230253e-05  1.9719688e-05  9.4285714    
      6600   0.0038043567   0             -2.2279638e-06  1.4780176e-05  2.3799652e-05  9.4285714    
      6700   0.0038213959   0              1.1073632e-05  2.2516034e-05  2.5410459e-05  9.4285714    
      6800   0.0036977776   0             -1.0765937e-05  1.3667142e-05  1.7835133e-05  9.4285714    
      6900   0.0034769765   0              6.7509492e-06  2.840882e-05   2.435267e-05   9.4285714    
      7000   0.0031526409   0              1.4168552e-05  4.4965769e-05  4.5646226e-05  9.4285714    
      7100   0.00317737     0             -5.4803238e-06  3.1967885e-05  2.9211214e-05  9.4285714    
      7200   0.0034448361   0              4.8507597e-06  2.1591795e-05  2.3816498e-05  9.4285714    
      7300   0.0036147362   0             -2.791278e-06   2.9367843e-05  2.072129e-05   9.4285714    
      7400   0.0035651675   0             -1.6177129e-06  7.9033092e-06  2.3377855e-05  9.4285714    
      7500   0.0036394064   0              5.7414518e-06  1.246586e-05   2.8461253e-05  9.4285714    
      7600   0.0033086177   0             -3.6547872e-06  1.9730955e-05  2.8892436e-05  9.4285714    
      7700   0.0033410425   0              6.9618203e-06  6.4576188e-06  3.1766455e-05  9.4285714    
      7800   0.0035764747   0              1.2110077e-05  6.3850506e-06  3.5436107e-05  9.4285714    
      7900   0.0039500913   0              1.1250888e-05  5.2728547e-06  3.4972007e-05  9.4285714    
      8000   0.0042963353   0              1.8776503e-05  4.2083124e-06  3.5010281e-05  9.4285714    
      8100   0.0048297614   0              2.5603506e-05  3.3748362e-06  4.0838382e-05  9.4285714    
      8200   0.0052301447   0              2.2727386e-05  4.8879987e-06  3.4821083e-05  9.4285714    
      8300   0.005169511    0              2.5022891e-05  1.0062389e-05  3.3976429e-05  9.4285714    
      8400   0.005224324    0              2.4238943e-05  7.0296204e-06  4.2543264e-05  9.4285714    
      8500   0.0053049309   0              2.6217015e-05  1.0282354e-06  2.6559275e-05  9.4285714    
      8600   0.0052459952   0              3.0123571e-05 -5.4843616e-07  3.3857424e-05  9.4285714    
      8700   0.0052955657   0              2.3843911e-05 -3.117634e-06   3.9683886e-05  9.4285714    
      8800   0.0053972257   0              2.6944951e-05 -1.9297854e-06  2.1931602e-05  9.4285714    
      8900   0.0053679679   0              3.1169997e-05 -9.4576351e-07  3.1987255e-05  9.4285714    
      9000   0.0053793586   0              2.6261243e-05 -3.1509839e-07  3.3111749e-05  9.4285714    
      9100   0.0048447626   0              2.5562708e-05  9.5708437e-07  3.1370618e-05  9.4285714    
      9200   0.0048688926   0              2.8696471e-05  1.7677464e-06  3.5234397e-05  9.4285714    
      9300   0.0048538957   0              2.9337564e-05  6.1059713e-06  2.8008268e-05  9.4285714    
      9400   0.0046986454   0              3.0831262e-05  4.6561014e-06  3.5247122e-05  9.4285714    
      9500   0.0046145139   0              2.6082124e-05  4.2214681e-06  3.2773769e-05  9.4285714    
      9600   0.0045277961   0              1.2434258e-05  8.6375534e-06  2.284049e-05   9.4285714    
      9700   0.0043935298   0              2.5929984e-05  1.409283e-05   4.9159861e-05  9.4285714    
      9800   0.0045363488   0              1.9700734e-05  7.7797381e-06  4.4404362e-05  9.4285714    
      9900   0.0046509978   0              4.052959e-07   1.0265502e-06  3.1360974e-05  9.4285714    
     10000   0.0046493894   0              1.6553229e-05  1.0076346e-05  5.1789914e-05  9.4285714    
     10100   0.0046514856   0              1.8327939e-05  9.8302174e-06  3.7624599e-05  9.4285714    
     10200   0.0046209533   0              2.4256813e-05  1.3730576e-05  3.1575089e-05  9.4285714    
     10300   0.0044651031   0              3.3601226e-05  2.3983568e-05  5.6565625e-05  9.4285714    
     10400   0.0041834162   0              4.805126e-05   7.6642091e-06  4.2641571e-05  9.4285714    
     10500   0.0043218845   0              4.6826294e-05  1.9078519e-05  3.6250139e-05  9.4285714    
     10600   0.0045795722   0              8.2629139e-06  1.6451196e-05  5.4195508e-05  9.4285714    
     10700   0.0053833569   0              5.3717062e-06  6.8337125e-06  4.9804395e-05  9.4285714    
     10800   0.0056805981   0              1.0439371e-05  6.3964706e-05  5.0857116e-05  9.4285714    
     10900   0.0057157307   0              8.6953546e-06  6.7276441e-05  3.9725389e-05  9.4285714    
     11000   0.005696424    0              8.1149094e-06  2.2104406e-05  5.1852506e-05  9.4285714    
     11100   0.0052078884   0              1.5579258e-05  5.0215785e-05  9.2364613e-05  9.4285714    
     11200   0.0052849159   0              2.443959e-05   6.5869489e-05  5.1237777e-05  9.4285714    
     11300   0.0054074494   0             -2.0510258e-05  2.0196205e-05  2.5051885e-05  9.4285714    
     11400   0.0055432168   0              1.5343164e-05  2.5482368e-05  5.4336948e-05  9.4285714    
     11500   0.0054679467   0             -8.3474301e-06  3.553783e-05   5.2027159e-05  9.4285714    
     11600   0.0052706441   0             -1.5151807e-05  3.9562266e-05  5.7900102e-05  9.4285714    
     11700   0.0053724243   0              2.9852987e-05  4.4807737e-05  5.5405662e-05  9.4285714    
     11800   0.0054759961   0             -2.4309686e-05  3.0092677e-06  5.4742672e-05  9.4285714    
     11900   0.0051146604   0              5.1194747e-06  2.8620342e-05  6.4679345e-05  9.4285714    
     12000   0.0049723565   0              2.675912e-05   4.6202817e-05  4.7309269e-05  9.4285714    
     12100   0.0046920113   0              8.7155181e-06  1.0297631e-05  5.3185103e-05  9.4285714    
     12200   0.0049570244   0              1.6383054e-05  2.2699433e-05  6.347138e-05   9.4285714    
     12300   0.0049181458   0             -2.6116723e-05  3.300058e-05   5.177444e-05   9.4285714    
     12400   0.0049245342   0              1.7614092e-05  2.1986541e-05  6.3820521e-05  9.4285714    
     12500   0.0049753042   0              1.7024231e-05  2.7328487e-05  4.8334342e-05  9.4285714    
     12600   0.0048148791   0             -1.7042812e-05  3.3512772e-05  5.9422643e-05  9.4285714    
     12700   0.0043852178   0              1.1418683e-05  6.3690455e-05  7.8362127e-05  9.4285714    
     12800   0.0041967317   0              6.1295424e-06  2.691552e-05   5.3900077e-05  9.4285714    
     12900   0.0041911278   0              1.1373508e-05 -9.9114041e-06  5.6629663e-05  9.4285714    
     13000   0.0043107924   0              8.5398832e-06  1.2632925e-05  5.6578871e-05  9.4285714    
     13100   0.0043976521   0             -1.9373679e-05  2.745136e-05   5.4632008e-05  9.4285714    
     13200   0.0043474635   0              2.0343582e-05  1.7768236e-05  1.1895158e-05  9.4285714    
     13300   0.0044593969   0              1.0895451e-05  2.1880107e-05  3.4032783e-05  9.4285714    
     13400   0.0044814342   0             -1.3547218e-05  1.9974451e-05  4.4513918e-05  9.4285714    
     13500   0.0043982498   0              1.0722877e-05  2.3728571e-05  2.7665112e-05  9.4285714    
     13600   0.0039378503   0              1.2229889e-05  3.0770266e-05  5.2614428e-05  9.4285714    
     13700   0.0036474735   0              9.5048999e-06  1.6734153e-05  7.4271827e-05  9.4285714    
     13800   0.0038236277   0              1.6680429e-05  4.7691782e-05  9.2160112e-05  9.4285714    
     13900   0.0040574402   0              6.7570974e-06  3.6492091e-05  5.2053836e-05  9.4285714    
     14000   0.0046440817   0              2.7735053e-05  6.6227204e-06  3.9436561e-05  9.4285714    
     14100   0.0048045755   0              2.0601942e-05  2.959681e-05   4.9880076e-05  9.4285714    
     14200   0.004634799    0              8.0658747e-06  5.2774385e-06  5.2189551e-05  9.4285714    
     14300   0.0046822822   0              2.1714615e-05  3.0364731e-05  5.2132518e-05  9.4285714    
     14400   0.0048282958   0              2.0587615e-05  2.530458e-05   4.4110535e-05  9.4285714    
     14500   0.004799276    0              1.0813724e-05  2.2458541e-06  4.4546542e-05  9.4285714    
     14600   0.0046554419   0              1.859323e-05   4.5863598e-05  5.9021103e-05  9.4285714    
     14700   0.0045262414   0              2.0625232e-05  3.9707287e-05  6.1007118e-05  9.4285714    
     14800   0.0043347498   0              1.6697069e-05  3.1666259e-05  4.7172267e-05  9.4285714    
     14900   0.0040641791   0              1.3497064e-05  5.9866835e-05  6.6917505e-05  9.4285714    
     15000   0.0040014911   0              7.1453431e-06  2.5483385e-05  6.7987038e-05  9.4285714    
     15100   0.0040015198   0              4.2135705e-05  2.0671772e-05  6.4280017e-05  9.4285714    
     15200   0.004656209    0              2.6684328e-05  4.474018e-05   5.916807e-05   9.4285714    
     15300   0.0047390215   0              3.3127952e-05  4.6355585e-06  5.6740658e-05  9.4285714    
     15400   0.0047219857   0              5.6866539e-05  4.8092122e-05  6.3199152e-05  9.4285714    
     15500   0.0049597215   0              3.4278993e-05  2.5111668e-05  6.5359107e-05  9.4285714    
     15600   0.0049081505   0              1.2068327e-05  6.9210759e-06  6.2272418e-05  9.4285714    
     15700   0.0047978977   0              4.7482116e-05  5.8014048e-05  5.5647569e-05  9.4285714    
     15800   0.0048176861   0              5.0196994e-05  5.8789855e-06  4.5752404e-05  9.4285714    
     15900   0.0049895331   0              2.0966545e-05  1.4091817e-05  4.9992598e-05  9.4285714    
     16000   0.0049288669   0              2.268795e-05   3.980733e-05   5.1840856e-05  9.4285714    
     16100   0.0048010252   0              2.6781521e-05  1.2145851e-05  5.6545128e-05  9.4285714    
     16200   0.0047925554   0              4.0057978e-05  3.9037828e-05  5.8580861e-05  9.4285714    
     16300   0.0047652048   0              2.9783669e-05  4.8617786e-05  5.7899464e-05  9.4285714    
     16400   0.0043495894   0              4.1024094e-05  2.2097063e-05  7.9895344e-05  9.4285714    
     16500   0.0042677893   0              4.9740295e-05  3.3483257e-05  7.2860145e-05  9.4285714    
     16600   0.0039924053   0              1.7513538e-05  4.3222405e-05  6.2148808e-05  9.4285714    
     16700   0.004110225    0              4.4412384e-05  9.35409e-06    6.8831113e-05  9.4285714    
     16800   0.0041003344   0              2.4419982e-05  2.7202073e-05  6.5806688e-05  9.4285714    
     16900   0.0040916821   0              1.4965068e-05  3.6816647e-05  7.2328503e-05  9.4285714    
     17000   0.0039812122   0              4.3173586e-05  4.3996263e-05  7.7949852e-05  9.4285714    
     17100   0.0042480582   0              4.1959057e-05  6.6432813e-05  6.3893449e-05  9.4285714    
     17200   0.0044450353   0              3.1558002e-05  4.6146848e-05  5.5409103e-05  9.4285714    
     17300   0.0045016689   0              3.8307434e-05  3.6423601e-05  4.6361333e-05  9.4285714    
     17400   0.0044798864   0              3.6969292e-05  3.0041841e-05  5.013181e-05   9.4285714    
     17500   0.0044624458   0              4.5965488e-05  2.640968e-05   6.3999899e-05  9.4285714    
     17600   0.0044477024   0              2.0966517e-05  1.8953464e-05  4.7160807e-05  9.4285714    
     17700   0.0044103517   0              2.7440925e-05  3.0023335e-05  2.6847111e-05  9.4285714    
     17800   0.004341948    0              3.7548931e-05  2.7684114e-05  5.1464098e-05  9.4285714    
     17900   0.0042623319   0              3.2079768e-05  2.0530818e-05  3.5314593e-05  9.4285714    
     18000   0.003726239    0              2.5075988e-05  3.3133097e-05  4.1995217e-05  9.4285714    
     18100   0.0034893305   0              1.3220245e-05  3.020125e-05   7.1713105e-05  9.4285714    
     18200   0.0035481187   0              3.2523043e-05  2.7387192e-05  3.6749668e-05  9.4285714    
     18300   0.0036251402   0              4.5667311e-05  2.9230799e-05  7.1782706e-05  9.4285714    
     18400   0.0036369749   0             -1.014622e-06   3.5201729e-05  3.9709522e-05  9.4285714    
     18500   0.0034279849   0              2.1947889e-05  3.9001906e-05  3.3701879e-05  9.4285714    
     18600   0.0033615572   0              5.3790038e-05  3.9573549e-05  8.1596316e-05  9.4285714    
     18700   0.003406225    0              7.3625431e-06  3.4584743e-05  4.8640801e-05  9.4285714    
     18800   0.0034922323   0              2.6182422e-05  3.1791119e-05  4.170957e-05   9.4285714    
     18900   0.0034820625   0              2.9857402e-05  2.5799449e-05  5.5291228e-05  9.4285714    
     19000   0.0033272524   0              1.844591e-05   4.0826323e-05  6.2101661e-05  9.4285714    
     19100   0.0034010912   0              3.0145616e-05  3.644045e-05   6.0246878e-05  9.4285714    
     19200   0.0030932535   0              8.7227973e-06  2.9814304e-05  4.6597247e-05  9.4285714    
     19300   0.002624051    0              6.3914236e-05  2.9323041e-05  6.0029293e-05  9.4285714    
     19400   0.0027583806   0              4.2039411e-05  2.7933876e-05  4.8958797e-05  9.4285714    
     19500   0.0029775174   0             -2.6335479e-05  2.2879667e-05  4.4610482e-05  9.4285714    
     19600   0.0028689969   0              3.5884554e-05  2.1352512e-05  6.0208946e-05  9.4285714    
     19700   0.0026399127   0              1.8473989e-05  2.2707825e-05  6.171175e-05   9.4285714    
     19800   0.0025439904   0             -1.2073435e-06  2.0399124e-05  6.9687415e-05  9.4285714    
     19900   0.0027074939   0              3.0062292e-05  3.2667714e-05  5.1372476e-05  9.4285714    
     20000   0.0027181793   0             -1.7035119e-06  1.177054e-05   4.0159702e-05  9.4285714    
     20100   0.0027315362   0             -1.3742365e-06  2.3564155e-05  5.7172718e-05  9.4285714    
     20200   0.0027204191   0              2.0041145e-05  2.052408e-05   4.7725285e-05  9.4285714    
     20300   0.0026457344   0              3.3984829e-06  4.8524174e-06  5.3280292e-05  9.4285714    
     20400   0.0026592475   0              5.1173158e-06  3.9458314e-05  5.5560611e-05  9.4285714    
     20500   0.0026129298   0              2.419217e-05   2.7154017e-05  5.5129038e-05  9.4285714    
     20600   0.0026532045   0              1.9753712e-05  1.46246e-05    4.9293256e-05  9.4285714    
     20700   0.0026172433   0              1.0984198e-06  3.1572908e-05  4.2775817e-05  9.4285714    
     20800   0.0025282343   0              1.9683388e-05  2.2901129e-05  5.64033e-05    9.4285714    
     20900   0.0025383322   0              2.2352257e-05  2.534911e-05   6.380687e-05   9.4285714    
     21000   0.0024848857   0              1.4023463e-05  2.6731904e-05  5.2051725e-05  9.4285714    
     21100   0.0025091105   0              2.7673099e-05  2.9475402e-05  7.684648e-05   9.4285714    
     21200   0.0027229411   0              6.1574133e-06  2.5611393e-05  5.6801847e-05  9.4285714    
     21300   0.0028888226   0              1.9686043e-05  1.033069e-05   3.656491e-05   9.4285714    
     21400   0.0029336429   0              2.3706857e-05  1.5440041e-05  6.4192795e-05  9.4285714    
     21500   0.0029354446   0              4.443655e-06   1.8094788e-05  3.797507e-05   9.4285714    
     21600   0.0029270648   0              2.4289752e-05  1.6933392e-05  3.9618516e-05  9.4285714    
     21700   0.0029288781   0              2.2403205e-05  1.3655312e-05  6.3273854e-05  9.4285714    
     21800   0.002884005    0              9.5665801e-06  1.2718071e-05  5.613979e-05   9.4285714    
     21900   0.0028362206   0              1.6764675e-05  2.2612976e-05  5.3866016e-05  9.4285714    
     22000   0.0027784436   0              2.0373617e-05  2.134133e-05   5.6687534e-05  9.4285714    
     22100   0.0027479829   0              3.1605707e-05  2.9016826e-05  5.0412111e-05  9.4285714    
     22200   0.0027598842   0              3.1818095e-05  1.898738e-05   6.5167547e-05  9.4285714    
     22300   0.0026078138   0              1.4200853e-05  2.8283323e-05  6.7071904e-05  9.4285714    
     22400   0.0026057112   0              2.7502142e-05  4.1407395e-05  8.4619483e-05  9.4285714    
     22500   0.0026641722   0              9.9423891e-06  1.4635552e-05  6.8501238e-05  9.4285714    
     22600   0.0023728105   0              6.7736501e-06  3.0299151e-05  5.894177e-05   9.4285714    
     22700   0.0021999097   0              3.4516939e-05  4.5285607e-05  8.996035e-05   9.4285714    
     22800   0.002178124    0              2.9545388e-05  1.9567086e-05  9.6343476e-05  9.4285714    
     22900   0.0022903704   0              4.8666623e-06  1.5551535e-05  5.8697755e-05  9.4285714    
     23000   0.0022114595   0              3.9089014e-05  1.3185973e-05  7.0843777e-05  9.4285714    
     23100   0.0022473179   0              3.0609778e-05  1.6190628e-05  7.2843834e-05  9.4285714    
     23200   0.0022787302   0              1.3694799e-05  2.8211464e-06  3.8403815e-05  9.4285714    
     23300   0.002254193    0              1.0608785e-05  2.087358e-05   6.337886e-05   9.4285714    
     23400   0.0022032528   0              2.914759e-05   2.8493674e-05  6.0474318e-05  9.4285714    
     23500   0.0022103262   0              2.9804777e-05  1.2383546e-05  4.0491877e-05  9.4285714    
     23600   0.0022767949   0              1.8461506e-05  2.3591158e-05  5.2725816e-05  9.4285714    
     23700   0.002283034    0              1.9374068e-05  2.570172e-05   4.622802e-05   9.4285714    
     23800   0.0022293403   0              3.3214067e-05  1.0752104e-05  4.2971028e-05  9.4285714    
     23900   0.0022421499   0              3.3973428e-05  1.4548851e-05  4.8022214e-05  9.4285714    
     24000   0.0022708179   0              1.3175798e-05  1.5539147e-05  4.5563964e-05  9.4285714    
     24100   0.0022311644   0              1.320215e-05   1.3317185e-05  5.7572825e-05  9.4285714    
     24200   0.0022566051   0              2.3442037e-05  7.9298663e-06  5.2246081e-05  9.4285714    
     24300   0.0022547585   0              2.1667142e-05  6.4075914e-06  5.1028376e-05  9.4285714    
     24400   0.0022901257   0              3.8132396e-05  1.5652454e-05  7.8308938e-05  9.4285714    
     24500   0.0023537103   0              1.7910524e-05  1.573637e-05   6.9737249e-05  9.4285714    
     24600   0.0023613708   0              4.9912312e-05  1.9777052e-05  4.9415062e-05  9.4285714    
     24700   0.0023237992   0              5.4833746e-05  2.9532114e-05  7.4218996e-05  9.4285714    
     24800   0.0024221927   0              4.0966596e-05  6.3998314e-06  5.9553095e-05  9.4285714    
     24900   0.0025882547   0              6.045015e-05   6.220892e-06   5.4328816e-05  9.4285714    
     25000   0.0027152266   0              5.4969197e-05  2.6430135e-05  4.603937e-05   9.4285714    
     25100   0.0028201154   0              4.3938431e-05  3.0418239e-06  5.8688084e-05  9.4285714    
     25200   0.0029086169   0              3.9184289e-05 -1.53382e-06    4.5684354e-05  9.4285714    
     25300   0.0028528211   0              4.4996759e-05  2.6609485e-06  4.2673517e-05  9.4285714    
     25400   0.0027655631   0              4.2432926e-05  2.1473821e-05  6.8108741e-05  9.4285714    
     25500   0.0027631455   0              5.0514226e-05  2.7797928e-05  5.8437613e-05  9.4285714    
     25600   0.0027455338   0              4.3507582e-05 -1.0456464e-05  5.1578934e-05  9.4285714    
     25700   0.0027314337   0              3.7998608e-05  2.5300155e-05  5.954794e-05   9.4285714    
     25800   0.0026789336   0              5.6853762e-05  2.33174e-05    5.8401995e-05  9.4285714    
     25900   0.0026686904   0              6.7084502e-05 -1.1954024e-05  5.9379012e-05  9.4285714    
     26000   0.0026703643   0              5.6882192e-05  2.5357526e-05  5.608238e-05   9.4285714    
     26100   0.0026825353   0              5.3411638e-05  2.2603349e-05  5.7143751e-05  9.4285714    
     26200   0.0026825174   0              4.4889326e-05  6.9889785e-06  5.8696773e-05  9.4285714    
     26300   0.0025517718   0              5.0976225e-05  2.6619688e-05  6.2081286e-05  9.4285714    
     26400   0.002448155    0              4.6795755e-05  2.6745973e-05  6.9058563e-05  9.4285714    
     26500   0.0023334395   0              3.6329495e-05  2.1444416e-05  6.3642539e-05  9.4285714    
     26600   0.0023097701   0              1.4550567e-05  2.0382944e-05  7.4206161e-05  9.4285714    
     26700   0.0023614287   0              3.6837945e-05  7.9340854e-06  4.7722434e-05  9.4285714    
     26800   0.0023955623   0              3.3758906e-05  1.7850933e-05  5.5370197e-05  9.4285714    
     26900   0.0019993736   0              2.401514e-05   7.8783626e-06  6.8777068e-05  9.4285714    
     27000   0.0019497677   0              3.4976669e-05  2.0510247e-05  8.2493412e-05  9.4285714    
     27100   0.0020363076   0              3.0367221e-05  2.8074655e-05  6.8056692e-05  9.4285714    
     27200   0.0021974785   0              2.8659262e-05  1.6294524e-05  5.6354701e-05  9.4285714    
     27300   0.002350289    0              4.0543677e-05  3.479231e-05   9.0764702e-05  9.4285714    
     27400   0.0026460053   0              3.662854e-05   3.4426146e-05  5.8695061e-05  9.4285714    
     27500   0.0027599044   0              2.6446889e-05  2.899965e-05   3.1521376e-05  9.4285714    
     27600   0.0026660556   0              3.9779618e-05  4.4458176e-05  6.7754246e-05  9.4285714    
     27700   0.0026060398   0              4.7271306e-05  3.8365324e-05  8.0132483e-05  9.4285714    
     27800   0.002724511    0              3.2724273e-05  3.0569502e-05  3.8076705e-05  9.4285714    
     27900   0.0027318479   0              3.2565575e-05  4.4661949e-05  3.5502056e-05  9.4285714    
     28000   0.0026231478   0              3.0921183e-05  6.0356667e-05  6.119464e-05   9.4285714    
     28100   0.0025508556   0              3.8236605e-05  7.3664001e-05  6.7713451e-05  9.4285714    
     28200   0.0025807152   0              2.9349952e-05  7.4140709e-05  6.1882214e-05  9.4285714    
     28300   0.0024074206   0              4.7886113e-05  5.3408061e-05  7.1587209e-05  9.4285714    
     28400   0.0021292859   0              3.9661978e-05  4.0501829e-05  8.4104354e-05  9.4285714    
     28500   0.0022172558   0              9.263267e-06   3.0058013e-05  6.6166187e-05  9.4285714    
     28600   0.0022653927   0              1.0971373e-05  3.0295081e-05  5.9537447e-05  9.4285714    
     28700   0.0025914898   0              3.6755792e-05  6.2489978e-05  7.3424188e-05  9.4285714    
     28800   0.0028276024   0              3.411427e-05   6.1657699e-05  5.2554821e-05  9.4285714    
     28900   0.0029326653   0              2.9451988e-05  5.2815959e-05  4.9287892e-05  9.4285714    
     29000   0.002965493    0              4.3028891e-05  5.075017e-05   4.0608877e-05  9.4285714    
     29100   0.0029096903   0              2.3691422e-05  5.351833e-05   5.2666702e-05  9.4285714    
     29200   0.0028604262   0              2.3683149e-05  7.0673759e-05  5.6222633e-05  9.4285714    
     29300   0.0028093312   0              2.7695636e-05  3.7456562e-05  5.2008785e-05  9.4285714    
     29400   0.0026786162   0              1.7501321e-05  4.5402961e-05  3.9525304e-05  9.4285714    
     29500   0.0025387867   0              2.6252438e-05  0.00011675762  5.4076857e-05  9.4285714    
     29600   0.0026569564   0              2.0179873e-05  3.5543954e-05  5.8794028e-05  9.4285714    
     29700   0.0027207144   0              1.4132151e-05 -1.0930379e-05  4.9793098e-05  9.4285714    
     29800   0.0026892821   0              1.5975512e-05  3.2195344e-05  7.7929499e-05  9.4285714    
     29900   0.002643369    0              9.7678707e-06  1.514329e-05   6.9299393e-05  9.4285714    
     30000   0.0026484998   0              1.8316171e-05  2.1415077e-05  7.6825888e-05  9.4285714    
     30100   0.0028058509   0              2.8010974e-05  3.0588454e-05  8.9088871e-05  9.4285714    
     30200   0.0030353215   0              3.0063085e-05  2.9104606e-05  5.9605817e-05  9.4285714    
     30300   0.0030244988   0              5.9349189e-05  5.3259974e-05  8.9481653e-05  9.4285714    
     30400   0.0030855053   0              3.9650015e-05  3.414212e-05   7.0405413e-05  9.4285714    
     30500   0.0031141819   0              1.5522675e-05  3.9813856e-05  3.5114379e-05  9.4285714    
     30600   0.0030115458   0              6.207961e-05   6.9753316e-05  7.8366207e-05  9.4285714    
     30700   0.0029700178   0              5.3239082e-05  6.3389177e-05  5.4097351e-05  9.4285714    
     30800   0.0029985358   0              5.2375856e-05  5.1058091e-05  3.3422572e-05  9.4285714    
     30900   0.0029689517   0              7.9332461e-05  4.3886728e-05  5.4365146e-05  9.4285714    
     31000   0.0029622718   0              4.1523447e-05  3.6825764e-05  4.5694556e-05  9.4285714    
     31100   0.0029693917   0              3.9693868e-05  3.1903074e-05  5.8747157e-05  9.4285714    
     31200   0.0027246348   0              4.7276494e-05  2.7079375e-05  7.6416899e-05  9.4285714    
     31300   0.0025368424   0              2.0106344e-05  1.9267294e-05  6.5804133e-05  9.4285714    
     31400   0.0023736698   0              3.4928557e-05  2.8361754e-05  7.2137201e-05  9.4285714    
     31500   0.0023946514   0              4.2754557e-05  3.7950211e-05  8.8735068e-05  9.4285714    
     31600   0.0025648037   0              3.7965284e-05  3.50089e-05    8.1900334e-05  9.4285714    
     31700   0.0026956511   0              4.4264259e-05  3.1634807e-05  7.4263237e-05  9.4285714    
     31800   0.002677722    0              4.2244917e-05  3.2173533e-05  8.3389862e-05  9.4285714    
     31900   0.0026705496   0              3.6129898e-05  4.4926239e-05  0.00010110824  9.4285714    
     32000   0.0026466417   0              2.9725035e-05  2.3414537e-05  7.220946e-05   9.4285714    
     32100   0.0026464292   0              5.4134116e-05  3.4177457e-05  6.0288821e-05  9.4285714    
     32200   0.0023705665   0              8.9404512e-05  4.9292654e-05  7.4340835e-05  9.4285714    
     32300   0.0023183595   0              3.1106601e-05  1.969535e-05   7.2988393e-05  9.4285714    
     32400   0.0023882969   0              3.0033e-05     3.3991058e-05  7.1203923e-05  9.4285714    
     32500   0.0023801754   0              2.0067694e-05  3.609562e-05   7.429963e-05   9.4285714    
     32600   0.0024127958   0              1.860145e-05   1.673518e-05   6.100357e-05   9.4285714    
     32700   0.0024031675   0              1.6548008e-05  3.1315194e-05  8.701554e-05   9.4285714    
     32800   0.0023770089   0              3.1288811e-05  3.9427918e-05  5.6604914e-05  9.4285714    
     32900   0.0023568819   0              2.1325065e-05  3.2192459e-05  4.8319222e-05  9.4285714    
     33000   0.0023407285   0              2.2054448e-05  2.8803406e-05  5.5905315e-05  9.4285714    
     33100   0.002327332    0              4.0361707e-05  3.7589399e-05  4.2886312e-05  9.4285714    
     33200   0.0023912585   0             -9.7229548e-07  2.5787094e-05  6.5015833e-05  9.4285714    
     33300   0.0022984153   0              3.2373497e-05  2.5040091e-05  6.9835525e-05  9.4285714    
     33400   0.0022416368   0              2.669143e-05   3.3965765e-05  6.2323403e-05  9.4285714    
     33500   0.0022470637   0              2.3937493e-05  3.2027546e-05  6.683839e-05   9.4285714    
     33600   0.002256129    0              5.0952751e-05  1.2468902e-05  8.4446592e-05  9.4285714    
     33700   0.0022125246   0              3.093841e-05   2.8287747e-05  6.9499172e-05  9.4285714    
     33800   0.0021842197   0              3.5838423e-05  4.2090475e-05  6.9350286e-05  9.4285714    
     33900   0.0021690567   0              2.1933016e-05  2.3178404e-05  6.7082352e-05  9.4285714    
     34000   0.0022206311   0              1.6269784e-05  1.1538009e-05  6.9266998e-05  9.4285714    
     34100   0.0022494061   0              9.1490397e-06  2.3350968e-05  6.8389039e-05  9.4285714    
     34200   0.0022085859   0              1.1855555e-05  3.1674183e-05  7.1002559e-05  9.4285714    
     34300   0.0021855633   0              3.6129131e-05  3.1747187e-05  7.3965145e-05  9.4285714    
     34400   0.0021798298   0              2.9737106e-05  3.3328648e-05  6.9329253e-05  9.4285714    
     34500   0.0021267289   0              3.0875724e-05  3.9773694e-05  7.6428461e-05  9.4285714    
     34600   0.0020466804   0              4.5953975e-05  3.604981e-05   9.1419852e-05  9.4285714    
     34700   0.0020969555   0              2.1591871e-05  2.7684452e-05  7.3703867e-05  9.4285714    
     34800   0.0022946237   0              2.5522835e-05  5.2438515e-05  7.4505556e-05  9.4285714    
     34900   0.0024490201   0              3.0917851e-05  4.7710261e-05  6.8019936e-05  9.4285714    
     35000   0.0023320217   0              1.3576325e-05  2.3430256e-05  9.5266861e-05  9.4285714    
     35100   0.0021890324   0              3.4077104e-05  7.0143939e-05  0.00014586007  9.4285714    
     35200   0.0022124553   0              3.9202113e-05  6.7232341e-05  0.00011830019  9.4285714    
     35300   0.0022584165   0              3.2352745e-05  3.4532597e-05  0.00010884414  9.4285714    
     35400   0.0022737238   0              2.6169969e-05  5.4509206e-05  0.00013180587  9.4285714    
     35500   0.0021537481   0              1.3607191e-05  6.4837671e-05  0.00010851886  9.4285714    
     35600   0.0019831613   0              3.7737426e-05  3.5351631e-05  0.00011069142  9.4285714    
     35700   0.0019041909   0              5.8970853e-05  4.7427627e-05  8.3590155e-05  9.4285714    
     35800   0.0018216502   0              2.0975612e-05  6.7395457e-05  8.6545139e-05  9.4285714    
     35900   0.0018071574   0              4.9077297e-05  5.6297007e-05  8.6311389e-05  9.4285714    
     36000   0.0018645267   0              4.3766063e-05  6.3882304e-05  7.7447784e-05  9.4285714    
     36100   0.0018474198   0              2.7934971e-05  4.1953568e-05  7.3607852e-05  9.4285714    
     36200   0.0017366166   0              6.3710459e-05  5.0034173e-05  8.7289442e-05  9.4285714    
     36300   0.0016630877   0              7.6673753e-05  7.2721043e-05  6.987444e-05   9.4285714    
     36400   0.0016809967   0              7.7155302e-05  5.3898957e-05  5.1930662e-05  9.4285714    
     36500   0.0017478488   0              4.3901858e-05  4.0429824e-05  5.2253472e-05  9.4285714    
     36600   0.0017244649   0              2.428819e-05   4.6012488e-05  3.7569881e-05  9.4285714    
     36700   0.001694793    0              4.1551489e-05  5.7262857e-05  5.4986708e-05  9.4285714    
     36800   0.0016321204   0              2.4522843e-05  6.8176422e-05  5.0512524e-05  9.4285714    
     36900   0.0015208954   0              2.4066113e-05  6.9956589e-05  3.100353e-05   9.4285714    
     37000   0.0014068755   0              3.7418687e-05  3.3424302e-05  4.5889741e-05  9.4285714    
     37100   0.0013361229   0              2.3700045e-05  5.9655032e-05  5.8355744e-05  9.4285714    
     37200   0.001331474    0              2.4647885e-05  2.9564413e-05  6.151617e-05   9.4285714    
     37300   0.0013895388   0              3.1218344e-05  5.3264584e-05  5.4150714e-05  9.4285714    
     37400   0.001407333    0              2.9698504e-05  3.9474095e-05  6.2202002e-05  9.4285714    
     37500   0.0013815772   0              1.8291183e-05  3.6964703e-05  4.5117987e-05  9.4285714    
     37600   0.001367937    0              7.4389408e-06  4.5115277e-05  6.3566279e-05  9.4285714    
     37700   0.0013781896   0              1.1284658e-05  3.3828999e-05  3.0356852e-05  9.4285714    
     37800   0.0013938097   0              7.4598099e-06  2.7777999e-05  4.0234563e-05  9.4285714    
     37900   0.0013788852   0              1.5446137e-05  3.4929786e-05  5.4102572e-05  9.4285714    
     38000   0.0013409916   0              1.4441923e-05  3.3307632e-05  3.9082488e-05  9.4285714    
     38100   0.0013548793   0              6.7717499e-06  2.1259364e-05  6.6745044e-05  9.4285714    
     38200   0.0013619894   0              6.5554231e-06  2.8685491e-05  5.3680355e-05  9.4285714    
     38300   0.0013593654   0              1.056312e-05   2.2266742e-05  4.345309e-05   9.4285714    
     38400   0.0013488508   0              1.557872e-05   2.3814902e-05  6.6112512e-05  9.4285714    
     38500   0.0013399961   0              1.5993586e-05  2.3166151e-05  6.6558579e-05  9.4285714    
     38600   0.0013473117   0              1.5515364e-05  1.4310057e-05  5.3828044e-05  9.4285714    
     38700   0.0013275262   0              1.3467545e-05  3.6691606e-05  5.4651816e-05  9.4285714    
     38800   0.001304838    0              1.2622031e-05  1.8240819e-05  6.8478029e-05  9.4285714    
     38900   0.0012981525   0              1.5965351e-05  7.301553e-07   6.0493525e-05  9.4285714    
     39000   0.0013241474   0              1.090791e-05   1.3786425e-05  5.8612758e-05  9.4285714    
     39100   0.0013302715   0              1.3962184e-05  7.7290833e-06  7.2626585e-05  9.4285714    
     39200   0.0013338793   0              1.9124677e-05  1.2103012e-05  6.4272665e-05  9.4285714    
     39300   0.001337749    0              1.2034083e-05  2.0304797e-05  5.5832191e-05  9.4285714    
     39400   0.0014184127   0              2.3587723e-05  2.6667391e-05  6.1393117e-05  9.4285714    
     39500   0.0015076229   0              3.3529982e-05  2.8742772e-05  5.1854875e-05  9.4285714    
     39600   0.001584196    0              3.329731e-05   3.2142836e-05  5.5667568e-05  9.4285714    
     39700   0.0016673141   0              4.3874089e-05  3.911096e-05   6.1078216e-05  9.4285714    
     39800   0.0016983633   0              3.5412377e-05  3.3834797e-05  4.7630906e-05  9.4285714    
     39900   0.001721388    0              3.933382e-05   3.2179967e-05  4.124963e-05   9.4285714    
     40000   0.0016511866   0              4.0224006e-05  3.6540739e-05  6.1229941e-05  9.4285714    
     40100   0.0015902117   0              3.6395621e-05  3.46428e-05    5.5755476e-05  9.4285714    
     40200   0.0016248457   0              3.4583893e-05  3.816918e-05   4.6174117e-05  9.4285714    
     40300   0.001639017    0              3.2218286e-05  2.1195869e-05  5.094444e-05   9.4285714    
     40400   0.0015947128   0              3.6248764e-05  2.1295273e-05  6.3147523e-05  9.4285714    
     40500   0.0014886812   0              4.7131763e-05  2.4191444e-05  7.2883457e-05  9.4285714    
     40600   0.001483951    0              3.6448135e-05  2.6739025e-05  5.5832321e-05  9.4285714    
     40700   0.0014877422   0              3.5828172e-05  1.4229622e-05  5.437453e-05   9.4285714    
     40800   0.0014974798   0              3.9713792e-05  5.9573135e-06  7.8424652e-05  9.4285714    
     40900   0.0014499802   0              3.0640365e-05  1.6594208e-05  5.5042674e-05  9.4285714    
     41000   0.001395913    0              4.4086797e-05  2.1374448e-05  6.842533e-05   9.4285714    
     41100   0.0014079985   0              3.4018478e-05  4.769345e-06   8.7786364e-05  9.4285714    
     41200   0.0014187083   0              2.5282617e-05  1.068147e-05   4.998439e-05   9.4285714    
     41300   0.0014072972   0              3.8324312e-05  2.7053184e-05  7.2652898e-05  9.4285714    
     41400   0.0014168981   0              2.2198923e-05  2.385181e-05   5.9696044e-05  9.4285714    
     41500   0.0014248439   0              2.2507889e-05  2.4943991e-05  4.8133783e-05  9.4285714    
     41600   0.0014225044   0              1.7477309e-05  2.4821833e-05  7.3031953e-05  9.4285714    
     41700   0.0014075811   0              6.0477226e-06  3.3082497e-05  4.6074646e-05  9.4285714    
     41800   0.0012680617   0              4.0229918e-05  4.5845799e-05  4.7760436e-05  9.4285714    
     41900   0.0010587818   0              8.7500075e-05  2.7520625e-05  8.5329729e-05  9.4285714    
     42000   0.0010007004   0              7.957049e-05   2.7796479e-05  7.179911e-05   9.4285714    
     42100   0.0011304402   0              6.7932609e-05  3.0223682e-05  8.4046251e-05  9.4285714    
     42200   0.0012833154   0              4.4695908e-05  3.1025337e-05  8.6333525e-05  9.4285714    
     42300   0.0013573853   0              3.7885389e-06  3.242561e-05   4.6636393e-05  9.4285714    
     42400   0.0013330633   0              2.5305413e-05  3.6210128e-05  7.9624924e-05  9.4285714    
     42500   0.0012896373   0              4.4892704e-05  4.5307645e-05  8.8376567e-05  9.4285714    
     42600   0.001296775    0              1.2123487e-05  3.1329317e-05  4.689266e-05   9.4285714    
     42700   0.0013193969   0              2.5015346e-05  3.7644129e-05  6.9158547e-05  9.4285714    
     42800   0.0013144903   0              2.7945886e-05  4.3976185e-05  7.2258209e-05  9.4285714    
     42900   0.0013053554   0              2.4932516e-05  2.56847e-05    5.5060153e-05  9.4285714    
     43000   0.0013061323   0              3.505508e-05   3.6703149e-05  6.4102162e-05  9.4285714    
     43100   0.0013149372   0              2.038307e-05   3.6535953e-05  7.001205e-05   9.4285714    
     43200   0.0013063189   0              2.268783e-05   3.1284363e-05  7.1489703e-05  9.4285714    
     43300   0.0012669853   0              4.2151966e-05  3.9616841e-05  8.600203e-05   9.4285714    
     43400   0.0012238388   0              5.3831605e-05  3.1663968e-05  0.00010748716  9.4285714    
     43500   0.0012053096   0              4.8917941e-05  4.1146437e-05  8.2504846e-05  9.4285714    
     43600   0.001243323    0              5.6671957e-05  4.1809653e-05  6.8354881e-05  9.4285714    
     43700   0.001354992    0              6.1374672e-05  3.8833483e-05  7.767147e-05   9.4285714    
     43800   0.0015252788   0              5.8329091e-05  4.5092041e-05  6.9458926e-05  9.4285714    
     43900   0.0016845587   0              5.2409784e-05  4.1549162e-05  6.3318187e-05  9.4285714    
     44000   0.0016987088   0              4.7336939e-05  3.8434001e-05  3.9736647e-05  9.4285714    
     44100   0.0016663634   0              5.3015191e-05  4.4114496e-05  6.0593021e-05  9.4285714    
     44200   0.0016642734   0              5.214706e-05   4.2354707e-05  7.5907264e-05  9.4285714    
     44300   0.0016877933   0              5.0208545e-05  4.4720314e-05  4.2475579e-05  9.4285714    
     44400   0.0016937941   0              5.5355055e-05  4.3854147e-05  5.5002022e-05  9.4285714    
     44500   0.001658184    0              3.9777309e-05  4.0596489e-05  7.2900309e-05  9.4285714    
     44600   0.0016202756   0              2.9046764e-05  4.4611362e-05  8.4216927e-05  9.4285714    
     44700   0.0012624519   0              5.8118979e-05  5.1336615e-05  8.5097154e-05  9.4285714    
     44800   0.0012148648   0              4.7990064e-05  4.5865246e-05  0.00010159441  9.4285714    
     44900   0.0012565599   0              2.0587612e-05  1.8054993e-05  7.9471736e-05  9.4285714    
     45000   0.0012298496   0              5.4851152e-05  4.3491138e-05  8.0059008e-05  9.4285714    
     45100   0.0012274205   0              5.2324153e-05  3.6704358e-05  8.9721391e-05  9.4285714    
     45200   0.0012389066   0              3.7648091e-05  4.0944545e-05  9.5234226e-05  9.4285714    
     45300   0.0012251609   0              6.0261206e-05  5.1852752e-05  9.0949936e-05  9.4285714    
     45400   0.0012814774   0              6.4393391e-05  3.7667283e-05  7.6665383e-05  9.4285714    
     45500   0.0013450626   0              5.3955889e-05  3.333518e-05   6.2323361e-05  9.4285714    
     45600   0.0013741472   0              7.6840597e-05  4.8885582e-05  7.5101429e-05  9.4285714    
     45700   0.0014351223   0              6.9926667e-05  4.095132e-05   6.4348005e-05  9.4285714    
     45800   0.0015284371   0              6.5168141e-05  5.0243258e-05  5.8089422e-05  9.4285714    
     45900   0.001575355    0              6.7430051e-05  6.1147022e-05  7.5616361e-05  9.4285714    
     46000   0.0015147792   0              5.974587e-05   5.4339958e-05  6.89933e-05    9.4285714    
     46100   0.0014504182   0              5.7541539e-05  5.0006578e-05  7.0543678e-05  9.4285714    
     46200   0.0014410639   0              5.8653588e-05  5.2586065e-05  8.1219081e-05  9.4285714    
     46300   0.0014810525   0              4.7027763e-05  3.957261e-05   4.9542345e-05  9.4285714    
     46400   0.0014640215   0              4.979541e-05   1.7965262e-05  6.0180114e-05  9.4285714    
     46500   0.0014424933   0              5.8745985e-05  5.7017286e-05  6.8960391e-05  9.4285714    
     46600   0.001441165    0              6.0140939e-05  4.6475918e-05  5.6358378e-05  9.4285714    
     46700   0.0015025344   0              5.7998976e-05  1.9007372e-05  6.9395672e-05  9.4285714    
     46800   0.0015582176   0              5.9436654e-05  4.8677122e-05  5.618251e-05   9.4285714    
     46900   0.0015803324   0              5.4329951e-05  4.4548088e-05  4.6224761e-05  9.4285714    
     47000   0.001675143    0              6.7118862e-05  5.1584703e-05  6.351515e-05   9.4285714    
     47100   0.0017769921   0              6.6842957e-05  5.3736059e-05  5.062399e-05   9.4285714    
     47200   0.0018358006   0              7.1689975e-05  5.6118418e-05  4.7990149e-05  9.4285714    
     47300   0.0017951326   0              7.4127289e-05  7.3816363e-05  5.0104237e-05  9.4285714    
     47400   0.0017057371   0              7.2774664e-05  4.7651294e-05  3.5218695e-05  9.4285714    
     47500   0.0016744493   0              6.6367496e-05  5.9365352e-05  5.0217044e-05  9.4285714    
     47600   0.0014031951   0              7.8136546e-05  6.6155937e-05  6.7384693e-05  9.4285714    
     47700   0.0013373039   0              7.0639329e-05  2.511137e-05   3.9534806e-05  9.4285714    
     47800   0.0014704003   0              6.5287146e-05  6.1682091e-05  5.2105143e-05  9.4285714    
     47900   0.0014934525   0              5.7380229e-05  6.0784906e-05  5.1933873e-05  9.4285714    
     48000   0.0014895856   0              5.7777082e-05  3.2566077e-05  5.6885486e-05  9.4285714    
     48100   0.00146967     0              6.2296437e-05  5.9058125e-05  8.2342951e-05  9.4285714    
     48200   0.0015682986   0              5.6963813e-05  6.9617445e-05  5.2534658e-05  9.4285714    
     48300   0.0017163505   0              6.1379044e-05  7.1818241e-05  5.7325956e-05  9.4285714    
     48400   0.0014261936   0              7.3161005e-05  6.1824088e-05  8.2548349e-05  9.4285714    
     48500   0.0014236361   0              6.1449743e-05  4.8278985e-05  4.0124971e-05  9.4285714    
     48600   0.0014562257   0              4.5352973e-05  6.5203729e-05  2.9114173e-05  9.4285714    
     48700   0.0013758282   0              5.142512e-05   5.5645429e-05  5.0808976e-05  9.4285714    
     48800   0.0014316476   0              4.7089175e-05  2.3932718e-05  6.2491645e-05  9.4285714    
     48900   0.0014805023   0              3.202017e-05   2.5779532e-05  2.4693407e-05  9.4285714    
     49000   0.0013776549   0              4.5921287e-05  3.5365771e-05  4.1227618e-05  9.4285714    
     49100   0.0013617488   0              3.9474501e-05  4.6966656e-05  9.1036599e-05  9.4285714    
     49200   0.0013342401   0              7.8714486e-05  3.901494e-05   4.6082427e-05  9.4285714    
     49300   0.001276486    0              8.5308627e-05  4.9747481e-05  6.6920379e-05  9.4285714    
     49400   0.0011795288   0              5.385526e-05   7.1565933e-05  7.5941735e-05  9.4285714    
     49500   0.0011435859   0              6.7438968e-05  5.252065e-05   4.4969603e-05  9.4285714    
     49600   0.001247689    0              4.8189516e-05  5.606737e-05   7.5562669e-05  9.4285714    
     49700   0.0013371245   0              3.0586887e-05  3.3461339e-05  5.7168685e-05  9.4285714    
     49800   0.001301722    0              3.5961521e-05  4.0225086e-05  5.5419691e-05  9.4285714    
     49900   0.0012728363   0              3.781088e-05   6.7681947e-05  7.3469228e-05  9.4285714    
     50000   0.0013286836   0              2.0747917e-05  3.2920899e-05  5.6036366e-05  9.4285714    
     50100   0.0013460063   0              2.2076031e-05  3.3652205e-05  6.008755e-05   9.4285714    
     50200   0.0012868089   0              2.9384106e-05  5.6767755e-05  7.0843856e-05  9.4285714    
     50300   0.0012765172   0              3.4521368e-05  4.9418831e-05  7.0177943e-05  9.4285714    
     50400   0.0012703222   0              3.6291462e-05  6.8474511e-05  7.0682948e-05  9.4285714    
     50500   0.0011906512   0              4.1093781e-05  7.1478191e-05  7.2068398e-05  9.4285714    
     50600   0.0011537339   0              3.1556882e-05  4.1722061e-05  7.9155785e-05  9.4285714    
     50700   0.0011267336   0              2.9306562e-05  5.3537978e-05  0.00010138475  9.4285714    
     50800   0.0011753482   0              4.1295435e-05  4.117216e-05   0.00010940627  9.4285714    
     50900   0.0011919232   0              3.5291826e-05  2.7690085e-05  6.4859546e-05  9.4285714    
     51000   0.0011838525   0              3.7804427e-05  4.3372281e-05  7.4969581e-05  9.4285714    
     51100   0.0011883954   0              6.1459693e-05  4.6697285e-05  7.7009321e-05  9.4285714    
     51200   0.0012349694   0              4.8996624e-05  3.1792466e-05  4.2980098e-05  9.4285714    
     51300   0.0012337432   0              3.0225925e-05  3.3059018e-05  6.4590344e-05  9.4285714    
     51400   0.0011577306   0              8.2698384e-05  3.8030266e-05  9.1759993e-05  9.4285714    
     51500   0.0011811724   0              5.9469946e-05  3.0730225e-05  9.4515804e-05  9.4285714    
     51600   0.0012159313   0              4.752115e-05   2.2092938e-05  8.3450965e-05  9.4285714    
     51700   0.0011936762   0              5.9485961e-05  3.9926221e-05  9.155953e-05   9.4285714    
     51800   0.00119466     0              3.5951585e-05  4.0938525e-05  8.2492561e-05  9.4285714    
     51900   0.0012013641   0              3.9985087e-05  3.1268943e-05  6.9196585e-05  9.4285714    
     52000   0.0011652185   0              4.7598806e-05  4.0944772e-05  8.152202e-05   9.4285714    
     52100   0.0011222289   0              3.739268e-05   4.0163882e-05  7.9877837e-05  9.4285714    
     52200   0.0011223637   0              4.1767012e-05  4.3238615e-05  8.1620009e-05  9.4285714    
     52300   0.00108781     0              4.2621468e-05  4.8449175e-05  8.8351917e-05  9.4285714    
     52400   0.0010329114   0              4.2272037e-05  4.6831094e-05  9.0371289e-05  9.4285714    
     52500   0.0010414794   0              5.8841141e-05  4.2908938e-05  9.7364103e-05  9.4285714    
     52600   0.0011160581   0              5.0413342e-05  4.0018307e-05  8.1832238e-05  9.4285714    
     52700   0.0011365494   0              5.4799404e-05  3.9990197e-05  6.8582155e-05  9.4285714    
     52800   0.0011528486   0              5.9449422e-05  4.4180114e-05  7.8135764e-05  9.4285714    
     52900   0.001215765    0              7.724582e-05   6.6093449e-05  0.0001064278   9.4285714    
     53000   0.0013368124   0              7.3703922e-05  5.0858461e-05  7.6836114e-05  9.4285714    
     53100   0.0013407312   0              6.2171068e-05  5.3889729e-05  6.880048e-05   9.4285714    
     53200   0.0013326843   0              6.4548253e-05  6.224984e-05   8.4641195e-05  9.4285714    
     53300   0.0013239729   0              6.0319543e-05  5.8209843e-05  6.5588436e-05  9.4285714    
     53400   0.0013217143   0              5.3952234e-05  6.2188072e-05  5.7866618e-05  9.4285714    
     53500   0.0012781803   0              6.1927188e-05  7.8771424e-05  6.5769719e-05  9.4285714    
     53600   0.001268382    0              6.6769939e-05  6.7552155e-05  7.9292264e-05  9.4285714    
     53700   0.0012069904   0              6.3035353e-05  7.6839293e-05  6.4761494e-05  9.4285714    
     53800   0.0011968988   0              7.7775234e-05  8.0850068e-05  6.4073986e-05  9.4285714    
     53900   0.0011731954   0              7.8942799e-05  6.415663e-05   6.8798682e-05  9.4285714    
     54000   0.0011606061   0              7.0843597e-05  6.4421097e-05  5.9264639e-05  9.4285714    
     54100   0.0011658982   0              7.3791408e-05  5.9714351e-05  5.9388294e-05  9.4285714    
     54200   0.0011195165   0              7.5062867e-05  5.1967479e-05  6.6867658e-05  9.4285714    
     54300   0.0010220393   0              7.1628947e-05  5.5455247e-05  7.5330768e-05  9.4285714    
     54400   0.0010086172   0              7.5800982e-05  4.2581182e-05  9.7752447e-05  9.4285714    
     54500   0.0010183988   0              6.9462298e-05  2.7534816e-05  9.3677455e-05  9.4285714    
     54600   0.0010068716   0              6.3307701e-05  4.0044863e-05  6.4661139e-05  9.4285714    
     54700   0.00099012603  0              6.054033e-05   3.7788592e-05  7.4230926e-05  9.4285714    
     54800   0.0009683722   0              7.7618706e-05  3.4929403e-05  8.2615118e-05  9.4285714    
     54900   0.00097629715  0              6.0748376e-05  4.7953003e-05  6.5727568e-05  9.4285714    
     55000   0.00095157382  0              5.7032086e-05  3.6371601e-05  6.1479859e-05  9.4285714    
     55100   0.00090688968  0              6.6813633e-05  3.8068449e-05  6.0136453e-05  9.4285714    
     55200   0.00088813057  0              5.4468645e-05  4.2209266e-05  5.6362466e-05  9.4285714    
     55300   0.00092557007  0              4.5622928e-05  3.7235869e-05  5.519561e-05   9.4285714    
     55400   0.00091327263  0              3.1184159e-05  4.7698311e-05  4.1473986e-05  9.4285714    
     55500   0.00079921186  0              4.2037172e-05  5.9276972e-05  5.152938e-05   9.4285714    
     55600   0.00081947901  0              5.355572e-05   6.752627e-05   7.3883049e-05  9.4285714    
     55700   0.00084804465  0              1.9648479e-05  2.4946587e-05  7.3095049e-05  9.4285714    
     55800   0.00085118568  0              2.6490199e-05  4.8069956e-05  5.690315e-05   9.4285714    
     55900   0.00079015144  0              5.1906966e-05  3.7090677e-05  6.8990067e-05  9.4285714    
     56000   0.00077424122  0              5.5619324e-05  2.6584622e-05  7.9553055e-05  9.4285714    
     56100   0.00078729859  0              5.7527201e-05  5.8252464e-05  5.5596022e-05  9.4285714    
     56200   0.00073803593  0              6.0864638e-05  2.5528312e-05  6.7041285e-05  9.4285714    
     56300   0.00072042566  0              6.6197657e-05  2.6713058e-05  8.9317267e-05  9.4285714    
     56400   0.00072618636  0              7.0243805e-05  4.6306853e-05  6.6723713e-05  9.4285714    
     56500   0.00072889383  0              6.1503242e-05  3.1283082e-05  5.6818079e-05  9.4285714    
     56600   0.00071687768  0              6.0574003e-05  3.8132065e-05  7.2674723e-05  9.4285714    
     56700   0.00070767909  0              6.2668821e-05  3.182732e-05   6.6720519e-05  9.4285714    
     56800   0.0007079533   0              5.0107283e-05  2.8951951e-05  7.3466661e-05  9.4285714    
     56900   0.00068006672  0              6.2013944e-05  5.565292e-05   6.162706e-05   9.4285714    
     57000   0.000671041    0              6.7800283e-05  4.9108988e-05  5.0514824e-05  9.4285714    
     57100   0.00074371147  0              6.0778783e-05  4.6623614e-05  7.0016036e-05  9.4285714    
     57200   0.00081400221  0              6.6854831e-05  5.6455913e-05  4.7909892e-05  9.4285714    
     57300   0.000917037    0              6.037679e-05   5.831922e-05   3.0276201e-05  9.4285714    
     57400   0.00094626663  0              3.6929202e-05  5.5118126e-05  6.3066718e-05  9.4285714    
     57500   0.00093346301  0              4.2929284e-05  6.1155376e-05  5.975267e-05   9.4285714    
     57600   0.00093999622  0              5.4774372e-05  5.4704358e-05  6.248684e-05   9.4285714    
     57700   0.00094337314  0              5.1052798e-05  5.8541842e-05  7.5050098e-05  9.4285714    
     57800   0.00092645123  0              5.4055981e-05  6.1848007e-05  6.7174441e-05  9.4285714    
     57900   0.00091253668  0              4.336952e-05   5.0710047e-05  6.1963165e-05  9.4285714    
     58000   0.0009262852   0              4.2890115e-05  4.3909161e-05  6.5498785e-05  9.4285714    
     58100   0.00093298888  0              3.4648981e-05  3.9769303e-05  4.8809176e-05  9.4285714    
     58200   0.00093354721  0              2.9625295e-05  3.8316918e-05  4.9736312e-05  9.4285714    
     58300   0.00093283167  0              3.7120772e-05  3.3230543e-05  5.9892908e-05  9.4285714    
     58400   0.00093485322  0              3.2158058e-05  3.1324318e-05  4.9175918e-05  9.4285714    
     58500   0.00092566721  0              3.7365351e-05  2.89221e-05    5.5349063e-05  9.4285714    
     58600   0.00093205032  0              5.0065939e-05  5.3559803e-05  6.3571654e-05  9.4285714    
     58700   0.00094034992  0              3.8592173e-05  3.491305e-05   6.5379756e-05  9.4285714    
     58800   0.00096489026  0              4.1216942e-05  2.6009902e-05  7.102403e-05   9.4285714    
     58900   0.00097781296  0              6.3787952e-05  5.0445974e-05  6.6836738e-05  9.4285714    
     59000   0.00095088201  0              3.1388682e-05  2.6786636e-05  7.0766736e-05  9.4285714    
     59100   0.00092096092  0              4.7421629e-05  4.3182864e-05  7.2537665e-05  9.4285714    
     59200   0.0009112309   0              5.9256553e-05  5.4527325e-05  6.2965257e-05  9.4285714    
     59300   0.00090372653  0              3.3360205e-05  4.1028509e-05  6.9712928e-05  9.4285714    
     59400   0.00086115007  0              5.1420253e-05  8.2036947e-05  6.6038419e-05  9.4285714    
     59500   0.00078451189  0              7.66347e-05    7.591886e-05   6.2707873e-05  9.4285714    
     59600   0.00078587175  0              3.7807167e-05  3.6366682e-05  6.7965056e-05  9.4285714    
     59700   0.00080103949  0              5.7673906e-05  4.7966293e-05  7.051971e-05   9.4285714    
     59800   0.00078782591  0              4.4966944e-05  4.2368336e-05  6.5414206e-05  9.4285714    
     59900   0.00077243837  0              2.4721291e-05  4.6742391e-05  6.6324623e-05  9.4285714    
     60000   0.00075159859  0              5.8959702e-05  5.3911659e-05  7.3517042e-05  9.4285714    
     60100   0.00072169229  0              5.5959875e-05  5.9933611e-05  7.0405063e-05  9.4285714    
     60200   0.00067937954  0              8.4634924e-05  6.6869788e-05  7.3608653e-05  9.4285714    
     60300   0.00067260226  0              0.0001081277   4.7614083e-05  7.0175997e-05  9.4285714    
     60400   0.00069286984  0              5.9196097e-05  4.3191533e-05  5.2139603e-05  9.4285714    
     60500   0.00069736312  0              5.085609e-05   5.5875528e-05  6.6887124e-05  9.4285714    
     60600   0.00069858614  0              4.9289319e-05  4.5459761e-05  7.1668508e-05  9.4285714    
     60700   0.00069821214  0              3.1823553e-05  3.3716244e-05  5.5201529e-05  9.4285714    
     60800   0.0007035508   0              5.1159207e-05  3.5328208e-05  6.3688313e-05  9.4285714    
     60900   0.00070770846  0              4.0687682e-05  2.1755707e-05  6.6080801e-05  9.4285714    
     61000   0.00070195965  0              3.7971557e-05  2.1957987e-05  6.0082676e-05  9.4285714    
     61100   0.00067865064  0              5.7377129e-05  2.5987671e-05  6.872458e-05   9.4285714    
     61200   0.00063690893  0              3.9606468e-05  2.5848129e-05  6.6201193e-05  9.4285714    
     61300   0.00064194236  0              5.2441034e-05  3.4655185e-05  5.8671505e-05  9.4285714    
     61400   0.00063121847  0              4.7935018e-05  2.2491486e-05  5.8084377e-05  9.4285714    
     61500   0.00065356029  0              3.7527612e-05  2.0937477e-05  4.887051e-05   9.4285714    
     61600   0.00066743886  0              3.8559623e-05  2.5014056e-05  4.3951677e-05  9.4285714    
     61700   0.00064876312  0              3.2600293e-05  2.2241219e-05  5.700072e-05   9.4285714    
     61800   0.00063251553  0              3.7962233e-05  2.4996757e-05  6.3827843e-05  9.4285714    
     61900   0.00065196202  0              4.1125532e-05  2.1960645e-05  5.3369952e-05  9.4285714    
     62000   0.00066211487  0              3.5477887e-05  2.2798208e-05  4.6798579e-05  9.4285714    
     62100   0.00063838911  0              4.2783526e-05  3.0011478e-05  5.2953097e-05  9.4285714    
     62200   0.00062154839  0              4.2874196e-05  2.533148e-05   6.0806919e-05  9.4285714    
     62300   0.00063042258  0              3.7398998e-05  2.3748859e-05  5.50952e-05    9.4285714    
     62400   0.00064307282  0              4.2219258e-05  2.4395739e-05  4.2906023e-05  9.4285714    
     62500   0.00062261967  0              4.3025073e-05  2.0264778e-05  4.8658599e-05  9.4285714    
     62600   0.00053916399  0              3.5096062e-05  2.6627415e-05  6.589849e-05   9.4285714    
     62700   0.00057010612  0              3.1052104e-05  2.4098754e-05  5.5807999e-05  9.4285714    
     62800   0.00057237373  0              2.4705173e-05  2.7289243e-05  5.0697954e-05  9.4285714    
     62900   0.00056115858  0              3.4438793e-05  2.5529621e-05  6.6910453e-05  9.4285714    
     63000   0.0005691916   0              3.2831951e-05  3.4373261e-05  6.7414973e-05  9.4285714    
     63100   0.00056814223  0              3.0683193e-05  4.0598453e-05  6.0776437e-05  9.4285714    
     63200   0.00055359969  0              3.3021543e-05  2.205701e-05   6.6701949e-05  9.4285714    
     63300   0.00053663894  0              2.9793234e-05  2.4124459e-05  6.7366363e-05  9.4285714    
     63400   0.00055318219  0              3.5076151e-05  3.7492408e-05  6.7248496e-05  9.4285714    
     63500   0.0005601025   0              3.1596017e-05  2.838392e-05   5.758537e-05   9.4285714    
     63600   0.00054583913  0              3.1887335e-05  3.3258333e-05  6.4545104e-05  9.4285714    
     63700   0.00053483868  0              4.1596672e-05  3.1294263e-05  7.517425e-05   9.4285714    
     63800   0.00055522493  0              3.672744e-05   2.2703198e-05  5.6489688e-05  9.4285714    
     63900   0.00056121598  0              3.7366567e-05  3.3134619e-05  5.2202899e-05  9.4285714    
     64000   0.00054407633  0              4.3628447e-05  2.8715277e-05  6.6320822e-05  9.4285714    
     64100   0.00053661653  0              3.9455768e-05  2.7513024e-05  6.5322037e-05  9.4285714    
     64200   0.00055006192  0              3.8096257e-05  3.5652328e-05  5.7299498e-05  9.4285714    
     64300   0.00055163304  0              3.6955416e-05  3.1648454e-05  5.7391176e-05  9.4285714    
     64400   0.00053078787  0              3.7098375e-05  3.3595793e-05  6.6463932e-05  9.4285714    
     64500   0.00052058058  0              4.6628247e-05  3.4753784e-05  7.0892035e-05  9.4285714    
     64600   0.00052834957  0              4.414476e-05   3.6395151e-05  6.316293e-05   9.4285714    
     64700   0.00051311026  0              3.5727083e-05  3.8183336e-05  6.671273e-05   9.4285714    
     64800   0.00048606856  0              4.2559508e-05  4.0103891e-05  8.1477875e-05  9.4285714    
     64900   0.00047345864  0              5.0985821e-05  4.0731547e-05  7.1758651e-05  9.4285714    
     65000   0.00048454696  0              4.7098363e-05  4.2424083e-05  5.9782966e-05  9.4285714    
     65100   0.00048928041  0              3.8488893e-05  3.3069689e-05  6.763104e-05   9.4285714    
     65200   0.00047037779  0              3.7164979e-05  2.9130535e-05  6.7155792e-05  9.4285714    
     65300   0.000474477    0              3.9218249e-05  4.196618e-05   6.8795241e-05  9.4285714    
     65400   0.00047558993  0              3.8521073e-05  3.1043813e-05  7.1815292e-05  9.4285714    
     65500   0.00046258212  0              4.1593649e-05  3.414273e-05   7.5432256e-05  9.4285714    
     65600   0.00044433429  0              3.5579651e-05  5.4040477e-05  7.7356068e-05  9.4285714    
     65700   0.00045238336  0              3.9273267e-05  4.3267794e-05  6.3398702e-05  9.4285714    
     65800   0.00045926142  0              3.9114883e-05  4.3180432e-05  5.1925433e-05  9.4285714    
     65900   0.00045814994  0              3.5346175e-05  4.9168887e-05  5.5917302e-05  9.4285714    
     66000   0.00045395179  0              4.1802785e-05  4.1841434e-05  5.4654623e-05  9.4285714    
     66100   0.00044097892  0              4.303704e-05   4.8028086e-05  5.8818816e-05  9.4285714    
     66200   0.00041508101  0              4.8543666e-05  3.9621607e-05  7.3522108e-05  9.4285714    
     66300   0.00041227685  0              5.2084505e-05  4.5979245e-05  6.8430336e-05  9.4285714    
     66400   0.00039539458  0              4.6843181e-05  6.5667377e-05  6.7548286e-05  9.4285714    
     66500   0.00038647539  0              4.608784e-05   4.6277662e-05  6.9495307e-05  9.4285714    
     66600   0.00037432719  0              4.3913456e-05  3.8070862e-05  6.6935341e-05  9.4285714    
     66700   0.00035679642  0              5.5360539e-05  5.3483363e-05  7.063512e-05   9.4285714    
     66800   0.00034618795  0              5.847549e-05   4.4325179e-05  7.0488097e-05  9.4285714    
     66900   0.00032906055  0              5.8213474e-05  3.75252e-05    6.6649118e-05  9.4285714    
     67000   0.00031945785  0              6.3298441e-05  5.2701267e-05  7.7167191e-05  9.4285714    
     67100   0.00031672216  0              4.489739e-05   3.7559519e-05  7.3281523e-05  9.4285714    
     67200   0.00030445379  0              4.5513665e-05  4.0230046e-05  7.5439548e-05  9.4285714    
     67300   0.00028386109  0              5.0694754e-05  5.3700723e-05  8.5557097e-05  9.4285714    
     67400   0.00028463754  0              3.8391205e-05  3.3590941e-05  7.797623e-05   9.4285714    
     67500   0.00028212316  0              4.2863805e-05  4.5202441e-05  7.749573e-05   9.4285714    
     67600   0.00027447589  0              5.543118e-05   5.8396501e-05  7.4714483e-05  9.4285714    
     67700   0.00026388856  0              5.0592736e-05  4.4055104e-05  6.9911544e-05  9.4285714    
     67800   0.00024769801  0              6.5177148e-05  4.5745739e-05  6.5602599e-05  9.4285714    
     67900   0.00024192231  0              6.9377263e-05  4.6139865e-05  5.8414044e-05  9.4285714    
     68000   0.00023732277  0              5.0197197e-05  3.9809922e-05  5.4178627e-05  9.4285714    
     68100   0.0002230537   0              5.4643625e-05  4.3410202e-05  5.8363052e-05  9.4285714    
     68200   0.00020295655  0              5.7973425e-05  4.2934462e-05  5.3811509e-05  9.4285714    
     68300   0.0002040692   0              5.3065138e-05  3.4839799e-05  4.2275493e-05  9.4285714    
     68400   0.0001928169   0              6.1792781e-05  3.7412012e-05  4.3570824e-05  9.4285714    
     68500   0.00019326451  0              5.2340518e-05  3.8984277e-05  4.7626124e-05  9.4285714    
     68600   0.00019061041  0              3.3931824e-05  3.7677933e-05  4.0928013e-05  9.4285714    
     68700   0.00017904605  0              4.0673445e-05  4.3141559e-05  3.9727826e-05  9.4285714    
     68800   0.00017200167  0              3.8350528e-05  4.2946416e-05  3.8465748e-05  9.4285714    
     68900   0.00016728354  0              3.1344975e-05  4.3170379e-05  3.887812e-05   9.4285714    
     69000   0.00015703321  0              3.5673797e-05  4.8001887e-05  3.8324617e-05  9.4285714    
     69100   0.00014835113  0              4.4420071e-05  4.5039258e-05  3.7284097e-05  9.4285714    
     69200   0.00014631648  0              4.5177892e-05  3.9830143e-05  4.212271e-05   9.4285714    
     69300   0.00014587978  0              4.3274932e-05  3.563871e-05   4.1406359e-05  9.4285714    
     69400   0.0001418924   0              4.1983462e-05  3.3903645e-05  3.9133291e-05  9.4285714    
     69500   0.00013332024  0              4.1111435e-05  3.5405818e-05  4.5389867e-05  9.4285714    
     69600   0.00013320187  0              4.3136478e-05  3.8499769e-05  4.2978866e-05  9.4285714    
     69700   0.00013039836  0              3.9889343e-05  3.984009e-05   3.8089701e-05  9.4285714    
     69800   0.00012003394  0              4.0502669e-05  3.8418635e-05  4.4259944e-05  9.4285714    
     69900   0.00011651147  0              4.3215219e-05  3.6715848e-05  3.8146062e-05  9.4285714    
     70000   0.00012197106  0              3.5974329e-05  3.7263458e-05  3.1823087e-05  9.4285714    
     70100   0.00011813389  0              3.3261682e-05  3.922066e-05   3.7223065e-05  9.4285714    
     70200   0.00011097253  0              4.3507998e-05  4.1005238e-05  3.6828442e-05  9.4285714    
     70300   0.00010887364  0              4.2691098e-05  4.1645364e-05  3.1923473e-05  9.4285714    
     70400   0.00010916786  0              3.8897532e-05  3.8882274e-05  3.0505603e-05  9.4285714    
     70500   0.00010031774  0              4.4471407e-05  3.8144163e-05  3.4373186e-05  9.4285714    
     70600   9.1002834e-05  0              4.7098547e-05  3.649462e-05   3.426412e-05   9.4285714    
     70700   8.9186179e-05  0              4.3097819e-05  3.3856047e-05  2.6847974e-05  9.4285714    
     70800   9.1206485e-05  0              3.7704331e-05  3.2681829e-05  2.5848378e-05  9.4285714    
     70900   9.2333335e-05  0              3.5465377e-05  2.9981706e-05  2.5583227e-05  9.4285714    
     71000   9.1646266e-05  0              3.5132909e-05  2.8584216e-05  1.9282618e-05  9.4285714    
     71100   8.9976882e-05  0              3.1203655e-05  2.8088468e-05  2.108987e-05   9.4285714    
     71200   8.7702811e-05  0              2.9776889e-05  2.7094367e-05  2.4903607e-05  9.4285714    
     71300   8.6905185e-05  0              3.0520731e-05  2.732226e-05   2.3630509e-05  9.4285714    
     71400   8.5684023e-05  0              3.1640955e-05  2.8295849e-05  2.5514683e-05  9.4285714    
     71500   8.303695e-05   0              3.1906051e-05  2.8942238e-05  2.6131204e-05  9.4285714    
     71600   8.0199459e-05  0              3.0761704e-05  2.9470436e-05  2.487383e-05   9.4285714    
     71700   7.8917712e-05  0              3.2914973e-05  2.7677434e-05  2.5055145e-05  9.4285714    
     71800   8.006745e-05   0              3.1497824e-05  2.5000482e-05  2.4489101e-05  9.4285714    
     71900   7.8740588e-05  0              2.6991222e-05  2.460004e-05   2.3419712e-05  9.4285714    
     72000   7.758597e-05   0              2.8819401e-05  2.2478384e-05  2.4645592e-05  9.4285714    
     72100   7.7221401e-05  0              2.5009767e-05  1.991734e-05   2.4408972e-05  9.4285714    
     72200   7.6375029e-05  0              2.2842085e-05  2.1163227e-05  2.2915187e-05  9.4285714    
     72300   7.2834947e-05  0              2.6583555e-05  2.3097898e-05  2.3018668e-05  9.4285714    
     72400   7.2648265e-05  0              2.236431e-05   2.2607332e-05  2.3603044e-05  9.4285714    
     72500   7.3708292e-05  0              2.0776311e-05  2.25305e-05    2.4103466e-05  9.4285714    
     72600   7.1153221e-05  0              2.4306783e-05  2.313245e-05   2.3536247e-05  9.4285714    
     72700   6.9093949e-05  0              2.3601182e-05  2.178735e-05   2.3525837e-05  9.4285714    
     72800   7.0003138e-05  0              2.575131e-05   2.0944617e-05  2.5430066e-05  9.4285714    
     72900   7.097186e-05   0              2.6452603e-05  2.1328369e-05  2.53877e-05    9.4285714    
     73000   6.9754446e-05  0              2.213547e-05   2.0988145e-05  2.4646738e-05  9.4285714    
     73100   6.8919462e-05  0              2.2747069e-05  2.1416306e-05  2.4400352e-05  9.4285714    
     73200   7.0813485e-05  0              2.2484425e-05  2.0251199e-05  2.3243164e-05  9.4285714    
     73300   7.2448906e-05  0              1.9804724e-05  1.9246194e-05  2.1950811e-05  9.4285714    
     73400   7.1636811e-05  0              2.1255199e-05  2.0486399e-05  2.1055118e-05  9.4285714    
     73500   7.0735739e-05  0              2.0995952e-05  2.0423027e-05  2.0958957e-05  9.4285714    
     73600   7.103569e-05   0              2.0353207e-05  1.8013285e-05  2.1741465e-05  9.4285714    
     73700   7.1516165e-05  0              2.2806996e-05  1.7981222e-05  2.0668719e-05  9.4285714    
     73800   7.0454708e-05  0              2.2580346e-05  2.035185e-05   1.8435762e-05  9.4285714    
     73900   7.0921505e-05  0              2.1137284e-05  1.954202e-05   1.8049504e-05  9.4285714    
     74000   7.3462894e-05  0              2.0796149e-05  1.672734e-05   1.7886189e-05  9.4285714    
     74100   7.3200399e-05  0              1.9484009e-05  1.6171253e-05  1.7946802e-05  9.4285714    
     74200   7.1848724e-05  0              1.9770963e-05  1.743579e-05   1.9028311e-05  9.4285714    
     74300   7.2382347e-05  0              2.0879182e-05  1.7718467e-05  2.0981856e-05  9.4285714    
     74400   7.3931763e-05  0              2.0659065e-05  1.6936936e-05  2.2013677e-05  9.4285714    
     74500   7.4402751e-05  0              2.1252227e-05  1.8306621e-05  2.2140434e-05  9.4285714    
     74600   7.3859362e-05  0              2.1524301e-05  1.984441e-05   2.2433352e-05  9.4285714    
     74700   7.5361374e-05  0              2.0479515e-05  1.8257955e-05  2.2346749e-05  9.4285714    
     74800   7.7630509e-05  0              1.9658252e-05  1.7440486e-05  2.2082059e-05  9.4285714    
     74900   7.7455142e-05  0              1.9321421e-05  1.8948852e-05  2.2192267e-05  9.4285714    
     75000   7.6480769e-05  0              1.9864233e-05  1.958709e-05   2.2733891e-05  9.4285714    
     75100   7.7275693e-05  0              2.0777179e-05  1.8582778e-05  2.3848355e-05  9.4285714    
     75200   7.8822667e-05  0              2.0204804e-05  1.83074e-05    2.4082458e-05  9.4285714    
     75300   7.923137e-05   0              2.0681311e-05  2.0382671e-05  2.5228862e-05  9.4285714    
     75400   7.9015035e-05  0              2.1545898e-05  2.0989157e-05  2.7089143e-05  9.4285714    
     75500   8.0621162e-05  0              2.0520236e-05  1.9823266e-05  2.7897725e-05  9.4285714    
     75600   8.2299447e-05  0              1.9866765e-05  2.0164834e-05  2.7806735e-05  9.4285714    
     75700   8.1993378e-05  0              1.969152e-05   2.0690749e-05  2.7317517e-05  9.4285714    
[...]
     81700   1.7653551e-05  0              2.5412396e-05  2.4251603e-05  2.8969143e-05  9.4285714    
     81800   1.60697e-05    0              2.5869197e-05  2.308932e-05   2.7379341e-05  9.4285714    
     81900   1.5286837e-05  0              2.6529612e-05  2.5419771e-05  2.8440593e-05  9.4285714    
     82000   1.6023107e-05  0              2.5756598e-05  2.4387052e-05  2.6106537e-05  9.4285714    
     82100   1.5242285e-05  0              2.7061408e-05  2.3032818e-05  2.4388599e-05  9.4285714    
     82200   1.3697011e-05  0              2.8635719e-05  2.3780226e-05  2.4906811e-05  9.4285714    
     82300   1.3126258e-05  0              2.9891427e-05  2.2014465e-05  2.4307976e-05  9.4285714    
     82400   1.3101796e-05  0              2.974623e-05   2.1196997e-05  2.3335031e-05  9.4285714    
     82500   1.2930812e-05  0              2.776572e-05   2.1405191e-05  2.1856013e-05  9.4285714    
     82600   1.2105591e-05  0              2.677033e-05   2.1158183e-05  2.1053083e-05  9.4285714    
     82700   1.1430058e-05  0              2.6491101e-05  2.2185095e-05  2.1741395e-05  9.4285714    
     82800   1.1220674e-05  0              2.5798118e-05  2.2107127e-05  2.2026313e-05  9.4285714    
     82900   1.0833337e-05  0              2.6248963e-05  2.2128181e-05  2.2633178e-05  9.4285714    
     83000   9.6966107e-06  0              2.6264061e-05  2.2728458e-05  2.4189433e-05  9.4285714    
     83100   9.7912048e-06  0              2.5500083e-05  2.1832923e-05  2.4004267e-05  9.4285714    
     83200   1.0342776e-05  0              2.5894996e-05  2.1114752e-05  2.2781046e-05  9.4285714    
     83300   9.1053605e-06  0              2.6844449e-05  2.1683135e-05  2.3018942e-05  9.4285714    
     83400   8.1376574e-06  0              2.7698506e-05  2.1715141e-05  2.3249723e-05  9.4285714    
     83500   8.3013823e-06  0              2.7841933e-05  2.1301843e-05  2.2608819e-05  9.4285714    
     83600   7.5747246e-06  0              2.7285945e-05  2.1917666e-05  2.1940362e-05  9.4285714    
     83700   6.7051973e-06  0              2.6570578e-05  2.2457872e-05  2.1768e-05     9.4285714    
     83800   6.7732855e-06  0              2.5876203e-05  2.1870094e-05  2.1810098e-05  9.4285714    
     83900   6.455146e-06   0              2.613284e-05   2.1133229e-05  2.141307e-05   9.4285714    
     84000   6.033363e-06   0              2.5796758e-05  2.0740854e-05  2.1789962e-05  9.4285714    
     84100   6.1544361e-06  0              2.4880893e-05  2.034968e-05   2.2632001e-05  9.4285714    
     84200   5.8120515e-06  0              2.4372967e-05  2.0939262e-05  2.3739495e-05  9.4285714    
     84300   5.5925414e-06  0              2.5190413e-05  2.2054067e-05  2.5134858e-05  9.4285714    
     84400   5.9495987e-06  0              2.5163487e-05  2.2235018e-05  2.5089027e-05  9.4285714    
     84500   5.7713446e-06  0              2.5203284e-05  2.2008136e-05  2.4683255e-05  9.4285714    
     84600   5.2346414e-06  0              2.5750616e-05  2.2385286e-05  2.5060127e-05  9.4285714    
     84700   5.3677312e-06  0              2.5671418e-05  2.2504517e-05  2.477615e-05   9.4285714    
     84800   5.5545452e-06  0              2.5270776e-05  2.203669e-05   2.4371077e-05  9.4285714    
     84900   5.35857e-06    0              2.4990364e-05  2.1994432e-05  2.4434211e-05  9.4285714    
     85000   5.4081539e-06  0              2.4614554e-05  2.1826659e-05  2.4080584e-05  9.4285714    
     85100   5.6686315e-06  0              2.4255405e-05  2.1348341e-05  2.3692087e-05  9.4285714    
     85200   5.6470622e-06  0              2.4490625e-05  2.1444906e-05  2.3461274e-05  9.4285714    
     85300   5.4542991e-06  0              2.5038089e-05  2.159186e-05   2.3411228e-05  9.4285714    
     85400   5.5974388e-06  0              2.5208624e-05  2.1456353e-05  2.3090313e-05  9.4285714    
     85500   5.9109345e-06  0              2.5019187e-05  2.1326993e-05  2.2631876e-05  9.4285714    
     85600   5.8895141e-06  0              2.4816097e-05  2.1032266e-05  2.2641694e-05  9.4285714    
     85700   5.8470051e-06  0              2.4753057e-05  2.1011299e-05  2.2893303e-05  9.4285714    
     85800   6.060997e-06   0              2.4718385e-05  2.1024683e-05  2.3160395e-05  9.4285714    
     85900   6.1217894e-06  0              2.4939406e-05  2.0910983e-05  2.3606002e-05  9.4285714    
     86000   5.7550467e-06  0              2.5292227e-05  2.1210494e-05  2.3980265e-05  9.4285714    
     86100   5.6513685e-06  0              2.5336254e-05  2.1695151e-05  2.4295958e-05  9.4285714    
     86200   5.7555479e-06  0              2.5214702e-05  2.2162992e-05  2.4153262e-05  9.4285714    
     86300   5.7587322e-06  0              2.5471626e-05  2.2752108e-05  2.4566282e-05  9.4285714    
     86400   5.8389333e-06  0              2.5581374e-05  2.2866696e-05  2.5080456e-05  9.4285714    
     86500   5.9431034e-06  0              2.5603078e-05  2.2611552e-05  2.557061e-05   9.4285714    
     86600   5.9655129e-06  0              2.5809196e-05  2.2505729e-05  2.5920358e-05  9.4285714    
     86700   6.042955e-06   0              2.5516399e-05  2.207345e-05   2.4941272e-05  9.4285714    
     86800   6.2666413e-06  0              2.5017309e-05  2.1757271e-05  2.4325659e-05  9.4285714    
     86900   6.5118003e-06  0              2.4709906e-05  2.1733726e-05  2.4359289e-05  9.4285714    
     87000   6.7509257e-06  0              2.424948e-05   2.1511123e-05  2.4005052e-05  9.4285714    
     87100   6.9118143e-06  0              2.4403465e-05  2.1411555e-05  2.4138929e-05  9.4285714    
     87200   6.9983412e-06  0              2.4855429e-05  2.1301042e-05  2.4635518e-05  9.4285714    
     87300   7.2267392e-06  0              2.4726242e-05  2.1200486e-05  2.4816636e-05  9.4285714    
     87400   7.3928522e-06  0              2.4568177e-05  2.1782095e-05  2.546145e-05   9.4285714    
     87500   7.1675783e-06  0              2.4583963e-05  2.2927936e-05  2.610685e-05   9.4285714    
     87600   6.9310557e-06  0              2.4419972e-05  2.3641933e-05  2.674206e-05   9.4285714    
     87700   6.8020949e-06  0              2.4799319e-05  2.3877016e-05  2.686282e-05   9.4285714    
     87800   6.7871509e-06  0              2.5501599e-05  2.3391832e-05  2.6476337e-05  9.4285714    
     87900   7.1459737e-06  0              2.5746275e-05  2.2468174e-05  2.6106668e-05  9.4285714    
     88000   7.4791665e-06  0              2.6452673e-05  2.2371733e-05  2.6426643e-05  9.4285714    
     88100   7.4418527e-06  0              2.7237517e-05  2.2696988e-05  2.6866222e-05  9.4285714    
     88200   6.8171325e-06  0              2.835739e-05   2.2805248e-05  2.7767937e-05  9.4285714    
     88300   5.9535317e-06  0              3.0022892e-05  2.3162212e-05  2.9121854e-05  9.4285714    
     88400   5.8054385e-06  0              3.0267499e-05  2.4036541e-05  2.9451731e-05  9.4285714    
     88500   5.7381974e-06  0              2.987853e-05   2.4412659e-05  2.9022854e-05  9.4285714    
     88600   5.8193958e-06  0              2.9306631e-05  2.4291387e-05  2.9042278e-05  9.4285714    
     88700   5.7843884e-06  0              2.8474902e-05  2.407517e-05   2.9342631e-05  9.4285714    
     88800   5.36122e-06    0              2.9228687e-05  2.4074387e-05  3.0069005e-05  9.4285714    
     88900   4.9662584e-06  0              2.9640221e-05  2.4381438e-05  3.0842974e-05  9.4285714    
     89000   5.0244565e-06  0              2.9242167e-05  2.3718494e-05  3.0959647e-05  9.4285714    
     89100   5.2140172e-06  0              2.9460854e-05  2.2966219e-05  3.0745899e-05  9.4285714    
     89200   5.4241028e-06  0              2.8931798e-05  2.2787347e-05  3.0505146e-05  9.4285714    
     89300   5.354843e-06   0              2.8226483e-05  2.2430309e-05  3.0543304e-05  9.4285714    
     89400   4.9583346e-06  0              2.8529104e-05  2.2510089e-05  3.0744349e-05  9.4285714    
     89500   4.7804845e-06  0              2.8283425e-05  2.3168387e-05  3.0368794e-05  9.4285714    
     89600   4.5353969e-06  0              2.8369715e-05  2.3890917e-05  2.9944272e-05  9.4285714    
     89700   4.3528727e-06  0              2.916536e-05   2.4717547e-05  2.9897586e-05  9.4285714    
     89800   4.0677397e-06  0              2.9671051e-05  2.5069631e-05  2.9727134e-05  9.4285714    
     89900   3.4743886e-06  0              3.0546148e-05  2.5204424e-05  2.9429413e-05  9.4285714    
     90000   2.9448035e-06  0              3.1386975e-05  2.504163e-05   2.8941476e-05  9.4285714    
     90100   2.8584378e-06  0              3.0989836e-05  2.426512e-05   2.8680422e-05  9.4285714    
     90200   3.0154097e-06  0              3.0109363e-05  2.3659678e-05  2.879077e-05   9.4285714    
     90300   3.0998012e-06  0              2.9214408e-05  2.3299406e-05  2.8821376e-05  9.4285714    
     90400   3.0622205e-06  0              2.866651e-05   2.2666679e-05  2.8865145e-05  9.4285714    
     90500   2.8987354e-06  0              2.8403824e-05  2.1925714e-05  2.8481892e-05  9.4285714    
     90600   2.6710434e-06  0              2.8143313e-05  2.1522559e-05  2.8171438e-05  9.4285714    
     90700   2.4095074e-06  0              2.8048981e-05  2.1523007e-05  2.8016792e-05  9.4285714    
     90800   2.202904e-06   0              2.8166412e-05  2.1813639e-05  2.7412255e-05  9.4285714    
     90900   2.3181295e-06  0              2.8435465e-05  2.2251451e-05  2.6819024e-05  9.4285714    
     91000   2.3141951e-06  0              2.8538853e-05  2.2733208e-05  2.6507917e-05  9.4285714    
     91100   2.0683071e-06  0              2.8191515e-05  2.3157829e-05  2.609377e-05   9.4285714    
     91200   1.8857219e-06  0              2.7771042e-05  2.3580857e-05  2.55034e-05    9.4285714    
     91300   1.8327584e-06  0              2.7428616e-05  2.360497e-05   2.4609829e-05  9.4285714    
     91400   1.804747e-06   0              2.713938e-05   2.3052505e-05  2.3890628e-05  9.4285714    
     91500   1.6349771e-06  0              2.7072497e-05  2.2465059e-05  2.3592759e-05  9.4285714    
     91600   1.5216476e-06  0              2.6887207e-05  2.1845019e-05  2.327018e-05   9.4285714    
     91700   1.6141413e-06  0              2.6727574e-05  2.134873e-05   2.3175757e-05  9.4285714    
     91800   1.6435107e-06  0              2.6837186e-05  2.1372811e-05  2.3272056e-05  9.4285714    
     91900   1.5649292e-06  0              2.6814814e-05  2.149563e-05   2.3262763e-05  9.4285714    
     92000   1.5598003e-06  0              2.6894688e-05  2.1612813e-05  2.3333181e-05  9.4285714    
     92100   1.5645521e-06  0              2.7093666e-05  2.1677323e-05  2.3393885e-05  9.4285714    
     92200   1.5384794e-06  0              2.725352e-05   2.1871439e-05  2.3309607e-05  9.4285714    
     92300   1.5428705e-06  0              2.7534493e-05  2.2028165e-05  2.3281919e-05  9.4285714    
     92400   1.5481835e-06  0              2.7738128e-05  2.1877013e-05  2.3365103e-05  9.4285714    
     92500   1.5193765e-06  0              2.7807402e-05  2.1697756e-05  2.3422801e-05  9.4285714    
     92600   1.4779648e-06  0              2.7822075e-05  2.1595936e-05  2.3653604e-05  9.4285714    
     92700   1.4401385e-06  0              2.7498575e-05  2.1565328e-05  2.3855716e-05  9.4285714    
     92800   1.4263884e-06  0              2.7219859e-05  2.1753979e-05  2.3901241e-05  9.4285714    
     92900   1.4318392e-06  0              2.696367e-05   2.202186e-05   2.4060393e-05  9.4285714    
     93000   1.4336111e-06  0              2.6591513e-05  2.2195157e-05  2.4122065e-05  9.4285714    
     93100   1.4541758e-06  0              2.6692487e-05  2.2344968e-05  2.4065021e-05  9.4285714    
     93200   1.4657669e-06  0              2.7168313e-05  2.2538418e-05  2.4214674e-05  9.4285714    
     93300   1.4040886e-06  0              2.7561907e-05  2.2761637e-05  2.4475223e-05  9.4285714    
     93400   1.2988064e-06  0              2.7861831e-05  2.2852224e-05  2.4956596e-05  9.4285714    
     93500   1.2005872e-06  0              2.7794033e-05  2.2910857e-05  2.5291935e-05  9.4285714    
     93600   1.1148329e-06  0              2.7652398e-05  2.3024188e-05  2.5433821e-05  9.4285714    
     93700   1.0710007e-06  0              2.7712404e-05  2.3143904e-05  2.5669435e-05  9.4285714    
     93800   1.0923979e-06  0              2.7720612e-05  2.3112739e-05  2.5821686e-05  9.4285714    
     93900   1.1070785e-06  0              2.7887865e-05  2.3159397e-05  2.5903855e-05  9.4285714    
     94000   1.0836182e-06  0              2.8174509e-05  2.3354232e-05  2.6074704e-05  9.4285714    
     94100   1.0712532e-06  0              2.8077928e-05  2.3330714e-05  2.6150142e-05  9.4285714    
     94200   1.1089242e-06  0              2.802336e-05   2.3220275e-05  2.6308674e-05  9.4285714    
     94300   1.1709624e-06  0              2.7885676e-05  2.3027073e-05  2.647883e-05   9.4285714    
     94400   1.1698851e-06  0              2.7597204e-05  2.2765961e-05  2.6575165e-05  9.4285714    
     94500   1.1331311e-06  0              2.7664548e-05  2.2696186e-05  2.6782703e-05  9.4285714    
     94600   1.1611176e-06  0              2.7821396e-05  2.2709988e-05  2.6961488e-05  9.4285714    
     94700   1.2014763e-06  0              2.8024363e-05  2.2788622e-05  2.7146644e-05  9.4285714    
     94800   1.1833928e-06  0              2.8490371e-05  2.3037146e-05  2.7316537e-05  9.4285714    
     94900   1.1648449e-06  0              2.8748715e-05  2.3166372e-05  2.7288373e-05  9.4285714    
     95000   1.1252279e-06  0              2.8777487e-05  2.3105996e-05  2.7264426e-05  9.4285714    
     95100   1.0516851e-06  0              2.8696839e-05  2.2985372e-05  2.7310067e-05  9.4285714    
     95200   1.0245214e-06  0              2.8641497e-05  2.2873e-05     2.7310438e-05  9.4285714    
     95300   1.0235812e-06  0              2.8690066e-05  2.3000448e-05  2.7335977e-05  9.4285714    
     95400   9.6956254e-07  0              2.8724738e-05  2.3259027e-05  2.7322308e-05  9.4285714    
     95500   8.9262312e-07  0              2.8843131e-05  2.3531751e-05  2.7254991e-05  9.4285714    
     95600   8.6064987e-07  0              2.8996711e-05  2.3635882e-05  2.7093251e-05  9.4285714    
     95700   8.7096432e-07  0              2.8878604e-05  2.3473478e-05  2.6743784e-05  9.4285714    
     95800   8.5278957e-07  0              2.8703214e-05  2.3266697e-05  2.6409822e-05  9.4285714    
     95900   7.9717781e-07  0              2.8645528e-05  2.3062215e-05  2.6251555e-05  9.4285714    
     96000   7.7875968e-07  0              2.8643986e-05  2.2987641e-05  2.6323848e-05  9.4285714    
     96100   7.8525813e-07  0              2.8773044e-05  2.3055913e-05  2.6556088e-05  9.4285714    
     96200   7.7518366e-07  0              2.8878871e-05  2.3101151e-05  2.6812081e-05  9.4285714    
     96300   7.6015915e-07  0              2.8820245e-05  2.3136672e-05  2.6915584e-05  9.4285714    
     96400   7.4067407e-07  0              2.8661992e-05  2.3169734e-05  2.6801804e-05  9.4285714    
     96500   7.0061605e-07  0              2.8400346e-05  2.3121121e-05  2.6529198e-05  9.4285714    
     96600   6.6164038e-07  0              2.8306211e-05  2.3011655e-05  2.6142152e-05  9.4285714    
     96700   6.5255615e-07  0              2.8340108e-05  2.2886154e-05  2.5768282e-05  9.4285714    
     96800   6.5992528e-07  0              2.8315654e-05  2.2712955e-05  2.5506907e-05  9.4285714    
     96900   6.618124e-07   0              2.8440952e-05  2.2580367e-05  2.5361502e-05  9.4285714    
     97000   6.7139818e-07  0              2.8508432e-05  2.253211e-05   2.5304698e-05  9.4285714    
     97100   6.8703272e-07  0              2.8403291e-05  2.25734e-05    2.5272649e-05  9.4285714    
     97200   6.9368757e-07  0              2.8254045e-05  2.2793415e-05  2.5257036e-05  9.4285714    
     97300   6.9652913e-07  0              2.8016561e-05  2.3040992e-05  2.5228068e-05  9.4285714    
     97400   6.9671901e-07  0              2.7837036e-05  2.330333e-05   2.5157239e-05  9.4285714    
     97500   6.891306e-07   0              2.7789433e-05  2.3471237e-05  2.5141846e-05  9.4285714    
     97600   6.76426e-07    0              2.7838847e-05  2.3472664e-05  2.518892e-05   9.4285714    
     97700   6.5763751e-07  0              2.794167e-05   2.3370888e-05  2.5139127e-05  9.4285714    
     97800   6.4854556e-07  0              2.7951511e-05  2.3224106e-05  2.5036326e-05  9.4285714    
     97900   6.5336861e-07  0              2.7923239e-05  2.3092342e-05  2.4920514e-05  9.4285714    
     98000   6.6394525e-07  0              2.7871431e-05  2.2947013e-05  2.480383e-05   9.4285714    
     98100   6.8885885e-07  0              2.7765273e-05  2.2790639e-05  2.4801777e-05  9.4285714    
     98200   7.2201864e-07  0              2.7755504e-05  2.2661812e-05  2.4861739e-05  9.4285714    
     98300   7.3816538e-07  0              2.7765573e-05  2.258486e-05   2.4844206e-05  9.4285714    
     98400   7.3631403e-07  0              2.7757701e-05  2.2578908e-05  2.4841191e-05  9.4285714    
     98500   7.2568853e-07  0              2.7848802e-05  2.2595958e-05  2.4892777e-05  9.4285714    
     98600   7.0490905e-07  0              2.7912207e-05  2.2591875e-05  2.4898698e-05  9.4285714    
     98700   6.8484202e-07  0              2.8009272e-05  2.2597685e-05  2.4985899e-05  9.4285714    
     98800   6.6994522e-07  0              2.8202402e-05  2.2643734e-05  2.5127513e-05  9.4285714    
     98900   6.2867752e-07  0              2.8292405e-05  2.2674349e-05  2.5309578e-05  9.4285714    
     99000   5.6999626e-07  0              2.8348569e-05  2.2698075e-05  2.5569326e-05  9.4285714    
     99100   5.2675078e-07  0              2.838436e-05   2.2796837e-05  2.5828965e-05  9.4285714    
     99200   4.9993032e-07  0              2.8326221e-05  2.2925652e-05  2.6095918e-05  9.4285714    
     99300   4.8034362e-07  0              2.8358043e-05  2.3048697e-05  2.6357518e-05  9.4285714    
     99400   4.633455e-07   0              2.8395008e-05  2.3187019e-05  2.6590148e-05  9.4285714    
     99500   4.423417e-07   0              2.840813e-05   2.3327273e-05  2.679518e-05   9.4285714    
     99600   4.2336865e-07  0              2.8409328e-05  2.3446846e-05  2.6875881e-05  9.4285714    
     99700   4.0950396e-07  0              2.831088e-05   2.347619e-05   2.6867125e-05  9.4285714    
     99800   3.8946719e-07  0              2.8187415e-05  2.3361958e-05  2.6862163e-05  9.4285714    
     99900   3.5789226e-07  0              2.8087326e-05  2.3222723e-05  2.6889683e-05  9.4285714    
    100000   3.23165e-07    0              2.7995448e-05  2.3145322e-05  2.7024051e-05  9.4285714    
Loop time of 205.426 on 4 procs for 100000 steps with 2520 atoms

Performance: 2102947.143 tau/day, 486.793 timesteps/s
98.8% CPU use with 4 MPI tasks x no OpenMP threads

MPI task timing breakdown:
Section |  min time  |  avg time  |  max time  |%varavg| %total
---------------------------------------------------------------
Pair    | 0.17838    | 1.2371     | 4.1955     | 153.6 |  0.60
Bond    | 3.018      | 52.249     | 174.87     | 982.2 | 25.43
Neigh   | 3.0057     | 3.0272     | 3.0411     |   0.8 |  1.47
Comm    | 2.8631     | 70.899     | 175.73     | 758.8 | 34.51
Output  | 0.1676     | 1.5052     | 3.0742     | 109.6 |  0.73
Modify  | 1.0679     | 5.7589     | 17.359     | 279.9 |  2.80
Other   |            | 70.75      |            |       | 34.44

Nlocal:            630 ave        2513 max           0 min
Histogram: 3 0 0 0 0 0 0 0 0 1
Nghost:          39.25 ave         150 max           0 min
Histogram: 3 0 0 0 0 0 0 0 0 1
Neighs:           2458 ave        9821 max           0 min
Histogram: 3 0 0 0 0 0 0 0 0 1

Total # of neighbors = 9832
Ave neighs/atom = 3.9015873
Ave special neighs/atom = 36.31746
Neighbor list builds = 5178
Dangerous builds = 314
Total wall time: 0:03:25
