LAMMPS (30 Jul 2021)
units           lj
dimension       3
boundary        m m m
atom_style      sphere/bpm
special_bonds   lj 0.0 1.0 1.0 coul 1.0 1.0 1.0
newton          on off
comm_modify     vel yes cutoff 3.3
region          box block -15 15 -15 15 0 60.0
create_box      1 box bond/types 1 extra/bond/per/atom 15 extra/special/per/atom 50
Created orthogonal box = (-15.000000 -15.000000 0.0000000) to (15.000000 15.000000 60.000000)
  1 by 1 by 1 MPI processor grid

molecule        my_mol "rect.mol"
Read molecule template my_mol:
  1 molecules
  63 atoms with max type 1
  297 bonds with max type 1
  0 angles with max type 0
  0 dihedrals with max type 0
  0 impropers with max type 0
region          wall_cyl cylinder z 0.0 0.0 10.0 EDGE EDGE side in
region          dropzone cylinder z 0.0 0.0 10.0 40.0 50.0 side in

pair_style      gran/hertz/history 1.0 NULL 0.5 NULL 0.1 1
bond_style      bpm/rotational
pair_coeff      1 1
bond_coeff      1 1.0 0.2 0.01 0.01 2.0 0.4 0.02 0.02 0.2 0.04 0.002 0.002

compute         nbond all nbond/atom
compute         tbond all reduce sum c_nbond
compute_modify  thermo_temp dynamic/dof yes

fix             1 all wall/gran hertz/history 1.0 NULL 0.5 NULL 0.1 1 zplane 0.0 NULL
fix             2 all wall/gran/region hertz/history 1.0 NULL 0.5 NULL 0.1 1 region wall_cyl
fix             3 all gravity 1e-4 vector 0 0 -1
fix             4 all deposit 40 0 1500 712511343 mol my_mol region dropzone near 2.0 vz -0.05 -0.05
fix             5 all nve/sphere/bpm
fix             6 all update/special/bonds

timestep        0.05
thermo_style    custom step ke pe pxx pyy pzz c_tbond
thermo          100
dump            1 all custom 500 atomDump id radius x y z c_nbond mol

run             100000
Neighbor list info ...
  update every 1 steps, delay 10 steps, check yes
  max neighbors/atom: 2000, page size: 100000
  master list distance cutoff = 1.3
  ghost atom cutoff = 3.3
  binsize = 0.65, bins = 47 47 93
  1 neighbor lists, perpetual/occasional/extra = 1 0 0
  (1) pair gran/hertz/history, perpetual
      attributes: half, newton on, size, history
      pair build: half/size/bin/newton
      stencil: half/bin/3d
      bin: standard
Per MPI rank memory allocation (min/avg/max) = 7.510 | 7.510 | 7.510 Mbytes
Step KinEng PotEng Pxx Pyy Pzz c_tbond 
       0           -0            0            0            0            0            0 
     100 0.0018350004   -4.7142847 -1.4952358e-05 -1.3419249e-05 -1.2232534e-06    9.4285714 
     200 0.0026448865   -4.7142836 2.4009175e-06 3.4985286e-06 4.4774541e-06    9.4285714 
     300 0.0037671165     -4.71428 7.7868315e-06 4.3344542e-06 5.2003707e-06    9.4285714 
     400 0.0060866155   -4.7142466 -2.6407137e-05 -4.6012096e-06 -7.2652236e-06    9.4285714 
     500 0.0074581085   -4.7142677  2.91441e-05 2.1596938e-05 1.7547302e-05    9.4285714 
     600 0.0078583344   -4.7142826 -1.5003346e-06 1.4512508e-05 2.9703819e-06    9.4285714 
     700 0.0075360513   -4.7142727 -2.5876771e-06 1.2941955e-05 1.8800678e-06    9.4285714 
     800 0.0073708697   -4.7142811 2.342014e-05 1.3677972e-05 1.7951529e-05    9.4285714 
     900 0.0075293135   -4.7142781 -1.0363878e-05 1.3616086e-05 -4.4997782e-06    9.4285714 
    1000 0.0075664914   -4.7142805 9.7952433e-06 1.4238252e-05 1.0500218e-05    9.4285714 
    1100 0.0075487959   -4.7142816 1.3144826e-05 1.4347122e-05 1.3503414e-05    9.4285714 
    1200 0.0075161044    -4.714269 -5.7314502e-06 9.4758079e-06 -3.9561706e-06    9.4285714 
    1300 0.0075736256   -4.7142839 1.1243108e-05 1.7774357e-05 1.3346305e-05    9.4285714 
    1400 0.0076065814   -4.7142688 6.0289115e-06 1.4598083e-05 8.0109348e-06    9.4285714 
    1500 0.0075850039   -4.7142836 9.8106843e-07 7.3175578e-06 1.3244496e-06    9.4285714 
    1600 0.0059673005   -4.7142772 5.4481504e-06 2.0461455e-05 1.0148563e-05    9.4285714 
    1700  0.008060977   -4.7142767 2.9012609e-06 2.2950155e-05 1.3486974e-06    9.4285714 
    1800 0.0087747918   -4.7142819 7.4904656e-06 3.6100052e-05 1.7017909e-05    9.4285714 
    1900 0.0087089259   -4.7142751 8.357802e-06 4.0019544e-05 1.680366e-05    9.4285714 
    2000 0.0087016626   -4.7142836 6.3761243e-06 2.3991468e-05 6.5215381e-06    9.4285714 
    2100  0.008427332   -4.7142785 9.6989453e-06 3.2889581e-05 1.6275771e-05    9.4285714 
    2200 0.0083664952   -4.7142818 7.176817e-06 3.0276432e-05 5.9757096e-06    9.4285714 
    2300 0.0083480746   -4.7142791 1.0583095e-05 2.448771e-05 1.3325786e-05    9.4285714 
    2400 0.0082989793   -4.7142829 1.2568526e-05 3.5256163e-05 1.3898753e-05    9.4285714 
    2500 0.0083834043    -4.714283 8.1815532e-06 2.6950039e-05 7.3853891e-06    9.4285714 
    2600 0.0084024866   -4.7142832 1.0774493e-05 2.8041987e-05 1.4089582e-05    9.4285714 
    2700 0.0083048258   -4.7142846 1.2046208e-05 3.1705653e-05 1.325036e-05    9.4285714 
    2800 0.0073772986   -4.7142715 8.6198824e-06 1.9039864e-05 1.1085512e-05    9.4285714 
    2900 0.0072860451   -4.7142624 1.1891652e-05 1.8218987e-05 1.3595365e-05    9.4285714 
    3000 0.0073542744   -4.7142745 9.9651799e-06 1.6285545e-05 1.2546119e-05    9.4285714 
    3100 0.0050337959   -4.7142816 -8.4319836e-06 5.6227207e-06 1.2853509e-05    9.4285714 
    3200 0.0046668635   -4.7142709 -1.6368072e-05 -3.17067e-07 9.9751699e-06    9.4285714 
    3300 0.0047886997   -4.7142803 2.0946846e-06 8.6138403e-06 1.5568577e-05    9.4285714 
    3400 0.0048926937   -4.7142823 1.1568093e-05 1.6320968e-05 1.9143213e-05    9.4285714 
    3500 0.0048678488   -4.7142781 1.3448921e-05 1.7493352e-05 1.9488121e-05    9.4285714 
    3600 0.0047353657   -4.7142828 1.1700456e-05 1.2677209e-05 1.755821e-05    9.4285714 
    3700 0.0045834985   -4.7142758 9.7774984e-06 1.6781792e-05 1.3416903e-05    9.4285714 
    3800 0.0045915482   -4.7142684 7.1884339e-06 1.4354611e-05 1.4317569e-05    9.4285714 
    3900 0.0048205935   -4.7142818 9.8986884e-06 1.1854311e-05 1.8746075e-05    9.4285714 
    4000 0.0049853192   -4.7142848 1.0167455e-05 1.760873e-05 1.6284384e-05    9.4285714 
    4100 0.0047076001   -4.7142778 6.2590136e-06 1.4085782e-05 2.0992834e-05    9.4285714 
    4200 0.0035992627   -4.7142804 -3.1373644e-05 -2.9347298e-05 9.2692347e-06    9.4285714 
    4300 0.0033651005   -4.7142802 -2.3099597e-05 -1.8493562e-05 7.0898163e-06    9.4285714 
    4400 0.0034474965   -4.7142725 1.2094981e-05 1.4622497e-05 2.7835335e-05    9.4285714 
    4500 0.0035102662     -4.71428 2.1633007e-06 6.2829581e-06 1.5722415e-05    9.4285714 
    4600 0.0030538555   -4.7142808 3.1538558e-06 4.2505368e-06 1.8124067e-05    9.4285714 
    4700 0.0031841314   -4.7142823 1.2203554e-05 1.1505239e-05 3.6458167e-05    9.4285714 
    4800 0.0032104065   -4.7142829 8.6830164e-06 7.7853357e-06 2.7983239e-05    9.4285714 
    4900 0.0030545791   -4.7142805 4.4562634e-06 -2.300673e-06 1.8723151e-05    9.4285714 
    5000 0.0030341587   -4.7142811 4.1470981e-06 -1.3422263e-05 3.0241014e-05    9.4285714 
    5100 0.0031218351   -4.7142847 4.3294152e-06 -1.5226843e-05 3.037912e-05    9.4285714 
    5200 0.0031075791   -4.7142824 6.2396634e-06 -1.026582e-06 2.8474574e-05    9.4285714 
    5300 0.0030971804    -4.714278 5.7184274e-06 2.7343244e-06 2.1969834e-05    9.4285714 
    5400 0.0032655886    -4.714285 6.4600436e-06 6.366647e-06 2.7999963e-05    9.4285714 
    5500 0.0033078344   -4.7142841 7.9290988e-06 1.2254361e-05 3.9482333e-05    9.4285714 
    5600 0.0032364471   -4.7142798 6.1234404e-06 4.9884485e-06 2.363239e-05    9.4285714 
    5700 0.0033181477   -4.7142846 6.386863e-06 7.6799651e-06 2.444522e-05    9.4285714 
    5800 0.0033361278   -4.7142841 9.3031619e-06 1.3982741e-05 3.4805953e-05    9.4285714 
    5900 0.0033067687   -4.7142831 5.4827276e-06 4.141946e-06 2.7482332e-05    9.4285714 
    6000 0.0027689817   -4.7142794 -7.4605788e-06 -8.0999927e-06 1.4793631e-05    9.4285714 
    6100 0.0026613204   -4.7142826 -1.2246381e-05 -1.2089415e-05 1.5993189e-05    9.4285714 
    6200 0.0026407622   -4.7142625 1.2228456e-05 1.4925079e-05 3.1009041e-05    9.4285714 
    6300 0.0025129843   -4.7142773 -1.7041068e-05 -1.0967132e-05 2.3688216e-05    9.4285714 
    6400 0.0034367476   -4.7142804 -1.5599931e-05 -2.5715524e-05 1.1133846e-05    9.4285714 
    6500 0.0039526936   -4.7142767 1.9551919e-05 1.6372803e-05 2.995376e-05    9.4285714 
    6600 0.0039178785   -4.7142686 9.6832405e-06 2.2172442e-05 3.0932177e-05    9.4285714 
    6700   0.00381646    -4.714273 -2.7077443e-07 5.6194835e-06 2.0136301e-05    9.4285714 
    6800 0.0038317282   -4.7142761 3.1330438e-05 1.9879281e-05 4.1770652e-05    9.4285714 
    6900 0.0036860192   -4.7142791 1.3672502e-05 -2.315116e-06 4.0287029e-05    9.4285714 
    7000 0.0031397302   -4.7142682 6.1230533e-06 -3.634782e-05 2.0113033e-05    9.4285714 
    7100 0.0031062646   -4.7142578 9.7891866e-06 -1.1903464e-05 3.8487858e-05    9.4285714 
    7200 0.0035310624   -4.7142779 2.1104359e-05 -1.4279228e-05 5.0866682e-05    9.4285714 
    7300 0.0037256457    -4.714283 3.209857e-05 5.3366904e-06 4.9924463e-05    9.4285714 
    7400 0.0036183763    -4.714269 -2.9036232e-06 1.8212626e-05 3.5625423e-05    9.4285714 
    7500 0.0037194131    -4.714276 3.5400579e-06 6.0425587e-06 3.3391206e-05    9.4285714 
    7600 0.0034998963    -4.714285 2.0840607e-05 2.0232103e-05 4.2628317e-05    9.4285714 
    7700 0.0034901962   -4.7142769 1.1001749e-05 1.8069835e-05 3.6347915e-05    9.4285714 
    7800 0.0036523545   -4.7142779 3.3425415e-06 1.0599205e-05 3.4510975e-05    9.4285714 
    7900 0.0040250594   -4.7142817 4.059014e-06 1.8176788e-05 3.2156906e-05    9.4285714 
    8000 0.0044512121   -4.7142811 2.8026081e-05 1.583968e-05 3.5880238e-05    9.4285714 
    8100 0.0049660908   -4.7142813 2.6616418e-05 1.1210326e-05 3.3793064e-05    9.4285714 
    8200 0.0051394397   -4.7142785 2.5104155e-05 -3.9596979e-06 3.722421e-05    9.4285714 
    8300 0.0050953458   -4.7142772 3.4855062e-05 -4.1583281e-06 3.9814268e-05    9.4285714 
    8400 0.0052765129   -4.7142833 4.1717465e-05 7.8419525e-06 3.5098869e-05    9.4285714 
    8500 0.0053422344    -4.714283 3.5875791e-05 8.7167378e-06 5.6556334e-05    9.4285714 
    8600 0.0051949467   -4.7142757 2.8680914e-05 1.2039892e-05 5.1463281e-05    9.4285714 
    8700 0.0052661124   -4.7142818 3.3742171e-05 1.3900348e-05 3.4296617e-05    9.4285714 
    8800 0.0054374336    -4.714285 3.0744041e-05 8.9686419e-06 6.0174371e-05    9.4285714 
    8900 0.0053756411   -4.7142806 3.2270678e-05 1.4601555e-05 5.4690431e-05    9.4285714 
    9000 0.0053513602   -4.7142825 3.2707594e-05 1.3622959e-05 4.2467194e-05    9.4285714 
    9100 0.0048583462   -4.7142844 3.3544037e-05 1.4560902e-05 5.7876331e-05    9.4285714 
    9200 0.0049036455   -4.7142829 3.7043389e-05 1.8906672e-05 5.4239393e-05    9.4285714 
    9300 0.0048728297    -4.714284 3.0272074e-05 1.0439597e-05 5.8502965e-05    9.4285714 
    9400  0.004695311   -4.7142839 2.6574458e-05 1.8727884e-05 5.7158486e-05    9.4285714 
    9500 0.0046368525   -4.7142821 2.6890322e-05 2.233081e-05 5.7305818e-05    9.4285714 
    9600 0.0045731106    -4.714275 3.376527e-05 1.6278618e-05 7.4839206e-05    9.4285714 
    9700 0.0045210556   -4.7142752 1.6911434e-05 1.5671756e-05 5.5103883e-05    9.4285714 
    9800  0.004669058   -4.7142788 2.1211826e-05 1.754775e-05 5.4285693e-05    9.4285714 
    9900 0.0048475458   -4.7142841 4.1292334e-05 2.3525582e-05 6.7587269e-05    9.4285714 
   10000 0.0047748556    -4.714284 1.8549207e-05 1.024854e-05 5.5518527e-05    9.4285714 
   10100  0.004607819   -4.7142795 1.3431866e-05 4.4653347e-06 5.1605148e-05    9.4285714 
   10200 0.0046058541   -4.7142818 9.3186734e-06 7.8432738e-06 5.8052962e-05    9.4285714 
   10300 0.0045744643   -4.7142845 -1.6192412e-05 -3.1703566e-06 5.7296626e-05    9.4285714 
   10400 0.0042916807   -4.7142768 -4.236192e-05 1.7976385e-05  5.76178e-05    9.4285714 
   10500 0.0043073933   -4.7142753 -4.0059842e-05 1.0921413e-05 5.6207624e-05    9.4285714 
   10600 0.0045612673   -4.7142821 1.0170099e-05 2.331982e-05 4.8364557e-05    9.4285714 
   10700 0.0054866392   -4.7142815 2.2257739e-05 7.2976211e-05 6.560597e-05    9.4285714 
   10800 0.0058051726   -4.7142773 8.8744762e-06 2.5329518e-05 7.1155805e-05    9.4285714 
   10900 0.0057009262    -4.714281 1.0142709e-05 2.1247162e-05 6.298131e-05    9.4285714 
   11000 0.0057842643    -4.714283 1.391631e-05 7.0910303e-05 7.4720703e-05    9.4285714 
   11100 0.0057980972   -4.7142798 1.6509238e-05 4.6643484e-05 7.0715006e-05    9.4285714 
   11200 0.0057183542   -4.7142743 1.5309415e-05 3.805824e-05 6.9294024e-05    9.4285714 
   11300 0.0054292945   -4.7142815 9.5894752e-06 3.546016e-05 4.2324372e-05    9.4285714 
   11400 0.0052373967   -4.7142793 1.1355496e-05 3.836308e-06 1.0078659e-05    9.4285714 
   11500 0.0053496759   -4.7142584 1.2217701e-05 5.2477138e-05 7.1219435e-05    9.4285714 
   11600 0.0054219323   -4.7142776 1.209997e-05 5.5427326e-05 6.361181e-05    9.4285714 
   11700 0.0054476705   -4.7142841 7.7643649e-06 2.0350139e-05 5.1808602e-05    9.4285714 
   11800 0.0051968972   -4.7142775 1.3078814e-05 4.9366102e-05 5.3887386e-05    9.4285714 
   11900 0.0050226144   -4.7142762 1.022748e-05 -9.3277927e-07 5.2839528e-05    9.4285714 
   12000 0.0051468502   -4.7142786 8.1695713e-06 2.5695194e-05 5.2808343e-05    9.4285714 
   12100 0.0048714487   -4.7142831 1.1192092e-05 5.8121129e-05 4.0491175e-05    9.4285714 
   12200 0.0048727463    -4.714281 9.5527097e-06 2.4531028e-05 5.3861009e-05    9.4285714 
   12300 0.0048677682   -4.7142745 1.5986509e-05 4.2562572e-05 6.8718914e-05    9.4285714 
   12400 0.0050652333    -4.714284 1.3602349e-05 6.718973e-05 5.5249685e-05    9.4285714 
   12500 0.0050841332   -4.7142842 2.5307064e-05 5.5840292e-05 8.0668188e-05    9.4285714 
   12600 0.0047212717   -4.7142811 1.4622117e-05 2.1694817e-05 5.1597662e-05    9.4285714 
   12700 0.0042675085   -4.7142798 -8.883711e-06 -3.3482335e-05 2.6280041e-05    9.4285714 
   12800 0.0043068913   -4.7142813 2.203984e-05 1.7751116e-05 8.5428604e-05    9.4285714 
   12900 0.0042641798   -4.7142768 3.5402247e-05 5.043008e-05 7.2889153e-05    9.4285714 
   13000  0.004115505   -4.7142793 -5.6465558e-06 2.704517e-05 3.5342748e-05    9.4285714 
   13100 0.0041665721   -4.7142794 2.3933885e-05 2.8848877e-05 -5.878205e-06    9.4285714 
   13200 0.0041738593   -4.7142813 2.967576e-05 3.6377865e-05 2.7985848e-05    9.4285714 
   13300 0.0042583152   -4.7142821 1.0917336e-05 2.6345256e-05 5.201179e-05    9.4285714 
   13400 0.0042690979   -4.7142768 1.9938874e-05 3.4580763e-05 5.692194e-05    9.4285714 
   13500 0.0043443987   -4.7142829 6.3848177e-06 4.2214607e-05 9.9667904e-05    9.4285714 
   13600 0.0039435204   -4.7142828 3.1227709e-05 7.4517788e-06 7.119048e-05    9.4285714 
   13700 0.0035798612   -4.7142655 2.8503134e-05 9.0281553e-06 3.856119e-05    9.4285714 
   13800 0.0038259598    -4.714251 -4.1095874e-06 1.0604198e-05 4.6382375e-05    9.4285714 
   13900 0.0041863923   -4.7142604 3.7109027e-05 9.4562422e-06 6.6705568e-05    9.4285714 
   14000 0.0048136864   -4.7142843 3.955162e-05 4.7195598e-05 6.4860798e-05    9.4285714 
   14100 0.0047855362   -4.7142783 2.3925039e-05 4.2311403e-05 7.0388388e-05    9.4285714 
   14200 0.0046304353   -4.7142637 3.0826655e-05 4.160884e-05 6.3336345e-05    9.4285714 
   14300 0.0048180942   -4.7142794 2.7923714e-05 3.9069628e-05 6.0256985e-05    9.4285714 
   14400 0.0049176536   -4.7142822 4.4432245e-05 5.0881492e-05 7.9720745e-05    9.4285714 
   14500 0.0048369572   -4.7142805 3.6700439e-05 4.5648908e-05 6.7882029e-05    9.4285714 
   14600  0.004748273   -4.7142767 1.7350598e-05 3.4347128e-05 6.239678e-05    9.4285714 
   14700 0.0047523428   -4.7142753 3.6350522e-05 4.0389958e-05 6.5314142e-05    9.4285714 
   14800 0.0045197221   -4.7142808 3.954212e-05 4.7289855e-05 7.8265961e-05    9.4285714 
   14900 0.0040736002   -4.7142707 2.6277456e-05 5.8765446e-07 7.3462619e-05    9.4285714 
   15000 0.0040273962   -4.7142587 2.3488124e-05 -3.0315146e-06 5.1210568e-05    9.4285714 
   15100 0.0042753796   -4.7142724 2.0011495e-05 5.0182014e-05 7.8578926e-05    9.4285714 
   15200 0.0049225323   -4.7142803 6.2130422e-05 3.0587976e-05 9.2876858e-05    9.4285714 
   15300 0.0050318348   -4.7142682 4.3973037e-05 2.019748e-05 6.5105276e-05    9.4285714 
   15400 0.0051120536   -4.7142698 4.2494018e-05 2.5627284e-05 9.5301829e-05    9.4285714 
   15500 0.0053207781   -4.7142812 6.7664456e-05 3.5141602e-05 8.8309309e-05    9.4285714 
   15600  0.005293582   -4.7142818 6.7400773e-05 3.721021e-05  8.38008e-05    9.4285714 
   15700 0.0050946068   -4.7142745 3.8999283e-05 2.379051e-05 9.3280853e-05    9.4285714 
   15800 0.0051580439   -4.7142805 4.4758499e-05 2.1718368e-05 6.9739549e-05    9.4285714 
   15900 0.0049767732   -4.7142814 6.2228722e-05 2.2014722e-05 8.9513151e-05    9.4285714 
   16000 0.0047976208   -4.7142791 3.7394549e-05 2.5834739e-05 7.246238e-05    9.4285714 
   16100 0.0045923945   -4.7142692 6.2030899e-05 2.6444418e-05 6.4534889e-05    9.4285714 
   16200 0.0046918948    -4.714276 6.5106723e-05 2.1993576e-05 8.6979154e-05    9.4285714 
   16300 0.0048586219   -4.7142811 4.358005e-05 3.3873352e-05 6.6312622e-05    9.4285714 
   16400 0.0045897569   -4.7142781 5.7502612e-05 3.3279368e-05 8.3391302e-05    9.4285714 
   16500 0.0045256391   -4.7142783 3.2746026e-05 1.651973e-05 7.1351015e-05    9.4285714 
   16600 0.0042464205   -4.7142765 5.8682379e-05 1.0077021e-06 6.8327201e-05    9.4285714 
   16700 0.0041670304   -4.7142755 5.7066092e-05 3.6833707e-05 4.5806783e-05    9.4285714 
   16800 0.0042144967    -4.714277 6.8927591e-05 2.9260513e-05 5.7005856e-05    9.4285714 
   16900 0.0042354962   -4.7142753 7.6245331e-05 2.3551827e-06 7.9522994e-05    9.4285714 
   17000 0.0043689146   -4.7142773 4.8522901e-05 1.3460475e-05 4.4744287e-05    9.4285714 
   17100 0.0043626594     -4.71428 2.7962223e-05 -3.2439675e-05 6.2331938e-05    9.4285714 
   17200 0.0043193718    -4.714277 1.5338188e-05 -3.4456276e-05 3.9732476e-05    9.4285714 
   17300 0.0043545657   -4.7142639 4.6810884e-05 1.1882665e-05 4.7903825e-05    9.4285714 
   17400  0.004407318   -4.7142675 4.6665325e-05 6.2862841e-05 6.1079437e-05    9.4285714 
   17500 0.0047322304   -4.7142807 6.7216967e-05 4.2909797e-05 5.5328869e-05    9.4285714 
   17600 0.0045864683   -4.7142798 8.071462e-05 6.134346e-05 7.0790924e-05    9.4285714 
   17700 0.0043299704   -4.7142742 1.9793903e-05 4.6606138e-05 4.5705282e-05    9.4285714 
   17800 0.0043786073   -4.7142787 4.3956203e-05 2.1763527e-05 3.7119067e-05    9.4285714 
   17900 0.0044120236   -4.7142817 7.0249694e-05 7.5100161e-05 6.6748598e-05    9.4285714 
   18000 0.0041959005   -4.7142755 2.3128343e-05 5.4018284e-05 5.8999433e-05    9.4285714 
   18100 0.0034544232   -4.7142721 1.7391126e-05 2.4815145e-05 6.7493902e-05    9.4285714 
   18200 0.0034583247   -4.7142767 1.9580653e-05 5.0168254e-05 3.8599969e-05    9.4285714 
   18300 0.0036769652   -4.7142812 3.1999935e-05 4.626352e-05 3.6820432e-05    9.4285714 
   18400  0.003542457   -4.7142799  4.96431e-05 2.5172922e-05 5.3111097e-05    9.4285714 
   18500 0.0034434392   -4.7142764 1.4234643e-05 3.8687269e-05 1.952651e-06    9.4285714 
   18600 0.0035112886   -4.7142757 2.3701022e-05 3.7405649e-05 3.9268284e-05    9.4285714 
   18700 0.0035441894   -4.7142759 4.5523843e-05 5.0096854e-05 7.8557351e-05    9.4285714 
   18800 0.0034522581   -4.7142807 1.9172827e-05 4.1369571e-05 3.5306122e-05    9.4285714 
   18900 0.0033330564   -4.7142759 2.6222336e-05 1.6111907e-05 4.3437486e-05    9.4285714 
   19000 0.0034602509   -4.7142777 3.9354073e-05 4.7635319e-05 5.321042e-05    9.4285714 
   19100 0.0035373952   -4.7142827 2.149967e-05 5.7529336e-05 5.4662962e-05    9.4285714 
   19200 0.0031974269   -4.7142795 4.6521393e-06 1.3385357e-05 6.2178217e-05    9.4285714 
   19300 0.0027305756   -4.7142781 2.4635662e-06 -6.5118569e-07 4.9518368e-05    9.4285714 
   19400 0.0029207784   -4.7142775 -8.0421471e-06 2.5186899e-05 5.068164e-05    9.4285714 
   19500 0.0030859179   -4.7142753 5.4212731e-05 3.2771826e-05 6.8624416e-05    9.4285714 
   19600 0.0029520352   -4.7142823 1.8998847e-05 3.1417972e-05 6.3433962e-05    9.4285714 
   19700 0.0029232933    -4.714282 2.9106866e-05 2.6763373e-05 5.1690381e-05    9.4285714 
   19800 0.0029362558   -4.7142801 4.9086206e-05 4.1563066e-05 5.6566562e-05    9.4285714 
   19900 0.0029590979   -4.7142823 2.1729461e-06 3.6336745e-05 6.063653e-05    9.4285714 
   20000 0.0029737109   -4.7142835 4.7984894e-05 2.8608401e-05 6.5087684e-05    9.4285714 
   20100 0.0029124921   -4.7142825 4.3292067e-05 3.3551479e-05 5.4062394e-05    9.4285714 
   20200 0.0028933318   -4.7142815 7.4943307e-06 3.3595541e-05 6.1416099e-05    9.4285714 
   20300 0.0029129466   -4.7142819 3.7458402e-05 4.3567905e-05 7.6913433e-05    9.4285714 
   20400 0.0028983167   -4.7142818 2.9674595e-05 2.8173485e-05 6.116006e-05    9.4285714 
   20500 0.0028459511   -4.7142834 2.3328156e-05 -1.7229926e-06 5.8656938e-05    9.4285714 
   20600 0.0028751302   -4.7142822 3.1074779e-05 1.8736637e-05 6.9578993e-05    9.4285714 
   20700  0.002912501   -4.7142815 2.1939627e-05 3.5323362e-05 6.5913158e-05    9.4285714 
   20800 0.0029477103    -4.714284 3.3392853e-05 2.1554741e-05 6.1003016e-05    9.4285714 
   20900 0.0029066998   -4.7142839 3.5066527e-05 3.9798806e-05 6.0715847e-05    9.4285714 
   21000 0.0028720361   -4.7142818 1.299136e-05 3.8575051e-05 6.3982307e-05    9.4285714 
   21100 0.0028631244   -4.7142836 1.2940523e-05 1.5176819e-05 6.8206902e-05    9.4285714 
   21200 0.0030751291   -4.7142825 2.7942565e-05 3.0293027e-05 5.353623e-05    9.4285714 
   21300 0.0031225596   -4.7142824 3.1264357e-05 3.5236412e-05 5.815032e-05    9.4285714 
   21400 0.0032060457   -4.7142831 3.0198813e-05 3.4004434e-05 7.9522139e-05    9.4285714 
   21500 0.0032314386   -4.7142837 4.2168756e-05 4.2748112e-05 7.3721407e-05    9.4285714 
   21600 0.0032381818   -4.7142841 4.3007552e-05 3.1045264e-05 6.4676682e-05    9.4285714 
   21700  0.003191823   -4.7142844 2.9358292e-05 3.0811279e-05 6.2153923e-05    9.4285714 
   21800 0.0031599553   -4.7142834 3.3291992e-05 3.4104204e-05 7.0812317e-05    9.4285714 
   21900 0.0030277794   -4.7142814 3.2809732e-05 2.9278292e-05 5.5900196e-05    9.4285714 
   22000  0.002992521    -4.714281 3.0857187e-05 3.4566662e-05 4.266216e-05    9.4285714 
   22100 0.0029952499   -4.7142811 5.0522009e-05 3.7581727e-05 7.8085708e-05    9.4285714 
   22200 0.0030054809   -4.7142833 3.9474037e-05 3.5047639e-05 7.7641919e-05    9.4285714 
   22300 0.0028928883   -4.7142806 3.4705229e-05 3.6401017e-05 6.8793827e-05    9.4285714 
   22400 0.0029681852    -4.714281 3.932701e-05 3.7633139e-05 6.6542066e-05    9.4285714 
   22500 0.0030011148   -4.7142828 3.2892224e-05 3.6494394e-05 7.5573152e-05    9.4285714 
   22600 0.0027783154   -4.7142807 4.0444718e-05 2.3277662e-05 6.2547993e-05    9.4285714 
   22700 0.0027124275   -4.7142795 3.3266655e-05 2.1915817e-05 4.1423897e-05    9.4285714 
   22800 0.0026798805   -4.7142803 2.5711421e-05 2.3653033e-05 8.4468009e-05    9.4285714 
   22900 0.0026860018   -4.7142827 3.2749424e-05 2.5990453e-05 5.4254077e-05    9.4285714 
   23000 0.0025151181   -4.7142817 2.0931812e-05 1.2682344e-05 5.595496e-05    9.4285714 
   23100 0.0025681365   -4.7142821 1.2919397e-05 1.5309647e-05 6.7663059e-05    9.4285714 
   23200 0.0026138217   -4.7142844 2.9198308e-05 8.9145293e-06 4.5927536e-05    9.4285714 
   23300 0.0025538605   -4.7142825 1.5601701e-05 2.5666261e-06 5.9681871e-05    9.4285714 
   23400 0.0025780035   -4.7142831 1.5531381e-05 1.6262089e-05 4.8391933e-05    9.4285714 
   23500 0.0026290842   -4.7142841 4.0007382e-05 1.9358699e-05 5.6391547e-05    9.4285714 
   23600 0.0026374898   -4.7142837 4.2415924e-05 2.6680034e-05 7.8943366e-05    9.4285714 
   23700 0.0026600397   -4.7142848 3.1274054e-05 2.2858836e-05 5.5844499e-05    9.4285714 
   23800 0.0026286487   -4.7142843 3.134401e-05 1.673325e-05 6.7045383e-05    9.4285714 
   23900 0.0025976907   -4.7142836 1.1211156e-05 1.4847731e-05 7.4660624e-05    9.4285714 
   24000 0.0026608146   -4.7142848 3.4603723e-05 1.6499341e-05 7.2216335e-05    9.4285714 
   24100 0.0025633506   -4.7142845 3.867442e-05 1.8925086e-05 6.9530966e-05    9.4285714 
   24200 0.0024959363   -4.7142826 5.2079204e-06 1.0677147e-05 6.603799e-05    9.4285714 
   24300 0.0025191041    -4.714284 3.0854418e-05 1.4458004e-05 6.5175572e-05    9.4285714 
   24400 0.0025404144   -4.7142826 1.3366155e-05 -4.7869877e-06 4.6604495e-05    9.4285714 
   24500 0.0025477199   -4.7142819 1.1761444e-05 7.3869528e-06 7.5972407e-05    9.4285714 
   24600 0.0025244957   -4.7142816 2.8340904e-05 1.5797684e-05 6.745716e-05    9.4285714 
   24700 0.0025185405   -4.7142829 6.3525812e-06 -1.861306e-06 3.7757722e-05    9.4285714 
   24800 0.0026096035   -4.7142839 5.3593865e-06 2.4075645e-05 6.1381074e-05    9.4285714 
   24900 0.0026941689    -4.714282 4.4823733e-05 1.0968127e-05 4.7995958e-05    9.4285714 
   25000 0.0028612504   -4.7142813 3.1779718e-05 4.6401335e-06 5.9636383e-05    9.4285714 
   25100 0.0029181859   -4.7142834 3.4700092e-05 2.940514e-05 3.1353865e-05    9.4285714 
   25200 0.0029224272   -4.7142826 9.1589943e-05 1.8532249e-05 7.721286e-05    9.4285714 
   25300  0.002896007   -4.7142825 5.4987938e-05 2.1036261e-05 6.1020184e-05    9.4285714 
   25400 0.0028840407   -4.7142828 5.2461637e-05 2.2639868e-05 3.9655802e-05    9.4285714 
   25500 0.0028947555   -4.7142823 6.0070762e-05 1.4897035e-05 8.1181913e-05    9.4285714 
   25600 0.0027503944   -4.7142838 5.382631e-05 1.7016987e-05 3.6531721e-05    9.4285714 
   25700 0.0026220358   -4.7142836 3.6259657e-05 7.8097408e-06 -7.743362e-06    9.4285714 
   25800 0.0025995028   -4.7142824 4.5919012e-05 1.8985254e-05 2.1266372e-05    9.4285714 
   25900 0.0026400508   -4.7142834 7.8221551e-05 2.1685052e-05 3.375709e-06    9.4285714 
   26000 0.0026732923   -4.7142842 4.2424928e-05 1.4779009e-05 4.7297805e-05    9.4285714 
   26100 0.0026767819   -4.7142836 7.0730603e-05 1.9979803e-05 6.8708873e-05    9.4285714 
   26200  0.002650245   -4.7142843 6.0850536e-05 1.6042762e-05 4.4384559e-05    9.4285714 
   26300 0.0025062537   -4.7142839 1.4572509e-05 7.9903454e-06 5.184762e-05    9.4285714 
   26400 0.0024172951   -4.7142831 6.1665145e-05 4.9829603e-06 5.0750958e-05    9.4285714 
   26500 0.0023386008   -4.7142839 4.1311309e-05 1.6532049e-05 6.4687303e-05    9.4285714 
   26600 0.0023151314   -4.7142829 2.8226825e-05 9.0988804e-06 5.6839283e-05    9.4285714 
   26700 0.0023872935   -4.7142831 4.738766e-05  2.87305e-05 8.4124285e-05    9.4285714 
   26800 0.0024275675   -4.7142842 4.1135282e-05 2.8283742e-05 8.1646594e-05    9.4285714 
   26900 0.0020975864    -4.714275 2.6836629e-05 1.645633e-05 6.2255043e-05    9.4285714 
   27000 0.0020402023   -4.7142818 1.8310395e-05 8.992553e-06 4.3117342e-05    9.4285714 
   27100 0.0021349194   -4.7142824 2.0107723e-05 2.0222274e-05 6.3805186e-05    9.4285714 
   27200 0.0023583687   -4.7142804 4.0475906e-05 2.7939063e-05 7.4028577e-05    9.4285714 
   27300 0.0025352287   -4.7142774 4.2897099e-05 2.978683e-05 5.1518492e-05    9.4285714 
   27400 0.0028050653   -4.7142818 3.6391121e-05 3.8847268e-05 8.1460126e-05    9.4285714 
   27500 0.0028863158   -4.7142832 5.2601052e-05 4.0863801e-05 8.7762512e-05    9.4285714 
   27600 0.0028308376   -4.7142819 4.7296005e-05 4.3501715e-05 6.6548716e-05    9.4285714 
   27700 0.0027984116   -4.7142811 2.9571674e-05 3.2909608e-05 5.0440713e-05    9.4285714 
   27800 0.0028443021   -4.7142838 3.7690095e-05 3.0629256e-05 7.6163383e-05    9.4285714 
   27900   0.00284377   -4.7142843 3.5741455e-05 3.3311851e-05 7.6325626e-05    9.4285714 
   28000 0.0028100241    -4.714283 2.871843e-05 3.3668529e-05 5.0680812e-05    9.4285714 
   28100 0.0027775459   -4.7142823 3.9667012e-05 4.1705107e-05 6.036307e-05    9.4285714 
   28200 0.0028012784   -4.7142842 3.8156857e-05 3.816107e-05 6.6808076e-05    9.4285714 
   28300  0.002502375   -4.7142826 7.9398404e-06 1.8421485e-05 6.8121847e-05    9.4285714 
   28400 0.0023868548   -4.7142792 2.1732644e-05 5.1673961e-05 5.472121e-05    9.4285714 
   28500 0.0023877437   -4.7142788 2.7548393e-05 4.6161956e-05 7.2252138e-05    9.4285714 
   28600 0.0024451809   -4.7142815 1.6230163e-05 2.9597851e-05 6.8265446e-05    9.4285714 
   28700 0.0027979284   -4.7142831 1.9506346e-05 5.0386331e-05 5.6085779e-05    9.4285714 
   28800  0.003009447   -4.7142775 4.8258711e-05 6.3218653e-05 6.934896e-05    9.4285714 
   28900 0.0030828448   -4.7142827 3.5946746e-05 4.9162887e-05 5.8028208e-05    9.4285714 
   29000 0.0031005706   -4.7142842 3.1476476e-05 6.9185234e-05 8.8534963e-05    9.4285714 
   29100  0.003061663   -4.7142825 4.6087127e-05 7.749818e-05 5.7869214e-05    9.4285714 
   29200 0.0030582507   -4.7142832 3.3694132e-05 4.7958517e-05 6.2421415e-05    9.4285714 
   29300 0.0029543259   -4.7142808 3.1011808e-05 7.0670305e-05 8.8289008e-05    9.4285714 
   29400 0.0028586151   -4.7142752 3.5326543e-05 7.1883576e-05 0.00011274673    9.4285714 
   29500 0.0027931723   -4.7142697 2.0496543e-05 6.5564361e-08 9.504846e-05    9.4285714 
   29600 0.0027116711   -4.7142792 1.5446304e-05 -2.530487e-05 6.4204764e-05    9.4285714 
   29700 0.0027519538   -4.7142806 3.1467228e-05 3.8772121e-05 0.00011463793    9.4285714 
   29800  0.002802004   -4.7142796 2.0539135e-05 4.1810858e-05 0.0001022407    9.4285714 
   29900 0.0027921232   -4.7142775 2.9673597e-05 4.0325534e-05 9.264009e-05    9.4285714 
   30000 0.0027309729   -4.7142797 4.152538e-05 5.5912151e-05 8.414807e-05    9.4285714 
   30100 0.0028440623    -4.714283 -6.2560053e-07 2.7300419e-05 7.5487323e-05    9.4285714 
   30200 0.0031114091    -4.714279 5.7769758e-05 3.2816731e-05 9.3038434e-05    9.4285714 
   30300 0.0030967216   -4.7142777 4.2053562e-05 3.3595539e-05 8.9149665e-05    9.4285714 
   30400  0.003136759   -4.7142829 4.8148157e-06 1.2989104e-05 0.00010526859    9.4285714 
   30500 0.0031681914   -4.7142824 5.7738657e-05 3.0146395e-05 0.00013409568    9.4285714 
   30600  0.003185083   -4.7142802 5.5516857e-05 4.3949172e-05 6.7520541e-05    9.4285714 
   30700 0.0031962787   -4.7142803 5.9678032e-05 4.7772498e-05 6.6299764e-05    9.4285714 
   30800 0.0031573709   -4.7142829 6.7771329e-05 4.8345321e-05 9.5254522e-05    9.4285714 
   30900 0.0031540974   -4.7142832 4.9181662e-05 2.9425984e-05 6.1685621e-05    9.4285714 
   31000 0.0031023807   -4.7142808 6.3802037e-05 4.5171377e-05 8.5650305e-05    9.4285714 
   31100  0.003050491   -4.7142815 5.3448201e-05 2.9535474e-05 9.2083422e-05    9.4285714 
   31200 0.0028462626   -4.7142819 2.1997466e-05 3.7212604e-06 6.1538569e-05    9.4285714 
   31300 0.0026361131   -4.7142728 3.8495549e-05 3.4255075e-05 5.9684116e-05    9.4285714 
   31400 0.0024398662   -4.7142283 4.5354411e-05 1.7503834e-05 7.3393371e-05    9.4285714 
   31500 0.0023575511   -4.7142271 1.6654731e-05 1.1752412e-05 6.4901081e-05    9.4285714 
   31600 0.0024828741   -4.7142687 2.2864038e-05 1.1507713e-05 5.4631888e-05    9.4285714 
   31700 0.0026535335   -4.7142802 2.3106661e-05 9.3638517e-06 7.5698037e-05    9.4285714 
   31800 0.0028100049   -4.7142835 1.6600484e-05 3.3168141e-05 6.5518256e-05    9.4285714 
   31900 0.0027556447   -4.7142806 3.8406344e-05 3.263271e-05 5.3054876e-05    9.4285714 
   32000 0.0026748424    -4.714281  4.41324e-05 1.8897102e-05 5.1821768e-05    9.4285714 
   32100 0.0026090836    -4.714283 4.1900487e-05 2.1110951e-05 1.8521323e-05    9.4285714 
   32200 0.0024109991    -4.714283 -1.321517e-05 2.1620678e-06 1.5338728e-05    9.4285714 
   32300 0.0023139624   -4.7142817 2.8549202e-06 3.0807691e-05 6.2846029e-05    9.4285714 
   32400 0.0023065246   -4.7142787 6.1050102e-06 2.7023287e-05 5.793899e-05    9.4285714 
   32500 0.0023303104   -4.7142812 2.2984319e-05 1.979181e-05 3.6783994e-05    9.4285714 
   32600 0.0023697804   -4.7142826 5.3709627e-05 5.195328e-05 0.00010240312    9.4285714 
   32700 0.0023747324   -4.7142818 3.4441081e-05 3.3381035e-05 5.7702411e-05    9.4285714 
   32800 0.0023469734   -4.7142827 2.1058788e-05 2.0210891e-05 4.866378e-05    9.4285714 
   32900 0.0023692101   -4.7142843 3.505222e-05 3.693323e-05 8.8776465e-05    9.4285714 
   33000 0.0023269079   -4.7142842 5.2006631e-05 4.2858249e-05 1.2173041e-05    9.4285714 
   33100 0.0022536897   -4.7142832 3.3447444e-05 2.7888763e-05 5.7406933e-05    9.4285714 
   33200 0.0022884991   -4.7142831  3.11584e-05 2.8785623e-05 7.0736425e-05    9.4285714 
   33300 0.0022872148   -4.7142837 4.7302143e-05 3.4825585e-05 3.908954e-05    9.4285714 
   33400 0.0021441208   -4.7142832 3.4956123e-05 2.0137529e-05 7.3621795e-05    9.4285714 
   33500 0.0021250759   -4.7142791 2.7860008e-05 3.1096735e-05 8.6989863e-05    9.4285714 
   33600 0.0020144547   -4.7142758 8.9491543e-06 3.0873393e-06 3.5821372e-05    9.4285714 
   33700 0.0019601325    -4.714282 -3.1961693e-05 2.8309268e-06 2.7474911e-05    9.4285714 
   33800 0.0019781964   -4.7142836 -1.6432954e-05 4.5532318e-05 5.6180871e-05    9.4285714 
   33900 0.0019362184   -4.7142802 4.4876558e-05 3.5607305e-05 5.5256986e-05    9.4285714 
   34000 0.0018925936   -4.7142772 2.6126162e-05 4.0727261e-05 4.4072383e-05    9.4285714 
   34100 0.0019612538   -4.7142817 1.9711423e-05 3.5292876e-05 5.208739e-05    9.4285714 
   34200 0.0018786841    -4.714283 5.9452613e-05 2.2750167e-05 6.0041189e-05    9.4285714 
   34300 0.0016921132   -4.7142826 -1.9705284e-05 2.7417698e-06 3.5807778e-05    9.4285714 
   34400 0.0015917931   -4.7142715 -8.2912337e-06 6.0058896e-06 4.3767171e-05    9.4285714 
   34500 0.0016313876    -4.714266 2.680046e-05 3.0445446e-05 5.2729086e-05    9.4285714 
   34600 0.0017598223   -4.7142836 2.6680572e-05 1.2800533e-05 4.0769721e-05    9.4285714 
   34700 0.0017113812   -4.7142782 5.1966667e-05 3.8936233e-05 8.7902817e-05    9.4285714 
   34800 0.0016049388   -4.7142731 1.1306618e-05 8.7073772e-06 4.7122089e-05    9.4285714 
   34900 0.0016955115   -4.7142823 2.1303404e-05 6.8274717e-06 2.244299e-05    9.4285714 
   35000   0.00165119   -4.7142758 4.8047362e-05 4.6052136e-05 0.0001287016    9.4285714 
   35100 0.0015817845   -4.7142805 7.4130076e-06 6.5116689e-06 3.4751007e-05    9.4285714 
   35200 0.0015810133     -4.71428 1.6323213e-05 2.5685469e-05 4.4142256e-05    9.4285714 
   35300 0.0015719448   -4.7142785 4.4351148e-05 3.1396033e-05 0.00010629058    9.4285714 
   35400 0.0015567136   -4.7142819 2.0021454e-05 1.9357793e-05 5.0610549e-05    9.4285714 
   35500 0.0015066735   -4.7142813 3.194888e-05 2.6415958e-05 6.1853881e-05    9.4285714 
   35600 0.0014852521     -4.71428 2.4631682e-05 2.5128929e-05 6.3800433e-05    9.4285714 
   35700 0.0014927124   -4.7142812 1.4434624e-05 2.0514828e-05 5.0086984e-05    9.4285714 
   35800 0.0015122965   -4.7142838 3.9102785e-05 3.0076065e-05 8.8360064e-05    9.4285714 
   35900 0.0014880427   -4.7142829 2.0535252e-05 2.5697467e-05 5.0890428e-05    9.4285714 
   36000 0.0014928641   -4.7142817 3.0167149e-05 2.1444226e-05 4.1207355e-05    9.4285714 
   36100  0.001527336   -4.7142841 2.902147e-05 1.4685093e-05 6.5284342e-05    9.4285714 
   36200 0.0015171821   -4.7142843 8.6980069e-06 1.3248493e-05 3.6676445e-05    9.4285714 
   36300 0.0014568435   -4.7142832 2.4741939e-05 2.2778924e-05 2.3227379e-05    9.4285714 
   36400 0.0014373198   -4.7142833 1.7025491e-05 9.2441442e-06 9.2796272e-06    9.4285714 
   36500 0.0014933797   -4.7142841 2.2436188e-05 2.3634423e-05 4.0115013e-05    9.4285714 
   36600 0.0014790058   -4.7142844 2.7847663e-05 2.3033587e-05 6.0153541e-05    9.4285714 
   36700 0.0014215142   -4.7142831 7.4626544e-06 8.4267558e-06 3.3532356e-05    9.4285714 
   36800 0.0014687242   -4.7142834 3.0609847e-05 2.0091509e-05 3.7453289e-05    9.4285714 
   36900 0.0015197322   -4.7142845 4.1412958e-05 1.768941e-05 6.1647851e-05    9.4285714 
   37000 0.0014718289   -4.7142848 9.2181276e-06 1.7771984e-05 4.241779e-05    9.4285714 
   37100 0.0014397493   -4.7142836 1.0070698e-05 1.7128636e-05 4.2549681e-05    9.4285714 
   37200 0.0014802189   -4.7142842 2.0289418e-05 1.8203382e-05 6.7159826e-05    9.4285714 
   37300 0.0015016643   -4.7142853 2.2894506e-05 2.4626017e-05 6.8449216e-05    9.4285714 
   37400  0.001454552   -4.7142845 3.252577e-05 2.2500138e-05 6.8110196e-05    9.4285714 
   37500 0.0014053533    -4.714284 2.1759203e-05 1.0574981e-05 5.6185641e-05    9.4285714 
   37600 0.0014769453   -4.7142846 3.0404851e-05 1.7089339e-05 6.9727868e-05    9.4285714 
   37700 0.0015739223   -4.7142831 2.1426542e-05  3.42621e-05 7.6366086e-05    9.4285714 
   37800 0.0015866458   -4.7142802 1.3835002e-05 2.9698398e-05 5.349542e-05    9.4285714 
   37900 0.0018060673    -4.714283 2.3290467e-05 4.8866722e-05 5.3624377e-05    9.4285714 
   38000 0.0018698613   -4.7142837 1.9661483e-05 5.0745362e-05 0.00010062119    9.4285714 
   38100  0.001806521   -4.7142829 1.7173185e-05 3.4623595e-05 7.3269368e-05    9.4285714 
   38200 0.0017414785   -4.7142831 2.0149042e-05 4.3263226e-05 4.8223324e-05    9.4285714 
   38300 0.0017862585   -4.7142839 -3.1617028e-06 5.0284194e-05 6.8226326e-05    9.4285714 
   38400 0.0018432124   -4.7142847 1.3383822e-05 4.8708694e-05 7.893613e-05    9.4285714 
   38500 0.0018219565    -4.714284 2.4613434e-05 4.7605171e-05 6.6619238e-05    9.4285714 
   38600 0.0017879667   -4.7142838 8.3985015e-06 4.1358479e-05 5.9213827e-05    9.4285714 
   38700 0.0016645668   -4.7142843 2.0981576e-05 3.5962752e-05 6.9118026e-05    9.4285714 
   38800 0.0015532388   -4.7142823 2.352083e-05 4.823541e-05 8.651807e-05    9.4285714 
   38900 0.0014906945   -4.7142804 1.0611406e-05 2.1329584e-05 5.7515699e-05    9.4285714 
   39000 0.0015434414   -4.7142812 8.5061097e-06 2.0153002e-05 4.9215664e-05    9.4285714 
   39100 0.0015840866   -4.7142841 -3.3923334e-07 1.6268478e-05 5.6133584e-05    9.4285714 
   39200 0.0016466039   -4.7142842 1.1839246e-05 1.4932718e-05 7.5184382e-05    9.4285714 
   39300  0.001662635   -4.7142831 1.7421815e-05 3.0733588e-05 6.3898988e-05    9.4285714 
   39400 0.0016178486   -4.7142823 1.3301052e-05 2.8477132e-05 5.941381e-05    9.4285714 
   39500 0.0016786051   -4.7142845 6.7444487e-06 2.8892101e-05 7.2101782e-05    9.4285714 
   39600 0.0016838866   -4.7142848 2.885404e-05 4.6288447e-05 7.6791053e-05    9.4285714 
   39700 0.0016207991   -4.7142835 1.7857683e-05 3.0894371e-05 6.9699154e-05    9.4285714 
   39800 0.0016261068   -4.7142842 5.3181092e-06 1.8564464e-05 6.4314421e-05    9.4285714 
   39900 0.0016951434   -4.7142852 2.4549529e-05 3.6717866e-05 7.5544172e-05    9.4285714 
   40000 0.0016615493   -4.7142849 2.279282e-05 4.9849117e-05 7.1546959e-05    9.4285714 
   40100 0.0015706688   -4.7142837 1.2404708e-05 2.0497875e-05 3.5648913e-05    9.4285714 
   40200 0.0015895978   -4.7142843 1.5043771e-05 1.875925e-05 4.7159872e-05    9.4285714 
   40300 0.0015929756    -4.714285 1.8443939e-05 3.1342615e-05 8.0865403e-05    9.4285714 
   40400 0.0015188289   -4.7142849 1.3805874e-05 1.4407485e-05 4.5193974e-05    9.4285714 
   40500 0.0014142713   -4.7142838 1.8482317e-06 -1.070707e-05 3.1263445e-05    9.4285714 
   40600 0.0013953814   -4.7142832 -2.3166167e-07 1.6611366e-05 4.4618584e-05    9.4285714 
   40700  0.001415077   -4.7142824 1.8129009e-05 4.5414377e-05 6.4636266e-05    9.4285714 
   40800 0.0014138155   -4.7142837 1.060765e-05 6.4546877e-06 3.4072047e-05    9.4285714 
   40900 0.0014693332   -4.7142835 -1.7784606e-06 1.3961184e-05 6.1557637e-05    9.4285714 
   41000 0.0015736689   -4.7142844 1.8601794e-06 1.8476059e-05 6.1179877e-05    9.4285714 
   41100 0.0016541827   -4.7142842 2.1678758e-05 1.0891839e-05 4.5599878e-05    9.4285714 
   41200 0.0017038452   -4.7142841 1.3231109e-05 2.8759274e-05 9.0053712e-05    9.4285714 
   41300 0.0016644832    -4.714284 1.0713539e-06 -9.1261161e-06 4.8251094e-05    9.4285714 
   41400 0.0016962923   -4.7142837 1.6404025e-05 -3.3298656e-06 6.0616767e-05    9.4285714 
   41500 0.0016885952   -4.7142841 3.7079931e-05 4.8590437e-05 7.2398732e-05    9.4285714 
   41600 0.0016509383   -4.7142843 3.2822352e-05 2.5492134e-05 5.5315007e-05    9.4285714 
   41700 0.0016234839   -4.7142838 1.9340094e-05 9.1999445e-07 5.9365294e-05    9.4285714 
   41800 0.0015943508   -4.7142842 3.6720434e-05 2.6567585e-05 2.5556112e-05    9.4285714 
   41900 0.0015714166   -4.7142843 2.7615414e-05 2.6447346e-05 2.1698634e-05    9.4285714 
   42000 0.0015421224   -4.7142844 1.6764021e-05 6.0391503e-07 4.4529107e-05    9.4285714 
   42100 0.0015071161   -4.7142846 1.6199656e-05 1.3826919e-05 6.1714716e-05    9.4285714 
   42200 0.0015198787   -4.7142846 2.3123818e-05 1.6785097e-05 5.3275617e-05    9.4285714 
   42300 0.0014983415   -4.7142843 3.7692088e-05 1.9658462e-05 3.2518877e-05    9.4285714 
   42400 0.0014071355   -4.7142842 4.1190884e-05 7.2842001e-06 4.1096707e-05    9.4285714 
   42500 0.0013022808   -4.7142837 1.3146116e-05 -1.5421963e-05 2.5801425e-05    9.4285714 
   42600 0.0013470366   -4.7142836 1.3584089e-05 1.9218153e-06 9.6729008e-06    9.4285714 
   42700 0.0013910091   -4.7142849 3.7784878e-05 1.4670527e-05 2.6364864e-05    9.4285714 
   42800 0.0014014966    -4.714285 2.1845518e-05 2.9117451e-05 4.3087627e-05    9.4285714 
   42900 0.0013733676   -4.7142848 1.4001755e-05 1.7988978e-05 3.2280506e-05    9.4285714 
   43000 0.0013517268   -4.7142849 1.4307541e-05 1.7559777e-07 3.4839804e-05    9.4285714 
   43100 0.0013740884   -4.7142851 1.0781187e-05 2.3199114e-05 4.3544073e-05    9.4285714 
   43200 0.0013899917   -4.7142853 1.9752629e-05 1.5754375e-05 4.0495086e-05    9.4285714 
   43300 0.0013591753    -4.714285 1.7097046e-05 1.5458697e-05 4.3522182e-05    9.4285714 
   43400 0.0013610826    -4.714285 9.9700923e-06 2.1966114e-05 3.7559347e-05    9.4285714 
   43500 0.0013931122   -4.7142854 2.0823321e-05 9.7449225e-06 4.7553728e-05    9.4285714 
   43600 0.0014106574   -4.7142852 1.8012822e-05 1.7643108e-05 3.9965229e-05    9.4285714 
   43700 0.0014643496   -4.7142851 1.0503719e-05 1.0375579e-05 2.9638501e-05    9.4285714 
   43800 0.0014941312   -4.7142851 2.1685281e-05 2.3181612e-05 6.4949433e-05    9.4285714 
   43900 0.0015090635   -4.7142853 1.6758041e-05 3.1022306e-05 4.8366553e-05    9.4285714 
   44000   0.00147309    -4.714285 2.2739697e-05 1.8693279e-05 4.0652545e-05    9.4285714 
   44100 0.0014483812   -4.7142847 1.7676479e-05 1.6083745e-05 6.0019861e-05    9.4285714 
   44200 0.0014457794   -4.7142852 1.2765388e-05 1.3464192e-05 4.2906017e-05    9.4285714 
   44300 0.0014371658   -4.7142853 1.1200897e-06 2.3278076e-05 4.086685e-05    9.4285714 
   44400 0.0013803973   -4.7142849 -7.1280222e-06 2.4628501e-05 3.9610367e-05    9.4285714 
   44500 0.0013488729   -4.7142847 4.9719923e-07 1.3646926e-05 3.4823323e-05    9.4285714 
   44600 0.0013656769   -4.7142848 2.4369762e-06 2.3453695e-05 4.1758664e-05    9.4285714 
   44700 0.0013518184   -4.7142848 6.7909288e-06 2.5779362e-05 3.8309701e-05    9.4285714 
   44800 0.0013048932   -4.7142846 2.4879741e-06 2.9653315e-05 4.3656829e-05    9.4285714 
   44900 0.0012854105   -4.7142833 8.7416075e-06 1.682229e-05 1.9921476e-05    9.4285714 
   45000  0.001286558   -4.7142847 1.4303042e-05 1.7290427e-05 3.8131755e-05    9.4285714 
   45100 0.0013592533   -4.7142851 1.2616705e-05 2.4001138e-05 4.5820457e-05    9.4285714 
   45200 0.0014362294    -4.714283 2.1561121e-05 1.8577567e-05 2.1706723e-05    9.4285714 
   45300 0.0015766327   -4.7142832 2.1027604e-05 3.0848781e-05 1.6514286e-05    9.4285714 
   45400  0.001687552   -4.7142845 1.9352364e-05 4.1348267e-05 2.5080527e-05    9.4285714 
   45500 0.0016699457   -4.7142847 1.0615491e-05 1.1413962e-05 6.9101187e-05    9.4285714 
   45600 0.0016172361   -4.7142836 7.0964609e-06 4.821012e-06 2.6760796e-05    9.4285714 
   45700 0.0015761709   -4.7142825 1.4298238e-05  3.51784e-05 1.5636845e-05    9.4285714 
   45800 0.0015925483   -4.7142843 9.3672191e-06 2.8941821e-05 5.6272239e-05    9.4285714 
   45900 0.0015805499   -4.7142847 2.0693446e-05 2.3601313e-05 4.9790055e-05    9.4285714 
   46000 0.0014924043   -4.7142819 3.0482545e-06 2.7482064e-05 5.2242811e-05    9.4285714 
   46100 0.0014461422   -4.7142816 -1.3840829e-06 2.1086859e-05 1.9791507e-05    9.4285714 
   46200 0.0011784526   -4.7142835 1.3993066e-05 1.3269187e-05 5.0583058e-05    9.4285714 
   46300 0.0011606851   -4.7142829 3.6366292e-05 6.5672239e-06 7.5120292e-05    9.4285714 
   46400 0.0011759787   -4.7142801 2.2275954e-05 2.0173532e-05 5.1560571e-05    9.4285714 
   46500 0.0011858836   -4.7142835 2.1223742e-06 1.483095e-06 3.6388044e-05    9.4285714 
   46600 0.0011743104   -4.7142827 2.1646618e-05 -5.4740894e-06 6.2072633e-05    9.4285714 
   46700 0.0012033793   -4.7142843 1.7866294e-05 -5.3760931e-06 4.5468891e-05    9.4285714 
   46800 0.0011942689   -4.7142835 -5.5442881e-06 4.0902609e-06 4.4849969e-05    9.4285714 
   46900 0.0012623727   -4.7142827 1.7020992e-05 1.0229188e-05 5.5659516e-05    9.4285714 
   47000 0.0013644294   -4.7142852 2.381855e-05 9.9614126e-06  6.24726e-05    9.4285714 
   47100 0.0013870071   -4.7142848 8.4784512e-06 -6.915815e-06 5.1797793e-05    9.4285714 
   47200 0.0014203784   -4.7142837 1.5590847e-05 -1.0219736e-07 3.1034433e-05    9.4285714 
   47300  0.001538236   -4.7142848 2.6362645e-05 1.3548787e-05 5.557325e-05    9.4285714 
   47400 0.0015648549   -4.7142843 3.5415707e-05 2.2521363e-06 5.7281834e-05    9.4285714 
   47500  0.001494784   -4.7142832 2.5993648e-05 1.5282594e-06 3.9287268e-05    9.4285714 
   47600 0.0014656893    -4.714279 2.7837149e-05 3.3381636e-05 4.4295836e-05    9.4285714 
   47700 0.0014938875   -4.7142812 3.4246701e-05 2.272226e-05 4.1375306e-05    9.4285714 
   47800  0.001511092   -4.7142849 2.9752157e-05 1.5860227e-05 2.1235494e-05    9.4285714 
   47900  0.001469112   -4.7142836 3.7936135e-05 6.1200092e-05 2.8587372e-05    9.4285714 
   48000 0.0014306661    -4.714282 2.4421246e-05 -1.3535776e-05 3.061047e-05    9.4285714 
   48100 0.0014548885   -4.7142836 2.6735487e-05 -7.3180122e-06 3.3948436e-05    9.4285714 
   48200 0.0015061314   -4.7142829 4.140276e-05 5.1543803e-05 5.1029222e-05    9.4285714 
   48300 0.0015267745    -4.714284 2.037327e-05 -2.5168447e-07 3.499232e-05    9.4285714 
   48400 0.0015440644   -4.7142815 2.0273946e-05 1.439501e-05 2.6023951e-05    9.4285714 
   48500  0.001657659   -4.7142832 3.6933655e-05 3.0213713e-05 4.8179094e-05    9.4285714 
   48600  0.001777997   -4.7142842 4.1509486e-05 2.4145889e-05 4.0406442e-05    9.4285714 
   48700 0.0018122614   -4.7142837 5.0474665e-05 5.009846e-05 3.6128039e-05    9.4285714 
   48800 0.0017357102   -4.7142832 4.1632778e-05 1.8302719e-05 4.4357947e-05    9.4285714 
   48900 0.0017008067   -4.7142792 3.5969083e-05 3.0003211e-05 4.4818722e-05    9.4285714 
   49000 0.0016560566   -4.7142816 3.8378714e-05 3.5773889e-05 6.9904455e-05    9.4285714 
   49100 0.0013858365   -4.7142834 -2.7662832e-05 -1.9017793e-05 2.3310318e-05    9.4285714 
   49200 0.0013029643   -4.7142819 -9.4036627e-06 3.243001e-05 3.4731685e-05    9.4285714 
   49300 0.0014017081   -4.7142819 1.9868651e-05 6.3079574e-06 6.795426e-05    9.4285714 
   49400 0.0014679145   -4.7142832 1.5452213e-05 1.1115231e-05 4.4330358e-05    9.4285714 
   49500 0.0014506585   -4.7142838 3.0950939e-05 5.7847777e-05 4.8499958e-05    9.4285714 
   49600 0.0014570027   -4.7142829 3.7765443e-05 1.655906e-05 4.784843e-05    9.4285714 
   49700 0.0015840061   -4.7142825 2.5088722e-05 2.5801192e-05 4.8215019e-05    9.4285714 
   49800 0.0017175254   -4.7142825 4.4566914e-05 5.0186512e-05 3.7860964e-05    9.4285714 
   49900 0.0015288378   -4.7142821 5.5467128e-06 4.8144498e-05 3.7009159e-05    9.4285714 
   50000 0.0013741478   -4.7142812 3.7298499e-06 5.4006679e-05 6.7840456e-05    9.4285714 
   50100 0.0014577044   -4.7142813 2.392739e-05 3.5823648e-05 8.4679333e-05    9.4285714 
   50200 0.0014533645   -4.7142806 2.6568576e-05 2.8632159e-05 7.3253043e-05    9.4285714 
   50300 0.0014378857   -4.7142796 1.2631564e-05 3.7062154e-05 6.1919405e-05    9.4285714 
   50400 0.0014673626   -4.7142833 3.3476007e-05 3.4512954e-05 5.2231385e-05    9.4285714 
   50500 0.0014389539   -4.7142833 2.6513699e-05 2.5971299e-05 7.7926264e-05    9.4285714 
   50600 0.0013845835   -4.7142818 8.3728219e-06 1.7702343e-05 4.6752162e-05    9.4285714 
   50700 0.0013239108   -4.7142818 3.3435677e-06 2.0150041e-05 4.3728286e-05    9.4285714 
   50800 0.0013271805    -4.714284 8.7252941e-06 2.2918968e-05 6.0498568e-05    9.4285714 
   50900 0.0012488786   -4.7142764 3.1117606e-05 1.4209574e-05 4.1671621e-05    9.4285714 
   51000 0.0012529071   -4.7142804 1.2963298e-05 1.4299315e-05 5.8097821e-05    9.4285714 
   51100  0.001319065   -4.7142826 1.9700618e-05 2.6226178e-06 5.9155615e-05    9.4285714 
   51200 0.0013744785   -4.7142832 3.4998136e-05 3.0473998e-05 6.0861969e-05    9.4285714 
   51300 0.0013161904   -4.7142823 1.2630597e-05 1.861303e-05 7.3073801e-05    9.4285714 
   51400 0.0012815665   -4.7142805 4.3416968e-07 1.3135234e-06 4.9501072e-05    9.4285714 
   51500 0.0013214475   -4.7142836 3.3681889e-05 2.6425866e-05 6.2518922e-05    9.4285714 
   51600 0.0012171442   -4.7142837 3.2027485e-05 9.0591083e-06 5.9418979e-05    9.4285714 
   51700 0.0011790522   -4.7142826 -6.1159994e-06 7.1630124e-07 2.5740297e-05    9.4285714 
   51800 0.0012039843   -4.7142824 1.0995427e-05 2.6054476e-05 5.5748633e-05    9.4285714 
   51900 0.0012565415   -4.7142844 1.9400182e-05 2.5494508e-05 6.1277559e-05    9.4285714 
   52000 0.0012276679   -4.7142844 1.6616787e-05 4.1938123e-05 5.0132658e-05    9.4285714 
   52100 0.0011626948   -4.7142824 -1.0687558e-05 1.1349676e-05 3.6394166e-05    9.4285714 
   52200 0.0011241924    -4.714284 -5.4161964e-05 -2.4459046e-05 1.3186978e-05    9.4285714 
   52300 0.0011578999   -4.7142844 1.200652e-05 2.2111927e-05 6.7993857e-05    9.4285714 
   52400 0.0011557789   -4.7142843 2.4940167e-05 2.9720848e-05 7.358605e-05    9.4285714 
   52500 0.0011161797   -4.7142843 -1.6357992e-05 8.993132e-06 1.7706318e-05    9.4285714 
   52600 0.0010966226   -4.7142829 -1.2988176e-05 3.5093634e-06 6.654378e-05    9.4285714 
   52700 0.0011432225   -4.7142843 -1.6191878e-05 1.9253948e-06 4.8162147e-05    9.4285714 
   52800 0.0011363674   -4.7142848 6.2082109e-06 2.0401562e-05 3.9851134e-05    9.4285714 
   52900 0.0010514167   -4.7142835 -3.8258655e-05 6.8080385e-06 4.2066359e-05    9.4285714 
   53000 0.0011496826   -4.7142835 4.4571341e-06 1.4796753e-05 -3.4246555e-06    9.4285714 
   53100 0.0011921684   -4.7142837 3.344801e-05 2.856294e-05 8.3368759e-05    9.4285714 
   53200 0.0011770058   -4.7142843 -7.3014849e-06 3.3673043e-06 3.8040757e-05    9.4285714 
   53300  0.001147192    -4.714284 2.4343505e-05 6.6428364e-06 1.8856837e-06    9.4285714 
   53400 0.0011590693   -4.7142848 1.6470648e-05 3.0495876e-06 6.9929497e-05    9.4285714 
   53500 0.0011430794   -4.7142846 1.6587072e-05 -6.6680943e-06 2.7910402e-05    9.4285714 
   53600 0.0011087622   -4.7142834 2.5094369e-05 3.0799765e-06 2.4953557e-05    9.4285714 
   53700 0.0011205481   -4.7142845 2.1637477e-05 2.193595e-06 4.7249366e-05    9.4285714 
   53800 0.0011280562   -4.7142848 3.4346512e-05 -4.617164e-07 2.7232129e-05    9.4285714 
   53900 0.0010988683   -4.7142844 2.5923912e-05 -9.9731324e-06 4.1399146e-05    9.4285714 
   54000 0.0010830581   -4.7142845 3.345101e-06 -2.7639517e-05 3.9564896e-05    9.4285714 
   54100 0.0011234194   -4.7142848 1.9740958e-05 -1.2111329e-05 3.2830048e-05    9.4285714 
   54200 0.0011582518   -4.7142845 2.9401158e-05 5.5629213e-06 3.1610007e-05    9.4285714 
   54300 0.0012079798   -4.7142845 1.1797073e-05 -1.0996608e-05 4.1360239e-05    9.4285714 
   54400 0.0012759379   -4.7142845 2.4474721e-05 5.4773406e-06 3.5496741e-05    9.4285714 
   54500 0.0013710939   -4.7142848 2.8767103e-05 2.1233306e-05 5.7305899e-05    9.4285714 
   54600  0.001351372   -4.7142844 2.2558984e-05 1.2286433e-05 5.5134807e-05    9.4285714 
   54700 0.0013179832   -4.7142838 2.6774379e-05 1.4542111e-05 3.9898608e-05    9.4285714 
   54800 0.0013524804   -4.7142847 2.229707e-05 1.4562092e-05 6.2487718e-05    9.4285714 
   54900 0.0013864891   -4.7142852 4.239521e-05 3.3034994e-05 6.5465301e-05    9.4285714 
   55000 0.0013728684    -4.714285 3.4900995e-05 2.8728561e-05 5.1207349e-05    9.4285714 
   55100 0.0013602987   -4.7142847 1.6039517e-05 2.6888845e-05 5.7202129e-05    9.4285714 
   55200 0.0013730674   -4.7142852 3.2011111e-05 4.001012e-05 5.9143948e-05    9.4285714 
   55300 0.0013573904   -4.7142853  2.79438e-05 2.5418155e-05 5.0386473e-05    9.4285714 
   55400 0.0013146923    -4.714285 5.6985755e-06 1.6124421e-05 3.647185e-05    9.4285714 
   55500 0.0012802617   -4.7142849 4.7098361e-06 1.8150458e-05 3.2791104e-05    9.4285714 
   55600 0.0012561881   -4.7142847 6.4880601e-06 1.4866046e-05 4.810369e-05    9.4285714 
   55700 0.0011926069   -4.7142845 5.2020054e-06 1.6988814e-05 4.0673736e-05    9.4285714 
   55800 0.0011078803   -4.7142843 -1.4214396e-05 1.1003816e-05 3.5370009e-05    9.4285714 
   55900 0.0011623337   -4.7142849 -7.961811e-06 9.816216e-06 3.6997949e-05    9.4285714 
   56000 0.0011768674   -4.7142849 3.3611095e-05 2.8961294e-05 5.7414124e-05    9.4285714 
   56100 0.0010918545   -4.7142845 9.6623883e-06 2.6190607e-05 2.5265414e-05    9.4285714 
   56200 0.0010366064   -4.7142833 1.9468714e-05 1.6588408e-05 8.9933949e-06    9.4285714 
   56300 0.0010690499   -4.7142843 2.0757709e-05 2.2349282e-05 3.1730279e-05    9.4285714 
   56400 0.0010922106   -4.7142852 2.2913268e-05 3.2651009e-05 2.4373889e-05    9.4285714 
   56500 0.00097948932   -4.7142845 1.047186e-05 4.5511398e-06 1.4271133e-05    9.4285714 
   56600 0.00083953218   -4.7142838 -5.3166638e-05 -6.071921e-05 8.8415821e-06    9.4285714 
   56700 0.00087323578    -4.714284 -1.04371e-05 -4.6280915e-06 2.0472043e-05    9.4285714 
   56800 0.00088053575   -4.7142838 2.8520329e-05 4.1269508e-05 6.2902721e-05    9.4285714 
   56900 0.00089158441   -4.7142847 7.6734414e-06 2.4539278e-06 1.7166604e-05    9.4285714 
   57000 0.00087273365   -4.7142842 1.0179876e-05 1.4493204e-05 4.1903669e-05    9.4285714 
   57100 0.00096131522   -4.7142844 5.609322e-07 1.1485085e-05 5.772773e-05    9.4285714 
   57200 0.0010539501   -4.7142843 3.6802393e-05 2.945748e-05 3.347874e-05    9.4285714 
   57300 0.0010962451   -4.7142842 -1.3637211e-05 3.3450113e-05 6.1125508e-05    9.4285714 
   57400 0.0010990407   -4.7142841 8.1925364e-06 2.3600052e-05 1.7167437e-05    9.4285714 
   57500  0.001113105   -4.7142847 3.6246911e-05 2.358066e-05 4.2173807e-05    9.4285714 
   57600 0.0011148744   -4.7142851 -4.8216672e-06 3.0665785e-05 6.6024491e-05    9.4285714 
   57700 0.0010722388   -4.7142846 1.7000744e-05 2.688002e-05 2.3075994e-05    9.4285714 
   57800 0.0010623092   -4.7142849 1.3590756e-05 1.6744682e-05 3.8353208e-05    9.4285714 
   57900 0.0010649053   -4.7142853 -3.3010653e-07 2.6373145e-05 2.9983485e-05    9.4285714 
   58000 0.0010495177   -4.7142851 7.6119035e-06 2.1836033e-05 1.265221e-05    9.4285714 
   58100 0.0010307882   -4.7142852 -7.7502389e-06 1.3378696e-05 1.0969839e-05    9.4285714 
   58200 0.0010412592   -4.7142852 4.3928647e-06 3.0416542e-05 1.6769362e-05    9.4285714 
   58300 0.0010229406   -4.7142844 6.529523e-06 2.3200768e-05 2.5072671e-05    9.4285714 
   58400 0.0010260268   -4.7142851 -2.8809788e-06 1.5756224e-05 1.7951865e-05    9.4285714 
   58500 0.0010327233   -4.7142853 1.5652252e-05 2.7587369e-05 2.9959245e-05    9.4285714 
   58600   0.00103292   -4.7142851 -7.8391453e-07 1.2493944e-05 4.0429013e-05    9.4285714 
   58700 0.0010231015    -4.714285 -1.2910372e-05 1.0965102e-05 2.5523576e-05    9.4285714 
   58800 0.0010232909   -4.7142851 -2.3625838e-06 2.5304336e-05 3.4549235e-05    9.4285714 
   58900 0.0010239323   -4.7142853 -1.089027e-05 2.0495207e-05 3.7315687e-05    9.4285714 
   59000  0.001016459   -4.7142853 -1.1354057e-05 1.3532685e-05 3.9797641e-05    9.4285714 
   59100 0.0010036847   -4.7142851 -7.9191139e-06 1.4300652e-05 4.3609301e-05    9.4285714 
   59200 0.0010132328   -4.7142851 -1.1555113e-05 1.5968238e-05 3.5674565e-05    9.4285714 
   59300 0.00099580602   -4.7142855 2.1165333e-06 8.5335199e-06 3.9049778e-05    9.4285714 
   59400 0.00087949872    -4.714285 -3.1482576e-05 -4.8205545e-05 3.9269324e-05    9.4285714 
   59500 0.00081320317    -4.714284 -3.3284401e-05 -3.2799397e-05 3.3461703e-05    9.4285714 
   59600 0.00085690123   -4.7142842 1.9191454e-05 1.6528234e-06  3.40213e-05    9.4285714 
   59700 0.00089260686   -4.7142849 2.9582825e-05 1.6636838e-05 4.3583431e-05    9.4285714 
   59800 0.00089861372   -4.7142851 1.7997571e-05 4.3257201e-06 4.2378883e-05    9.4285714 
   59900 0.00087665775   -4.7142849 1.6192919e-05 -1.4496426e-06 3.5942313e-05    9.4285714 
   60000 0.00089299421   -4.7142851 1.8510939e-05 1.0890382e-05 4.2010858e-05    9.4285714 
   60100 0.00091043761   -4.7142853 3.2870349e-05 1.4301938e-05 5.2194116e-05    9.4285714 
   60200 0.00089398431   -4.7142854 2.5398237e-05 1.0088628e-05 4.7529466e-05    9.4285714 
   60300 0.00086293835   -4.7142848 3.830022e-06 9.7143886e-07 2.9037407e-05    9.4285714 
   60400 0.00087367533   -4.7142851 3.0430953e-05 -2.3380418e-06 4.0623961e-05    9.4285714 
   60500 0.0008996466   -4.7142854 3.7942217e-05  2.39568e-05 5.3475884e-05    9.4285714 
   60600 0.00088006389   -4.7142852 2.0133938e-05 2.3682003e-05 2.9732827e-05    9.4285714 
   60700 0.00086354544    -4.714285 2.1009182e-05 1.2211596e-05 2.3850413e-05    9.4285714 
   60800 0.00086600787   -4.7142852 2.0591502e-05 1.8785414e-05 3.9466827e-05    9.4285714 
   60900 0.00084908513   -4.7142854 1.7991821e-05 -2.5625702e-06 3.6168481e-05    9.4285714 
   61000 0.00081848444    -4.714285 1.1743841e-05 -1.0039731e-06 2.3813715e-05    9.4285714 
   61100 0.00081030579   -4.7142849 3.537404e-06 1.3507543e-05 2.1577202e-05    9.4285714 
   61200 0.0008287085   -4.7142855 -1.6578114e-05 -2.3836004e-06 3.0510342e-05    9.4285714 
   61300 0.00082838076   -4.7142854 -4.4895287e-06 1.6704188e-05 2.7075219e-05    9.4285714 
   61400 0.00080635705   -4.7142853 -5.4913681e-06 4.2983871e-06 2.6647122e-05    9.4285714 
   61500 0.00078672062   -4.7142852 -2.1193729e-06 -6.3943736e-06 2.7752606e-05    9.4285714 
   61600 0.00072454867   -4.7142852 2.3083142e-05 1.358121e-05 1.6623515e-05    9.4285714 
   61700 0.00072238545   -4.7142852 2.2896501e-05 2.2719452e-05 2.3146939e-05    9.4285714 
   61800 0.0006846567   -4.7142847 -1.5935741e-05 7.6170365e-06 6.7191353e-06    9.4285714 
   61900 0.00068969078    -4.714285 -3.9847748e-06 -5.6268141e-06 1.8910588e-05    9.4285714 
   62000 0.00070410522   -4.7142851 2.8052932e-05 1.5347721e-05 2.0591592e-05    9.4285714 
   62100 0.00069755306   -4.7142852 -1.0113933e-06 1.1265584e-05 5.6059725e-06    9.4285714 
   62200 0.0006790829   -4.7142849 -2.81478e-06 2.7325019e-06 3.0085158e-05    9.4285714 
   62300 0.00069847905   -4.7142853 1.4161519e-05 1.7888353e-05 2.2412947e-05    9.4285714 
   62400 0.00071123227   -4.7142855 3.9545518e-06 6.9576173e-06 3.4248552e-05    9.4285714 
   62500 0.00068462445   -4.7142853 1.0944869e-06 1.7850058e-06  3.43231e-05    9.4285714 
   62600 0.00067550903   -4.7142852 -9.4968789e-07 8.4420549e-06 5.2556093e-06    9.4285714 
   62700 0.0006877517   -4.7142855 -4.9368602e-06 3.3785727e-06 2.7617497e-05    9.4285714 
   62800 0.00068787326   -4.7142856 6.9994384e-06 9.9201491e-06 2.0772847e-05    9.4285714 
   62900 0.00062152508   -4.7142852 -5.4677176e-06 2.5080768e-08 1.1878067e-05    9.4285714 
   63000 0.00055861328   -4.7142838 -1.3977915e-05 -2.6988581e-05 2.8486912e-05    9.4285714 
   63100  0.000571832   -4.7142837 4.551111e-06 -1.6248709e-05 1.3759456e-05    9.4285714 
   63200 0.00057347056   -4.7142828 3.9287266e-06 1.7547618e-05 2.1044407e-05    9.4285714 
   63300 0.00058501123   -4.7142851 -2.7238264e-08 9.750124e-07 3.0448189e-05    9.4285714 
   63400 0.00057267694   -4.7142844 3.5348342e-06 1.4501946e-05 1.1962887e-05    9.4285714 
   63500 0.00059047897   -4.7142846 -3.4842035e-06 -1.1490494e-05 1.8515316e-05    9.4285714 
   63600 0.00059993163   -4.7142851 7.2853972e-06 -6.5680277e-06 3.0811491e-05    9.4285714 
   63700 0.00060109859   -4.7142854 -2.4914767e-06 3.1509102e-05 1.5224907e-05    9.4285714 
   63800 0.00057519486   -4.7142853 -5.2164121e-06 -9.3087189e-06 1.6521312e-05    9.4285714 
   63900 0.00055443844   -4.7142845 -7.3004841e-07 -1.1968621e-05 1.1797888e-05    9.4285714 
   64000 0.00056759204   -4.7142849 -7.7518818e-06 1.4912178e-06 2.0091469e-05    9.4285714 
   64100 0.00058663661   -4.7142855 -2.7113076e-06 -3.5925569e-06 2.8062773e-05    9.4285714 
   64200 0.00057347788   -4.7142852 5.1754545e-06 9.7180322e-06 2.1389084e-05    9.4285714 
   64300 0.00053337032   -4.7142845 5.2663075e-06 -9.1712228e-06 1.6519126e-05    9.4285714 
   64400 0.00052859542   -4.7142849 5.142087e-06 -3.2702459e-06 1.0079362e-05    9.4285714 
   64500 0.00053552942    -4.714285 1.0823772e-05 1.503423e-05 1.2411924e-05    9.4285714 
   64600 0.00052627698   -4.7142844 2.2423208e-06 -3.8647492e-06 2.1010357e-05    9.4285714 
   64700 0.00052323283   -4.7142849 8.9865404e-06 -5.6885729e-06 1.3637208e-05    9.4285714 
   64800 0.00051390523   -4.7142853 1.2239859e-05 2.6754326e-06 -2.6032069e-06    9.4285714 
   64900 0.00048966963   -4.7142851 -6.0061958e-06 -7.8807214e-06 -6.6382282e-06    9.4285714 
   65000 0.00049053421   -4.7142851 1.2848234e-07  9.22648e-06 -3.5744044e-06    9.4285714 
   65100 0.00048846101   -4.7142849 8.1510666e-06 1.1083499e-06 2.0109464e-06    9.4285714 
   65200 0.00048131013   -4.7142852 -4.8975302e-06 -5.1633147e-06 5.4699239e-06    9.4285714 
   65300 0.00048872409   -4.7142853 4.7142401e-06 1.691024e-05 2.7883986e-06    9.4285714 
   65400 0.00048129656   -4.7142849 1.2223399e-05 8.3036545e-06 1.0122916e-05    9.4285714 
   65500 0.00046912517    -4.714285 -7.4865593e-06 4.6436236e-06 5.5770682e-06    9.4285714 
   65600 0.00047002254   -4.7142854 8.2862648e-06 7.8419235e-06 8.0541998e-06    9.4285714 
   65700 0.00047362561   -4.7142854 9.2771772e-06 -8.7987309e-06 1.0741198e-05    9.4285714 
   65800 0.00046227466   -4.7142853 -4.2420817e-07 -7.1296538e-06 7.083119e-06    9.4285714 
   65900 0.00043700346   -4.7142852 -1.9682929e-07 -9.3003721e-06 -1.1250915e-05    9.4285714 
   66000 0.00043749205   -4.7142855 -1.7014799e-07 -3.4411821e-05 -1.6851488e-06    9.4285714 
   66100 0.00043689448   -4.7142855 -3.3209087e-07 -1.2097596e-05 1.5080218e-05    9.4285714 
   66200 0.00043083336   -4.7142854 -1.7492644e-05 -9.2539272e-06 3.3081943e-06    9.4285714 
   66300 0.00039899596   -4.7142853 -1.8156849e-05 -2.5702661e-05 2.0083272e-06    9.4285714 
   66400 0.0003823885   -4.7142853 -2.7443056e-05 -9.0180933e-06 -2.0852934e-05    9.4285714 
   66500 0.00037207285   -4.7142854 -2.8173941e-05 -8.4639761e-06 -8.986547e-06    9.4285714 
   66600 0.00035144773   -4.7142851 -1.9397453e-05 -1.9569426e-05 -1.5926815e-05    9.4285714 
   66700 0.00035197974   -4.7142851 -1.6202598e-05 -1.0829668e-05 -2.0125823e-05    9.4285714 
   66800 0.00035739386   -4.7142852 -1.5574074e-05 -1.0986852e-05 1.6508639e-06    9.4285714 
   66900 0.00035170689   -4.7142855 -1.1747641e-05 -2.4351774e-05 -9.5474172e-06    9.4285714 
   67000 0.00033774919   -4.7142854 -1.2637598e-05 -2.2908028e-05 -1.5217687e-05    9.4285714 
   67100 0.00032101959   -4.7142853 -1.1767862e-05 -2.1311081e-05 -1.0304648e-05    9.4285714 
   67200 0.00031233812   -4.7142854 -5.2236053e-06 -2.068718e-05 -2.0484918e-05    9.4285714 
   67300 0.00030816613   -4.7142854 -4.8807838e-06 -1.6873987e-05 -1.6336161e-05    9.4285714 
   67400 0.00029867883   -4.7142851 -8.0147212e-06 -1.7083508e-05 -1.2550645e-05    9.4285714 
   67500 0.00030042709   -4.7142854 -6.5309243e-06 -9.405081e-06 -1.1252551e-05    9.4285714 
   67600 0.00030033817   -4.7142856 -1.3073314e-05 -9.7861246e-06 -3.2277767e-06    9.4285714 
   67700 0.00028787515   -4.7142855 -2.8280563e-06 -2.9020905e-05 -1.7597895e-05    9.4285714 
   67800 0.00026979448   -4.7142853 -3.2183943e-06 -3.0103384e-05 -2.0251666e-05    9.4285714 
   67900 0.00026965138   -4.7142854 -1.3254428e-05 -2.464949e-05 -9.6257374e-06    9.4285714 
   68000 0.00027265196   -4.7142855 -1.3646014e-06 -2.5322882e-05 -1.1489172e-05    9.4285714 
   68100 0.00026796678   -4.7142855 -4.3450692e-06 -1.7087787e-05 -3.45311e-06    9.4285714 
   68200 0.00027058601   -4.7142855 -1.2509866e-05 -1.456611e-05 -4.9446896e-06    9.4285714 
   68300 0.00026650382   -4.7142856 1.5461585e-06 -1.0810222e-05 -9.7288585e-06    9.4285714 
   68400 0.00025514566   -4.7142856 -9.542593e-06 -1.0978326e-05 -6.4652966e-06    9.4285714 
   68500 0.00024429737   -4.7142854 -1.7699917e-05 -1.3594012e-05 -6.6520818e-06    9.4285714 
   68600 0.00024181324   -4.7142856 -1.5094148e-05 -7.2040295e-06 -5.9906355e-06    9.4285714 
   68700 0.00024284694   -4.7142856 -2.0541404e-05 -1.3071844e-05 -7.1285798e-06    9.4285714 
   68800 0.00023812698   -4.7142856 -1.4200497e-05 -1.7171545e-05 -1.0660295e-05    9.4285714 
   68900 0.00023135089   -4.7142856 -6.1565648e-06 -1.9243568e-05 -7.270452e-06    9.4285714 
   69000 0.00022446839   -4.7142856 -1.0440396e-05 -2.1626098e-05 -1.4130622e-05    9.4285714 
   69100 0.00021400573   -4.7142856 -1.4206929e-05 -1.3377465e-05 -1.9587581e-05    9.4285714 
   69200 0.00019818105   -4.7142856 -2.8789277e-05 -1.0308046e-05 -1.7211724e-05    9.4285714 
   69300 0.00018965025   -4.7142855 -2.6173805e-05 -2.8280101e-05 -2.5218621e-05    9.4285714 
   69400 0.0001714065   -4.7142855 -1.654127e-05 -2.450988e-05 -2.1495299e-05    9.4285714 
   69500 0.0001763348   -4.7142856 -2.0780592e-05 -2.2639566e-05 -1.5576573e-05    9.4285714 
   69600 0.0001481171   -4.7142849 -1.8034675e-05 -1.5957678e-05 -2.1787547e-05    9.4285714 
   69700 0.00013447409   -4.7142845 -1.1970586e-05 -2.9094417e-05 -2.5174934e-05    9.4285714 
   69800 0.00014657885   -4.7142853 -1.5683311e-05 -1.6309919e-05 -2.0075974e-05    9.4285714 
   69900 0.00015609082   -4.7142855 -1.1426177e-05 -1.8313975e-06 -1.9875019e-05    9.4285714 
   70000 0.0001480329   -4.7142856 -1.2460666e-05 -1.6447231e-05 -1.9642105e-05    9.4285714 
   70100 0.00015151702   -4.7142856 -1.4628461e-05 -1.6409935e-05 -1.9122647e-05    9.4285714 
   70200 0.00015877941   -4.7142857 -7.583808e-06 -1.897031e-06 -1.4857946e-05    9.4285714 
   70300 0.00014843274   -4.7142856 -9.1839092e-06 -7.3723263e-06 -1.5486576e-05    9.4285714 
   70400 0.00012694866   -4.7142856 -1.4818342e-05 -1.1732793e-05 -1.9540803e-05    9.4285714 
   70500 0.0001223062   -4.7142855 -1.2766657e-05 -1.6306363e-05 -1.5815847e-05    9.4285714 
   70600 0.00012882541   -4.7142854 -1.0363823e-05 -1.4184553e-05 -1.3482073e-05    9.4285714 
   70700 0.00013355021   -4.7142856 -7.5351905e-06 -5.6878873e-06 -1.1428653e-05    9.4285714 
   70800 0.00011387212   -4.7142856 -1.3103633e-05 -2.1838499e-05 -1.422713e-05    9.4285714 
   70900 0.00010690897   -4.7142853 -1.5031273e-05 -1.6353644e-05 -1.1271084e-05    9.4285714 
   71000 0.00011592297   -4.7142856 -1.4028573e-05 -6.1554701e-06 -7.9135279e-06    9.4285714 
   71100 0.00011480819   -4.7142856 -8.8339375e-06 -1.7095536e-05 -1.3153708e-05    9.4285714 
   71200 0.00011120425   -4.7142855 -6.3415803e-06 -1.0844146e-05 -1.5933361e-05    9.4285714 
   71300 0.00010999134   -4.7142857 -1.1832122e-05 -9.8135256e-06 -1.0796306e-05    9.4285714 
   71400 0.0001085994   -4.7142856 -9.072296e-06 -1.4684027e-05 -9.3398805e-06    9.4285714 
   71500 0.00010229715   -4.7142856 -7.6834343e-06 -5.2923684e-06 -1.091418e-05    9.4285714 
   71600 9.4045037e-05   -4.7142857 -1.6042239e-05 -1.1911182e-05 -1.1726277e-05    9.4285714 
   71700 9.2582606e-05   -4.7142856 -1.8154264e-05 -1.4568798e-05 -1.261618e-05    9.4285714 
   71800  9.23704e-05   -4.7142856 -1.4790168e-05 -8.7882081e-06 -1.1151042e-05    9.4285714 
   71900 8.9370153e-05   -4.7142856 -9.6603935e-06 -1.3566313e-05 -9.2462067e-06    9.4285714 
   72000 8.8174192e-05   -4.7142856 -1.2556141e-05 -1.3025408e-05 -8.3693662e-06    9.4285714 
   72100 9.1354655e-05   -4.7142856 -1.1871034e-05 -7.7464864e-06 -8.3559765e-06    9.4285714 
   72200 8.8834445e-05   -4.7142857 -6.7700163e-06 -9.9481658e-06 -9.4504477e-06    9.4285714 
   72300 8.163427e-05   -4.7142856 -1.2590992e-05 -1.0543915e-05 -1.3015395e-05    9.4285714 
   72400 8.0170063e-05   -4.7142856 -1.4705482e-05 -1.0584579e-05 -1.3600996e-05    9.4285714 
   72500 8.2334351e-05   -4.7142857 -1.2255382e-05 -5.6324588e-06 -1.2861579e-05    9.4285714 
   72600 7.6158453e-05   -4.7142857 -1.404568e-05 -6.6959869e-06 -1.3883356e-05    9.4285714 
   72700 7.1631795e-05   -4.7142856 -1.428209e-05 -1.1695775e-05 -1.4770011e-05    9.4285714 
   72800 6.9815111e-05   -4.7142857 -1.4476332e-05 -7.4094047e-06 -1.0100618e-05    9.4285714 
   72900 7.3869581e-05   -4.7142857 -1.2372765e-05 -3.2032157e-06 -1.2462988e-05    9.4285714 
   73000 7.0229308e-05   -4.7142857 -1.1037948e-05 -5.4138776e-06 -1.3008661e-05    9.4285714 
   73100 6.7552754e-05   -4.7142857 -1.1569726e-05 -6.9374044e-06 -9.3561648e-06    9.4285714 
   73200 6.6289551e-05   -4.7142857 -8.9190387e-06 -2.2952683e-06 -1.2693116e-05    9.4285714 
   73300 6.1711122e-05   -4.7142857 -6.0766618e-06 -2.1366673e-06 -8.8565442e-06    9.4285714 
   73400 5.5466978e-05   -4.7142857 -1.2606476e-05 -7.0593008e-06 -1.1039131e-05    9.4285714 
   73500 5.2403589e-05   -4.7142857 -1.1774366e-05 -1.3796567e-05 -1.7407153e-05    9.4285714 
   73600 5.0884606e-05   -4.7142857 -9.7604748e-06 -1.9004056e-05 -1.2518873e-05    9.4285714 
   73700 5.1102772e-05   -4.7142857 -1.1986927e-05 -2.0827959e-05 -1.4278695e-05    9.4285714 
   73800 4.7646924e-05   -4.7142857 -1.1079416e-05 -2.2274544e-05 -1.6447968e-05    9.4285714 
   73900 4.6300272e-05   -4.7142857 -1.2183886e-05 -2.2431792e-05 -1.4069425e-05    9.4285714 
   74000 4.7954367e-05   -4.7142857 -1.100451e-05 -1.9739909e-05 -1.6995223e-05    9.4285714 
   74100 4.8138479e-05   -4.7142857 -1.0555876e-05 -1.5430426e-05 -1.7057843e-05    9.4285714 
   74200 4.641655e-05   -4.7142857 -1.3347942e-05 -1.0923304e-05 -1.5273804e-05    9.4285714 
   74300 4.631402e-05   -4.7142857 -1.4944003e-05 -7.6247122e-06 -1.591211e-05    9.4285714 
   74400 4.7671679e-05   -4.7142857 -1.6008685e-05 -7.9381768e-06 -1.3142685e-05    9.4285714 
   74500 4.3091565e-05   -4.7142857 -1.5455148e-05 -9.5212084e-06 -1.2939349e-05    9.4285714 
   74600 3.8457508e-05   -4.7142857 -1.5121742e-05 -1.189886e-05 -1.6042127e-05    9.4285714 
   74700 3.9395526e-05   -4.7142857 -1.5995559e-05 -1.5001987e-05 -1.3933931e-05    9.4285714 
   74800 4.103613e-05   -4.7142857 -1.4637418e-05 -1.1943921e-05 -1.2291116e-05    9.4285714 
   74900 4.0591823e-05   -4.7142857 -1.4880028e-05 -1.1128494e-05 -1.354326e-05    9.4285714 
   75000 3.8580406e-05   -4.7142857 -1.413257e-05 -1.3876756e-05 -1.266037e-05    9.4285714 
   75100 4.0291191e-05   -4.7142857 -1.165215e-05 -1.1135144e-05 -1.2679168e-05    9.4285714 
   75200 4.0333708e-05   -4.7142857 -1.178826e-05 -1.2994513e-05 -1.5283298e-05    9.4285714 
   75300 3.8347008e-05   -4.7142857 -1.0978061e-05 -1.633751e-05 -1.460824e-05    9.4285714 
   75400 3.8633982e-05   -4.7142857 -1.0936006e-05 -1.3715951e-05 -1.4335084e-05    9.4285714 
   75500 3.7903905e-05   -4.7142857 -1.2985963e-05 -1.520996e-05 -1.5932056e-05    9.4285714 
   75600 3.5004324e-05   -4.7142857 -1.3234858e-05 -1.3993442e-05 -1.6880321e-05    9.4285714 
   75700 3.4332643e-05   -4.7142857 -1.3104988e-05 -1.1652753e-05 -1.6206646e-05    9.4285714 
   75800 3.4663353e-05   -4.7142857 -1.4931844e-05 -1.5330977e-05 -1.4922537e-05    9.4285714 
   75900  3.39391e-05   -4.7142857 -1.6867182e-05 -1.4943354e-05 -1.500024e-05    9.4285714 
   76000 3.278412e-05   -4.7142857 -1.6658044e-05 -1.4199689e-05 -1.4792111e-05    9.4285714 
   76100 3.1166814e-05   -4.7142857 -1.308461e-05 -1.6339554e-05 -1.440781e-05    9.4285714 
   76200 2.9933872e-05   -4.7142857 -1.0687114e-05 -1.4194673e-05 -1.3954334e-05    9.4285714 
   76300 3.1422641e-05   -4.7142857 -1.0917609e-05 -1.1569941e-05 -1.2815093e-05    9.4285714 
   76400 3.0754581e-05   -4.7142857 -1.0853277e-05 -1.3296864e-05 -1.1515583e-05    9.4285714 
   76500 2.9024215e-05   -4.7142857 -1.2056388e-05 -1.3169585e-05 -1.2258476e-05    9.4285714 
   76600 2.7473571e-05   -4.7142857 -1.4305578e-05 -1.3641621e-05 -1.3588762e-05    9.4285714 
   76700 2.7118998e-05   -4.7142857 -1.431701e-05 -1.4460584e-05 -1.4573318e-05    9.4285714 
   76800 2.5718995e-05   -4.7142857 -1.3268142e-05 -1.5339464e-05 -1.2625212e-05    9.4285714 
   76900 2.5017639e-05   -4.7142857 -1.2780904e-05 -1.8673025e-05 -1.3087177e-05    9.4285714 
   77000 2.5750768e-05   -4.7142857 -1.2369744e-05 -1.7361658e-05 -1.3649753e-05    9.4285714 
   77100 2.6187016e-05   -4.7142857 -1.162578e-05 -1.3664446e-05 -1.2382019e-05    9.4285714 
   77200 2.5631995e-05   -4.7142857 -1.0419397e-05 -1.2996254e-05 -1.5044551e-05    9.4285714 
   77300 2.4696214e-05   -4.7142857 -1.0244805e-05 -1.4615777e-05 -1.5127621e-05    9.4285714 
   77400 2.4553284e-05   -4.7142857 -1.2204481e-05 -1.6264852e-05 -1.3619953e-05    9.4285714 
   77500 2.2797706e-05   -4.7142857 -1.340907e-05 -1.8171911e-05 -1.5862747e-05    9.4285714 
   77600 2.2171226e-05   -4.7142857 -1.3486916e-05 -1.8450579e-05 -1.5371287e-05    9.4285714 
   77700 2.253978e-05   -4.7142857 -1.5266008e-05 -1.8044476e-05 -1.4291304e-05    9.4285714 
   77800 2.1060799e-05   -4.7142857 -1.5324528e-05 -1.7624234e-05 -1.8346195e-05    9.4285714 
   77900 2.0523503e-05   -4.7142857 -1.4965705e-05 -1.6987754e-05 -1.8433091e-05    9.4285714 
   78000 2.0333762e-05   -4.7142857 -1.5645332e-05 -1.7825746e-05 -1.5138649e-05    9.4285714 
   78100 1.9991709e-05   -4.7142857 -1.63199e-05 -1.7374474e-05 -1.6194737e-05    9.4285714 
   78200 1.9011748e-05   -4.7142857 -1.7571324e-05 -1.5937247e-05 -1.7129556e-05    9.4285714 
   78300 1.7452493e-05   -4.7142857 -1.8472289e-05 -1.8185251e-05 -1.6906318e-05    9.4285714 
   78400 1.6922045e-05   -4.7142857 -1.9571229e-05 -1.7381686e-05 -1.7176184e-05    9.4285714 
   78500 1.6749859e-05   -4.7142857 -1.9888844e-05 -1.3779843e-05 -1.6434381e-05    9.4285714 
   78600 1.5533985e-05   -4.7142857 -1.7731773e-05 -1.4423452e-05 -1.6570257e-05    9.4285714 
   78700 1.6001708e-05   -4.7142857 -1.7195797e-05 -1.4572687e-05 -1.6806883e-05    9.4285714 
   78800 1.6443082e-05   -4.7142857 -1.6704891e-05 -1.4293232e-05 -1.561369e-05    9.4285714 
   78900 1.5513588e-05   -4.7142857 -1.598409e-05 -1.593261e-05 -1.5624319e-05    9.4285714 
   79000 1.4695976e-05   -4.7142857 -1.698324e-05 -1.5288966e-05 -1.4638475e-05    9.4285714 
   79100 1.479743e-05   -4.7142857 -1.6125153e-05 -1.2827596e-05 -1.2616114e-05    9.4285714 
   79200  1.55577e-05   -4.7142857 -1.557531e-05 -1.2552924e-05 -1.3990744e-05    9.4285714 
   79300 1.4870035e-05   -4.7142857 -1.5804097e-05 -1.3084783e-05 -1.5763936e-05    9.4285714 
   79400 1.407294e-05   -4.7142857 -1.5106607e-05 -1.1445875e-05 -1.5502237e-05    9.4285714 
   79500 1.4958231e-05   -4.7142857 -1.4765877e-05 -1.1751226e-05 -1.4966677e-05    9.4285714 
   79600 1.4736524e-05   -4.7142857 -1.3947974e-05 -1.2887404e-05 -1.4416364e-05    9.4285714 
   79700 1.3928261e-05   -4.7142857 -1.4198053e-05 -1.2965799e-05 -1.4443335e-05    9.4285714 
   79800 1.3972387e-05   -4.7142857 -1.5355989e-05 -1.5100663e-05 -1.4131894e-05    9.4285714 
   79900 1.3811564e-05   -4.7142857 -1.4835591e-05 -1.4815966e-05 -1.3869381e-05    9.4285714 
   80000 1.2957672e-05   -4.7142857 -1.5062602e-05 -1.45292e-05 -1.4891301e-05    9.4285714 
   80100 1.2563865e-05   -4.7142857 -1.5169994e-05 -1.4546799e-05 -1.3765274e-05    9.4285714 
   80200 1.3022287e-05   -4.7142857 -1.3763722e-05 -1.3208951e-05 -1.2723976e-05    9.4285714 
   80300 1.3584684e-05   -4.7142857 -1.3004687e-05 -1.4331205e-05 -1.3734168e-05    9.4285714 
   80400 1.2367299e-05   -4.7142857 -1.2946676e-05 -1.5953744e-05 -1.3874706e-05    9.4285714 
   80500 1.1149314e-05   -4.7142857 -1.3763549e-05 -1.8354674e-05 -1.4422516e-05    9.4285714 
   80600 1.1310076e-05   -4.7142857 -1.4352942e-05 -1.8196343e-05 -1.4380524e-05    9.4285714 
   80700 1.1762402e-05   -4.7142857 -1.4320877e-05 -1.5912122e-05 -1.4152813e-05    9.4285714 
   80800 1.1709271e-05   -4.7142857 -1.456974e-05 -1.5795666e-05 -1.6150824e-05    9.4285714 
   80900 1.1245245e-05   -4.7142857 -1.3817494e-05 -1.5518817e-05 -1.6397017e-05    9.4285714 
   81000 1.1164538e-05   -4.7142857 -1.3696962e-05 -1.6226212e-05 -1.6916834e-05    9.4285714 
   81100 1.1502669e-05   -4.7142857 -1.3828506e-05 -1.6835139e-05 -1.8154461e-05    9.4285714 
   81200 1.1833191e-05   -4.7142857 -1.2706063e-05 -1.5821428e-05 -1.6742871e-05    9.4285714 
   81300 1.2211644e-05   -4.7142857 -1.27375e-05 -1.4579716e-05 -1.6472811e-05    9.4285714 
   81400 1.2622004e-05   -4.7142857 -1.3634996e-05 -1.3090653e-05 -1.6380222e-05    9.4285714 
   81500 1.2584806e-05   -4.7142857 -1.4674952e-05 -1.3052279e-05 -1.5020578e-05    9.4285714 
   81600 1.2124271e-05   -4.7142857 -1.5487136e-05 -1.3656557e-05 -1.5664484e-05    9.4285714 
   81700 1.2115025e-05   -4.7142857 -1.5327873e-05 -1.3487752e-05 -1.5331047e-05    9.4285714 
   81800 1.2759869e-05   -4.7142857 -1.5382456e-05 -1.3610465e-05 -1.446284e-05    9.4285714 
   81900 1.2785583e-05   -4.7142857 -1.5214877e-05 -1.4182825e-05 -1.5119828e-05    9.4285714 
   82000 1.1934364e-05   -4.7142857 -1.5067498e-05 -1.4838559e-05 -1.5137992e-05    9.4285714 
   82100 1.1214178e-05   -4.7142857 -1.5439424e-05 -1.5802947e-05 -1.5782085e-05    9.4285714 
   82200 1.0543709e-05   -4.7142857 -1.5446821e-05 -1.7103774e-05 -1.6302123e-05    9.4285714 
   82300 1.0325745e-05   -4.7142857 -1.6189094e-05 -1.8974598e-05 -1.5529736e-05    9.4285714 
   82400 1.0566514e-05   -4.7142857 -1.7082526e-05 -2.0057555e-05 -1.5728261e-05    9.4285714 
   82500 1.0668163e-05   -4.7142857 -1.7396752e-05 -1.9951884e-05 -1.5992504e-05    9.4285714 
   82600 1.0279796e-05   -4.7142857 -1.738787e-05 -2.0196256e-05 -1.6446196e-05    9.4285714 
   82700 9.980952e-06   -4.7142857 -1.6578404e-05 -1.9270528e-05 -1.6117223e-05    9.4285714 
   82800 9.8737345e-06   -4.7142857 -1.6651516e-05 -1.7426784e-05 -1.5866862e-05    9.4285714 
   82900 9.9880551e-06   -4.7142857 -1.5586743e-05 -1.6422642e-05 -1.6574528e-05    9.4285714 
   83000 9.6470033e-06   -4.7142857 -1.4253159e-05 -1.6267654e-05 -1.7503416e-05    9.4285714 
   83100 9.0263055e-06   -4.7142857 -1.5582075e-05 -1.6909101e-05 -1.9323241e-05    9.4285714 
   83200 9.0247993e-06   -4.7142857 -1.5263754e-05 -1.7003035e-05 -1.9783892e-05    9.4285714 
   83300 9.3459571e-06   -4.7142857 -1.4154495e-05 -1.5460975e-05 -1.8363556e-05    9.4285714 
   83400 9.3818016e-06   -4.7142857 -1.4641459e-05 -1.3929953e-05 -1.7287384e-05    9.4285714 
   83500 9.5609985e-06   -4.7142857 -1.430942e-05 -1.4416098e-05 -1.6177161e-05    9.4285714 
   83600 1.0113881e-05   -4.7142857 -1.4581875e-05 -1.4843248e-05 -1.5551195e-05    9.4285714 
   83700 1.0162089e-05   -4.7142857 -1.5663427e-05 -1.50393e-05 -1.6048905e-05    9.4285714 
   83800 9.7016327e-06   -4.7142857 -1.5969816e-05 -1.5433063e-05 -1.6529399e-05    9.4285714 
   83900 9.7311674e-06   -4.7142857 -1.6005713e-05 -1.4689451e-05 -1.6800833e-05    9.4285714 
   84000 9.9358855e-06   -4.7142857 -1.6127949e-05 -1.3534531e-05 -1.6554794e-05    9.4285714 
   84100 9.9289786e-06   -4.7142857 -1.5631642e-05 -1.3181885e-05 -1.5877599e-05    9.4285714 
   84200 1.0123274e-05   -4.7142857 -1.5073331e-05 -1.4238795e-05 -1.5974051e-05    9.4285714 
   84300 1.0321305e-05   -4.7142857 -1.4652704e-05 -1.5586652e-05 -1.6327106e-05    9.4285714 
   84400 1.0247248e-05   -4.7142857 -1.4779839e-05 -1.6731849e-05 -1.6548643e-05    9.4285714 
   84500 1.0094063e-05   -4.7142857 -1.4910909e-05 -1.676092e-05 -1.6793125e-05    9.4285714 
   84600 9.9763053e-06   -4.7142857 -1.5162097e-05 -1.6033207e-05 -1.6486257e-05    9.4285714 
   84700 9.5206838e-06   -4.7142857 -1.5042672e-05 -1.5152256e-05 -1.588935e-05    9.4285714 
   84800 8.9062383e-06   -4.7142857 -1.3733548e-05 -1.4935078e-05 -1.5219473e-05    9.4285714 
   84900 8.4608755e-06   -4.7142857 -1.3253611e-05 -1.5916662e-05 -1.4614583e-05    9.4285714 
   85000 8.0192365e-06   -4.7142857 -1.3126327e-05 -1.637167e-05 -1.4350742e-05    9.4285714 
   85100 7.9761033e-06   -4.7142857 -1.3069074e-05 -1.7220389e-05 -1.4062888e-05    9.4285714 
   85200 8.0835543e-06   -4.7142857 -1.3569794e-05 -1.7069744e-05 -1.3778454e-05    9.4285714 
   85300 8.1275735e-06   -4.7142857 -1.3941408e-05 -1.5997547e-05 -1.4117292e-05    9.4285714 
   85400 8.4459009e-06   -4.7142857 -1.456328e-05 -1.5611744e-05 -1.4354375e-05    9.4285714 
   85500 8.4541663e-06   -4.7142857 -1.5168197e-05 -1.5148273e-05 -1.4773075e-05    9.4285714 
   85600 8.2004746e-06   -4.7142857 -1.5073675e-05 -1.4767822e-05 -1.5143245e-05    9.4285714 
   85700 8.0342592e-06   -4.7142857 -1.4947534e-05 -1.4826325e-05 -1.5088549e-05    9.4285714 
   85800 7.8659332e-06   -4.7142857 -1.5065529e-05 -1.4518711e-05 -1.5370922e-05    9.4285714 
   85900 7.6306796e-06   -4.7142857 -1.5176879e-05 -1.4435433e-05 -1.5766931e-05    9.4285714 
   86000 7.5972918e-06   -4.7142857 -1.5131279e-05 -1.4502293e-05 -1.6022005e-05    9.4285714 
   86100 7.8659318e-06   -4.7142857 -1.4967443e-05 -1.4559529e-05 -1.6326507e-05    9.4285714 
   86200 7.8709138e-06   -4.7142857 -1.4770291e-05 -1.5549814e-05 -1.6473316e-05    9.4285714 
   86300 7.6478157e-06   -4.7142857 -1.4930937e-05 -1.6666543e-05 -1.6677668e-05    9.4285714 
   86400 7.7317444e-06   -4.7142857 -1.4847182e-05 -1.6915668e-05 -1.655259e-05    9.4285714 
   86500 7.8872355e-06   -4.7142857 -1.4360701e-05 -1.6696103e-05 -1.6422615e-05    9.4285714 
   86600 7.9467186e-06   -4.7142857 -1.3959124e-05 -1.5997647e-05 -1.6288514e-05    9.4285714 
   86700 7.9278254e-06   -4.7142857 -1.354331e-05 -1.5394874e-05 -1.5935042e-05    9.4285714 
   86800 7.8774016e-06   -4.7142857 -1.3217858e-05 -1.532048e-05 -1.5803438e-05    9.4285714 
   86900 7.775588e-06   -4.7142857 -1.3559543e-05 -1.5026482e-05 -1.5813378e-05    9.4285714 
   87000 7.4582028e-06   -4.7142857 -1.4246545e-05 -1.4764601e-05 -1.5623165e-05    9.4285714 
   87100 6.8371197e-06   -4.7142857 -1.4558367e-05 -1.5100383e-05 -1.5191477e-05    9.4285714 
   87200 6.2680068e-06   -4.7142857 -1.4700384e-05 -1.5351267e-05 -1.476608e-05    9.4285714 
   87300 5.8516912e-06   -4.7142857 -1.4911344e-05 -1.5738952e-05 -1.4528332e-05    9.4285714 
   87400 5.4549865e-06   -4.7142857 -1.5792681e-05 -1.7003657e-05 -1.4715333e-05    9.4285714 
   87500 4.9665221e-06   -4.7142857 -1.7029481e-05 -1.7522718e-05 -1.5420292e-05    9.4285714 
   87600 4.5178563e-06   -4.7142857 -1.650202e-05 -1.7440246e-05 -1.5235233e-05    9.4285714 
   87700 4.345985e-06   -4.7142857 -1.5495038e-05 -1.7432267e-05 -1.5108386e-05    9.4285714 
   87800 4.5412609e-06   -4.7142857 -1.4815021e-05 -1.6753147e-05 -1.5158632e-05    9.4285714 
   87900 4.5642217e-06   -4.7142857 -1.4175945e-05 -1.6362257e-05 -1.5144615e-05    9.4285714 
   88000 4.5540927e-06   -4.7142857 -1.4388451e-05 -1.5619622e-05 -1.5668186e-05    9.4285714 
   88100 4.4196823e-06   -4.7142857 -1.4738254e-05 -1.5132678e-05 -1.6518346e-05    9.4285714 
   88200 3.9574103e-06   -4.7142857 -1.4890034e-05 -1.5307772e-05 -1.7179767e-05    9.4285714 
   88300 3.5222487e-06   -4.7142857 -1.510225e-05 -1.5338999e-05 -1.7416889e-05    9.4285714 
   88400 3.165884e-06   -4.7142857 -1.4760001e-05 -1.5715198e-05 -1.7366111e-05    9.4285714 
   88500 2.9083225e-06   -4.7142857 -1.4658219e-05 -1.55297e-05 -1.7109038e-05    9.4285714 
   88600 2.7400176e-06   -4.7142857 -1.4777364e-05 -1.4923406e-05 -1.6629238e-05    9.4285714 
   88700 2.5251673e-06   -4.7142857 -1.4727405e-05 -1.4871968e-05 -1.6249056e-05    9.4285714 
   88800 2.3826746e-06   -4.7142857 -1.5230979e-05 -1.4709511e-05 -1.6124211e-05    9.4285714 
   88900 2.1768687e-06   -4.7142857 -1.5409575e-05 -1.4606505e-05 -1.6265793e-05    9.4285714 
   89000 1.8236564e-06   -4.7142857 -1.4891077e-05 -1.4374433e-05 -1.6290261e-05    9.4285714 
   89100 1.7278097e-06   -4.7142857 -1.4766014e-05 -1.4698173e-05 -1.629142e-05    9.4285714 
   89200 1.7898696e-06   -4.7142857 -1.4680311e-05 -1.5447769e-05 -1.6234869e-05    9.4285714 
   89300 1.6235898e-06   -4.7142857 -1.4619946e-05 -1.5353355e-05 -1.5935208e-05    9.4285714 
   89400 1.4453719e-06   -4.7142857 -1.5077313e-05 -1.5256516e-05 -1.5760859e-05    9.4285714 
   89500 1.527574e-06   -4.7142857 -1.5228139e-05 -1.5150839e-05 -1.5329339e-05    9.4285714 
   89600 1.5597904e-06   -4.7142857 -1.5206651e-05 -1.4952764e-05 -1.469008e-05    9.4285714 
   89700 1.4754946e-06   -4.7142857 -1.5417012e-05 -1.5114832e-05 -1.4373909e-05    9.4285714 
   89800 1.4411527e-06   -4.7142857 -1.5208876e-05 -1.5296763e-05 -1.4098277e-05    9.4285714 
   89900 1.502323e-06   -4.7142857 -1.4827425e-05 -1.5396237e-05 -1.3859086e-05    9.4285714 
   90000 1.5830978e-06   -4.7142857 -1.4309229e-05 -1.5122624e-05 -1.3769174e-05    9.4285714 
   90100 1.5804557e-06   -4.7142857 -1.3861992e-05 -1.4518884e-05 -1.3724813e-05    9.4285714 
   90200 1.5634629e-06   -4.7142857 -1.3826434e-05 -1.422755e-05 -1.3763402e-05    9.4285714 
   90300 1.6024078e-06   -4.7142857 -1.3630179e-05 -1.4108354e-05 -1.3946447e-05    9.4285714 
   90400 1.5977837e-06   -4.7142857 -1.356028e-05 -1.4344669e-05 -1.4260334e-05    9.4285714 
   90500 1.5141386e-06   -4.7142857 -1.3857977e-05 -1.5201516e-05 -1.4518829e-05    9.4285714 
   90600 1.4576706e-06   -4.7142857 -1.3999155e-05 -1.5886239e-05 -1.4615598e-05    9.4285714 
   90700 1.429486e-06   -4.7142857 -1.419224e-05 -1.6426855e-05 -1.4489664e-05    9.4285714 
   90800 1.3235743e-06   -4.7142857 -1.44774e-05 -1.6912648e-05 -1.4218881e-05    9.4285714 
   90900 1.1910677e-06   -4.7142857 -1.4714565e-05 -1.6726698e-05 -1.3993324e-05    9.4285714 
   91000 1.1413105e-06   -4.7142857 -1.5100515e-05 -1.6536692e-05 -1.3871364e-05    9.4285714 
   91100 1.1451671e-06   -4.7142857 -1.5305607e-05 -1.656882e-05 -1.3686713e-05    9.4285714 
   91200 1.1323551e-06   -4.7142857 -1.5286666e-05 -1.6462418e-05 -1.361651e-05    9.4285714 
   91300 1.1255554e-06   -4.7142857 -1.5404388e-05 -1.6630294e-05 -1.3793667e-05    9.4285714 
   91400 1.2378762e-06   -4.7142857 -1.5510436e-05 -1.6724052e-05 -1.3925227e-05    9.4285714 
   91500 1.4005544e-06   -4.7142857 -1.5509174e-05 -1.6384764e-05 -1.4041048e-05    9.4285714 
   91600 1.3953038e-06   -4.7142857 -1.5420434e-05 -1.6185723e-05 -1.4225674e-05    9.4285714 
   91700 1.3106567e-06   -4.7142857 -1.5056173e-05 -1.594025e-05 -1.4320215e-05    9.4285714 
   91800 1.3340271e-06   -4.7142857 -1.4654593e-05 -1.5633558e-05 -1.4315921e-05    9.4285714 
   91900 1.3522582e-06   -4.7142857 -1.4498864e-05 -1.5494489e-05 -1.4458407e-05    9.4285714 
   92000 1.3158871e-06   -4.7142857 -1.4491876e-05 -1.5514912e-05 -1.4653442e-05    9.4285714 
   92100 1.3643585e-06   -4.7142857 -1.453065e-05 -1.5710343e-05 -1.4811466e-05    9.4285714 
   92200 1.4729997e-06   -4.7142857 -1.4690811e-05 -1.5971338e-05 -1.5095179e-05    9.4285714 
   92300 1.5358294e-06   -4.7142857 -1.4914728e-05 -1.6032194e-05 -1.5448421e-05    9.4285714 
   92400 1.5170825e-06   -4.7142857 -1.5249304e-05 -1.6217016e-05 -1.581467e-05    9.4285714 
   92500 1.5226394e-06   -4.7142857 -1.5593531e-05 -1.6344887e-05 -1.6143519e-05    9.4285714 
   92600 1.5654443e-06   -4.7142857 -1.559349e-05 -1.5992274e-05 -1.6231767e-05    9.4285714 
   92700 1.4702831e-06   -4.7142857 -1.5734905e-05 -1.5835612e-05 -1.640086e-05    9.4285714 
   92800 1.2729797e-06   -4.7142857 -1.601544e-05 -1.58833e-05 -1.6617643e-05    9.4285714 
   92900 1.1993055e-06   -4.7142857 -1.6370313e-05 -1.6035241e-05 -1.6710816e-05    9.4285714 
   93000 1.103877e-06   -4.7142857 -1.676123e-05 -1.6053346e-05 -1.6779897e-05    9.4285714 
   93100 9.766923e-07   -4.7142857 -1.6867719e-05 -1.605566e-05 -1.6723947e-05    9.4285714 
   93200 1.0109827e-06   -4.7142857 -1.6676395e-05 -1.5946366e-05 -1.6627526e-05    9.4285714 
   93300 1.0527596e-06   -4.7142857 -1.6257661e-05 -1.554464e-05 -1.6513078e-05    9.4285714 
   93400 9.8053255e-07   -4.7142857 -1.5807503e-05 -1.5445853e-05 -1.6341358e-05    9.4285714 
   93500 9.1694875e-07   -4.7142857 -1.5533112e-05 -1.5516565e-05 -1.6228406e-05    9.4285714 
   93600 8.8303951e-07   -4.7142857 -1.5069959e-05 -1.5529544e-05 -1.6132536e-05    9.4285714 
   93700 8.2246174e-07   -4.7142857 -1.472233e-05 -1.6179351e-05 -1.6113594e-05    9.4285714 
   93800 7.4646055e-07   -4.7142857 -1.4618489e-05 -1.6810345e-05 -1.6177715e-05    9.4285714 
   93900 6.9678557e-07   -4.7142857 -1.4437826e-05 -1.7139561e-05 -1.6194232e-05    9.4285714 
   94000 6.9952571e-07   -4.7142857 -1.43724e-05 -1.732509e-05 -1.620084e-05    9.4285714 
   94100 6.9465388e-07   -4.7142857 -1.426563e-05 -1.6905551e-05 -1.6207167e-05    9.4285714 
   94200 6.534208e-07   -4.7142857 -1.4215548e-05 -1.6577799e-05 -1.6283956e-05    9.4285714 
   94300 6.3618037e-07   -4.7142857 -1.4523483e-05 -1.653617e-05 -1.64375e-05    9.4285714 
   94400 6.2939519e-07   -4.7142857 -1.4685124e-05 -1.6404885e-05 -1.6365934e-05    9.4285714 
   94500 5.8077775e-07   -4.7142857 -1.4919583e-05 -1.646521e-05 -1.6155952e-05    9.4285714 
   94600 5.5073819e-07   -4.7142857 -1.5396415e-05 -1.6362774e-05 -1.5992816e-05    9.4285714 
   94700 5.2312334e-07   -4.7142857 -1.5511011e-05 -1.6117244e-05 -1.5722347e-05    9.4285714 
   94800 4.3781721e-07   -4.7142857 -1.5578497e-05 -1.6104756e-05 -1.5517678e-05    9.4285714 
   94900 3.7231868e-07   -4.7142857 -1.555009e-05 -1.6057524e-05 -1.5346006e-05    9.4285714 
   95000 3.6663445e-07   -4.7142857 -1.5290067e-05 -1.6097112e-05 -1.5071108e-05    9.4285714 
   95100 3.7586183e-07   -4.7142857 -1.5105309e-05 -1.6192294e-05 -1.4871355e-05    9.4285714 
   95200 3.8418758e-07   -4.7142857 -1.4861047e-05 -1.6053586e-05 -1.4728481e-05    9.4285714 
   95300 3.9338354e-07   -4.7142857 -1.4584146e-05 -1.5916531e-05 -1.4597814e-05    9.4285714 
   95400 4.1470007e-07   -4.7142857 -1.4406666e-05 -1.5799083e-05 -1.4509796e-05    9.4285714 
   95500 4.1217771e-07   -4.7142857 -1.4216838e-05 -1.572919e-05 -1.4450868e-05    9.4285714 
   95600 3.7339985e-07   -4.7142857 -1.4085441e-05 -1.5855742e-05 -1.4482855e-05    9.4285714 
   95700 3.6224929e-07   -4.7142857 -1.395535e-05 -1.5867623e-05 -1.4507753e-05    9.4285714 
   95800 3.6700427e-07   -4.7142857 -1.3811124e-05 -1.5872957e-05 -1.4523805e-05    9.4285714 
   95900 3.5928171e-07   -4.7142857 -1.3872826e-05 -1.600523e-05 -1.4590433e-05    9.4285714 
   96000 3.613478e-07   -4.7142857 -1.4044344e-05 -1.6103734e-05 -1.4662603e-05    9.4285714 
   96100 3.7441468e-07   -4.7142857 -1.4197803e-05 -1.6194892e-05 -1.4788716e-05    9.4285714 
   96200 3.6782696e-07   -4.7142857 -1.4369157e-05 -1.6198825e-05 -1.4994034e-05    9.4285714 
   96300 3.366289e-07   -4.7142857 -1.4548485e-05 -1.6105141e-05 -1.5216323e-05    9.4285714 
   96400 3.1488125e-07   -4.7142857 -1.4852391e-05 -1.6071107e-05 -1.5417112e-05    9.4285714 
   96500 3.1962522e-07   -4.7142857 -1.5196988e-05 -1.6060678e-05 -1.5546629e-05    9.4285714 
   96600 3.2545372e-07   -4.7142857 -1.5474772e-05 -1.6056875e-05 -1.560179e-05    9.4285714 
   96700 3.2075147e-07   -4.7142857 -1.5663715e-05 -1.6024881e-05 -1.5608974e-05    9.4285714 
   96800 3.1900741e-07   -4.7142857 -1.5627356e-05 -1.5884542e-05 -1.5557193e-05    9.4285714 
   96900 3.0937398e-07   -4.7142857 -1.5541895e-05 -1.5824716e-05 -1.5490677e-05    9.4285714 
   97000 2.888521e-07   -4.7142857 -1.5532377e-05 -1.5849941e-05 -1.5408808e-05    9.4285714 
   97100 2.8062675e-07   -4.7142857 -1.5424709e-05 -1.5789425e-05 -1.5344008e-05    9.4285714 
   97200 2.7259018e-07   -4.7142857 -1.525213e-05 -1.5742591e-05 -1.5351193e-05    9.4285714 
   97300 2.5079618e-07   -4.7142857 -1.493221e-05 -1.5647665e-05 -1.5377934e-05    9.4285714 
   97400 2.3092654e-07   -4.7142857 -1.4505065e-05 -1.5570683e-05 -1.5393542e-05    9.4285714 
   97500 2.1183478e-07   -4.7142857 -1.4200896e-05 -1.5596033e-05 -1.5370916e-05    9.4285714 
   97600 1.923775e-07   -4.7142857 -1.402574e-05 -1.5643771e-05 -1.5326364e-05    9.4285714 
   97700 1.8014686e-07   -4.7142857 -1.4007076e-05 -1.5714621e-05 -1.5292616e-05    9.4285714 
   97800 1.6753369e-07   -4.7142857 -1.4231796e-05 -1.5816585e-05 -1.5277392e-05    9.4285714 
   97900 1.5488872e-07   -4.7142857 -1.4550906e-05 -1.5989734e-05 -1.5306236e-05    9.4285714 
   98000 1.5029351e-07   -4.7142857 -1.4825876e-05 -1.6149927e-05 -1.5326564e-05    9.4285714 
   98100 1.5505857e-07   -4.7142857 -1.5020894e-05 -1.6204111e-05 -1.5368077e-05    9.4285714 
   98200 1.6761414e-07   -4.7142857 -1.5104049e-05 -1.615858e-05 -1.5429562e-05    9.4285714 
   98300 1.827265e-07   -4.7142857 -1.5148942e-05 -1.6006424e-05 -1.5463864e-05    9.4285714 
   98400 1.9319974e-07   -4.7142857 -1.5208115e-05 -1.5889727e-05 -1.5534896e-05    9.4285714 
   98500 1.9088949e-07   -4.7142857 -1.5199072e-05 -1.5861978e-05 -1.5589091e-05    9.4285714 
   98600 1.7799024e-07   -4.7142857 -1.5153971e-05 -1.5845374e-05 -1.5615417e-05    9.4285714 
   98700 1.650016e-07   -4.7142857 -1.5071686e-05 -1.5871434e-05 -1.5646712e-05    9.4285714 
   98800 1.5381591e-07   -4.7142857 -1.4976039e-05 -1.5916557e-05 -1.5639779e-05    9.4285714 
   98900 1.4561701e-07   -4.7142857 -1.4948048e-05 -1.5942893e-05 -1.5591273e-05    9.4285714 
   99000 1.409876e-07   -4.7142857 -1.4938783e-05 -1.5964216e-05 -1.552527e-05    9.4285714 
   99100 1.3647033e-07   -4.7142857 -1.4929778e-05 -1.5954524e-05 -1.5435251e-05    9.4285714 
   99200 1.3362811e-07   -4.7142857 -1.493995e-05 -1.5899959e-05 -1.536751e-05    9.4285714 
   99300 1.332697e-07   -4.7142857 -1.4901845e-05 -1.5823408e-05 -1.5288535e-05    9.4285714 
   99400 1.3246942e-07   -4.7142857 -1.4863126e-05 -1.58044e-05 -1.5177726e-05    9.4285714 
   99500 1.2902143e-07   -4.7142857 -1.4839913e-05 -1.5850368e-05 -1.5096824e-05    9.4285714 
   99600   1.2026e-07   -4.7142857 -1.4783678e-05 -1.5936741e-05 -1.5045878e-05    9.4285714 
   99700 1.0682618e-07   -4.7142857 -1.4722651e-05 -1.6094168e-05 -1.5037704e-05    9.4285714 
   99800 1.0135835e-07   -4.7142857 -1.4653152e-05 -1.6166665e-05 -1.5083701e-05    9.4285714 
   99900 1.0408582e-07   -4.7142857 -1.4564358e-05 -1.6121388e-05 -1.5103438e-05    9.4285714 
  100000 1.0680034e-07   -4.7142857 -1.4507587e-05 -1.604874e-05 -1.5136253e-05    9.4285714 
Loop time of 290.919 on 1 procs for 100000 steps with 2520 atoms

Performance: 1484950.148 tau/day, 343.738 timesteps/s
100.0% CPU use with 1 MPI tasks x no OpenMP threads

MPI task timing breakdown:
Section |  min time  |  avg time  |  max time  |%varavg| %total
---------------------------------------------------------------
Pair    | 5.4111     | 5.4111     | 5.4111     |   0.0 |  1.86
Bond    | 255.11     | 255.11     | 255.11     |   0.0 | 87.69
Neigh   | 4.7124     | 4.7124     | 4.7124     |   0.0 |  1.62
Comm    | 0.12616    | 0.12616    | 0.12616    |   0.0 |  0.04
Output  | 0.61128    | 0.61128    | 0.61128    |   0.0 |  0.21
Modify  | 24.262     | 24.262     | 24.262     |   0.0 |  8.34
Other   |            | 0.6856     |            |       |  0.24

Nlocal:        2520.00 ave        2520 max        2520 min
Histogram: 1 0 0 0 0 0 0 0 0 0
Nghost:         0.00000 ave           0 max           0 min
Histogram: 1 0 0 0 0 0 0 0 0 0
Neighs:        9690.00 ave        9690 max        9690 min
Histogram: 1 0 0 0 0 0 0 0 0 0

Total # of neighbors = 9690
Ave neighs/atom = 3.8452381
Ave special neighs/atom = 36.317460
Neighbor list builds = 5077
Dangerous builds = 354
Total wall time: 0:04:50
