LAMMPS (27 Oct 2021)
units           lj
dimension       3
boundary        m m m
atom_style      sphere/bpm
special_bonds   lj 0.0 1.0 1.0 coul 1.0 1.0 1.0
newton          on off
comm_modify     vel yes cutoff 3.3
region          box block -15 15 -15 15 0 60.0
create_box      1 box bond/types 1 extra/bond/per/atom 15 extra/special/per/atom 50
Created orthogonal box = (-15.000000 -15.000000 0.0000000) to (15.000000 15.000000 60.000000)
  1 by 1 by 1 MPI processor grid

molecule        my_mol "rect.mol"
Read molecule template my_mol:
  1 molecules
  0 fragments
  63 atoms with max type 1
  297 bonds with max type 1
  0 angles with max type 0
  0 dihedrals with max type 0
  0 impropers with max type 0
region          wall_cyl cylinder z 0.0 0.0 10.0 EDGE EDGE side in
region          dropzone cylinder z 0.0 0.0 10.0 40.0 50.0 side in

pair_style      gran/hertz/history 1.0 NULL 0.5 NULL 0.1 1
bond_style      bpm/rotational
pair_coeff      1 1
bond_coeff      1 1.0 0.2 0.01 0.01 2.0 0.4 0.02 0.02 0.2 0.04 0.002 0.002

compute         nbond all nbond/atom
compute         tbond all reduce sum c_nbond
compute_modify  thermo_temp dynamic/dof yes

fix             1 all wall/gran hertz/history 1.0 NULL 0.5 NULL 0.1 1 zplane 0.0 NULL
fix             2 all wall/gran/region hertz/history 1.0 NULL 0.5 NULL 0.1 1 region wall_cyl
fix             3 all gravity 1e-4 vector 0 0 -1
fix             4 all deposit 40 0 1500 712511343 mol my_mol region dropzone near 2.0 vz -0.05 -0.05
fix             5 all nve/sphere/bpm

timestep        0.05
thermo_style    custom step ke pe pxx pyy pzz c_tbond
thermo          100
#dump            1 all custom 500 atomDump id radius x y z c_nbond mol

run             100000
WARNING: No fixes with time integration, atoms won't move (../verlet.cpp:60)
Neighbor list info ...
  update every 1 steps, delay 10 steps, check yes
  max neighbors/atom: 2000, page size: 100000
  master list distance cutoff = 1.3
  ghost atom cutoff = 3.3
  binsize = 0.65, bins = 47 47 93
  1 neighbor lists, perpetual/occasional/extra = 1 0 0
  (1) pair gran/hertz/history, perpetual
      attributes: half, newton on, size, history
      pair build: half/size/bin/newton
      stencil: half/bin/3d
      bin: standard
Per MPI rank memory allocation (min/avg/max) = 7.455 | 7.455 | 7.455 Mbytes
Step KinEng PotEng Pxx Pyy Pzz c_tbond 
       0           -0            0            0            0            0            0 
     100 0.0018350009            0 2.0294872e-07 1.2112294e-06 2.871091e-06    9.4285714 
     200 0.0026448827            0 7.6279587e-07 2.0778573e-06 3.3379229e-06    9.4285714 
     300 0.0037670874            0 3.9556015e-07 5.4333498e-06 2.9911029e-06    9.4285714 
     400 0.0060865434            0 1.6646599e-06 8.4961343e-06 4.0676208e-06    9.4285714 
     500 0.0074581799            0 1.6593722e-06 1.1564338e-05 4.2088772e-06    9.4285714 
     600 0.0078577632            0 1.1090617e-06 1.3870259e-05 3.3849787e-06    9.4285714 
     700 0.0075356935            0 1.1860992e-06 1.2423274e-05 3.9852176e-06    9.4285714 
     800 0.0073700733            0 1.2020231e-06 1.2772167e-05 3.2382575e-06    9.4285714 
     900 0.0075286722            0 1.1889762e-06 1.3249052e-05 3.1364682e-06    9.4285714 
    1000 0.0075662049            0 9.7821223e-07 1.3244288e-05 3.4489011e-06    9.4285714 
    1100 0.0075478247            0 2.1523741e-06 1.2154775e-05 3.3141837e-06    9.4285714 
    1200 0.0075157382            0 1.8293606e-06 1.2430238e-05 3.2847737e-06    9.4285714 
    1300 0.0075727908            0 1.8169654e-06  1.24965e-05 3.3704876e-06    9.4285714 
    1400 0.0076061393            0 3.235313e-06 1.0568101e-05 3.9516909e-06    9.4285714 
    1500 0.0075843344            0 2.8081603e-06 1.1079699e-05 3.8236112e-06    9.4285714 
    1600 0.0059669597            0 4.3734615e-06 1.6939808e-05 6.562706e-06    9.4285714 
    1700 0.0080609915            0 5.879456e-06 2.4453021e-05 7.3267921e-06    9.4285714 
    1800  0.008774447            0 5.9362465e-06 2.7360342e-05 7.6740751e-06    9.4285714 
    1900 0.0087088165            0 6.1871839e-06 2.651416e-05 7.9542363e-06    9.4285714 
    2000 0.0087013604            0 6.265003e-06 2.6273818e-05 8.0842249e-06    9.4285714 
    2100 0.0084280051            0 6.9477803e-06 2.5301892e-05 9.0531791e-06    9.4285714 
    2200 0.0083665332            0 8.2583657e-06 2.3408918e-05 8.5164662e-06    9.4285714 
    2300 0.0083481041            0 8.3655638e-06 2.2441951e-05 8.1588379e-06    9.4285714 
    2400 0.0082989206            0 7.8320098e-06 2.214764e-05 8.7594404e-06    9.4285714 
    2500 0.0083831827            0 7.2186023e-06 2.2823611e-05  9.08778e-06    9.4285714 
    2600 0.0084024229            0 7.0626722e-06 2.2893292e-05 9.2638369e-06    9.4285714 
    2700 0.0083044462            0 7.4847584e-06 2.3286575e-05 1.0147536e-05    9.4285714 
    2800 0.0073772276            0 1.0024518e-05 1.6545269e-05 1.0697191e-05    9.4285714 
    2900 0.0072858299            0 8.9107749e-06 1.4628491e-05 1.0788204e-05    9.4285714 
    3000 0.0073545918            0 8.7084385e-06 1.4498263e-05 1.1127326e-05    9.4285714 
    3100 0.0050344502            0 7.4556928e-06 1.3880959e-05 1.3917065e-05    9.4285714 
    3200 0.0046675954            0 5.8496582e-06 1.1874352e-05 1.4957017e-05    9.4285714 
    3300 0.0047886619            0 5.7824084e-06 1.161982e-05 1.6128046e-05    9.4285714 
    3400   0.00489288            0 6.1521355e-06 1.2558603e-05 1.5545005e-05    9.4285714 
    3500 0.0048680793            0 6.1955156e-06 1.3253713e-05 1.5278308e-05    9.4285714 
    3600 0.0047352707            0 7.3854257e-06 1.4018671e-05 1.5533577e-05    9.4285714 
    3700 0.0045830654            0 7.1583188e-06 1.3009973e-05 1.5272757e-05    9.4285714 
    3800 0.0045912189            0 6.5859855e-06 1.1783995e-05 1.4978946e-05    9.4285714 
    3900 0.0048199975            0 6.5690779e-06 1.2452714e-05 1.5303577e-05    9.4285714 
    4000 0.0049854953            0 6.6919549e-06 1.2702667e-05 1.5574985e-05    9.4285714 
    4100 0.0047079715            0 6.2456272e-06 1.1323218e-05 1.5395214e-05    9.4285714 
    4200 0.0035982053            0 3.5916235e-06 6.8770095e-06 1.4730341e-05    9.4285714 
    4300 0.0033625459            0 1.7656845e-06 4.2750955e-06 1.7523659e-05    9.4285714 
    4400 0.0034461056            0 2.2099337e-06 4.5177405e-06 1.7408442e-05    9.4285714 
    4500 0.0035090592            0 2.7074645e-06 4.4855286e-06 1.7382374e-05    9.4285714 
    4600 0.0030519096            0 3.1016681e-06 4.7949192e-06 2.0596545e-05    9.4285714 
    4700 0.0031819672            0 3.7145451e-06 6.3384226e-06 1.9656789e-05    9.4285714 
    4800 0.0032095496            0 5.096181e-06 7.0013771e-06 1.7867337e-05    9.4285714 
    4900 0.0030538715            0 4.7384172e-06 5.7611937e-06 1.800963e-05    9.4285714 
    5000 0.0030324633            0 5.007129e-06 5.6513445e-06 1.7651679e-05    9.4285714 
    5100  0.003120367            0 5.7795755e-06 6.4553695e-06 1.6895586e-05    9.4285714 
    5200 0.0031069446            0 5.7231207e-06 6.3517612e-06 1.6929949e-05    9.4285714 
    5300 0.0030959699            0 5.7289124e-06 5.7901275e-06 1.7380847e-05    9.4285714 
    5400 0.0032639481            0 6.122899e-06 6.5875034e-06 1.7759717e-05    9.4285714 
    5500 0.0033064076            0 5.6716333e-06 5.9987588e-06 1.9195033e-05    9.4285714 
    5600 0.0032361922            0 4.991911e-06 4.8111961e-06 2.0405732e-05    9.4285714 
    5700 0.0033168593            0 5.3999623e-06 4.9594866e-06 2.0602844e-05    9.4285714 
    5800 0.0033344871            0 4.4373847e-06 4.0635748e-06 2.2625841e-05    9.4285714 
    5900 0.0033044802            0 3.4888766e-06 3.9362313e-06 2.4472573e-05    9.4285714 
    6000 0.0027700932            0 3.6039441e-06 3.8782353e-06 2.4639519e-05    9.4285714 
    6100 0.0026401032            0 3.832274e-06 5.4942423e-06 2.631778e-05    9.4285714 
    6200 0.0026500233            0 2.373142e-06 5.7019869e-06 2.355138e-05    9.4285714 
    6300 0.0025231856            0 1.6690228e-06 4.9886027e-06 2.2789881e-05    9.4285714 
    6400  0.003410422            0 5.2238416e-06 1.1212411e-05 2.3401372e-05    9.4285714 
    6500 0.0039402586            0 6.2826511e-06 1.511721e-05 2.4633176e-05    9.4285714 
    6600 0.0039235109            0 4.4912299e-06 1.7815303e-05 2.3499406e-05    9.4285714 
    6700  0.003825182            0 5.4728549e-06 1.7800141e-05 2.3900789e-05    9.4285714 
    6800 0.0038319191            0 6.409485e-06 1.5032008e-05 2.7723011e-05    9.4285714 
    6900 0.0036896196            0 5.6371248e-06 1.6368975e-05 2.9097845e-05    9.4285714 
    7000 0.0031500683            0 6.5008792e-06 1.1791622e-05 3.1433351e-05    9.4285714 
    7100 0.0031128224            0 7.1533095e-06 1.1150888e-05 3.3237324e-05    9.4285714 
    7200 0.0035389111            0 6.3706153e-06 1.3264086e-05 3.3037967e-05    9.4285714 
    7300 0.0037309937            0 4.1353505e-06 1.4005376e-05 3.1405251e-05    9.4285714 
    7400 0.0036308845            0 3.0015673e-06 1.2772593e-05 2.864914e-05    9.4285714 
    7500 0.0037287271            0 2.6734458e-06 1.2667855e-05 2.8558075e-05    9.4285714 
    7600 0.0035038312            0 2.9420411e-06 1.2900066e-05 3.3224718e-05    9.4285714 
    7700 0.0034977225            0 4.2246416e-06 1.1694196e-05 3.3064037e-05    9.4285714 
    7800 0.0036630829            0 6.8573002e-06 1.1442507e-05 3.2998787e-05    9.4285714 
    7900 0.0040321834            0 1.1044243e-05 1.1684923e-05 3.3737415e-05    9.4285714 
    8000 0.0044542478            0 1.6177547e-05 1.1128289e-05 3.5092515e-05    9.4285714 
    8100 0.0049699876            0 2.3026042e-05 9.856308e-06 3.6725484e-05    9.4285714 
    8200 0.0051388155            0 2.7255576e-05 8.158855e-06 3.655618e-05    9.4285714 
    8300 0.0050888399            0 2.7979276e-05 6.9929851e-06 3.6388665e-05    9.4285714 
    8400 0.0052714914            0 2.9442974e-05 5.8756719e-06 3.8709494e-05    9.4285714 
    8500 0.0053478294            0 3.0604207e-05 5.4317719e-06 3.8975969e-05    9.4285714 
    8600 0.0052053706            0 3.0237725e-05 5.8408789e-06 3.7844368e-05    9.4285714 
    8700 0.0052929082            0 3.0029596e-05 6.9024161e-06 3.875354e-05    9.4285714 
    8800 0.0054247989            0 3.1357272e-05 6.935255e-06 4.0028596e-05    9.4285714 
    8900  0.005369785            0 3.0922676e-05 6.3120795e-06 3.9719251e-05    9.4285714 
    9000 0.0053432698            0 2.9675587e-05 6.386874e-06 3.8990769e-05    9.4285714 
    9100 0.0048441075            0 2.9859464e-05 6.7377794e-06 4.2531558e-05    9.4285714 
    9200 0.0049104595            0 3.0121025e-05 6.618976e-06 4.3471176e-05    9.4285714 
    9300 0.0048682236            0 2.9768524e-05 7.7725842e-06 4.392645e-05    9.4285714 
    9400  0.004676996            0 2.7538288e-05 9.4543991e-06 4.5639123e-05    9.4285714 
    9500 0.0046378017            0 2.4529208e-05 9.1396795e-06 4.767164e-05    9.4285714 
    9600 0.0045792212            0 1.9910681e-05 8.5919271e-06 4.8540466e-05    9.4285714 
    9700 0.0045026597            0 1.7477389e-05 8.7877512e-06 4.9271659e-05    9.4285714 
    9800 0.0046593892            0 1.9271529e-05 9.5223406e-06 4.9282528e-05    9.4285714 
    9900 0.0048613886            0 1.841469e-05 9.7249931e-06 5.298331e-05    9.4285714 
   10000 0.0048016614            0 1.6287149e-05 8.8584232e-06 5.4417573e-05    9.4285714 
   10100  0.004629566            0 1.5608718e-05 8.2422763e-06 5.1762362e-05    9.4285714 
   10200 0.0046167654            0 1.4254364e-05 9.549134e-06 5.1613642e-05    9.4285714 
   10300 0.0045424437            0 1.0038866e-05 1.1292797e-05 5.2877582e-05    9.4285714 
   10400 0.0042848338            0 5.957236e-06 1.2157429e-05 5.1882798e-05    9.4285714 
   10500 0.0043376608            0 6.6010743e-06 1.327538e-05 5.1524134e-05    9.4285714 
   10600 0.0045751733            0 9.7449183e-06 2.1947108e-05 5.4593835e-05    9.4285714 
   10700 0.0054702498            0 1.2123131e-05 3.5114277e-05 5.5400434e-05    9.4285714 
   10800 0.0058054633            0 9.8645409e-06 4.3018204e-05 5.5982935e-05    9.4285714 
   10900 0.0057301758            0 8.700948e-06 4.2514633e-05 5.5991782e-05    9.4285714 
   11000 0.0057973554            0 1.0495609e-05 4.0846878e-05 5.6902294e-05    9.4285714 
   11100  0.005780069            0 9.1573225e-06 4.0482604e-05 5.8275422e-05    9.4285714 
   11200 0.0056209261            0 7.7034555e-06 3.8854101e-05 5.8383813e-05    9.4285714 
   11300 0.0056211041            0 8.5828353e-06 3.760067e-05 5.8758305e-05    9.4285714 
   11400 0.0056927081            0 9.6598158e-06 3.6563652e-05 6.0056441e-05    9.4285714 
   11500 0.0053957879            0 1.0685774e-05 3.5859051e-05 5.5347366e-05    9.4285714 
   11600 0.0053147234            0 1.0730575e-05 3.8103571e-05 5.2133105e-05    9.4285714 
   11700 0.0053448737            0 1.1693484e-05 3.7473956e-05 5.257783e-05    9.4285714 
   11800 0.0053498893            0 1.2384545e-05 3.381605e-05 5.6148408e-05    9.4285714 
   11900  0.005304828            0 1.0084261e-05 3.681835e-05 5.5353768e-05    9.4285714 
   12000 0.0052215204            0 1.0470404e-05 3.4333184e-05 5.672629e-05    9.4285714 
   12100 0.0049126885            0 1.0941321e-05 3.5518615e-05 5.997024e-05    9.4285714 
   12200 0.0049781345            0 9.147148e-06 3.630276e-05 6.1403027e-05    9.4285714 
   12300 0.0049275083            0 9.1254734e-06 3.840315e-05 5.8646864e-05    9.4285714 
   12400 0.0048758384            0  1.01181e-05 3.7803992e-05 5.6731505e-05    9.4285714 
   12500 0.0047755125            0 9.9005549e-06 3.6670805e-05 5.3952282e-05    9.4285714 
   12600  0.004577203            0 8.7572723e-06 3.311807e-05 5.4269014e-05    9.4285714 
   12700 0.0044346961            0 8.6941249e-06 2.3729287e-05 6.0741316e-05    9.4285714 
   12800 0.0044227077            0 9.8185292e-06 1.729171e-05 6.5805762e-05    9.4285714 
   12900 0.0043367392            0 9.6654371e-06 1.8616267e-05 6.2809705e-05    9.4285714 
   13000 0.0041738636            0 8.3919664e-06 2.1618677e-05 5.7662042e-05    9.4285714 
   13100 0.0042795324            0 9.2394692e-06 2.6224333e-05 5.4431555e-05    9.4285714 
   13200 0.0044161381            0 9.7879739e-06 3.0048532e-05 5.2930014e-05    9.4285714 
   13300 0.0044174234            0 9.1633936e-06 3.1842125e-05 5.1781495e-05    9.4285714 
   13400 0.0043768306            0 9.1573101e-06 2.981597e-05 5.2952519e-05    9.4285714 
   13500 0.0044286904            0 9.918627e-06 2.7567265e-05 5.5537207e-05    9.4285714 
   13600 0.0039796345            0 1.0820871e-05 2.0870525e-05 6.1782819e-05    9.4285714 
   13700  0.003564057            0 1.1896922e-05 1.7813715e-05 5.7017165e-05    9.4285714 
   13800 0.0038316601            0 1.5383128e-05 2.1627099e-05 5.5289648e-05    9.4285714 
   13900 0.0042111447            0 1.8105571e-05 2.3643088e-05 5.7085419e-05    9.4285714 
   14000 0.0047964469            0 2.286261e-05 3.019208e-05 5.892366e-05    9.4285714 
   14100 0.0047837803            0 2.3179811e-05 3.1413746e-05 5.7063453e-05    9.4285714 
   14200 0.0046565568            0 2.3228686e-05 2.8973989e-05 5.6469563e-05    9.4285714 
   14300  0.004794553            0 2.287645e-05 3.0662974e-05 5.8354413e-05    9.4285714 
   14400 0.0047997654            0 2.1176059e-05 3.1932208e-05 5.8908158e-05    9.4285714 
   14500 0.0046011182            0 1.9043677e-05 3.0288317e-05 5.8045274e-05    9.4285714 
   14600 0.0045145422            0 1.9050731e-05 2.8938872e-05 5.7647482e-05    9.4285714 
   14700 0.0045399428            0 2.1209987e-05 3.0700121e-05 6.0950549e-05    9.4285714 
   14800 0.0042672079            0 1.9868523e-05 3.4771923e-05 5.9179242e-05    9.4285714 
   14900 0.0038189786            0 2.1607031e-05 2.9356106e-05 5.690017e-05    9.4285714 
   15000  0.003683925            0 2.1862146e-05 2.5542381e-05 5.3848155e-05    9.4285714 
   15100 0.0039795318            0 2.9518335e-05 2.536914e-05 5.6127098e-05    9.4285714 
   15200    0.0046787            0 4.3771068e-05 2.6553802e-05 5.5962774e-05    9.4285714 
   15300   0.00489572            0 5.2899281e-05 2.0539323e-05 5.6365553e-05    9.4285714 
   15400  0.004897386            0 5.2664322e-05 1.888198e-05 5.5292376e-05    9.4285714 
   15500 0.0050380036            0 5.1766791e-05 2.1682715e-05 5.6557261e-05    9.4285714 
   15600 0.0049743522            0 5.0992042e-05 2.1247749e-05 5.7194932e-05    9.4285714 
   15700 0.0047899482            0 4.8911389e-05 1.9991649e-05 5.640592e-05    9.4285714 
   15800 0.0048382224            0 4.8348685e-05 2.0089252e-05 5.7572971e-05    9.4285714 
   15900 0.0049101807            0 4.7651893e-05 2.2501218e-05 5.8214366e-05    9.4285714 
   16000 0.0049905463            0 4.5858265e-05 2.3126493e-05 6.0944362e-05    9.4285714 
   16100 0.0046448452            0 4.4314129e-05 2.1836233e-05 5.589425e-05    9.4285714 
   16200 0.0046601006            0 4.1728018e-05 2.3517029e-05 5.6339343e-05    9.4285714 
   16300  0.004780226            0 4.0944727e-05 2.3642991e-05 5.8587055e-05    9.4285714 
   16400 0.0043004453            0 3.9801403e-05 1.6463582e-05 5.4164428e-05    9.4285714 
   16500 0.0043384733            0 3.8887191e-05 1.5887269e-05 5.6616198e-05    9.4285714 
   16600  0.004156164            0 3.8326889e-05 1.7422958e-05 6.0654966e-05    9.4285714 
   16700 0.0042382612            0 3.9918859e-05 1.7581446e-05 6.1202411e-05    9.4285714 
   16800 0.0043452092            0 4.1562678e-05 1.9456013e-05 6.0686455e-05    9.4285714 
   16900 0.0044068786            0 4.3172802e-05 2.1999677e-05 5.9727732e-05    9.4285714 
   17000 0.0044625721            0 4.472355e-05 2.2735882e-05 5.8748648e-05    9.4285714 
   17100  0.004469787            0 4.6129796e-05 2.3600605e-05 5.9653903e-05    9.4285714 
   17200 0.0045972082            0 4.8242815e-05 3.1122761e-05 6.0890685e-05    9.4285714 
   17300 0.0047150968            0 4.5680627e-05 3.2921314e-05 5.7738419e-05    9.4285714 
   17400 0.0047283145            0 4.4250459e-05 3.2831247e-05 5.6700093e-05    9.4285714 
   17500  0.004503305            0 4.547322e-05 3.6123423e-05 5.2412154e-05    9.4285714 
   17600 0.0041759054            0 4.5356219e-05 3.7031236e-05 4.4035172e-05    9.4285714 
   17700 0.0041896355            0 4.511856e-05 3.759129e-05 4.1440018e-05    9.4285714 
   17800   0.00436712            0 4.4724782e-05 3.6086114e-05 4.3792525e-05    9.4285714 
   17900 0.0044146094            0 4.2913404e-05 3.8371827e-05 4.346304e-05    9.4285714 
   18000 0.0042302642            0 3.7447854e-05  3.93605e-05 4.2719307e-05    9.4285714 
   18100 0.0036293574            0 2.8433465e-05 3.8569829e-05 4.4862074e-05    9.4285714 
   18200 0.0034838062            0 2.6316266e-05 3.8119164e-05 4.4753248e-05    9.4285714 
   18300 0.0036284577            0 3.1896705e-05 4.0169016e-05 4.7756073e-05    9.4285714 
   18400 0.0036353723            0 3.2033387e-05 4.1466797e-05 4.4168992e-05    9.4285714 
   18500 0.0035492177            0 3.0749494e-05 3.8864993e-05 4.1650541e-05    9.4285714 
   18600 0.0036032456            0 3.0574301e-05 3.7967397e-05 4.1511478e-05    9.4285714 
   18700 0.0035846336            0 3.0312221e-05 3.8202387e-05 4.2306204e-05    9.4285714 
   18800 0.0035121845            0 2.9379858e-05 3.9891233e-05 4.1817666e-05    9.4285714 
   18900 0.0034245548            0 2.9131824e-05 3.8008479e-05 4.0179486e-05    9.4285714 
   19000 0.0034834924            0 2.9993906e-05 3.7656312e-05 4.0247454e-05    9.4285714 
   19100 0.0035654883            0 3.0498102e-05 4.0668284e-05 4.1077887e-05    9.4285714 
   19200 0.0032066097            0 2.7514914e-05 3.3140912e-05 4.1108971e-05    9.4285714 
   19300 0.0027432538            0 2.5505766e-05 1.9538479e-05 4.1850527e-05    9.4285714 
   19400 0.0029010974            0 2.5712536e-05 2.4758438e-05 4.1276335e-05    9.4285714 
   19500 0.0029436612            0 2.494891e-05 2.7516331e-05 4.1866423e-05    9.4285714 
   19600 0.0029189539            0 2.4190472e-05 2.8861551e-05 4.6075827e-05    9.4285714 
   19700 0.0029247275            0 2.4203468e-05 2.7797343e-05 4.647369e-05    9.4285714 
   19800 0.0029045179            0 2.2730011e-05 2.6616627e-05 4.6257024e-05    9.4285714 
   19900  0.002907703            0 2.1695053e-05 2.6733341e-05 4.7071277e-05    9.4285714 
   20000 0.0029451599            0 2.1508761e-05 2.7104587e-05 4.7720852e-05    9.4285714 
   20100 0.0029483838            0 2.2042113e-05 2.6603749e-05 4.8005426e-05    9.4285714 
   20200 0.0029387238            0 2.1190647e-05 2.6517959e-05 4.9103687e-05    9.4285714 
   20300  0.002950486            0 2.0128641e-05 2.718872e-05 5.0450153e-05    9.4285714 
   20400  0.002958757            0 2.0418098e-05 2.691014e-05 4.9967877e-05    9.4285714 
   20500 0.0029656895            0 2.0153597e-05 2.6160383e-05 5.0902619e-05    9.4285714 
   20600 0.0029368331            0 1.9907915e-05 2.5235697e-05 5.247696e-05    9.4285714 
   20700 0.0029028666            0 1.9602049e-05 2.5733067e-05 5.4111095e-05    9.4285714 
   20800 0.0028956447            0 1.8631385e-05 2.6248063e-05 5.5192088e-05    9.4285714 
   20900 0.0028928514            0 1.8773527e-05 2.4804374e-05 5.604069e-05    9.4285714 
   21000  0.002927052            0 1.8652814e-05 2.3482004e-05 5.6701737e-05    9.4285714 
   21100 0.0028687497            0 2.2436016e-05 2.325233e-05 5.8808647e-05    9.4285714 
   21200 0.0029342036            0 2.7929348e-05 2.2400408e-05 5.7946712e-05    9.4285714 
   21300 0.0030950366            0 3.1124481e-05 2.195109e-05 5.8965786e-05    9.4285714 
   21400 0.0031484691            0 3.2721012e-05 2.110025e-05 5.9576336e-05    9.4285714 
   21500 0.0031234671            0 2.992994e-05 2.2666267e-05 5.9993685e-05    9.4285714 
   21600 0.0030508633            0 2.6789013e-05 2.3621322e-05 5.8458366e-05    9.4285714 
   21700 0.0030087355            0 2.5882658e-05 2.1811479e-05 5.8138611e-05    9.4285714 
   21800 0.0029999465            0 2.6188787e-05 2.0450957e-05 5.8378928e-05    9.4285714 
   21900 0.0030672658            0 2.6711301e-05 2.1783108e-05 5.9031296e-05    9.4285714 
   22000 0.0030649769            0 2.8127147e-05 2.2662838e-05 6.0082454e-05    9.4285714 
   22100 0.0029894542            0 2.6349183e-05 2.2764179e-05 6.149193e-05    9.4285714 
   22200 0.0030187811            0 2.3239983e-05 2.3111279e-05 6.0739255e-05    9.4285714 
   22300 0.0030241784            0 2.2405585e-05 2.3925574e-05 5.9718322e-05    9.4285714 
   22400 0.0029292552            0 2.0008576e-05 2.2306569e-05 6.0758983e-05    9.4285714 
   22500 0.0028783427            0 2.024055e-05 2.100428e-05 6.1045983e-05    9.4285714 
   22600 0.0028851151            0 2.3890124e-05 2.2607101e-05 6.5131875e-05    9.4285714 
   22700 0.0030123555            0 2.5669383e-05 2.4801799e-05 6.6659354e-05    9.4285714 
   22800 0.0031724489            0 2.7713701e-05 2.8877697e-05 6.4901446e-05    9.4285714 
   22900  0.003153501            0 3.1116017e-05 2.9002714e-05 6.4499332e-05    9.4285714 
   23000 0.0028839684            0 2.9814785e-05 2.870865e-05 6.2699578e-05    9.4285714 
   23100 0.0028327892            0 3.2268818e-05 2.7474127e-05 5.7685785e-05    9.4285714 
   23200 0.0029041916            0 3.0584546e-05 2.7962674e-05 5.7629015e-05    9.4285714 
   23300 0.0030488484            0 2.9936007e-05 3.0487408e-05 5.8179622e-05    9.4285714 
   23400 0.0030766604            0 3.0318751e-05 2.8740437e-05 5.7968878e-05    9.4285714 
   23500 0.0029648576            0 3.0098901e-05 2.7619913e-05 5.5570289e-05    9.4285714 
   23600 0.0030338578            0 3.0505464e-05 2.9159292e-05 5.5966373e-05    9.4285714 
   23700 0.0030630993            0 3.1115059e-05 2.8677381e-05 5.6826609e-05    9.4285714 
   23800 0.0029579183            0 3.0891276e-05 2.7187042e-05 5.4338832e-05    9.4285714 
   23900  0.002890692            0 3.0505089e-05 2.6214095e-05 5.3628324e-05    9.4285714 
   24000 0.0029008741            0 3.0352885e-05 2.7812384e-05 5.3563473e-05    9.4285714 
   24100 0.0030900998            0 3.049205e-05 3.7040342e-05 5.9311381e-05    9.4285714 
   24200 0.0034439273            0 2.9780023e-05 5.2982515e-05 6.0180452e-05    9.4285714 
   24300 0.0036183212            0 2.8868106e-05 5.9977934e-05 5.822312e-05    9.4285714 
   24400 0.0035935713            0 2.9135872e-05 6.2935218e-05 5.5769985e-05    9.4285714 
   24500 0.0035490423            0 3.3958754e-05 5.9161204e-05 5.7259127e-05    9.4285714 
   24600  0.003444716            0 2.9356924e-05 5.4834323e-05 5.9566455e-05    9.4285714 
   24700 0.0033252937            0 2.6572095e-05 5.4242067e-05 5.8366405e-05    9.4285714 
   24800 0.0032783778            0 2.2908407e-05 5.5022142e-05 5.8845283e-05    9.4285714 
   24900 0.0032446925            0 2.1047045e-05 5.4598555e-05 5.956579e-05    9.4285714 
   25000 0.0031755041            0 2.4181783e-05 5.3791926e-05 5.8327435e-05    9.4285714 
   25100 0.0030735843            0 2.8255849e-05 4.7217183e-05 5.8423683e-05    9.4285714 
   25200 0.0031627624            0 2.8876633e-05 4.3691039e-05  5.80202e-05    9.4285714 
   25300 0.0032376181            0 2.8655617e-05 4.316634e-05 5.8195158e-05    9.4285714 
   25400 0.0031900675            0 2.8070562e-05 4.344552e-05 5.5523216e-05    9.4285714 
   25500 0.0031252059            0 2.8330412e-05 4.4060357e-05 5.5051088e-05    9.4285714 
   25600 0.0029070145            0 2.958535e-05 4.569808e-05 6.4450548e-05    9.4285714 
   25700 0.0029634805            0 2.6761301e-05 4.7173742e-05 6.4575511e-05    9.4285714 
   25800 0.0030346288            0 2.732068e-05 4.893027e-05 6.2814632e-05    9.4285714 
   25900 0.0032897547            0 3.1822769e-05 5.2633037e-05 6.2913714e-05    9.4285714 
   26000 0.0033828897            0 2.6969599e-05 5.8440273e-05 6.3376263e-05    9.4285714 
   26100 0.0032804302            0 2.4627546e-05 5.7656925e-05 5.8514668e-05    9.4285714 
   26200 0.0030952966            0 2.2893916e-05 4.9871883e-05 5.881309e-05    9.4285714 
   26300 0.0030700157            0 2.6056707e-05 4.9264407e-05 5.8746718e-05    9.4285714 
   26400 0.0030018624            0 2.5157698e-05 4.8218674e-05 5.8290879e-05    9.4285714 
   26500 0.0030128669            0 2.361838e-05 4.6363551e-05 5.9898905e-05    9.4285714 
   26600 0.0031224336            0 2.7100344e-05 4.7756425e-05 5.9996778e-05    9.4285714 
   26700 0.0030621287            0 2.8214336e-05 4.6918539e-05 5.9883609e-05    9.4285714 
   26800  0.002801831            0 3.0594491e-05 3.7180434e-05 5.8149664e-05    9.4285714 
   26900 0.0027855649            0 2.8747302e-05 3.6470744e-05 5.8852335e-05    9.4285714 
   27000 0.0027965728            0 2.8557457e-05 3.6754375e-05 5.8772667e-05    9.4285714 
   27100 0.0028498232            0 3.0321835e-05 3.9638763e-05 6.1254858e-05    9.4285714 
   27200 0.0030306382            0 2.8742235e-05 4.3117508e-05 6.5765494e-05    9.4285714 
   27300 0.0031633579            0 3.0980534e-05 4.7374467e-05 6.4893722e-05    9.4285714 
   27400 0.0033711639            0 3.4928022e-05 5.2908639e-05 6.6699682e-05    9.4285714 
   27500  0.003440939            0 3.5754652e-05  5.69513e-05 6.660788e-05    9.4285714 
   27600 0.0034442256            0 3.6469475e-05 5.6958678e-05 6.5079681e-05    9.4285714 
   27700 0.0033773106            0 3.3973994e-05 5.4448746e-05 6.4541632e-05    9.4285714 
   27800 0.0033635159            0 3.5542676e-05 5.2428708e-05 6.5090857e-05    9.4285714 
   27900 0.0032430951            0 3.6426512e-05 4.6086452e-05 6.498143e-05    9.4285714 
   28000 0.0030537834            0 3.1815903e-05 3.9376804e-05 6.7546499e-05    9.4285714 
   28100  0.002979529            0 3.1253385e-05 3.7765155e-05 6.7409232e-05    9.4285714 
   28200 0.0031027317            0 3.398733e-05 4.2983013e-05 6.6027648e-05    9.4285714 
   28300 0.0030588406            0 3.5171937e-05 4.5212697e-05 6.3874666e-05    9.4285714 
   28400 0.0028451017            0 3.5738239e-05 3.7990285e-05 6.2678053e-05    9.4285714 
   28500 0.0029344027            0 3.3626147e-05 3.6949614e-05 6.2988105e-05    9.4285714 
   28600 0.0030970809            0 4.1471523e-05 4.2155367e-05 6.4408716e-05    9.4285714 
   28700 0.0034080828            0 5.096795e-05 4.3092694e-05 6.8111212e-05    9.4285714 
   28800 0.0033162928            0 5.0733984e-05 3.9221995e-05 6.7505258e-05    9.4285714 
   28900 0.0032754512            0 4.7766512e-05 3.7515038e-05 6.9173389e-05    9.4285714 
   29000  0.003238126            0 4.6516518e-05 3.8184496e-05 6.8703403e-05    9.4285714 
   29100 0.0031144549            0 4.4307505e-05 3.8533642e-05 6.7255763e-05    9.4285714 
   29200 0.0030958705            0 4.2781032e-05 3.5772459e-05 7.0469126e-05    9.4285714 
   29300 0.0031524451            0 4.3909259e-05 3.6506623e-05 7.158653e-05    9.4285714 
   29400 0.0032058697            0 4.4324384e-05 3.5776134e-05 7.4582066e-05    9.4285714 
   29500 0.0031550171            0 4.2287463e-05 3.5270423e-05 7.5078133e-05    9.4285714 
   29600  0.003060377            0 3.9992287e-05 3.2845661e-05 7.553942e-05    9.4285714 
   29700 0.0030078967            0 3.7382266e-05 3.1614436e-05 7.7145573e-05    9.4285714 
   29800 0.0029683325            0 3.5530155e-05 3.525656e-05 7.5544641e-05    9.4285714 
   29900 0.0029022749            0 3.6252284e-05 3.7610723e-05 6.9334012e-05    9.4285714 
   30000 0.0028730584            0 3.8581123e-05 3.3761112e-05 6.8781406e-05    9.4285714 
   30100 0.0029565488            0 4.0973928e-05 3.8258895e-05 7.204326e-05    9.4285714 
   30200 0.0029645256            0 4.1115755e-05 4.0104291e-05 6.8400039e-05    9.4285714 
   30300  0.002952354            0 4.4277467e-05 3.7768312e-05 6.7846989e-05    9.4285714 
   30400  0.002992831            0 4.4769103e-05 3.9482781e-05 6.8819748e-05    9.4285714 
   30500 0.0029374585            0 4.5257434e-05 4.1314931e-05 6.5216381e-05    9.4285714 
   30600 0.0028040856            0 4.5300765e-05 4.118626e-05 6.3544072e-05    9.4285714 
   30700  0.002534459            0 3.5125995e-05 3.8587256e-05 6.4771731e-05    9.4285714 
   30800 0.0024425783            0 2.7458027e-05 3.7447578e-05 6.7037394e-05    9.4285714 
   30900 0.0024938861            0 2.7825336e-05 3.8630729e-05 6.7876153e-05    9.4285714 
   31000 0.0025901523            0 2.7307882e-05 3.9917495e-05 7.0091179e-05    9.4285714 
   31100 0.0025746255            0 3.2430253e-05 4.052937e-05 6.3304574e-05    9.4285714 
   31200 0.0025241574            0 3.420853e-05 4.1057421e-05 5.9890236e-05    9.4285714 
   31300  0.002589276            0 3.3109527e-05 4.1316688e-05 5.9182072e-05    9.4285714 
   31400  0.002565266            0 3.7369446e-05 4.1540919e-05 5.7942838e-05    9.4285714 
   31500 0.0025002065            0 3.5866441e-05 4.1070997e-05 6.0205764e-05    9.4285714 
   31600 0.0024202141            0 3.2721356e-05 3.9726515e-05 6.2301684e-05    9.4285714 
   31700  0.002336607            0 3.0028614e-05 3.6886489e-05 6.4164462e-05    9.4285714 
   31800  0.002335165            0 3.1593002e-05 3.7401867e-05 6.1469771e-05    9.4285714 
   31900 0.0021619413            0 3.0901092e-05 3.5758372e-05 6.3122395e-05    9.4285714 
   32000 0.0021741167            0 2.6582456e-05 3.3205694e-05 6.2542092e-05    9.4285714 
   32100 0.0021441627            0 2.7829764e-05 3.3001177e-05 6.1759387e-05    9.4285714 
   32200 0.0021947497            0 2.9346145e-05 3.2427683e-05 6.1198864e-05    9.4285714 
   32300 0.0021403564            0 2.7822954e-05 3.0843762e-05 6.060985e-05    9.4285714 
   32400 0.0019773515            0 2.4240466e-05 2.7698677e-05 5.7620479e-05    9.4285714 
   32500 0.0018855981            0 2.4818086e-05 2.5531335e-05 5.4452608e-05    9.4285714 
   32600 0.0020216542            0 2.6264531e-05 2.622894e-05 5.6679534e-05    9.4285714 
   32700 0.0020560665            0 2.3068377e-05 2.8136569e-05 5.7543597e-05    9.4285714 
   32800 0.0020318176            0 2.1915957e-05 2.9083491e-05 5.8843804e-05    9.4285714 
   32900 0.0019355455            0 2.3724921e-05 2.8001943e-05 5.5380899e-05    9.4285714 
   33000 0.0020093393            0 2.5316564e-05 2.9736632e-05 5.6160592e-05    9.4285714 
   33100 0.0020778013            0 2.6064364e-05 3.0090151e-05 6.0244734e-05    9.4285714 
   33200 0.0020282656            0 2.8261492e-05 2.9440044e-05 5.6764857e-05    9.4285714 
   33300 0.0020166955            0 3.0172493e-05 2.8696859e-05 5.5822779e-05    9.4285714 
   33400 0.0020346487            0 3.1990398e-05 2.902236e-05 5.7566074e-05    9.4285714 
   33500 0.0020101699            0 3.1681735e-05 2.8209837e-05 5.7540015e-05    9.4285714 
   33600 0.0019321461            0 3.1520402e-05 2.6134117e-05 5.6835806e-05    9.4285714 
   33700  0.001878563            0 3.1793079e-05 2.6942797e-05 5.5209608e-05    9.4285714 
   33800 0.0019623658            0 3.3583987e-05 2.7118872e-05 5.6606564e-05    9.4285714 
   33900 0.0019006238            0 3.1751212e-05 2.8327454e-05 5.7280696e-05    9.4285714 
   34000 0.0017837211            0 3.0515346e-05 2.668634e-05 5.2294424e-05    9.4285714 
   34100 0.0017778746            0 2.7603449e-05 2.5416615e-05 5.2918074e-05    9.4285714 
   34200 0.0017695316            0 2.9475899e-05 2.5303335e-05 5.4472754e-05    9.4285714 
   34300 0.0016831966            0 2.902148e-05 2.211432e-05 5.3838362e-05    9.4285714 
   34400 0.0015748654            0 2.6159089e-05 1.7899119e-05 5.2018972e-05    9.4285714 
   34500 0.0016145322            0 2.4363507e-05 1.7807922e-05 5.3394185e-05    9.4285714 
   34600 0.0016832855            0 2.7085155e-05 1.9733202e-05 5.8299284e-05    9.4285714 
   34700 0.0017013619            0 2.8008832e-05 1.6841423e-05 5.6181895e-05    9.4285714 
   34800 0.0016796176            0 2.6241933e-05 1.7089284e-05 5.5590045e-05    9.4285714 
   34900 0.0017029668            0 2.6856188e-05 1.8318905e-05 5.8069304e-05    9.4285714 
   35000 0.0017456776            0 2.6317936e-05 1.8223427e-05 6.0245056e-05    9.4285714 
   35100 0.0016610753            0 2.2702891e-05 1.6610636e-05 5.7081353e-05    9.4285714 
   35200 0.0014978972            0 1.8955009e-05 1.5397302e-05 5.259939e-05    9.4285714 
   35300 0.0015699203            0 1.9692025e-05 1.9033953e-05 5.5012397e-05    9.4285714 
   35400 0.0016206776            0 2.230034e-05 1.9594198e-05 5.7653613e-05    9.4285714 
   35500 0.0015848867            0 2.2353279e-05 1.8705004e-05 5.6012831e-05    9.4285714 
   35600 0.0015352613            0 2.116555e-05 1.920694e-05 5.494557e-05    9.4285714 
   35700 0.0015450228            0 2.0595484e-05 2.0214809e-05 5.4431069e-05    9.4285714 
   35800 0.0015486128            0 2.0832884e-05 1.9567068e-05 5.4620701e-05    9.4285714 
   35900 0.0014953229            0 2.0526092e-05 1.7445484e-05 5.5868303e-05    9.4285714 
   36000 0.0015006807            0 2.0952361e-05 1.7155777e-05 5.7625805e-05    9.4285714 
   36100 0.0015620182            0 2.1368837e-05 2.2426032e-05 6.1437747e-05    9.4285714 
   36200 0.0016483521            0 1.946668e-05 2.8773048e-05 5.7756049e-05    9.4285714 
   36300 0.0017026791            0 1.870469e-05 2.8986272e-05 5.7939347e-05    9.4285714 
   36400 0.0018960648            0 1.8127793e-05 4.0625998e-05 5.7983644e-05    9.4285714 
   36500 0.0019397075            0 1.7254077e-05 4.5355628e-05 5.7146049e-05    9.4285714 
   36600 0.0019573518            0 1.8892393e-05 4.2551729e-05 5.9434037e-05    9.4285714 
   36700 0.0019272233            0 1.8211007e-05 4.145998e-05 5.888082e-05    9.4285714 
   36800 0.0019357487            0 1.7162941e-05 4.4342924e-05 5.6465777e-05    9.4285714 
   36900 0.0019905654            0 1.7569025e-05 4.4947515e-05 5.7507205e-05    9.4285714 
   37000 0.0019785585            0 1.8117504e-05 4.2068953e-05 5.8858967e-05    9.4285714 
   37100 0.0019220173            0 1.7633836e-05 4.2255246e-05 5.8153368e-05    9.4285714 
   37200 0.0017723352            0 2.0268851e-05 3.5130312e-05 6.2202448e-05    9.4285714 
   37300 0.0016856231            0 2.2393891e-05 3.2693951e-05 6.3412968e-05    9.4285714 
   37400 0.0016684941            0 2.3054142e-05 2.7111404e-05 6.6647518e-05    9.4285714 
   37500 0.0017165609            0 1.7612583e-05 2.7542011e-05 6.4252707e-05    9.4285714 
   37600 0.0017658691            0 1.6025966e-05 2.831781e-05 6.7539111e-05    9.4285714 
   37700 0.0018445619            0 1.6969334e-05 2.8824922e-05 6.9311515e-05    9.4285714 
   37800 0.0018502362            0 1.8553064e-05 2.9278745e-05 6.9624227e-05    9.4285714 
   37900 0.0017907475            0 2.0611098e-05 3.2013273e-05 6.6271935e-05    9.4285714 
   38000 0.0017844649            0 2.0702099e-05 3.4102854e-05 6.6219151e-05    9.4285714 
   38100 0.0017592556            0 2.0158725e-05 3.3458293e-05 6.6671944e-05    9.4285714 
   38200 0.0017106057            0 1.9011419e-05 3.2045869e-05 6.4867673e-05    9.4285714 
   38300 0.0017193203            0 1.8669932e-05 3.0674752e-05 6.5939302e-05    9.4285714 
   38400  0.001763257            0 1.9511511e-05 3.2026977e-05 6.8129954e-05    9.4285714 
   38500 0.0017621294            0 1.963196e-05 3.1826261e-05 6.7915242e-05    9.4285714 
   38600  0.001746854            0 1.8396231e-05 3.0340053e-05 6.7062356e-05    9.4285714 
   38700 0.0017463258            0 1.7977359e-05 3.1310072e-05 6.7033134e-05    9.4285714 
   38800 0.0017106758            0 1.5591586e-05 2.8830625e-05 6.7170521e-05    9.4285714 
   38900 0.0016358432            0 1.5790284e-05 2.4845758e-05 6.6098943e-05    9.4285714 
   39000  0.001545563            0 1.6696675e-05 2.0221676e-05 6.5306282e-05    9.4285714 
   39100  0.001539701            0 1.7191361e-05 1.9743765e-05 6.9525471e-05    9.4285714 
   39200 0.0015947183            0 1.8155375e-05 2.1442281e-05 7.0537856e-05    9.4285714 
   39300 0.0016492814            0 2.0363079e-05 2.0913068e-05 7.1366505e-05    9.4285714 
   39400 0.0016551151            0 2.2662003e-05 2.2074658e-05 6.8988376e-05    9.4285714 
   39500 0.0017683725            0 2.6720911e-05 2.700378e-05 6.8052345e-05    9.4285714 
   39600 0.0018907917            0 3.261088e-05 2.6587314e-05 7.0110807e-05    9.4285714 
   39700 0.0019255704            0 3.7559741e-05 2.8514061e-05 6.8088798e-05    9.4285714 
   39800   0.00188804            0 3.453634e-05 2.9656226e-05 6.9033371e-05    9.4285714 
   39900 0.0019053391            0 3.1876945e-05 2.8716899e-05 6.9832708e-05    9.4285714 
   40000 0.0018708103            0 3.292001e-05 2.8877575e-05 7.1168302e-05    9.4285714 
   40100 0.0018451966            0 3.6297763e-05 2.7101619e-05 7.0691543e-05    9.4285714 
   40200 0.0018045971            0 3.9260538e-05 2.3304537e-05 6.7999118e-05    9.4285714 
   40300 0.0018092091            0 3.8584234e-05 2.1810701e-05 6.5023109e-05    9.4285714 
   40400  0.001761241            0 3.5889663e-05 2.0682927e-05 6.4149984e-05    9.4285714 
   40500 0.0017160542            0 3.4443097e-05 1.8646469e-05 6.2782599e-05    9.4285714 
   40600 0.0017299577            0 3.4236907e-05 1.9402164e-05 6.607431e-05    9.4285714 
   40700 0.0017673853            0 3.3665028e-05 2.0466517e-05 6.8746602e-05    9.4285714 
   40800 0.0017380057            0 3.4144649e-05 2.1522794e-05 6.683155e-05    9.4285714 
   40900 0.0016234094            0 3.2205243e-05 2.2727612e-05 6.6834429e-05    9.4285714 
   41000 0.0014291917            0 2.6396353e-05 2.6107729e-05 6.4056486e-05    9.4285714 
   41100 0.0014712446            0 2.5570053e-05 3.3399552e-05 6.3195627e-05    9.4285714 
   41200    0.0014846            0 2.6271678e-05 3.7303151e-05 6.0488751e-05    9.4285714 
   41300  0.001450828            0 2.5065396e-05 3.8605231e-05 5.8603276e-05    9.4285714 
   41400 0.0014186092            0 2.3453926e-05 3.4894681e-05 5.8941274e-05    9.4285714 
   41500 0.0014050141            0 2.3681829e-05 3.2835402e-05 5.9498759e-05    9.4285714 
   41600 0.0014213984            0 2.3939336e-05 3.2895676e-05 5.8690287e-05    9.4285714 
   41700  0.001443982            0 2.0909644e-05 3.1032787e-05 5.7524565e-05    9.4285714 
   41800 0.0014062649            0 2.1031052e-05 2.9520592e-05 5.4827218e-05    9.4285714 
   41900 0.0013996312            0 2.2054442e-05 2.8642711e-05 5.5162316e-05    9.4285714 
   42000 0.0013967112            0 2.2021674e-05 2.865302e-05 5.3439274e-05    9.4285714 
   42100 0.0014200679            0 2.3093083e-05 3.3059301e-05 5.6709165e-05    9.4285714 
   42200 0.0014938722            0 2.4401158e-05 3.8130343e-05 5.6829122e-05    9.4285714 
   42300 0.0014662918            0 2.5306573e-05 4.0350104e-05 5.5731632e-05    9.4285714 
   42400 0.0014822399            0 2.541272e-05 3.6567141e-05 5.6918972e-05    9.4285714 
   42500  0.001479816            0 2.536052e-05 3.4187028e-05 5.6499453e-05    9.4285714 
   42600 0.0014761906            0 2.6832838e-05 3.2924587e-05 5.4349636e-05    9.4285714 
   42700 0.0014657972            0 2.5603852e-05 3.1449126e-05 5.4077995e-05    9.4285714 
   42800 0.0014299281            0 2.514425e-05 3.0935569e-05 5.560261e-05    9.4285714 
   42900 0.0013584545            0 2.1632085e-05 2.8445644e-05 5.6520894e-05    9.4285714 
   43000 0.0013381995            0 1.9596599e-05 2.9249369e-05 5.4291206e-05    9.4285714 
   43100 0.0013342491            0 2.0197061e-05 3.1609968e-05 5.2307195e-05    9.4285714 
   43200 0.0013703327            0 2.147162e-05 3.2020951e-05 5.3461255e-05    9.4285714 
   43300 0.0013593846            0 2.199084e-05 3.206016e-05 5.3447421e-05    9.4285714 
   43400 0.0012993032            0 2.0440912e-05 3.161841e-05 5.3026991e-05    9.4285714 
   43500  0.001324888            0 1.8933513e-05 3.244492e-05 5.3025756e-05    9.4285714 
   43600 0.0013849294            0 2.0125223e-05 3.6308493e-05 5.5223498e-05    9.4285714 
   43700 0.0014592413            0 2.4789141e-05 3.9210247e-05 5.5005034e-05    9.4285714 
   43800 0.0015842633            0 2.9376746e-05 4.471493e-05 5.4832286e-05    9.4285714 
   43900 0.0016983192            0 3.368927e-05 4.9501047e-05 5.7946888e-05    9.4285714 
   44000 0.0017308494            0 3.5302108e-05 5.1925127e-05 5.5489717e-05    9.4285714 
   44100 0.0016762137            0 3.296847e-05 4.9656293e-05 5.7453997e-05    9.4285714 
   44200 0.0016693093            0 3.1338668e-05 4.8594593e-05 5.4593408e-05    9.4285714 
   44300 0.0016858084            0 3.3131465e-05 4.8034805e-05 5.4765941e-05    9.4285714 
   44400 0.0016397333            0 3.2446822e-05 4.4299316e-05 5.542227e-05    9.4285714 
   44500 0.0015275026            0  3.03152e-05 4.0102051e-05 5.2535492e-05    9.4285714 
   44600 0.0015268479            0 3.0118206e-05 4.1006288e-05 5.3147052e-05    9.4285714 
   44700  0.001255645            0 3.5055531e-05 4.0462972e-05 6.1228919e-05    9.4285714 
   44800 0.0011731958            0 3.9072933e-05 3.2238215e-05 5.8707559e-05    9.4285714 
   44900 0.0011964835            0 2.8812272e-05 2.9210324e-05 4.940709e-05    9.4285714 
   45000 0.0012410494            0 2.9841189e-05 2.6890231e-05 4.6988833e-05    9.4285714 
   45100  0.001230235            0 3.0345804e-05 2.5454862e-05  4.75955e-05    9.4285714 
   45200 0.0012461498            0 3.2644348e-05 2.3020389e-05 4.7365747e-05    9.4285714 
   45300 0.0012550498            0 3.4658477e-05 2.208126e-05 4.5686217e-05    9.4285714 
   45400 0.0013223338            0 3.6429502e-05 2.2794832e-05 4.6369578e-05    9.4285714 
   45500 0.0013779082            0 4.1107745e-05 2.3543502e-05 4.7414768e-05    9.4285714 
   45600 0.0014152925            0 4.5350047e-05 2.2288056e-05 4.8197525e-05    9.4285714 
   45700 0.0014676538            0 4.5312484e-05 2.4249691e-05 4.9069857e-05    9.4285714 
   45800 0.0015554218            0 4.8184013e-05 2.7652542e-05 4.7659466e-05    9.4285714 
   45900 0.0015490339            0 4.6625302e-05 2.9710608e-05 4.9089177e-05    9.4285714 
   46000 0.0014963696            0 4.1709464e-05 2.8723559e-05 4.9022906e-05    9.4285714 
   46100 0.0014856308            0 4.0292712e-05 2.8995571e-05 4.8447369e-05    9.4285714 
   46200 0.0015137426            0 4.1440548e-05 2.7543828e-05 4.8367534e-05    9.4285714 
   46300 0.0015640239            0 4.1855115e-05 2.9100399e-05 4.8811006e-05    9.4285714 
   46400 0.0015266381            0 4.3753851e-05 2.7690826e-05 4.836007e-05    9.4285714 
   46500 0.0014733423            0 4.2570299e-05 2.6610055e-05 4.6847764e-05    9.4285714 
   46600  0.001484823            0 4.3461054e-05 2.9861374e-05 5.0475526e-05    9.4285714 
   46700 0.0015301483            0 4.7448046e-05 3.0504388e-05 4.9941741e-05    9.4285714 
   46800 0.0015809004            0 4.903534e-05 3.0910484e-05 4.7161439e-05    9.4285714 
   46900  0.001612801            0 4.9475941e-05 3.2239707e-05 4.6593478e-05    9.4285714 
   47000 0.0016910764            0 5.3657792e-05 3.5296942e-05 4.859235e-05    9.4285714 
   47100  0.001783956            0 5.7880864e-05 3.8691625e-05 4.7477888e-05    9.4285714 
   47200 0.0018292587            0 5.9895895e-05 4.2395861e-05 4.7655011e-05    9.4285714 
   47300 0.0017502535            0 5.7074618e-05 4.2492691e-05 5.0352871e-05    9.4285714 
   47400 0.0016822499            0 5.4990315e-05 4.0648979e-05 5.188077e-05    9.4285714 
   47500 0.0016563309            0 5.4480549e-05 3.8802123e-05 5.0093612e-05    9.4285714 
   47600 0.0014163511            0 4.3273573e-05 3.205465e-05 4.8262084e-05    9.4285714 
   47700 0.0013412435            0 3.692145e-05 2.9711453e-05 4.6577587e-05    9.4285714 
   47800 0.0014240978            0 3.7737489e-05 3.1751028e-05 4.5254908e-05    9.4285714 
   47900 0.0015020912            0 4.0110158e-05 3.2857486e-05 4.6825438e-05    9.4285714 
   48000 0.0015096558            0 4.2321656e-05 3.1777798e-05 4.6575557e-05    9.4285714 
   48100  0.001517691            0 4.3394796e-05 3.3282862e-05 4.8944379e-05    9.4285714 
   48200 0.0016276418            0 4.4435256e-05 4.0781135e-05 4.9311797e-05    9.4285714 
   48300 0.0017719927            0 4.6700663e-05  4.93677e-05 5.0554784e-05    9.4285714 
   48400 0.0015818941            0 4.2328614e-05 5.2610299e-05 6.113866e-05    9.4285714 
   48500 0.0014198799            0 3.7949889e-05 4.9923747e-05 6.371027e-05    9.4285714 
   48600 0.0014996944            0 3.3673325e-05 4.1987368e-05 5.7078885e-05    9.4285714 
   48700 0.0015097938            0 3.2534132e-05 3.7653951e-05 6.020767e-05    9.4285714 
   48800 0.0014936285            0 3.198257e-05 3.848781e-05 6.1418287e-05    9.4285714 
   48900 0.0015380261            0 2.9867154e-05 3.5482735e-05 6.2521369e-05    9.4285714 
   49000 0.0014965744            0 2.7178656e-05 3.4322744e-05 6.496405e-05    9.4285714 
   49100 0.0014342589            0 2.4682709e-05 3.1869922e-05 6.3744713e-05    9.4285714 
   49200 0.0013600057            0 2.3357174e-05 2.9724086e-05 6.1562467e-05    9.4285714 
   49300 0.0013536509            0 2.1731913e-05 3.1327722e-05 6.570902e-05    9.4285714 
   49400 0.0012990299            0 2.1586451e-05 2.5884921e-05 6.5281404e-05    9.4285714 
   49500 0.0013224383            0 2.3412676e-05 2.3563992e-05 6.3016735e-05    9.4285714 
   49600 0.0013986754            0 2.2834387e-05 2.6158922e-05 6.8429867e-05    9.4285714 
   49700 0.0014411218            0 2.186838e-05 3.0932651e-05 6.8986342e-05    9.4285714 
   49800  0.001378127            0 2.1416786e-05 3.3195639e-05 6.6099274e-05    9.4285714 
   49900 0.0013555715            0 2.3305296e-05 3.2798355e-05 6.4730999e-05    9.4285714 
   50000 0.0013769437            0 2.565575e-05 3.3011245e-05 6.472161e-05    9.4285714 
   50100 0.0013222666            0 2.3086591e-05 3.1553148e-05 6.1316107e-05    9.4285714 
   50200 0.0012877083            0 2.3434234e-05 3.0254615e-05 5.9000057e-05    9.4285714 
   50300 0.0013054167            0 2.287062e-05 2.9813533e-05 6.0744382e-05    9.4285714 
   50400 0.0013208173            0 2.1924114e-05 3.031788e-05 6.2977251e-05    9.4285714 
   50500  0.001296726            0 2.3541273e-05 3.1627632e-05 6.0919408e-05    9.4285714 
   50600 0.0012545759            0 2.2395763e-05 3.2544394e-05 6.172088e-05    9.4285714 
   50700 0.0012027369            0 1.8537595e-05 2.8818734e-05 6.6323174e-05    9.4285714 
   50800 0.0011995165            0 1.925033e-05 2.6873227e-05 6.8899314e-05    9.4285714 
   50900 0.0011723402            0 2.3335248e-05 2.7683854e-05 6.4338432e-05    9.4285714 
   51000 0.0011421813            0 2.4327839e-05 2.6809184e-05 6.0790242e-05    9.4285714 
   51100   0.00116394            0 2.3328144e-05 2.580678e-05 6.2823267e-05    9.4285714 
   51200 0.0012257785            0 3.0552385e-05 2.6138103e-05 5.9377848e-05    9.4285714 
   51300 0.0012358417            0 3.2563685e-05 2.6813317e-05 5.9818633e-05    9.4285714 
   51400 0.0012080215            0 3.5968335e-05 2.5797266e-05 5.8848467e-05    9.4285714 
   51500  0.001267355            0 3.8341583e-05 2.5329521e-05 5.8979767e-05    9.4285714 
   51600 0.0013633492            0 4.1994974e-05 2.8909656e-05 5.9334549e-05    9.4285714 
   51700  0.001306204            0 4.0230386e-05 2.8976584e-05 5.8748448e-05    9.4285714 
   51800 0.0012710708            0 3.7288173e-05 2.7872643e-05 5.8321328e-05    9.4285714 
   51900 0.0012579937            0 3.8663154e-05 2.517734e-05 5.8681842e-05    9.4285714 
   52000 0.0012477598            0 3.8555642e-05 2.4160452e-05 5.9091504e-05    9.4285714 
   52100 0.0012386931            0 3.6298967e-05 2.4734233e-05 5.972957e-05    9.4285714 
   52200 0.0012083661            0 3.4742423e-05 2.3257594e-05 5.9884006e-05    9.4285714 
   52300  0.001227322            0 3.7133752e-05 2.145337e-05 6.0294784e-05    9.4285714 
   52400 0.0012093432            0 3.962701e-05 2.2339465e-05 5.7904347e-05    9.4285714 
   52500 0.0011144162            0 3.5523752e-05 2.2742137e-05 5.7685984e-05    9.4285714 
   52600 0.0011522755            0 3.5416559e-05 2.3594077e-05 6.140573e-05    9.4285714 
   52700 0.0011985381            0 3.7325884e-05 2.5719141e-05 5.9667343e-05    9.4285714 
   52800 0.0012303406            0 3.6858552e-05 3.0224594e-05 5.8930509e-05    9.4285714 
   52900  0.001307949            0 3.7575587e-05  3.12536e-05 5.9515632e-05    9.4285714 
   53000 0.0014328605            0 4.2188955e-05 3.4749382e-05 6.1455539e-05    9.4285714 
   53100 0.0014397095            0 4.2662213e-05 3.7740262e-05 5.687393e-05    9.4285714 
   53200 0.0014025814            0 4.1931353e-05  3.82967e-05 5.3344169e-05    9.4285714 
   53300 0.0014162407            0 4.2121952e-05 3.8423987e-05 5.489916e-05    9.4285714 
   53400 0.0014545711            0 4.2040265e-05 3.9867546e-05 5.6541951e-05    9.4285714 
   53500 0.0014254383            0 4.107753e-05 4.0850378e-05 5.5013854e-05    9.4285714 
   53600 0.0014059642            0 3.8736588e-05 4.0568223e-05 5.3370333e-05    9.4285714 
   53700 0.0014299655            0 3.8088205e-05 4.0085412e-05 5.3935925e-05    9.4285714 
   53800 0.0014395811            0 3.7835533e-05 4.1054329e-05 5.5704229e-05    9.4285714 
   53900 0.0013782275            0 3.7257677e-05 3.6907022e-05 5.5435595e-05    9.4285714 
   54000 0.0013541391            0 3.6689307e-05 3.5693714e-05 5.3583882e-05    9.4285714 
   54100 0.0013630306            0 3.6254688e-05 3.4826774e-05 5.8667982e-05    9.4285714 
   54200 0.0013207223            0 3.1936729e-05 3.3776648e-05 6.1948363e-05    9.4285714 
   54300 0.0012384331            0 2.7065242e-05 3.4136775e-05 6.0545524e-05    9.4285714 
   54400 0.0012368148            0 3.0512497e-05 3.3844993e-05 5.9219431e-05    9.4285714 
   54500 0.0012437394            0 3.1508782e-05 3.1594467e-05 6.1037857e-05    9.4285714 
   54600 0.0012348463            0 3.0502753e-05 2.9944876e-05 6.3038747e-05    9.4285714 
   54700 0.0012264411            0 2.942495e-05 2.9196344e-05 6.2096436e-05    9.4285714 
   54800 0.0012227357            0 2.9387126e-05 2.8643051e-05 6.2569325e-05    9.4285714 
   54900 0.0012088297            0 3.0446939e-05 2.8501145e-05 6.3961542e-05    9.4285714 
   55000 0.0011208127            0 2.8805799e-05 2.6569641e-05 6.2808312e-05    9.4285714 
   55100 0.0010272696            0 2.5493709e-05 1.9941879e-05 6.302396e-05    9.4285714 
   55200 0.0010244607            0 2.3304908e-05 1.4411642e-05 6.7042204e-05    9.4285714 
   55300 0.0010228592            0 2.7172763e-05 1.7899276e-05 6.1125221e-05    9.4285714 
   55400 0.0010783723            0 2.844893e-05 1.9717676e-05 6.0647508e-05    9.4285714 
   55500 0.0010414558            0 2.996559e-05 2.0486223e-05 5.9281396e-05    9.4285714 
   55600  0.001038362            0 3.3593735e-05 2.7878323e-05 5.957773e-05    9.4285714 
   55700 0.0011103409            0 3.7619767e-05 4.0277802e-05 6.3882463e-05    9.4285714 
   55800 0.0011815031            0 3.7703101e-05 4.6521441e-05 6.3037214e-05    9.4285714 
   55900 0.0011668697            0 3.4874824e-05 4.9582252e-05 6.2010386e-05    9.4285714 
   56000 0.0011054612            0 3.2211415e-05 5.267133e-05 5.762587e-05    9.4285714 
   56100 0.0011022355            0 3.2565384e-05 4.8193468e-05 5.818067e-05    9.4285714 
   56200 0.0010652879            0 2.9677141e-05 4.8574299e-05 5.6899785e-05    9.4285714 
   56300 0.0010214534            0 2.7682044e-05 4.9793384e-05 5.7209237e-05    9.4285714 
   56400 0.0010033606            0 2.7477527e-05 4.8534279e-05 5.6585165e-05    9.4285714 
   56500  0.001032246            0 2.8659282e-05 4.7138798e-05 5.5755049e-05    9.4285714 
   56600 0.0010205736            0 2.808297e-05 4.5593016e-05 5.2153347e-05    9.4285714 
   56700 0.0010229415            0 2.8245565e-05 4.6183101e-05 4.9386245e-05    9.4285714 
   56800 0.0010237598            0 2.9271494e-05 4.7176274e-05 5.0507737e-05    9.4285714 
   56900 0.00098868678            0 2.844571e-05 4.7381428e-05 5.1991097e-05    9.4285714 
   57000 0.00095545464            0 2.8308573e-05 4.6113651e-05 5.180154e-05    9.4285714 
   57100 0.00097838526            0 2.8526708e-05 4.418829e-05 5.1047076e-05    9.4285714 
   57200 0.00099033102            0 2.8810469e-05 4.3574359e-05 4.8770969e-05    9.4285714 
   57300 0.00098789739            0 2.7742088e-05 4.2638312e-05 4.8318032e-05    9.4285714 
   57400 0.00098289065            0 2.719876e-05 4.1438218e-05 4.7934906e-05    9.4285714 
   57500 0.00097060527            0 2.8056188e-05 4.0915771e-05 4.6937706e-05    9.4285714 
   57600 0.00096367212            0 2.8906331e-05 4.096143e-05 4.8641012e-05    9.4285714 
   57700 0.00093727857            0 2.8094393e-05 4.1568196e-05 4.7968529e-05    9.4285714 
   57800 0.00083523397            0 2.6262179e-05 3.6876724e-05 4.562199e-05    9.4285714 
   57900 0.00075333301            0 2.7980925e-05 2.9741366e-05 4.3620183e-05    9.4285714 
   58000 0.00069661398            0 2.5284004e-05 2.7029978e-05 3.9673471e-05    9.4285714 
   58100 0.00070399751            0 2.7847203e-05 2.4609632e-05 3.813514e-05    9.4285714 
   58200 0.00073988434            0 2.9918276e-05 2.3169818e-05 3.8568534e-05    9.4285714 
   58300 0.00075216465            0 2.679437e-05 2.6309725e-05  3.84788e-05    9.4285714 
   58400 0.00074553444            0 2.7146251e-05 2.3176744e-05 3.6877784e-05    9.4285714 
   58500 0.00076387247            0 2.5153737e-05 2.1947001e-05 3.6633348e-05    9.4285714 
   58600 0.00079726485            0 2.3192719e-05 2.1988678e-05 4.1251223e-05    9.4285714 
   58700 0.00076951713            0 2.2443054e-05 2.1505061e-05 4.0895931e-05    9.4285714 
   58800 0.00075008028            0 2.0762225e-05 2.2353942e-05 4.0082382e-05    9.4285714 
   58900 0.00074663178            0 2.0351571e-05 2.0331494e-05 4.1154747e-05    9.4285714 
   59000 0.00074834621            0 2.0070564e-05 1.9810228e-05 4.1795424e-05    9.4285714 
   59100 0.00073943718            0 1.9493268e-05 1.8718774e-05 4.0315851e-05    9.4285714 
   59200 0.00074686888            0 1.8211375e-05 1.8999565e-05 3.9680679e-05    9.4285714 
   59300 0.00076308043            0 1.7979192e-05 1.9294244e-05 4.039113e-05    9.4285714 
   59400 0.00076517044            0 1.8706884e-05 1.9120811e-05 4.1399914e-05    9.4285714 
   59500 0.00074796279            0 1.8496664e-05 2.0054079e-05 4.0905155e-05    9.4285714 
   59600 0.0007252451            0 1.9960945e-05 1.8449803e-05 4.0081187e-05    9.4285714 
   59700 0.00074058815            0 2.0387508e-05 1.8439851e-05 4.1337599e-05    9.4285714 
   59800 0.00074353247            0 1.9421778e-05 1.8177335e-05 4.2738891e-05    9.4285714 
   59900 0.00073356239            0 2.1266167e-05 1.5887487e-05 4.2474556e-05    9.4285714 
   60000 0.00071783344            0 2.1291806e-05 1.7115677e-05 4.3533939e-05    9.4285714 
   60100 0.00073488376            0 2.0748859e-05 1.753697e-05 4.3723599e-05    9.4285714 
   60200 0.00071485533            0 2.0125892e-05 1.6149878e-05 4.2293066e-05    9.4285714 
   60300 0.00069234507            0 1.9683215e-05 1.577723e-05 4.1322826e-05    9.4285714 
   60400 0.00070560126            0 2.1810986e-05 1.5311787e-05 4.1879172e-05    9.4285714 
   60500 0.00071315447            0 2.294249e-05 1.6205149e-05 4.2411647e-05    9.4285714 
   60600 0.00071008272            0 2.2503574e-05 1.6017804e-05 4.148626e-05    9.4285714 
   60700 0.00070869103            0 2.2832573e-05 1.5198277e-05 4.1819919e-05    9.4285714 
   60800 0.00071113582            0 2.3255881e-05 1.4827388e-05 4.1973457e-05    9.4285714 
   60900 0.0007088311            0 2.2679653e-05 1.5850816e-05 4.2095838e-05    9.4285714 
   61000 0.00068112179            0 2.1391341e-05 1.5598301e-05 4.1723934e-05    9.4285714 
   61100 0.0006605057            0 1.8812595e-05 1.455179e-05 4.1598553e-05    9.4285714 
   61200 0.0006219746            0 1.3019206e-05 1.4245686e-05 4.1475411e-05    9.4285714 
   61300 0.00061523504            0 1.2972541e-05 1.3080102e-05 4.1512719e-05    9.4285714 
   61400 0.00063282932            0 1.4610134e-05 1.3437893e-05 4.2011175e-05    9.4285714 
   61500 0.00064395604            0 1.6263372e-05 1.3174954e-05 4.3223813e-05    9.4285714 
   61600 0.00065503698            0 1.7095581e-05 1.3957555e-05 4.3883221e-05    9.4285714 
   61700 0.00064793677            0 1.6531668e-05 1.427803e-05 4.4379128e-05    9.4285714 
   61800 0.00063459475            0 1.641822e-05 1.3361915e-05 4.494487e-05    9.4285714 
   61900 0.00062576053            0 1.4991683e-05 1.3178685e-05 4.4244372e-05    9.4285714 
   62000 0.00061441635            0 1.6659779e-05 1.2064885e-05 4.311918e-05    9.4285714 
   62100 0.00058986476            0 1.5363732e-05 1.2327094e-05 4.2344369e-05    9.4285714 
   62200 0.00058813111            0 1.5308244e-05 1.172516e-05 4.0921757e-05    9.4285714 
   62300 0.00061764479            0 1.5701983e-05 1.2777051e-05 4.2222243e-05    9.4285714 
   62400 0.00061182249            0 1.6314424e-05 1.2829719e-05 4.2353173e-05    9.4285714 
   62500 0.00060407638            0 1.5943106e-05 1.2452173e-05 4.0143389e-05    9.4285714 
   62600 0.0006067243            0 1.4964323e-05 1.1428614e-05 4.1418596e-05    9.4285714 
   62700 0.00063181036            0 1.6065306e-05 1.1617944e-05 4.3633299e-05    9.4285714 
   62800 0.00062331625            0 1.7390992e-05 1.160992e-05 4.348545e-05    9.4285714 
   62900 0.00060499586            0 1.7082837e-05 1.1716717e-05 4.3837452e-05    9.4285714 
   63000 0.00059610047            0 1.6563526e-05 1.3685845e-05 4.3859519e-05    9.4285714 
   63100 0.00057777964            0 1.7729378e-05 1.6249465e-05 4.2605855e-05    9.4285714 
   63200 0.00056278033            0 1.9130869e-05 1.4897372e-05 4.3524186e-05    9.4285714 
   63300 0.0005643587            0 1.7411846e-05 1.3103703e-05 4.509639e-05    9.4285714 
   63400 0.00056751625            0 1.7524844e-05 1.3013462e-05 4.5346164e-05    9.4285714 
   63500 0.0005758364            0 1.9007258e-05 1.3278571e-05 4.6271212e-05    9.4285714 
   63600 0.00055297865            0 2.0024907e-05 1.3448906e-05 4.6053495e-05    9.4285714 
   63700 0.00053242834            0 1.9133343e-05 1.3623042e-05 4.4784738e-05    9.4285714 
   63800 0.00053783411            0 1.8058147e-05 1.407792e-05 4.4265384e-05    9.4285714 
   63900 0.00056086464            0 1.8208139e-05 1.4095892e-05 4.4568511e-05    9.4285714 
   64000 0.00055706462            0 1.6651354e-05 1.3124585e-05 4.5325194e-05    9.4285714 
   64100  0.000536149            0 1.5159378e-05 1.2477274e-05 4.5074084e-05    9.4285714 
   64200 0.00053432359            0 1.6241637e-05 1.2509908e-05 4.4118324e-05    9.4285714 
   64300 0.00054329864            0 1.5764694e-05 1.2690611e-05 4.3290153e-05    9.4285714 
   64400 0.00053483462            0 1.5293341e-05 1.2995758e-05 4.2835811e-05    9.4285714 
   64500 0.00051870438            0 1.5973057e-05 1.4635538e-05 4.2763024e-05    9.4285714 
   64600 0.00050924208            0 1.7757189e-05 1.5857543e-05 4.3206134e-05    9.4285714 
   64700 0.00051229708            0 1.9786341e-05 1.5441473e-05 4.1425482e-05    9.4285714 
   64800 0.00049972497            0 1.8784827e-05 1.5454616e-05 4.1657079e-05    9.4285714 
   64900 0.00050437675            0 1.686975e-05 1.4399895e-05 4.1718529e-05    9.4285714 
   65000 0.00050921662            0 1.611267e-05 1.4047703e-05 4.1291373e-05    9.4285714 
   65100 0.00050128712            0 1.5751344e-05 1.4113072e-05 4.1872267e-05    9.4285714 
   65200 0.00049418811            0 1.5173817e-05 1.4195559e-05 4.2056531e-05    9.4285714 
   65300 0.00048475459            0 1.5417595e-05  1.57661e-05 4.2409836e-05    9.4285714 
   65400 0.00048358093            0 1.5246796e-05 1.5190672e-05 4.1991083e-05    9.4285714 
   65500 0.00046187182            0 1.4861182e-05 1.4588223e-05 4.0935849e-05    9.4285714 
   65600 0.00044765112            0 1.4765268e-05 1.537344e-05 4.0371641e-05    9.4285714 
   65700 0.00044227491            0 1.510286e-05 1.606591e-05 4.0813721e-05    9.4285714 
   65800 0.00045062117            0 1.6750885e-05 1.8030475e-05 4.1179756e-05    9.4285714 
   65900 0.00044298468            0 1.6518424e-05  1.85545e-05 4.026916e-05    9.4285714 
   66000 0.00043634341            0 1.5800836e-05 1.7585905e-05 3.9748931e-05    9.4285714 
   66100 0.00044148682            0 1.6642713e-05 1.670122e-05 4.0274963e-05    9.4285714 
   66200 0.00041908541            0 1.746514e-05 1.7059015e-05 4.0382535e-05    9.4285714 
   66300 0.0003986816            0 1.7027695e-05 1.739357e-05 3.9376117e-05    9.4285714 
   66400 0.00039220656            0 1.6705227e-05 1.8903119e-05 3.9114212e-05    9.4285714 
   66500 0.0003718012            0 1.5572293e-05 1.9986978e-05 3.7554446e-05    9.4285714 
   66600 0.00035441178            0 1.7496688e-05 2.182664e-05 3.7175628e-05    9.4285714 
   66700 0.00032771071            0 1.855562e-05 2.3889316e-05 3.8273751e-05    9.4285714 
   66800 0.00032034205            0 1.994633e-05 2.2871209e-05 3.7054459e-05    9.4285714 
   66900 0.00032748678            0 1.9902021e-05 2.2577802e-05 3.5143062e-05    9.4285714 
   67000 0.00031480002            0 1.8836912e-05 2.3635721e-05 3.3711459e-05    9.4285714 
   67100 0.00029818864            0 1.9151872e-05 2.4066822e-05 3.0035385e-05    9.4285714 
   67200 0.00028850482            0 2.0202645e-05 2.2857011e-05 2.679825e-05    9.4285714 
   67300 0.00027906463            0 1.8464704e-05 2.2098469e-05 2.5808159e-05    9.4285714 
   67400 0.00026983119            0 1.8815297e-05 2.1711669e-05 2.3802924e-05    9.4285714 
   67500 0.00025897445            0 1.8973424e-05 2.0968355e-05 2.3297142e-05    9.4285714 
   67600 0.00025617277            0 1.8617812e-05 1.9830989e-05 2.2090704e-05    9.4285714 
   67700 0.0002458913            0 1.910437e-05 1.8625812e-05 2.1733812e-05    9.4285714 
   67800 0.00023354219            0 1.832611e-05 1.7691212e-05 2.1210126e-05    9.4285714 
   67900 0.00022620372            0 1.7000402e-05 1.7080892e-05 2.1207271e-05    9.4285714 
   68000 0.00021034083            0 1.6825045e-05 1.8065087e-05 2.1095108e-05    9.4285714 
   68100 0.00020081342            0 1.6332082e-05 1.970994e-05 2.0758845e-05    9.4285714 
   68200 0.00019193991            0 1.5966734e-05 1.868169e-05 2.0157881e-05    9.4285714 
   68300 0.00018544966            0 1.561877e-05 1.7478563e-05 1.8475016e-05    9.4285714 
   68400 0.00018804615            0 1.4772975e-05 1.6974189e-05 1.7189233e-05    9.4285714 
   68500 0.00018775348            0 1.3639818e-05 1.6731872e-05 1.5813203e-05    9.4285714 
   68600 0.00017814834            0 1.3108584e-05 1.5896539e-05 1.5789958e-05    9.4285714 
   68700 0.00017684501            0 1.2570593e-05 1.5512625e-05 1.5646067e-05    9.4285714 
   68800 0.00017822756            0 1.2650073e-05 1.5178378e-05 1.5602751e-05    9.4285714 
   68900 0.00017399678            0 1.2637066e-05 1.5270188e-05 1.4772033e-05    9.4285714 
   69000 0.00016884856            0 1.1917102e-05 1.5579284e-05 1.3954577e-05    9.4285714 
   69100 0.00016124621            0 1.1143804e-05 1.5715176e-05 1.3890091e-05    9.4285714 
   69200 0.00015230369            0 1.0616022e-05 1.475922e-05 1.2345065e-05    9.4285714 
   69300 0.00013801371            0 9.640773e-06 1.393282e-05 1.1715961e-05    9.4285714 
   69400 0.00013808136            0 9.6212514e-06 1.3652018e-05 1.0846438e-05    9.4285714 
   69500 0.0001440913            0 1.021795e-05 1.2661342e-05 1.038701e-05    9.4285714 
   69600 0.0001394285            0 9.9938044e-06 1.2245834e-05 1.089642e-05    9.4285714 
   69700 0.00013161326            0 1.0201799e-05 1.1909588e-05 1.0772069e-05    9.4285714 
   69800 0.00013249756            0 1.113604e-05 1.164231e-05 1.0591161e-05    9.4285714 
   69900 0.00012090745            0 1.1478451e-05 1.1152813e-05 9.919079e-06    9.4285714 
   70000 0.00011236987            0 1.0884519e-05 1.1231913e-05 8.9927016e-06    9.4285714 
   70100 0.00011286945            0  9.72149e-06 1.1278278e-05 8.465142e-06    9.4285714 
   70200 0.00010986334            0 1.0368303e-05 1.1087033e-05 8.1873531e-06    9.4285714 
   70300 0.00010685467            0 1.0583554e-05 9.9509928e-06 8.015838e-06    9.4285714 
   70400 0.00010200771            0 9.5007118e-06 8.8995568e-06 7.8885063e-06    9.4285714 
   70500 0.00010058377            0   8.7483e-06 8.1860548e-06 7.2604639e-06    9.4285714 
   70600 0.00010566655            0 8.8814394e-06 8.3353964e-06 7.0730026e-06    9.4285714 
   70700 0.00010568819            0 9.2056705e-06 8.6532173e-06 7.5798304e-06    9.4285714 
   70800 9.5743305e-05            0 8.8046692e-06 8.214583e-06 8.2007696e-06    9.4285714 
   70900 9.0337674e-05            0 8.1926875e-06 7.8174183e-06 8.5067051e-06    9.4285714 
   71000 9.4761156e-05            0 7.9032031e-06 7.8162303e-06 8.2181578e-06    9.4285714 
   71100 9.4948727e-05            0 7.5065136e-06 8.0759219e-06 7.5553381e-06    9.4285714 
   71200 9.0670778e-05            0 7.4294848e-06 8.3699509e-06  7.59107e-06    9.4285714 
   71300 8.6130193e-05            0 8.0377457e-06 8.790487e-06 7.9918991e-06    9.4285714 
   71400 8.4589504e-05            0 8.2905148e-06 8.7219326e-06 8.4439469e-06    9.4285714 
   71500 8.0529098e-05            0 8.0165537e-06 8.3087243e-06 8.8955027e-06    9.4285714 
   71600 7.5686597e-05            0 7.5468312e-06 7.6884231e-06 8.6682444e-06    9.4285714 
   71700 7.6798602e-05            0 7.6542761e-06 7.4772412e-06 7.7914537e-06    9.4285714 
   71800 7.9310009e-05            0 7.6461402e-06  7.72091e-06 7.0238823e-06    9.4285714 
   71900 7.9214288e-05            0 7.4810232e-06 7.6768621e-06 6.7817162e-06    9.4285714 
   72000 7.9038582e-05            0 7.2159275e-06 7.1798723e-06 6.9247219e-06    9.4285714 
   72100 7.871016e-05            0 6.7491433e-06 6.3347515e-06 6.840567e-06    9.4285714 
   72200 7.834318e-05            0 7.0232916e-06 6.5724499e-06 7.0466047e-06    9.4285714 
   72300 7.4417464e-05            0 7.6417843e-06 7.4198519e-06 7.5391796e-06    9.4285714 
   72400 7.2850636e-05            0 7.4561653e-06 7.4656614e-06 7.6687535e-06    9.4285714 
   72500 7.2654277e-05            0 7.1517943e-06 7.3081176e-06 7.3888809e-06    9.4285714 
   72600 6.9835461e-05            0 6.8818427e-06 7.3788479e-06 7.8063157e-06    9.4285714 
   72700 6.2829954e-05            0 7.1611994e-06 6.9887628e-06 8.3172177e-06    9.4285714 
   72800 6.2262018e-05            0 7.6316315e-06 6.7547342e-06 8.8125983e-06    9.4285714 
   72900 6.3883222e-05            0 7.5334524e-06 6.7730657e-06 8.6595963e-06    9.4285714 
   73000 5.9226511e-05            0 6.8864713e-06 6.4791392e-06 8.1819239e-06    9.4285714 
   73100 5.7011505e-05            0  6.63954e-06 6.6586151e-06 8.2829434e-06    9.4285714 
   73200 5.7782301e-05            0 6.9499852e-06 7.7458663e-06 8.7262015e-06    9.4285714 
   73300 5.6603344e-05            0 6.8509353e-06 8.3648334e-06 8.6498703e-06    9.4285714 
   73400 5.7168446e-05            0 6.5941097e-06 7.9160113e-06 8.8929853e-06    9.4285714 
   73500 5.5370771e-05            0 6.2230317e-06 6.9794004e-06 8.8249884e-06    9.4285714 
   73600 5.4812912e-05            0 5.7778189e-06 6.3940944e-06 8.5286349e-06    9.4285714 
   73700 5.6347935e-05            0 5.7515383e-06 6.3283312e-06 8.319272e-06    9.4285714 
   73800 5.4277314e-05            0 6.1253887e-06 6.6182977e-06 8.3463134e-06    9.4285714 
   73900 5.2208621e-05            0 6.4163882e-06 6.8192691e-06 8.3082406e-06    9.4285714 
   74000 5.2269889e-05            0 6.6559599e-06 7.1457306e-06 8.2273352e-06    9.4285714 
   74100 5.140122e-05            0 6.869245e-06 7.5138252e-06 7.9478769e-06    9.4285714 
   74200 5.0493971e-05            0 6.909946e-06 7.3598192e-06 8.268487e-06    9.4285714 
   74300 5.0143612e-05            0 6.9216264e-06 7.1981534e-06 9.1585219e-06    9.4285714 
   74400 5.1096041e-05            0 6.8363069e-06 7.0296413e-06 9.1147547e-06    9.4285714 
   74500 5.0443873e-05            0 6.7793586e-06 7.0132351e-06 8.5823651e-06    9.4285714 
   74600 4.7361206e-05            0 6.7180197e-06 7.124872e-06 8.7761577e-06    9.4285714 
   74700 4.5217891e-05            0 6.9374707e-06 7.2691752e-06 9.1522715e-06    9.4285714 
   74800 4.4199219e-05            0 6.7909439e-06 7.5770949e-06 9.7192223e-06    9.4285714 
   74900 4.2690558e-05            0 6.6514575e-06 7.6611441e-06 1.0077374e-05    9.4285714 
   75000 4.3251235e-05            0 6.7090132e-06 7.6653791e-06 1.0052049e-05    9.4285714 
   75100 4.2455244e-05            0 6.7866432e-06 7.7388966e-06 1.0028703e-05    9.4285714 
   75200 3.9974009e-05            0  6.82653e-06 7.8909604e-06 1.0337211e-05    9.4285714 
   75300 3.9717052e-05            0 6.9211881e-06 7.7970569e-06 1.0488155e-05    9.4285714 
   75400 3.9986342e-05            0 7.1648198e-06 7.4603705e-06 1.0688149e-05    9.4285714 
   75500 3.9169442e-05            0 7.3718404e-06 7.4522867e-06  1.11569e-05    9.4285714 
   75600 3.7089566e-05            0 7.818948e-06 8.0959183e-06 1.1390076e-05    9.4285714 
   75700 3.3266397e-05            0 8.130609e-06 8.6491143e-06 1.1151698e-05    9.4285714 
   75800 3.2384668e-05            0 7.7863389e-06  8.37919e-06 1.1288007e-05    9.4285714 
   75900 3.1838307e-05            0 7.6319586e-06 8.1009387e-06 1.143279e-05    9.4285714 
   76000 3.1144297e-05            0 7.8711235e-06 8.1673509e-06 1.1029084e-05    9.4285714 
   76100 2.9974072e-05            0 7.9247713e-06 8.299987e-06 1.0525923e-05    9.4285714 
   76200 2.7198035e-05            0 7.8293009e-06 8.310921e-06 1.055285e-05    9.4285714 
   76300 2.7127342e-05            0 7.6553123e-06 8.0539985e-06 1.0474633e-05    9.4285714 
   76400 2.7851263e-05            0 7.308142e-06 7.8072863e-06 1.013167e-05    9.4285714 
   76500 2.7494264e-05            0 6.841143e-06 7.835377e-06 9.3440029e-06    9.4285714 
   76600 2.6712243e-05            0 6.5997538e-06 8.0291247e-06 8.9766747e-06    9.4285714 
   76700 2.608679e-05            0 6.5476182e-06 8.0290119e-06 8.9406988e-06    9.4285714 
   76800 2.5470409e-05            0 6.7969082e-06 7.9051392e-06 8.6794585e-06    9.4285714 
   76900 2.3738132e-05            0 7.0899218e-06 7.820068e-06 8.3776786e-06    9.4285714 
   77000 2.392793e-05            0 7.1007851e-06 7.7008506e-06 8.2196063e-06    9.4285714 
   77100 2.5040725e-05            0 6.5849837e-06 7.5695391e-06 8.0838426e-06    9.4285714 
   77200 2.4262679e-05            0 5.882129e-06 7.3322008e-06 7.9176151e-06    9.4285714 
   77300 2.3485603e-05            0 5.5578939e-06 7.1253591e-06 8.1421152e-06    9.4285714 
   77400 2.288926e-05            0 5.5392448e-06 6.953267e-06 8.3284229e-06    9.4285714 
   77500 2.1807877e-05            0 5.6396821e-06 6.8965687e-06 8.3180338e-06    9.4285714 
   77600 2.0733918e-05            0 5.7355693e-06 6.7994759e-06 8.0734473e-06    9.4285714 
   77700 1.9203226e-05            0 6.0476702e-06 6.6767049e-06 7.8817179e-06    9.4285714 
   77800 1.9501256e-05            0 6.3142216e-06 6.4932104e-06 7.6808533e-06    9.4285714 
   77900 2.0359598e-05            0 6.2952388e-06 6.2572911e-06 7.4898379e-06    9.4285714 
   78000 2.0195233e-05            0 6.2117602e-06 5.9890577e-06 7.3521707e-06    9.4285714 
   78100 1.9996343e-05            0 6.4254558e-06 6.0581865e-06 7.4946408e-06    9.4285714 
   78200 1.9561783e-05            0 6.5081672e-06 6.1091508e-06 7.7115624e-06    9.4285714 
   78300 1.8950384e-05            0 6.5057604e-06 6.1336288e-06 7.7814624e-06    9.4285714 
   78400 1.791265e-05            0 6.524486e-06 6.106767e-06 7.9720525e-06    9.4285714 
   78500 1.6719761e-05            0 6.4696267e-06 6.1466897e-06 8.2888462e-06    9.4285714 
   78600 1.694882e-05            0 6.3960529e-06 6.4383715e-06 8.566325e-06    9.4285714 
   78700 1.6441696e-05            0 6.4244259e-06 6.8544835e-06 8.8114945e-06    9.4285714 
   78800  1.58705e-05            0 6.4261976e-06 6.9892281e-06 8.9516613e-06    9.4285714 
   78900 1.6262888e-05            0 6.4275436e-06 6.918921e-06 8.9013596e-06    9.4285714 
   79000 1.6249172e-05            0 6.5654154e-06 6.8123563e-06 8.8489233e-06    9.4285714 
   79100 1.5831334e-05            0 6.4588742e-06 6.712862e-06 8.8288153e-06    9.4285714 
   79200 1.6045382e-05            0 6.403274e-06 6.7037068e-06 8.9761827e-06    9.4285714 
   79300 1.5516093e-05            0 6.3902624e-06 6.7184084e-06 9.1560991e-06    9.4285714 
   79400 1.416878e-05            0 6.3570188e-06 6.7232883e-06 9.227643e-06    9.4285714 
   79500 1.3789098e-05            0 6.3134201e-06 6.7601571e-06 9.4097509e-06    9.4285714 
   79600 1.3348534e-05            0 6.1960704e-06 6.7254265e-06 9.6078167e-06    9.4285714 
   79700 1.273465e-05            0 6.1541687e-06 6.5901782e-06 9.8182002e-06    9.4285714 
   79800 1.2227372e-05            0 6.304926e-06 6.6441957e-06 1.0068215e-05    9.4285714 
   79900 1.1693813e-05            0 6.3038093e-06 6.6939605e-06 1.0197318e-05    9.4285714 
   80000 1.1464185e-05            0 6.1705804e-06 6.6906719e-06 1.0110803e-05    9.4285714 
   80100 1.1803018e-05            0 6.0500543e-06 6.6620614e-06 9.8456096e-06    9.4285714 
   80200 1.2022752e-05            0 6.1098356e-06 6.6272319e-06 9.7114881e-06    9.4285714 
   80300 1.1235183e-05            0 6.3111252e-06 6.8491552e-06 9.8106655e-06    9.4285714 
   80400 1.0767149e-05            0 6.4003396e-06 7.1077653e-06 9.6772383e-06    9.4285714 
   80500 1.0605289e-05            0 6.2939472e-06 7.0736809e-06 9.243275e-06    9.4285714 
   80600 1.0730122e-05            0  6.10832e-06 6.9696774e-06 8.7322327e-06    9.4285714 
   80700 1.0881957e-05            0 6.0452261e-06 6.8625083e-06 8.4087864e-06    9.4285714 
   80800 1.0406089e-05            0 6.0948251e-06 6.523201e-06  8.19417e-06    9.4285714 
   80900 1.0026467e-05            0 6.0325653e-06 6.0787776e-06 7.9921617e-06    9.4285714 
   81000 9.7145958e-06            0 5.9646282e-06 5.9468725e-06 7.7932935e-06    9.4285714 
   81100 9.5989912e-06            0 5.9922407e-06 5.8830137e-06 7.4211805e-06    9.4285714 
   81200 9.6167979e-06            0 5.9890853e-06 5.8136074e-06 7.1725868e-06    9.4285714 
   81300 9.3960745e-06            0 5.9836322e-06 5.8456821e-06 7.1063473e-06    9.4285714 
   81400 9.2203704e-06            0 6.0646745e-06 5.9639464e-06 7.1870346e-06    9.4285714 
   81500 8.9934924e-06            0 6.0596683e-06 6.0526634e-06 7.4184354e-06    9.4285714 
   81600 8.9239343e-06            0 5.9305991e-06 5.9920705e-06 7.4398143e-06    9.4285714 
   81700 8.8536448e-06            0 5.782797e-06 5.7875074e-06 7.3001827e-06    9.4285714 
   81800 8.7738397e-06            0 5.6772255e-06 5.5870852e-06 7.215606e-06    9.4285714 
   81900 8.6264475e-06            0 5.6109721e-06 5.4778153e-06 7.4438004e-06    9.4285714 
   82000 8.1150459e-06            0 5.6859237e-06 5.4434971e-06 7.7319605e-06    9.4285714 
   82100 7.7649326e-06            0 5.7940758e-06 5.4655151e-06 7.8474115e-06    9.4285714 
   82200 7.2560528e-06            0 5.8338187e-06 5.5455868e-06 7.8801512e-06    9.4285714 
   82300 6.728063e-06            0 5.8489495e-06 5.5951456e-06 8.0820793e-06    9.4285714 
   82400 6.9809977e-06            0 5.8693525e-06 5.6114868e-06 8.260093e-06    9.4285714 
   82500 7.355814e-06            0  5.92658e-06 5.618559e-06 8.3090972e-06    9.4285714 
   82600 7.2570318e-06            0 5.9036059e-06 5.7297566e-06 8.3811458e-06    9.4285714 
   82700 6.9694095e-06            0 5.8875064e-06 5.8982843e-06 8.5177797e-06    9.4285714 
   82800 6.6998823e-06            0   5.8397e-06 5.9382718e-06 8.5416261e-06    9.4285714 
   82900 6.2647743e-06            0 5.8436222e-06 5.9380316e-06 8.4849934e-06    9.4285714 
   83000 6.0939421e-06            0 5.8584026e-06 5.9680845e-06 8.4019098e-06    9.4285714 
   83100 5.7817334e-06            0 5.9194068e-06 5.974517e-06 8.3739449e-06    9.4285714 
   83200 5.4819772e-06            0 5.9246092e-06 5.9787088e-06 8.2453878e-06    9.4285714 
   83300 5.5890815e-06            0 5.7890157e-06 5.9282178e-06 8.0590558e-06    9.4285714 
   83400 5.6281861e-06            0 5.6912633e-06 5.8518645e-06 7.9909164e-06    9.4285714 
   83500 5.4144887e-06            0 5.6573854e-06 5.7833509e-06 8.0464114e-06    9.4285714 
   83600 5.1563913e-06            0 5.6269226e-06 5.7339786e-06 8.0661711e-06    9.4285714 
   83700 5.0876473e-06            0 5.5749834e-06 5.6845511e-06 8.0332703e-06    9.4285714 
   83800 4.9468448e-06            0 5.5707074e-06 5.6385133e-06 7.9597769e-06    9.4285714 
   83900 4.6630105e-06            0 5.5723723e-06 5.6175318e-06 7.8851126e-06    9.4285714 
   84000 4.7811214e-06            0 5.5108047e-06 5.6078624e-06 7.8050501e-06    9.4285714 
   84100 5.0276584e-06            0 5.5880552e-06 5.5747336e-06 7.6735943e-06    9.4285714 
   84200 5.0673134e-06            0 5.5485723e-06 5.4960143e-06 7.5331626e-06    9.4285714 
   84300 5.0178904e-06            0 5.4242574e-06 5.450341e-06 7.397872e-06    9.4285714 
   84400 5.1214108e-06            0 5.4146982e-06 5.4695781e-06 7.1709728e-06    9.4285714 
   84500 5.2613708e-06            0 5.4544838e-06 5.4910137e-06 6.8978042e-06    9.4285714 
   84600 5.0732871e-06            0 5.4732529e-06 5.4537634e-06 6.6451024e-06    9.4285714 
   84700 4.8942355e-06            0 5.3186694e-06 5.4081165e-06 6.4129476e-06    9.4285714 
   84800 4.9894935e-06            0 5.210834e-06 5.3824484e-06 6.2468844e-06    9.4285714 
   84900 5.0853301e-06            0 5.2081027e-06 5.368114e-06 6.1689206e-06    9.4285714 
   85000 5.0246182e-06            0 5.2102872e-06 5.374328e-06 6.1510533e-06    9.4285714 
   85100 5.0208754e-06            0 5.1521471e-06 5.3676682e-06 6.1991457e-06    9.4285714 
   85200 5.0748205e-06            0 5.048261e-06 5.2440453e-06 6.2004146e-06    9.4285714 
   85300 4.9812629e-06            0 4.901834e-06 5.078053e-06 6.1739713e-06    9.4285714 
   85400 4.9364086e-06            0 4.7854165e-06 4.9665202e-06 6.1913133e-06    9.4285714 
   85500 5.0949477e-06            0   4.7684e-06 4.9424101e-06 6.2384897e-06    9.4285714 
   85600 5.2578329e-06            0 4.8296562e-06 4.9891444e-06 6.3177757e-06    9.4285714 
   85700 5.3178654e-06            0 4.9096168e-06 5.0492655e-06 6.3719253e-06    9.4285714 
   85800 5.2789195e-06            0 5.0030273e-06 5.1221141e-06 6.4306092e-06    9.4285714 
   85900 5.211556e-06            0 5.0888711e-06 5.2011509e-06 6.4447784e-06    9.4285714 
   86000 5.164723e-06            0 5.1818504e-06 5.2712326e-06 6.4302369e-06    9.4285714 
   86100 5.0481445e-06            0 5.2785718e-06 5.3135548e-06 6.441319e-06    9.4285714 
   86200 4.9974464e-06            0 5.3884301e-06 5.294815e-06 6.5827459e-06    9.4285714 
   86300 4.9937059e-06            0 5.457251e-06 5.2609359e-06 6.7845972e-06    9.4285714 
   86400 4.8657268e-06            0 5.4483442e-06 5.2511498e-06 6.9337604e-06    9.4285714 
   86500 4.7283799e-06            0 5.425898e-06 5.3089241e-06 7.0312792e-06    9.4285714 
   86600 4.7004375e-06            0 5.4193785e-06 5.4166695e-06 7.1128075e-06    9.4285714 
   86700 4.6372911e-06            0 5.4344351e-06 5.4996051e-06 7.277017e-06    9.4285714 
   86800 4.5127464e-06            0 5.4946741e-06 5.6005112e-06 7.5801442e-06    9.4285714 
   86900 4.2696716e-06            0 5.6390116e-06 5.767542e-06 7.931129e-06    9.4285714 
   87000 3.9562698e-06            0 5.7901064e-06 5.9319146e-06 8.1254738e-06    9.4285714 
   87100 3.8216875e-06            0 5.802745e-06 6.0555156e-06 8.1125473e-06    9.4285714 
   87200 3.7106265e-06            0 5.7560928e-06 6.1526954e-06 8.1788736e-06    9.4285714 
   87300 3.5152634e-06            0 5.7983009e-06 6.1893449e-06 8.3142262e-06    9.4285714 
   87400 3.3565975e-06            0 5.9349946e-06 6.1859595e-06 8.3471855e-06    9.4285714 
   87500 3.2638882e-06            0 6.1244937e-06 6.1935393e-06 8.3417873e-06    9.4285714 
   87600 3.0898606e-06            0 6.1267787e-06 6.1999214e-06 8.4141458e-06    9.4285714 
   87700 2.8576261e-06            0 6.0597342e-06 6.186209e-06 8.5665825e-06    9.4285714 
   87800 2.7576879e-06            0 6.0986889e-06 6.1966395e-06 8.7269298e-06    9.4285714 
   87900 2.6395553e-06            0 6.2323863e-06 6.2325665e-06 8.8153584e-06    9.4285714 
   88000 2.5367275e-06            0 6.3399962e-06 6.2286333e-06 8.7321005e-06    9.4285714 
   88100 2.5435826e-06            0 6.3843685e-06 6.199985e-06 8.588545e-06    9.4285714 
   88200 2.4639259e-06            0 6.4179215e-06 6.1683922e-06 8.4513487e-06    9.4285714 
   88300 2.3469036e-06            0 6.4551211e-06 6.1080618e-06 8.3387381e-06    9.4285714 
   88400 2.3768733e-06            0 6.4591903e-06 6.0389471e-06 8.1921919e-06    9.4285714 
   88500 2.3736897e-06            0 6.393894e-06 5.9510828e-06 8.0112655e-06    9.4285714 
   88600 2.2500164e-06            0 6.2578349e-06 5.8448408e-06 7.8184696e-06    9.4285714 
   88700 2.2162271e-06            0 6.1542092e-06 5.7754318e-06 7.6686985e-06    9.4285714 
   88800 2.2151714e-06            0 6.0729724e-06 5.7388441e-06 7.547056e-06    9.4285714 
   88900 2.1358759e-06            0 5.959043e-06 5.7110489e-06 7.3753601e-06    9.4285714 
   89000 2.0679219e-06            0 5.8461246e-06 5.669748e-06 7.208506e-06    9.4285714 
   89100 2.0601043e-06            0 5.7535284e-06 5.6000192e-06 7.1410851e-06    9.4285714 
   89200 2.0129251e-06            0 5.7206458e-06 5.5643986e-06 7.1420425e-06    9.4285714 
   89300 1.8550153e-06            0 5.7375984e-06 5.5654325e-06 7.101938e-06    9.4285714 
   89400 1.740421e-06            0 5.7121512e-06 5.5424937e-06 6.9314459e-06    9.4285714 
   89500 1.7011249e-06            0 5.5746559e-06 5.4592408e-06 6.7076844e-06    9.4285714 
   89600 1.6571459e-06            0 5.4274167e-06 5.3669256e-06 6.531149e-06    9.4285714 
   89700 1.6438067e-06            0 5.3201355e-06 5.2892086e-06 6.4398106e-06    9.4285714 
   89800 1.6525138e-06            0 5.2625686e-06 5.2167148e-06 6.4067962e-06    9.4285714 
   89900 1.6319271e-06            0 5.2556177e-06 5.1873856e-06 6.3826434e-06    9.4285714 
   90000 1.557529e-06            0 5.2446154e-06 5.2340739e-06 6.3155153e-06    9.4285714 
   90100 1.4882373e-06            0 5.2015275e-06 5.2778385e-06 6.2402529e-06    9.4285714 
   90200 1.4209302e-06            0 5.1597895e-06 5.2738932e-06 6.2081083e-06    9.4285714 
   90300 1.3299939e-06            0 5.1418672e-06 5.2372552e-06 6.2528023e-06    9.4285714 
   90400 1.2259092e-06            0 5.1463821e-06 5.2097912e-06 6.3462418e-06    9.4285714 
   90500 1.1187486e-06            0 5.1762762e-06 5.239444e-06 6.4479926e-06    9.4285714 
   90600 1.0608212e-06            0 5.2178318e-06 5.305174e-06 6.5102243e-06    9.4285714 
   90700 1.0766578e-06            0 5.2419914e-06 5.3525891e-06 6.5140687e-06    9.4285714 
   90800 1.1182792e-06            0 5.2530154e-06 5.3586888e-06 6.4962495e-06    9.4285714 
   90900 1.1296592e-06            0 5.2748443e-06 5.3408421e-06 6.5115448e-06    9.4285714 
   91000  1.11746e-06            0 5.3229553e-06 5.3176115e-06 6.5624336e-06    9.4285714 
   91100 1.1161849e-06            0 5.3728185e-06 5.2967077e-06 6.6076278e-06    9.4285714 
   91200 1.1003381e-06            0 5.3762475e-06 5.2863942e-06 6.6437528e-06    9.4285714 
   91300 1.0699207e-06            0 5.3449145e-06 5.3031418e-06 6.711032e-06    9.4285714 
   91400 1.0225085e-06            0 5.3031929e-06  5.34765e-06 6.796701e-06    9.4285714 
   91500 9.3221185e-07            0 5.2820677e-06 5.3831345e-06 6.8688465e-06    9.4285714 
   91600 8.175139e-07            0 5.2910041e-06 5.4163556e-06 6.9400122e-06    9.4285714 
   91700 7.3559371e-07            0 5.3055219e-06 5.455723e-06 7.044799e-06    9.4285714 
   91800 7.1536716e-07            0 5.3171425e-06 5.4958276e-06 7.1764255e-06    9.4285714 
   91900 7.3505787e-07            0 5.3414305e-06 5.5291435e-06 7.3166969e-06    9.4285714 
   92000 7.4077724e-07            0 5.3814858e-06 5.5514528e-06 7.4343294e-06    9.4285714 
   92100 6.9877049e-07            0 5.4390474e-06 5.5727673e-06 7.4953117e-06    9.4285714 
   92200 6.4252681e-07            0 5.4916149e-06 5.5977627e-06 7.5227736e-06    9.4285714 
   92300 6.0110022e-07            0 5.5159103e-06 5.6313603e-06 7.5388191e-06    9.4285714 
   92400 5.816128e-07            0 5.5178607e-06 5.6647579e-06 7.5582377e-06    9.4285714 
   92500 5.9153109e-07            0 5.5092078e-06 5.6729251e-06 7.5696663e-06    9.4285714 
   92600 6.0921987e-07            0 5.4970327e-06 5.6615892e-06 7.5703268e-06    9.4285714 
   92700 6.1337515e-07            0 5.4942697e-06 5.6345531e-06 7.5559086e-06    9.4285714 
   92800 6.1327785e-07            0 5.4807468e-06 5.6009851e-06 7.5214857e-06    9.4285714 
   92900 6.1792714e-07            0 5.4554294e-06 5.5749276e-06 7.4538853e-06    9.4285714 
   93000 6.1273596e-07            0 5.4290775e-06 5.5561117e-06 7.3841006e-06    9.4285714 
   93100 6.0793162e-07            0 5.4185336e-06 5.5358484e-06 7.3194241e-06    9.4285714 
   93200 6.0544275e-07            0 5.4307931e-06 5.512978e-06 7.2505125e-06    9.4285714 
   93300 5.9304823e-07            0 5.4493134e-06 5.5034617e-06 7.1829541e-06    9.4285714 
   93400 5.8633452e-07            0 5.4585391e-06 5.5059231e-06 7.1239428e-06    9.4285714 
   93500 5.8558033e-07            0 5.4524782e-06 5.5079042e-06 7.0750126e-06    9.4285714 
   93600 5.9666443e-07            0 5.4431269e-06 5.5093864e-06 7.038782e-06    9.4285714 
   93700 6.2961131e-07            0 5.4420067e-06 5.5023302e-06 7.0048532e-06    9.4285714 
   93800 6.5214088e-07            0 5.4557207e-06 5.4957162e-06 6.9697117e-06    9.4285714 
   93900 6.4876906e-07            0 5.4814438e-06 5.5018236e-06 6.9387912e-06    9.4285714 
   94000 6.4883965e-07            0 5.5010302e-06 5.5122147e-06 6.912436e-06    9.4285714 
   94100 6.6318042e-07            0 5.4941441e-06 5.5055713e-06 6.8781859e-06    9.4285714 
   94200 6.7888726e-07            0 5.4655079e-06 5.494276e-06 6.8335849e-06    9.4285714 
   94300 6.851547e-07            0 5.4386351e-06 5.4819488e-06 6.785467e-06    9.4285714 
   94400 6.9002759e-07            0 5.4150889e-06 5.4560812e-06 6.7512517e-06    9.4285714 
   94500 6.8881467e-07            0 5.389498e-06 5.4249696e-06 6.7436813e-06    9.4285714 
   94600 6.8216567e-07            0 5.3596704e-06 5.3960045e-06 6.752434e-06    9.4285714 
   94700 6.9513876e-07            0 5.3315299e-06 5.3638382e-06 6.7588407e-06    9.4285714 
   94800 7.3117806e-07            0 5.319681e-06 5.3328405e-06 6.7594305e-06    9.4285714 
   94900 7.4630526e-07            0 5.3264247e-06 5.3065749e-06 6.7584815e-06    9.4285714 
   95000 7.052145e-07            0 5.336904e-06 5.2901046e-06 6.7591167e-06    9.4285714 
   95100 6.5300672e-07            0 5.3431675e-06 5.3055137e-06 6.7707775e-06    9.4285714 
   95200 6.2832435e-07            0 5.343062e-06 5.3566209e-06 6.8007939e-06    9.4285714 
   95300 5.8243636e-07            0 5.3391408e-06 5.411327e-06 6.8329844e-06    9.4285714 
   95400 5.3752036e-07            0 5.3329329e-06 5.4406204e-06 6.8573377e-06    9.4285714 
   95500 5.5141526e-07            0 5.3399002e-06 5.4506865e-06 6.8841697e-06    9.4285714 
   95600 5.9422206e-07            0 5.3628211e-06 5.4526761e-06 6.9223868e-06    9.4285714 
   95700 6.0502271e-07            0 5.3849027e-06 5.448663e-06 6.9748494e-06    9.4285714 
   95800 5.9633233e-07            0 5.3916863e-06 5.4445277e-06 7.034379e-06    9.4285714 
   95900 5.8353112e-07            0 5.3864279e-06 5.4411008e-06 7.1207417e-06    9.4285714 
   96000 5.4965917e-07            0 5.3883171e-06 5.4521987e-06 7.207183e-06    9.4285714 
   96100 5.029591e-07            0 5.3992099e-06 5.4818384e-06 7.2609387e-06    9.4285714 
   96200 4.5561069e-07            0 5.4154371e-06 5.5240071e-06 7.2708316e-06    9.4285714 
   96300 4.3112225e-07            0 5.4307319e-06 5.5600285e-06 7.2500045e-06    9.4285714 
   96400 4.3930285e-07            0 5.4430151e-06 5.5789722e-06 7.2160611e-06    9.4285714 
   96500 4.6493378e-07            0 5.4661115e-06 5.5785143e-06 7.1781808e-06    9.4285714 
   96600 4.9251458e-07            0 5.4963377e-06 5.5640999e-06 7.1270969e-06    9.4285714 
   96700 5.0736557e-07            0 5.521707e-06 5.5498419e-06 7.0880266e-06    9.4285714 
   96800 5.0623403e-07            0 5.5421159e-06 5.5497869e-06 7.0876008e-06    9.4285714 
   96900 4.9644583e-07            0 5.5541079e-06 5.5554785e-06 7.0985488e-06    9.4285714 
   97000 4.9272012e-07            0 5.5642491e-06 5.5573245e-06 7.1072643e-06    9.4285714 
   97100 5.0766017e-07            0 5.574804e-06 5.5607502e-06 7.0960704e-06    9.4285714 
   97200 5.2395618e-07            0 5.5904541e-06 5.5972925e-06 7.0868355e-06    9.4285714 
   97300 4.9953435e-07            0 5.6118394e-06 5.6549726e-06 7.1004286e-06    9.4285714 
   97400 4.7056592e-07            0 5.6267739e-06 5.6665867e-06 7.132434e-06    9.4285714 
   97500 4.6366588e-07            0 5.6279978e-06 5.6384286e-06 7.1776822e-06    9.4285714 
   97600 4.6533884e-07            0 5.6201426e-06 5.6143272e-06 7.2143735e-06    9.4285714 
   97700 4.6375828e-07            0 5.6042233e-06 5.5922009e-06 7.2259013e-06    9.4285714 
   97800 4.5549968e-07            0 5.581613e-06 5.5683497e-06 7.2201315e-06    9.4285714 
   97900 4.4830148e-07            0 5.5561604e-06 5.5523988e-06 7.2080551e-06    9.4285714 
   98000 4.4229249e-07            0 5.5339104e-06 5.5493638e-06 7.1912426e-06    9.4285714 
   98100 4.3249616e-07            0 5.5169313e-06 5.5572061e-06 7.1620443e-06    9.4285714 
   98200 4.2277099e-07            0 5.5048256e-06 5.555431e-06 7.1279636e-06    9.4285714 
   98300 4.0884592e-07            0 5.4920455e-06 5.5364094e-06 7.088059e-06    9.4285714 
   98400 3.8363767e-07            0 5.4775359e-06 5.5080096e-06  7.05458e-06    9.4285714 
   98500 3.6073132e-07            0 5.4670069e-06 5.4816869e-06 7.0387787e-06    9.4285714 
   98600 3.4144123e-07            0 5.4706682e-06 5.4743026e-06 7.0537276e-06    9.4285714 
   98700 3.1616356e-07            0 5.4884314e-06 5.4787633e-06 7.0717401e-06    9.4285714 
   98800 2.9524387e-07            0 5.5116444e-06 5.4915117e-06 7.0801815e-06    9.4285714 
   98900 2.8085695e-07            0 5.5360366e-06 5.5192781e-06 7.0852811e-06    9.4285714 
   99000 2.7334761e-07            0 5.5583091e-06 5.5646801e-06 7.0905775e-06    9.4285714 
   99100 2.8302882e-07            0 5.5671736e-06 5.6102205e-06 7.0851405e-06    9.4285714 
   99200 3.0871833e-07            0 5.5626313e-06 5.641669e-06 7.0655021e-06    9.4285714 
   99300 3.2788327e-07            0 5.5501776e-06 5.6578835e-06 7.052597e-06    9.4285714 
   99400 3.270588e-07            0 5.5333145e-06 5.6580921e-06 7.0554426e-06    9.4285714 
   99500 3.0876961e-07            0 5.5137891e-06 5.6472952e-06 7.0790365e-06    9.4285714 
   99600 2.7792352e-07            0 5.492857e-06 5.630656e-06 7.1072011e-06    9.4285714 
   99700 2.4620411e-07            0 5.4730212e-06 5.6109129e-06 7.1194189e-06    9.4285714 
   99800 2.3278402e-07            0 5.464734e-06 5.5969326e-06 7.115628e-06    9.4285714 
   99900 2.394249e-07            0 5.4754248e-06 5.5974473e-06 7.1078477e-06    9.4285714 
  100000 2.4873051e-07            0 5.5011397e-06 5.6103192e-06 7.1032974e-06    9.4285714 
Loop time of 279.196 on 1 procs for 100000 steps with 2520 atoms

Performance: 1547298.377 tau/day, 358.171 timesteps/s
99.9% CPU use with 1 MPI tasks x no OpenMP threads

MPI task timing breakdown:
Section |  min time  |  avg time  |  max time  |%varavg| %total
---------------------------------------------------------------
Pair    | 4.2815     | 4.2815     | 4.2815     |   0.0 |  1.53
Bond    | 250.07     | 250.07     | 250.07     |   0.0 | 89.57
Neigh   | 4.3874     | 4.3874     | 4.3874     |   0.0 |  1.57
Comm    | 0.1863     | 0.1863     | 0.1863     |   0.0 |  0.07
Output  | 0.091049   | 0.091049   | 0.091049   |   0.0 |  0.03
Modify  | 19.366     | 19.366     | 19.366     |   0.0 |  6.94
Other   |            | 0.8108     |            |       |  0.29

Nlocal:        2520.00 ave        2520 max        2520 min
Histogram: 1 0 0 0 0 0 0 0 0 0
Nghost:         0.00000 ave           0 max           0 min
Histogram: 1 0 0 0 0 0 0 0 0 0
Neighs:        9814.00 ave        9814 max        9814 min
Histogram: 1 0 0 0 0 0 0 0 0 0

Total # of neighbors = 9814
Ave neighs/atom = 3.8944444
Ave special neighs/atom = 36.317460
Neighbor list builds = 4924
Dangerous builds = 274
Total wall time: 0:04:39
