 LAMMPS Description
 
          12 atoms
 
           2 atom types
 
   0.0000000000000000        10.800000000000001      xlo xhi
   0.0000000000000000        10.800000000000001      ylo yhi
   0.0000000000000000        5.4000000000000004      zlo zhi
   6.6130927153957075E-016   3.3065463576978537E-016   3.3065463576978537E-016 xy xz yz
 
 Masses
 
              1   238.05078125000000     
              2   15.994915008544922     
 
 Atoms
 
    1    1    1   0.0   2.70000   8.10000   0.00000
    2    1    2   0.0   1.35000   9.45000   1.35000
    3    1    2   0.0   4.05000   9.45000   1.35000
    4    1    1   0.0   5.40000   8.10000   2.70000
    5    1    2   0.0   4.05000   9.45000   4.05000
    6    1    2   0.0   6.75000   9.45000   4.05000
    7    1    1   0.0   2.70000  10.80000   2.70000
    8    1    2   0.0   1.35000  12.15000   4.05000
    9    1    2   0.0   4.05000  12.15000   4.05000
   10    1    1   0.0   5.40000  10.80000   5.40000
   11    1    2   0.0   4.05000  12.15000   6.75000
   12    1    2   0.0   6.75000  12.15000   6.75000
