ITEM: TIMESTEP
0
ITEM: NUMBER OF ATOMS
12
ITEM: BOX BOUNDS xy xz yz pp pp pp
0.0000000000000000e+00 1.0800000000000001e+01 6.6130927153957075e-16
0.0000000000000000e+00 1.0800000000000001e+01 3.3065463576978537e-16
0.0000000000000000e+00 5.4000000000000004e+00 3.3065463576978537e-16
ITEM: ATOMS id type x y z fx fy fz
1 1 2.7 8.1 0 -0.433947 2.16479 1.55466
2 2 1.35 9.45 1.35 1.64718 -0.119006 0.375837
3 2 4.05 9.45 1.35 0.999862 -1.02573 0.037629
4 1 5.4 8.1 2.7 0.433947 2.16479 1.55466
5 2 4.05 9.45 4.05 -0.999862 -1.02573 0.037629
6 2 6.75 9.45 4.05 -1.64718 -0.119006 0.375837
7 1 2.7 1.65327e-16 2.7 -0.211437 1.63064 -0.0728897
8 2 1.35 1.35 4.05 0.461807 -1.3955 -1.94959
9 2 4.05 1.35 4.05 0.708573 -1.2552 0.0543549
10 1 5.4 0 0 0.211437 1.63064 -0.0728897
11 2 4.05 1.35 1.35 -0.708573 -1.2552 0.0543549
12 2 6.75 1.35 1.35 -0.461807 -1.3955 -1.94959
