CHARMM-GUI lammps input

             10245  atoms
              6973  bonds
              4057  angles
              1363  dihedrals
                70  impropers
                16  crossterms

                64  atom types
                97  bond types
               204  angle types
               404  dihedral types
                21  improper types

    -24.0000      24.0000 xlo xhi
    -24.0000      24.0000 ylo yhi
    -24.0000      24.0000 zlo zhi

Masses

       1         1.008  # H
       2         1.008  # HA1
       3         1.008  # HA2
       4         1.008  # HA3
       5         1.008  # HB1
       6         1.008  # HB2
       7         1.008  # HC
       8         1.008  # HN1
       9         1.008  # HN2
      10         1.008  # HN3
      11         1.008  # HN5
      12         1.008  # HN7
      13         1.008  # HN8
      14         1.008  # HP
      15         1.008  # HR1
      16         1.008  # HR3
      17         1.008  # HS
      18         1.008  # HT
      19        12.011  # C
      20        12.011  # CA
      21        12.011  # CC
      22        12.011  # CN1
      23        12.011  # CN2
      24        12.011  # CN3
      25        12.011  # CN4
      26        12.011  # CN5
      27        12.011  # CN5G
      28        12.011  # CN7
      29        12.011  # CN7B
      30        12.011  # CN8
      31        12.011  # CN8B
      32        12.011  # CPH1
      33        12.011  # CPH2
      34        12.011  # CT1
      35        12.011  # CT2
      36        12.011  # CT2A
      37        12.011  # CT3
      38        14.007  # NC2
      39        14.007  # NH1
      40        14.007  # NH2
      41        14.007  # NH3
      42        14.007  # NN1
      43        14.007  # NN2
      44        14.007  # NN2B
      45        14.007  # NN2G
      46        14.007  # NN3
      47        14.007  # NN3A
      48        14.007  # NN3G
      49        14.007  # NN4
      50        14.007  # NR1
      51        14.007  # NR2
      52        15.999  # O
      53        15.999  # OC
      54        15.999  # ON1
      55        15.999  # ON1C
      56        15.999  # ON2
      57        15.999  # ON3
      58        15.999  # ON5
      59        15.999  # ON6
      60        15.999  # OT
      61        30.974  # P2
      62        32.060  # S
      63        35.450  # CLA
      64        39.098  # POT

PairIJ Coeffs

       1        1 0.04600000000000 0.40001352444501 0.04600000000000 0.40001352444501 # H H
       1        2 0.04549725266431 1.39381104453056 0.04549725266431 1.39381104453056 # H HA1
       1        3 0.03954743986657 1.39381104453056 0.03954743986657 1.39381104453056 # H HA2
       1        4 0.03322649545167 1.39381104453056 0.03322649545167 1.39381104453056 # H HA3
       1        5 0.03181194744117 1.37599307016775 0.03181194744117 1.37599307016775 # H HB1
       1        6 0.03588871688985 1.39381104453056 0.03588871688985 1.39381104453056 # H HB2
       1        7 0.04600000000000 0.40001352444501 0.04600000000000 0.40001352444501 # H HC
       1        8 0.04600000000000 0.40001352444501 0.04600000000000 0.40001352444501 # H HN1
       1        9 0.04600000000000 0.40001352444501 0.04600000000000 0.40001352444501 # H HN2
       1       10 0.04600000000000 1.17999535217688 0.04600000000000 1.17999535217688 # H HN3
       1       11 0.04600000000000 0.40001352444501 0.04600000000000 0.40001352444501 # H HN5
       1       12 0.03181194744117 1.37599307016775 0.03181194744117 1.37599307016775 # H HN7
       1       13 0.03588871688985 1.39381104453056 0.03588871688985 1.39381104453056 # H HN8
       1       14 0.03714835124201 1.41002540120071 0.03714835124201 1.41002540120071 # H HP
       1       15 0.04600000000000 1.00181560854881 0.04600000000000 1.00181560854881 # H HR1
       1       16 0.01894201678808 1.50784608045252 0.01894201678808 1.50784608045252 # H HR3
       1       17 0.06782329983125 0.60091118538566 0.06782329983125 0.60091118538566 # H HS
       1       18 0.04600000000000 0.40001352444501 0.04600000000000 0.40001352444501 # H HT
       1       19 0.07113367697511 1.98180419850318 0.07113367697511 1.98180419850318 # H C
       1       20 0.05674504383644 1.97503336824532 0.05674504383644 1.97503336824532 # H CA
       1       21 0.05674504383644 1.98180419850318 0.05674504383644 1.98180419850318 # H CC
       1       22 0.06782329983125 1.89271432668915 0.06782329983125 1.89271432668915 # H CN1
       1       23 0.06782329983125 1.89271432668915 0.06782329983125 1.89271432668915 # H CN2
       1       24 0.06434283176858 1.89271432668915 0.06434283176858 1.89271432668915 # H CN3
       1       25 0.05873670062235 1.89271432668915 0.05873670062235 1.89271432668915 # H CN4
       1       26 0.05873670062235 1.89271432668915 0.05873670062235 1.89271432668915 # H CN5
       1       27 0.05873670062235 1.89271432668915 0.05873670062235 1.89271432668915 # H CN5G
       1       28 0.03033150177621 2.22680134599178 0.02144761058953 1.89271432668915 # H CN7
       1       29 0.03033150177621 2.22680134599178 0.02144761058953 1.89271432668915 # H CN7B
       1       30 0.05075431016180 1.99071318568459 0.02144761058953 1.89271432668915 # H CN8
       1       31 0.05075431016180 1.99071318568459 0.02144761058953 1.89271432668915 # H CN8B
       1       32 0.04795831523313 1.80362445487512 0.04795831523313 1.80362445487512 # H CPH1
       1       33 0.04795831523313 1.80362445487512 0.04795831523313 1.80362445487512 # H CPH2
       1       34 0.03836665218650 1.98180419850318 0.02144761058953 1.89271432668915 # H CT1
       1       35 0.05075431016180 1.99071318568459 0.02144761058953 1.89271432668915 # H CT2
       1       36 0.05075431016180 1.99071318568459 0.02144761058953 1.89271432668915 # H CT2A
       1       37 0.05989991652749 2.01744014722880 0.02144761058953 1.89271432668915 # H CT3
       1       38 0.09591663046625 1.84816939078213 0.09591663046625 1.84816939078213 # H NC2
       1       39 0.09591663046625 1.84816939078213 0.09591663046625 1.58089977534003 # H NH1
       1       40 0.09591663046625 1.84816939078213 0.09591663046625 1.84816939078213 # H NH2
       1       41 0.09591663046625 1.84816939078213 0.09591663046625 1.84816939078213 # H NH3
       1       42 0.09591663046625 1.84816939078213 0.09591663046625 1.84816939078213 # H NN1
       1       43 0.09591663046625 1.84816939078213 0.09591663046625 1.84816939078213 # H NN2
       1       44 0.09591663046625 1.84816939078213 0.09591663046625 1.84816939078213 # H NN2B
       1       45 0.09591663046625 1.84816939078213 0.09591663046625 1.84816939078213 # H NN2G
       1       46 0.09591663046625 1.84816939078213 0.09591663046625 1.84816939078213 # H NN3
       1       47 0.09591663046625 1.84816939078213 0.09591663046625 1.84816939078213 # H NN3A
       1       48 0.09591663046625 1.84816939078213 0.09591663046625 1.84816939078213 # H NN3G
       1       49 0.09591663046625 1.84816939078213 0.09591663046625 1.84816939078213 # H NN4
       1       50 0.09591663046625 1.84816939078213 0.09591663046625 1.84816939078213 # H NR1
       1       51 0.09591663046625 1.84816939078213 0.09591663046625 1.84816939078213 # H NR2
       1       52 0.07429670248403 1.71453458306108 0.07429670248403 1.44726496761898 # H O
       1       53 0.07429670248403 1.71453458306108 0.07429670248403 1.71453458306108 # H OC
       1       54 0.07429670248403 1.71453458306108 0.07429670248403 1.71453458306108 # H ON1
       1       55 0.07429670248403 1.71453458306108 0.07429670248403 1.71453458306108 # H ON1C
       1       56 0.08364568129916 1.77689749333091 0.08364568129916 1.77689749333091 # H ON2
       1       57 0.07429670248403 1.71453458306108 0.07429670248403 1.71453458306108 # H ON3
       1       58 0.08364568129916 1.77689749333091 0.08364568129916 1.77689749333091 # H ON5
       1       59 0.08364568129916 1.77689749333091 0.08364568129916 1.77689749333091 # H ON6
       1       60 0.08364568129916 1.77529387563825 0.08364568129916 1.77529387563825 # H OT
       1       61 0.16404267737391 2.11543900622424 0.16404267737391 2.11543900622424 # H P2
       1       62 0.14387494569938 1.98180419850318 0.14387494569938 1.98180419850318 # H S
       1       63 0.08306623862918 2.22234685240108 0.08306623862918 2.22234685240108 # H CLA
       1       64 0.06326136261574 1.77132937634253 0.06326136261574 1.77132937634253 # H POT
       2        2 0.04500000000000 2.38760856461611 0.04500000000000 2.38760856461611 # HA1 HA1
       2        3 0.03911521443122 2.38760856461611 0.03911521443122 2.38760856461611 # HA1 HA2
       2        4 0.03286335345031 2.38760856461611 0.03286335345031 2.38760856461611 # HA1 HA3
       2        5 0.03146426544510 2.36979059025330 0.03146426544510 2.36979059025330 # HA1 HB1
       2        6 0.03549647869860 2.38760856461611 0.03549647869860 2.38760856461611 # HA1 HB2
       2        7 0.04549725266431 1.39381104453056 0.04549725266431 1.39381104453056 # HA1 HC
       2        8 0.04549725266431 1.39381104453056 0.04549725266431 1.39381104453056 # HA1 HN1
       2        9 0.04549725266431 1.39381104453056 0.04549725266431 1.39381104453056 # HA1 HN2
       2       10 0.04549725266431 2.17379287226243 0.04549725266431 2.17379287226243 # HA1 HN3
       2       11 0.04549725266431 1.39381104453056 0.04549725266431 1.39381104453056 # HA1 HN5
       2       12 0.03146426544510 2.36979059025330 0.03146426544510 2.36979059025330 # HA1 HN7
       2       13 0.03549647869860 2.38760856461611 0.03549647869860 2.38760856461611 # HA1 HN8
       2       14 0.03674234614175 2.40382292128626 0.03674234614175 2.40382292128626 # HA1 HP
       2       15 0.04549725266431 1.99561312863436 0.04549725266431 1.99561312863436 # HA1 HR1
       2       16 0.01873499399520 2.50164360053807 0.01873499399520 2.50164360053807 # HA1 HR3
       2       17 0.06708203932499 1.59470870547121 0.06708203932499 1.59470870547121 # HA1 HS
       2       18 0.04549725266431 1.39381104453056 0.04549725266431 1.39381104453056 # HA1 HT
       2       19 0.07035623639735 2.97560171858873 0.07035623639735 2.97560171858873 # HA1 C
       2       20 0.05612486080161 2.96883088833087 0.05612486080161 2.96883088833087 # HA1 CA
       2       21 0.05612486080161 2.97560171858873 0.05612486080161 2.97560171858873 # HA1 CC
       2       22 0.06708203932499 2.88651184677470 0.06708203932499 2.88651184677470 # HA1 CN1
       2       23 0.06708203932499 2.88651184677470 0.06708203932499 2.88651184677470 # HA1 CN2
       2       24 0.06363961030679 2.88651184677470 0.06363961030679 2.88651184677470 # HA1 CN3
       2       25 0.05809475019311 2.88651184677470 0.05809475019311 2.88651184677470 # HA1 CN4
       2       26 0.05809475019311 2.88651184677470 0.05809475019311 2.88651184677470 # HA1 CN5
       2       27 0.05809475019311 2.88651184677470 0.05809475019311 2.88651184677470 # HA1 CN5G
       2       28 0.03000000000000 3.22059886607733 0.02121320343560 2.88651184677470 # HA1 CN7
       2       29 0.03000000000000 3.22059886607733 0.02121320343560 2.88651184677470 # HA1 CN7B
       2       30 0.05019960159204 2.98451070577014 0.02121320343560 2.88651184677470 # HA1 CN8
       2       31 0.05019960159204 2.98451070577014 0.02121320343560 2.88651184677470 # HA1 CN8B
       2       32 0.04743416490253 2.79742197496067 0.04743416490253 2.79742197496067 # HA1 CPH1
       2       33 0.04743416490253 2.79742197496067 0.04743416490253 2.79742197496067 # HA1 CPH2
       2       34 0.03794733192202 2.97560171858873 0.02121320343560 2.88651184677470 # HA1 CT1
       2       35 0.05019960159204 2.98451070577014 0.02121320343560 2.88651184677470 # HA1 CT2
       2       36 0.05019960159204 2.98451070577014 0.02121320343560 2.88651184677470 # HA1 CT2A
       2       37 0.05924525297439 3.01123766731435 0.02121320343560 2.88651184677470 # HA1 CT3
       2       38 0.09486832980505 2.84196691086768 0.09486832980505 2.84196691086768 # HA1 NC2
       2       39 0.09486832980505 2.84196691086768 0.09486832980505 2.57469729542558 # HA1 NH1
       2       40 0.09486832980505 2.84196691086768 0.09486832980505 2.84196691086768 # HA1 NH2
       2       41 0.09486832980505 2.84196691086768 0.09486832980505 2.84196691086768 # HA1 NH3
       2       42 0.09486832980505 2.84196691086768 0.09486832980505 2.84196691086768 # HA1 NN1
       2       43 0.09486832980505 2.84196691086768 0.09486832980505 2.84196691086768 # HA1 NN2
       2       44 0.09486832980505 2.84196691086768 0.09486832980505 2.84196691086768 # HA1 NN2B
       2       45 0.09486832980505 2.84196691086768 0.09486832980505 2.84196691086768 # HA1 NN2G
       2       46 0.09486832980505 2.84196691086768 0.09486832980505 2.84196691086768 # HA1 NN3
       2       47 0.09486832980505 2.84196691086768 0.09486832980505 2.84196691086768 # HA1 NN3A
       2       48 0.09486832980505 2.84196691086768 0.09486832980505 2.84196691086768 # HA1 NN3G
       2       49 0.09486832980505 2.84196691086768 0.09486832980505 2.84196691086768 # HA1 NN4
       2       50 0.09486832980505 2.84196691086768 0.09486832980505 2.84196691086768 # HA1 NR1
       2       51 0.09486832980505 2.84196691086768 0.09486832980505 2.84196691086768 # HA1 NR2
       2       52 0.07348469228350 2.70833210314663 0.07348469228350 2.44106248770453 # HA1 O
       2       53 0.07348469228350 2.70833210314663 0.07348469228350 2.70833210314663 # HA1 OC
       2       54 0.07348469228350 2.70833210314663 0.07348469228350 2.70833210314663 # HA1 ON1
       2       55 0.07348469228350 2.70833210314663 0.07348469228350 2.70833210314663 # HA1 ON1C
       2       56 0.08273149339883 2.77069501341646 0.08273149339883 2.77069501341646 # HA1 ON2
       2       57 0.07348469228350 2.70833210314663 0.07348469228350 2.70833210314663 # HA1 ON3
       2       58 0.08273149339883 2.77069501341646 0.08273149339883 2.77069501341646 # HA1 ON5
       2       59 0.08273149339883 2.77069501341646 0.08273149339883 2.77069501341646 # HA1 ON6
       2       60 0.08273149339883 2.76909139572380 0.08273149339883 2.76909139572380 # HA1 OT
       2       61 0.16224980739588 3.10923652630978 0.16224980739588 3.10923652630978 # HA1 P2
       2       62 0.14230249470758 2.97560171858873 0.14230249470758 2.97560171858873 # HA1 S
       2       63 0.08215838362577 3.21614437248662 0.08215838362577 3.21614437248662 # HA1 CLA
       2       64 0.06256996084384 2.76512689642808 0.06256996084384 2.76512689642808 # HA1 POT
       3        3 0.03400000000000 2.38760856461611 0.03400000000000 2.38760856461611 # HA2 HA2
       3        4 0.02856571371417 2.38760856461611 0.02856571371417 2.38760856461611 # HA2 HA3
       3        5 0.02734958866235 2.36979059025330 0.02734958866235 2.36979059025330 # HA2 HB1
       3        6 0.03085449724108 2.38760856461611 0.03085449724108 2.38760856461611 # HA2 HB2
       3        7 0.03954743986657 1.39381104453056 0.03954743986657 1.39381104453056 # HA2 HC
       3        8 0.03954743986657 1.39381104453056 0.03954743986657 1.39381104453056 # HA2 HN1
       3        9 0.03954743986657 1.39381104453056 0.03954743986657 1.39381104453056 # HA2 HN2
       3       10 0.03954743986657 2.17379287226243 0.03954743986657 2.17379287226243 # HA2 HN3
       3       11 0.03954743986657 1.39381104453056 0.03954743986657 1.39381104453056 # HA2 HN5
       3       12 0.02734958866235 2.36979059025330 0.02734958866235 2.36979059025330 # HA2 HN7
       3       13 0.03085449724108 2.38760856461611 0.03085449724108 2.38760856461611 # HA2 HN8
       3       14 0.03193743884534 2.40382292128626 0.03193743884534 2.40382292128626 # HA2 HP
       3       15 0.03954743986657 1.99561312863436 0.03954743986657 1.99561312863436 # HA2 HR1
       3       16 0.01628496238866 2.50164360053807 0.01628496238866 2.50164360053807 # HA2 HR3
       3       17 0.05830951894845 1.59470870547121 0.05830951894845 1.59470870547121 # HA2 HS
       3       18 0.03954743986657 1.39381104453056 0.03954743986657 1.39381104453056 # HA2 HT
       3       19 0.06115553940568 2.97560171858873 0.06115553940568 2.97560171858873 # HA2 C
       3       20 0.04878524367060 2.96883088833087 0.04878524367060 2.96883088833087 # HA2 CA
       3       21 0.04878524367060 2.97560171858873 0.04878524367060 2.97560171858873 # HA2 CC
       3       22 0.05830951894845 2.88651184677470 0.05830951894845 2.88651184677470 # HA2 CN1
       3       23 0.05830951894845 2.88651184677470 0.05830951894845 2.88651184677470 # HA2 CN2
       3       24 0.05531726674376 2.88651184677470 0.05531726674376 2.88651184677470 # HA2 CN3
       3       25 0.05049752469181 2.88651184677470 0.05049752469181 2.88651184677470 # HA2 CN4
       3       26 0.05049752469181 2.88651184677470 0.05049752469181 2.88651184677470 # HA2 CN5
       3       27 0.05049752469181 2.88651184677470 0.05049752469181 2.88651184677470 # HA2 CN5G
       3       28 0.02607680962081 3.22059886607733 0.01843908891459 2.88651184677470 # HA2 CN7
       3       29 0.02607680962081 3.22059886607733 0.01843908891459 2.88651184677470 # HA2 CN7B
       3       30 0.04363484845854 2.98451070577014 0.01843908891459 2.88651184677470 # HA2 CN8
       3       31 0.04363484845854 2.98451070577014 0.01843908891459 2.88651184677470 # HA2 CN8B
       3       32 0.04123105625618 2.79742197496067 0.04123105625618 2.79742197496067 # HA2 CPH1
       3       33 0.04123105625618 2.79742197496067 0.04123105625618 2.79742197496067 # HA2 CPH2
       3       34 0.03298484500494 2.97560171858873 0.01843908891459 2.88651184677470 # HA2 CT1
       3       35 0.04363484845854 2.98451070577014 0.01843908891459 2.88651184677470 # HA2 CT2
       3       36 0.04363484845854 2.98451070577014 0.01843908891459 2.88651184677470 # HA2 CT2A
       3       37 0.05149757275833 3.01123766731435 0.01843908891459 2.88651184677470 # HA2 CT3
       3       38 0.08246211251235 2.84196691086768 0.08246211251235 2.84196691086768 # HA2 NC2
       3       39 0.08246211251235 2.84196691086768 0.08246211251235 2.57469729542558 # HA2 NH1
       3       40 0.08246211251235 2.84196691086768 0.08246211251235 2.84196691086768 # HA2 NH2
       3       41 0.08246211251235 2.84196691086768 0.08246211251235 2.84196691086768 # HA2 NH3
       3       42 0.08246211251235 2.84196691086768 0.08246211251235 2.84196691086768 # HA2 NN1
       3       43 0.08246211251235 2.84196691086768 0.08246211251235 2.84196691086768 # HA2 NN2
       3       44 0.08246211251235 2.84196691086768 0.08246211251235 2.84196691086768 # HA2 NN2B
       3       45 0.08246211251235 2.84196691086768 0.08246211251235 2.84196691086768 # HA2 NN2G
       3       46 0.08246211251235 2.84196691086768 0.08246211251235 2.84196691086768 # HA2 NN3
       3       47 0.08246211251235 2.84196691086768 0.08246211251235 2.84196691086768 # HA2 NN3A
       3       48 0.08246211251235 2.84196691086768 0.08246211251235 2.84196691086768 # HA2 NN3G
       3       49 0.08246211251235 2.84196691086768 0.08246211251235 2.84196691086768 # HA2 NN4
       3       50 0.08246211251235 2.84196691086768 0.08246211251235 2.84196691086768 # HA2 NR1
       3       51 0.08246211251235 2.84196691086768 0.08246211251235 2.84196691086768 # HA2 NR2
       3       52 0.06387487769069 2.70833210314663 0.06387487769069 2.44106248770453 # HA2 O
       3       53 0.06387487769069 2.70833210314663 0.06387487769069 2.70833210314663 # HA2 OC
       3       54 0.06387487769069 2.70833210314663 0.06387487769069 2.70833210314663 # HA2 ON1
       3       55 0.06387487769069 2.70833210314663 0.06387487769069 2.70833210314663 # HA2 ON1C
       3       56 0.07191244676688 2.77069501341646 0.07191244676688 2.77069501341646 # HA2 ON2
       3       57 0.06387487769069 2.70833210314663 0.06387487769069 2.70833210314663 # HA2 ON3
       3       58 0.07191244676688 2.77069501341646 0.07191244676688 2.77069501341646 # HA2 ON5
       3       59 0.07191244676688 2.77069501341646 0.07191244676688 2.77069501341646 # HA2 ON6
       3       60 0.07191244676688 2.76909139572380 0.07191244676688 2.76909139572380 # HA2 OT
       3       61 0.14103191128252 3.10923652630978 0.14103191128252 3.10923652630978 # HA2 P2
       3       62 0.12369316876853 2.97560171858873 0.12369316876853 2.97560171858873 # HA2 S
       3       63 0.07141428428543 3.21614437248662 0.07141428428543 3.21614437248662 # HA2 CLA
       3       64 0.05438749856355 2.76512689642808 0.05438749856355 2.76512689642808 # HA2 POT
       4        4 0.02400000000000 2.38760856461611 0.02400000000000 2.38760856461611 # HA3 HA3
       4        5 0.02297825058615 2.36979059025330 0.02297825058615 2.36979059025330 # HA3 HB1
       4        6 0.02592296279363 2.38760856461611 0.02592296279363 2.38760856461611 # HA3 HB2
       4        7 0.03322649545167 1.39381104453056 0.03322649545167 1.39381104453056 # HA3 HC
       4        8 0.03322649545167 1.39381104453056 0.03322649545167 1.39381104453056 # HA3 HN1
       4        9 0.03322649545167 1.39381104453056 0.03322649545167 1.39381104453056 # HA3 HN2
       4       10 0.03322649545167 2.17379287226243 0.03322649545167 2.17379287226243 # HA3 HN3
       4       11 0.03322649545167 1.39381104453056 0.03322649545167 1.39381104453056 # HA3 HN5
       4       12 0.02297825058615 2.36979059025330 0.02297825058615 2.36979059025330 # HA3 HN7
       4       13 0.02592296279363 2.38760856461611 0.02592296279363 2.38760856461611 # HA3 HN8
       4       14 0.02683281573000 2.40382292128626 0.02683281573000 2.40382292128626 # HA3 HP
       4       15 0.03322649545167 1.99561312863436 0.03322649545167 1.99561312863436 # HA3 HR1
       4       16 0.01368210510119 2.50164360053807 0.01368210510119 2.50164360053807 # HA3 HR3
       4       17 0.04898979485566 1.59470870547121 0.04898979485566 1.59470870547121 # HA3 HS
       4       18 0.03322649545167 1.39381104453056 0.03322649545167 1.39381104453056 # HA3 HT
       4       19 0.05138093031466 2.97560171858873 0.05138093031466 2.97560171858873 # HA3 C
       4       20 0.04098780306384 2.96883088833087 0.04098780306384 2.96883088833087 # HA3 CA
       4       21 0.04098780306384 2.97560171858873 0.04098780306384 2.97560171858873 # HA3 CC
       4       22 0.04898979485566 2.88651184677470 0.04898979485566 2.88651184677470 # HA3 CN1
       4       23 0.04898979485566 2.88651184677470 0.04898979485566 2.88651184677470 # HA3 CN2
       4       24 0.04647580015449 2.88651184677470 0.04647580015449 2.88651184677470 # HA3 CN3
       4       25 0.04242640687119 2.88651184677470 0.04242640687119 2.88651184677470 # HA3 CN4
       4       26 0.04242640687119 2.88651184677470 0.04242640687119 2.88651184677470 # HA3 CN5
       4       27 0.04242640687119 2.88651184677470 0.04242640687119 2.88651184677470 # HA3 CN5G
       4       28 0.02190890230021 3.22059886607733 0.01549193338483 2.88651184677470 # HA3 CN7
       4       29 0.02190890230021 3.22059886607733 0.01549193338483 2.88651184677470 # HA3 CN7B
       4       30 0.03666060555965 2.98451070577014 0.01549193338483 2.88651184677470 # HA3 CN8
       4       31 0.03666060555965 2.98451070577014 0.01549193338483 2.88651184677470 # HA3 CN8B
       4       32 0.03464101615138 2.79742197496067 0.03464101615138 2.79742197496067 # HA3 CPH1
       4       33 0.03464101615138 2.79742197496067 0.03464101615138 2.79742197496067 # HA3 CPH2
       4       34 0.02771281292110 2.97560171858873 0.01549193338483 2.88651184677470 # HA3 CT1
       4       35 0.03666060555965 2.98451070577014 0.01549193338483 2.88651184677470 # HA3 CT2
       4       36 0.03666060555965 2.98451070577014 0.01549193338483 2.88651184677470 # HA3 CT2A
       4       37 0.04326661530557 3.01123766731435 0.01549193338483 2.88651184677470 # HA3 CT3
       4       38 0.06928203230276 2.84196691086768 0.06928203230276 2.84196691086768 # HA3 NC2
       4       39 0.06928203230276 2.84196691086768 0.06928203230276 2.57469729542558 # HA3 NH1
       4       40 0.06928203230276 2.84196691086768 0.06928203230276 2.84196691086768 # HA3 NH2
       4       41 0.06928203230276 2.84196691086768 0.06928203230276 2.84196691086768 # HA3 NH3
       4       42 0.06928203230276 2.84196691086768 0.06928203230276 2.84196691086768 # HA3 NN1
       4       43 0.06928203230276 2.84196691086768 0.06928203230276 2.84196691086768 # HA3 NN2
       4       44 0.06928203230276 2.84196691086768 0.06928203230276 2.84196691086768 # HA3 NN2B
       4       45 0.06928203230276 2.84196691086768 0.06928203230276 2.84196691086768 # HA3 NN2G
       4       46 0.06928203230276 2.84196691086768 0.06928203230276 2.84196691086768 # HA3 NN3
       4       47 0.06928203230276 2.84196691086768 0.06928203230276 2.84196691086768 # HA3 NN3A
       4       48 0.06928203230276 2.84196691086768 0.06928203230276 2.84196691086768 # HA3 NN3G
       4       49 0.06928203230276 2.84196691086768 0.06928203230276 2.84196691086768 # HA3 NN4
       4       50 0.06928203230276 2.84196691086768 0.06928203230276 2.84196691086768 # HA3 NR1
       4       51 0.06928203230276 2.84196691086768 0.06928203230276 2.84196691086768 # HA3 NR2
       4       52 0.05366563145999 2.70833210314663 0.05366563145999 2.44106248770453 # HA3 O
       4       53 0.05366563145999 2.70833210314663 0.05366563145999 2.70833210314663 # HA3 OC
       4       54 0.05366563145999 2.70833210314663 0.05366563145999 2.70833210314663 # HA3 ON1
       4       55 0.05366563145999 2.70833210314663 0.05366563145999 2.70833210314663 # HA3 ON1C
       4       56 0.06041854020084 2.77069501341646 0.06041854020084 2.77069501341646 # HA3 ON2
       4       57 0.05366563145999 2.70833210314663 0.05366563145999 2.70833210314663 # HA3 ON3
       4       58 0.06041854020084 2.77069501341646 0.06041854020084 2.77069501341646 # HA3 ON5
       4       59 0.06041854020084 2.77069501341646 0.06041854020084 2.77069501341646 # HA3 ON6
       4       60 0.06041854020084 2.76909139572380 0.06041854020084 2.76909139572380 # HA3 OT
       4       61 0.11849050594879 3.10923652630978 0.11849050594879 3.10923652630978 # HA3 P2
       4       62 0.10392304845413 2.97560171858873 0.10392304845413 2.97560171858873 # HA3 S
       4       63 0.06000000000000 3.21614437248662 0.06000000000000 3.21614437248662 # HA3 CLA
       4       64 0.04569463863518 2.76512689642808 0.04569463863518 2.76512689642808 # HA3 POT
       5        5 0.02200000000000 2.35197261589050 0.02200000000000 2.35197261589050 # HB1 HB1
       5        6 0.02481934729198 2.36979059025330 0.02481934729198 2.36979059025330 # HB1 HB2
       5        7 0.03181194744117 1.37599307016775 0.03181194744117 1.37599307016775 # HB1 HC
       5        8 0.03181194744117 1.37599307016775 0.03181194744117 1.37599307016775 # HB1 HN1
       5        9 0.03181194744117 1.37599307016775 0.03181194744117 1.37599307016775 # HB1 HN2
       5       10 0.03181194744117 2.15597489789962 0.03181194744117 2.15597489789962 # HB1 HN3
       5       11 0.03181194744117 1.37599307016775 0.03181194744117 1.37599307016775 # HB1 HN5
       5       12 0.02200000000000 2.35197261589050 0.02200000000000 2.35197261589050 # HB1 HN7
       5       13 0.02481934729198 2.36979059025330 0.02481934729198 2.36979059025330 # HB1 HN8
       5       14 0.02569046515733 2.38600494692346 0.02569046515733 2.38600494692346 # HB1 HP
       5       15 0.03181194744117 1.97779515427155 0.03181194744117 1.97779515427155 # HB1 HR1
       5       16 0.01309961831505 2.48382562617527 0.01309961831505 2.48382562617527 # HB1 HR3
       5       17 0.04690415759823 1.57689073110840 0.04690415759823 1.57689073110840 # HB1 HS
       5       18 0.03181194744117 1.37599307016775 0.03181194744117 1.37599307016775 # HB1 HT
       5       19 0.04919349550500 2.95778374422593 0.04919349550500 2.95778374422593 # HB1 C
       5       20 0.03924283374070 2.95101291396806 0.03924283374070 2.95101291396806 # HB1 CA
       5       21 0.03924283374070 2.95778374422593 0.03924283374070 2.95778374422593 # HB1 CC
       5       22 0.04690415759823 2.86869387241189 0.04690415759823 2.86869387241189 # HB1 CN1
       5       23 0.04690415759823 2.86869387241189 0.04690415759823 2.86869387241189 # HB1 CN2
       5       24 0.04449719092257 2.86869387241189 0.04449719092257 2.86869387241189 # HB1 CN3
       5       25 0.04062019202318 2.86869387241189 0.04062019202318 2.86869387241189 # HB1 CN4
       5       26 0.04062019202318 2.86869387241189 0.04062019202318 2.86869387241189 # HB1 CN5
       5       27 0.04062019202318 2.86869387241189 0.04062019202318 2.86869387241189 # HB1 CN5G
       5       28 0.02097617696340 3.20278089171452 0.01483239697419 2.86869387241189 # HB1 CN7
       5       29 0.02097617696340 3.20278089171452 0.01483239697419 2.86869387241189 # HB1 CN7B
       5       30 0.03509985754957 2.96669273140733 0.01483239697419 2.86869387241189 # HB1 CN8
       5       31 0.03509985754957 2.96669273140733 0.01483239697419 2.86869387241189 # HB1 CN8B
       5       32 0.03316624790355 2.77960400059786 0.03316624790355 2.77960400059786 # HB1 CPH1
       5       33 0.03316624790355 2.77960400059786 0.03316624790355 2.77960400059786 # HB1 CPH2
       5       34 0.02653299832284 2.95778374422593 0.01483239697419 2.86869387241189 # HB1 CT1
       5       35 0.03509985754957 2.96669273140733 0.01483239697419 2.86869387241189 # HB1 CT2
       5       36 0.03509985754957 2.96669273140733 0.01483239697419 2.86869387241189 # HB1 CT2A
       5       37 0.04142463035442 2.99341969295154 0.01483239697419 2.86869387241189 # HB1 CT3
       5       38 0.06633249580711 2.82414893650488 0.06633249580711 2.82414893650488 # HB1 NC2
       5       39 0.06633249580711 2.82414893650488 0.06633249580711 2.55687932106277 # HB1 NH1
       5       40 0.06633249580711 2.82414893650488 0.06633249580711 2.82414893650488 # HB1 NH2
       5       41 0.06633249580711 2.82414893650488 0.06633249580711 2.82414893650488 # HB1 NH3
       5       42 0.06633249580711 2.82414893650488 0.06633249580711 2.82414893650488 # HB1 NN1
       5       43 0.06633249580711 2.82414893650488 0.06633249580711 2.82414893650488 # HB1 NN2